FOO
138240
    1MOL0     O    1   8.270   8.548   8.114 -0.0421 -0.3081 -0.3891
    1MOL0     C    2   8.247   8.549   7.991  0.9182  0.8180  0.4152
    1MOL0     O    3   8.312   8.627   7.900  0.8422 -0.5383 -0.0189
    1MOL0     C    4   8.423   8.693   7.939 -0.8327 -0.0120 -0.4962
    1MOL0     C    5   8.545   8.624   7.964 -0.6042  0.8913 -0.1246
    1MOL0     C    6   8.668   8.682   7.979  0.2528  0.9225 -0.0561
    1MOL0     C    7   8.675   8.815   7.960  0.8415 -0.9016  0.1307
    1MOL0     O    8   8.791   8.876   7.981  0.0376 -0.5620  0.3570
    1MOL0     C    9   8.839   8.967   7.884 -0.8394 -0.4372  0.5557
    1MOL0     C   10   8.978   8.926   7.841  0.1064 -0.3453 -1.0386
    1MOL0     C   11   9.066   9.043   7.806  0.2886  0.2171  0.4498
    1MOL0     C   12   9.214   8.995   7.816 -0.9212  0.0370 -0.0748
    1MOL0     C   13   9.303   9.092   7.739  0.1508  0.1497 -1.6555
    1MOL0     C   14   9.286   9.239   7.786 -0.0040 -0.8024  0.5005
    1MOL0     C   15   9.404   9.326   7.762  0.6823  0.2635 -0.1936
    1MOL0     C   16   9.445   9.367   7.616  0.3442 -0.7469  0.7050
    1MOL0     N   17   9.558   9.459   7.628  1.2844 -0.5128  0.1010
    1MOL0     C   18   9.691   9.411   7.620 -0.0021 -0.0301 -0.5392
    1MOL0     C   19   9.767   9.517   7.644 -0.5944  0.5413  0.0265
    1MOL0     C   20   9.916   9.526   7.652  0.1603 -0.4227  0.4618
    1MOL0     C   21   9.965   9.535   7.798 -0.4130 -0.3201 -0.9284
    1MOL0     C   22   9.920   9.665   7.875  0.1729  0.1546 -0.2090
    1MOL0     C   23   9.788   9.652   7.960  0.1774 -0.1677  0.1310
    1MOL0     O   24   9.813   9.557   8.070 -0.4783  0.3809  0.2818
    1MOL0     C   25   9.701   9.493   8.110  0.4532  0.5112 -0.4322
    1MOL0     C   26   9.633   9.527   8.227 -0.5422 -0.5496  0.5991
    1MOL0     C   27   9.515   9.459   8.267  0.2462 -0.4277  0.6223
    1MOL0     C   28   9.442   9.518   8.390  0.6681 -1.0236  0.4117
    1MOL0     C   29   9.474   9.349   8.192  0.3221  0.3602 -1.1758
    1MOL0     C   30   9.353   9.267   8.230  0.8009  0.6652 -0.7659
    1MOL0     O   31   9.328   9.160   8.146 -0.0564 -0.4140  0.3049
    1MOL0     C   32   9.225   9.077   8.182 -0.8075  0.3068  0.0173
    1MOL0     C   33   9.095   9.102   8.139 -0.4975 -0.5632 -0.1370
    1MOL0     C   34   8.989   9.024   8.183 -0.1396 -1.1396  0.0797
    1MOL0     C   35   9.007   8.930   8.283  0.0600  0.5666  0.5476
    1MOL0     O   36   8.915   8.850   8.332 -0.3194  0.1733  0.9429
    1MOL0     C   37   8.774   8.855   8.300 -0.8433 -0.0147  0.0964
    1MOL0     C   38   8.707   8.767   8.401  0.1659  0.0800 -0.4557
    1MOL0     C   39   8.572   8.711   8.354  0.4083  0.2178  0.4437
    1MOL0     C   40   8.517   8.622   8.467  0.6120 -0.1020  0.3772
    1MOL0     C   41   8.378   8.558   8.420  0.8051 -0.4548 -0.0511
    1MOL0     C   42   8.317   8.478   8.534 -0.3178  0.0583  0.5075
    1MOL0     C   43   8.209   8.382   8.468  0.0355  0.4186 -0.1288
    1MOL0     C   44   8.164   8.294   8.572 -0.3078 -0.2681 -0.1514
    1MOL0    Cl   45   8.294   8.196   8.640  0.0690  0.0123  0.3827
    1MOL0     C   46   9.135   8.907   8.332 -1.2496 -0.5004  0.2174
    1MOL0     C   47   9.246   8.980   8.277  0.2823 -0.7276  0.2526
    1MOL0     O   48   9.284   9.292   8.332  0.0357  0.0817 -0.1976
    1MOL0     C   49   9.548   9.308   8.083 -0.6188  0.5703 -0.7271
    1MOL0     C   50   9.662   9.379   8.043 -0.7044  0.5204  0.1092
    1MOL0     N   51   9.681   9.630   7.654  0.3407 -0.3542  0.2422
    1MOL0     N   52   9.559   9.596   7.634  0.3627 -0.6253  0.1583
    1MOL0     C   53   8.561   8.892   7.934 -0.0632  0.4675 -0.0946
    1MOL0     C   54   8.427   8.830   7.927  0.5238 -0.9986  0.3296
    1MOL0     C   55   8.113   8.489   7.954  0.3883 -0.2584 -0.7774
    1MOL0     C   56   8.042   8.411   8.049 -0.6091  0.6515  0.4280
    1MOL0     C   57   7.942   8.315   8.012 -0.1030  0.2903  0.2800
    1MOL0     C   58   7.899   8.313   7.879 -0.6212  0.3679 -0.1802
    1MOL0     O   59   7.801   8.220   7.856  0.5946 -0.3298 -0.8992
    1MOL0     C   60   7.742   8.231   7.733  0.4195  0.2723  0.6648
    1MOL0     C   61   7.622   8.133   7.742 -0.6893  0.3571 -0.2034
    1MOL0     C   62   7.507   8.181   7.823 -0.2448  0.0122  0.0500
    1MOL0     C   63   7.377   8.220   7.737  0.4024 -0.0231 -0.7504
    1MOL0     C   64   7.287   8.101   7.721 -0.5717 -0.2009  0.1539
    1MOL0     C   65   7.208   8.019   7.680  0.2041 -0.5221  0.1328
    1MOL0     C   66   7.948   8.410   7.791  0.8763 -0.7716  0.6066
    1MOL0     C   67   8.057   8.500   7.826 -1.0829  0.8330  0.8751
    1MOL0     H   68   8.548   8.516   7.972  0.9756  1.0413  1.8966
    1MOL0     H   69   8.758   8.622   7.991  0.0299  0.5258 -0.3340
    1MOL0     H   70   8.768   8.965   7.801 -1.3549  0.5268  0.9638
    1MOL0     H   71   8.828   9.068   7.925 -3.3724 -0.3470 -0.1845
    1MOL0     H   72   9.025   8.861   7.916 -1.9605  0.4921  1.1127
    1MOL0     H   73   8.971   8.863   7.752 -1.0436 -0.4829 -0.8629
    1MOL0     H   74   9.054   9.075   7.702  4.8130 -0.1876 -0.3970
    1MOL0     H   75   9.049   9.135   7.863  0.4189  1.1417 -0.9504
    1MOL0     H   76   9.254   8.992   7.917  1.1572  0.4223 -0.8339
    1MOL0     H   77   9.231   8.892   7.783 -0.2810  0.2628 -0.4878
    1MOL0     H   78   9.406   9.059   7.751 -0.8971 -4.3354 -3.1078
    1MOL0     H   79   9.281   9.079   7.633 -0.5817 -1.6145 -1.3377
    1MOL0     H   80   9.199   9.286   7.739  2.3924  3.1484 -0.4131
    1MOL0     H   81   9.264   9.241   7.893 -0.7409 -0.5882  0.3466
    1MOL0     H   82   9.384   9.420   7.814 -1.3994 -0.5516  0.5874
    1MOL0     H   83   9.493   9.282   7.807  2.2654  2.2647 -1.2007
    1MOL0     H   84   9.370   9.405   7.546  2.8407  1.9890 -0.6909
    1MOL0     H   85   9.476   9.272   7.571  1.1483 -1.1996  2.1319
    1MOL0     H   86   9.724   9.308   7.610  0.1667 -0.0209 -0.0805
    1MOL0     H   87   9.971   9.453   7.592  0.4214 -0.4185  0.6899
    1MOL0     H   88   9.940   9.621   7.605  0.5375 -0.2733  0.9433
    1MOL0     H   89  10.074   9.527   7.805 -0.5524 -0.8519  1.7959
    1MOL0     H   90   9.919   9.449   7.847 -0.6989 -2.1008 -4.0761
    1MOL0     H   91   9.921   9.746   7.801  1.8324  1.1407  0.8051
    1MOL0     H   92   9.997   9.688   7.949  0.0917  0.7867 -0.3109
    1MOL0     H   93   9.700   9.619   7.905 -0.3817 -0.1710  0.9973
    1MOL0     H   94   9.770   9.750   8.005 -1.7206  1.2862 -3.4173
    1MOL0     H   95   9.684   9.607   8.280  2.1108 -2.3665  0.9894
    1MOL0     H   96   9.404   9.442   8.458 -0.8342 -0.8342 -0.1708
    1MOL0     H   97   9.512   9.584   8.442 -2.3247  1.6493  1.3601
    1MOL0     H   98   9.355   9.579   8.363  1.9312  0.7421  0.1688
    1MOL0     H   99   9.077   9.184   8.070 -0.8484 -2.8747 -2.9970
    1MOL0     H  100   8.894   9.056   8.141 -1.2416 -0.8403  2.6518
    1MOL0     H  101   8.739   8.958   8.313 -0.3114  0.6632 -3.0885
    1MOL0     H  102   8.747   8.813   8.203  2.2331 -1.4092 -0.2734
    1MOL0     H  103   8.760   8.675   8.426  0.5608  0.7056  1.1161
    1MOL0     H  104   8.711   8.814   8.500  0.2315 -1.3997  0.2602
    1MOL0     H  105   8.593   8.660   8.260  0.9446 -0.4199  0.9009
    1MOL0     H  106   8.505   8.796   8.339 -2.0778 -0.9431  3.8913
    1MOL0     H  107   8.588   8.540   8.484  1.0652  0.1928 -0.0560
    1MOL0     H  108   8.508   8.680   8.559  3.2111 -0.1605  0.7474
    1MOL0     H  109   8.404   8.495   8.335 -0.8199 -0.5227 -0.5367
    1MOL0     H  110   8.309   8.637   8.390 -0.3029 -1.0226  0.9400
    1MOL0     H  111   8.392   8.419   8.587 -0.0488 -1.8290 -1.7882
    1MOL0     H  112   8.272   8.546   8.606 -2.0775 -1.4820  0.9593
    1MOL0     H  113   8.252   8.326   8.384 -0.9911 -2.0484  0.8736
    1MOL0     H  114   8.130   8.451   8.435  0.6554  0.6891 -1.0858
    1MOL0     H  115   8.082   8.228   8.543  0.0393 -1.3069  1.1459
    1MOL0     H  116   8.116   8.355   8.648 -1.5248  0.0011 -1.0893
    1MOL0     H  117   9.167   8.833   8.405  1.5784 -1.5801 -1.9295
    1MOL0     H  118   9.343   8.966   8.323  1.1831  1.5602 -0.7776
    1MOL0     H  119   9.535   9.219   8.023  4.0961 -0.4013 -0.6923
    1MOL0     H  120   9.727   9.337   7.968 -0.6012  0.5555  0.1778
    1MOL0     H  121   8.558   9.000   7.941  0.1018  0.3788  2.8515
    1MOL0     H  122   8.343   8.894   7.904  1.1763 -0.2321  0.0062
    1MOL0     H  123   8.064   8.410   8.156  1.8771  0.5213 -0.0245
    1MOL0     H  124   7.906   8.246   8.088  2.8205 -2.2847 -0.4969
    1MOL0     H  125   7.707   8.334   7.724 -1.6025 -0.5382 -1.6677
    1MOL0     H  126   7.809   8.199   7.653  0.9717  1.1498  0.7563
    1MOL0     H  127   7.659   8.033   7.766  0.4332 -0.4396 -4.5057
    1MOL0     H  128   7.588   8.119   7.639 -0.8136 -2.2879  0.1360
    1MOL0     H  129   7.526   8.242   7.912  0.6161  2.9226 -1.9862
    1MOL0     H  130   7.473   8.087   7.866  0.1938 -0.9217 -1.5879
    1MOL0     H  131   7.418   8.255   7.642  0.5547  0.2049 -0.6020
    1MOL0     H  132   7.327   8.306   7.781  0.5944 -1.0445  1.6198
    1MOL0     H  133   7.145   7.938   7.652 -1.1605  0.8672 -1.0419
    1MOL0     H  134   7.919   8.416   7.687 -1.1968  2.3690  1.2323
    1MOL0     H  135   8.104   8.561   7.751 -0.9278 -0.6723 -0.2994
    2MOL0     O  136   4.840   7.983   7.199  0.0410 -0.6871 -0.0139
    2MOL0     C  137   4.798   8.100   7.173  0.4364 -0.2428 -0.8801
    2MOL0     O  138   4.680   8.134   7.116 -0.1504 -0.2119  0.0427
    2MOL0     C  139   4.602   8.024   7.080 -0.0860  0.5811  0.8171
    2MOL0     C  140   4.601   7.998   6.944  0.5691  0.7039  0.3474
    2MOL0     C  141   4.510   7.904   6.894  0.3878  0.1826 -0.0560
    2MOL0     C  142   4.428   7.831   6.981  0.8189 -0.1301 -0.3793
    2MOL0     O  143   4.332   7.747   6.923 -0.8051 -0.1588  0.6502
    2MOL0     C  144   4.315   7.626   6.995  0.1433  0.1268 -0.7676
    2MOL0     C  145   4.283   7.517   6.894 -0.6964  0.4432  0.0598
    2MOL0     C  146   4.139   7.495   6.842 -0.0950  0.3564  0.2039
    2MOL0     C  147   4.044   7.450   6.951  0.2644  0.3166 -0.8653
    2MOL0     C  148   3.894   7.434   6.924  0.3945 -0.1253 -0.0571
    2MOL0     C  149   3.839   7.554   6.847  0.1348  0.7337 -0.1431
    2MOL0     C  150   3.690   7.544   6.808  1.1040 -0.2628  0.1259
    2MOL0     C  151   3.669   7.588   6.663  0.6968 -0.2431  0.3017
    2MOL0     N  152   3.523   7.583   6.632  0.1315 -0.2984 -0.5423
    2MOL0     C  153   3.451   7.462   6.635  0.2633 -0.1529 -0.1595
    2MOL0     C  154   3.346   7.468   6.545 -0.4672 -0.6244 -0.0880
    2MOL0     C  155   3.249   7.368   6.513 -0.0930 -0.7519  0.1774
    2MOL0     C  156   3.205   7.304   6.646  0.1133 -1.3956  0.5427
    2MOL0     C  157   3.101   7.189   6.638 -0.1486  0.1730  0.5069
    2MOL0     C  158   3.113   7.106   6.514 -1.0567 -1.5671 -0.0392
    2MOL0     O  159   3.045   6.982   6.539  0.1973 -0.1779  0.0538
    2MOL0     C  160   3.085   6.881   6.621 -0.2313  0.3835  0.4317
    2MOL0     C  161   2.994   6.781   6.636  0.1867 -0.5944 -0.4624
    2MOL0     C  162   3.003   6.673   6.724  0.3943 -0.5870  0.6505
    2MOL0     C  163   2.888   6.577   6.728  0.0295 -0.3326 -0.1426
    2MOL0     C  164   3.127   6.655   6.795  0.3644  0.1129 -0.7108
    2MOL0     C  165   3.139   6.543   6.894 -0.1764 -0.4436 -0.9171
    2MOL0     O  166   3.274   6.513   6.922  0.3968  0.1520  0.6718
    2MOL0     C  167   3.290   6.408   7.011 -0.0954  0.9411  1.0452
    2MOL0     C  168   3.265   6.275   6.969  0.2503  0.0538  0.3034
    2MOL0     C  169   3.302   6.176   7.062 -0.0001  1.1503 -0.0014
    2MOL0     C  170   3.370   6.191   7.180 -0.4067 -0.2092  0.2003
    2MOL0     O  171   3.425   6.076   7.245  0.9383 -0.6760  1.4260
    2MOL0     C  172   3.407   6.064   7.384  0.2791  0.1145 -0.9103
    2MOL0     C  173   3.422   5.927   7.451 -0.4790 -0.3555 -0.0854
    2MOL0     C  174   3.317   5.818   7.428  1.2193 -0.3485 -0.2094
    2MOL0     C  175   3.263   5.797   7.282  0.1605  0.1884 -0.6227
    2MOL0     C  176   3.173   5.670   7.273 -0.3449  0.0317  0.4389
    2MOL0     C  177   3.073   5.664   7.156  0.5955  1.0590 -0.2626
    2MOL0     C  178   3.134   5.678   7.014 -0.9198 -0.0436 -0.1607
    2MOL0     C  179   3.062   5.792   6.940  0.1777  0.0582  0.7642
    2MOL0    Cl  180   2.909   5.728   6.890  0.3529  0.2866 -0.0766
    2MOL0     C  181   3.393   6.321   7.219 -0.1485  0.2505 -0.2811
    2MOL0     C  182   3.355   6.427   7.135  0.0416  0.3471  0.0734
    2MOL0     O  183   3.042   6.496   6.954  0.0300 -0.8979  0.7937
    2MOL0     C  184   3.220   6.764   6.787  0.2083  0.6541 -0.0756
    2MOL0     C  185   3.202   6.868   6.691 -0.8706 -0.4246 -0.8045
    2MOL0     N  186   3.365   7.597   6.484 -1.1633 -0.5685  0.3759
    2MOL0     N  187   3.461   7.660   6.544  0.2761 -0.3169  0.0619
    2MOL0     C  188   4.434   7.857   7.124 -0.6337 -0.4623 -0.2291
    2MOL0     C  189   4.524   7.956   7.168 -0.0973 -0.1916 -1.2453
    2MOL0     C  190   4.900   8.198   7.211 -0.6624  0.0875  0.4022
    2MOL0     C  191   4.947   8.290   7.120  0.2659 -0.4177 -0.2929
    2MOL0     C  192   5.056   8.370   7.149 -0.0683 -0.7964 -0.3194
    2MOL0     C  193   5.118   8.352   7.274 -0.0186 -0.1017 -0.3189
    2MOL0     O  194   5.237   8.417   7.311 -0.0133 -0.1169  0.1166
    2MOL0     C  195   5.281   8.519   7.226 -0.0009 -0.7362  0.6083
    2MOL0     C  196   5.413   8.597   7.266 -0.7111 -0.4148 -0.9695
    2MOL0     C  197   5.384   8.742   7.316 -0.1899  0.7622 -0.2381
    2MOL0     C  198   5.508   8.815   7.335 -0.4801  0.3584  0.8499
    2MOL0     C  199   5.589   8.762   7.441  0.5437  0.5940 -0.8104
    2MOL0     C  200   5.675   8.731   7.531  0.6517  1.0757  0.0847
    2MOL0     C  201   5.064   8.268   7.373 -0.9353  0.1846 -0.6050
    2MOL0     C  202   4.954   8.196   7.347  0.6648 -1.1409  0.2036
    2MOL0     H  203   4.678   8.046   6.884  3.3749 -1.6254  1.8258
    2MOL0     H  204   4.501   7.892   6.787  2.5698 -0.8445 -0.1774
    2MOL0     H  205   4.406   7.605   7.053 -1.0774 -0.4241  1.0462
    2MOL0     H  206   4.234   7.638   7.068  2.1609  1.9356  1.3484
    2MOL0     H  207   4.341   7.540   6.804 -1.1612  0.1287 -0.3253
    2MOL0     H  208   4.318   7.424   6.938 -1.4389  1.0829  2.1412
    2MOL0     H  209   4.110   7.591   6.798 -0.6305  0.3028  0.4272
    2MOL0     H  210   4.132   7.420   6.763 -0.8622 -0.6096  1.1425
    2MOL0     H  211   4.067   7.349   6.984  1.7362  0.3037 -1.8280
    2MOL0     H  212   4.051   7.518   7.036  0.8167 -1.0044  0.1828
    2MOL0     H  213   3.876   7.341   6.868  0.1751 -0.7623  1.0279
    2MOL0     H  214   3.859   7.418   7.026 -1.1005  2.4917 -0.0733
    2MOL0     H  215   3.840   7.642   6.912  1.8198  0.7408 -0.1363
    2MOL0     H  216   3.901   7.575   6.759  0.5046  1.5731  0.3071
    2MOL0     H  217   3.646   7.444   6.816  0.1245  0.1674  0.2379
    2MOL0     H  218   3.627   7.591   6.884  0.3512 -0.5316 -0.3203
    2MOL0     H  219   3.723   7.527   6.591  0.2914 -2.1753  1.5627
    2MOL0     H  220   3.710   7.690   6.662  2.2574 -0.8527 -0.7330
    2MOL0     H  221   3.484   7.372   6.685  0.1272  0.2328  0.6361
    2MOL0     H  222   3.157   7.409   6.470 -0.2102  0.2619  1.3448
    2MOL0     H  223   3.301   7.292   6.454  0.0104 -0.8632  0.4078
    2MOL0     H  224   3.190   7.371   6.730 -0.8214  0.4967 -1.0434
    2MOL0     H  225   3.288   7.238   6.674  0.3319 -1.2431  0.2601
    2MOL0     H  226   2.997   7.223   6.644 -0.1184  0.4692 -0.5348
    2MOL0     H  227   3.106   7.136   6.734  1.1565 -2.6047 -0.9845
    2MOL0     H  228   3.218   7.082   6.492 -0.0775  1.6507  0.5272
    2MOL0     H  229   3.060   7.168   6.441 -1.4649 -3.0752 -1.0619
    2MOL0     H  230   2.907   6.806   6.576 -0.5400 -1.2231  0.2944
    2MOL0     H  231   2.818   6.610   6.805 -0.8635  4.3518 -2.5087
    2MOL0     H  232   2.831   6.572   6.634  0.0038  0.9139 -0.2211
    2MOL0     H  233   2.921   6.474   6.741 -4.4603 -1.7409  2.4926
    2MOL0     H  234   3.229   6.256   6.869  1.4785  0.9112 -0.3350
    2MOL0     H  235   3.288   6.072   7.031 -1.1892  0.5077  2.4200
    2MOL0     H  236   3.490   6.120   7.427 -1.1075 -0.7861  3.3949
    2MOL0     H  237   3.314   6.114   7.415  0.4622 -0.4093  0.5636
    2MOL0     H  238   3.524   5.895   7.426 -0.8137 -2.7659  1.2559
    2MOL0     H  239   3.433   5.932   7.559 -0.8759 -1.1622  0.0042
    2MOL0     H  240   3.229   5.834   7.491  1.7897  0.0667  0.5103
    2MOL0     H  241   3.353   5.723   7.468 -0.5459 -0.2666  1.7294
    2MOL0     H  242   3.217   5.892   7.252  0.2683  0.3375 -0.3098
    2MOL0     H  243   3.350   5.786   7.216  0.3625 -1.3965 -0.1443
    2MOL0     H  244   3.121   5.647   7.366 -1.1919  0.1479  0.0058
    2MOL0     H  245   3.245   5.588   7.260 -1.3947 -1.0669  1.2848
    2MOL0     H  246   3.029   5.564   7.151  0.6537  1.0434 -0.4795
    2MOL0     H  247   2.997   5.738   7.186 -0.1487 -0.1410  0.9346
    2MOL0     H  248   3.118   5.588   6.954  1.0544 -1.0157  0.6936
    2MOL0     H  249   3.241   5.699   7.020 -0.9596 -0.0860  1.1345
    2MOL0     H  250   3.106   5.820   6.843  1.5751  0.9699  1.6307
    2MOL0     H  251   3.061   5.879   7.006 -0.4105 -0.0883  0.9512
    2MOL0     H  252   3.441   6.344   7.313  1.7197  1.8249 -1.5339
    2MOL0     H  253   3.375   6.530   7.162 -0.8535  0.2818  1.0387
    2MOL0     H  254   3.320   6.752   6.827  1.5528  2.1494 -2.6537
    2MOL0     H  255   3.285   6.937   6.677 -0.3407 -0.8355  0.2443
    2MOL0     H  256   4.384   7.795   7.198 -2.4254  0.2680 -0.7838
    2MOL0     H  257   4.542   7.975   7.273 -0.3459  1.4708 -1.4777
    2MOL0     H  258   4.903   8.278   7.022  0.3025 -1.3388 -0.2010
    2MOL0     H  259   5.092   8.438   7.072 -2.7186  1.3706  0.1703
    2MOL0     H  260   5.299   8.480   7.125  0.5204  0.5951  0.1640
    2MOL0     H  261   5.195   8.586   7.216 -0.9824 -2.0508 -0.0775
    2MOL0     H  262   5.483   8.599   7.182 -1.5523  1.8463 -1.6778
    2MOL0     H  263   5.457   8.539   7.347 -2.0018  0.2798  0.2762
    2MOL0     H  264   5.338   8.736   7.415 -1.5582  2.1091 -0.7531
    2MOL0     H  265   5.315   8.803   7.256 -3.1056  2.0663  3.9165
    2MOL0     H  266   5.478   8.914   7.368  0.0424  0.6059  0.5842
    2MOL0     H  267   5.567   8.812   7.243 -0.8160 -0.9541  0.6596
    2MOL0     H  268   5.746   8.719   7.610  2.0167  1.2653 -1.0692
    2MOL0     H  269   5.121   8.245   7.463 -0.5124  0.4094 -0.8124
    2MOL0     H  270   4.921   8.122   7.419  1.5654 -2.3058 -0.5393
    3MOL0     O  271   9.776   8.825   0.920 -0.3323  0.9452  0.0464
    3MOL0     C  272   9.776   8.773   0.809 -0.2846 -0.6830  0.1069
    3MOL0     O  273   9.686   8.678   0.766 -0.1397  0.2407  0.2947
    3MOL0     C  274   9.581   8.644   0.850 -0.4480  0.2156  0.7490
    3MOL0     C  275   9.452   8.664   0.798  0.3416  0.0739  0.5071
    3MOL0     C  276   9.340   8.626   0.872 -0.6477  0.3758  0.0119
    3MOL0     C  277   9.360   8.546   0.990 -0.1928 -0.2046  0.2360
    3MOL0     O  278   9.253   8.478   1.048  0.0899 -0.1923 -0.6171
    3MOL0     C  279   9.138   8.559   1.080 -0.5170 -0.5048  1.0817
    3MOL0     C  280   9.113   8.529   1.231  0.0862 -0.2636 -0.5469
    3MOL0     C  281   8.980   8.585   1.277  0.1172 -0.5610  0.2565
    3MOL0     C  282   8.873   8.477   1.253  0.4034 -0.5941 -0.3035
    3MOL0     C  283   8.734   8.527   1.299  0.2924  0.0088  0.6903
    3MOL0     C  284   8.628   8.523   1.179 -0.5668  0.0108 -0.6333
    3MOL0     C  285   8.615   8.378   1.108 -0.1654 -0.3866 -0.8039
    3MOL0     C  286   8.595   8.260   1.200 -0.0307  0.1495 -0.3754
    3MOL0     N  287   8.473   8.280   1.274 -0.3265 -0.0916 -1.1617
    3MOL0     C  288   8.451   8.271   1.415  0.3211 -0.9063  0.0015
    3MOL0     C  289   8.318   8.287   1.433  0.0614  0.0510  0.0929
    3MOL0     C  290   8.255   8.303   1.570 -0.3576 -0.7931  1.5649
    3MOL0     C  291   8.135   8.206   1.565 -0.0352  1.2337  0.4020
    3MOL0     C  292   8.060   8.205   1.701 -0.5373 -0.5003  0.4558
    3MOL0     C  293   7.976   8.325   1.736 -0.5157 -0.0304  0.3423
    3MOL0     O  294   7.900   8.308   1.855 -0.4675  0.3003  0.8018
    3MOL0     C  295   7.796   8.396   1.852  0.1698  0.8996 -0.0656
    3MOL0     C  296   7.813   8.527   1.896 -0.0507 -0.6806 -0.0345
    3MOL0     C  297   7.708   8.623   1.900  0.1762 -0.2989  0.1358
    3MOL0     C  298   7.751   8.774   1.924  0.6393  0.4614  0.8391
    3MOL0     C  299   7.579   8.573   1.868 -0.1153  0.8959  0.7505
    3MOL0     C  300   7.449   8.647   1.885 -0.2448  1.1476  0.7687
    3MOL0     O  301   7.341   8.605   1.829  0.6593 -0.3018  0.3151
    3MOL0     C  302   7.221   8.671   1.863  0.3546  0.3488 -0.3092
    3MOL0     C  303   7.159   8.626   1.982 -0.3172 -0.5340  0.6005
    3MOL0     C  304   7.042   8.685   2.027  0.5156 -0.5187 -0.1693
    3MOL0     C  305   6.981   8.789   1.956 -0.7140 -0.6159  0.4519
    3MOL0     O  306   6.866   8.846   2.005 -0.2139  0.2209  0.5843
    3MOL0     C  307   6.779   8.927   1.923 -0.1412  0.0855 -0.1656
    3MOL0     C  308   6.665   8.972   2.014  0.0450 -0.5616 -0.2076
    3MOL0     C  309   6.530   8.957   1.945  0.3892  0.2357  0.5356
    3MOL0     C  310   6.409   8.932   2.036  0.7247 -0.6990  0.4403
    3MOL0     C  311   6.403   9.036   2.154 -0.6708  0.3077 -0.1828
    3MOL0     C  312   6.287   9.036   2.248 -0.2749 -0.5700  0.6932
    3MOL0     C  313   6.162   9.096   2.185  0.0054 -0.7865  0.7616
    3MOL0     C  314   6.039   9.066   2.275 -0.6475 -0.0831 -0.7329
    3MOL0    Cl  315   6.005   8.890   2.276 -0.5499 -0.0606  0.3581
    3MOL0     C  316   7.050   8.845   1.843 -0.3612  0.0382  0.3798
    3MOL0     C  317   7.167   8.783   1.798 -0.0823  0.7750  0.4541
    3MOL0     O  318   7.445   8.757   1.943 -0.5993  0.1758  0.4676
    3MOL0     C  319   7.570   8.440   1.823 -0.4433 -0.5752  0.0889
    3MOL0     C  320   7.675   8.341   1.820  0.0365  0.4642  0.6854
    3MOL0     N  321   8.258   8.302   1.311 -0.7745 -0.2148 -0.8480
    3MOL0     N  322   8.347   8.301   1.220 -0.5358 -0.1723  0.9310
    3MOL0     C  323   9.486   8.507   1.032  0.6883 -0.5157 -0.7406
    3MOL0     C  324   9.593   8.554   0.954 -0.3746  0.5713  0.0235
    3MOL0     C  325   9.889   8.817   0.723  1.2467  0.3299  1.1181
    3MOL0     C  326   9.953   8.935   0.733 -0.1950 -0.1428  0.6971
    3MOL0     C  327  10.060   8.964   0.642  0.6533 -1.4699 -0.6632
    3MOL0     C  328  10.100   8.885   0.538  0.2262 -0.2733 -0.5147
    3MOL0     O  329  10.211   8.911   0.457  0.4131  0.1752 -0.1167
    3MOL0     C  330  10.311   9.007   0.492  0.5333 -0.5014 -0.3426
    3MOL0     C  331  10.426   8.999   0.399  1.0989 -0.4311 -0.4453
    3MOL0     C  332  10.497   8.863   0.418 -0.8229 -0.5289  0.4545
    3MOL0     C  333  10.604   8.838   0.297 -0.8576  0.3438  0.0406
    3MOL0     C  334  10.726   8.922   0.295 -0.3822 -0.5113  0.1792
    3MOL0     C  335  10.830   8.987   0.280  0.5772 -0.2245 -0.6994
    3MOL0     C  336  10.024   8.779   0.512 -0.0437  0.9510  0.3826
    3MOL0     C  337   9.923   8.743   0.605 -0.4715 -0.1499  0.4745
    3MOL0     H  338   9.436   8.713   0.702 -3.5540 -2.9384 -0.6142
    3MOL0     H  339   9.242   8.659   0.841 -0.2829  1.5624  0.0959
    3MOL0     H  340   9.148   8.667   1.064 -0.3727 -0.7750 -0.9006
    3MOL0     H  341   9.059   8.520   1.015 -1.3174  2.6595 -0.0168
    3MOL0     H  342   9.123   8.421   1.245  2.4432 -0.1629 -1.0260
    3MOL0     H  343   9.203   8.576   1.271  1.7090 -2.7918 -0.9586
    3MOL0     H  344   8.991   8.621   1.380 -0.0625  2.4920 -0.6834
    3MOL0     H  345   8.946   8.672   1.219  1.2120 -0.3267 -0.0601
    3MOL0     H  346   8.880   8.442   1.150  0.7157  1.3586 -0.9827
    3MOL0     H  347   8.899   8.393   1.318 -0.7979  0.4507  1.6464
    3MOL0     H  348   8.697   8.466   1.382  2.5862  0.1339  1.8668
    3MOL0     H  349   8.732   8.631   1.333 -2.1756  0.0729  0.5539
    3MOL0     H  350   8.528   8.551   1.212 -1.0798 -0.4261 -1.7789
    3MOL0     H  351   8.666   8.599   1.111 -0.9011  0.7245 -0.0357
    3MOL0     H  352   8.527   8.385   1.043 -0.3840 -0.0646 -0.4801
    3MOL0     H  353   8.705   8.353   1.052 -0.7861  1.0123 -2.5189
    3MOL0     H  354   8.682   8.246   1.265 -0.1749  3.3114  0.6818
    3MOL0     H  355   8.580   8.159   1.160 -2.2532 -0.7751  2.4652
    3MOL0     H  356   8.524   8.260   1.494 -0.3143  0.2236  0.7711
    3MOL0     H  357   8.334   8.273   1.640  3.6530 -1.6213 -2.7878
    3MOL0     H  358   8.215   8.402   1.589  2.9518  1.3699 -1.4317
    3MOL0     H  359   8.168   8.105   1.540 -0.3933  1.3691 -0.6576
    3MOL0     H  360   8.060   8.224   1.487  0.0770 -0.4989 -0.1488
    3MOL0     H  361   8.134   8.193   1.780 -1.0222 -0.4277  0.9313
    3MOL0     H  362   7.999   8.114   1.707  1.5839 -1.9003  3.8882
    3MOL0     H  363   7.907   8.339   1.652  0.7025 -7.3356 -2.6300
    3MOL0     H  364   8.042   8.411   1.752  1.2323 -1.6830  2.8809
    3MOL0     H  365   7.913   8.563   1.920 -0.3662  2.1110 -2.3382
    3MOL0     H  366   7.850   8.795   1.883  0.0079  1.7735 -0.1016
    3MOL0     H  367   7.681   8.841   1.872  2.7022  0.9740 -1.4599
    3MOL0     H  368   7.752   8.802   2.030 -1.2656 -0.9492  1.2769
    3MOL0     H  369   7.207   8.551   2.043 -1.6996  0.1932  2.6889
    3MOL0     H  370   6.977   8.670   2.113 -1.1941  1.7482 -0.9622
    3MOL0     H  371   6.829   9.014   1.881 -1.7932  0.5978 -1.1741
    3MOL0     H  372   6.745   8.866   1.839 -1.6311  0.3897  0.1888
    3MOL0     H  373   6.666   8.903   2.099  0.3951 -1.1626 -0.6861
    3MOL0     H  374   6.684   9.076   2.043  3.6745 -1.3620  0.8906
    3MOL0     H  375   6.542   8.874   1.875  1.6478  0.7136  0.1606
    3MOL0     H  376   6.516   9.043   1.878 -0.2726  1.0847  1.7325
    3MOL0     H  377   6.314   8.928   1.983  1.1084  0.9486 -0.4401
    3MOL0     H  378   6.401   8.830   2.074 -1.0876 -2.0229 -3.0962
    3MOL0     H  379   6.413   9.134   2.106  0.9226  0.5916  0.6634
    3MOL0     H  380   6.487   9.033   2.223 -1.8307 -2.2666  1.2461
    3MOL0     H  381   6.278   8.944   2.306 -0.8760 -1.1131 -0.2491
    3MOL0     H  382   6.321   9.118   2.313 -3.0633 -0.6796  2.4362
    3MOL0     H  383   6.139   9.061   2.084 -1.5455  1.4996  0.2180
    3MOL0     H  384   6.181   9.204   2.179  1.2318 -0.8583  2.6168
    3MOL0     H  385   5.953   9.126   2.245 -0.4934  1.1192  1.0257
    3MOL0     H  386   6.066   9.096   2.377 -1.4671  2.5284 -1.2110
    3MOL0     H  387   7.011   8.914   1.769  3.4971  1.5633 -0.4787
    3MOL0     H  388   7.214   8.815   1.706 -0.4481  2.2895  0.7617
    3MOL0     H  389   7.474   8.404   1.787 -2.4170  3.6760  0.5487
    3MOL0     H  390   7.656   8.240   1.787 -3.7448  1.6992 -1.5631
    3MOL0     H  391   9.497   8.422   1.099  3.0457 -0.0529 -0.4555
    3MOL0     H  392   9.683   8.506   0.992  0.4887  3.5706  2.0827
    3MOL0     H  393   9.929   8.996   0.820  1.6156  1.3710  0.1923
    3MOL0     H  394  10.102   9.064   0.642 -2.3370 -0.1040 -1.8251
    3MOL0     H  395  10.277   9.109   0.474  1.0779 -0.0152  1.2690
    3MOL0     H  396  10.340   9.006   0.597 -2.5085 -0.2225  0.6065
    3MOL0     H  397  10.491   9.086   0.414  1.6064 -0.9489  0.4287
    3MOL0     H  398  10.377   8.991   0.302  0.6004 -3.5425 -0.0279
    3MOL0     H  399  10.426   8.781   0.409 -0.6394 -0.5923 -0.5906
    3MOL0     H  400  10.548   8.861   0.514 -0.2654 -0.2079  0.1739
    3MOL0     H  401  10.556   8.840   0.198 -0.9508 -0.5119  0.0587
    3MOL0     H  402  10.645   8.737   0.296 -0.1805  0.5923  1.1922
    3MOL0     H  403  10.915   9.052   0.279  0.4446 -0.0141 -2.9828
    3MOL0     H  404  10.048   8.703   0.438 -0.3229 -0.0530  1.2950
    3MOL0     H  405   9.872   8.648   0.600 -1.5805  0.2551  2.6520
    4MOL0     O  406   7.449   2.100   1.970  0.2782  0.3689 -0.5273
    4MOL0     C  407   7.476   2.212   1.928  0.1741  0.0299 -1.3342
    4MOL0     O  408   7.469   2.249   1.797 -0.5762 -0.7921 -0.5947
    4MOL0     C  409   7.433   2.155   1.712 -0.2981 -0.0529  0.0237
    4MOL0     C  410   7.314   2.186   1.640 -0.3183  0.5360 -0.0626
    4MOL0     C  411   7.281   2.104   1.534  0.1667  1.4700  0.0496
    4MOL0     C  412   7.359   1.991   1.500  0.8572  0.4893 -0.1485
    4MOL0     O  413   7.324   1.918   1.396 -0.0567  0.3450  0.1957
    4MOL0     C  414   7.377   1.789   1.386 -1.0793 -0.1911 -0.5387
    4MOL0     C  415   7.310   1.743   1.255  0.2962  0.5127 -0.6005
    4MOL0     C  416   7.169   1.700   1.279 -0.1151  0.0026 -0.1975
    4MOL0     C  417   7.093   1.704   1.153  0.8346 -0.4297 -0.2166
    4MOL0     C  418   6.936   1.691   1.166 -0.7206 -0.2474  0.1221
    4MOL0     C  419   6.883   1.700   1.025 -0.2584  0.6215  0.3115
    4MOL0     C  420   6.729   1.665   1.011  0.5137 -0.4024  0.0888
    4MOL0     C  421   6.711   1.518   1.039  0.3469  0.9836 -0.3317
    4MOL0     N  422   6.571   1.501   1.077 -1.0326  0.2565  0.2275
    4MOL0     C  423   6.490   1.407   1.025  1.2749  0.6294  0.1740
    4MOL0     C  424   6.397   1.388   1.118  0.1958 -0.3697  0.1315
    4MOL0     C  425   6.273   1.296   1.117  0.4316  0.5467 -0.3348
    4MOL0     C  426   6.284   1.175   1.204 -0.4347 -0.0246 -0.1540
    4MOL0     C  427   6.151   1.123   1.224 -0.9235 -0.5830 -0.3195
    4MOL0     C  428   6.107   1.039   1.104 -0.7810 -0.7744 -0.1023
    4MOL0     O  429   6.131   0.902   1.108  0.0588  0.2303 -0.6731
    4MOL0     C  430   6.036   0.822   1.170 -0.2603 -0.3330  0.0206
    4MOL0     C  431   5.926   0.871   1.245 -0.0641 -0.0622 -0.8614
    4MOL0     C  432   5.830   0.779   1.295  0.4209  0.4784  0.3207
    4MOL0     C  433   5.728   0.838   1.380 -0.4408 -0.1573 -0.3676
    4MOL0     C  434   5.835   0.642   1.267  0.8949  0.5478 -0.1104
    4MOL0     C  435   5.747   0.536   1.304  0.4204  1.1211 -0.0296
    4MOL0     O  436   5.780   0.408   1.265  0.0257  0.2216 -0.0579
    4MOL0     C  437   5.683   0.302   1.268 -0.9317 -0.0208 -0.7209
    4MOL0     C  438   5.545   0.329   1.262 -0.4505  1.1935 -0.7430
    4MOL0     C  439   5.457   0.214   1.259 -0.1131  0.1869  0.1149
    4MOL0     C  440   5.502   0.081   1.265 -0.8939  0.3623 -0.9716
    4MOL0     O  441   5.401  -0.013   1.255 -0.1072 -0.0546 -0.1916
    4MOL0     C  442   5.445  -0.150   1.252  1.2138 -0.0651 -0.0130
    4MOL0     C  443   5.465  -0.194   1.104 -0.3025  0.2882  0.7822
    4MOL0     C  444   5.337  -0.190   1.018 -0.1153 -0.7457  0.7781
    4MOL0     C  445   5.256  -0.064   1.005 -0.2823 -0.2652  0.0620
    4MOL0     C  446   5.131  -0.079   0.915  0.4702 -0.5556 -0.0760
    4MOL0     C  447   5.160  -0.084   0.770  0.5530 -0.1041  0.5385
    4MOL0     C  448   5.043  -0.134   0.684 -0.2252 -0.7786 -0.6823
    4MOL0     C  449   4.921  -0.060   0.702 -0.2545 -0.2905 -0.3578
    4MOL0    Cl  450   4.833  -0.114   0.853 -0.1340  0.0375  0.2268
    4MOL0     C  451   5.641   0.062   1.263  0.8107  0.4445  0.3770
    4MOL0     C  452   5.729   0.165   1.273 -0.2486 -0.0317  0.2990
    4MOL0     O  453   5.650   0.566   1.372 -0.1007  0.4346 -0.4522
    4MOL0     C  454   5.953   0.604   1.196  0.1268 -0.1918 -0.0710
    4MOL0     C  455   6.047   0.691   1.140  0.8533  0.9169  0.1621
    4MOL0     N  456   6.407   1.496   1.209  1.1464  1.1539 -0.1091
    4MOL0     N  457   6.510   1.566   1.181  0.4695  0.2306 -0.7751
    4MOL0     C  458   7.469   1.954   1.583  0.3095 -0.4671  0.5098
    4MOL0     C  459   7.510   2.040   1.683  0.6180 -1.1561  0.4943
    4MOL0     C  460   7.531   2.307   2.030 -0.0198  0.3656  0.3963
    4MOL0     C  461   7.537   2.275   2.164 -0.4147  0.2741 -0.2401
    4MOL0     C  462   7.616   2.351   2.255 -0.1157 -0.5798 -0.8767
    4MOL0     C  463   7.699   2.452   2.204  0.3073 -0.5790  0.4105
    4MOL0     O  464   7.792   2.501   2.289 -0.8454 -0.2395 -0.0023
    4MOL0     C  465   7.884   2.606   2.258 -0.5266 -0.2830  0.0565
    4MOL0     C  466   7.960   2.663   2.377  0.1950  0.4007  0.5055
    4MOL0     C  467   8.043   2.568   2.464 -0.3297  0.3079  0.3804
    4MOL0     C  468   8.171   2.643   2.511  0.5367 -0.0940 -0.4226
    4MOL0     C  469   8.283   2.647   2.409 -0.4081  0.7236 -0.0408
    4MOL0     C  470   8.367   2.649   2.317 -0.5677  0.4354 -0.5423
    4MOL0     C  471   7.679   2.492   2.068  0.0807  0.2787  0.7255
    4MOL0     C  472   7.599   2.419   1.977  0.3608 -0.0907 -0.4322
    4MOL0     H  473   7.249   2.260   1.686  0.6459  0.6005  1.2530
    4MOL0     H  474   7.186   2.127   1.485  0.8706  2.8728 -0.7480
    4MOL0     H  475   7.482   1.808   1.365 -1.4722  0.3887 -2.1764
    4MOL0     H  476   7.375   1.720   1.470 -1.7026  1.9651  1.3100
    4MOL0     H  477   7.332   1.826   1.187  1.8667  0.8040  0.2164
    4MOL0     H  478   7.357   1.657   1.207  0.1701 -1.3190  2.3255
    4MOL0     H  479   7.156   1.612   1.342 -1.7871  2.2374  2.8628
    4MOL0     H  480   7.130   1.785   1.335  2.0995  2.9193 -2.7362
    4MOL0     H  481   7.105   1.802   1.107 -2.4202  0.5829  0.8250
    4MOL0     H  482   7.132   1.632   1.081 -1.2606  1.2185 -3.2301
    4MOL0     H  483   6.916   1.599   1.221  0.4484 -0.5209  0.1103
    4MOL0     H  484   6.892   1.773   1.224 -0.5427 -0.9389  1.2705
    4MOL0     H  485   6.891   1.803   0.989  0.3520 -0.7376 -3.9920
    4MOL0     H  486   6.943   1.643   0.954 -0.6540  1.7637 -0.9726
    4MOL0     H  487   6.677   1.716   1.092 -0.8490 -3.9291  1.6569
    4MOL0     H  488   6.691   1.689   0.912 -2.4237 -1.2812  0.9241
    4MOL0     H  489   6.763   1.491   1.131 -1.9263  1.9070  1.3049
    4MOL0     H  490   6.743   1.458   0.953  1.6012  3.5078 -1.7502
    4MOL0     H  491   6.500   1.344   0.937 -1.1193  1.7957 -1.0043
    4MOL0     H  492   6.180   1.348   1.141  1.0930  1.4990  0.2087
    4MOL0     H  493   6.269   1.253   1.017  1.4033 -2.9030  0.9357
    4MOL0     H  494   6.312   1.213   1.303 -0.2464 -1.6207  0.4381
    4MOL0     H  495   6.356   1.097   1.176 -1.0744 -1.4320  1.8354
    4MOL0     H  496   6.076   1.196   1.257 -2.1920 -2.3583  0.9287
    4MOL0     H  497   6.155   1.063   1.315 -1.4352  2.6925  2.0283
    4MOL0     H  498   6.151   1.071   1.010 -1.7968 -3.7633 -1.7311
    4MOL0     H  499   5.999   1.047   1.086 -0.5309 -0.3614 -1.5074
    4MOL0     H  500   5.900   0.976   1.260  1.4146  0.0486  1.4026
    4MOL0     H  501   5.756   0.929   1.433  1.3972 -0.3561 -0.9143
    4MOL0     H  502   5.634   0.848   1.326 -1.7017 -1.2060  1.5503
    4MOL0     H  503   5.725   0.769   1.465  0.4477  0.7028  0.3890
    4MOL0     H  504   5.496   0.425   1.252  0.1081  1.3624 -2.0580
    4MOL0     H  505   5.349   0.229   1.260  0.0524  2.3375 -2.3807
    4MOL0     H  506   5.541  -0.169   1.301  1.8659 -0.6378 -1.4393
    4MOL0     H  507   5.365  -0.196   1.310 -1.1726  3.4854 -0.2361
    4MOL0     H  508   5.541  -0.134   1.054 -0.3922  0.9047  1.3697
    4MOL0     H  509   5.502  -0.297   1.098 -0.1611  0.3839 -0.1161
    4MOL0     H  510   5.268  -0.271   1.046 -1.4974  0.3237  0.6183
    4MOL0     H  511   5.364  -0.211   0.914 -0.6391 -0.4261  0.5689
    4MOL0     H  512   5.214  -0.038   1.103 -1.6829 -0.6522 -0.4049
    4MOL0     H  513   5.321   0.017   0.973 -0.3003 -1.5561 -3.7851
    4MOL0     H  514   5.063   0.004   0.935  0.1370  0.0817 -3.2475
    4MOL0     H  515   5.076  -0.169   0.943 -1.3230  0.3981 -0.3992
    4MOL0     H  516   5.176   0.016   0.727 -3.2290  1.0581  1.4661
    4MOL0     H  517   5.253  -0.134   0.740 -0.7838 -0.7600 -2.9861
    4MOL0     H  518   5.014  -0.235   0.715 -2.6876  0.2363  0.6314
    4MOL0     H  519   5.066  -0.131   0.577  0.3657 -0.6433 -0.5512
    4MOL0     H  520   4.855  -0.081   0.618  0.0710  1.3952 -1.0742
    4MOL0     H  521   4.937   0.048   0.701  0.1025 -0.2813 -3.5716
    4MOL0     H  522   5.682  -0.038   1.260  2.3615  1.0239  1.3240
    4MOL0     H  523   5.837   0.152   1.265 -0.1426 -0.1125  1.6303
    4MOL0     H  524   5.976   0.502   1.164  2.6748  0.2696  0.0430
    4MOL0     H  525   6.131   0.651   1.085  0.8664  1.4165 -0.1912
    4MOL0     H  526   7.526   1.861   1.591  0.4273 -0.2923  2.1391
    4MOL0     H  527   7.596   2.015   1.744  1.5168  0.6007  0.0292
    4MOL0     H  528   7.494   2.187   2.211 -0.3173  0.7217  0.6986
    4MOL0     H  529   7.631   2.321   2.358  2.9301 -2.3628 -1.7041
    4MOL0     H  530   7.960   2.564   2.191 -1.1141 -2.2243  0.5274
    4MOL0     H  531   7.834   2.690   2.210 -0.9753  0.4409  1.7083
    4MOL0     H  532   7.885   2.689   2.453 -0.5495 -1.7452  0.5816
    4MOL0     H  533   8.009   2.753   2.340  1.7526 -0.2255  0.9963
    4MOL0     H  534   8.080   2.483   2.406 -1.2727 -0.2190  0.5223
    4MOL0     H  535   7.991   2.534   2.555  0.3333  1.8850  1.3895
    4MOL0     H  536   8.213   2.593   2.599  1.1175  1.3545  0.1502
    4MOL0     H  537   8.143   2.740   2.551 -0.3890 -0.3661 -0.3791
    4MOL0     H  538   8.438   2.664   2.238  0.9994 -0.1044  0.7147
    4MOL0     H  539   7.742   2.575   2.038  0.3627  0.3404  1.4770
    4MOL0     H  540   7.599   2.450   1.873 -1.5577 -1.8016 -0.9978
    5MOL0     O  541   0.587   7.025   7.027  0.4150 -0.0865 -0.4439
    5MOL0     C  542   0.536   7.003   7.139  0.0954  0.4221 -0.5836
    5MOL0     O  543   0.437   7.083   7.214 -0.1127  0.8367  0.4497
    5MOL0     C  544   0.385   7.204   7.158  0.0283  0.5963 -0.8446
    5MOL0     C  545   0.264   7.236   7.228  0.0125  1.1618  0.3400
    5MOL0     C  546   0.188   7.342   7.188  0.2854 -1.0299  0.7570
    5MOL0     C  547   0.240   7.433   7.094 -0.1991 -0.1993 -1.1243
    5MOL0     O  548   0.161   7.527   7.044 -0.6700 -0.5626  0.4866
    5MOL0     C  549   0.080   7.607   7.131  1.2130  0.0541 -0.3455
    5MOL0     C  550   0.013   7.735   7.074  0.7032 -0.1923  0.1025
    5MOL0     C  551   0.124   7.834   7.016 -0.7689  0.7467 -0.1018
    5MOL0     C  552   0.090   7.979   6.979  0.2539 -0.8274 -0.4023
    5MOL0     C  553   0.202   8.042   6.895  0.1172  0.5502 -0.1840
    5MOL0     C  554   0.173   8.194   6.886  0.9533 -0.0294  0.8895
    5MOL0     C  555   0.191   8.268   7.018 -0.0144  1.2505 -0.2619
    5MOL0     C  556   0.146   8.409   7.016  0.1912 -0.5012 -0.6411
    5MOL0     N  557   0.205   8.476   6.900  0.6729  0.3650 -0.4336
    5MOL0     C  558   0.145   8.500   6.785  0.0065  0.3036  0.1335
    5MOL0     C  559   0.227   8.577   6.717  0.6721 -0.1789 -0.2196
    5MOL0     C  560   0.201   8.643   6.583  0.9742  0.3290 -0.0413
    5MOL0     C  561   0.111   8.774   6.604 -1.1268  0.1296  0.7229
    5MOL0     C  562  -0.035   8.754   6.575 -0.0176  0.6680 -0.4278
    5MOL0     C  563  -0.100   8.890   6.602 -0.9941  0.4155  0.5773
    5MOL0     O  564  -0.244   8.877   6.574 -0.2682 -0.4497 -0.1737
    5MOL0     C  565  -0.333   8.979   6.605  0.7054  0.4671 -1.2834
    5MOL0     C  566  -0.299   9.110   6.640  0.0623 -0.0632  0.0934
    5MOL0     C  567  -0.390   9.207   6.669  0.5881  0.7851 -0.2743
    5MOL0     C  568  -0.325   9.341   6.693 -1.1411  0.2681  0.2539
    5MOL0     C  569  -0.528   9.176   6.655 -0.1322 -0.6397  0.2690
    5MOL0     C  570  -0.639   9.277   6.703  0.4945  0.9755  0.2549
    5MOL0     O  571  -0.772   9.230   6.679  0.4073  0.3207  0.2169
    5MOL0     C  572  -0.862   9.315   6.724 -0.3752 -1.0933  0.6904
    5MOL0     C  573  -0.896   9.323   6.859 -0.5805 -0.6642  0.1251
    5MOL0     C  574  -1.005   9.406   6.908 -0.6803  0.2634 -0.5625
    5MOL0     C  575  -1.076   9.486   6.814  0.1703  0.5195 -0.5688
    5MOL0     O  576  -1.164   9.576   6.856 -0.1199 -0.7849 -0.6706
    5MOL0     C  577  -1.220   9.564   6.985 -0.0583  0.1854  0.0360
    5MOL0     C  578  -1.355   9.644   6.984 -0.2153 -0.3781 -0.3749
    5MOL0     C  579  -1.316   9.793   6.956  0.6373 -0.2997 -0.4567
    5MOL0     C  580  -1.447   9.884   6.942  0.4167  0.1424 -0.2547
    5MOL0     C  581  -1.410  10.029   6.906 -0.2197 -0.3186 -0.4839
    5MOL0     C  582  -1.530  10.123   6.869 -0.4911  1.0801 -0.1108
    5MOL0     C  583  -1.627  10.145   6.979  0.8976  1.2053 -0.1005
    5MOL0     C  584  -1.738  10.044   6.993  0.0372 -0.4229  0.8120
    5MOL0    Cl  585  -1.852  10.054   6.847 -0.0579  0.1295  0.1795
    5MOL0     C  586  -1.040   9.474   6.673 -0.0771 -0.7410  0.1007
    5MOL0     C  587  -0.932   9.390   6.627  0.1221 -1.0903  0.7334
    5MOL0     O  588  -0.609   9.387   6.738 -0.1539  0.0475 -0.8296
    5MOL0     C  589  -0.561   9.048   6.622  0.3986  0.6401  0.3293
    5MOL0     C  590  -0.466   8.947   6.595 -0.2485  0.3001  0.5351
    5MOL0     N  591   0.342   8.599   6.791  0.3162 -0.3976 -0.1003
    5MOL0     N  592   0.319   8.545   6.903  0.1953  0.5647 -0.5290
    5MOL0     C  593   0.363   7.408   7.034 -0.9976  0.0928 -0.6179
    5MOL0     C  594   0.433   7.290   7.059 -0.7745 -0.1076  0.1824
    5MOL0     C  595   0.576   6.880   7.203 -0.1162  0.2314  0.2485
    5MOL0     C  596   0.692   6.810   7.187  0.0294  0.7485 -0.1099
    5MOL0     C  597   0.707   6.683   7.246  0.0175  0.3818 -0.0936
    5MOL0     C  598   0.615   6.630   7.335 -0.0142 -0.2404 -0.4731
    5MOL0     O  599   0.657   6.523   7.393 -0.5870 -0.3657  0.5065
    5MOL0     C  600   0.587   6.464   7.508  0.3861  0.2443  0.3014
    5MOL0     C  601   0.600   6.544   7.635  0.0778  0.8256  0.1800
    5MOL0     C  602   0.512   6.482   7.740 -0.2303 -0.6313 -0.1240
    5MOL0     C  603   0.509   6.554   7.876  0.2131 -0.3022 -1.0760
    5MOL0     C  604   0.450   6.461   7.975 -0.0588 -0.1702  0.3193
    5MOL0     C  605   0.401   6.379   8.048 -0.2340 -0.1356 -0.4556
    5MOL0     C  606   0.499   6.699   7.353 -0.2467  0.5006 -0.3991
    5MOL0     C  607   0.481   6.820   7.291  0.0784 -0.4998 -0.1074
    5MOL0     H  608   0.228   7.165   7.303  1.7981 -1.1428 -0.8270
    5MOL0     H  609   0.089   7.354   7.232  0.4285  2.5844  0.4066
    5MOL0     H  610  -0.001   7.550   7.178  2.3698  0.4268  2.2698
    5MOL0     H  611   0.141   7.641   7.214 -0.3645 -1.1130  1.3761
    5MOL0     H  612  -0.054   7.703   6.993  2.7239 -2.3216 -0.8622
    5MOL0     H  613  -0.052   7.770   7.154 -3.5034 -5.5771 -0.3779
    5MOL0     H  614   0.208   7.836   7.086 -0.7324 -1.1829 -0.0482
    5MOL0     H  615   0.154   7.791   6.920 -3.0596  2.4767 -1.7316
    5MOL0     H  616  -0.006   7.979   6.927  0.0428 -3.9445 -0.1823
    5MOL0     H  617   0.060   8.037   7.067 -0.7406  0.0941 -1.3287
    5MOL0     H  618   0.305   8.033   6.930  0.5753 -0.2940 -1.6554
    5MOL0     H  619   0.211   7.982   6.803  2.0560  2.0645 -1.0539
    5MOL0     H  620   0.244   8.236   6.815  1.4062  0.4813  1.6361
    5MOL0     H  621   0.071   8.216   6.853  1.0680 -0.4476  0.2395
    5MOL0     H  622   0.129   8.223   7.097 -0.3274  0.2061 -1.0736
    5MOL0     H  623   0.298   8.255   7.041  0.3486 -0.7735 -2.6686
    5MOL0     H  624   0.188   8.452   7.108  0.8376 -2.1572 -0.1186
    5MOL0     H  625   0.039   8.428   7.014  0.7620  3.5555 -0.6237
    5MOL0     H  626   0.044   8.479   6.753  0.1776  0.0178 -0.2326
    5MOL0     H  627   0.296   8.656   6.532  3.1182 -0.3254  3.4617
    5MOL0     H  628   0.147   8.581   6.511  0.7038  0.3215  0.1637
    5MOL0     H  629   0.153   8.838   6.526 -1.6117 -4.2150 -3.6662
    5MOL0     H  630   0.125   8.810   6.706 -2.4295 -0.0165  0.9705
    5MOL0     H  631  -0.081   8.679   6.640 -1.4570  0.2868 -1.8188
    5MOL0     H  632  -0.052   8.718   6.473  0.2868 -2.4104  0.5127
    5MOL0     H  633  -0.052   8.955   6.529 -1.2892 -1.2257 -1.1551
    5MOL0     H  634  -0.075   8.936   6.698  2.3533 -0.7990  0.4205
    5MOL0     H  635  -0.193   9.131   6.646 -0.0168  0.3668  0.0201
    5MOL0     H  636  -0.217   9.327   6.708 -0.4541  1.2644 -2.9209
    5MOL0     H  637  -0.343   9.418   6.618  1.9895 -0.9961 -2.0366
    5MOL0     H  638  -0.350   9.377   6.793 -0.7009  0.7965  0.1822
    5MOL0     H  639  -0.841   9.257   6.925 -0.4055 -1.2225 -0.5705
    5MOL0     H  640  -1.036   9.400   7.012 -1.1867  0.1378 -0.7215
    5MOL0     H  641  -1.248   9.465   7.021 -0.7033  0.0273 -0.8485
    5MOL0     H  642  -1.155   9.611   7.059 -2.6369  2.0003  1.2964
    5MOL0     H  643  -1.417   9.613   6.900  0.3217 -1.0186 -0.5389
    5MOL0     H  644  -1.417   9.641   7.074  2.2924  0.0099  1.4910
    5MOL0     H  645  -1.264   9.807   6.861 -1.8975 -1.8075 -2.2068
    5MOL0     H  646  -1.265   9.844   7.037  1.3980 -0.2725 -0.9378
    5MOL0     H  647  -1.511   9.837   6.867  2.6058 -1.9597 -0.9027
    5MOL0     H  648  -1.496   9.882   7.040  2.8044 -2.5955  1.0249
    5MOL0     H  649  -1.352  10.039   6.814  2.8790  1.1193  1.4744
    5MOL0     H  650  -1.343  10.074   6.980  0.2674 -0.3296 -0.9105
    5MOL0     H  651  -1.482  10.219   6.845 -1.4960  1.7656  0.5477
    5MOL0     H  652  -1.587  10.091   6.781 -0.8830  3.0884 -0.6382
    5MOL0     H  653  -1.680  10.240   6.969  1.4994  1.4924 -0.6955
    5MOL0     H  654  -1.569  10.145   7.072 -0.0720 -0.2191  0.5277
    5MOL0     H  655  -1.787  10.052   7.091 -1.8445 -3.7236  0.2841
    5MOL0     H  656  -1.693   9.945   6.982  1.8400  0.4335 -0.0381
    5MOL0     H  657  -1.100   9.536   6.607  1.2466  1.7897  1.1378
    5MOL0     H  658  -0.913   9.383   6.521  0.8881 -0.1840  0.7861
    5MOL0     H  659  -0.663   9.011   6.615  1.4477 -2.5387  0.0277
    5MOL0     H  660  -0.484   8.847   6.559  1.2398 -0.1084  0.8269
    5MOL0     H  661   0.392   7.492   6.971  0.6347 -1.1787 -1.6499
    5MOL0     H  662   0.528   7.270   7.010 -1.0960  3.2665 -2.1756
    5MOL0     H  663   0.763   6.846   7.112  0.4076 -3.5911 -2.1690
    5MOL0     H  664   0.784   6.607   7.230 -0.4496 -0.2431  0.5429
    5MOL0     H  665   0.481   6.441   7.491  1.0400 -2.0663 -1.0613
    5MOL0     H  666   0.624   6.363   7.527 -0.3800  0.4421  3.4567
    5MOL0     H  667   0.580   6.651   7.626 -2.5894  0.4506  0.8066
    5MOL0     H  668   0.703   6.529   7.668  0.7635  2.8860 -0.8848
    5MOL0     H  669   0.544   6.381   7.766 -2.7471 -1.4351  0.1503
    5MOL0     H  670   0.410   6.482   7.701  0.4216 -2.7186 -2.0804
    5MOL0     H  671   0.430   6.629   7.864  0.9283  0.8906  1.0285
    5MOL0     H  672   0.607   6.599   7.900  0.9627 -1.5326 -1.7267
    5MOL0     H  673   0.365   6.304   8.116  0.1991  0.4131  0.3997
    5MOL0     H  674   0.418   6.669   7.419 -1.7788 -0.8404 -2.7347
    5MOL0     H  675   0.392   6.879   7.310 -1.2511 -0.9859 -3.9168
    6MOL0     O  676  10.001   1.302   2.173  0.0725  0.0391 -0.0742
    6MOL0     C  677   9.992   1.195   2.222  0.2734 -0.0014  0.7305
    6MOL0     O  678   9.933   1.161   2.345  0.2741  0.4873 -0.3750
    6MOL0     C  679   9.892   1.270   2.422  0.0069 -0.2957 -0.4514
    6MOL0     C  680   9.796   1.369   2.373 -0.0066  0.6287 -0.2569
    6MOL0     C  681   9.733   1.466   2.460 -0.6113  1.6476 -0.6656
    6MOL0     C  682   9.771   1.472   2.595  0.3255  0.0124  0.0000
    6MOL0     O  683   9.717   1.566   2.685 -0.1859  0.3157 -0.3428
    6MOL0     C  684   9.818   1.620   2.777 -0.3406 -0.6521 -0.4690
    6MOL0     C  685   9.762   1.754   2.833 -0.6042  0.1209  0.4772
    6MOL0     C  686   9.859   1.853   2.905 -0.2299 -0.0212 -0.3624
    6MOL0     C  687   9.808   1.903   3.035  0.4822  0.9831 -0.2814
    6MOL0     C  688   9.690   2.007   3.011  0.1330  0.1435 -0.0881
    6MOL0     C  689   9.624   2.071   3.139  0.0087  0.2151  0.4921
    6MOL0     C  690   9.503   1.991   3.200  0.4343 -0.4291 -0.0665
    6MOL0     C  691   9.544   1.862   3.284  0.2391  0.1110  0.5765
    6MOL0     N  692   9.633   1.875   3.392 -0.1089  0.1124 -1.3308
    6MOL0     C  693   9.774   1.875   3.392 -0.0273  0.1713 -0.4073
    6MOL0     C  694   9.819   1.857   3.522 -0.6755 -0.0807  0.5903
    6MOL0     C  695   9.950   1.819   3.582 -0.4614  0.2403  0.7651
    6MOL0     C  696  10.083   1.819   3.490  0.5107 -0.0039 -0.8184
    6MOL0     C  697  10.212   1.828   3.553 -0.3876 -0.7232 -0.3862
    6MOL0     C  698  10.242   1.730   3.664 -0.6215 -0.2368  0.1926
    6MOL0     O  699  10.361   1.779   3.729  0.1709 -0.3919  0.0221
    6MOL0     C  700  10.469   1.692   3.738 -0.8293  0.0166  0.3721
    6MOL0     C  701  10.453   1.555   3.764  0.2836  0.2176 -0.1976
    6MOL0     C  702  10.561   1.465   3.800  0.3955  0.1110 -0.0569
    6MOL0     C  703  10.519   1.322   3.821 -0.2469  0.4595  0.0046
    6MOL0     C  704  10.691   1.521   3.810  0.1175  0.3185  0.3510
    6MOL0     C  705  10.803   1.444   3.865 -0.0110  0.0650 -0.1478
    6MOL0     O  706  10.928   1.495   3.835 -0.2933 -0.7072  0.4315
    6MOL0     C  707  11.021   1.430   3.905 -0.4223 -0.7736  0.4855
    6MOL0     C  708  11.039   1.441   4.044  0.9489  0.6349 -0.3592
    6MOL0     C  709  11.141   1.383   4.115  0.5998  0.3690  0.1395
    6MOL0     C  710  11.241   1.310   4.046  0.3763 -0.6803  0.6841
    6MOL0     O  711  11.340   1.254   4.123 -0.3667 -0.6082 -0.0500
    6MOL0     C  712  11.422   1.161   4.055 -0.0855  0.5045  0.4583
    6MOL0     C  713  11.518   1.083   4.140  0.7412 -0.0854 -0.4606
    6MOL0     C  714  11.623   1.009   4.055  0.3749  0.4860 -0.3612
    6MOL0     C  715  11.754   1.068   4.058 -0.9069 -0.9167  0.0199
    6MOL0     C  716  11.781   1.211   4.033 -0.3983  0.3431 -0.9096
    6MOL0     C  717  11.767   1.264   3.888  0.0822 -0.1848  0.7857
    6MOL0     C  718  11.866   1.203   3.780  0.0384 -0.3664  0.3739
    6MOL0     C  719  11.995   1.292   3.749 -0.4273 -0.4612  0.9730
    6MOL0    Cl  720  12.082   1.361   3.889 -0.7970  0.2456  0.0886
    6MOL0     C  721  11.231   1.305   3.906  0.0665 -0.6857 -0.3430
    6MOL0     C  722  11.130   1.370   3.834  1.0193  0.3702  0.4161
    6MOL0     O  723  10.784   1.334   3.917  0.5625 -1.2050 -0.0163
    6MOL0     C  724  10.709   1.660   3.787 -0.3718 -1.0631 -0.2481
    6MOL0     C  725  10.597   1.746   3.749  0.4980 -0.1945  0.1092
    6MOL0     N  726   9.698   1.865   3.597  0.4361 -0.1088 -0.0164
    6MOL0     N  727   9.594   1.869   3.522  0.9505 -1.1103  0.3618
    6MOL0     C  728   9.875   1.386   2.636  0.1391 -0.7323 -0.2636
    6MOL0     C  729   9.920   1.283   2.557 -0.3547  0.4814  0.4514
    6MOL0     C  730  10.062   1.078   2.155  0.2329  0.0938  0.2789
    6MOL0     C  731  10.092   0.958   2.229  0.2413  0.5558 -0.6394
    6MOL0     C  732  10.154   0.846   2.169 -0.2102  0.0790 -0.8363
    6MOL0     C  733  10.181   0.850   2.029 -0.3133 -0.7455  0.3722
    6MOL0     O  734  10.237   0.744   1.967  0.4138 -0.0050  0.3824
    6MOL0     C  735  10.244   0.613   2.022 -0.1234 -0.6640 -1.4158
    6MOL0     C  736  10.123   0.541   2.080 -0.0373  0.3581  0.2118
    6MOL0     C  737  10.019   0.508   1.968  0.2641 -0.2538 -0.6862
    6MOL0     C  738   9.891   0.458   2.029  0.0847 -0.1410  0.5423
    6MOL0     C  739   9.806   0.571   2.075  0.8042 -0.4624  0.3289
    6MOL0     C  740   9.747   0.671   2.108 -0.4052  0.1199 -0.6474
    6MOL0     C  741  10.135   0.963   1.957  0.1986 -1.4946 -0.6077
    6MOL0     C  742  10.089   1.078   2.019  0.0257  0.4271  0.1145
    6MOL0     H  743   9.775   1.368   2.266  2.4376  1.0372 -0.8185
    6MOL0     H  744   9.646   1.518   2.421 -1.7691  1.8436  1.9869
    6MOL0     H  745   9.841   1.557   2.863  1.9854  0.2416 -0.3864
    6MOL0     H  746   9.912   1.654   2.734 -0.4143  0.4412  0.2110
    6MOL0     H  747   9.714   1.804   2.748  0.1231  2.7192  1.4850
    6MOL0     H  748   9.685   1.726   2.905 -1.1525  0.5306  0.0601
    6MOL0     H  749   9.951   1.803   2.936 -0.6004  0.5641  1.8844
    6MOL0     H  750   9.875   1.941   2.842 -3.1959  1.4961  0.7565
    6MOL0     H  751   9.774   1.819   3.096  0.2183 -0.3683 -2.2220
    6MOL0     H  752   9.889   1.955   3.089  0.2748 -0.6201  1.6980
    6MOL0     H  753   9.725   2.086   2.944 -1.0025  1.1994  0.5428
    6MOL0     H  754   9.613   1.955   2.954 -1.1525  1.2069  0.6235
    6MOL0     H  755   9.695   2.092   3.220  2.1134  0.9342 -1.4534
    6MOL0     H  756   9.579   2.163   3.100  2.4946  1.1262 -0.4359
    6MOL0     H  757   9.447   2.054   3.271  0.8783 -2.5835  2.3557
    6MOL0     H  758   9.438   1.966   3.116 -3.0544 -0.4339  2.4322
    6MOL0     H  759   9.575   1.788   3.210 -0.6311 -0.8959  1.2021
    6MOL0     H  760   9.453   1.830   3.336  1.2709 -1.3596  1.5345
    6MOL0     H  761   9.837   1.866   3.304  2.8411 -0.5549  1.5474
    6MOL0     H  762   9.963   1.894   3.660  0.0322  0.2563  0.6711
    6MOL0     H  763   9.945   1.720   3.629 -0.5646  0.4867  1.2811
    6MOL0     H  764  10.061   1.905   3.427  0.0691  2.0936  2.0435
    6MOL0     H  765  10.073   1.720   3.443 -0.2653  0.1299 -0.9505
    6MOL0     H  766  10.224   1.931   3.589 -2.3588 -0.3787 -0.6091
    6MOL0     H  767  10.280   1.804   3.470 -1.1519 -1.6811 -0.7531
    6MOL0     H  768  10.254   1.632   3.615 -2.0402 -0.0575 -0.5946
    6MOL0     H  769  10.160   1.722   3.735  0.6757  0.5140  1.8284
    6MOL0     H  770  10.355   1.509   3.758  0.3327 -0.3104  2.2248
    6MOL0     H  771  10.573   1.260   3.749 -0.7909  0.4741 -0.4239
    6MOL0     H  772  10.538   1.294   3.925  1.8368 -0.6319 -0.6212
    6MOL0     H  773  10.412   1.310   3.806 -0.5258 -0.3582  2.3179
    6MOL0     H  774  10.962   1.500   4.092 -1.0535 -1.8957 -0.2282
    6MOL0     H  775  11.162   1.398   4.220  4.8258 -0.6708 -0.3857
    6MOL0     H  776  11.346   1.094   4.015 -0.2440 -0.7252  2.6241
    6MOL0     H  777  11.468   1.206   3.967 -1.6339  1.6512  0.2084
    6MOL0     H  778  11.562   1.151   4.214 -1.8755  2.7390 -1.2665
    6MOL0     H  779  11.455   1.017   4.200 -1.2163  1.1271 -1.0753
    6MOL0     H  780  11.593   0.988   3.952  2.2381  2.9348 -1.5015
    6MOL0     H  781  11.631   0.910   4.100 -0.7479 -0.7853 -2.7476
    6MOL0     H  782  11.795   1.056   4.158  0.0117 -0.0041 -0.2342
    6MOL0     H  783  11.813   1.005   3.990 -1.0767 -2.4760  1.2609
    6MOL0     H  784  11.883   1.233   4.067 -1.0787 -1.7809  3.2637
    6MOL0     H  785  11.723   1.276   4.099  0.7634  1.1803 -0.6725
    6MOL0     H  786  11.664   1.248   3.853 -0.1539 -0.2321  1.4704
    6MOL0     H  787  11.785   1.372   3.887 -2.6895  0.3560  0.4310
    6MOL0     H  788  11.814   1.195   3.684  0.7175 -0.3390 -0.0009
    6MOL0     H  789  11.895   1.102   3.813  1.6457 -0.1614 -0.3397
    6MOL0     H  790  11.950   1.381   3.703 -0.6803  0.6288  3.1916
    6MOL0     H  791  12.059   1.243   3.675  2.9595 -0.6194  3.7319
    6MOL0     H  792  11.314   1.254   3.859  2.1777 -0.8587  3.1818
    6MOL0     H  793  11.115   1.363   3.726 -2.8351  0.5548  0.8094
    6MOL0     H  794  10.803   1.708   3.814 -0.3854  0.2212 -2.2821
    6MOL0     H  795  10.619   1.852   3.740  0.1614 -0.0379  1.0028
    6MOL0     H  796   9.916   1.379   2.736 -2.9002 -1.7597  1.0447
    6MOL0     H  797   9.978   1.206   2.608 -1.9343 -0.8599  0.3106
    6MOL0     H  798  10.072   0.961   2.335 -1.0484  0.0038 -0.8543
    6MOL0     H  799  10.196   0.762   2.224 -0.4941  0.4483 -0.0248
    6MOL0     H  800  10.274   0.551   1.937 -2.3627 -2.8349 -0.7742
    6MOL0     H  801  10.325   0.601   2.094 -0.2681 -0.7781 -1.2693
    6MOL0     H  802  10.084   0.608   2.157  0.0335  0.1658  0.4199
    6MOL0     H  803  10.147   0.448   2.133 -0.1091  1.2254  1.8196
    6MOL0     H  804  10.054   0.429   1.901 -2.9079 -0.5057 -2.2423
    6MOL0     H  805  10.001   0.600   1.911 -0.9816 -0.3428 -0.4647
    6MOL0     H  806   9.908   0.388   2.112  0.4576 -2.0254 -1.0390
    6MOL0     H  807   9.830   0.407   1.953  0.1757  0.1117  0.3010
    6MOL0     H  808   9.698   0.759   2.146 -0.5708  0.6678 -2.0647
    6MOL0     H  809  10.161   0.959   1.851  0.7576 -1.4505 -0.4761
    6MOL0     H  810  10.063   1.168   1.965  4.8730  4.3417  3.4028
    7MOL0     O  811  10.047   0.026   3.404 -0.5974 -0.0387  0.2498
    7MOL0     C  812  10.043   0.074   3.284 -0.6807  0.4383  0.4715
    7MOL0     O  813   9.936   0.094   3.203  0.3500 -0.0936 -0.5473
    7MOL0     C  814   9.814   0.066   3.257 -0.9930  0.0546  0.1146
    7MOL0     C  815   9.754   0.152   3.351 -0.0425 -0.6613  1.1685
    7MOL0     C  816   9.628   0.121   3.410 -0.4359  0.0682  0.6144
    7MOL0     C  817   9.564  -0.001   3.376  0.2183  0.7223  0.5077
    7MOL0     O  818   9.435  -0.018   3.435 -0.0880 -0.4490  0.3560
    7MOL0     C  819   9.381  -0.147   3.454 -0.4532 -0.7171 -0.1448
    7MOL0     C  820   9.258  -0.153   3.552 -0.5839 -0.3158  0.8666
    7MOL0     C  821   9.130  -0.144   3.472 -0.0057 -0.3904 -0.1029
    7MOL0     C  822   9.009  -0.140   3.563  0.2707 -0.3591  0.1331
    7MOL0     C  823   8.970  -0.286   3.616 -0.0739  0.2798 -0.1092
    7MOL0     C  824   8.840  -0.282   3.695 -0.0224 -0.5603 -0.3225
    7MOL0     C  825   8.773  -0.411   3.735 -0.3764  0.0411  0.4309
    7MOL0     C  826   8.848  -0.479   3.846  0.0615  1.0003 -0.4880
    7MOL0     N  827   8.808  -0.615   3.889  0.4171  0.1397 -0.1811
    7MOL0     C  828   8.773  -0.718   3.805 -0.8952  0.2848 -0.0386
    7MOL0     C  829   8.752  -0.818   3.887  0.1702  0.6628 -0.1051
    7MOL0     C  830   8.715  -0.945   3.822 -1.5453  0.5504 -0.0737
    7MOL0     C  831   8.672  -1.057   3.913 -0.0300  0.3909 -0.3697
    7MOL0     C  832   8.780  -1.122   4.010 -0.0298 -0.6084  0.1484
    7MOL0     C  833   8.746  -1.084   4.158  0.0544 -0.1634  1.4463
    7MOL0     O  834   8.849  -1.147   4.235  0.0128 -0.0001  0.7835
    7MOL0     C  835   8.934  -1.065   4.309 -0.0803  0.1111 -0.3558
    7MOL0     C  836   8.975  -0.936   4.269  0.5129  0.2460  0.0366
    7MOL0     C  837   9.041  -0.847   4.354 -0.6131  0.2649  0.1947
    7MOL0     C  838   9.087  -0.711   4.295  0.1886  1.2401 -0.2265
    7MOL0     C  839   9.084  -0.896   4.479  1.0147  0.1883 -1.1566
    7MOL0     C  840   9.157  -0.813   4.582 -0.2665 -1.0281  0.2650
    7MOL0     O  841   9.202  -0.689   4.537  0.1512 -0.6902  0.7975
    7MOL0     C  842   9.238  -0.593   4.633  0.6801 -0.1022  0.3065
    7MOL0     C  843   9.156  -0.488   4.676  0.4566 -0.3681  0.4460
    7MOL0     C  844   9.209  -0.391   4.754  0.1230  0.3164  0.3225
    7MOL0     C  845   9.338  -0.397   4.801 -0.8442  0.0498 -0.2688
    7MOL0     O  846   9.378  -0.297   4.888 -0.2269  0.5635 -0.1291
    7MOL0     C  847   9.434  -0.330   5.021  0.2315  0.6768 -0.0693
    7MOL0     C  848   9.583  -0.302   5.015  0.0121 -0.5515 -0.2104
    7MOL0     C  849   9.647  -0.295   5.152 -0.1456  0.8382  0.2015
    7MOL0     C  850   9.794  -0.254   5.142  0.3524  0.2010  0.0779
    7MOL0     C  851   9.853  -0.242   5.286  0.9170  0.2587 -0.3371
    7MOL0     C  852   9.991  -0.202   5.266 -0.2069 -0.2420 -0.3472
    7MOL0     C  853  10.006  -0.049   5.248 -0.8623  0.0182 -0.4537
    7MOL0     C  854  10.162  -0.006   5.245  0.2770 -0.2094 -0.2072
    7MOL0    Cl  855  10.238  -0.012   5.084  0.0381  0.0775  0.0247
    7MOL0     C  856   9.423  -0.503   4.764 -0.8682  0.8350 -0.6353
    7MOL0     C  857   9.369  -0.607   4.678 -1.2965 -0.3220  0.7212
    7MOL0     O  858   9.163  -0.853   4.692 -0.0844  0.6807 -0.6394
    7MOL0     C  859   9.055  -1.033   4.503  0.3188  0.3696 -0.3987
    7MOL0     C  860   8.993  -1.121   4.422  1.0996  1.1304 -1.2886
    7MOL0     N  861   8.762  -0.774   4.021  0.2579  0.2158  0.4570
    7MOL0     N  862   8.795  -0.649   4.021  0.1042 -0.3578 -0.4557
    7MOL0     C  863   9.628  -0.093   3.294  0.5216  0.4687  0.0407
    7MOL0     C  864   9.750  -0.058   3.232 -0.1808 -0.1540  0.6352
    7MOL0     C  865  10.176   0.112   3.211 -0.0682  0.7225 -0.0869
    7MOL0     C  866  10.299   0.100   3.290 -0.3042 -0.1098  0.9580
    7MOL0     C  867  10.414   0.084   3.213 -0.1350  0.6597  0.2171
    7MOL0     C  868  10.417   0.117   3.074  0.3647 -0.4683 -0.6586
    7MOL0     O  869  10.543   0.143   3.022 -0.1189  0.5506 -0.9404
    7MOL0     C  870  10.584   0.279   3.000 -0.1538  1.0312  0.1775
    7MOL0     C  871  10.740   0.282   2.972 -0.1243  0.5571 -0.4607
    7MOL0     C  872  10.792   0.393   2.879 -0.4290  0.6428  0.4735
    7MOL0     C  873  10.923   0.351   2.817 -0.3049  0.6549  0.8583
    7MOL0     C  874  10.993   0.455   2.740  1.1885  0.1059 -0.2083
    7MOL0     C  875  11.051   0.532   2.660  0.3385 -0.5422 -0.5560
    7MOL0     C  876  10.300   0.149   3.005  0.3037 -0.3700 -0.0112
    7MOL0     C  877  10.177   0.142   3.070  0.4652 -1.0880  1.2023
    7MOL0     H  878   9.797   0.245   3.386  1.9690 -0.7993 -0.6714
    7MOL0     H  879   9.572   0.185   3.477 -0.2517 -0.1469  0.9757
    7MOL0     H  880   9.367  -0.190   3.354  2.2503 -0.9724 -0.4860
    7MOL0     H  881   9.446  -0.222   3.498 -0.0865  0.0272  0.6123
    7MOL0     H  882   9.262  -0.249   3.605  1.5213 -1.4196 -1.0896
    7MOL0     H  883   9.256  -0.073   3.627 -1.0513  2.5228 -1.9879
    7MOL0     H  884   9.153  -0.054   3.415 -1.2512 -1.0672 -1.7760
    7MOL0     H  885   9.126  -0.229   3.403 -2.8530 -0.4176 -0.0125
    7MOL0     H  886   9.022  -0.080   3.654  2.1142 -0.1604 -0.2392
    7MOL0     H  887   8.927  -0.086   3.515 -0.4293  1.1582  2.8032
    7MOL0     H  888   8.964  -0.352   3.529  2.7800 -0.1687 -0.0532
    7MOL0     H  889   9.052  -0.325   3.678  0.1327 -2.5517 -1.9951
    7MOL0     H  890   8.861  -0.220   3.782  1.4114 -0.3028 -0.8227
    7MOL0     H  891   8.770  -0.233   3.626 -1.2899 -0.3178  1.0829
    7MOL0     H  892   8.677  -0.384   3.779 -1.9348 -0.1239 -2.5717
    7MOL0     H  893   8.763  -0.475   3.647 -2.6589  0.7480  0.1169
    7MOL0     H  894   8.848  -0.413   3.933  2.0483 -2.5053  2.4026
    7MOL0     H  895   8.954  -0.488   3.821  0.0530  0.1076 -0.2139
    7MOL0     H  896   8.786  -0.725   3.697  0.8835  0.7906  0.0990
    7MOL0     H  897   8.641  -0.931   3.743 -0.8431 -0.4848 -0.9502
    7MOL0     H  898   8.798  -0.992   3.768 -0.2495 -2.1345  3.7899
    7MOL0     H  899   8.622  -1.131   3.850  1.3639  0.6242 -1.7983
    7MOL0     H  900   8.590  -1.017   3.974 -0.4744 -0.0987 -0.6446
    7MOL0     H  901   8.874  -1.078   3.974 -0.1569 -1.8305 -1.7619
    7MOL0     H  902   8.785  -1.231   4.000 -0.5236 -0.6729  0.5949
    7MOL0     H  903   8.649  -1.122   4.192 -1.8865  2.3458 -0.8473
    7MOL0     H  904   8.753  -0.975   4.163  3.0961 -0.0836 -1.4980
    7MOL0     H  905   8.933  -0.902   4.175 -2.5152 -0.6513  0.9247
    7MOL0     H  906   9.044  -0.636   4.362  0.7657  3.2258 -1.9832
    7MOL0     H  907   9.196  -0.699   4.287  0.7295 -2.4498 -0.4882
    7MOL0     H  908   9.040  -0.710   4.197 -1.8249 -0.5486  0.6415
    7MOL0     H  909   9.053  -0.492   4.642  1.1497 -1.2726 -1.7285
    7MOL0     H  910   9.143  -0.314   4.791 -1.1304  0.1360 -1.4224
    7MOL0     H  911   9.378  -0.275   5.097  1.4027  0.3381  1.0775
    7MOL0     H  912   9.428  -0.438   5.043  3.1164  0.8150  1.8738
    7MOL0     H  913   9.646  -0.365   4.951 -0.1966 -0.7589 -0.2159
    7MOL0     H  914   9.591  -0.202   4.972  2.7886  0.6395  2.6821
    7MOL0     H  915   9.638  -0.391   5.204 -0.7349  1.4290  1.2028
    7MOL0     H  916   9.590  -0.222   5.210 -2.0083  0.2095 -0.7431
    7MOL0     H  917   9.853  -0.332   5.093  2.3727  0.7812  1.4394
    7MOL0     H  918   9.802  -0.159   5.087  1.0307 -0.3169 -0.7532
    7MOL0     H  919   9.835  -0.339   5.333 -2.1572 -0.6352 -2.9813
    7MOL0     H  920   9.801  -0.161   5.337  1.6897  1.2776 -1.1317
    7MOL0     H  921  10.040  -0.223   5.362  0.2404 -2.0805 -0.9326
    7MOL0     H  922  10.040  -0.269   5.196  0.7296  1.5198 -1.4456
    7MOL0     H  923   9.955  -0.002   5.333 -1.9440  1.1191 -1.6623
    7MOL0     H  924   9.960  -0.019   5.154 -0.0220 -0.0570 -0.8963
    7MOL0     H  925  10.219  -0.071   5.313  0.3478 -1.8774 -1.8025
    7MOL0     H  926  10.163   0.099   5.275 -1.3143 -1.0255  3.1108
    7MOL0     H  927   9.523  -0.500   4.808 -0.0475 -0.8206 -2.2304
    7MOL0     H  928   9.443  -0.685   4.660  1.5944  2.1039  1.1522
    7MOL0     H  929   9.098  -1.088   4.587 -3.6041  0.1825  1.7096
    7MOL0     H  930   8.978  -1.223   4.454  0.0402  2.1373  1.8659
    7MOL0     H  931   9.603  -0.199   3.288  0.7990  0.1764  2.8875
    7MOL0     H  932   9.798  -0.119   3.156  1.8882 -0.3604  2.0297
    7MOL0     H  933  10.290   0.091   3.398 -0.3884  2.5024  1.2440
    7MOL0     H  934  10.508   0.052   3.256  0.4355  0.0316 -1.4352
    7MOL0     H  935  10.532   0.302   2.907 -0.4989 -2.5031 -0.6328
    7MOL0     H  936  10.558   0.346   3.083 -0.8153  2.1743 -0.9199
    7MOL0     H  937  10.774   0.183   2.944 -1.1855 -1.0355  3.2069
    7MOL0     H  938  10.788   0.288   3.070  1.2737 -2.5347 -0.8577
    7MOL0     H  939  10.817   0.480   2.941  1.3468 -2.6886  5.0046
    7MOL0     H  940  10.716   0.412   2.802 -1.4881 -2.8128  0.4958
    7MOL0     H  941  10.907   0.266   2.750  2.4762  1.6420 -1.2970
    7MOL0     H  942  10.995   0.324   2.895 -0.4137  2.2083  1.5362
    7MOL0     H  943  11.107   0.583   2.584 -0.3542 -0.3229 -0.9325
    7MOL0     H  944  10.302   0.164   2.898 -0.6952 -2.4743 -0.3772
    7MOL0     H  945  10.091   0.164   3.008 -0.3044 -1.0031  2.2892
    8MOL0     O  946   7.974   0.686   9.235 -0.4919 -0.3714  0.3072
    8MOL0     C  947   8.029   0.659   9.131 -0.8602 -1.0224 -0.0753
    8MOL0     O  948   8.000   0.555   9.048  0.1571 -0.1009  0.2142
    8MOL0     C  949   7.879   0.508   9.050  0.0321  0.1853  0.2270
    8MOL0     C  950   7.870   0.369   9.058 -0.2421  0.2516  0.6492
    8MOL0     C  951   7.746   0.313   9.067 -0.1274  0.4425 -0.2689
    8MOL0     C  952   7.628   0.389   9.055 -0.2431 -0.3060 -0.9006
    8MOL0     O  953   7.510   0.315   9.044  0.6411  0.7569  0.5298
    8MOL0     C  954   7.391   0.377   9.087 -0.0065  0.1191 -0.0393
    8MOL0     C  955   7.283   0.280   9.124  1.3014  1.1635 -0.2915
    8MOL0     C  956   7.338   0.169   9.227  0.6123 -0.2326 -0.0958
    8MOL0     C  957   7.239   0.051   9.246 -0.4495 -0.7326  0.0912
    8MOL0     C  958   7.186   0.030   9.384 -0.0518 -0.0128 -0.4369
    8MOL0     C  959   7.121   0.149   9.458  0.1432  0.8085  0.8203
    8MOL0     C  960   7.083   0.112   9.596 -0.3476 -1.2554 -1.0357
    8MOL0     C  961   6.940   0.049   9.616  0.0915 -0.3507  0.4887
    8MOL0     N  962   6.925  -0.083   9.561 -0.0668 -0.1399 -0.5498
    8MOL0     C  963   6.876  -0.106   9.437  0.0946 -0.9869 -1.1866
    8MOL0     C  964   6.859  -0.234   9.437 -0.7976  0.3443  0.2962
    8MOL0     C  965   6.767  -0.286   9.335  0.7287 -0.2903  0.2173
    8MOL0     C  966   6.834  -0.306   9.200 -0.6462  0.2149  0.3965
    8MOL0     C  967   6.764  -0.410   9.113  0.7748  1.4908  0.3056
    8MOL0     C  968   6.613  -0.378   9.091 -0.4335  0.1483 -0.5851
    8MOL0     O  969   6.572  -0.480   8.999 -0.6836  0.2304 -0.5378
    8MOL0     C  970   6.439  -0.480   8.977 -0.2312 -0.3274 -0.1140
    8MOL0     C  971   6.337  -0.392   9.020 -0.4846 -0.3786  0.0128
    8MOL0     C  972   6.199  -0.414   8.981  0.1450 -0.6546  0.7895
    8MOL0     C  973   6.097  -0.332   9.060  0.1712 -0.5865  0.2299
    8MOL0     C  974   6.163  -0.514   8.888 -0.7727 -0.3088  1.1597
    8MOL0     C  975   6.029  -0.552   8.841  1.2113 -0.2358  0.2417
    8MOL0     O  976   5.920  -0.477   8.894 -0.0214 -0.2037  0.9576
    8MOL0     C  977   5.789  -0.515   8.874 -0.3904  0.3115  0.4311
    8MOL0     C  978   5.706  -0.474   8.976  0.6826 -0.1813  0.1537
    8MOL0     C  979   5.566  -0.497   8.959  0.1611 -0.3176 -0.8104
    8MOL0     C  980   5.523  -0.559   8.843  0.2165 -0.5319 -1.0708
    8MOL0     O  981   5.386  -0.560   8.836 -0.0724  0.4360  0.3469
    8MOL0     C  982   5.326  -0.625   8.712 -0.8140 -1.0182  0.2848
    8MOL0     C  983   5.174  -0.650   8.730 -0.1848 -0.1028  0.6448
    8MOL0     C  984   5.138  -0.774   8.805  0.6320  0.1696  0.3296
    8MOL0     C  985   5.123  -0.751   8.956 -0.2392  0.5554  0.1517
    8MOL0     C  986   5.165  -0.877   9.035  0.5473 -0.3748  0.2970
    8MOL0     C  987   5.067  -0.988   9.013  0.2430 -0.2318 -0.0328
    8MOL0     C  988   5.131  -1.123   9.052  0.2503 -0.1853  0.5840
    8MOL0     C  989   5.020  -1.219   9.092 -1.0491  0.2611  0.2138
    8MOL0    Cl  990   4.893  -1.279   8.978 -0.1220 -0.7242 -0.1661
    8MOL0     C  991   5.614  -0.596   8.743  1.3393 -0.2672  0.0388
    8MOL0     C  992   5.742  -0.578   8.759 -0.7789 -0.2936  0.1767
    8MOL0     O  993   6.024  -0.643   8.759  0.7643  0.5335  0.5212
    8MOL0     C  994   6.273  -0.587   8.827  0.2852  0.3543  0.8894
    8MOL0     C  995   6.404  -0.574   8.880  0.2066  0.0989 -0.3862
    8MOL0     N  996   6.906  -0.301   9.549 -0.5244 -0.4655  0.4920
    8MOL0     N  997   6.933  -0.199   9.629  0.6981  0.0877 -0.6313
    8MOL0     C  998   7.644   0.527   9.048  0.3515 -0.7718 -0.1557
    8MOL0     C  999   7.768   0.586   9.049 -0.0999 -0.6340 -0.4136
    8MOL0     C 1000   8.148   0.751   9.102 -0.3843  0.4772 -0.0597
    8MOL0     C 1001   8.211   0.827   9.200  0.4389  0.0919 -0.6881
    8MOL0     C 1002   8.318   0.912   9.169  0.1820 -0.6462 -0.2183
    8MOL0     C 1003   8.373   0.912   9.042 -0.5366  0.4425  0.6181
    8MOL0     O 1004   8.492   0.984   9.019 -0.6926  0.9158  0.1845
    8MOL0     C 1005   8.562   0.986   8.892 -0.4569 -0.6997  0.4526
    8MOL0     C 1006   8.677   1.084   8.905  0.5126 -0.5361 -0.1190
    8MOL0     C 1007   8.784   1.033   9.000 -0.3597 -0.7334  0.1314
    8MOL0     C 1008   8.778   1.100   9.135 -0.5522  0.0189 -0.1387
    8MOL0     C 1009   8.907   1.078   9.202 -0.7543  0.4201 -0.1162
    8MOL0     C 1010   9.016   1.047   9.254 -0.1186 -0.3741  1.2849
    8MOL0     C 1011   8.304   0.843   8.937  0.1700  0.7453  0.2826
    8MOL0     C 1012   8.194   0.762   8.962  0.9504 -0.0524 -0.3378
    8MOL0     H 1013   7.958   0.306   9.046  0.1447  1.1855 -1.9983
    8MOL0     H 1014   7.727   0.206   9.070 -0.9259  0.5034 -1.8010
    8MOL0     H 1015   7.418   0.441   9.171 -0.2371  0.2575 -0.0677
    8MOL0     H 1016   7.363   0.450   9.010 -2.7633 -2.4751 -1.7174
    8MOL0     H 1017   7.195   0.330   9.166  0.0025 -0.8237 -0.4899
    8MOL0     H 1018   7.263   0.229   9.030  0.3355 -1.1959  1.0947
    8MOL0     H 1019   7.436   0.138   9.190 -0.0851 -2.8775  0.0794
    8MOL0     H 1020   7.356   0.217   9.324 -1.2537 -2.3051  1.3802
    8MOL0     H 1021   7.152   0.077   9.185 -1.3898 -0.7113  1.4016
    8MOL0     H 1022   7.292  -0.037   9.208  0.0849  0.1663 -1.3233
    8MOL0     H 1023   7.114  -0.050   9.363  1.6317 -1.5359 -0.6305
    8MOL0     H 1024   7.270   0.000   9.447 -1.6231 -0.6209  1.4794
    8MOL0     H 1025   7.190   0.234   9.461  0.7417  0.3843 -0.0964
    8MOL0     H 1026   7.036   0.188   9.402  0.8298  1.0890 -0.0599
    8MOL0     H 1027   7.156   0.036   9.626 -0.9360 -1.0607  1.0292
    8MOL0     H 1028   7.089   0.196   9.666 -3.5426 -2.8085  1.3762
    8MOL0     H 1029   6.865   0.116   9.574 -0.0507 -1.5405 -1.2700
    8MOL0     H 1030   6.917   0.045   9.723 -2.3479  1.8844  0.1385
    8MOL0     H 1031   6.835  -0.037   9.364 -2.0346 -1.1150 -0.1739
    8MOL0     H 1032   6.717  -0.377   9.369 -2.4555 -0.0047 -3.0957
    8MOL0     H 1033   6.686  -0.215   9.316  2.1372  0.8843 -1.7427
    8MOL0     H 1034   6.932  -0.349   9.223  0.4996  2.5003  0.0237
    8MOL0     H 1035   6.865  -0.219   9.141 -0.5807  0.1086  0.2722
    8MOL0     H 1036   6.771  -0.513   9.150 -1.6485  0.8526 -0.7791
    8MOL0     H 1037   6.816  -0.415   9.017 -0.1452  0.6665 -0.1676
    8MOL0     H 1038   6.588  -0.273   9.071 -1.5894  0.5643  2.4439
    8MOL0     H 1039   6.560  -0.396   9.185  0.6700  2.4875  0.5659
    8MOL0     H 1040   6.363  -0.311   9.087 -1.4577  0.9903 -1.1953
    8MOL0     H 1041   6.051  -0.254   8.998  0.3491  0.2019  1.0576
    8MOL0     H 1042   6.026  -0.392   9.117  0.7164  0.1969  1.7982
    8MOL0     H 1043   6.153  -0.258   9.119 -3.6773  2.4660  0.5083
    8MOL0     H 1044   5.742  -0.427   9.067 -0.5749 -0.9041  1.0486
    8MOL0     H 1045   5.495  -0.475   9.038 -3.4813 -1.2217 -3.5774
    8MOL0     H 1046   5.350  -0.554   8.633  0.4546  0.8852  2.2650
    8MOL0     H 1047   5.368  -0.722   8.686 -0.6468 -0.4806 -1.5694
    8MOL0     H 1048   5.132  -0.561   8.776 -0.1708 -0.3843  1.2106
    8MOL0     H 1049   5.131  -0.662   8.630 -0.1851 -0.1288  0.6484
    8MOL0     H 1050   5.211  -0.851   8.780  0.5984  1.2030 -3.5635
    8MOL0     H 1051   5.044  -0.813   8.765  1.5820  1.0423 -3.0845
    8MOL0     H 1052   5.193  -0.671   8.983  0.0821  0.8338 -1.3863
    8MOL0     H 1053   5.020  -0.717   8.975  0.2994  2.2918  0.1278
    8MOL0     H 1054   5.173  -0.856   9.142 -1.0646 -0.8966  0.5453
    8MOL0     H 1055   5.264  -0.907   8.998 -0.3628 -1.2959 -1.5179
    8MOL0     H 1056   4.987  -0.969   9.086  2.4711 -1.4098  2.9185
    8MOL0     H 1057   5.027  -0.984   8.911 -0.2147 -1.5640  0.0764
    8MOL0     H 1058   5.207  -1.108   9.129 -2.1245 -0.7931  3.2122
    8MOL0     H 1059   5.169  -1.171   8.961  0.8108  0.5216  0.4321
    8MOL0     H 1060   4.966  -1.182   9.179  1.1044  0.1194  1.6845
    8MOL0     H 1061   5.064  -1.314   9.122  0.3446  0.1525 -1.9561
    8MOL0     H 1062   5.581  -0.652   8.656  1.2782 -0.8740  0.4451
    8MOL0     H 1063   5.807  -0.630   8.689 -0.8663 -2.6137  1.7328
    8MOL0     H 1064   6.249  -0.666   8.757 -3.0344  0.4809  1.7068
    8MOL0     H 1065   6.468  -0.637   8.819 -1.7330 -0.9863 -1.4253
    8MOL0     H 1066   7.557   0.590   9.058 -0.7273 -2.4519  1.6361
    8MOL0     H 1067   7.758   0.694   9.057 -4.0167 -0.9445  1.2214
    8MOL0     H 1068   8.181   0.807   9.303 -0.1148  1.3260 -0.5958
    8MOL0     H 1069   8.366   0.967   9.249 -0.0783 -1.0776  0.2405
    8MOL0     H 1070   8.614   0.890   8.887 -0.0139 -0.5547  1.8230
    8MOL0     H 1071   8.501   1.002   8.803 -0.8089  0.4200  0.8730
    8MOL0     H 1072   8.641   1.181   8.941 -0.0446 -0.7930  0.0357
    8MOL0     H 1073   8.719   1.092   8.804  3.0698  0.2063  0.9211
    8MOL0     H 1074   8.882   1.055   8.957  1.7578  0.1560  4.7178
    8MOL0     H 1075   8.785   0.924   9.007 -1.7199 -0.7254  0.9474
    8MOL0     H 1076   8.699   1.048   9.189  1.6022 -3.3670  0.0691
    8MOL0     H 1077   8.747   1.205   9.126  2.0313  0.7897 -1.1691
    8MOL0     H 1078   9.108   1.017   9.300 -0.1828 -0.2699  1.4846
    8MOL0     H 1079   8.329   0.856   8.832 -0.0869  0.8214  0.2302
    8MOL0     H 1080   8.135   0.704   8.892  1.6474 -3.8696  1.9027
    9MOL0     O 1081  10.153  10.359   7.219 -0.3277 -0.2398 -0.3038
    9MOL0     C 1082  10.113  10.459   7.164 -0.4247  0.1879  0.7587
    9MOL0     O 1083   9.993  10.501   7.160 -0.4215 -0.4356  0.2989
    9MOL0     C 1084   9.892  10.433   7.232 -0.7709  0.8393  0.4536
    9MOL0     C 1085   9.775  10.417   7.163 -0.6951 -0.1358  0.9949
    9MOL0     C 1086   9.663  10.367   7.223  0.1098 -0.0710 -0.0118
    9MOL0     C 1087   9.670  10.315   7.349 -0.0458 -0.6672 -0.3474
    9MOL0     O 1088   9.557  10.274   7.421  0.4491 -0.5587 -0.6141
    9MOL0     C 1089   9.425  10.265   7.367  1.2272  0.3584 -0.5326
    9MOL0     C 1090   9.400  10.124   7.302 -0.5735 -0.1381 -0.3146
    9MOL0     C 1091   9.284  10.136   7.204 -0.0872 -0.2342 -0.4184
    9MOL0     C 1092   9.264  10.009   7.108 -0.9217 -0.0939 -0.3013
    9MOL0     C 1093   9.194  10.060   6.978 -0.2357 -0.3774 -0.3986
    9MOL0     C 1094   9.045  10.085   7.003 -0.5027  0.4109  0.3998
    9MOL0     C 1095   8.971   9.949   7.013 -0.1734 -0.1100  0.2709
    9MOL0     C 1096   8.819   9.968   7.015  0.0853 -0.5890 -0.1693
    9MOL0     N 1097   8.744   9.844   7.065 -0.2456  0.3709  0.0633
    9MOL0     C 1098   8.711   9.740   6.983  0.2091 -0.5419  0.6695
    9MOL0     C 1099   8.605   9.681   7.036 -0.7284  0.4251 -0.1936
    9MOL0     C 1100   8.533   9.561   6.979 -0.1408  0.2340 -0.0224
    9MOL0     C 1101   8.452   9.613   6.857  0.2058  0.9195  0.1616
    9MOL0     C 1102   8.314   9.654   6.893  0.1717 -0.5539 -0.2430
    9MOL0     C 1103   8.226   9.666   6.766  0.2217  0.1623 -0.2900
    9MOL0     O 1104   8.095   9.707   6.802  0.6766 -0.4313  0.8179
    9MOL0     C 1105   7.986   9.698   6.714 -0.2808 -0.9717 -0.2765
    9MOL0     C 1106   8.005   9.676   6.579  0.4404 -0.0582  0.5538
    9MOL0     C 1107   7.888   9.679   6.490 -0.6131 -0.0066  0.8125
    9MOL0     C 1108   7.913   9.674   6.331  0.6983  0.3628 -0.5230
    9MOL0     C 1109   7.754   9.702   6.542  0.1708  0.4361  0.3180
    9MOL0     C 1110   7.625   9.644   6.476  0.5238 -1.1423  0.4529
    9MOL0     O 1111   7.508   9.683   6.529 -0.5000 -0.3022 -0.6780
    9MOL0     C 1112   7.389   9.630   6.492 -0.5836 -0.2039  0.8988
    9MOL0     C 1113   7.357   9.580   6.367 -0.3145  0.0590  0.5337
    9MOL0     C 1114   7.227   9.533   6.343 -0.7675 -0.2797  0.4249
    9MOL0     C 1115   7.124   9.531   6.450  0.0102 -0.1515  0.1177
    9MOL0     O 1116   6.995   9.482   6.443 -0.6077 -0.0719 -0.3993
    9MOL0     C 1117   6.954   9.421   6.317  0.8723 -0.6664 -0.1761
    9MOL0     C 1118   6.815   9.349   6.342  0.6490 -0.4349 -0.2926
    9MOL0     C 1119   6.701   9.415   6.254 -0.7219  0.0311 -0.1742
    9MOL0     C 1120   6.573   9.335   6.292 -0.3238  0.4434 -0.5857
    9MOL0     C 1121   6.454   9.377   6.207 -0.0385  0.1564  0.2467
    9MOL0     C 1122   6.328   9.296   6.236 -0.5570 -0.2733 -0.4916
    9MOL0     C 1123   6.213   9.348   6.148 -1.1547  0.3746 -0.2032
    9MOL0     C 1124   6.161   9.493   6.168 -0.1027 -0.0991  0.2862
    9MOL0    Cl 1125   6.011   9.513   6.073  0.3843 -0.2617 -0.1177
    9MOL0     C 1126   7.167   9.586   6.571  0.4927  0.4307  0.5572
    9MOL0     C 1127   7.300   9.632   6.584  0.5866  0.0913 -0.1029
    9MOL0     O 1128   7.633   9.562   6.383 -0.5409  0.4563  0.0375
    9MOL0     C 1129   7.746   9.743   6.679  0.0872 -0.0312  0.1147
    9MOL0     C 1130   7.864   9.742   6.764  0.4235  0.5297  0.6355
    9MOL0     N 1131   8.586   9.741   7.166 -0.3524  0.1547 -0.0304
    9MOL0     N 1132   8.664   9.841   7.180 -0.4840  0.1753 -0.3919
    9MOL0     C 1133   9.788  10.325   7.418  0.4672 -0.2014 -0.1154
    9MOL0     C 1134   9.901  10.387   7.365 -0.6824 -0.3015  0.0674
    9MOL0     C 1135  10.209  10.543   7.097  0.4509  0.6629 -0.2278
    9MOL0     C 1136  10.178  10.657   7.023  0.2282 -0.0776  0.0613
    9MOL0     C 1137  10.280  10.744   6.976 -0.3352 -0.0920  0.1379
    9MOL0     C 1138  10.416  10.713   7.000 -0.2146  0.5828  0.8601
    9MOL0     O 1139  10.521  10.794   6.966  0.4052  0.3802  0.0203
    9MOL0     C 1140  10.500  10.910   6.889  0.2632  0.0512  0.5533
    9MOL0     C 1141  10.631  10.974   6.867  0.1607  0.4510 -0.4604
    9MOL0     C 1142  10.620  11.089   6.773  0.1202  0.1714  0.0723
    9MOL0     C 1143  10.598  11.219   6.843 -0.5411 -0.5618  0.6229
    9MOL0     C 1144  10.727  11.295   6.859 -0.0181  0.3687  0.0206
    9MOL0     C 1145  10.833  11.355   6.858  0.0398  0.2627 -0.1814
    9MOL0     C 1146  10.451  10.589   7.061 -0.2917  0.6308  0.5200
    9MOL0     C 1147  10.345  10.502   7.111 -0.0361  0.9071  0.2714
    9MOL0     H 1148   9.772  10.453   7.061 -1.3561  0.4868  1.2256
    9MOL0     H 1149   9.579  10.357   7.154 -0.3062  3.1697 -0.1172
    9MOL0     H 1150   9.345  10.286   7.439  0.5978  0.2404 -1.1913
    9MOL0     H 1151   9.414  10.343   7.292  4.1807  0.3460 -1.0997
    9MOL0     H 1152   9.494  10.107   7.250  0.5861 -0.1093  1.6682
    9MOL0     H 1153   9.380  10.050   7.380  4.9038 -1.2236  0.4337
    9MOL0     H 1154   9.189  10.162   7.252 -0.1914 -1.9356  0.3604
    9MOL0     H 1155   9.310  10.222   7.142  1.9895 -2.1942 -2.4200
    9MOL0     H 1156   9.355   9.951   7.088 -0.9937  0.7075 -3.4872
    9MOL0     H 1157   9.199   9.937   7.159 -2.4845  0.6716 -1.1641
    9MOL0     H 1158   9.246  10.145   6.934 -1.2715 -0.6642 -2.2638
    9MOL0     H 1159   9.201   9.979   6.905  0.4257  0.3654 -1.1854
    9MOL0     H 1160   9.024  10.142   7.094 -0.6541 -1.2318  1.4406
    9MOL0     H 1161   9.002  10.142   6.921  2.3028 -0.2988 -1.6919
    9MOL0     H 1162   9.003   9.896   6.922  1.8349  3.2850 -1.1828
    9MOL0     H 1163   8.988   9.892   7.104 -2.9799  0.8304  1.4872
    9MOL0     H 1164   8.788   9.997   6.914  0.1168 -0.6869 -0.2076
    9MOL0     H 1165   8.791  10.051   7.081  2.1175  1.3767 -1.6108
    9MOL0     H 1166   8.749   9.714   6.885 -0.0986 -0.3586  0.5036
    9MOL0     H 1167   8.609   9.485   6.957  1.3151  1.2107  1.4339
    9MOL0     H 1168   8.456   9.517   7.042  0.1042 -0.5862 -0.2761
    9MOL0     H 1169   8.448   9.516   6.806 -1.9156 -0.6438  3.0058
    9MOL0     H 1170   8.504   9.682   6.791 -0.7502  0.7069 -0.8551
    9MOL0     H 1171   8.316   9.760   6.922  0.3650  0.2836 -2.9543
    9MOL0     H 1172   8.270   9.593   6.972 -0.1328  3.0384  2.6423
    9MOL0     H 1173   8.228   9.569   6.716 -1.8567 -0.1339  0.1089
    9MOL0     H 1174   8.278   9.744   6.709  3.1344 -1.1931  0.3437
    9MOL0     H 1175   8.103   9.671   6.533 -0.1405 -0.0867 -0.7399
    9MOL0     H 1176   7.997   9.739   6.302  1.1436 -1.0823 -2.7392
    9MOL0     H 1177   7.938   9.573   6.297 -1.0425  0.2918 -1.7262
    9MOL0     H 1178   7.831   9.708   6.267 -0.1860  3.1408  1.8964
    9MOL0     H 1179   7.426   9.567   6.285  0.1261 -3.6922  1.3046
    9MOL0     H 1180   7.206   9.494   6.244  1.3027  0.1376 -0.2066
    9MOL0     H 1181   6.954   9.493   6.234  1.7262 -0.8975 -0.3837
    9MOL0     H 1182   7.015   9.333   6.296  1.1275 -0.2172 -1.4198
    9MOL0     H 1183   6.823   9.241   6.325 -0.1968 -1.5222  4.6584
    9MOL0     H 1184   6.787   9.355   6.448  0.4912 -1.6971 -0.2507
    9MOL0     H 1185   6.713   9.388   6.149 -0.0929 -3.8799  0.7659
    9MOL0     H 1186   6.685   9.523   6.265 -2.3108 -0.4040  3.1717
    9MOL0     H 1187   6.601   9.231   6.269  0.7404  0.7402 -0.7065
    9MOL0     H 1188   6.556   9.349   6.399  0.4324  2.2948 -0.6634
    9MOL0     H 1189   6.473   9.350   6.103 -2.0472 -0.6807  0.0449
    9MOL0     H 1190   6.438   9.485   6.207 -2.0758 -0.0737 -1.5572
    9MOL0     H 1191   6.344   9.189   6.218  0.8480  0.2149 -2.5015
    9MOL0     H 1192   6.306   9.321   6.340 -3.2198 -0.5332 -0.9184
    9MOL0     H 1193   6.135   9.275   6.172 -0.6336 -0.3251 -0.5705
    9MOL0     H 1194   6.240   9.337   6.042 -1.6181 -1.1207 -0.1943
    9MOL0     H 1195   6.243   9.561   6.142  2.2172 -2.0477  2.0646
    9MOL0     H 1196   6.133   9.511   6.272 -1.5876  0.0087 -0.1096
    9MOL0     H 1197   7.099   9.611   6.651  2.7874  0.3467  2.6705
    9MOL0     H 1198   7.317   9.682   6.678 -3.2341  1.5728 -0.0255
    9MOL0     H 1199   7.653   9.767   6.730 -0.8293 -1.2451 -0.9544
    9MOL0     H 1200   7.851   9.775   6.867  0.4498  0.0001  0.8120
    9MOL0     H 1201   9.797  10.295   7.522  1.8359  1.1941  0.2080
    9MOL0     H 1202   9.990  10.418   7.418  0.7900 -0.1746 -2.3103
    9MOL0     H 1203  10.080  10.699   7.006  1.1023  1.3866 -1.6518
    9MOL0     H 1204  10.241  10.829   6.921 -2.3075 -2.4325 -2.3147
    9MOL0     H 1205  10.458  10.898   6.788 -0.8556  2.7694  0.6131
    9MOL0     H 1206  10.439  10.978   6.948 -0.4261 -1.8454  2.1587
    9MOL0     H 1207  10.698  10.906   6.814  2.4952  0.7783  1.8230
    9MOL0     H 1208  10.675  10.994   6.966 -1.1576 -0.6381  0.3746
    9MOL0     H 1209  10.530  11.070   6.714 -0.3811 -1.1721  1.2219
    9MOL0     H 1210  10.712  11.096   6.713 -0.8919  0.4846 -1.5015
    9MOL0     H 1211  10.565  11.194   6.944 -2.3637 -1.1502 -0.0945
    9MOL0     H 1212  10.528  11.291   6.801  0.5588 -0.2493 -0.7576
    9MOL0     H 1213  10.932  11.395   6.865 -0.3630  0.9629  2.6526
    9MOL0     H 1214  10.554  10.554   7.058  0.3385  2.4272 -0.5163
    9MOL0     H 1215  10.369  10.402   7.146  0.1971 -1.6573 -5.9128
   10MOL0     O 1216   3.441   8.012   9.129 -0.1569  0.6537  0.1410
   10MOL0     C 1217   3.455   8.112   9.199  0.7873 -0.4121 -0.0713
   10MOL0     O 1218   3.572   8.159   9.244 -0.0050  1.0247 -0.6338
   10MOL0     C 1219   3.689   8.096   9.221 -1.3411 -0.3811 -0.4031
   10MOL0     C 1220   3.776   8.065   9.322 -0.0417  0.6021 -0.0374
   10MOL0     C 1221   3.893   7.996   9.301 -0.3903  0.1008 -0.5971
   10MOL0     C 1222   3.920   7.946   9.172 -0.1015  0.0317  0.0882
   10MOL0     O 1223   4.040   7.874   9.162 -0.1765 -0.0070  0.0497
   10MOL0     C 1224   4.087   7.826   9.041  0.5873  0.1845 -0.0466
   10MOL0     C 1225   4.215   7.734   9.049 -0.5505 -0.6891  0.0959
   10MOL0     C 1226   4.347   7.806   9.073 -0.0285  0.1074 -0.5295
   10MOL0     C 1227   4.459   7.705   9.085 -0.1326  0.1522 -0.2590
   10MOL0     C 1228   4.588   7.774   9.133  0.1255  0.9680 -0.0450
   10MOL0     C 1229   4.706   7.687   9.121 -0.4641 -0.3418 -0.5395
   10MOL0     C 1230   4.819   7.750   9.196 -0.1014 -0.1713  0.4047
   10MOL0     C 1231   4.808   7.752   9.352  0.7159  0.2844 -0.8260
   10MOL0     N 1232   4.933   7.792   9.405  0.1320  0.7499 -0.0547
   10MOL0     C 1233   4.953   7.920   9.443  0.6052  0.0052  0.6054
   10MOL0     C 1234   5.092   7.938   9.479  0.7669  1.0047 -0.6695
   10MOL0     C 1235   5.157   8.040   9.563 -0.5569 -0.7760  0.2203
   10MOL0     C 1236   5.304   8.066   9.526 -0.4062  0.4068  0.3585
   10MOL0     C 1237   5.323   8.139   9.392 -0.1339 -0.3881 -0.1789
   10MOL0     C 1238   5.469   8.171   9.374 -0.5099  0.1751 -0.1341
   10MOL0     O 1239   5.498   8.303   9.427 -0.4742 -0.1350 -0.5290
   10MOL0     C 1240   5.632   8.321   9.410 -0.6778 -0.4517  0.1758
   10MOL0     C 1241   5.726   8.283   9.504 -0.8753 -0.1593 -1.0389
   10MOL0     C 1242   5.865   8.311   9.486 -0.3707  0.0368  0.1892
   10MOL0     C 1243   5.954   8.267   9.601 -0.4472  0.4273 -0.5229
   10MOL0     C 1244   5.916   8.367   9.365 -0.3930 -0.4387 -0.4066
   10MOL0     C 1245   6.056   8.407   9.349 -0.4200  0.3199  0.8206
   10MOL0     O 1246   6.144   8.412   9.454 -1.1114 -0.7590 -0.7418
   10MOL0     C 1247   6.278   8.423   9.423 -0.6900  0.1437  0.2058
   10MOL0     C 1248   6.330   8.519   9.332  0.3124  0.1878 -1.3064
   10MOL0     C 1249   6.464   8.534   9.305  0.3372 -0.1065 -0.3249
   10MOL0     C 1250   6.556   8.445   9.370 -0.7662  0.5660 -0.9527
   10MOL0     O 1251   6.693   8.452   9.365 -0.1398 -0.9391  0.0769
   10MOL0     C 1252   6.741   8.483   9.233 -0.4319  0.9905  0.2701
   10MOL0     C 1253   6.843   8.381   9.191 -0.2764  0.6065 -0.9303
   10MOL0     C 1254   6.891   8.405   9.043 -0.1731  0.6569  0.2244
   10MOL0     C 1255   7.034   8.457   9.037 -0.2334 -0.6018 -0.4081
   10MOL0     C 1256   7.088   8.439   8.895  0.4766  0.6824 -0.4510
   10MOL0     C 1257   7.230   8.492   8.881  0.7241 -0.7818 -0.2210
   10MOL0     C 1258   7.286   8.485   8.734  0.0875 -0.1199 -0.2583
   10MOL0     C 1259   7.440   8.511   8.734  0.0743 -0.1959  0.0674
   10MOL0    Cl 1260   7.463   8.680   8.789  0.5036 -0.0298  0.5642
   10MOL0     C 1261   6.505   8.349   9.465 -0.4945  0.1783  0.1454
   10MOL0     C 1262   6.366   8.340   9.491 -0.2409 -0.6311  0.1220
   10MOL0     O 1263   6.087   8.415   9.226 -0.1393 -0.0768 -0.3556
   10MOL0     C 1264   5.822   8.392   9.260 -1.0566  0.5540 -0.5144
   10MOL0     C 1265   5.685   8.363   9.285 -0.6560  0.4249  1.3483
   10MOL0     N 1266   5.149   7.817   9.444  0.1515 -0.4829 -1.2883
   10MOL0     N 1267   5.054   7.729   9.408 -0.0444 -0.2634 -0.0267
   10MOL0     C 1268   3.837   7.984   9.066 -0.5722 -0.2431  0.2037
   10MOL0     C 1269   3.719   8.050   9.090  0.1864  0.7190 -0.1621
   10MOL0     C 1270   3.334   8.190   9.243 -0.3651  1.0797 -0.1580
   10MOL0     C 1271   3.348   8.270   9.356  0.5359 -0.6221  0.4170
   10MOL0     C 1272   3.235   8.324   9.416  0.0742 -0.4067 -0.4878
   10MOL0     C 1273   3.114   8.316   9.357 -0.0163 -0.9550 -0.8053
   10MOL0     O 1274   3.013   8.384   9.424  0.3146 -0.8833 -0.0638
   10MOL0     C 1275   2.896   8.438   9.361 -0.8715  0.0468  0.8212
   10MOL0     C 1276   2.831   8.550   9.448 -0.2317 -0.6478  0.2024
   10MOL0     C 1277   2.781   8.492   9.580  0.0058  0.8047  0.2184
   10MOL0     C 1278   2.730   8.590   9.676 -0.2399 -0.4770 -1.3000
   10MOL0     C 1279   2.640   8.692   9.642 -0.8778 -0.2453  0.0271
   10MOL0     C 1280   2.576   8.799   9.633 -0.5641  0.5553  0.7115
   10MOL0     C 1281   3.095   8.239   9.241  0.6198 -0.5761  0.5766
   10MOL0     C 1282   3.200   8.173   9.182 -0.1731  0.0421  0.0073
   10MOL0     H 1283   3.752   8.097   9.423  3.5718  0.5240  0.9964
   10MOL0     H 1284   3.951   7.961   9.386 -1.1535 -0.1936 -0.1850
   10MOL0     H 1285   4.009   7.763   8.996  1.1159 -0.2435 -0.3863
   10MOL0     H 1286   4.093   7.913   8.975 -2.1771 -0.0451 -0.7329
   10MOL0     H 1287   4.209   7.681   9.144  3.0514  1.6904  1.8920
   10MOL0     H 1288   4.215   7.670   8.961  1.1044  1.4611 -1.5765
   10MOL0     H 1289   4.376   7.882   9.000  1.2152 -0.6166 -0.8063
   10MOL0     H 1290   4.332   7.853   9.171 -2.3570 -0.8327 -0.3558
   10MOL0     H 1291   4.432   7.630   9.159  0.1580  1.9053  1.7207
   10MOL0     H 1292   4.482   7.655   8.990  0.8683 -3.2643  1.6282
   10MOL0     H 1293   4.606   7.862   9.071  0.7245  0.6290 -0.3626
   10MOL0     H 1294   4.568   7.801   9.237 -1.4092 -0.5686  0.1259
   10MOL0     H 1295   4.698   7.585   9.161  2.0012 -0.9042 -1.3297
   10MOL0     H 1296   4.728   7.686   9.014 -2.9457  2.7727 -1.2224
   10MOL0     H 1297   4.903   7.690   9.161 -0.6562  1.1709 -3.8287
   10MOL0     H 1298   4.840   7.851   9.160 -0.1568 -0.7398 -1.3056
   10MOL0     H 1299   4.778   7.654   9.390 -4.4092  3.0355  3.7004
   10MOL0     H 1300   4.731   7.822   9.385  0.1653 -0.7461  0.1171
   10MOL0     H 1301   4.867   7.987   9.447  0.4136 -0.1368 -0.7104
   10MOL0     H 1302   5.107   8.137   9.560  0.9102 -0.0011 -2.9049
   10MOL0     H 1303   5.152   8.004   9.666 -0.6281 -1.3697  0.0152
   10MOL0     H 1304   5.358   7.972   9.538  3.6606  2.6556  1.4183
   10MOL0     H 1305   5.334   8.140   9.600 -2.8588  0.0283  1.8553
   10MOL0     H 1306   5.268   8.233   9.393  1.7030  0.7654 -0.8026
   10MOL0     H 1307   5.286   8.073   9.313 -2.7892 -1.3161  1.7321
   10MOL0     H 1308   5.496   8.172   9.268 -1.7291 -0.0740 -0.4665
   10MOL0     H 1309   5.527   8.098   9.430  1.5000  1.4668 -0.4566
   10MOL0     H 1310   5.681   8.245   9.596  0.1324 -2.3401 -1.3879
   10MOL0     H 1311   6.025   8.188   9.574  1.5289  1.7921  0.4053
   10MOL0     H 1312   6.019   8.349   9.632 -0.4655 -0.1400  1.0611
   10MOL0     H 1313   5.897   8.228   9.685 -2.9570  0.1952 -2.2150
   10MOL0     H 1314   6.252   8.588   9.299 -0.3761 -0.5058 -1.1762
   10MOL0     H 1315   6.497   8.606   9.231  1.7067  0.1114  0.4779
   10MOL0     H 1316   6.668   8.493   9.152 -1.3314  2.8086  1.2519
   10MOL0     H 1317   6.786   8.582   9.236  1.4654  0.2738 -1.9180
   10MOL0     H 1318   6.932   8.390   9.253  0.0469  0.1779 -1.3268
   10MOL0     H 1319   6.808   8.277   9.197  3.3768 -1.0931 -4.5857
   10MOL0     H 1320   6.821   8.474   8.995 -0.9668 -0.4182 -0.1981
   10MOL0     H 1321   6.890   8.309   8.990 -4.0499  0.1410  0.9966
   10MOL0     H 1322   7.041   8.557   9.082  0.2410 -2.1458  3.3208
   10MOL0     H 1323   7.095   8.401   9.109 -2.7426 -0.4209  2.0563
   10MOL0     H 1324   7.028   8.490   8.819  2.3977  2.7881 -0.6578
   10MOL0     H 1325   7.103   8.330   8.890  0.0114  0.4288  2.4085
   10MOL0     H 1326   7.239   8.597   8.907  3.6246 -0.5485 -1.7350
   10MOL0     H 1327   7.286   8.432   8.953  0.3816  1.9483  2.5087
   10MOL0     H 1328   7.234   8.538   8.654 -3.9648 -0.5613  1.8082
   10MOL0     H 1329   7.270   8.383   8.698  0.8608  0.3389 -2.0177
   10MOL0     H 1330   7.473   8.499   8.631 -1.1091 -0.4166 -0.2983
   10MOL0     H 1331   7.497   8.446   8.802  3.6033  3.2346  0.7250
   10MOL0     H 1332   6.576   8.294   9.526 -0.4501  0.4379  0.3310
   10MOL0     H 1333   6.328   8.286   9.577 -2.4935  0.3384 -0.1876
   10MOL0     H 1334   5.853   8.431   9.164 -1.6505  2.7908  0.1522
   10MOL0     H 1335   5.611   8.396   9.213 -1.6220  0.1110  2.1780
   10MOL0     H 1336   3.863   7.957   8.964 -1.4963  0.1002 -0.1301
   10MOL0     H 1337   3.650   8.063   9.008  1.6031 -2.8427 -2.1353
   10MOL0     H 1338   3.439   8.295   9.408 -0.9391  2.0871  1.9381
   10MOL0     H 1339   3.233   8.387   9.505 -4.5926 -1.0144  0.0982
   10MOL0     H 1340   2.914   8.473   9.259 -1.3273 -1.8096  0.0596
   10MOL0     H 1341   2.831   8.351   9.351 -0.1968 -0.3783 -0.0714
   10MOL0     H 1342   2.745   8.590   9.393  0.1379  2.4508  1.6661
   10MOL0     H 1343   2.898   8.636   9.461 -0.7796  0.3077 -2.6258
   10MOL0     H 1344   2.862   8.437   9.630 -2.8017  0.0560  4.4962
   10MOL0     H 1345   2.699   8.422   9.560  1.0524  0.4091 -3.4648
   10MOL0     H 1346   2.818   8.642   9.716 -1.0025 -1.0196  1.3177
   10MOL0     H 1347   2.687   8.538   9.763 -0.5921  2.5105  0.4646
   10MOL0     H 1348   2.517   8.888   9.635  0.2869  1.3424 -2.7274
   10MOL0     H 1349   2.997   8.221   9.198  0.3128  0.1957  0.9331
   10MOL0     H 1350   3.185   8.103   9.101 -2.0042  2.4843 -1.9097
   11MOL0     O 1351   2.449   2.526   3.856 -0.4479 -0.7114  0.0758
   11MOL0     C 1352   2.419   2.611   3.939 -0.4182 -0.3117  1.1601
   11MOL0     O 1353   2.485   2.735   3.959 -0.2208 -0.0272  0.0034
   11MOL0     C 1354   2.616   2.739   3.929 -1.1333  0.2262  0.7672
   11MOL0     C 1355   2.670   2.823   3.828  0.6059 -0.4773  0.0380
   11MOL0     C 1356   2.805   2.824   3.809  0.3472 -0.5951 -1.0677
   11MOL0     C 1357   2.886   2.749   3.895  0.4836 -0.5822  0.4864
   11MOL0     O 1358   3.018   2.769   3.871 -0.0260  0.3208 -0.3263
   11MOL0     C 1359   3.125   2.700   3.944  0.5011  0.1372 -0.5117
   11MOL0     C 1360   3.272   2.746   3.905  0.5533 -0.5257  0.6282
   11MOL0     C 1361   3.299   2.893   3.910  0.2752 -0.3915  0.1798
   11MOL0     C 1362   3.435   2.926   3.838  0.3813 -0.2160 -0.7689
   11MOL0     C 1363   3.456   3.086   3.824  0.2902 -0.7011  0.8772
   11MOL0     C 1364   3.600   3.109   3.792 -0.1587  0.5160 -0.2964
   11MOL0     C 1365   3.663   3.250   3.815  0.5961 -0.0586 -0.3079
   11MOL0     C 1366   3.624   3.346   3.709  0.3230  0.3975 -0.3595
   11MOL0     N 1367   3.675   3.306   3.584  0.3324 -0.9582  0.0899
   11MOL0     C 1368   3.799   3.297   3.531  0.1169  0.8224 -0.9533
   11MOL0     C 1369   3.788   3.291   3.399  0.2843  0.9844 -0.2068
   11MOL0     C 1370   3.897   3.287   3.287 -0.2630  0.3414 -0.9429
   11MOL0     C 1371   3.971   3.424   3.286  0.1300 -0.3638  1.2310
   11MOL0     C 1372   4.096   3.424   3.206  0.0003 -0.6559 -0.9202
   11MOL0     C 1373   4.204   3.521   3.256  0.0763  0.4024  0.5474
   11MOL0     O 1374   4.296   3.531   3.144  0.2667  0.3825  0.1976
   11MOL0     C 1375   4.413   3.601   3.154 -0.1766  0.3515 -0.1392
   11MOL0     C 1376   4.480   3.622   3.033 -0.8524  0.5039 -0.3969
   11MOL0     C 1377   4.593   3.703   3.023  0.0861 -0.2158 -0.3486
   11MOL0     C 1378   4.667   3.719   2.881 -0.0644 -0.2570 -0.0790
   11MOL0     C 1379   4.641   3.758   3.138  0.5916 -0.6681 -0.1030
   11MOL0     C 1380   4.767   3.841   3.144  0.6752 -0.4837  0.1654
   11MOL0     O 1381   4.768   3.925   3.251 -0.0345  0.4975 -0.5332
   11MOL0     C 1382   4.879   4.016   3.260 -0.0302 -0.0159 -0.4523
   11MOL0     C 1383   4.921   4.093   3.154  0.2864 -0.2028 -0.0827
   11MOL0     C 1384   5.027   4.182   3.161 -0.0771 -0.8326  0.5979
   11MOL0     C 1385   5.096   4.186   3.276 -0.0426 -0.6155 -0.0459
   11MOL0     O 1386   5.179   4.284   3.315 -0.9089 -0.9369 -0.2055
   11MOL0     C 1387   5.279   4.331   3.216  1.0185  0.5350 -0.1149
   11MOL0     C 1388   5.372   4.421   3.277 -0.7898 -0.3662 -0.0301
   11MOL0     C 1389   5.458   4.348   3.388  0.5085 -0.3186 -0.2820
   11MOL0     C 1390   5.570   4.443   3.452  0.8204  0.4652  0.2345
   11MOL0     C 1391   5.715   4.392   3.403  0.1865 -0.4105  0.5925
   11MOL0     C 1392   5.825   4.481   3.460  0.2031  0.2395  0.0526
   11MOL0     C 1393   5.959   4.410   3.428 -0.2909 -0.4058  0.4843
   11MOL0     C 1394   6.072   4.493   3.472 -0.5154  0.8242 -0.2701
   11MOL0    Cl 1395   6.037   4.542   3.639  0.0824 -0.1239 -0.0811
   11MOL0     C 1396   5.060   4.116   3.388  0.4385 -0.2039 -0.5301
   11MOL0     C 1397   4.952   4.025   3.380  0.7602 -0.1029 -0.1948
   11MOL0     O 1398   4.860   3.819   3.063  0.3477  0.1456 -0.2136
   11MOL0     C 1399   4.572   3.733   3.266 -0.3701 -1.3698  0.1518
   11MOL0     C 1400   4.455   3.665   3.266 -0.0960 -0.6626  0.0676
   11MOL0     N 1401   3.656   3.273   3.377  0.3328 -0.0812  0.4300
   11MOL0     N 1402   3.594   3.264   3.488 -0.0168 -0.9587 -0.3881
   11MOL0     C 1403   2.839   2.669   3.991  0.2164  0.6634 -0.4076
   11MOL0     C 1404   2.696   2.646   3.998 -0.0141 -0.0182 -0.1026
   11MOL0     C 1405   2.300   2.583   4.014  0.2941 -0.5669  0.1689
   11MOL0     C 1406   2.243   2.679   4.101  0.4369  0.2302 -0.3849
   11MOL0     C 1407   2.134   2.652   4.178 -0.2465  0.1627 -0.1032
   11MOL0     C 1408   2.060   2.537   4.151  1.2969 -0.3042  0.8608
   11MOL0     O 1409   1.944   2.523   4.228  1.3618 -0.0264  0.0013
   11MOL0     C 1410   1.909   2.392   4.251  0.2768 -0.4261  1.0592
   11MOL0     C 1411   1.805   2.405   4.363 -0.2517 -0.8175  0.0122
   11MOL0     C 1412   1.848   2.471   4.493 -0.1245 -0.0306  0.3646
   11MOL0     C 1413   1.735   2.539   4.559  0.0273  0.7922 -0.8659
   11MOL0     C 1414   1.644   2.443   4.632  0.0947 -0.3579 -0.0508
   11MOL0     C 1415   1.553   2.388   4.690 -0.4199 -0.2820  0.0937
   11MOL0     C 1416   2.115   2.441   4.067  0.0015  0.4723  0.2997
   11MOL0     C 1417   2.230   2.463   3.997 -0.1261 -0.7805 -0.3666
   11MOL0     H 1418   2.593   2.879   3.776  1.2295 -1.1073 -1.6558
   11MOL0     H 1419   2.845   2.894   3.736  0.4838  0.0996 -0.3503
   11MOL0     H 1420   3.107   2.718   4.050  0.4058  1.2257 -0.6973
   11MOL0     H 1421   3.115   2.591   3.943 -0.1304  0.1852  0.1830
   11MOL0     H 1422   3.345   2.685   3.959  0.7581 -2.7698 -1.9373
   11MOL0     H 1423   3.285   2.724   3.798 -1.5681 -1.3640  0.4960
   11MOL0     H 1424   3.213   2.948   3.871 -0.9928 -0.5982  2.5175
   11MOL0     H 1425   3.305   2.915   4.017  2.2447 -2.6596  0.6223
   11MOL0     H 1426   3.513   2.883   3.900 -0.9816 -0.3286  0.9253
   11MOL0     H 1427   3.446   2.884   3.737  0.8202  1.3008 -1.3861
   11MOL0     H 1428   3.397   3.110   3.734  1.7207 -1.9233 -0.4510
   11MOL0     H 1429   3.421   3.144   3.910 -0.5075 -0.7254  0.5792
   11MOL0     H 1430   3.648   3.040   3.862 -1.6740 -0.8972 -0.5967
   11MOL0     H 1431   3.625   3.058   3.699  1.5014 -2.4907  1.6653
   11MOL0     H 1432   3.622   3.293   3.907 -1.2400  0.5967 -1.3599
   11MOL0     H 1433   3.771   3.236   3.820  0.5721  0.1378  2.0888
   11MOL0     H 1434   3.681   3.436   3.736  0.2555  0.4032 -0.2384
   11MOL0     H 1435   3.515   3.349   3.706  0.1745 -1.8640  0.6705
   11MOL0     H 1436   3.894   3.303   3.583  1.9196 -0.6785 -3.7541
   11MOL0     H 1437   3.968   3.208   3.312  0.4407  1.2565  0.0543
   11MOL0     H 1438   3.858   3.270   3.186  4.1614 -0.3292 -2.7519
   11MOL0     H 1439   3.994   3.426   3.393 -0.6078 -2.4774  1.4814
   11MOL0     H 1440   3.899   3.502   3.258  0.7119 -0.4607 -0.6705
   11MOL0     H 1441   4.075   3.448   3.101  3.2193  3.1641 -0.9365
   11MOL0     H 1442   4.143   3.325   3.205 -0.4495 -0.9406  1.4409
   11MOL0     H 1443   4.247   3.481   3.348  0.7978 -0.1843 -0.0347
   11MOL0     H 1444   4.161   3.620   3.276  1.4606  1.5779 -1.8365
   11MOL0     H 1445   4.449   3.576   2.939  0.1720  1.0175 -0.9979
   11MOL0     H 1446   4.631   3.644   2.810  1.2759 -1.2509  0.2474
   11MOL0     H 1447   4.650   3.819   2.841 -1.1337 -0.5233 -0.3333
   11MOL0     H 1448   4.771   3.689   2.898 -0.5658 -0.4673  3.4110
   11MOL0     H 1449   4.875   4.095   3.056  1.2535  0.7572 -0.5440
   11MOL0     H 1450   5.037   4.258   3.084 -1.5977 -0.2790  0.9252
   11MOL0     H 1451   5.340   4.246   3.184  1.6655  0.0307  2.2357
   11MOL0     H 1452   5.223   4.367   3.129 -0.7459  0.2789  0.8626
   11MOL0     H 1453   5.435   4.474   3.205 -0.5019 -2.3016 -1.2738
   11MOL0     H 1454   5.311   4.501   3.321 -1.4628 -1.7527  1.6650
   11MOL0     H 1455   5.507   4.262   3.340  0.6170  0.1052 -0.9443
   11MOL0     H 1456   5.400   4.313   3.473  1.5886  0.5315  0.8474
   11MOL0     H 1457   5.563   4.545   3.413  2.6102  0.1029 -1.1509
   11MOL0     H 1458   5.568   4.453   3.561  0.3403  1.3897  0.1521
   11MOL0     H 1459   5.726   4.401   3.294  0.6959 -0.1411  0.6668
   11MOL0     H 1460   5.724   4.287   3.433 -1.4571 -1.1835 -1.3222
   11MOL0     H 1461   5.828   4.579   3.410  2.1873 -0.6570 -1.7510
   11MOL0     H 1462   5.802   4.480   3.567 -0.5852 -1.2625 -0.1214
   11MOL0     H 1463   5.967   4.404   3.319  0.3599  0.5412  0.4688
   11MOL0     H 1464   5.957   4.311   3.475  1.3731 -1.2382 -1.0301
   11MOL0     H 1465   6.072   4.580   3.405 -1.7218  0.2599 -1.0396
   11MOL0     H 1466   6.171   4.450   3.456 -1.0184 -0.9321  1.0377
   11MOL0     H 1467   5.111   4.120   3.483 -1.1905 -0.0155  0.3745
   11MOL0     H 1468   4.917   3.957   3.457 -1.2873  0.2635 -0.7408
   11MOL0     H 1469   4.613   3.776   3.357 -1.9892 -2.4324  1.4682
   11MOL0     H 1470   4.398   3.653   3.358  1.5386 -2.8113  0.8924
   11MOL0     H 1471   2.916   2.628   4.056 -2.4759  0.6817  3.1066
   11MOL0     H 1472   2.665   2.564   4.062 -1.0066 -0.4471 -1.1040
   11MOL0     H 1473   2.294   2.774   4.115  2.3371 -0.9309  1.0071
   11MOL0     H 1474   2.104   2.729   4.247  0.2406 -0.4941  0.8590
   11MOL0     H 1475   1.867   2.345   4.161  2.9171 -1.6818  0.3924
   11MOL0     H 1476   1.991   2.328   4.284  0.9378 -0.2761 -0.2484
   11MOL0     H 1477   1.770   2.301   4.372 -2.3029 -0.1482  0.3064
   11MOL0     H 1478   1.720   2.466   4.330  0.6878  1.3866  1.4392
   11MOL0     H 1479   1.918   2.551   4.469 -0.4587  0.2034  0.1633
   11MOL0     H 1480   1.900   2.403   4.562 -1.4215 -1.3449  0.1043
   11MOL0     H 1481   1.669   2.593   4.492 -0.5205  2.6604  1.0690
   11MOL0     H 1482   1.780   2.604   4.635  0.0338 -0.6696  0.4432
   11MOL0     H 1483   1.469   2.349   4.744 -0.6347 -0.9806 -0.7303
   11MOL0     H 1484   2.072   2.343   4.052  1.4602  0.0301 -1.3945
   11MOL0     H 1485   2.259   2.381   3.931 -0.3002 -2.0105  1.0228
   12MOL0     O 1486   0.099   1.238  11.293 -0.2932  0.2516 -0.5409
   12MOL0     C 1487   0.075   1.209  11.175  0.2095 -0.7387 -0.8887
   12MOL0     O 1488  -0.041   1.169  11.131  0.8531 -0.4646  0.2767
   12MOL0     C 1489  -0.144   1.174  11.212  0.4112  0.2239 -0.3156
   12MOL0     C 1490  -0.181   1.079  11.306 -0.2587 -0.2491  0.3441
   12MOL0     C 1491  -0.299   1.107  11.382 -0.1903  0.7423  0.2274
   12MOL0     C 1492  -0.374   1.223  11.365  1.1110  0.1710 -0.4163
   12MOL0     O 1493  -0.469   1.242  11.461  0.3192  0.0269 -0.4680
   12MOL0     C 1494  -0.535   1.369  11.473 -0.2624  0.3722  0.4174
   12MOL0     C 1495  -0.653   1.339  11.560 -0.1458  0.2588 -0.1579
   12MOL0     C 1496  -0.615   1.337  11.712  0.0355 -0.2547 -0.2198
   12MOL0     C 1497  -0.742   1.354  11.800  0.9584 -0.0616  0.6291
   12MOL0     C 1498  -0.709   1.340  11.941 -0.9067  0.2132 -1.4888
   12MOL0     C 1499  -0.628   1.456  11.995 -0.5062 -0.7596 -0.1844
   12MOL0     C 1500  -0.645   1.474  12.152 -0.0051  1.3660 -0.7458
   12MOL0     C 1501  -0.611   1.348  12.233 -0.3117  0.9169 -0.8990
   12MOL0     N 1502  -0.713   1.248  12.269 -0.0034 -0.3818 -0.3043
   12MOL0     C 1503  -0.817   1.284  12.351  0.1004  0.3659 -0.0726
   12MOL0     C 1504  -0.883   1.165  12.376  0.1630 -0.4836 -0.1834
   12MOL0     C 1505  -1.011   1.150  12.457  0.3062 -0.6594  0.6690
   12MOL0     C 1506  -1.137   1.153  12.370  0.2353 -0.6014  1.0681
   12MOL0     C 1507  -1.272   1.152  12.437  0.2561  0.6960 -0.1210
   12MOL0     C 1508  -1.378   1.179  12.336 -1.0796 -0.3796 -0.2410
   12MOL0     O 1509  -1.365   1.305  12.275  0.0225 -0.7021 -0.3880
   12MOL0     C 1510  -1.464   1.323  12.185  0.4567  0.3239 -0.5693
   12MOL0     C 1511  -1.602   1.322  12.221  0.5761  0.5593  0.3716
   12MOL0     C 1512  -1.701   1.342  12.118 -0.0077 -0.4845  0.1981
   12MOL0     C 1513  -1.844   1.328  12.162 -0.1343 -0.4901 -0.3160
   12MOL0     C 1514  -1.658   1.358  11.983 -0.7372  0.0405  0.3736
   12MOL0     C 1515  -1.745   1.382  11.870 -0.1071 -0.2810  1.1019
   12MOL0     O 1516  -1.873   1.321  11.880 -0.9272 -0.9170  0.4345
   12MOL0     C 1517  -1.959   1.336  11.775  0.6179  0.3059  0.6581
   12MOL0     C 1518  -2.064   1.433  11.773  1.1964 -0.5599  0.7830
   12MOL0     C 1519  -2.159   1.452  11.665 -0.5900 -0.5923 -0.7366
   12MOL0     C 1520  -2.146   1.377  11.546 -0.9590 -0.1432  0.5687
   12MOL0     O 1521  -2.230   1.398  11.436 -0.0052 -0.6027  0.1374
   12MOL0     C 1522  -2.372   1.399  11.475  0.1789 -0.7049 -0.2225
   12MOL0     C 1523  -2.465   1.382  11.357  0.1068  0.3131  0.3594
   12MOL0     C 1524  -2.503   1.232  11.335 -0.0198  0.7206 -0.2426
   12MOL0     C 1525  -2.378   1.153  11.287 -0.0667  0.6417  1.1454
   12MOL0     C 1526  -2.431   1.016  11.226  0.1078  0.0550 -0.8465
   12MOL0     C 1527  -2.504   0.923  11.321 -0.3850 -0.1414 -0.6869
   12MOL0     C 1528  -2.559   0.803  11.248  0.4115  0.1610  1.0526
   12MOL0     C 1529  -2.624   0.702  11.345 -0.2871 -0.2391  0.0631
   12MOL0    Cl 1530  -2.729   0.584  11.281  0.2590  0.1170  0.0171
   12MOL0     C 1531  -2.042   1.274  11.542 -0.3611 -0.0122 -0.2493
   12MOL0     C 1532  -1.957   1.259  11.653 -0.9703 -0.3274  0.0360
   12MOL0     O 1533  -1.694   1.438  11.772  0.5243 -0.9628 -0.8366
   12MOL0     C 1534  -1.522   1.362  11.955  0.2422  0.1859 -0.5178
   12MOL0     C 1535  -1.432   1.353  12.061  0.0795 -0.7075 -0.0932
   12MOL0     N 1536  -0.823   1.065  12.296 -0.2811 -0.7611  0.7625
   12MOL0     N 1537  -0.725   1.114  12.227 -0.5287 -0.1388  0.1003
   12MOL0     C 1538  -0.346   1.314  11.261 -0.5827  0.2143 -0.5521
   12MOL0     C 1539  -0.225   1.294  11.186  0.1301  0.1127 -0.5870
   12MOL0     C 1540   0.183   1.211  11.081 -0.6408  0.3085  0.1266
   12MOL0     C 1541   0.184   1.157  10.951  0.4278  0.0381 -0.5373
   12MOL0     C 1542   0.291   1.161  10.859 -1.4990  0.2332  0.3497
   12MOL0     C 1543   0.408   1.230  10.891 -0.0470  0.6071 -0.2022
   12MOL0     O 1544   0.504   1.244  10.796  0.0928 -0.3834 -0.0389
   12MOL0     C 1545   0.593   1.350  10.818 -0.0007  0.9018  0.2271
   12MOL0     C 1546   0.684   1.375  10.699 -0.0367  0.0829 -0.0246
   12MOL0     C 1547   0.744   1.243  10.653 -0.7865 -0.7100 -0.2864
   12MOL0     C 1548   0.834   1.170  10.749 -0.8957 -0.7404  0.5600
   12MOL0     C 1549   0.753   1.096  10.847  0.0269  0.1972 -0.2211
   12MOL0     C 1550   0.694   1.044  10.938  0.5896 -0.6753  0.9384
   12MOL0     C 1551   0.419   1.270  11.025 -0.6564  0.6694  0.7910
   12MOL0     C 1552   0.315   1.260  11.119  0.0448  0.2975  0.4270
   12MOL0     H 1553  -0.115   0.998  11.335  1.7214  1.1186 -0.1444
   12MOL0     H 1554  -0.325   1.036  11.459 -0.0331 -1.9541 -2.0491
   12MOL0     H 1555  -0.468   1.437  11.526 -0.0331  0.4393  0.0378
   12MOL0     H 1556  -0.576   1.404  11.378 -3.7440 -1.1755  1.1955
   12MOL0     H 1557  -0.718   1.426  11.544 -1.3359 -1.0125 -2.8926
   12MOL0     H 1558  -0.702   1.243  11.539 -1.1860  0.9756 -1.1777
   12MOL0     H 1559  -0.580   1.234  11.719 -1.8670 -0.8591  1.4776
   12MOL0     H 1560  -0.539   1.414  11.732  3.5484 -2.8941 -2.2690
   12MOL0     H 1561  -0.785   1.449  11.766 -1.1830 -0.5919  1.7141
   12MOL0     H 1562  -0.812   1.272  11.783  2.7610 -1.2279 -1.7796
   12MOL0     H 1563  -0.799   1.328  12.001 -0.9217 -1.0503 -1.7487
   12MOL0     H 1564  -0.644   1.253  11.955 -1.3656  0.0457 -0.3209
   12MOL0     H 1565  -0.520   1.462  11.975 -0.3178  0.5945  1.0090
   12MOL0     H 1566  -0.677   1.543  11.951 -1.1381 -1.1412 -0.2392
   12MOL0     H 1567  -0.572   1.549  12.183  0.5914 -0.0747  1.5442
   12MOL0     H 1568  -0.742   1.513  12.182 -1.0134 -1.4352 -0.1133
   12MOL0     H 1569  -0.592   1.376  12.337 -2.1497 -0.9221 -0.0147
   12MOL0     H 1570  -0.516   1.303  12.201  0.0418 -0.7768  2.1850
   12MOL0     H 1571  -0.843   1.383  12.388  0.9706  1.1611 -1.4936
   12MOL0     H 1572  -1.004   1.056  12.512 -1.2670 -1.0684  0.2073
   12MOL0     H 1573  -1.020   1.230  12.530  0.0866 -0.0147 -0.0501
   12MOL0     H 1574  -1.142   1.069  12.300 -2.5457  1.5719 -1.6172
   12MOL0     H 1575  -1.136   1.247  12.315 -1.1120 -2.1408 -1.7804
   12MOL0     H 1576  -1.264   1.230  12.513 -1.6467  0.3401  0.4987
   12MOL0     H 1577  -1.289   1.053  12.481  1.0361 -0.1674 -1.6759
   12MOL0     H 1578  -1.476   1.183  12.385 -3.8379  4.4328 -5.0503
   12MOL0     H 1579  -1.381   1.093  12.269 -0.7088 -0.2594 -0.4121
   12MOL0     H 1580  -1.634   1.299  12.322 -0.1147 -0.1967 -0.0101
   12MOL0     H 1581  -1.865   1.342  12.269  0.8576 -0.7417 -0.0828
   12MOL0     H 1582  -1.908   1.403  12.113  4.5914  3.5444 -1.1117
   12MOL0     H 1583  -1.872   1.224  12.145 -0.6247 -0.2583 -0.9839
   12MOL0     H 1584  -2.061   1.489  11.866  1.7003  0.6557  0.0674
   12MOL0     H 1585  -2.236   1.524  11.692 -0.2743  0.0808 -1.5665
   12MOL0     H 1586  -2.387   1.317  11.546  1.3566 -1.5340 -0.8929
   12MOL0     H 1587  -2.396   1.495  11.521 -0.4111 -0.5320 -0.8592
   12MOL0     H 1588  -2.560   1.434  11.374 -1.1430 -0.6069 -2.9177
   12MOL0     H 1589  -2.419   1.412  11.263 -0.7812  0.0503 -0.1682
   12MOL0     H 1590  -2.572   1.218  11.251  1.9593  0.4637 -1.9314
   12MOL0     H 1591  -2.542   1.193  11.429  2.0097  0.8550  0.6943
   12MOL0     H 1592  -2.322   1.206  11.209 -1.8657 -0.2049 -0.8422
   12MOL0     H 1593  -2.309   1.137  11.370  1.4814  0.1187 -0.1760
   12MOL0     H 1594  -2.349   0.965  11.174  1.9417 -0.2285  2.1048
   12MOL0     H 1595  -2.500   1.046  11.147 -0.2612 -0.5174 -0.7475
   12MOL0     H 1596  -2.433   0.906  11.402  1.1744  6.0899 -0.3053
   12MOL0     H 1597  -2.588   0.971  11.372  1.7134  2.5468  0.4565
   12MOL0     H 1598  -2.481   0.751  11.192 -0.4269  0.1324 -0.1211
   12MOL0     H 1599  -2.639   0.833  11.180  3.5986  2.3750 -2.0554
   12MOL0     H 1600  -2.677   0.755  11.425  2.8573  0.8098  1.6399
   12MOL0     H 1601  -2.551   0.641  11.398 -2.3520 -0.8264  2.4207
   12MOL0     H 1602  -2.012   1.232  11.447 -1.2368  3.2597 -2.1236
   12MOL0     H 1603  -1.878   1.187  11.633 -0.9380 -0.0136 -0.9922
   12MOL0     H 1604  -1.489   1.369  11.851 -5.1329 -0.9423 -2.6349
   12MOL0     H 1605  -1.325   1.361  12.046  0.1089  1.1761  0.9142
   12MOL0     H 1606  -0.414   1.396  11.245 -3.6450 -1.4568  2.4768
   12MOL0     H 1607  -0.186   1.370  11.119 -2.9601  0.5001 -2.0815
   12MOL0     H 1608   0.094   1.106  10.916 -1.2782  2.5086  0.0111
   12MOL0     H 1609   0.290   1.127  10.756  1.7899  1.5384 -0.2445
   12MOL0     H 1610   0.533   1.440  10.833 -0.2446  1.1202 -1.7999
   12MOL0     H 1611   0.655   1.322  10.904 -1.0940 -2.2612  0.1390
   12MOL0     H 1612   0.762   1.447  10.726  0.1435 -0.3611  0.6490
   12MOL0     H 1613   0.631   1.427  10.619 -0.5854  0.2336  0.4382
   12MOL0     H 1614   0.808   1.262  10.566 -1.6132  2.4631 -0.3047
   12MOL0     H 1615   0.662   1.181  10.615 -0.5679 -1.9147  1.1002
   12MOL0     H 1616   0.905   1.237  10.799  0.6937  0.2738 -2.7738
   12MOL0     H 1617   0.895   1.091  10.704 -0.0799 -0.7054  1.5471
   12MOL0     H 1618   0.651   1.003  11.027  0.0419 -1.6146  0.2577
   12MOL0     H 1619   0.515   1.302  11.066 -1.3192 -1.5941  4.5737
   12MOL0     H 1620   0.337   1.291  11.221 -0.0784 -1.2010  0.9348
   13MOL0     O 1621   4.131   1.689   3.933 -0.0784 -0.9182 -0.2104
   13MOL0     C 1622   4.174   1.715   4.045  0.5326  0.2085  0.4662
   13MOL0     O 1623   4.098   1.749   4.148  0.3636 -0.0327 -0.3395
   13MOL0     C 1624   3.960   1.748   4.128  0.0266  0.1107 -0.6291
   13MOL0     C 1625   3.899   1.866   4.077  0.4698 -0.0785 -0.5629
   13MOL0     C 1626   3.755   1.862   4.060 -0.8935  0.5581 -0.5760
   13MOL0     C 1627   3.666   1.757   4.100  0.4857  0.4820  0.5358
   13MOL0     O 1628   3.530   1.787   4.094  0.2665  0.1619 -0.3729
   13MOL0     C 1629   3.445   1.675   4.089 -0.4155  0.0942 -0.1236
   13MOL0     C 1630   3.303   1.729   4.084 -0.4107 -0.3098 -0.5054
   13MOL0     C 1631   3.212   1.611   4.080  0.7379  0.1682 -0.7468
   13MOL0     C 1632   3.075   1.641   4.023  0.5826 -0.5174  1.0927
   13MOL0     C 1633   2.963   1.545   4.065  0.3398 -0.3605 -0.5086
   13MOL0     C 1634   2.825   1.579   4.015  0.3101  0.3071 -0.6687
   13MOL0     C 1635   2.715   1.479   4.078 -0.5602 -0.2379 -0.3896
   13MOL0     C 1636   2.578   1.493   4.015  0.4482  0.3105  0.4711
   13MOL0     N 1637   2.514   1.621   3.987 -0.4827  0.0821 -0.3588
   13MOL0     C 1638   2.501   1.732   4.069 -0.4210 -0.1339 -0.0160
   13MOL0     C 1639   2.468   1.829   3.988  0.8549 -0.5206 -0.1742
   13MOL0     C 1640   2.430   1.967   4.039  0.4997  0.0500  0.3637
   13MOL0     C 1641   2.289   2.010   3.995 -0.5247  0.0083  0.1237
   13MOL0     C 1642   2.182   1.916   4.055 -0.0891 -0.5283 -0.7056
   13MOL0     C 1643   2.043   1.982   4.032  0.2623 -0.2547  0.4368
   13MOL0     O 1644   1.993   2.047   4.148  0.0618 -0.4911 -0.5794
   13MOL0     C 1645   1.856   2.058   4.158 -0.2755 -0.3964  0.2714
   13MOL0     C 1646   1.797   2.039   4.283 -0.6506  0.3704 -0.0817
   13MOL0     C 1647   1.660   2.054   4.300 -0.4148 -0.5716  0.0416
   13MOL0     C 1648   1.599   2.048   4.442 -0.5320 -0.2157 -0.9593
   13MOL0     C 1649   1.577   2.095   4.193 -0.2986  0.1595  0.3347
   13MOL0     C 1650   1.425   2.110   4.189  0.4375 -0.2916  0.5139
   13MOL0     O 1651   1.367   2.117   4.311  0.3599  0.3545  0.6355
   13MOL0     C 1652   1.227   2.109   4.300 -0.6392 -0.2683  0.3734
   13MOL0     C 1653   1.158   2.229   4.309 -0.9114  0.3537 -0.0978
   13MOL0     C 1654   1.020   2.229   4.338 -0.0869 -0.1353 -0.0236
   13MOL0     C 1655   0.941   2.117   4.330  0.2178  0.5151  0.0816
   13MOL0     O 1656   0.810   2.141   4.355  0.0465  0.6339 -0.0006
   13MOL0     C 1657   0.734   2.022   4.375 -0.5217 -0.1562  0.9089
   13MOL0     C 1658   0.584   2.058   4.413 -0.0588 -0.4293  0.7296
   13MOL0     C 1659   0.516   2.154   4.309 -0.9335 -0.0763 -0.0189
   13MOL0     C 1660   0.390   2.221   4.373 -0.5365 -0.2133 -0.0256
   13MOL0     C 1661   0.347   2.345   4.278 -0.6937 -0.2842  0.5352
   13MOL0     C 1662   0.235   2.432   4.332  0.2748  0.6066 -0.2447
   13MOL0     C 1663   0.177   2.537   4.244 -0.2998 -0.9150  1.0038
   13MOL0     C 1664   0.096   2.469   4.129  0.7454 -1.6648  0.0657
   13MOL0    Cl 1665   0.030   2.608   4.039  0.4913 -0.1533 -0.3678
   13MOL0     C 1666   1.012   1.997   4.325  0.0736 -1.0488  0.8642
   13MOL0     C 1667   1.154   1.989   4.303 -0.0816 -0.1107 -1.0264
   13MOL0     O 1668   1.370   2.091   4.080 -0.0804 -1.0473 -0.0424
   13MOL0     C 1669   1.644   2.126   4.065 -0.3003 -0.5882  0.2636
   13MOL0     C 1670   1.779   2.098   4.052 -0.4115 -0.2111  0.0284
   13MOL0     N 1671   2.450   1.783   3.861 -0.0331 -0.0481  0.2174
   13MOL0     N 1672   2.483   1.657   3.861  0.0132  0.8611  0.9527
   13MOL0     C 1673   3.735   1.644   4.149  0.3245 -0.0407 -0.4466
   13MOL0     C 1674   3.877   1.638   4.168  0.4455 -0.7909 -0.0177
   13MOL0     C 1675   4.321   1.741   4.063  0.8991  0.5485 -0.0981
   13MOL0     C 1676   4.381   1.796   4.187  0.4044  0.7104  0.2380
   13MOL0     C 1677   4.519   1.802   4.194 -0.5740  0.4999 -0.8717
   13MOL0     C 1678   4.606   1.746   4.098  0.0410 -0.8436 -0.9832
   13MOL0     O 1679   4.737   1.765   4.115  0.1111  0.1066  0.4509
   13MOL0     C 1680   4.833   1.710   4.024 -0.5365  0.1118 -0.5219
   13MOL0     C 1681   4.970   1.790   4.039 -0.2255  0.3309 -0.8002
   13MOL0     C 1682   5.110   1.727   3.983 -0.0718 -0.3864 -0.5573
   13MOL0     C 1683   5.236   1.808   4.005  0.1148 -1.2092 -0.6650
   13MOL0     C 1684   5.279   1.846   4.148 -0.8094 -1.3125 -0.1395
   13MOL0     C 1685   5.317   1.878   4.258 -0.1050 -0.0103 -0.3200
   13MOL0     C 1686   4.546   1.700   3.980  0.1659  0.1634  0.8234
   13MOL0     C 1687   4.408   1.696   3.963 -0.4612  0.0990  0.2729
   13MOL0     H 1688   3.952   1.960   4.065  1.2221 -0.7688 -3.4660
   13MOL0     H 1689   3.702   1.949   4.021 -2.3072 -1.4077 -3.3676
   13MOL0     H 1690   3.468   1.624   3.995 -1.3017  1.1567 -0.9471
   13MOL0     H 1691   3.451   1.614   4.180 -0.2908  0.5694  0.1924
   13MOL0     H 1692   3.282   1.786   4.175  0.1874 -1.9404  0.7004
   13MOL0     H 1693   3.290   1.796   3.998  1.1029  0.9639  0.2127
   13MOL0     H 1694   3.252   1.543   4.004  1.6169  2.0799 -2.0571
   13MOL0     H 1695   3.197   1.548   4.168  2.5670 -0.6145 -0.9532
   13MOL0     H 1696   3.036   1.737   4.060 -0.2508 -0.3951 -0.0492
   13MOL0     H 1697   3.074   1.652   3.914  0.8706  0.9154  1.2091
   13MOL0     H 1698   2.982   1.447   4.019 -3.9031 -2.1602  0.9540
   13MOL0     H 1699   2.957   1.544   4.174 -1.8984  1.4058 -0.5230
   13MOL0     H 1700   2.795   1.681   4.039 -2.1466 -0.6701  0.7598
   13MOL0     H 1701   2.827   1.575   3.905 -0.0449 -0.4483 -0.6524
   13MOL0     H 1702   2.738   1.372   4.085  2.6516  0.4546  3.1543
   13MOL0     H 1703   2.715   1.516   4.181  1.0516  1.3471 -0.8850
   13MOL0     H 1704   2.526   1.451   4.102  2.0098 -0.8607  0.8828
   13MOL0     H 1705   2.564   1.423   3.933 -0.7696  2.3554 -1.1843
   13MOL0     H 1706   2.509   1.757   4.174  0.8010 -0.3295 -0.0484
   13MOL0     H 1707   2.435   1.976   4.148  1.3402  0.8304  0.2711
   13MOL0     H 1708   2.499   2.038   3.993 -0.4594  0.7557 -0.0281
   13MOL0     H 1709   2.284   1.996   3.887  0.9687 -0.5225  0.0871
   13MOL0     H 1710   2.267   2.114   4.020 -2.0356 -0.7032  1.9744
   13MOL0     H 1711   2.198   1.897   4.161  1.4008 -1.4533 -1.0603
   13MOL0     H 1712   2.174   1.814   4.017 -1.9485 -0.6325 -0.1093
   13MOL0     H 1713   1.970   1.903   4.010 -1.6176  0.3931  3.6750
   13MOL0     H 1714   2.043   2.058   3.953 -1.1005 -0.1637  0.5042
   13MOL0     H 1715   1.848   1.987   4.363  1.9869 -1.8675 -2.9443
   13MOL0     H 1716   1.576   2.150   4.475 -1.9176  0.4533 -3.6905
   13MOL0     H 1717   1.504   1.994   4.440  0.9985 -3.3104  1.2265
   13MOL0     H 1718   1.663   1.996   4.514 -0.8336  0.5961 -0.0970
   13MOL0     H 1719   1.217   2.321   4.314  1.6629 -1.0598 -1.9265
   13MOL0     H 1720   0.983   2.330   4.355 -2.3321 -1.0381  0.6970
   13MOL0     H 1721   0.713   1.967   4.283 -0.3755  0.5204  0.4597
   13MOL0     H 1722   0.777   1.947   4.440  2.1256 -0.7457 -1.3332
   13MOL0     H 1723   0.523   1.970   4.434 -0.9657  0.3913  1.7004
   13MOL0     H 1724   0.603   2.107   4.509  3.8410 -2.4321  1.1677
   13MOL0     H 1725   0.499   2.113   4.209  0.1875  3.3894 -1.8077
   13MOL0     H 1726   0.589   2.235   4.297  2.4595 -2.7142  1.3178
   13MOL0     H 1727   0.309   2.149   4.382 -1.8803  1.4803  2.3938
   13MOL0     H 1728   0.421   2.264   4.469 -1.4330 -0.3932  0.3532
   13MOL0     H 1729   0.317   2.305   4.181 -0.2645 -1.8641  1.0364
   13MOL0     H 1730   0.435   2.408   4.262 -0.6325 -0.3263  0.7062
   13MOL0     H 1731   0.156   2.360   4.357 -0.7600  2.0178  0.6931
   13MOL0     H 1732   0.265   2.473   4.428  4.7224 -0.9258 -0.7264
   13MOL0     H 1733   0.264   2.587   4.200 -1.8314 -1.5062 -3.2320
   13MOL0     H 1734   0.115   2.609   4.297  1.1110 -0.5098  2.1309
   13MOL0     H 1735   0.023   2.401   4.174  1.8011 -1.4011  2.3371
   13MOL0     H 1736   0.158   2.411   4.060  1.7381 -0.3703 -0.1732
   13MOL0     H 1737   0.961   1.902   4.340  1.2790 -1.8516  0.0383
   13MOL0     H 1738   1.198   1.891   4.288 -0.8184 -0.7435  0.6917
   13MOL0     H 1739   1.585   2.152   3.978 -0.3921 -0.0917  0.4731
   13MOL0     H 1740   1.814   2.126   3.953  0.9219  4.3443  1.5721
   13MOL0     H 1741   3.669   1.562   4.179  0.9755  0.2526  2.0576
   13MOL0     H 1742   3.923   1.545   4.201 -2.5130 -1.8580  1.3827
   13MOL0     H 1743   4.309   1.808   4.268  0.4870 -0.5482  0.5231
   13MOL0     H 1744   4.557   1.845   4.286 -0.6554  0.9221 -1.0344
   13MOL0     H 1745   4.840   1.603   4.044  3.7268  0.0604 -1.3038
   13MOL0     H 1746   4.822   1.720   3.916 -0.8492 -1.2183 -0.6298
   13MOL0     H 1747   4.988   1.793   4.147  0.4623  0.8245 -0.9241
   13MOL0     H 1748   4.957   1.893   4.006 -1.4920  0.2275 -0.6528
   13MOL0     H 1749   5.099   1.720   3.875 -1.0000  2.6848 -0.7634
   13MOL0     H 1750   5.112   1.625   4.022 -2.1424  0.2312  1.4016
   13MOL0     H 1751   5.215   1.905   3.959 -2.8151 -0.9832  0.9357
   13MOL0     H 1752   5.319   1.759   3.954 -1.3745 -2.7249 -1.7308
   13MOL0     H 1753   5.334   1.909   4.359 -2.0970 -2.6819  0.9502
   13MOL0     H 1754   4.610   1.659   3.902  0.2453 -0.0678  1.0077
   13MOL0     H 1755   4.367   1.651   3.873  0.4965 -2.4067  1.0040
   14MOL0     O 1756   1.347   6.286   6.541  0.2428  0.9416  0.5707
   14MOL0     C 1757   1.431   6.357   6.490  0.2599 -0.3281  0.0435
   14MOL0     O 1758   1.410   6.475   6.429  0.2724 -0.1762  0.7676
   14MOL0     C 1759   1.287   6.537   6.415  0.4755 -1.0554 -0.3346
   14MOL0     C 1760   1.151   6.479   6.414 -0.6586  0.0424  0.1907
   14MOL0     C 1761   1.031   6.553   6.390 -0.2116  0.4608 -0.1576
   14MOL0     C 1762   1.042   6.688   6.365  0.7052 -0.3567 -0.6574
   14MOL0     O 1763   0.930   6.765   6.327 -0.0402  0.3061 -0.5944
   14MOL0     C 1764   0.840   6.706   6.237  0.0639  0.0763  1.4581
   14MOL0     C 1765   0.892   6.665   6.098 -0.1026  0.0045 -1.1086
   14MOL0     C 1766   0.788   6.603   6.018  0.7770 -0.8349  0.0969
   14MOL0     C 1767   0.826   6.571   5.868  0.0805 -0.3664  0.2018
   14MOL0     C 1768   0.711   6.572   5.782  0.2168 -0.2520  0.8394
   14MOL0     C 1769   0.742   6.553   5.631 -0.4714  0.3494  0.4080
   14MOL0     C 1770   0.612   6.571   5.548  0.5204  0.0907 -0.4851
   14MOL0     C 1771   0.598   6.478   5.422  0.0707 -0.3718  0.1962
   14MOL0     N 1772   0.568   6.333   5.449  0.4688  0.0267  0.9959
   14MOL0     C 1773   0.635   6.245   5.536 -0.1522  0.0319  0.8933
   14MOL0     C 1774   0.592   6.120   5.493 -0.8630 -0.8985 -0.3275
   14MOL0     C 1775   0.635   5.989   5.539 -0.1736  0.3400  0.8583
   14MOL0     C 1776   0.694   5.913   5.432  0.3795  0.8124  0.7278
   14MOL0     C 1777   0.814   5.967   5.363  0.6074  0.1099  0.0649
   14MOL0     C 1778   0.878   5.862   5.281  0.0211 -0.1623 -0.1249
   14MOL0     O 1779   0.979   5.784   5.350  0.5856 -0.6739  0.4633
   14MOL0     C 1780   1.071   5.724   5.275 -0.8826 -0.2111  0.2064
   14MOL0     C 1781   1.053   5.680   5.145  0.2939  0.5502  0.0931
   14MOL0     C 1782   1.142   5.588   5.075 -0.0009  1.0712 -0.8710
   14MOL0     C 1783   1.093   5.519   4.953 -0.1036 -1.3206 -0.5314
   14MOL0     C 1784   1.269   5.572   5.136  0.3854 -0.6159  0.6437
   14MOL0     C 1785   1.382   5.485   5.070 -0.3012 -0.3095 -0.9280
   14MOL0     O 1786   1.503   5.484   5.132  0.3572  0.9158 -0.1733
   14MOL0     C 1787   1.607   5.406   5.081  1.3995  0.3509  0.2545
   14MOL0     C 1788   1.626   5.399   4.947 -0.0913 -0.5611 -0.5241
   14MOL0     C 1789   1.748   5.347   4.889 -0.1358 -0.4444 -0.4535
   14MOL0     C 1790   1.848   5.309   4.982 -0.5857  0.0572 -0.6382
   14MOL0     O 1791   1.967   5.257   4.951 -0.0556  0.1600  0.4167
   14MOL0     C 1792   2.031   5.297   4.832  0.7685  0.8389  0.0362
   14MOL0     C 1793   2.061   5.441   4.824 -0.0926  0.1862  0.6752
   14MOL0     C 1794   2.116   5.499   4.955 -0.3686 -0.6496 -0.0502
   14MOL0     C 1795   2.150   5.644   4.946 -0.6514  0.2351 -0.5586
   14MOL0     C 1796   2.229   5.699   5.061  0.4034 -0.0474 -0.2260
   14MOL0     C 1797   2.377   5.727   5.030  0.8033  0.5378 -1.0185
   14MOL0     C 1798   2.454   5.766   5.154  0.6888  1.1232  0.0914
   14MOL0     C 1799   2.456   5.648   5.253  0.1311 -0.9090 -0.6832
   14MOL0    Cl 1800   2.575   5.696   5.384  0.2048  0.5489 -0.1708
   14MOL0     C 1801   1.821   5.308   5.114  0.0540 -0.1721  0.3477
   14MOL0     C 1802   1.708   5.364   5.167  0.9092 -0.1652  0.0560
   14MOL0     O 1803   1.356   5.428   4.963 -0.6860  0.0996  0.0294
   14MOL0     C 1804   1.292   5.637   5.259 -0.3538  0.2644 -0.2507
   14MOL0     C 1805   1.187   5.692   5.334 -0.2610 -0.7376  0.7979
   14MOL0     N 1806   0.492   6.129   5.395  0.7222 -0.1210 -0.1449
   14MOL0     N 1807   0.491   6.262   5.364  1.3416 -0.5452 -0.5220
   14MOL0     C 1808   1.169   6.751   6.361  0.5609 -0.2833 -0.2922
   14MOL0     C 1809   1.292   6.681   6.384 -0.5481  0.5462 -1.3069
   14MOL0     C 1810   1.564   6.286   6.467  0.2363 -0.4224 -1.0375
   14MOL0     C 1811   1.571   6.140   6.488  0.3111 -0.9961  0.2221
   14MOL0     C 1812   1.690   6.080   6.460  0.2541  0.0424  0.3019
   14MOL0     C 1813   1.793   6.154   6.397 -0.0714  0.3921 -0.8368
   14MOL0     O 1814   1.908   6.090   6.368 -0.3873 -0.0774 -1.1834
   14MOL0     C 1815   1.976   6.035   6.474 -0.5664 -0.2239  0.0202
   14MOL0     C 1816   2.108   6.108   6.524  0.3674  0.5496  0.8098
   14MOL0     C 1817   2.235   6.049   6.453  1.1289  0.5548 -0.2402
   14MOL0     C 1818   2.361   6.129   6.512 -0.1887  0.5543  1.2672
   14MOL0     C 1819   2.483   6.113   6.429 -0.1234 -0.1580 -0.2713
   14MOL0     C 1820   2.580   6.076   6.361  0.2966  0.1439  0.4118
   14MOL0     C 1821   1.782   6.286   6.367  1.0017 -0.7870 -0.1149
   14MOL0     C 1822   1.667   6.355   6.405 -0.0984  0.1120  1.0038
   14MOL0     H 1823   1.154   6.373   6.438  2.6931 -0.8654 -3.3117
   14MOL0     H 1824   0.932   6.507   6.385  0.3521 -0.7665 -0.4316
   14MOL0     H 1825   0.785   6.622   6.280 -0.5092  0.5084  1.5919
   14MOL0     H 1826   0.767   6.786   6.218  1.3103  1.1443  0.9698
   14MOL0     H 1827   0.929   6.751   6.041  0.1765 -1.3281 -3.0336
   14MOL0     H 1828   0.976   6.595   6.105 -1.2103 -1.2462  0.0681
   14MOL0     H 1829   0.773   6.502   6.057  1.1540 -0.9267  0.0112
   14MOL0     H 1830   0.688   6.646   6.027  0.1950 -0.9176 -4.1311
   14MOL0     H 1831   0.888   6.655   5.833 -2.6094  2.3235  1.4399
   14MOL0     H 1832   0.867   6.470   5.865 -1.2371 -1.0467  2.4523
   14MOL0     H 1833   0.633   6.498   5.802 -2.6365  1.5121 -2.6069
   14MOL0     H 1834   0.654   6.663   5.800  1.0967  0.1918  1.4630
   14MOL0     H 1835   0.810   6.632   5.600 -2.0412  0.5041 -3.0295
   14MOL0     H 1836   0.790   6.457   5.612  0.1652  0.6995  0.2377
   14MOL0     H 1837   0.525   6.565   5.615 -0.7866 -0.6663 -2.1636
   14MOL0     H 1838   0.620   6.676   5.519 -1.7925  0.7833  1.0897
   14MOL0     H 1839   0.681   6.496   5.353  0.4039  2.8325  1.2468
   14MOL0     H 1840   0.509   6.510   5.366  1.4542 -0.1161 -1.9775
   14MOL0     H 1841   0.704   6.263   5.618  2.0291 -0.7669 -0.6959
   14MOL0     H 1842   0.703   6.007   5.623  1.3776 -1.4190  0.0692
   14MOL0     H 1843   0.549   5.934   5.578 -0.5135  0.2296 -0.0220
   14MOL0     H 1844   0.617   5.903   5.355  1.6340  0.7785 -0.5613
   14MOL0     H 1845   0.723   5.817   5.474  2.6942  1.4546  0.7301
   14MOL0     H 1846   0.883   5.992   5.445 -1.6725  1.1160  1.7720
   14MOL0     H 1847   0.792   6.059   5.309 -1.5996  0.4850  1.4982
   14MOL0     H 1848   0.933   5.911   5.200  2.3433 -0.0863  1.4108
   14MOL0     H 1849   0.793   5.818   5.229  0.2637  3.7673 -4.5775
   14MOL0     H 1850   0.957   5.690   5.096 -0.0770  2.5205  1.1434
   14MOL0     H 1851   0.999   5.564   4.918  0.4788 -0.1520 -0.6411
   14MOL0     H 1852   1.166   5.532   4.872  2.9696 -3.2021  1.7423
   14MOL0     H 1853   1.079   5.410   4.958 -0.3789 -1.3004 -0.7919
   14MOL0     H 1854   1.568   5.455   4.875  0.9592  1.6527  0.2728
   14MOL0     H 1855   1.760   5.345   4.781  0.6494  1.4765 -0.4452
   14MOL0     H 1856   2.134   5.258   4.834  0.7178  0.6617 -0.6141
   14MOL0     H 1857   1.983   5.274   4.736  0.9018  0.8350 -0.0299
   14MOL0     H 1858   2.143   5.448   4.751  1.6569  1.3944  2.6363
   14MOL0     H 1859   1.979   5.505   4.793  2.2095  3.1684  0.2668
   14MOL0     H 1860   2.210   5.447   4.977  0.1457  0.1917 -0.2150
   14MOL0     H 1861   2.041   5.494   5.034  1.5571 -2.1099  1.7775
   14MOL0     H 1862   2.191   5.668   4.847  1.5292 -4.5776 -1.1196
   14MOL0     H 1863   2.056   5.699   4.950 -0.5289  0.3612  2.0687
   14MOL0     H 1864   2.206   5.632   5.144 -1.4807  0.1866 -0.5224
   14MOL0     H 1865   2.187   5.795   5.093  0.2874 -0.2224  0.1619
   14MOL0     H 1866   2.420   5.645   4.973  0.0013 -0.6846  0.0898
   14MOL0     H 1867   2.389   5.814   4.965 -2.1846  2.6737  1.0016
   14MOL0     H 1868   2.403   5.842   5.213 -1.3393  0.0253 -0.1140
   14MOL0     H 1869   2.554   5.788   5.117  0.2605 -0.5209 -2.3081
   14MOL0     H 1870   2.488   5.559   5.199  1.0515  0.0146 -1.6903
   14MOL0     H 1871   2.366   5.628   5.313  0.3279 -2.8382 -0.9583
   14MOL0     H 1872   1.894   5.260   5.180  1.5448 -1.0388 -1.8270
   14MOL0     H 1873   1.701   5.375   5.275 -0.2725 -2.0222  0.2197
   14MOL0     H 1874   1.384   5.627   5.317  0.5580  3.9910 -0.7943
   14MOL0     H 1875   1.203   5.723   5.436  0.3153 -1.5676  0.9659
   14MOL0     H 1876   1.178   6.859   6.349  2.1177 -0.5556 -1.9213
   14MOL0     H 1877   1.388   6.731   6.375 -1.5014  2.1503 -3.2247
   14MOL0     H 1878   1.488   6.086   6.533  0.5570 -3.0809 -1.6639
   14MOL0     H 1879   1.704   5.978   6.495  0.0872 -0.4819 -1.0734
   14MOL0     H 1880   1.915   6.031   6.564  0.5056 -1.4277  0.7309
   14MOL0     H 1881   2.006   5.931   6.454 -1.1740 -0.4495  0.2841
   14MOL0     H 1882   2.130   6.101   6.631 -0.0141  1.2258  0.9346
   14MOL0     H 1883   2.098   6.215   6.505 -1.4872  0.3912  0.6537
   14MOL0     H 1884   2.228   6.061   6.344 -0.2112 -1.9236 -0.5188
   14MOL0     H 1885   2.233   5.945   6.488  1.9342  0.3174 -0.8677
   14MOL0     H 1886   2.395   6.099   6.611  1.1341  1.9602  1.2670
   14MOL0     H 1887   2.334   6.234   6.516 -0.1483  0.6609 -0.3899
   14MOL0     H 1888   2.662   6.052   6.297 -1.8127  0.9717 -2.8681
   14MOL0     H 1889   1.861   6.327   6.306  1.8790 -0.2537  1.3360
   14MOL0     H 1890   1.647   6.454   6.364  1.0543 -0.7787 -2.0191
   15MOL0     O 1891   5.339   4.024   3.608 -0.4356 -0.5585 -0.0768
   15MOL0     C 1892   5.422   3.942   3.648 -0.0496 -0.5189  0.3254
   15MOL0     O 1893   5.404   3.808   3.658 -0.0995 -0.0788 -0.0198
   15MOL0     C 1894   5.334   3.736   3.560 -0.0486 -1.0893  0.8328
   15MOL0     C 1895   5.303   3.793   3.428  0.7040 -0.1434 -0.4386
   15MOL0     C 1896   5.226   3.726   3.333 -0.7564 -0.4407 -0.4246
   15MOL0     C 1897   5.187   3.591   3.359 -0.8032  0.4209 -0.7434
   15MOL0     O 1898   5.109   3.509   3.280 -0.2152  0.1054 -0.1983
   15MOL0     C 1899   5.035   3.583   3.180  0.2889  0.2206 -0.5586
   15MOL0     C 1900   4.966   3.487   3.072  0.7602 -0.4118  0.1135
   15MOL0     C 1901   4.841   3.427   3.131 -0.1075 -0.2306 -0.0531
   15MOL0     C 1902   4.761   3.359   3.022  0.6149 -0.4098 -0.1381
   15MOL0     C 1903   4.664   3.263   3.091  0.7588 -0.5603 -0.5003
   15MOL0     C 1904   4.574   3.192   2.994  0.8848 -0.3235 -0.8422
   15MOL0     C 1905   4.484   3.098   3.068  0.0660  0.8517  0.2787
   15MOL0     C 1906   4.367   3.164   3.138 -0.2788 -0.2411  0.2919
   15MOL0     N 1907   4.275   3.073   3.208 -0.3238  0.6722 -0.0058
   15MOL0     C 1908   4.201   2.973   3.150 -0.5655  0.3888  0.1913
   15MOL0     C 1909   4.146   2.906   3.258 -0.0341  0.8261 -0.1445
   15MOL0     C 1910   4.043   2.798   3.264 -1.1661  0.3654  0.2311
   15MOL0     C 1911   3.900   2.838   3.287  0.1976 -0.3473 -0.2490
   15MOL0     C 1912   3.871   2.894   3.426  0.0841  0.4188  0.4577
   15MOL0     C 1913   3.723   2.910   3.454  0.4741  0.2810 -0.1717
   15MOL0     O 1914   3.651   2.809   3.384  0.1574 -0.0944  0.0714
   15MOL0     C 1915   3.513   2.815   3.382  0.4723  0.1978 -0.1818
   15MOL0     C 1916   3.454   2.724   3.294 -1.3976  1.2203 -0.1709
   15MOL0     C 1917   3.319   2.709   3.276  0.0913 -0.7943 -1.1893
   15MOL0     C 1918   3.286   2.624   3.156  0.7091  0.3301 -0.5163
   15MOL0     C 1919   3.225   2.778   3.360  0.5071 -0.3978 -0.6269
   15MOL0     C 1920   3.077   2.751   3.379 -0.2430  0.0184 -0.1523
   15MOL0     O 1921   2.990   2.847   3.432  0.2282  0.0864  0.9153
   15MOL0     C 1922   2.856   2.822   3.433  0.0242 -0.5981  0.0995
   15MOL0     C 1923   2.762   2.923   3.381  0.1495  1.5069 -0.6158
   15MOL0     C 1924   2.623   2.906   3.389 -0.6052  0.0871 -0.6243
   15MOL0     C 1925   2.565   2.791   3.456  0.1933 -0.4472 -0.6003
   15MOL0     O 1926   2.433   2.791   3.482 -0.1005  0.5442 -0.4742
   15MOL0     C 1927   2.378   2.688   3.577 -1.0877 -0.6405 -0.8902
   15MOL0     C 1928   2.228   2.675   3.567 -0.5751  0.4439 -0.0829
   15MOL0     C 1929   2.165   2.597   3.680 -1.1669  0.1479 -0.4551
   15MOL0     C 1930   2.025   2.553   3.655  0.8107 -0.9142  0.3858
   15MOL0     C 1931   1.957   2.490   3.778 -0.4784 -0.1768 -0.1815
   15MOL0     C 1932   1.799   2.490   3.765  1.1427  0.0390 -0.8294
   15MOL0     C 1933   1.710   2.449   3.882  1.3832 -0.3245  0.1819
   15MOL0     C 1934   1.560   2.427   3.837 -0.2811 -0.0893  0.0079
   15MOL0    Cl 1935   1.527   2.275   3.747 -0.2170 -0.2153  0.0062
   15MOL0     C 1936   2.662   2.695   3.507 -0.4107 -0.8535  0.5855
   15MOL0     C 1937   2.800   2.709   3.496 -0.2068 -0.3613 -0.6956
   15MOL0     O 1938   3.042   2.637   3.361  0.2224  0.5833  0.1253
   15MOL0     C 1939   3.286   2.879   3.443  0.2167  0.1787  0.0070
   15MOL0     C 1940   3.426   2.903   3.457  0.4621  0.7836  0.0002
   15MOL0     N 1941   4.197   2.965   3.378  0.3955 -0.1135 -0.4281
   15MOL0     N 1942   4.263   3.073   3.348  0.5560 -0.0113 -0.5050
   15MOL0     C 1943   5.222   3.537   3.489 -0.3359  0.5226  0.0723
   15MOL0     C 1944   5.308   3.603   3.582  0.7708  0.8586  0.7121
   15MOL0     C 1945   5.540   4.003   3.714  0.0481 -0.1837  0.6306
   15MOL0     C 1946   5.559   4.142   3.705 -0.5263 -0.2141 -0.3090
   15MOL0     C 1947   5.664   4.201   3.771 -0.3263  0.2268 -0.2194
   15MOL0     C 1948   5.757   4.117   3.841  0.1018 -0.3732  0.3357
   15MOL0     O 1949   5.851   4.156   3.927  0.3562  0.6226 -0.5447
   15MOL0     C 1950   5.909   4.291   3.912  0.4357  0.2721  0.2622
   15MOL0     C 1951   6.045   4.282   3.977  0.2857  0.5304  0.8514
   15MOL0     C 1952   6.127   4.168   3.920 -0.2189 -0.1420 -0.4506
   15MOL0     C 1953   6.271   4.189   3.960 -0.4721 -0.0121  0.1469
   15MOL0     C 1954   6.285   4.229   4.105  0.4086 -0.4656  0.6439
   15MOL0     C 1955   6.305   4.273   4.215 -1.0908  0.6718 -0.1493
   15MOL0     C 1956   5.738   3.978   3.831  0.3034  0.9040 -0.1170
   15MOL0     C 1957   5.626   3.918   3.777  0.2847  0.2514 -0.2691
   15MOL0     H 1958   5.328   3.895   3.402 -0.8513  0.0467 -1.3246
   15MOL0     H 1959   5.212   3.780   3.240 -1.3785 -0.0356 -0.1051
   15MOL0     H 1960   4.964   3.650   3.229 -3.7969 -3.3520 -0.9316
   15MOL0     H 1961   5.102   3.647   3.123  0.6644  1.3013  1.0440
   15MOL0     H 1962   4.942   3.547   2.984 -0.8855  0.2576  0.9828
   15MOL0     H 1963   5.044   3.416   3.044  2.9244  1.7206  0.4828
   15MOL0     H 1964   4.877   3.356   3.206  2.3697 -0.5458 -1.4448
   15MOL0     H 1965   4.783   3.508   3.177 -2.1994 -1.4929 -0.3482
   15MOL0     H 1966   4.712   3.439   2.966  1.1872  0.9569  1.2520
   15MOL0     H 1967   4.815   3.297   2.949  1.3630  0.7597 -0.6127
   15MOL0     H 1968   4.728   3.195   3.148  2.7416  0.1806 -1.7386
   15MOL0     H 1969   4.597   3.320   3.156  0.2588 -2.0132  0.3046
   15MOL0     H 1970   4.523   3.267   2.933 -1.3331  0.6183  1.9544
   15MOL0     H 1971   4.627   3.133   2.919  2.0904  0.4760 -0.6410
   15MOL0     H 1972   4.443   3.018   3.005 -2.0808  0.8239  1.5912
   15MOL0     H 1973   4.529   3.041   3.150 -1.9700 -1.0047  0.2169
   15MOL0     H 1974   4.309   3.214   3.060 -1.5598 -0.4658  1.0839
   15MOL0     H 1975   4.407   3.248   3.196  0.8775 -0.2400 -0.4755
   15MOL0     H 1976   4.181   2.947   3.046 -3.9727  0.6674  0.6571
   15MOL0     H 1977   4.050   2.761   3.162 -0.4270  2.5895 -0.5892
   15MOL0     H 1978   4.084   2.721   3.330  0.9073  1.8958  0.8321
   15MOL0     H 1979   3.837   2.750   3.270 -0.2875  0.3682 -2.5420
   15MOL0     H 1980   3.881   2.913   3.209 -0.5920 -3.5711 -3.4247
   15MOL0     H 1981   3.930   2.983   3.449  3.3583 -1.3120 -0.5479
   15MOL0     H 1982   3.918   2.823   3.494  1.6895 -1.8030 -2.6903
   15MOL0     H 1983   3.695   3.006   3.409  1.5254 -0.1657 -1.8512
   15MOL0     H 1984   3.700   2.903   3.561  4.0393  0.1596  0.7144
   15MOL0     H 1985   3.528   2.665   3.241  0.2035  0.9173  2.2541
   15MOL0     H 1986   3.354   2.663   3.080  2.6815 -1.6416  0.1209
   15MOL0     H 1987   3.307   2.518   3.174 -0.6882 -0.5121 -3.2304
   15MOL0     H 1988   3.181   2.639   3.128 -0.2277 -3.8870  0.0238
   15MOL0     H 1989   2.795   3.015   3.333  2.6321  1.2311  0.4148
   15MOL0     H 1990   2.558   2.987   3.356  0.5213  1.2133 -0.1446
   15MOL0     H 1991   2.415   2.586   3.562  1.0833 -0.0916  0.2498
   15MOL0     H 1992   2.390   2.720   3.681  1.3151  1.4104 -1.6974
   15MOL0     H 1993   2.180   2.772   3.553 -2.4229 -0.7174 -2.9530
   15MOL0     H 1994   2.203   2.616   3.478  1.0371  1.1684 -1.0713
   15MOL0     H 1995   2.174   2.651   3.775 -3.3470  1.7260 -1.0793
   15MOL0     H 1996   2.231   2.510   3.689  0.6301  1.5966  1.3031
   15MOL0     H 1997   1.968   2.642   3.631 -1.5917 -1.3885  3.6301
   15MOL0     H 1998   2.017   2.482   3.572 -1.6989  2.1449 -2.2154
   15MOL0     H 1999   1.969   2.552   3.868 -1.5811 -0.3494  0.0996
   15MOL0     H 2000   2.003   2.392   3.792 -1.2932 -0.2203  3.0732
   15MOL0     H 2001   1.782   2.596   3.749  0.3318  0.0965  0.2912
   15MOL0     H 2002   1.775   2.422   3.683 -0.6700  1.3496 -1.4135
   15MOL0     H 2003   1.723   2.533   3.951 -0.8670  0.4326 -0.2454
   15MOL0     H 2004   1.738   2.350   3.919  2.4097 -1.6689 -3.6583
   15MOL0     H 2005   1.526   2.510   3.775  0.4982  0.4075  0.2387
   15MOL0     H 2006   1.489   2.419   3.921 -0.3046  1.9762  0.2421
   15MOL0     H 2007   2.628   2.628   3.585 -0.9887 -0.7246  0.4516
   15MOL0     H 2008   2.861   2.640   3.554  0.9876 -0.4564 -2.0098
   15MOL0     H 2009   3.234   2.955   3.500  1.3814  1.1469 -0.1650
   15MOL0     H 2010   3.467   2.978   3.524  2.1300  0.4525 -0.6152
   15MOL0     H 2011   5.198   3.433   3.513  2.2683  0.1574  1.5746
   15MOL0     H 2012   5.354   3.544   3.661  1.5355  0.0883 -0.2824
   15MOL0     H 2013   5.496   4.200   3.638 -1.5545 -0.6492  0.2584
   15MOL0     H 2014   5.670   4.308   3.791  0.8865  0.0094  0.7185
   15MOL0     H 2015   5.917   4.316   3.806 -1.4685  2.3988  0.5574
   15MOL0     H 2016   5.841   4.364   3.956  2.2540  2.9901 -1.2110
   15MOL0     H 2017   6.028   4.276   4.085  0.3824  3.2754  1.0948
   15MOL0     H 2018   6.096   4.377   3.959  0.7781  0.3036  1.0183
   15MOL0     H 2019   6.111   4.176   3.812 -1.5028  0.4839 -0.2342
   15MOL0     H 2020   6.087   4.070   3.946 -0.4137  0.1183  0.2462
   15MOL0     H 2021   6.316   4.266   3.897  2.4396 -0.9371  0.9271
   15MOL0     H 2022   6.328   4.099   3.934 -0.2207  0.4111 -0.8075
   15MOL0     H 2023   6.322   4.325   4.307  0.8645 -1.2240  0.6412
   15MOL0     H 2024   5.813   3.909   3.868 -1.2321 -0.8860 -0.1941
   15MOL0     H 2025   5.607   3.812   3.788  1.4710  0.1677  1.2339
   16MOL0     O 2026  10.103   1.178   5.248 -0.1534  0.0903  0.3625
   16MOL0     C 2027  10.127   1.288   5.286 -0.6142 -0.1393 -0.4061
   16MOL0     O 2028  10.074   1.402   5.230  0.0353 -0.0726  0.0443
   16MOL0     C 2029   9.977   1.402   5.134 -0.1381  1.0067 -0.3364
   16MOL0     C 2030   9.900   1.518   5.121  0.5364  0.5488 -0.2727
   16MOL0     C 2031   9.813   1.536   5.020 -0.5781  0.5041  0.7199
   16MOL0     C 2032   9.804   1.450   4.918 -0.4733 -0.0026  0.3922
   16MOL0     O 2033   9.714   1.483   4.817  0.3467 -0.0040 -0.3613
   16MOL0     C 2034   9.664   1.385   4.725 -0.4152  0.5706  1.0087
   16MOL0     C 2035   9.516   1.397   4.700  0.5669  0.0627 -0.0381
   16MOL0     C 2036   9.473   1.521   4.636 -1.1963 -0.5430  0.1979
   16MOL0     C 2037   9.324   1.536   4.655  0.2411 -0.6069 -0.1147
   16MOL0     C 2038   9.262   1.658   4.590  0.1577 -1.0008 -0.1615
   16MOL0     C 2039   9.116   1.678   4.629 -0.7158  0.3796  0.0285
   16MOL0     C 2040   9.073   1.815   4.560  0.0227  0.9449 -1.6175
   16MOL0     C 2041   8.925   1.852   4.585 -0.6200 -0.0089 -0.0115
   16MOL0     N 2042   8.888   1.875   4.721 -0.6860  0.3461  0.2450
   16MOL0     C 2043   8.955   1.963   4.799  0.0910  0.2851 -0.2532
   16MOL0     C 2044   8.923   1.924   4.924 -0.4207 -0.6861 -0.8391
   16MOL0     C 2045   9.001   1.971   5.044  0.6083  0.2866 -0.4481
   16MOL0     C 2046   9.102   1.862   5.088 -0.1798  0.1254  0.9629
   16MOL0     C 2047   9.139   1.867   5.237  0.5208 -0.0863  0.3437
   16MOL0     C 2048   9.219   2.000   5.251 -1.3412 -0.3672  0.6198
   16MOL0     O 2049   9.239   2.014   5.393  0.2130  0.1495 -0.1668
   16MOL0     C 2050   9.346   2.092   5.435 -0.0670 -0.0083  0.0737
   16MOL0     C 2051   9.383   2.080   5.569  0.7136  0.0102 -0.4061
   16MOL0     C 2052   9.482   2.164   5.637 -0.0289  0.6166  0.6122
   16MOL0     C 2053   9.508   2.161   5.779 -1.4150  0.4545 -0.5012
   16MOL0     C 2054   9.538   2.271   5.556 -0.6780  0.3189  0.2255
   16MOL0     C 2055   9.625   2.384   5.600  0.2152 -1.2340  0.3799
   16MOL0     O 2056   9.713   2.449   5.512  0.0047  0.3209  0.4425
   16MOL0     C 2057   9.800   2.538   5.573 -0.6395 -0.7488 -0.3258
   16MOL0     C 2058   9.917   2.515   5.652 -0.1872  0.6503  0.6457
   16MOL0     C 2059   9.986   2.626   5.713 -0.9848  0.0423 -0.0388
   16MOL0     C 2060   9.934   2.757   5.693  0.4738  0.0347 -0.0916
   16MOL0     O 2061   9.996   2.863   5.741 -0.1192  0.0932 -0.2498
   16MOL0     C 2062  10.001   2.873   5.886  0.8711  0.7691 -0.5317
   16MOL0     C 2063  10.010   3.018   5.920 -0.0142  0.9225 -0.3266
   16MOL0     C 2064  10.143   3.080   5.862 -0.5219 -0.3246 -0.7265
   16MOL0     C 2065  10.170   3.219   5.922  0.3539  0.5698 -0.8098
   16MOL0     C 2066  10.280   3.296   5.854 -0.0915 -0.7740 -0.3596
   16MOL0     C 2067  10.253   3.323   5.702 -0.8562  0.4404 -0.9810
   16MOL0     C 2068  10.380   3.394   5.634  1.1222 -0.1731 -0.7117
   16MOL0     C 2069  10.514   3.324   5.648  1.1367  0.7536 -0.4864
   16MOL0    Cl 2070  10.521   3.179   5.538  0.2400 -0.9185 -0.2820
   16MOL0     C 2071   9.835   2.780   5.599 -0.5933  0.2842  0.7274
   16MOL0     C 2072   9.774   2.676   5.543  0.6788  0.1795  0.2599
   16MOL0     O 2073   9.616   2.411   5.722  0.5876 -0.1559 -0.0301
   16MOL0     C 2074   9.498   2.287   5.424 -0.6151 -0.0884  0.1004
   16MOL0     C 2075   9.414   2.191   5.361 -1.1821 -0.2367  0.1327
   16MOL0     N 2076   8.835   1.819   4.927 -0.2878 -0.4717  0.0745
   16MOL0     N 2077   8.811   1.785   4.802  0.1970 -0.6639 -0.0435
   16MOL0     C 2078   9.885   1.338   4.920  0.1262  0.3781 -0.0145
   16MOL0     C 2079   9.963   1.307   5.024  0.6511 -0.3149 -0.8077
   16MOL0     C 2080  10.228   1.310   5.403 -0.4162  0.0490  0.0770
   16MOL0     C 2081  10.244   1.432   5.459 -0.2572 -0.4101 -0.7809
   16MOL0     C 2082  10.337   1.458   5.564 -0.6410 -0.1074 -0.2547
   16MOL0     C 2083  10.424   1.356   5.608  0.6281  0.1150 -0.5809
   16MOL0     O 2084  10.521   1.352   5.710  0.0520  0.5150  0.7495
   16MOL0     C 2085  10.563   1.473   5.775  0.6461  0.0957  1.5586
   16MOL0     C 2086  10.698   1.522   5.740 -0.0124  0.8862 -0.0592
   16MOL0     C 2087  10.814   1.418   5.766  0.1773 -0.2130  0.1431
   16MOL0     C 2088  10.930   1.507   5.734 -0.0796 -0.0039  0.2406
   16MOL0     C 2089  11.055   1.444   5.775  0.1407 -0.0755 -0.0963
   16MOL0     C 2090  11.165   1.392   5.800  0.3871 -0.0319 -0.2714
   16MOL0     C 2091  10.412   1.230   5.549  0.6614  0.7915  0.6966
   16MOL0     C 2092  10.323   1.207   5.445  0.0044  0.4030 -0.1119
   16MOL0     H 2093   9.920   1.589   5.200  1.1810  0.0454  0.0275
   16MOL0     H 2094   9.756   1.628   5.014 -2.4958 -0.5885  1.3926
   16MOL0     H 2095   9.711   1.405   4.628 -1.0155  0.4690  0.6897
   16MOL0     H 2096   9.679   1.279   4.747 -3.5025  0.1959  1.7721
   16MOL0     H 2097   9.476   1.316   4.637 -1.2022 -0.9000  2.1693
   16MOL0     H 2098   9.470   1.389   4.799 -0.7869 -0.5737 -0.6844
   16MOL0     H 2099   9.523   1.605   4.685  0.3891 -1.2355 -0.1795
   16MOL0     H 2100   9.494   1.528   4.529 -1.7818 -2.5013 -0.0829
   16MOL0     H 2101   9.278   1.446   4.613 -1.5342 -0.3540  1.1890
   16MOL0     H 2102   9.302   1.538   4.762 -0.7835  0.8005 -0.3235
   16MOL0     H 2103   9.326   1.744   4.614 -0.5060 -0.8926  1.3699
   16MOL0     H 2104   9.276   1.643   4.483  1.7466  1.6247 -0.4160
   16MOL0     H 2105   9.057   1.600   4.579 -1.6540  0.1768  1.3899
   16MOL0     H 2106   9.100   1.662   4.736  1.4700 -0.3948  0.2822
   16MOL0     H 2107   9.137   1.896   4.597 -0.1069 -0.9940  3.6702
   16MOL0     H 2108   9.077   1.809   4.451 -3.1070  1.2149 -1.8453
   16MOL0     H 2109   8.853   1.782   4.542 -1.7965 -0.1475  2.0170
   16MOL0     H 2110   8.905   1.943   4.528 -1.0056 -1.1197 -1.7225
   16MOL0     H 2111   9.030   2.034   4.765  0.1458 -0.1985 -1.1730
   16MOL0     H 2112   9.044   2.070   5.026  3.4141 -0.5719  0.9637
   16MOL0     H 2113   8.917   1.981   5.114  0.7319 -1.3920 -0.0290
   16MOL0     H 2114   9.189   1.858   5.021 -0.9974 -0.6023 -0.0817
   16MOL0     H 2115   9.062   1.763   5.063 -2.6334  0.6582  2.4194
   16MOL0     H 2116   9.203   1.781   5.260  1.6670  0.5663 -0.3204
   16MOL0     H 2117   9.053   1.878   5.304 -0.0112  3.5788 -0.7489
   16MOL0     H 2118   9.163   2.092   5.232 -4.2258 -2.4648 -2.0589
   16MOL0     H 2119   9.314   1.994   5.198 -0.9437 -0.5665  1.3342
   16MOL0     H 2120   9.311   2.016   5.620 -3.8009  1.5156 -4.2071
   16MOL0     H 2121   9.473   2.251   5.832  2.2424  1.7394  0.0566
   16MOL0     H 2122   9.470   2.070   5.825  2.2319  0.7603  3.9458
   16MOL0     H 2123   9.617   2.152   5.782 -1.4633 -0.0091 -0.1149
   16MOL0     H 2124   9.963   2.419   5.672  1.3497  1.8901  3.6137
   16MOL0     H 2125  10.079   2.609   5.767 -1.3858 -1.2671  0.2908
   16MOL0     H 2126   9.908   2.834   5.927  0.7031  1.0786 -0.6118
   16MOL0     H 2127  10.084   2.815   5.928 -0.2879  0.6471  1.7295
   16MOL0     H 2128   9.923   3.059   5.868  0.9540  0.5014 -2.3696
   16MOL0     H 2129   9.996   3.037   6.027 -0.8571 -2.1369  0.2120
   16MOL0     H 2130  10.123   3.073   5.754 -6.0743  2.2581 -0.2317
   16MOL0     H 2131  10.227   3.017   5.890  0.2006 -0.6283 -3.3344
   16MOL0     H 2132  10.080   3.280   5.909  0.4977  0.8054 -0.6826
   16MOL0     H 2133  10.191   3.203   6.028  0.4416 -0.6882 -0.9964
   16MOL0     H 2134  10.371   3.235   5.861  0.7412  0.0768 -2.6732
   16MOL0     H 2135  10.288   3.382   5.921 -0.1171  0.0165 -1.3560
   16MOL0     H 2136  10.243   3.229   5.646 -0.7560 -0.0803 -0.1467
   16MOL0     H 2137  10.161   3.379   5.682 -2.0968 -0.3137  2.1367
   16MOL0     H 2138  10.391   3.495   5.672 -0.0329  0.1494 -1.2128
   16MOL0     H 2139  10.374   3.409   5.526 -1.6454  0.7792 -0.4900
   16MOL0     H 2140  10.539   3.296   5.750 -3.4911  0.3966  0.7756
   16MOL0     H 2141  10.592   3.391   5.610  0.8554  2.8630  2.2941
   16MOL0     H 2142   9.823   2.885   5.575  2.7687  0.1185 -2.7768
   16MOL0     H 2143   9.687   2.691   5.481  0.3646 -0.9364  0.4052
   16MOL0     H 2144   9.525   2.366   5.355 -2.3906  1.6473  1.2853
   16MOL0     H 2145   9.380   2.201   5.259 -2.8696 -0.8784  0.5907
   16MOL0     H 2146   9.884   1.258   4.847 -2.3130 -0.8578  1.2330
   16MOL0     H 2147  10.023   1.217   5.015  4.3113  1.9031 -0.7434
   16MOL0     H 2148  10.178   1.512   5.428  1.1044 -0.0885 -3.0420
   16MOL0     H 2149  10.329   1.557   5.608  1.1973  0.1392 -0.4191
   16MOL0     H 2150  10.490   1.553   5.756  1.7701  1.4360  2.6408
   16MOL0     H 2151  10.554   1.461   5.883  0.4612  1.3401  1.6979
   16MOL0     H 2152  10.718   1.614   5.796  1.1938  2.4443 -2.7957
   16MOL0     H 2153  10.688   1.543   5.633 -1.7118  0.6790  0.0319
   16MOL0     H 2154  10.809   1.324   5.710 -0.1180 -1.2862  1.8962
   16MOL0     H 2155  10.811   1.393   5.872  2.4754  0.1404  0.3430
   16MOL0     H 2156  10.931   1.604   5.784  1.7248 -0.5424  1.3701
   16MOL0     H 2157  10.948   1.527   5.628 -1.1466  0.5762  0.1650
   16MOL0     H 2158  11.250   1.338   5.835  1.7004  0.7852 -2.0229
   16MOL0     H 2159  10.470   1.145   5.584 -3.0812 -2.2317  0.1981
   16MOL0     H 2160  10.309   1.106   5.409  0.3417 -0.8034  2.8332
   17MOL0     O 2161   4.586   9.222   4.650 -0.5348 -0.5166 -0.0329
   17MOL0     C 2162   4.610   9.135   4.733  0.3029 -0.4582 -0.3778
   17MOL0     O 2163   4.526   9.114   4.846 -0.2943  0.0127 -0.1132
   17MOL0     C 2164   4.404   9.177   4.856  0.8817 -0.2987  0.4880
   17MOL0     C 2165   4.316   9.205   4.756  0.1918 -0.1879  0.3336
   17MOL0     C 2166   4.192   9.270   4.768  0.1834  0.7976  0.9231
   17MOL0     C 2167   4.145   9.291   4.897 -0.1514 -0.1862 -0.1197
   17MOL0     O 2168   4.029   9.359   4.930 -0.0763  0.4490  0.4765
   17MOL0     C 2169   4.056   9.504   4.939  0.4702 -0.4130  0.0947
   17MOL0     C 2170   3.958   9.582   5.026  0.2784  0.7422 -0.0178
   17MOL0     C 2171   3.821   9.563   4.969  0.1412  0.0523  0.1065
   17MOL0     C 2172   3.730   9.628   5.083  0.4102  0.2894 -0.5663
   17MOL0     C 2173   3.583   9.640   5.033  0.8236 -0.7268 -0.1553
   17MOL0     C 2174   3.573   9.763   4.947 -0.2993  0.5859  0.1652
   17MOL0     C 2175   3.423   9.791   4.906  0.3793  0.2272  0.1202
   17MOL0     C 2176   3.367   9.714   4.785 -0.3688  0.3832 -0.8013
   17MOL0     N 2177   3.238   9.773   4.751  0.6402 -0.1835  1.2816
   17MOL0     C 2178   3.226   9.849   4.637  0.5016  0.2242 -0.8354
   17MOL0     C 2179   3.099   9.854   4.609  0.6395 -1.2043  0.2153
   17MOL0     C 2180   3.038   9.950   4.510  0.1709 -1.0215  0.7559
   17MOL0     C 2181   2.887   9.971   4.513 -0.3664  0.1897 -0.2157
   17MOL0     C 2182   2.851  10.075   4.404  0.2018  0.4294  0.1678
   17MOL0     C 2183   2.702  10.103   4.380 -0.0004 -0.2454  0.1423
   17MOL0     O 2184   2.679  10.222   4.302 -0.0243 -0.8071  0.4288
   17MOL0     C 2185   2.555  10.258   4.271  0.4292  0.0932 -0.3587
   17MOL0     C 2186   2.450  10.169   4.274 -1.0239 -0.6324  0.6521
   17MOL0     C 2187   2.316  10.211   4.239  0.2041  0.0874 -1.0637
   17MOL0     C 2188   2.209  10.113   4.238 -0.5393  0.1271 -0.1208
   17MOL0     C 2189   2.297  10.344   4.202 -0.6479 -0.3605 -0.2858
   17MOL0     C 2190   2.167  10.392   4.146 -0.0790  0.0542 -0.7654
   17MOL0     O 2191   2.145  10.525   4.192  0.4047  0.2126  0.2773
   17MOL0     C 2192   2.024  10.582   4.165 -0.2473  0.7799  0.4123
   17MOL0     C 2193   1.916  10.558   4.258 -0.4844 -0.0137  0.1986
   17MOL0     C 2194   1.788  10.617   4.223 -0.0888 -0.5684 -0.9387
   17MOL0     C 2195   1.773  10.699   4.111  0.7169  0.2444  0.4882
   17MOL0     O 2196   1.652  10.742   4.066  0.9711  0.6777  0.3645
   17MOL0     C 2197   1.644  10.880   4.031 -0.5179 -0.2148 -0.1007
   17MOL0     C 2198   1.496  10.911   4.026  0.3295 -1.0266  0.5179
   17MOL0     C 2199   1.426  10.836   3.912  0.7631 -1.5119  0.1745
   17MOL0     C 2200   1.265  10.871   3.935 -0.4872  0.5017 -0.1946
   17MOL0     C 2201   1.206  10.816   4.066  0.5356  0.1355  0.4871
   17MOL0     C 2202   1.051  10.802   4.053  0.2955  0.2607 -0.5790
   17MOL0     C 2203   1.018  10.664   3.983 -0.5896  0.1774  0.8628
   17MOL0     C 2204   0.873  10.640   4.007 -0.6340 -0.7085  0.4917
   17MOL0    Cl 2205   0.771  10.755   3.933  0.4890  0.3128  0.1415
   17MOL0     C 2206   1.882  10.721   4.022 -0.1822  0.4339  0.9641
   17MOL0     C 2207   2.006  10.663   4.053 -0.1973  0.4433  0.3105
   17MOL0     O 2208   2.086  10.320   4.078  0.0242  0.1934  0.1817
   17MOL0     C 2209   2.405  10.434   4.194 -0.2441 -0.7761  0.2406
   17MOL0     C 2210   2.532  10.388   4.232  0.0932 -0.3245 -0.5167
   17MOL0     N 2211   3.029   9.787   4.693  0.5215  0.9389  0.3003
   17MOL0     N 2212   3.107   9.743   4.789 -0.3510  0.2233  0.1941
   17MOL0     C 2213   4.230   9.261   5.010  0.7582  0.5327 -0.3369
   17MOL0     C 2214   4.351   9.195   4.988 -0.5539  0.1359  0.7546
   17MOL0     C 2215   4.734   9.048   4.718  0.8328 -0.5112 -0.0723
   17MOL0     C 2216   4.754   8.941   4.810 -0.0759 -0.0935  0.3221
   17MOL0     C 2217   4.876   8.871   4.804  0.0480 -0.0985  0.9358
   17MOL0     C 2218   4.973   8.896   4.699 -0.7221  0.7668 -0.3747
   17MOL0     O 2219   5.087   8.821   4.685  0.0123  0.5449  0.7802
   17MOL0     C 2220   5.129   8.726   4.785 -0.8790  0.3149 -0.0123
   17MOL0     C 2221   5.149   8.607   4.702  0.0070  0.4108 -0.1774
   17MOL0     C 2222   5.274   8.615   4.613  0.2549 -0.9038 -0.4230
   17MOL0     C 2223   5.317   8.478   4.572  0.5997  1.2588  0.4449
   17MOL0     C 2224   5.383   8.389   4.668  0.2808  0.1118 -0.4201
   17MOL0     C 2225   5.427   8.307   4.743 -0.7745  0.4348  0.5295
   17MOL0     C 2226   4.953   9.003   4.612  0.2616 -0.4485  0.1918
   17MOL0     C 2227   4.832   9.078   4.621 -0.4837 -0.4001  0.0940
   17MOL0     H 2228   4.349   9.167   4.660  1.5415 -2.2944  1.5290
   17MOL0     H 2229   4.132   9.301   4.683  0.9375 -1.8163 -0.6775
   17MOL0     H 2230   4.154   9.534   4.977  0.0979  2.3039 -0.8467
   17MOL0     H 2231   4.051   9.544   4.837  0.5091  2.0469  0.9952
   17MOL0     H 2232   3.966   9.532   5.122 -0.5951 -2.8868 -1.6581
   17MOL0     H 2233   3.985   9.687   5.040  0.9051  0.3423  2.0786
   17MOL0     H 2234   3.798   9.618   4.877 -1.3787  0.2791  0.6097
   17MOL0     H 2235   3.799   9.457   4.954 -0.1583 -0.6166  4.1788
   17MOL0     H 2236   3.722   9.573   5.177 -2.1883  0.6749 -0.4891
   17MOL0     H 2237   3.768   9.727   5.112  3.6033 -0.7315 -0.8979
   17MOL0     H 2238   3.545   9.565   4.963 -4.6344  0.0779  1.4502
   17MOL0     H 2239   3.507   9.657   5.110  0.4245 -1.3729 -0.3971
   17MOL0     H 2240   3.620   9.841   5.007  1.1291 -1.5769  2.0580
   17MOL0     H 2241   3.630   9.744   4.856 -1.8357  4.3224 -1.7542
   17MOL0     H 2242   3.360   9.775   4.994 -1.0399 -0.0981 -0.9107
   17MOL0     H 2243   3.407   9.896   4.879 -1.7659 -0.0193  0.2170
   17MOL0     H 2244   3.343   9.611   4.813 -1.8654  1.3361  1.7738
   17MOL0     H 2245   3.441   9.720   4.704  0.1444  1.1581 -0.2951
   17MOL0     H 2246   3.304   9.899   4.580 -0.6147  1.2220 -1.5500
   17MOL0     H 2247   3.081  10.048   4.534  0.6767 -0.8577 -0.6932
   17MOL0     H 2248   3.069   9.922   4.409 -1.0346  0.5261 -0.0936
   17MOL0     H 2249   2.868  10.005   4.615  0.3622  0.8997 -0.3091
   17MOL0     H 2250   2.847   9.871   4.491  4.2706 -1.9210 -0.2789
   17MOL0     H 2251   2.894  10.029   4.314 -2.6523 -0.2423 -0.9680
   17MOL0     H 2252   2.890  10.177   4.409 -3.1391  1.9342 -1.3650
   17MOL0     H 2253   2.651  10.117   4.475  0.1111  2.0381 -0.0959
   17MOL0     H 2254   2.664  10.021   4.318 -0.7311  0.8765 -0.9378
   17MOL0     H 2255   2.465  10.066   4.306  1.3767 -0.0942  1.4943
   17MOL0     H 2256   2.105  10.146   4.249 -0.8348 -0.7584 -0.2063
   17MOL0     H 2257   2.221  10.050   4.150  2.6125 -2.1146  1.7221
   17MOL0     H 2258   2.232  10.059   4.330  1.4925  0.0887 -0.6237
   17MOL0     H 2259   1.942  10.515   4.354  3.2841  1.9423  0.2543
   17MOL0     H 2260   1.714  10.609   4.301 -0.7171  1.1315 -1.3180
   17MOL0     H 2261   1.694  10.937   4.110  1.0249 -2.5800  0.7533
   17MOL0     H 2262   1.698  10.893   3.937  0.9762 -0.2466  0.7353
   17MOL0     H 2263   1.452  10.907   4.126 -3.2879 -0.9353 -0.9404
   17MOL0     H 2264   1.484  11.016   4.000  1.6289 -0.7851  0.8005
   17MOL0     H 2265   1.443  10.728   3.906 -0.8120 -1.7741 -0.2265
   17MOL0     H 2266   1.459  10.872   3.814  0.9068 -2.3932 -0.1161
   17MOL0     H 2267   1.268  10.980   3.942  1.5530  0.4762 -0.0399
   17MOL0     H 2268   1.218  10.839   3.841  2.2726 -2.6090 -0.6974
   17MOL0     H 2269   1.241  10.859   4.160 -0.4436  0.5243  0.6831
   17MOL0     H 2270   1.253  10.717   4.063  0.4713  0.0879 -2.5395
   17MOL0     H 2271   1.004  10.801   4.152 -0.2159 -1.2379 -0.8053
   17MOL0     H 2272   1.005  10.894   4.016 -2.1396 -0.0345  1.4436
   17MOL0     H 2273   1.067  10.577   4.027  0.5036  0.1971 -0.2674
   17MOL0     H 2274   1.023  10.671   3.874 -0.8935  0.5488  0.8687
   17MOL0     H 2275   0.841  10.645   4.112 -1.2791  2.3160  0.2488
   17MOL0     H 2276   0.848  10.539   3.973 -1.6109 -0.2299 -0.2526
   17MOL0     H 2277   1.874  10.772   3.927  3.1291 -0.3956  0.0818
   17MOL0     H 2278   2.089  10.688   3.988  1.1591 -2.8238  0.6015
   17MOL0     H 2279   2.398  10.535   4.155  0.3429 -0.6178  0.5364
   17MOL0     H 2280   2.621  10.449   4.228  0.9170 -1.3804  0.7250
   17MOL0     H 2281   4.204   9.277   5.114  3.9285  0.2602  0.6186
   17MOL0     H 2282   4.412   9.161   5.071  0.2332  0.4972  0.3388
   17MOL0     H 2283   4.681   8.920   4.887 -0.6961  0.2729 -0.1591
   17MOL0     H 2284   4.885   8.786   4.870 -2.7983 -0.2739  1.2323
   17MOL0     H 2285   5.225   8.754   4.829 -1.9994  3.0768  0.9317
   17MOL0     H 2286   5.060   8.700   4.866 -0.4537 -1.3994 -0.1629
   17MOL0     H 2287   5.058   8.591   4.643 -2.4681 -1.0271  3.5845
   17MOL0     H 2288   5.153   8.522   4.771 -0.3443  1.2494  0.8990
   17MOL0     H 2289   5.360   8.676   4.643 -1.2658  2.7360 -2.8523
   17MOL0     H 2290   5.248   8.673   4.524 -3.3360 -3.6902 -1.4248
   17MOL0     H 2291   5.378   8.491   4.482  1.1337 -1.3055  0.3766
   17MOL0     H 2292   5.229   8.424   4.536  0.3460  1.0039  1.4264
   17MOL0     H 2293   5.466   8.237   4.814  1.4549 -1.6398 -2.4681
   17MOL0     H 2294   5.035   9.037   4.550  3.4891 -2.4688  3.0080
   17MOL0     H 2295   4.820   9.161   4.552 -1.9391 -2.7343 -2.6822
   18MOL0     O 2296   7.232   2.730   3.914  0.5967  0.1775 -0.0835
   18MOL0     C 2297   7.201   2.645   3.836  0.4189  0.6129  1.1759
   18MOL0     O 2298   7.147   2.670   3.711  0.4323  0.5322 -0.7770
   18MOL0     C 2299   7.131   2.791   3.657  0.0794 -0.8488 -0.4435
   18MOL0     C 2300   7.209   2.827   3.552 -0.3286 -0.3897  0.4714
   18MOL0     C 2301   7.204   2.956   3.503 -0.0959 -0.1978 -0.3045
   18MOL0     C 2302   7.112   3.051   3.557 -0.2173  0.0744  0.3620
   18MOL0     O 2303   7.097   3.174   3.495  0.1398  0.2280  0.0480
   18MOL0     C 2304   6.974   3.243   3.502  0.6407 -0.1024  0.1133
   18MOL0     C 2305   6.847   3.170   3.438  0.0634  0.3844 -0.1226
   18MOL0     C 2306   6.729   3.272   3.425  0.4514 -0.1087 -0.1743
   18MOL0     C 2307   6.598   3.192   3.411  0.5516 -0.5800  0.2300
   18MOL0     C 2308   6.466   3.283   3.398 -0.8279 -0.1188 -1.0847
   18MOL0     C 2309   6.489   3.388   3.284  1.3023  0.8226  0.4316
   18MOL0     C 2310   6.368   3.477   3.263  0.3778  0.2451 -0.2590
   18MOL0     C 2311   6.247   3.396   3.216  0.8213  0.1233  0.5105
   18MOL0     N 2312   6.148   3.491   3.158  0.4140 -0.4707 -0.4886
   18MOL0     C 2313   6.148   3.585   3.055  0.1819 -0.0076 -0.1054
   18MOL0     C 2314   6.011   3.607   3.031 -0.1895  0.1208 -0.4842
   18MOL0     C 2315   5.949   3.714   2.944 -0.1117 -0.1209  1.0584
   18MOL0     C 2316   5.978   3.691   2.797 -0.1569 -0.0155 -0.0136
   18MOL0     C 2317   5.874   3.595   2.742  0.0855  0.6980 -0.2657
   18MOL0     C 2318   5.837   3.470   2.820 -0.1906 -0.1756  0.0116
   18MOL0     O 2319   5.796   3.362   2.742  0.0386 -0.2964  0.9728
   18MOL0     C 2320   5.675   3.298   2.741  0.4426 -0.2716  0.0515
   18MOL0     C 2321   5.559   3.361   2.788  1.1060 -0.4316  0.1033
   18MOL0     C 2322   5.435   3.298   2.773 -0.7161  0.7520 -0.6406
   18MOL0     C 2323   5.310   3.368   2.825  0.0351  0.1434 -0.5062
   18MOL0     C 2324   5.426   3.173   2.708  0.5024 -0.7531  0.7015
   18MOL0     C 2325   5.298   3.101   2.677 -0.7806  0.6870  0.1130
   18MOL0     O 2326   5.195   3.165   2.622 -0.3958  0.2097  0.5724
   18MOL0     C 2327   5.082   3.097   2.585  1.0394 -0.2510 -0.4260
   18MOL0     C 2328   5.096   2.976   2.518  1.7009 -0.3743  0.0598
   18MOL0     C 2329   4.977   2.906   2.466  0.5913 -0.3043 -0.4393
   18MOL0     C 2330   4.847   2.956   2.499 -0.8006 -0.1963 -0.6493
   18MOL0     O 2331   4.736   2.875   2.478  0.0071 -0.2463  0.0325
   18MOL0     C 2332   4.602   2.941   2.460  0.4117  0.5152 -0.0964
   18MOL0     C 2333   4.498   2.839   2.434  0.1068 -0.2709  0.4340
   18MOL0     C 2334   4.402   2.894   2.325  0.0181 -0.3775  0.1131
   18MOL0     C 2335   4.280   2.815   2.316  0.2510 -0.4410 -0.4774
   18MOL0     C 2336   4.171   2.852   2.416 -0.6404  0.5490  0.1391
   18MOL0     C 2337   4.116   2.994   2.405  0.3095 -0.4933 -0.3131
   18MOL0     C 2338   4.084   3.051   2.272 -0.7169 -0.5756 -0.4250
   18MOL0     C 2339   3.989   2.961   2.189 -0.2076  0.1832  0.3977
   18MOL0    Cl 2340   3.820   2.964   2.241 -0.0379 -0.4077  0.5500
   18MOL0     C 2341   4.836   3.081   2.569  0.3283 -0.3371 -0.4774
   18MOL0     C 2342   4.955   3.151   2.608  0.7720  0.0692  0.0287
   18MOL0     O 2343   5.297   2.985   2.719  0.6119 -0.0569 -0.6385
   18MOL0     C 2344   5.543   3.101   2.675  0.0707 -0.0724  0.1415
   18MOL0     C 2345   5.667   3.164   2.697 -0.3229 -0.2398 -0.3376
   18MOL0     N 2346   5.935   3.523   3.107 -0.1185 -0.0039 -0.1597
   18MOL0     N 2347   6.018   3.464   3.186 -0.1271 -0.0295 -0.2177
   18MOL0     C 2348   7.029   3.014   3.665 -0.0424 -0.2324  0.4824
   18MOL0     C 2349   7.038   2.877   3.710 -0.2692  0.0099 -0.0396
   18MOL0     C 2350   7.220   2.501   3.864  0.0408  0.5401 -0.5264
   18MOL0     C 2351   7.310   2.464   3.967 -0.9416  1.4382 -0.1733
   18MOL0     C 2352   7.332   2.324   3.992 -0.0927 -0.2701  0.4709
   18MOL0     C 2353   7.277   2.229   3.911  1.5077 -0.7526 -0.8360
   18MOL0     O 2354   7.305   2.094   3.915 -0.0086  0.3279 -0.0769
   18MOL0     C 2355   7.402   2.025   3.996  0.1578 -1.1531  0.1206
   18MOL0     C 2356   7.395   1.883   3.963 -0.1316  1.0269 -0.1610
   18MOL0     C 2357   7.488   1.802   4.054 -0.6636 -0.0865  0.1547
   18MOL0     C 2358   7.488   1.652   4.014 -0.1271 -0.8407 -0.0494
   18MOL0     C 2359   7.604   1.583   4.068 -0.4875 -0.3391  0.1585
   18MOL0     C 2360   7.705   1.527   4.101  0.1531  0.1526 -0.2137
   18MOL0     C 2361   7.173   2.271   3.824 -0.0679  0.5645  0.0010
   18MOL0     C 2362   7.153   2.406   3.795 -0.0719 -0.4592  0.1079
   18MOL0     H 2363   7.281   2.758   3.510  0.9179  1.4608 -0.5679
   18MOL0     H 2364   7.273   2.969   3.420  0.2426  2.1207  0.2575
   18MOL0     H 2365   6.937   3.256   3.604 -2.0642  1.7737 -1.0175
   18MOL0     H 2366   6.993   3.342   3.460  0.8241  0.7910  2.1766
   18MOL0     H 2367   6.870   3.145   3.334 -0.7796 -0.4468 -0.1185
   18MOL0     H 2368   6.823   3.082   3.498 -1.0161  0.3719 -0.5500
   18MOL0     H 2369   6.715   3.332   3.515  0.3412 -0.1019 -0.1962
   18MOL0     H 2370   6.744   3.343   3.344  2.0830  1.5643  1.4923
   18MOL0     H 2371   6.609   3.120   3.330  4.1120  0.9871 -0.8882
   18MOL0     H 2372   6.579   3.124   3.494 -2.1966 -0.7348 -0.4009
   18MOL0     H 2373   6.368   3.233   3.391 -0.7070 -0.8941  1.6045
   18MOL0     H 2374   6.456   3.339   3.492  2.5193  0.2794 -0.8566
   18MOL0     H 2375   6.573   3.457   3.298  1.8757  0.9812 -2.9138
   18MOL0     H 2376   6.488   3.323   3.196 -3.7246  0.2834  0.5745
   18MOL0     H 2377   6.342   3.538   3.350 -4.2131 -0.1685 -1.0491
   18MOL0     H 2378   6.403   3.551   3.190  0.2880  0.2932 -0.2541
   18MOL0     H 2379   6.193   3.339   3.292 -1.0050  1.2229  0.1048
   18MOL0     H 2380   6.278   3.324   3.140  2.4290  2.2607 -1.0204
   18MOL0     H 2381   6.226   3.644   3.007 -1.0698  1.2236 -0.7162
   18MOL0     H 2382   5.843   3.727   2.964 -0.5159 -1.3754 -0.1294
   18MOL0     H 2383   5.981   3.815   2.971 -1.0124  0.3176  0.5146
   18MOL0     H 2384   6.077   3.652   2.775  0.0978  1.0221 -0.8278
   18MOL0     H 2385   5.980   3.789   2.747 -0.4473 -0.2577 -0.5084
   18MOL0     H 2386   5.913   3.571   2.644  0.1253 -1.4414  0.2367
   18MOL0     H 2387   5.781   3.648   2.719  0.8688  2.3121  0.1052
   18MOL0     H 2388   5.770   3.499   2.902  0.4131 -2.4309  1.3788
   18MOL0     H 2389   5.924   3.427   2.871 -0.5898 -3.4658 -1.7831
   18MOL0     H 2390   5.563   3.458   2.836  0.0411  0.5593 -1.6900
   18MOL0     H 2391   5.346   3.449   2.889 -0.6660  0.4171 -0.4574
   18MOL0     H 2392   5.246   3.416   2.750 -0.0463 -0.7206 -1.0031
   18MOL0     H 2393   5.266   3.285   2.880  4.8732 -2.5343 -0.0864
   18MOL0     H 2394   5.194   2.943   2.485  0.1697 -0.9766 -4.5764
   18MOL0     H 2395   4.996   2.828   2.393 -0.0465  0.1512 -1.1061
   18MOL0     H 2396   4.569   2.981   2.556  0.7890 -1.6070  0.9658
   18MOL0     H 2397   4.601   3.009   2.373 -3.0331  1.1632  0.3230
   18MOL0     H 2398   4.551   2.750   2.399  0.2551 -0.7969  1.9338
   18MOL0     H 2399   4.439   2.822   2.524 -0.2706  1.1287  0.4699
   18MOL0     H 2400   4.453   2.880   2.229 -0.2761  2.1072 -0.4522
   18MOL0     H 2401   4.383   3.001   2.336 -3.2634 -0.5227 -2.5765
   18MOL0     H 2402   4.239   2.821   2.215 -1.5143  0.5933  0.2448
   18MOL0     H 2403   4.301   2.709   2.330 -0.3709 -0.8269 -2.2702
   18MOL0     H 2404   4.210   2.837   2.517 -0.2573 -0.1621 -0.1081
   18MOL0     H 2405   4.091   2.778   2.405 -0.5682  0.0530  2.4596
   18MOL0     H 2406   4.029   2.998   2.472  0.4500 -5.2623  0.4572
   18MOL0     H 2407   4.179   3.067   2.456  0.8437 -0.6252 -0.7754
   18MOL0     H 2408   4.175   3.084   2.221 -1.1346 -0.2588 -0.9698
   18MOL0     H 2409   4.028   3.143   2.290 -1.9611 -1.4202  0.1337
   18MOL0     H 2410   4.017   2.857   2.172 -3.7551 -0.6573 -1.1846
   18MOL0     H 2411   3.997   3.000   2.087  3.3809 -0.5636  0.2701
   18MOL0     H 2412   4.739   3.119   2.598 -0.9229 -3.5990 -0.0133
   18MOL0     H 2413   4.952   3.244   2.665 -1.3701 -0.8592  1.5575
   18MOL0     H 2414   5.532   2.998   2.643 -0.9786 -0.5293  1.8673
   18MOL0     H 2415   5.757   3.105   2.681 -0.6833 -0.3787 -2.0034
   18MOL0     H 2416   6.962   3.085   3.713 -0.7350 -0.2819 -0.4077
   18MOL0     H 2417   6.974   2.837   3.788 -0.8405 -1.8229 -1.3729
   18MOL0     H 2418   7.370   2.548   4.001 -1.6643  2.1522 -0.6179
   18MOL0     H 2419   7.410   2.315   4.066  1.0402  2.7821 -0.2311
   18MOL0     H 2420   7.502   2.058   3.966  0.8154 -0.7126  2.6012
   18MOL0     H 2421   7.384   2.050   4.101  1.5489 -1.3615  0.4285
   18MOL0     H 2422   7.426   1.866   3.860  1.6013  1.5924  0.2284
   18MOL0     H 2423   7.289   1.855   3.969 -0.0855  0.3068 -2.0487
   18MOL0     H 2424   7.463   1.809   4.160 -1.1131  1.3032 -0.0129
   18MOL0     H 2425   7.590   1.841   4.046 -0.8900  0.4981  0.0605
   18MOL0     H 2426   7.498   1.646   3.905  0.4562  2.2392 -0.2632
   18MOL0     H 2427   7.399   1.599   4.048  0.4410  0.6363  4.2832
   18MOL0     H 2428   7.803   1.501   4.135  0.6723  1.6119 -0.5386
   18MOL0     H 2429   7.113   2.206   3.761  0.6554  1.0694 -1.2476
   18MOL0     H 2430   7.085   2.427   3.713 -0.1453 -0.6666  0.1163
   19MOL0     O 2431   5.839   8.629   2.112 -0.3049  0.4959  0.4143
   19MOL0     C 2432   5.819   8.614   1.992  0.5896  0.3482 -0.0632
   19MOL0     O 2433   5.701   8.605   1.936 -0.0918 -0.1950  0.1018
   19MOL0     C 2434   5.585   8.606   2.007 -0.4134 -0.9060 -0.2817
   19MOL0     C 2435   5.499   8.501   1.974  0.4618 -0.5038 -0.1505
   19MOL0     C 2436   5.382   8.488   2.047  0.5029  0.4682  0.1070
   19MOL0     C 2437   5.347   8.573   2.158  0.0910  0.5191  0.0146
   19MOL0     O 2438   5.237   8.564   2.241  0.3262 -0.5416  0.0643
   19MOL0     C 2439   5.112   8.512   2.190  0.0776  0.2757 -0.2279
   19MOL0     C 2440   4.983   8.490   2.284  0.2885  0.1553  0.5645
   19MOL0     C 2441   4.866   8.430   2.201 -0.4504 -0.6978 -0.0732
   19MOL0     C 2442   4.819   8.523   2.085 -0.2822 -1.0394  0.2551
   19MOL0     C 2443   4.678   8.478   2.039  0.3331 -0.0586 -0.4233
   19MOL0     C 2444   4.580   8.465   2.153 -0.5042  0.9222  0.1959
   19MOL0     C 2445   4.443   8.493   2.089 -0.3271  0.2311  0.1486
   19MOL0     C 2446   4.327   8.477   2.184  0.0133 -0.1649 -1.0572
   19MOL0     N 2447   4.206   8.531   2.125 -0.8854  1.2143 -0.8992
   19MOL0     C 2448   4.083   8.532   2.190 -0.0541  0.3961 -0.0508
   19MOL0     C 2449   3.991   8.584   2.104 -0.1853  0.3893 -0.7061
   19MOL0     C 2450   3.844   8.615   2.127  0.0829 -0.2969  0.5549
   19MOL0     C 2451   3.796   8.562   2.261 -0.1446  0.1677  0.0525
   19MOL0     C 2452   3.640   8.575   2.279 -0.2787  0.1583 -0.4252
   19MOL0     C 2453   3.580   8.439   2.341 -0.5731 -0.6949  0.4417
   19MOL0     O 2454   3.450   8.470   2.371  0.5177 -1.0871 -0.4218
   19MOL0     C 2455   3.358   8.367   2.378 -1.6070 -0.1373  0.3156
   19MOL0     C 2456   3.397   8.235   2.388  0.3671 -1.1783 -0.1123
   19MOL0     C 2457   3.300   8.132   2.381  0.2785 -0.4153  0.9187
   19MOL0     C 2458   3.353   7.999   2.400 -0.1313  1.2559  0.0199
   19MOL0     C 2459   3.160   8.160   2.338  0.6787 -0.5431  1.4977
   19MOL0     C 2460   3.058   8.055   2.313  0.4664  0.0329  0.4630
   19MOL0     O 2461   2.936   8.105   2.301  0.3555 -0.0973 -0.3174
   19MOL0     C 2462   2.830   8.025   2.320  0.5455  0.0725 -0.3867
   19MOL0     C 2463   2.800   7.977   2.451 -0.1755 -0.3056  0.0635
   19MOL0     C 2464   2.681   7.919   2.480 -0.0118  0.3161  0.1448
   19MOL0     C 2465   2.593   7.898   2.372  0.4755  0.0278 -0.2902
   19MOL0     O 2466   2.475   7.827   2.406  0.1970  0.2313  0.3474
   19MOL0     C 2467   2.357   7.826   2.322 -1.3090  0.2201  0.2484
   19MOL0     C 2468   2.261   7.712   2.361  0.7649  0.6360  0.2785
   19MOL0     C 2469   2.142   7.704   2.265 -0.3505  0.5618 -0.4378
   19MOL0     C 2470   2.061   7.574   2.257  0.0082  0.0542  0.1381
   19MOL0     C 2471   1.952   7.588   2.143 -1.1947 -0.2302 -0.7422
   19MOL0     C 2472   1.916   7.449   2.080 -0.8366 -0.2379 -0.2804
   19MOL0     C 2473   1.825   7.385   2.185 -0.0006 -0.9172 -0.5911
   19MOL0     C 2474   1.830   7.233   2.164 -0.1909 -0.5690 -0.1103
   19MOL0    Cl 2475   1.799   7.173   1.996  0.6117  0.4512 -0.3741
   19MOL0     C 2476   2.622   7.936   2.245 -0.0412 -0.9404  0.2891
   19MOL0     C 2477   2.745   7.997   2.214 -0.4725 -0.3516  0.2766
   19MOL0     O 2478   3.091   7.939   2.298  0.3784  0.0648 -0.2868
   19MOL0     C 2479   3.129   8.295   2.338  0.5455 -0.1429 -0.0179
   19MOL0     C 2480   3.222   8.395   2.354 -0.1682  0.2875  0.2924
   19MOL0     N 2481   4.060   8.613   1.982 -0.4662  0.8724 -0.1314
   19MOL0     N 2482   4.189   8.583   2.001  0.8798  0.2196  0.1727
   19MOL0     C 2483   5.428   8.683   2.191  0.0000 -0.5577  0.2556
   19MOL0     C 2484   5.550   8.695   2.117  0.5708  0.3036  0.6163
   19MOL0     C 2485   5.932   8.592   1.911 -0.2722 -0.2143 -0.5853
   19MOL0     C 2486   5.919   8.589   1.771 -0.0101  1.0529  0.4533
   19MOL0     C 2487   6.026   8.553   1.693  0.0359  0.8273  0.2628
   19MOL0     C 2488   6.147   8.518   1.750 -0.3453  0.7992  0.0650
   19MOL0     O 2489   6.238   8.462   1.660 -0.4253 -0.2321 -0.1300
   19MOL0     C 2490   6.364   8.399   1.695  0.1628  0.0433 -1.3622
   19MOL0     C 2491   6.476   8.505   1.735  0.6036  0.4044 -0.7463
   19MOL0     C 2492   6.604   8.433   1.771  0.7482  0.0919  0.1288
   19MOL0     C 2493   6.718   8.533   1.794  0.3018 -0.3954 -0.6972
   19MOL0     C 2494   6.811   8.489   1.897  1.0031  0.2517 -0.0573
   19MOL0     C 2495   6.886   8.439   1.985 -0.5816  0.3935  0.2394
   19MOL0     C 2496   6.168   8.542   1.889 -1.0562 -0.3497  0.2274
   19MOL0     C 2497   6.062   8.582   1.969 -0.0538 -0.7133  0.8266
   19MOL0     H 2498   5.534   8.432   1.897 -1.2705  1.0475 -2.4675
   19MOL0     H 2499   5.322   8.403   2.015  0.1075 -0.3054  2.6364
   19MOL0     H 2500   5.083   8.569   2.101  0.3229  0.3321 -0.2709
   19MOL0     H 2501   5.142   8.412   2.158 -0.2060 -0.2312  1.0261
   19MOL0     H 2502   5.005   8.419   2.365 -1.6120 -1.2370 -0.0479
   19MOL0     H 2503   4.937   8.574   2.335 -0.2620  0.1427  0.0984
   19MOL0     H 2504   4.881   8.331   2.158 -0.2897  0.3692 -2.6656
   19MOL0     H 2505   4.796   8.416   2.284  0.7545 -1.4307  0.8460
   19MOL0     H 2506   4.811   8.625   2.127 -1.9172 -0.3967 -1.4811
   19MOL0     H 2507   4.892   8.533   2.005  1.9501  0.7050  2.3224
   19MOL0     H 2508   4.645   8.550   1.964 -1.2915  1.5392  1.7261
   19MOL0     H 2509   4.686   8.382   1.987 -2.5840 -0.6064 -0.0148
   19MOL0     H 2510   4.578   8.365   2.196  1.0691  1.6817  2.2183
   19MOL0     H 2511   4.600   8.537   2.234 -0.5191 -0.4116  1.4300
   19MOL0     H 2512   4.455   8.590   2.040  2.6526 -0.3738 -0.5194
   19MOL0     H 2513   4.422   8.424   2.006  2.5037  1.8709 -2.1168
   19MOL0     H 2514   4.352   8.529   2.277  1.7160 -0.1821 -1.4740
   19MOL0     H 2515   4.304   8.376   2.218 -3.3419  1.1472  1.0337
   19MOL0     H 2516   4.068   8.504   2.294  1.9032  1.3228  0.5471
   19MOL0     H 2517   3.816   8.720   2.120  1.0868 -0.1082 -0.9785
   19MOL0     H 2518   3.794   8.552   2.052  0.8776 -1.6916  1.1508
   19MOL0     H 2519   3.844   8.602   2.351 -1.2069  1.4362  0.0795
   19MOL0     H 2520   3.810   8.454   2.251  0.4589  0.3152 -0.7557
   19MOL0     H 2521   3.599   8.601   2.182  0.7633  1.5607 -0.5153
   19MOL0     H 2522   3.632   8.660   2.347 -0.5919 -0.3145  0.1460
   19MOL0     H 2523   3.638   8.406   2.428 -0.4020  0.7129  0.8820
   19MOL0     H 2524   3.578   8.362   2.263  0.6563  1.6155 -2.0473
   19MOL0     H 2525   3.500   8.204   2.400  1.4500  0.8688 -2.9374
   19MOL0     H 2526   3.287   7.942   2.465 -0.2725  0.4212 -0.8288
   19MOL0     H 2527   3.348   7.942   2.307 -0.6678 -0.2849  0.9604
   19MOL0     H 2528   3.458   7.997   2.432 -0.2154  0.8288  0.2803
   19MOL0     H 2529   2.867   8.002   2.533 -1.1240  0.4917  0.6238
   19MOL0     H 2530   2.649   7.878   2.575 -0.2310  3.3388  1.5199
   19MOL0     H 2531   2.302   7.920   2.333 -1.2330  0.0896  1.8898
   19MOL0     H 2532   2.396   7.813   2.220  1.9544  1.2792  1.2555
   19MOL0     H 2533   2.310   7.616   2.343  1.0910  0.3790  2.3642
   19MOL0     H 2534   2.221   7.717   2.462  1.4682  1.4621  0.5324
   19MOL0     H 2535   2.189   7.723   2.168  0.3096  1.1307 -0.0059
   19MOL0     H 2536   2.077   7.787   2.293 -1.5184  1.1603 -4.3361
   19MOL0     H 2537   2.130   7.492   2.238 -1.5019 -1.5919  1.4184
   19MOL0     H 2538   2.010   7.554   2.352 -0.5726  4.3237  0.9337
   19MOL0     H 2539   1.988   7.657   2.066 -0.0421 -0.4885 -0.4423
   19MOL0     H 2540   1.867   7.641   2.187  0.0699 -0.5770  2.4367
   19MOL0     H 2541   1.867   7.469   1.984 -0.8546 -0.1581 -0.2549
   19MOL0     H 2542   2.001   7.381   2.067 -0.4660 -0.0165  0.8801
   19MOL0     H 2543   1.723   7.426   2.189  0.7951  1.6396 -3.1475
   19MOL0     H 2544   1.866   7.400   2.286  1.9585  0.2519 -1.5099
   19MOL0     H 2545   1.754   7.184   2.225 -0.0763  1.4914  1.8118
   19MOL0     H 2546   1.926   7.191   2.193  0.7995  0.2537 -2.0077
   19MOL0     H 2547   2.555   7.920   2.161  1.9871  2.4084 -2.2270
   19MOL0     H 2548   2.759   8.030   2.111 -0.4777 -0.8691  0.1070
   19MOL0     H 2549   3.026   8.322   2.322 -0.0996 -1.4761  1.6082
   19MOL0     H 2550   3.192   8.499   2.343  2.1799  1.2836  2.3607
   19MOL0     H 2551   5.404   8.763   2.259 -0.4182  0.6260 -1.2237
   19MOL0     H 2552   5.622   8.772   2.143  1.4519 -0.6486  1.0632
   19MOL0     H 2553   5.825   8.602   1.719 -0.5581 -2.8583  0.1559
   19MOL0     H 2554   6.005   8.548   1.586  1.0772  0.8087  0.0529
   19MOL0     H 2555   6.339   8.332   1.778 -1.6616  0.1968 -1.7340
   19MOL0     H 2556   6.412   8.346   1.612  2.0310 -0.7928  0.1721
   19MOL0     H 2557   6.438   8.580   1.805 -3.0693  1.7677 -3.8355
   19MOL0     H 2558   6.500   8.573   1.653 -0.2880  1.8531  0.1554
   19MOL0     H 2559   6.628   8.361   1.692  1.3087 -0.2913  0.6459
   19MOL0     H 2560   6.589   8.380   1.865 -0.2687 -1.0179 -0.6306
   19MOL0     H 2561   6.681   8.633   1.819  3.0888  1.4373 -3.2307
   19MOL0     H 2562   6.771   8.540   1.699  1.5975  0.0188  0.0297
   19MOL0     H 2563   6.941   8.381   2.057 -1.3782  2.1114  2.3251
   19MOL0     H 2564   6.270   8.542   1.926 -1.0665  1.6511  0.3850
   19MOL0     H 2565   6.075   8.614   2.071 -2.0984  2.4449  0.2557
   20MOL0     O 2566   6.845   5.866   9.011 -0.2090  0.4885 -1.4193
   20MOL0     C 2567   6.796   5.914   8.910 -0.1940  0.5979 -0.4672
   20MOL0     O 2568   6.674   5.953   8.893  0.2205 -0.5172  0.1289
   20MOL0     C 2569   6.576   5.968   8.995 -0.0819  0.8722  0.2883
   20MOL0     C 2570   6.558   5.880   9.106  1.7177 -0.1857 -0.4990
   20MOL0     C 2571   6.445   5.898   9.187  0.6071 -0.0526  0.4582
   20MOL0     C 2572   6.346   5.990   9.163  0.0042 -0.5193  0.4441
   20MOL0     O 2573   6.235   6.020   9.237  0.3323 -0.5152  0.0729
   20MOL0     C 2574   6.162   5.903   9.266  0.4316 -0.0478 -0.8525
   20MOL0     C 2575   6.013   5.943   9.277 -0.7251 -0.1201 -0.2940
   20MOL0     C 2576   5.961   5.968   9.416 -0.1056 -0.6078 -0.1836
   20MOL0     C 2577   5.822   6.023   9.412 -0.7828 -0.0643  0.1338
   20MOL0     C 2578   5.752   6.033   9.546  0.4096  0.2978 -0.7152
   20MOL0     C 2579   5.636   6.136   9.557 -1.6647 -0.3040 -0.7347
   20MOL0     C 2580   5.509   6.093   9.481 -0.0270 -0.1189 -0.0750
   20MOL0     C 2581   5.396   6.195   9.475  0.9829  0.0066  0.4513
   20MOL0     N 2582   5.274   6.137   9.403 -0.4535 -0.9030 -0.4553
   20MOL0     C 2583   5.189   6.048   9.466  0.4540 -0.1354  0.4493
   20MOL0     C 2584   5.108   6.008   9.367  0.8120 -0.0799 -0.2546
   20MOL0     C 2585   5.011   5.899   9.391  0.7820  0.9508  0.9243
   20MOL0     C 2586   5.085   5.779   9.338  0.0179 -0.2231  0.4292
   20MOL0     C 2587   5.002   5.644   9.326  0.0289 -1.0896  0.1779
   20MOL0     C 2588   5.076   5.541   9.245 -0.6708  0.5563 -0.9898
   20MOL0     O 2589   5.072   5.566   9.107  0.0774  0.0099 -0.1887
   20MOL0     C 2590   4.954   5.564   9.036  0.2324  0.3668  0.3032
   20MOL0     C 2591   4.959   5.595   8.900 -0.3903 -0.7407 -0.0712
   20MOL0     C 2592   4.849   5.607   8.816 -0.3655  0.9008 -0.2215
   20MOL0     C 2593   4.868   5.644   8.667  0.2251  0.2764  0.6491
   20MOL0     C 2594   4.721   5.570   8.869  0.6583 -0.5190  0.5683
   20MOL0     C 2595   4.591   5.578   8.806  0.6943  0.2110  1.0530
   20MOL0     O 2596   4.503   5.486   8.836  0.3669  0.5102 -0.1948
   20MOL0     C 2597   4.379   5.490   8.764 -0.1787 -0.1904  0.2896
   20MOL0     C 2598   4.281   5.584   8.799 -0.8754  0.0804 -0.0117
   20MOL0     C 2599   4.166   5.595   8.724 -0.1820  0.2345 -0.7864
   20MOL0     C 2600   4.145   5.506   8.618  1.0002 -1.4025  0.6715
   20MOL0     O 2601   4.021   5.493   8.561 -0.3863  0.0333 -0.4161
   20MOL0     C 2602   3.951   5.605   8.507  0.0739  0.7652  1.1309
   20MOL0     C 2603   3.815   5.571   8.433 -0.3125  0.4067  0.0132
   20MOL0     C 2604   3.726   5.683   8.417 -0.8773 -0.0069  0.9024
   20MOL0     C 2605   3.585   5.639   8.367 -0.1986  0.1951  0.1992
   20MOL0     C 2606   3.523   5.772   8.311 -0.1313  0.2121  0.0510
   20MOL0     C 2607   3.550   5.793   8.163  1.0518 -0.2637 -0.2458
   20MOL0     C 2608   3.416   5.845   8.106 -0.6611  0.5931 -0.3932
   20MOL0     C 2609   3.420   5.868   7.958  0.0648 -0.3586  0.4662
   20MOL0    Cl 2610   3.268   5.899   7.868 -0.5891 -0.3701  0.3033
   20MOL0     C 2611   4.243   5.419   8.574  0.8123  0.5108 -0.1441
   20MOL0     C 2612   4.363   5.407   8.649  0.3333 -0.4430  0.1842
   20MOL0     O 2613   4.570   5.671   8.726 -0.2898 -0.4041 -0.8071
   20MOL0     C 2614   4.725   5.531   9.004  0.4367 -1.0049  0.9295
   20MOL0     C 2615   4.833   5.525   9.079  0.3999 -0.2370 -0.0581
   20MOL0     N 2616   5.139   6.063   9.251  0.0673 -0.0813  0.1899
   20MOL0     N 2617   5.238   6.153   9.272 -0.6095 -0.5555  0.2692
   20MOL0     C 2618   6.381   6.093   9.070  0.3665  0.2725  0.3421
   20MOL0     C 2619   6.487   6.075   8.977 -0.1497 -0.0439 -0.0340
   20MOL0     C 2620   6.883   5.901   8.795 -0.7004 -1.0360 -0.9169
   20MOL0     C 2621   7.011   5.843   8.792  0.0026 -0.7726 -0.0258
   20MOL0     C 2622   7.089   5.852   8.679 -0.0554  0.1741  0.5058
   20MOL0     C 2623   7.045   5.919   8.564  0.0987  0.2567  0.4544
   20MOL0     O 2624   7.110   5.954   8.448 -0.5217  0.1917 -0.0599
   20MOL0     C 2625   7.254   5.953   8.452  0.0640  0.1452 -0.1989
   20MOL0     C 2626   7.333   5.969   8.322 -0.8409 -0.1444  0.5745
   20MOL0     C 2627   7.487   5.980   8.348  0.4707 -0.3293 -1.2213
   20MOL0     C 2628   7.553   5.847   8.388  0.9842 -0.3711  0.4408
   20MOL0     C 2629   7.556   5.770   8.261  0.2018  0.0222 -0.0971
   20MOL0     C 2630   7.572   5.694   8.165  0.9332  0.4258 -0.9010
   20MOL0     C 2631   6.915   5.972   8.567  0.0466  0.5274  0.2722
   20MOL0     C 2632   6.834   5.964   8.676  0.2576  0.7172  1.0684
   20MOL0     H 2633   6.625   5.796   9.120  0.7611 -1.5181 -3.1612
   20MOL0     H 2634   6.423   5.826   9.264  0.0748 -0.7062 -0.2889
   20MOL0     H 2635   6.161   5.824   9.190 -2.8320 -1.1370  0.1357
   20MOL0     H 2636   6.195   5.868   9.364 -0.1265  0.5337 -0.4495
   20MOL0     H 2637   6.001   6.031   9.213 -1.4435  1.8689  2.4417
   20MOL0     H 2638   5.950   5.866   9.231 -3.1405  1.5553  0.0220
   20MOL0     H 2639   5.953   5.877   9.478 -3.6399 -0.4548 -0.2206
   20MOL0     H 2640   6.032   6.040   9.457 -0.4807  0.9204 -2.1026
   20MOL0     H 2641   5.837   6.118   9.360 -2.1388  0.9782  1.5718
   20MOL0     H 2642   5.757   5.966   9.344 -0.2259 -1.7713  0.9832
   20MOL0     H 2643   5.713   5.936   9.580  0.2325  1.4069  2.6127
   20MOL0     H 2644   5.813   6.069   9.630 -1.4321  0.2162  0.7394
   20MOL0     H 2645   5.613   6.150   9.663 -1.0848  1.8654 -0.8284
   20MOL0     H 2646   5.676   6.230   9.517  1.0521 -0.7314  0.7651
   20MOL0     H 2647   5.516   6.063   9.376 -0.4188 -0.7876  0.0857
   20MOL0     H 2648   5.469   6.004   9.530 -1.5902 -0.5056 -1.9587
   20MOL0     H 2649   5.424   6.273   9.404  0.3917 -0.4215 -0.2552
   20MOL0     H 2650   5.375   6.236   9.574 -2.7625 -1.2223  0.3014
   20MOL0     H 2651   5.177   6.018   9.570 -0.9262  0.0708  0.3550
   20MOL0     H 2652   4.981   5.894   9.496  3.2394  1.3485  1.7063
   20MOL0     H 2653   4.924   5.908   9.325  1.5313 -2.9649 -0.9428
   20MOL0     H 2654   5.180   5.777   9.393  1.0283  0.3305 -1.2188
   20MOL0     H 2655   5.117   5.804   9.236  0.9671 -1.0202  0.5118
   20MOL0     H 2656   4.905   5.672   9.283  1.4809 -0.3410 -2.9077
   20MOL0     H 2657   4.998   5.620   9.432 -0.9751  2.2066  1.0067
   20MOL0     H 2658   5.011   5.455   9.265 -3.5159  2.2811 -2.2534
   20MOL0     H 2659   5.175   5.524   9.287 -0.6170 -0.7293 -1.5771
   20MOL0     H 2660   5.059   5.609   8.861 -0.6960 -0.9078 -0.9369
   20MOL0     H 2661   4.826   5.742   8.642 -2.1956 -0.9530 -0.4069
   20MOL0     H 2662   4.973   5.636   8.640 -0.2314  0.1735 -1.2308
   20MOL0     H 2663   4.814   5.573   8.603  4.4985  1.1650 -4.7206
   20MOL0     H 2664   4.293   5.654   8.881  0.4870  2.7055 -2.2881
   20MOL0     H 2665   4.099   5.678   8.744  0.7635  1.2717 -1.7647
   20MOL0     H 2666   3.932   5.668   8.594  0.8165  0.8450  1.2393
   20MOL0     H 2667   4.015   5.662   8.439 -2.4786  2.7258  0.1848
   20MOL0     H 2668   3.847   5.531   8.337  0.2688 -6.3611  2.5350
   20MOL0     H 2669   3.766   5.497   8.497  0.6145  0.9965  1.4620
   20MOL0     H 2670   3.762   5.763   8.352 -2.6676  0.7156  0.7469
   20MOL0     H 2671   3.722   5.745   8.507 -0.1506  4.3748 -1.7750
   20MOL0     H 2672   3.599   5.564   8.288 -0.2087 -1.5823  1.8168
   20MOL0     H 2673   3.529   5.600   8.452  0.7421  2.0885  1.7720
   20MOL0     H 2674   3.565   5.858   8.364  2.3633 -0.1738 -1.1425
   20MOL0     H 2675   3.415   5.761   8.326 -0.0159 -0.4253  0.4603
   20MOL0     H 2676   3.625   5.871   8.146  1.3563 -0.8208 -1.5299
   20MOL0     H 2677   3.572   5.700   8.109  3.1099  1.7145 -3.1402
   20MOL0     H 2678   3.389   5.934   8.164 -1.3231 -0.7450  1.4734
   20MOL0     H 2679   3.340   5.767   8.112 -0.8075  0.6571 -1.3064
   20MOL0     H 2680   3.469   5.783   7.910 -0.0546 -0.8196  1.1431
   20MOL0     H 2681   3.493   5.948   7.939  2.3427 -2.4177 -0.0217
   20MOL0     H 2682   4.224   5.344   8.498 -0.9879 -0.5619  1.2802
   20MOL0     H 2683   4.437   5.329   8.633  1.0439 -0.0508  1.4795
   20MOL0     H 2684   4.634   5.497   9.053 -0.3943 -1.1001 -0.6077
   20MOL0     H 2685   4.819   5.487   9.180  1.9371 -4.0091 -1.0902
   20MOL0     H 2686   6.314   6.176   9.054 -0.0168 -0.2922 -1.1685
   20MOL0     H 2687   6.504   6.149   8.900  0.3366  0.8583  0.9139
   20MOL0     H 2688   7.058   5.811   8.884  0.7861  0.1440 -0.0887
   20MOL0     H 2689   7.188   5.808   8.695  0.8353  2.1864  0.7867
   20MOL0     H 2690   7.284   6.040   8.512  0.0025 -0.0287  0.0847
   20MOL0     H 2691   7.298   5.861   8.492 -0.5079  0.6912  1.7957
   20MOL0     H 2692   7.300   6.057   8.266 -0.0138 -1.2974 -1.8510
   20MOL0     H 2693   7.296   5.882   8.268 -1.2445  0.1155  0.4313
   20MOL0     H 2694   7.504   6.041   8.437  1.0414 -4.7577  2.0417
   20MOL0     H 2695   7.537   6.022   8.260 -0.2182  1.9289 -0.6126
   20MOL0     H 2696   7.488   5.788   8.452 -1.3044  0.2341 -1.2028
   20MOL0     H 2697   7.658   5.865   8.415  0.6363  4.5586 -0.4356
   20MOL0     H 2698   7.591   5.619   8.091 -2.8207 -2.2508  0.5334
   20MOL0     H 2699   6.885   6.039   8.488  1.4672  1.2837  0.3355
   20MOL0     H 2700   6.732   6.002   8.680 -0.0021  0.3426 -1.0514
   21MOL0     O 2701   7.565   4.355   5.321  0.0164  0.3606 -0.5182
   21MOL0     C 2702   7.523   4.307   5.211 -0.8955  0.3060 -0.2015
   21MOL0     O 2703   7.398   4.283   5.184  0.7201 -0.2388 -0.2435
   21MOL0     C 2704   7.303   4.384   5.220 -1.0139  0.8064 -0.4111
   21MOL0     C 2705   7.335   4.525   5.247 -0.5586 -0.3581 -0.0358
   21MOL0     C 2706   7.243   4.615   5.267  0.2225 -0.4375 -0.7236
   21MOL0     C 2707   7.108   4.578   5.257  0.3133 -0.9988  0.3301
   21MOL0     O 2708   7.015   4.675   5.242  0.2647  0.5477 -0.6523
   21MOL0     C 2709   7.023   4.804   5.309 -0.5199 -0.4847  0.8483
   21MOL0     C 2710   6.880   4.846   5.337  0.7548 -0.2394  0.6767
   21MOL0     C 2711   6.828   4.770   5.455 -0.2890  0.6906 -0.7291
   21MOL0     C 2712   6.690   4.803   5.492 -0.6553  0.3270 -1.0042
   21MOL0     C 2713   6.671   4.771   5.639  1.0769  0.3974 -0.0730
   21MOL0     C 2714   6.523   4.780   5.693  0.0463  0.3732 -0.3678
   21MOL0     C 2715   6.421   4.692   5.615  0.0551 -0.5678  0.8969
   21MOL0     C 2716   6.450   4.541   5.639 -0.6000 -0.8491  0.1535
   21MOL0     N 2717   6.330   4.463   5.597 -0.1720  0.6444 -0.0618
   21MOL0     C 2718   6.203   4.477   5.645  0.0620  0.2434 -0.8093
   21MOL0     C 2719   6.122   4.391   5.573 -1.5196 -0.0275 -0.8855
   21MOL0     C 2720   5.982   4.357   5.627 -0.2494  0.0875 -0.4335
   21MOL0     C 2721   6.006   4.289   5.764  0.7653  0.4161  0.1605
   21MOL0     C 2722   5.884   4.222   5.827  0.9560 -1.3111  0.6636
   21MOL0     C 2723   5.915   4.148   5.951  0.5373 -0.6976  0.4984
   21MOL0     O 2724   5.826   4.036   5.961  0.1233 -1.0157 -0.0711
   21MOL0     C 2725   5.874   3.924   6.020  0.1847 -0.4990 -0.2776
   21MOL0     C 2726   5.968   3.924   6.125  0.6706  0.3356  0.2660
   21MOL0     C 2727   6.027   3.807   6.170 -0.2148 -0.5028 -0.4836
   21MOL0     C 2728   6.136   3.818   6.274 -0.8060 -0.3202 -0.2881
   21MOL0     C 2729   5.980   3.682   6.120  1.0789  0.3174  0.8571
   21MOL0     C 2730   6.023   3.549   6.163 -0.7885 -0.1012 -0.0662
   21MOL0     O 2731   5.996   3.453   6.062 -0.1372 -0.3210  0.7266
   21MOL0     C 2732   6.011   3.317   6.078 -0.3284 -0.0732 -0.5632
   21MOL0     C 2733   6.112   3.249   5.992  0.3649 -0.3967  1.0819
   21MOL0     C 2734   6.133   3.113   6.008 -0.2101  0.6684  0.7852
   21MOL0     C 2735   6.055   3.031   6.100 -0.1591 -0.7343  0.8705
   21MOL0     O 2736   6.075   2.898   6.104  0.0240  0.1057  0.0264
   21MOL0     C 2737   6.106   2.826   6.228  0.3582  1.3943  0.6356
   21MOL0     C 2738   6.234   2.869   6.278  0.3099  0.3471  0.2009
   21MOL0     C 2739   6.277   2.787   6.405 -0.8309 -0.4473  0.6483
   21MOL0     C 2740   6.438   2.781   6.414 -0.4662  0.0189 -0.4221
   21MOL0     C 2741   6.512   2.918   6.405  0.1628 -0.5117 -0.0647
   21MOL0     C 2742   6.667   2.888   6.396 -1.3149  0.3299 -0.5104
   21MOL0     C 2743   6.760   2.999   6.447  0.3790 -0.3963 -0.0812
   21MOL0     C 2744   6.719   3.140   6.400 -0.2256 -0.5419 -0.7069
   21MOL0    Cl 2745   6.812   3.267   6.478 -0.2022  0.5482 -0.6052
   21MOL0     C 2746   5.955   3.099   6.181 -0.5622  0.0845  0.2336
   21MOL0     C 2747   5.938   3.237   6.169  0.1906  0.1276 -0.2420
   21MOL0     O 2748   6.083   3.522   6.264 -0.3093 -0.3447 -0.5188
   21MOL0     C 2749   5.885   3.686   6.015  0.0206 -0.4481 -0.6557
   21MOL0     C 2750   5.834   3.803   5.965 -0.8702 -0.6601 -0.5810
   21MOL0     N 2751   6.197   4.323   5.474 -0.4749  0.1846 -0.8569
   21MOL0     N 2752   6.316   4.374   5.492 -0.2034 -0.0402 -0.0857
   21MOL0     C 2753   7.070   4.452   5.231 -0.4326  0.0314  0.0463
   21MOL0     C 2754   7.169   4.350   5.212  0.1199  0.8350 -0.7556
   21MOL0     C 2755   7.619   4.260   5.112  0.8723 -0.4444  0.1088
   21MOL0     C 2756   7.753   4.281   5.126  0.2647 -0.0723 -0.3923
   21MOL0     C 2757   7.835   4.217   5.035  0.5215 -0.4855 -0.1221
   21MOL0     C 2758   7.792   4.150   4.923 -0.0723  0.5421  0.3585
   21MOL0     O 2759   7.893   4.093   4.844 -0.5833 -0.1151  0.6446
   21MOL0     C 2760   7.866   3.984   4.745  0.1532  0.2797  0.0738
   21MOL0     C 2761   7.995   3.945   4.664  0.1344  0.0299 -0.3159
   21MOL0     C 2762   8.046   4.064   4.575 -0.7214  0.4914  0.9418
   21MOL0     C 2763   7.967   4.062   4.434 -0.6278 -0.9314 -0.0651
   21MOL0     C 2764   8.062   4.008   4.339  0.5509  0.0208 -0.5094
   21MOL0     C 2765   8.123   3.952   4.246  0.1953  0.2286 -1.3771
   21MOL0     C 2766   7.653   4.126   4.901  0.6149  0.1300  0.0102
   21MOL0     C 2767   7.573   4.185   4.997  0.9236 -0.0954  0.3599
   21MOL0     H 2768   7.439   4.555   5.240 -0.9674  1.8331  2.0858
   21MOL0     H 2769   7.258   4.722   5.279 -1.2813 -0.3939  1.5580
   21MOL0     H 2770   7.077   4.799   5.404 -0.5090  0.7013  0.9189
   21MOL0     H 2771   7.084   4.866   5.242  1.3540 -1.5448  1.5180
   21MOL0     H 2772   6.863   4.953   5.346  0.2569 -0.4482  2.7483
   21MOL0     H 2773   6.818   4.830   5.249 -0.3345  1.7850  1.0254
   21MOL0     H 2774   6.846   4.663   5.443  1.3933  1.0272 -1.5111
   21MOL0     H 2775   6.888   4.794   5.543  2.2431  2.5280 -2.7910
   21MOL0     H 2776   6.658   4.906   5.475 -1.3021  0.1081 -1.1590
   21MOL0     H 2777   6.624   4.735   5.438  0.6884 -0.0946 -2.1757
   21MOL0     H 2778   6.703   4.667   5.653 -3.7198 -1.2382  0.5895
   21MOL0     H 2779   6.731   4.843   5.697  0.7583 -0.0713  0.8652
   21MOL0     H 2780   6.517   4.737   5.794  0.2600 -3.5753 -1.8570
   21MOL0     H 2781   6.490   4.884   5.692 -2.4633 -0.3592 -0.7810
   21MOL0     H 2782   6.320   4.714   5.650  0.4313  3.9019 -0.1691
   21MOL0     H 2783   6.413   4.703   5.506  0.1496 -2.2240  0.6970
   21MOL0     H 2784   6.470   4.520   5.744  1.9856  1.4111  0.2039
   21MOL0     H 2785   6.531   4.502   5.575 -0.7011  1.1120 -1.2435
   21MOL0     H 2786   6.174   4.534   5.732  1.5317  0.6927 -0.5779
   21MOL0     H 2787   5.926   4.451   5.626  0.4155  0.5037 -1.9773
   21MOL0     H 2788   5.930   4.291   5.557 -0.5043  0.5968 -0.7403
   21MOL0     H 2789   6.046   4.359   5.838 -1.5859 -1.6273  3.6253
   21MOL0     H 2790   6.070   4.201   5.760  0.9765  0.5566  0.4716
   21MOL0     H 2791   5.829   4.161   5.755  0.8811 -2.8324  1.9677
   21MOL0     H 2792   5.811   4.297   5.860  1.8772 -1.2986  2.9068
   21MOL0     H 2793   5.901   4.221   6.031  2.3023  3.0982 -2.3045
   21MOL0     H 2794   6.015   4.104   5.951  0.7030 -0.3567  2.1514
   21MOL0     H 2795   6.010   4.009   6.179  2.6014 -1.7343  2.2810
   21MOL0     H 2796   6.123   3.913   6.327  0.7070  1.1646 -2.4376
   21MOL0     H 2797   6.127   3.743   6.353  2.2743 -0.8546 -0.3478
   21MOL0     H 2798   6.236   3.803   6.234 -0.5952 -3.2275  1.0762
   21MOL0     H 2799   6.180   3.301   5.925 -1.5048 -0.6230 -1.1298
   21MOL0     H 2800   6.212   3.077   5.943 -2.0384  1.1505 -1.8549
   21MOL0     H 2801   6.031   2.834   6.307  0.4939  0.6075  0.8547
   21MOL0     H 2802   6.105   2.719   6.204  1.5067  1.2814  1.0641
   21MOL0     H 2803   6.308   2.848   6.200 -0.8144 -0.1189 -0.7874
   21MOL0     H 2804   6.236   2.976   6.299  0.3497  0.4127 -0.1285
   21MOL0     H 2805   6.240   2.684   6.405  0.0719 -0.8090 -0.6955
   21MOL0     H 2806   6.225   2.831   6.490 -2.8623 -3.0849  0.8821
   21MOL0     H 2807   6.473   2.725   6.501  1.4202 -0.2287 -1.2827
   21MOL0     H 2808   6.484   2.721   6.335  0.8898 -0.0787  0.4064
   21MOL0     H 2809   6.485   2.966   6.499 -0.8389 -2.7845  0.8818
   21MOL0     H 2810   6.483   2.975   6.316  0.9674  1.0760  0.6665
   21MOL0     H 2811   6.690   2.793   6.444 -2.6954 -0.2025 -0.8343
   21MOL0     H 2812   6.692   2.866   6.292 -1.2136 -2.7350  0.0660
   21MOL0     H 2813   6.862   2.988   6.410 -0.8626  1.6537 -5.0874
   21MOL0     H 2814   6.753   2.997   6.556  0.2932  1.2127 -0.0208
   21MOL0     H 2815   6.615   3.169   6.415  0.2869  0.2898  1.6587
   21MOL0     H 2816   6.743   3.144   6.294  1.7370  0.3518 -0.2729
   21MOL0     H 2817   5.899   3.042   6.254  1.6875 -1.2308  1.0513
   21MOL0     H 2818   5.862   3.287   6.228  0.0012 -1.9743  1.3950
   21MOL0     H 2819   5.840   3.594   5.980  0.1485 -1.6534  2.1136
   21MOL0     H 2820   5.762   3.795   5.883 -0.1120 -0.2775 -1.3014
   21MOL0     H 2821   6.967   4.425   5.207 -0.3086 -1.7910  1.3867
   21MOL0     H 2822   7.137   4.248   5.193  0.0443  0.6285  0.3656
   21MOL0     H 2823   7.801   4.337   5.206 -1.3168  2.5659 -1.1493
   21MOL0     H 2824   7.942   4.233   5.048  0.6084 -0.5578 -0.6966
   21MOL0     H 2825   7.827   3.895   4.797 -2.3843  2.1401  1.6116
   21MOL0     H 2826   7.797   4.011   4.664 -0.5064 -1.1283  0.1260
   21MOL0     H 2827   7.980   3.858   4.599  0.0475 -2.0784  2.3927
   21MOL0     H 2828   8.070   3.923   4.740 -0.6616  0.0204  0.4797
   21MOL0     H 2829   8.154   4.049   4.563 -1.0268 -0.2971 -1.2886
   21MOL0     H 2830   8.047   4.159   4.630  5.1691  1.6634 -0.4504
   21MOL0     H 2831   7.926   4.158   4.400 -3.4105 -1.0431  2.5770
   21MOL0     H 2832   7.892   3.985   4.451  1.3636 -2.5933  1.8861
   21MOL0     H 2833   8.166   3.894   4.166 -1.1242  0.3940 -2.2368
   21MOL0     H 2834   7.596   4.064   4.832  1.0515  1.8560 -1.9875
   21MOL0     H 2835   7.467   4.172   4.981  0.5607  1.1400  1.5468
   22MOL0     O 2836   7.072   1.284   2.914 -0.0422 -0.2786 -0.2044
   22MOL0     C 2837   7.049   1.331   3.023 -0.2902  0.0436  0.2072
   22MOL0     O 2838   7.064   1.270   3.138 -0.5908  0.4501  0.1728
   22MOL0     C 2839   7.110   1.139   3.139 -0.4183 -0.3431  0.2643
   22MOL0     C 2840   7.036   1.037   3.063 -0.1764  0.1614  0.8771
   22MOL0     C 2841   7.083   0.905   3.084  0.3445 -0.0735 -0.4008
   22MOL0     C 2842   7.201   0.873   3.158 -0.1436 -0.0741 -1.0134
   22MOL0     O 2843   7.261   0.743   3.145  0.1762 -0.1658  0.3357
   22MOL0     C 2844   7.168   0.630   3.167  0.6132  0.0265  0.6419
   22MOL0     C 2845   7.235   0.483   3.154  0.3615 -0.6623  0.2330
   22MOL0     C 2846   7.322   0.447   3.266 -0.4673 -0.3843 -0.4373
   22MOL0     C 2847   7.389   0.308   3.259  0.9815 -0.5027 -1.0242
   22MOL0     C 2848   7.473   0.287   3.131  0.2025  0.6405  0.2970
   22MOL0     C 2849   7.589   0.380   3.138 -0.2385 -0.9960  0.7289
   22MOL0     C 2850   7.681   0.339   3.031 -0.3194  0.0044  0.2500
   22MOL0     C 2851   7.830   0.401   3.056  0.2462 -0.7580 -0.2222
   22MOL0     N 2852   7.922   0.365   2.954  0.0143  0.7441  0.4000
   22MOL0     C 2853   8.005   0.447   2.879 -0.1625 -0.2811  0.0242
   22MOL0     C 2854   8.078   0.361   2.813 -0.8281 -1.4991 -0.2710
   22MOL0     C 2855   8.189   0.399   2.726 -0.2577 -0.8647  0.6091
   22MOL0     C 2856   8.310   0.464   2.796  0.0823 -0.6217 -0.2261
   22MOL0     C 2857   8.381   0.357   2.871  0.7604 -0.3838  0.3021
   22MOL0     C 2858   8.520   0.398   2.919 -0.3995 -0.1212 -0.6810
   22MOL0     O 2859   8.507   0.470   3.049 -0.3319  0.0425 -0.3302
   22MOL0     C 2860   8.557   0.602   3.064 -0.5575  1.0357 -0.3389
   22MOL0     C 2861   8.609   0.640   3.186 -0.3460 -0.0756  0.2794
   22MOL0     C 2862   8.641   0.773   3.219  0.6720 -0.6054 -0.1007
   22MOL0     C 2863   8.676   0.794   3.360 -0.0270  0.3659  0.4650
   22MOL0     C 2864   8.630   0.871   3.120  0.5401 -0.2022 -0.5792
   22MOL0     C 2865   8.645   1.022   3.148  0.4632  0.3178  0.6615
   22MOL0     O 2866   8.621   1.111   3.044  0.0716 -0.7855 -0.0107
   22MOL0     C 2867   8.648   1.243   3.066 -0.6066 -0.1626 -0.1018
   22MOL0     C 2868   8.553   1.334   3.025  0.3680 -0.0451  0.0130
   22MOL0     C 2869   8.589   1.477   3.035 -0.6223  0.9458  0.9267
   22MOL0     C 2870   8.705   1.519   3.111  0.3310  0.2580  0.0222
   22MOL0     O 2871   8.730   1.651   3.142  0.3782  0.0286 -0.4107
   22MOL0     C 2872   8.625   1.747   3.112 -1.0386  0.1679  0.0850
   22MOL0     C 2873   8.671   1.887   3.171 -0.0210 -0.3655  0.6513
   22MOL0     C 2874   8.713   1.891   3.318 -0.0256  0.2899 -0.0003
   22MOL0     C 2875   8.729   2.037   3.366  0.0788  0.0012  0.4460
   22MOL0     C 2876   8.761   2.054   3.517 -0.2384 -0.5080 -0.4899
   22MOL0     C 2877   8.794   2.199   3.534 -0.2157  1.0754 -0.7685
   22MOL0     C 2878   8.845   2.242   3.675  0.2937 -0.0556 -0.4703
   22MOL0     C 2879   8.729   2.236   3.773 -0.1509 -0.5236  0.2559
   22MOL0    Cl 2880   8.755   2.361   3.905  0.3070 -0.0255 -0.0642
   22MOL0     C 2881   8.787   1.424   3.152  0.4470 -0.6003 -0.9447
   22MOL0     C 2882   8.768   1.287   3.123 -0.1662  0.6065 -1.0946
   22MOL0     O 2883   8.656   1.059   3.263  0.1171 -0.6577 -0.2957
   22MOL0     C 2884   8.603   0.831   2.986  0.7803 -0.3698  0.1224
   22MOL0     C 2885   8.554   0.702   2.962 -0.3356 -0.6938  0.3098
   22MOL0     N 2886   8.051   0.230   2.845  0.3329  1.0462 -0.5847
   22MOL0     N 2887   7.956   0.237   2.933 -0.8798  0.1418  0.0416
   22MOL0     C 2888   7.262   0.979   3.228  0.0785  1.1692  0.8446
   22MOL0     C 2889   7.215   1.108   3.216 -0.1501 -0.3024  0.1707
   22MOL0     C 2890   6.977   1.462   3.013  0.1375 -0.1956 -0.6090
   22MOL0     C 2891   6.935   1.524   2.892 -0.3252 -0.9000 -0.4872
   22MOL0     C 2892   6.850   1.638   2.897  0.3454  0.1470  0.9555
   22MOL0     C 2893   6.806   1.700   3.014 -0.4794  1.2428  0.1318
   22MOL0     O 2894   6.716   1.801   3.025  0.2193 -0.2428  0.1225
   22MOL0     C 2895   6.705   1.896   2.910 -0.1639 -0.6299 -0.3063
   22MOL0     C 2896   6.584   1.849   2.822 -0.9485  0.0204  0.2260
   22MOL0     C 2897   6.456   1.847   2.915  0.6022 -0.5264 -1.1682
   22MOL0     C 2898   6.401   1.989   2.954 -0.8603  0.5546 -0.2592
   22MOL0     C 2899   6.426   2.095   2.857 -0.3673 -0.1271 -0.4856
   22MOL0     C 2900   6.457   2.188   2.779  0.6306 -0.0560  0.8331
   22MOL0     C 2901   6.841   1.635   3.139 -0.0626  0.5377  0.2240
   22MOL0     C 2902   6.929   1.518   3.140  0.8025  0.6475 -0.2245
   22MOL0     H 2903   6.955   1.064   2.996  0.8311 -1.1200 -0.9371
   22MOL0     H 2904   7.015   0.832   3.042 -1.6262  0.1416  2.1498
   22MOL0     H 2905   7.129   0.649   3.267 -1.8137  1.4817 -0.4806
   22MOL0     H 2906   7.080   0.620   3.101  2.4122  1.2381 -2.1511
   22MOL0     H 2907   7.160   0.405   3.141 -0.6897  0.6010 -1.8105
   22MOL0     H 2908   7.281   0.499   3.056 -2.8172  1.4120 -1.0798
   22MOL0     H 2909   7.403   0.520   3.280  0.1147 -0.6638 -2.1370
   22MOL0     H 2910   7.267   0.443   3.361  0.7066  0.1998  0.2964
   22MOL0     H 2911   7.439   0.288   3.354 -0.1296 -0.6558 -0.4503
   22MOL0     H 2912   7.305   0.238   3.258 -0.4222  0.7280  3.7661
   22MOL0     H 2913   7.518   0.187   3.131 -2.5256 -0.6858  2.0391
   22MOL0     H 2914   7.414   0.301   3.041  0.8067  2.0393  0.0991
   22MOL0     H 2915   7.551   0.481   3.119  1.9751 -0.0276  1.1104
   22MOL0     H 2916   7.636   0.388   3.236  0.1034 -1.0473  0.5680
   22MOL0     H 2917   7.684   0.232   3.008 -0.0139  0.2333 -0.8391
   22MOL0     H 2918   7.648   0.387   2.938 -3.7238 -0.2040  1.2223
   22MOL0     H 2919   7.859   0.369   3.157 -0.8135  2.1185  1.0982
   22MOL0     H 2920   7.819   0.509   3.062 -3.0938 -1.0554  2.2554
   22MOL0     H 2921   8.006   0.555   2.885 -0.6364 -0.2982  5.9577
   22MOL0     H 2922   8.207   0.312   2.663 -0.6160 -0.9665  0.6461
   22MOL0     H 2923   8.153   0.478   2.659  1.8893  0.3745  0.8171
   22MOL0     H 2924   8.281   0.542   2.867  3.3193 -0.5074  1.1304
   22MOL0     H 2925   8.378   0.516   2.729  0.3093  1.3879  1.4607
   22MOL0     H 2926   8.384   0.267   2.809  0.8535 -0.3796  0.3000
   22MOL0     H 2927   8.319   0.334   2.958  0.6091  1.5846  0.7517
   22MOL0     H 2928   8.578   0.460   2.850 -1.2389 -0.3711 -1.6324
   22MOL0     H 2929   8.581   0.309   2.935 -0.0481  0.2547  0.1323
   22MOL0     H 2930   8.637   0.555   3.247  1.6438 -1.2720 -2.0994
   22MOL0     H 2931   8.686   0.699   3.414 -1.0846 -0.4508 -0.7177
   22MOL0     H 2932   8.775   0.838   3.376 -0.3322  0.6269  1.7569
   22MOL0     H 2933   8.599   0.857   3.404 -0.2000  0.1228  0.5158
   22MOL0     H 2934   8.470   1.303   2.962  1.5000 -1.4313 -0.8460
   22MOL0     H 2935   8.530   1.551   2.983  0.8175  2.2884  1.1199
   22MOL0     H 2936   8.599   1.757   3.006  0.2773 -0.2774 -0.2991
   22MOL0     H 2937   8.542   1.703   3.168 -0.7458 -3.5636 -2.0784
   22MOL0     H 2938   8.754   1.926   3.111 -1.5821 -0.2549 -1.5407
   22MOL0     H 2939   8.595   1.960   3.141  1.4869  0.9171 -0.2202
   22MOL0     H 2940   8.805   1.836   3.341  0.4549  1.8391  2.0714
   22MOL0     H 2941   8.638   1.837   3.376 -0.0084 -1.7659 -1.7365
   22MOL0     H 2942   8.816   2.083   3.318  0.0806  0.9144  1.2935
   22MOL0     H 2943   8.644   2.103   3.348  0.7426  0.5493 -0.8348
   22MOL0     H 2944   8.855   2.006   3.543 -0.2203  0.4459  1.3364
   22MOL0     H 2945   8.672   2.028   3.574 -0.6888  1.1583 -0.3695
   22MOL0     H 2946   8.875   2.230   3.467  1.0982  0.4774  0.4840
   22MOL0     H 2947   8.703   2.259   3.523 -1.7814 -1.1257 -0.4007
   22MOL0     H 2948   8.868   2.349   3.672  0.0641  0.0512  1.0803
   22MOL0     H 2949   8.930   2.185   3.714 -2.1730 -1.9441  2.6211
   22MOL0     H 2950   8.718   2.132   3.804  4.5106 -1.6674 -1.0946
   22MOL0     H 2951   8.629   2.258   3.735 -0.5685 -0.4746  1.3472
   22MOL0     H 2952   8.876   1.449   3.208 -0.6342  0.7391  0.2343
   22MOL0     H 2953   8.847   1.225   3.163  0.7739  0.7949 -2.5820
   22MOL0     H 2954   8.594   0.899   2.902  0.0856 -0.0594  0.4409
   22MOL0     H 2955   8.507   0.679   2.867  1.6833 -0.5423 -0.8064
   22MOL0     H 2956   7.352   0.949   3.280  0.4549  1.0307  0.1177
   22MOL0     H 2957   7.266   1.192   3.262 -1.4422  0.3786  0.3817
   22MOL0     H 2958   6.962   1.492   2.792  1.3285 -0.2739 -0.2707
   22MOL0     H 2959   6.837   1.687   2.801  0.0864 -0.9650  0.4179
   22MOL0     H 2960   6.684   1.998   2.943  0.4123 -0.5021 -0.3379
   22MOL0     H 2961   6.787   1.902   2.839 -0.5039  5.3885 -0.7247
   22MOL0     H 2962   6.617   1.749   2.790 -0.4506  0.0256  0.6983
   22MOL0     H 2963   6.567   1.917   2.738 -1.2795  1.4754  1.4524
   22MOL0     H 2964   6.464   1.789   3.008 -1.0533 -0.8298 -1.1747
   22MOL0     H 2965   6.391   1.793   2.846  2.3061 -1.4526 -2.1117
   22MOL0     H 2966   6.466   2.012   3.039 -0.3887  3.6176 -1.3144
   22MOL0     H 2967   6.300   2.003   2.994 -0.4413  0.3149  0.8979
   22MOL0     H 2968   6.481   2.271   2.715 -1.4853  0.0379  0.0805
   22MOL0     H 2969   6.808   1.679   3.233  0.1141  0.4242  0.3391
   22MOL0     H 2970   6.960   1.464   3.229 -0.3588  0.4957  0.1068
   23MOL0     O 2971   6.562   9.325   5.319  0.1736  0.4882  0.5548
   23MOL0     C 2972   6.601   9.227   5.379  0.2176  0.0377 -0.2815
   23MOL0     O 2973   6.564   9.089   5.359  0.6927 -0.2551 -0.3126
   23MOL0     C 2974   6.443   9.047   5.312  0.3852 -0.0939 -0.4254
   23MOL0     C 2975   6.436   8.915   5.257  0.6304 -0.4543 -0.4765
   23MOL0     C 2976   6.316   8.863   5.223  0.7939 -0.4867  0.3343
   23MOL0     C 2977   6.202   8.953   5.215  0.0446  0.2344  0.0687
   23MOL0     O 2978   6.076   8.923   5.170  0.3274 -0.0003 -0.7231
   23MOL0     C 2979   6.069   8.798   5.096 -0.4733 -0.4363 -0.4471
   23MOL0     C 2980   5.923   8.765   5.056  0.0333  0.2750  0.7070
   23MOL0     C 2981   5.923   8.632   4.979  0.7183  0.0020 -0.6159
   23MOL0     C 2982   5.786   8.608   4.927  0.4491 -0.2819 -0.2854
   23MOL0     C 2983   5.672   8.600   5.030  0.2432  0.5098  0.7115
   23MOL0     C 2984   5.551   8.522   4.980  0.1198 -0.3183 -0.1016
   23MOL0     C 2985   5.438   8.510   5.090  0.2946 -0.6618 -0.1240
   23MOL0     C 2986   5.312   8.459   5.038  1.1106 -0.6565 -0.2915
   23MOL0     N 2987   5.199   8.508   5.119 -0.0441  1.2882  0.5650
   23MOL0     C 2988   5.161   8.636   5.131  0.2503  0.1007 -0.3902
   23MOL0     C 2989   5.044   8.633   5.201 -0.6943  0.3930  0.1249
   23MOL0     C 2990   4.955   8.760   5.233 -0.3729 -0.2215 -0.6679
   23MOL0     C 2991   4.826   8.747   5.319  0.5129  0.3132 -0.1300
   23MOL0     C 2992   4.747   8.873   5.338  0.3789 -0.1102  0.4524
   23MOL0     C 2993   4.637   8.860   5.449  0.3704 -0.0483  0.2806
   23MOL0     O 2994   4.581   8.992   5.465  0.0316 -0.8321 -0.4312
   23MOL0     C 2995   4.446   9.000   5.445  0.8988  0.8195 -0.4972
   23MOL0     C 2996   4.344   8.910   5.489  0.2367  0.2696 -0.6544
   23MOL0     C 2997   4.212   8.936   5.481  0.9751 -0.1072  1.3167
   23MOL0     C 2998   4.123   8.819   5.519  0.2385  0.1530  0.2519
   23MOL0     C 2999   4.172   9.056   5.428 -0.2616  0.5084 -0.9028
   23MOL0     C 3000   4.029   9.106   5.435  0.3097 -0.1440  0.1396
   23MOL0     O 3001   3.993   9.210   5.348 -0.1210  0.0604  0.5323
   23MOL0     C 3002   3.860   9.251   5.344 -0.1265 -0.6170  0.5829
   23MOL0     C 3003   3.827   9.379   5.399  0.5344  0.3274  0.3855
   23MOL0     C 3004   3.694   9.426   5.392 -0.9979  0.3748  0.9488
   23MOL0     C 3005   3.597   9.341   5.336  1.0737 -0.1169  0.0179
   23MOL0     O 3006   3.462   9.371   5.352 -0.2317 -0.6884  0.3138
   23MOL0     C 3007   3.421   9.413   5.484  0.2223 -0.4407 -0.0128
   23MOL0     C 3008   3.284   9.354   5.513  0.0317  0.6537  0.0746
   23MOL0     C 3009   3.188   9.372   5.393  0.0039  0.0543  0.5388
   23MOL0     C 3010   3.042   9.353   5.440 -0.8955 -0.5876 -0.3004
   23MOL0     C 3011   2.936   9.364   5.324 -0.9577  0.1534  0.0881
   23MOL0     C 3012   2.797   9.339   5.366  0.2388  0.1500  0.2372
   23MOL0     C 3013   2.721   9.444   5.453  1.0661  0.2208  0.1373
   23MOL0     C 3014   2.565   9.424   5.453 -0.5148  0.1485  0.1169
   23MOL0    Cl 3015   2.523   9.469   5.275 -0.3282 -0.0239 -0.3218
   23MOL0     C 3016   3.627   9.217   5.283  0.4860 -0.5988 -0.5445
   23MOL0     C 3017   3.764   9.171   5.277 -0.2272 -0.4239  0.1554
   23MOL0     O 3018   3.948   9.057   5.516  0.3887  0.0057  0.1047
   23MOL0     C 3019   4.267   9.145   5.378  0.3181  0.1491 -0.4860
   23MOL0     C 3020   4.396   9.121   5.385  0.3800 -0.3784 -0.3346
   23MOL0     N 3021   5.010   8.501   5.223 -0.5185 -0.2456 -0.4875
   23MOL0     N 3022   5.107   8.430   5.182  0.1424 -0.0756 -1.0413
   23MOL0     C 3023   6.210   9.089   5.250  0.4182 -0.1823  0.1819
   23MOL0     C 3024   6.334   9.135   5.302  0.5633 -0.0509  0.2187
   23MOL0     C 3025   6.717   9.242   5.460  0.1618 -0.5735  0.4239
   23MOL0     C 3026   6.809   9.143   5.469 -0.7370  0.2633 -0.6691
   23MOL0     C 3027   6.921   9.163   5.552 -0.9508  0.5136  0.8093
   23MOL0     C 3028   6.925   9.271   5.635 -1.0022 -1.4589 -0.2528
   23MOL0     O 3029   7.020   9.296   5.732  0.4839 -0.1141  0.0585
   23MOL0     C 3030   7.105   9.197   5.779  0.0186 -0.3609  0.4993
   23MOL0     C 3031   7.245   9.224   5.712  0.2438  0.7079 -0.5852
   23MOL0     C 3032   7.325   9.332   5.782  0.0403 -0.7183 -0.6972
   23MOL0     C 3033   7.352   9.301   5.930  0.3158 -0.0702  0.3654
   23MOL0     C 3034   7.459   9.392   5.984  0.9945 -0.0514 -0.5117
   23MOL0     C 3035   7.555   9.452   6.024  0.0805 -0.3076 -0.7454
   23MOL0     C 3036   6.840   9.375   5.628 -0.5443 -0.2857  0.0493
   23MOL0     C 3037   6.736   9.366   5.539  0.6584 -0.9271 -0.0403
   23MOL0     H 3038   6.525   8.853   5.263 -0.0937 -1.4066  0.9679
   23MOL0     H 3039   6.307   8.756   5.207 -0.8846 -0.3894  0.4458
   23MOL0     H 3040   6.127   8.803   5.003 -0.8859 -1.3309 -0.7706
   23MOL0     H 3041   6.096   8.715   5.163  0.6096  0.4310  0.2358
   23MOL0     H 3042   5.853   8.764   5.140 -0.9097 -1.0636 -0.0661
   23MOL0     H 3043   5.870   8.837   4.994  0.2488 -0.5832 -0.5121
   23MOL0     H 3044   6.009   8.621   4.913  1.8679  0.5394  0.7340
   23MOL0     H 3045   5.933   8.552   5.054  0.8713  0.7138  0.1329
   23MOL0     H 3046   5.764   8.676   4.844 -0.0908 -0.3438 -0.1960
   23MOL0     H 3047   5.781   8.513   4.873 -3.8039  0.9981 -2.5845
   23MOL0     H 3048   5.718   8.556   5.119 -1.6409 -3.2892  0.0270
   23MOL0     H 3049   5.631   8.699   5.051 -0.6756 -0.1503  2.3115
   23MOL0     H 3050   5.517   8.589   4.900  0.9512  0.7462  0.4221
   23MOL0     H 3051   5.580   8.424   4.943 -0.2240 -0.8610  1.0140
   23MOL0     H 3052   5.464   8.437   5.169  3.2991 -1.0979 -1.3710
   23MOL0     H 3053   5.438   8.599   5.153  2.1427 -1.0679  0.5218
   23MOL0     H 3054   5.311   8.349   5.029 -0.2228 -0.8788  1.8566
   23MOL0     H 3055   5.296   8.491   4.934  0.9663  0.5780  0.0962
   23MOL0     H 3056   5.211   8.726   5.097 -0.9556  1.1402  0.4722
   23MOL0     H 3057   5.027   8.830   5.275 -0.4229 -0.2147 -0.5932
   23MOL0     H 3058   4.923   8.792   5.133  0.3675  0.2439 -0.7659
   23MOL0     H 3059   4.853   8.699   5.414  3.1907  0.0330 -0.9555
   23MOL0     H 3060   4.760   8.672   5.275 -0.3301  0.0850  1.4525
   23MOL0     H 3061   4.715   8.897   5.236  0.8493  2.7685  0.8972
   23MOL0     H 3062   4.817   8.952   5.370 -0.2429  0.5552  0.2102
   23MOL0     H 3063   4.694   8.829   5.537  4.2174  2.0558 -1.2631
   23MOL0     H 3064   4.562   8.782   5.431 -2.5859  3.0609 -2.2130
   23MOL0     H 3065   4.372   8.820   5.542 -1.5965 -0.6970 -1.2740
   23MOL0     H 3066   4.125   8.813   5.628  0.3950 -2.0212  0.1788
   23MOL0     H 3067   4.028   8.821   5.465  0.2741  2.3863  0.1836
   23MOL0     H 3068   4.159   8.718   5.496 -0.3194  0.1268 -0.5439
   23MOL0     H 3069   3.906   9.448   5.429  1.9903  0.0275 -2.4655
   23MOL0     H 3070   3.667   9.524   5.429  1.4185  2.2734 -1.8153
   23MOL0     H 3071   3.483   9.394   5.572  0.5484 -0.7807 -0.3122
   23MOL0     H 3072   3.412   9.522   5.478 -0.6142 -0.5824 -2.3526
   23MOL0     H 3073   3.305   9.250   5.539  1.0852  0.1876 -2.3833
   23MOL0     H 3074   3.239   9.394   5.605 -0.7618 -0.9391  0.4104
   23MOL0     H 3075   3.218   9.286   5.333  2.1282  0.0328  1.5388
   23MOL0     H 3076   3.190   9.471   5.348 -1.9310 -0.1142 -0.0354
   23MOL0     H 3077   3.027   9.255   5.487  1.6450 -0.5931  0.6533
   23MOL0     H 3078   3.003   9.425   5.513 -0.1846  0.1704 -0.6536
   23MOL0     H 3079   2.973   9.287   5.255  0.7655  2.1870 -1.4052
   23MOL0     H 3080   2.947   9.463   5.279  1.9623  0.4765  1.3120
   23MOL0     H 3081   2.750   9.346   5.268 -1.4275  0.0124  1.0017
   23MOL0     H 3082   2.790   9.238   5.406 -2.7501  0.3494  0.4315
   23MOL0     H 3083   2.745   9.543   5.414  0.7727 -1.0925 -3.9439
   23MOL0     H 3084   2.752   9.419   5.555 -1.6978  1.1698  1.2889
   23MOL0     H 3085   2.509   9.490   5.519  3.0763  2.1476  1.4324
   23MOL0     H 3086   2.538   9.322   5.482 -1.8437  1.5370  4.3578
   23MOL0     H 3087   3.546   9.159   5.241 -1.5074  1.3254  0.4193
   23MOL0     H 3088   3.809   9.080   5.238 -1.4144 -2.4790  3.2077
   23MOL0     H 3089   4.244   9.246   5.348  2.0037  1.0286  1.0126
   23MOL0     H 3090   4.467   9.201   5.364 -1.0406  2.5623  4.4668
   23MOL0     H 3091   6.128   9.160   5.236  1.3490  1.2596  1.6299
   23MOL0     H 3092   6.339   9.242   5.315  1.2536 -0.2583  1.7820
   23MOL0     H 3093   6.796   9.054   5.409  0.3190 -0.2923 -0.1214
   23MOL0     H 3094   6.983   9.076   5.569 -0.1381  1.0176  0.4716
   23MOL0     H 3095   7.126   9.193   5.886 -1.7714 -0.4745  0.8876
   23MOL0     H 3096   7.081   9.093   5.753  1.6680 -0.9322  1.1388
   23MOL0     H 3097   7.222   9.260   5.612  3.4991 -0.0523 -1.7045
   23MOL0     H 3098   7.309   9.139   5.690  2.6717  2.6542 -1.4547
   23MOL0     H 3099   7.270   9.426   5.770  1.6599  0.5960  1.5000
   23MOL0     H 3100   7.423   9.333   5.733 -0.2505 -2.1410 -1.3575
   23MOL0     H 3101   7.367   9.194   5.946 -1.3220 -0.2101  1.2562
   23MOL0     H 3102   7.267   9.331   5.993 -1.0945 -0.7655 -1.1446
   23MOL0     H 3103   7.647   9.503   6.045  0.1041  0.6010 -2.8339
   23MOL0     H 3104   6.856   9.471   5.676  2.4163  0.4350 -2.0881
   23MOL0     H 3105   6.667   9.449   5.522  0.7590 -1.1212 -1.5238
   24MOL0     O 3106   0.652   8.343   9.057  0.2117  0.0919 -0.2875
   24MOL0     C 3107   0.625   8.272   8.961 -0.6906 -0.8811  0.4032
   24MOL0     O 3108   0.501   8.267   8.896 -0.0952  0.0910 -0.4376
   24MOL0     C 3109   0.391   8.334   8.947 -0.0964 -0.3202 -0.8192
   24MOL0     C 3110   0.370   8.385   9.077 -0.0924  0.5610 -0.0308
   24MOL0     C 3111   0.261   8.468   9.113 -0.0901 -0.4396  0.2723
   24MOL0     C 3112   0.161   8.486   9.014  0.3896  0.7923 -0.3566
   24MOL0     O 3113   0.056   8.568   9.034  0.5420 -0.7292 -0.3695
   24MOL0     C 3114  -0.071   8.499   9.036 -0.2558 -0.5658  0.9408
   24MOL0     C 3115  -0.165   8.572   9.141 -0.2046  0.6306 -0.1162
   24MOL0     C 3116  -0.180   8.722   9.127 -0.4441 -0.3326  0.0846
   24MOL0     C 3117  -0.255   8.769   8.999 -0.4307 -0.5159 -0.5394
   24MOL0     C 3118  -0.270   8.924   8.995 -0.0447 -0.5406  0.3671
   24MOL0     C 3119  -0.358   8.964   8.871 -0.2864  0.7692  0.2964
   24MOL0     C 3120  -0.275   8.976   8.744 -0.5291 -0.2750  0.8948
   24MOL0     C 3121  -0.199   9.100   8.704  0.6019 -0.0334 -0.0077
   24MOL0     N 3122  -0.101   9.163   8.797  0.1164  0.2706 -0.3310
   24MOL0     C 3123   0.034   9.146   8.792 -0.3618 -1.0423 -0.3353
   24MOL0     C 3124   0.082   9.227   8.891 -0.0513  0.3737 -0.1721
   24MOL0     C 3125   0.229   9.237   8.926  1.0921  0.4541 -0.0234
   24MOL0     C 3126   0.262   9.327   9.034  0.8121 -0.0333  0.3279
   24MOL0     C 3127   0.398   9.286   9.104 -0.2135  0.2106  1.1179
   24MOL0     C 3128   0.446   9.384   9.211 -0.4023  0.1852 -0.0065
   24MOL0     O 3129   0.510   9.314   9.314 -0.2168  0.2662 -0.7979
   24MOL0     C 3130   0.508   9.384   9.433  0.8267 -0.0925 -0.4559
   24MOL0     C 3131   0.561   9.512   9.464  0.1627  0.4585 -0.6618
   24MOL0     C 3132   0.554   9.551   9.596  0.5509  0.1982  0.1086
   24MOL0     C 3133   0.636   9.673   9.629  0.9256  0.2486  0.1691
   24MOL0     C 3134   0.486   9.484   9.696  0.1145  0.7864  0.3917
   24MOL0     C 3135   0.456   9.541   9.826 -0.3670 -0.3297 -0.2014
   24MOL0     O 3136   0.458   9.460   9.932  0.2429 -0.0224 -0.8749
   24MOL0     C 3137   0.398   9.515  10.047 -0.2181  0.1414  0.1102
   24MOL0     C 3138   0.468   9.590  10.143 -0.4763 -0.3357  0.3669
   24MOL0     C 3139   0.396   9.654  10.246  0.6787  0.0370  0.5725
   24MOL0     C 3140   0.258   9.649  10.254  0.3393  1.1454  0.5451
   24MOL0     O 3141   0.182   9.720  10.353  0.6404  0.4040  0.5551
   24MOL0     C 3142   0.040   9.737  10.347 -0.8743 -0.1663  0.0138
   24MOL0     C 3143  -0.012   9.821  10.458 -0.1303 -0.3582 -0.6234
   24MOL0     C 3144   0.023   9.974  10.445 -0.4896  0.8726  0.0040
   24MOL0     C 3145  -0.086  10.052  10.515 -0.3015  0.4365 -0.7395
   24MOL0     C 3146  -0.071  10.201  10.498  0.2374 -0.1397  0.1699
   24MOL0     C 3147  -0.049  10.257  10.353 -0.5353  0.5472  0.2812
   24MOL0     C 3148  -0.060  10.413  10.349 -0.8859 -0.0950 -0.1014
   24MOL0     C 3149  -0.087  10.468  10.212 -0.0999 -0.3782  0.1560
   24MOL0    Cl 3150  -0.000  10.620  10.168  0.5647 -0.0760  0.3447
   24MOL0     C 3151   0.195   9.562  10.163 -0.3427  0.6109 -0.1536
   24MOL0     C 3152   0.262   9.495  10.061 -0.2976 -0.4394  0.2197
   24MOL0     O 3153   0.424   9.658   9.836 -0.3605 -1.2173  0.0676
   24MOL0     C 3154   0.424   9.362   9.654 -0.7635  0.0184 -0.1064
   24MOL0     C 3155   0.438   9.308   9.524  0.7309  0.2500  0.7287
   24MOL0     N 3156  -0.020   9.291   8.948  0.1165  0.0939 -0.2984
   24MOL0     N 3157  -0.135   9.253   8.899  0.0291 -0.4448 -0.2998
   24MOL0     C 3158   0.175   8.433   8.889 -0.6709 -0.5649  0.8639
   24MOL0     C 3159   0.292   8.367   8.850 -0.9219 -0.2775 -0.5959
   24MOL0     C 3160   0.744   8.217   8.885 -0.4100  0.6577  0.6266
   24MOL0     C 3161   0.721   8.160   8.758  0.5148  0.2396  0.2283
   24MOL0     C 3162   0.822   8.098   8.685  0.6938 -0.3691 -1.1642
   24MOL0     C 3163   0.947   8.086   8.735  0.2756 -0.5312  0.0751
   24MOL0     O 3164   1.039   8.031   8.645 -0.2426  0.2269 -0.0923
   24MOL0     C 3165   1.180   8.020   8.676 -0.8561  0.6288 -0.1381
   24MOL0     C 3166   1.255   7.979   8.538 -0.7067  0.3372 -0.9703
   24MOL0     C 3167   1.387   8.065   8.533  0.3068  0.4950 -0.7934
   24MOL0     C 3168   1.462   8.053   8.399  0.5784  0.4143  0.2330
   24MOL0     C 3169   1.576   8.146   8.390  0.0700 -0.9933  0.3667
   24MOL0     C 3170   1.682   8.211   8.376 -0.1361 -0.1653  0.6131
   24MOL0     C 3171   0.975   8.135   8.866  0.4379 -0.1689  0.1292
   24MOL0     C 3172   0.877   8.199   8.946  0.4175  1.5414 -0.6485
   24MOL0     H 3173   0.451   8.360   9.144 -0.3606 -3.8412 -1.0201
   24MOL0     H 3174   0.254   8.537   9.198  0.4205 -0.7115  0.5386
   24MOL0     H 3175  -0.106   8.514   8.933 -0.5317  1.1718  1.2518
   24MOL0     H 3176  -0.054   8.393   9.058 -0.3599 -1.3544 -2.2299
   24MOL0     H 3177  -0.268   8.537   9.136 -0.1151 -0.2232  2.4400
   24MOL0     H 3178  -0.122   8.560   9.241 -0.6559  0.3664  0.0504
   24MOL0     H 3179  -0.240   8.764   9.209 -0.5833 -0.4765  0.0562
   24MOL0     H 3180  -0.081   8.767   9.137  0.1558 -0.7476 -3.0904
   24MOL0     H 3181  -0.201   8.725   8.915 -0.3405  1.9042 -1.8150
   24MOL0     H 3182  -0.348   8.714   9.016 -0.4173  0.0341  1.5574
   24MOL0     H 3183  -0.326   8.959   9.082 -0.2370  2.3686 -0.8247
   24MOL0     H 3184  -0.174   8.974   8.983 -0.9333  0.7604 -1.8717
   24MOL0     H 3185  -0.425   8.878   8.858 -0.1077 -0.1276  4.0952
   24MOL0     H 3186  -0.415   9.055   8.892  0.4614  0.6396  3.3964
   24MOL0     H 3187  -0.209   8.888   8.747 -0.1111  0.0548  2.0701
   24MOL0     H 3188  -0.347   8.960   8.663 -1.2003  1.8423  1.0202
   24MOL0     H 3189  -0.280   9.172   8.686  0.7535 -0.3240 -2.1045
   24MOL0     H 3190  -0.145   9.078   8.612  3.6860 -0.8312  1.8636
   24MOL0     H 3191   0.092   9.087   8.722  0.1499 -1.8472  0.7507
   24MOL0     H 3192   0.254   9.131   8.935 -2.1714 -0.3209  1.0685
   24MOL0     H 3193   0.284   9.273   8.838  0.8229 -0.6379 -0.6539
   24MOL0     H 3194   0.185   9.308   9.110 -0.0733 -3.6493 -1.2855
   24MOL0     H 3195   0.280   9.433   9.013 -0.0387  0.0862  0.1485
   24MOL0     H 3196   0.477   9.274   9.029 -1.9418 -5.3715 -0.3929
   24MOL0     H 3197   0.404   9.190   9.157  3.2601 -0.9434 -1.0021
   24MOL0     H 3198   0.365   9.445   9.253 -0.8790 -0.0564 -0.5522
   24MOL0     H 3199   0.523   9.449   9.171  0.4674  0.8339  2.5167
   24MOL0     H 3200   0.608   9.576   9.390 -0.4029  1.7850  0.0878
   24MOL0     H 3201   0.692   9.659   9.722  1.9292 -0.0450 -0.4681
   24MOL0     H 3202   0.700   9.694   9.543  0.2271 -0.2206 -0.4741
   24MOL0     H 3203   0.569   9.759   9.635 -0.7161 -1.0152  0.9181
   24MOL0     H 3204   0.572   9.606  10.116 -0.6792  1.3630  0.5102
   24MOL0     H 3205   0.448   9.723  10.312  0.3768 -0.0179  0.8667
   24MOL0     H 3206   0.016   9.780  10.249  0.2199  0.5915  0.0625
   24MOL0     H 3207   0.010   9.633  10.363  0.8902 -0.8200 -0.6924
   24MOL0     H 3208  -0.118   9.810  10.480  0.1406  0.7954  1.4338
   24MOL0     H 3209   0.049   9.781  10.539  1.6896  0.8082 -1.3500
   24MOL0     H 3210   0.034   9.991  10.338  0.4021  1.6961  0.2166
   24MOL0     H 3211   0.119  10.002  10.488 -0.1633  0.2216 -0.2929
   24MOL0     H 3212  -0.184  10.022  10.475 -0.9344 -0.8721  1.5865
   24MOL0     H 3213  -0.085  10.028  10.622 -1.1632  3.4337  0.0341
   24MOL0     H 3214   0.030  10.229  10.530  1.1302 -0.2422 -2.2853
   24MOL0     H 3215  -0.148  10.255  10.554  0.3389  1.3969 -1.0726
   24MOL0     H 3216   0.049  10.224  10.318  0.6000  1.2176  2.6410
   24MOL0     H 3217  -0.122  10.221  10.279 -0.7643 -2.2801  1.7710
   24MOL0     H 3218   0.040  10.449  10.375 -0.3998 -0.0882 -1.8576
   24MOL0     H 3219  -0.146  10.436  10.412 -4.1423 -3.0213 -3.1029
   24MOL0     H 3220  -0.192  10.499  10.206  0.4004  1.4246  0.0384
   24MOL0     H 3221  -0.078  10.392  10.135 -0.3498 -1.7408  1.4182
   24MOL0     H 3222   0.092   9.528  10.167 -0.2203  0.1384 -0.8563
   24MOL0     H 3223   0.212   9.434   9.987  2.6601  0.7429 -3.0642
   24MOL0     H 3224   0.367   9.305   9.727  1.5407 -0.9743  1.0206
   24MOL0     H 3225   0.396   9.212   9.495  1.4293 -0.6491  2.5749
   24MOL0     H 3226   0.095   8.439   8.816  2.2118 -2.3807 -2.8289
   24MOL0     H 3227   0.311   8.354   8.744 -1.4344 -0.1545 -0.7064
   24MOL0     H 3228   0.622   8.157   8.713 -0.8091 -1.8292  2.9915
   24MOL0     H 3229   0.802   8.073   8.581  1.5226 -0.0848 -1.4068
   24MOL0     H 3230   1.225   8.108   8.722  2.9068 -1.4723  0.6859
   24MOL0     H 3231   1.193   7.940   8.750 -2.6468  0.4148  0.0021
   24MOL0     H 3232   1.198   8.000   8.446 -0.7034 -2.6396 -1.7511
   24MOL0     H 3233   1.277   7.872   8.539 -0.6499  0.2949 -2.8504
   24MOL0     H 3234   1.455   8.026   8.609  2.0880  3.9418 -0.4366
   24MOL0     H 3235   1.356   8.165   8.562  3.0316  0.8198  1.2946
   24MOL0     H 3236   1.395   8.067   8.313 -0.3272 -2.6641  0.3293
   24MOL0     H 3237   1.506   7.954   8.382 -1.6067 -0.3300 -1.6166
   24MOL0     H 3238   1.771   8.268   8.359 -0.4861  0.2546  0.1719
   24MOL0     H 3239   1.076   8.113   8.901  0.9425 -0.9500 -1.7195
   24MOL0     H 3240   0.901   8.234   9.046  1.2702  1.5263 -0.8388
   25MOL0     O 3241   5.111  10.915   3.218  0.1819 -0.3879 -0.9873
   25MOL0     C 3242   5.179  10.844   3.288 -0.5068  0.1365  0.3164
   25MOL0     O 3243   5.134  10.777   3.387  0.6068 -0.8672  0.4413
   25MOL0     C 3244   5.006  10.799   3.430  0.0580 -0.0507  0.4165
   25MOL0     C 3245   4.902  10.723   3.390  0.4480  0.7739  0.4197
   25MOL0     C 3246   4.772  10.744   3.439  0.0510  0.1157 -0.6496
   25MOL0     C 3247   4.744  10.849   3.531  0.1609 -0.2839  0.9683
   25MOL0     O 3248   4.622  10.868   3.588  0.4379  0.4265  0.1452
   25MOL0     C 3249   4.511  10.824   3.506 -0.1729  0.1859 -0.0063
   25MOL0     C 3250   4.381  10.869   3.571  0.3756  0.8744  0.2148
   25MOL0     C 3251   4.242  10.819   3.508 -0.6333 -0.4274  0.3308
   25MOL0     C 3252   4.230  10.840   3.356 -0.6804 -0.0291  0.4416
   25MOL0     C 3253   4.090  10.786   3.310  0.3823  0.8360  0.6040
   25MOL0     C 3254   4.064  10.812   3.163  0.6260 -0.0685 -0.1045
   25MOL0     C 3255   4.145  10.731   3.070  0.5045  0.3379  0.2663
   25MOL0     C 3256   4.075  10.661   2.947  0.3808  0.0178 -1.0708
   25MOL0     N 3257   3.957  10.581   2.986 -0.0884 -0.4326 -0.5321
   25MOL0     C 3258   3.964  10.467   3.058 -0.6761 -0.7543  0.3713
   25MOL0     C 3259   3.833  10.418   3.058 -0.4320  0.0155 -0.5026
   25MOL0     C 3260   3.782  10.301   3.134  1.4483  0.7045 -0.1122
   25MOL0     C 3261   3.719  10.345   3.264  0.0600  0.1891  0.1385
   25MOL0     C 3262   3.664  10.227   3.345 -0.0047 -1.0818 -0.5151
   25MOL0     C 3263   3.621  10.286   3.482 -0.1268 -0.3989 -0.4102
   25MOL0     O 3264   3.609  10.177   3.567 -0.1129  0.8445 -0.8558
   25MOL0     C 3265   3.484  10.120   3.569  0.3172 -0.4948  0.2559
   25MOL0     C 3266   3.467  10.000   3.500 -0.0733 -1.0488  0.2357
   25MOL0     C 3267   3.344   9.931   3.497  0.7423 -0.0938 -0.4513
   25MOL0     C 3268   3.329   9.801   3.424 -0.5525 -1.1546 -0.1652
   25MOL0     C 3269   3.236   9.986   3.571 -0.2679  0.0390  0.0993
   25MOL0     C 3270   3.095   9.936   3.571  0.2139 -0.0221 -0.4300
   25MOL0     O 3271   3.058   9.816   3.516 -0.7967 -0.0466  0.1077
   25MOL0     C 3272   2.925   9.781   3.515  0.0190  0.3679  0.5893
   25MOL0     C 3273   2.847   9.799   3.408 -0.1310 -0.0617 -0.0053
   25MOL0     C 3274   2.705   9.760   3.422  0.6439 -0.9749 -0.0962
   25MOL0     C 3275   2.652   9.701   3.532  1.0590 -0.2796  0.1747
   25MOL0     O 3276   2.520   9.654   3.540 -0.8113 -0.5483  0.0987
   25MOL0     C 3277   2.431   9.661   3.428  0.5122  0.2526 -0.5429
   25MOL0     C 3278   2.286   9.622   3.464 -0.4629  0.3682 -0.4930
   25MOL0     C 3279   2.287   9.484   3.525 -0.5109  0.2380  0.4377
   25MOL0     C 3280   2.153   9.416   3.514  0.5813  0.0355  0.7814
   25MOL0     C 3281   2.160   9.284   3.582  0.8553 -0.6423 -0.2934
   25MOL0     C 3282   2.185   9.168   3.490 -0.2312 -0.2674  0.1300
   25MOL0     C 3283   2.177   9.038   3.571  0.0005 -0.9471 -0.7187
   25MOL0     C 3284   2.217   8.916   3.488 -0.1673  0.3169  0.5945
   25MOL0    Cl 3285   2.378   8.935   3.397  0.2417  0.0013 -0.2676
   25MOL0     C 3286   2.739   9.682   3.639  0.5360  0.2942 -0.0704
   25MOL0     C 3287   2.873   9.728   3.634 -0.3378  1.0231  0.1290
   25MOL0     O 3288   3.015  10.007   3.625 -0.3844  0.3468 -0.6776
   25MOL0     C 3289   3.260  10.111   3.634  0.1819  0.0631 -0.3949
   25MOL0     C 3290   3.383  10.181   3.636  0.6277  0.9974  0.3309
   25MOL0     N 3291   3.759  10.501   2.980  0.4328  0.4096  0.0606
   25MOL0     N 3292   3.833  10.603   2.944 -0.1958 -0.0332  0.5221
   25MOL0     C 3293   4.852  10.932   3.556 -0.1542 -0.2977  0.4139
   25MOL0     C 3294   4.986  10.905   3.518  0.2887  0.6366  0.2405
   25MOL0     C 3295   5.326  10.830   3.265 -0.2309 -0.0045  0.9824
   25MOL0     C 3296   5.374  10.893   3.151 -0.0321 -0.2334  0.9336
   25MOL0     C 3297   5.510  10.878   3.115  0.2467 -0.0163 -0.5842
   25MOL0     C 3298   5.601  10.801   3.189 -0.2533  0.7541  0.4700
   25MOL0     O 3299   5.736  10.815   3.144 -0.4645  0.0780 -0.3758
   25MOL0     C 3300   5.834  10.727   3.199 -0.1096 -0.0665  0.7846
   25MOL0     C 3301   5.955  10.737   3.110 -0.1240 -0.3172 -0.5047
   25MOL0     C 3302   6.080  10.694   3.189 -0.5115  0.5305  0.2214
   25MOL0     C 3303   6.201  10.730   3.102  0.5080 -0.2968  0.0557
   25MOL0     C 3304   6.332  10.672   3.149 -0.5609  0.0206 -0.5286
   25MOL0     C 3305   6.439  10.614   3.168  0.3886 -0.0128  0.2302
   25MOL0     C 3306   5.554  10.733   3.302  1.5469 -0.9234 -0.2567
   25MOL0     C 3307   5.416  10.748   3.337 -0.9594 -0.3806 -0.0537
   25MOL0     H 3308   4.926  10.655   3.309 -1.7916  1.2848 -0.7672
   25MOL0     H 3309   4.701  10.667   3.407  2.1963 -1.1460 -2.7301
   25MOL0     H 3310   4.523  10.857   3.403 -4.0304 -3.5245 -1.9972
   25MOL0     H 3311   4.523  10.715   3.508  0.7575  0.2123 -1.9305
   25MOL0     H 3312   4.377  10.837   3.675  1.7114  0.2389  0.0893
   25MOL0     H 3313   4.387  10.978   3.573  0.6655  0.8964 -0.8929
   25MOL0     H 3314   4.237  10.710   3.518 -0.0372 -0.5564 -0.6621
   25MOL0     H 3315   4.166  10.875   3.563  0.1687  1.2135 -0.1770
   25MOL0     H 3316   4.266  10.940   3.328  3.0972 -1.1585  0.5927
   25MOL0     H 3317   4.294  10.774   3.296 -4.6065 -1.3337 -2.7404
   25MOL0     H 3318   4.075  10.679   3.325 -2.2274  0.8538 -1.0197
   25MOL0     H 3319   4.022  10.848   3.370  1.0022  2.4026 -0.2515
   25MOL0     H 3320   3.956  10.799   3.154  0.7738 -1.9567  0.4876
   25MOL0     H 3321   4.082  10.919   3.145 -0.8438  0.4780  1.3701
   25MOL0     H 3322   4.218  10.802   3.028 -2.0717  1.7392 -2.2237
   25MOL0     H 3323   4.204  10.654   3.121  0.0480  0.1911  0.5781
   25MOL0     H 3324   4.152  10.598   2.903  0.8532 -0.6071  0.5496
   25MOL0     H 3325   4.042  10.741   2.880  1.2552  2.5087  1.2878
   25MOL0     H 3326   4.054  10.438   3.112 -0.3646  1.0924  0.8924
   25MOL0     H 3327   3.707  10.252   3.072  1.8070  0.9209 -0.7239
   25MOL0     H 3328   3.860  10.228   3.158 -1.6472 -2.2331  1.9316
   25MOL0     H 3329   3.635  10.409   3.234 -0.5068 -0.4124  0.4301
   25MOL0     H 3330   3.797  10.406   3.310  3.2633 -2.4633 -1.3256
   25MOL0     H 3331   3.742  10.151   3.357  0.8928 -0.6363 -2.8076
   25MOL0     H 3332   3.584  10.179   3.288 -0.5455  1.2677 -1.8614
   25MOL0     H 3333   3.524  10.336   3.474  0.1363  0.4421  1.3785
   25MOL0     H 3334   3.688  10.362   3.523 -0.8315 -0.4539  0.8695
   25MOL0     H 3335   3.557   9.979   3.443 -0.2263 -0.0735 -0.3888
   25MOL0     H 3336   3.289   9.715   3.478 -1.8130 -1.9443 -2.2047
   25MOL0     H 3337   3.262   9.827   3.341 -0.0360  2.5059  0.3754
   25MOL0     H 3338   3.423   9.770   3.378  0.1688  0.7361 -0.0691
   25MOL0     H 3339   2.888   9.850   3.321 -0.0640 -0.7952 -0.4136
   25MOL0     H 3340   2.632   9.766   3.342  0.3428 -5.4844 -0.4195
   25MOL0     H 3341   2.427   9.761   3.383  1.6082  1.6744  2.2585
   25MOL0     H 3342   2.472   9.595   3.351  0.9053  1.2426 -1.2137
   25MOL0     H 3343   2.253   9.688   3.545  0.0415 -1.4174  1.2413
   25MOL0     H 3344   2.220   9.632   3.377 -2.9357  0.9717  1.3302
   25MOL0     H 3345   2.305   9.502   3.631 -1.2882  1.5395  0.3703
   25MOL0     H 3346   2.360   9.417   3.479  0.1592  0.3675  1.2932
   25MOL0     H 3347   2.072   9.485   3.540 -0.0377 -0.0982 -0.7013
   25MOL0     H 3348   2.134   9.383   3.412 -2.9068 -2.0279  1.9031
   25MOL0     H 3349   2.064   9.266   3.632  1.2928 -2.4370 -0.0337
   25MOL0     H 3350   2.236   9.281   3.659 -0.4165 -2.3669  0.9784
   25MOL0     H 3351   2.105   9.170   3.416  0.1592 -2.6197 -0.4413
   25MOL0     H 3352   2.278   9.176   3.433 -0.4513 -0.2638 -0.2283
   25MOL0     H 3353   2.085   9.024   3.627 -0.5106  3.1577 -0.2132
   25MOL0     H 3354   2.256   9.047   3.645 -0.7598  1.2131 -0.0978
   25MOL0     H 3355   2.141   8.901   3.411 -0.2102  1.1642  0.4519
   25MOL0     H 3356   2.223   8.822   3.542 -0.1999 -1.7697 -2.7799
   25MOL0     H 3357   2.696   9.637   3.728  3.4650 -1.1040  0.7545
   25MOL0     H 3358   2.949   9.732   3.712  0.3890  0.3461 -0.5316
   25MOL0     H 3359   3.174  10.160   3.678 -1.4811 -2.5941 -0.4485
   25MOL0     H 3360   3.393  10.278   3.684 -0.9825  1.4590 -0.2008
   25MOL0     H 3361   4.826  11.021   3.611 -0.0241  0.7630 -1.1762
   25MOL0     H 3362   5.061  10.982   3.536  0.8559  0.6904 -2.0849
   25MOL0     H 3363   5.304  10.942   3.085 -0.7003 -2.2507  0.0491
   25MOL0     H 3364   5.538  10.947   3.035 -3.1250  1.2932 -0.8075
   25MOL0     H 3365   5.850  10.771   3.298 -1.9970  2.9077 -0.0825
   25MOL0     H 3366   5.811  10.621   3.204  2.0046 -0.6874 -0.7554
   25MOL0     H 3367   5.961  10.841   3.078 -0.4222  0.2504  1.2128
   25MOL0     H 3368   5.948  10.687   3.013 -2.6050 -1.1071  0.0087
   25MOL0     H 3369   6.077  10.584   3.194 -1.7589  0.5601  0.4685
   25MOL0     H 3370   6.087  10.734   3.290 -2.0124  0.3380  0.4133
   25MOL0     H 3371   6.202  10.839   3.095  0.9579 -0.2188  1.2592
   25MOL0     H 3372   6.179  10.686   3.004  0.6685 -1.5257  0.5472
   25MOL0     H 3373   6.536  10.569   3.161  0.2373 -0.0413 -3.3609
   25MOL0     H 3374   5.623  10.665   3.351  1.1821 -1.2935 -0.2534
   25MOL0     H 3375   5.378  10.703   3.428 -1.6269  1.4672  0.6259
   26MOL0     O 3376   2.245  10.292   8.943 -0.8220  0.2302  0.4411
   26MOL0     C 3377   2.301  10.398   8.925  0.5611 -0.0763 -0.6824
   26MOL0     O 3378   2.284  10.509   9.007 -0.1575  0.1078 -0.3009
   26MOL0     C 3379   2.188  10.510   9.099 -0.1030  0.2790 -0.8519
   26MOL0     C 3380   2.225  10.548   9.233  0.1676 -0.1838  1.0745
   26MOL0     C 3381   2.137  10.542   9.335  0.1159 -0.0289 -1.2374
   26MOL0     C 3382   1.999  10.517   9.308 -0.4284  1.0071  0.9299
   26MOL0     O 3383   1.881  10.519   9.382 -0.7177 -0.1010 -0.1847
   26MOL0     C 3384   1.912  10.561   9.513  0.2946  0.2688 -0.3389
   26MOL0     C 3385   1.788  10.574   9.591 -0.0720  0.9631 -0.1503
   26MOL0     C 3386   1.684  10.674   9.534 -0.4201  0.2501  0.2546
   26MOL0     C 3387   1.569  10.712   9.625 -0.4548  0.5340  0.5894
   26MOL0     C 3388   1.491  10.597   9.683 -0.5009  0.0257  0.0426
   26MOL0     C 3389   1.399  10.531   9.584 -0.3946 -0.1226 -0.6563
   26MOL0     C 3390   1.288  10.631   9.551 -0.1991  0.7674  0.0503
   26MOL0     C 3391   1.146  10.566   9.569  0.1110 -0.5204 -0.2477
   26MOL0     N 3392   1.033  10.658   9.530 -0.0175 -0.8774  0.1110
   26MOL0     C 3393   0.932  10.686   9.617 -0.0188 -0.0354 -0.1932
   26MOL0     C 3394   0.832  10.734   9.540  0.2162 -0.0929  0.6225
   26MOL0     C 3395   0.692  10.774   9.591  0.4649 -0.9031  0.2848
   26MOL0     C 3396   0.592  10.656   9.589 -0.3633 -0.5489  0.5052
   26MOL0     C 3397   0.466  10.694   9.663 -0.2627 -0.7839  0.4965
   26MOL0     C 3398   0.338  10.601   9.647 -1.2768  0.3951 -0.2930
   26MOL0     O 3399   0.229  10.649   9.723  0.2844 -0.4813 -0.4192
   26MOL0     C 3400   0.105  10.589   9.706 -0.2994 -0.4921 -0.3202
   26MOL0     C 3401   0.004  10.623   9.791 -0.0085 -0.6357 -0.6737
   26MOL0     C 3402  -0.130  10.578   9.791 -0.6187  0.7218  0.2031
   26MOL0     C 3403  -0.220  10.613   9.903  0.5813  0.1986 -0.1675
   26MOL0     C 3404  -0.158  10.480   9.680  0.3137 -1.1107 -0.4286
   26MOL0     C 3405  -0.296  10.429   9.668  0.2395 -0.5305  0.3696
   26MOL0     O 3406  -0.321  10.379   9.544  0.1427  0.0185 -0.7009
   26MOL0     C 3407  -0.445  10.349   9.498  0.1052 -0.0100 -0.5423
   26MOL0     C 3408  -0.556  10.298   9.569  0.4105  0.0829 -0.5323
   26MOL0     C 3409  -0.670  10.241   9.502 -0.3587  0.1585 -0.7810
   26MOL0     C 3410  -0.685  10.244   9.369  0.5575 -0.6574  0.6814
   26MOL0     O 3411  -0.794  10.206   9.300  0.1467  0.9338  0.8575
   26MOL0     C 3412  -0.913  10.267   9.342  0.1564 -0.3881  0.7641
   26MOL0     C 3413  -1.027  10.187   9.268  0.1177 -0.6948  0.1968
   26MOL0     C 3414  -1.168  10.215   9.320 -0.1040  1.0693  0.5240
   26MOL0     C 3415  -1.262  10.113   9.255 -1.3835  0.6556 -0.0659
   26MOL0     C 3416  -1.391  10.096   9.330  0.4143 -0.1000 -0.2277
   26MOL0     C 3417  -1.491  10.203   9.327 -0.0478 -1.5807  0.0344
   26MOL0     C 3418  -1.553  10.255   9.203  0.9099  0.5561  0.0947
   26MOL0     C 3419  -1.659  10.363   9.227  0.5669  0.9734 -0.5532
   26MOL0    Cl 3420  -1.820  10.302   9.267  0.5451 -0.3808  0.4148
   26MOL0     C 3421  -0.574  10.288   9.297 -0.4401 -0.0959  0.1390
   26MOL0     C 3422  -0.460  10.334   9.357 -0.6112  0.3274 -0.0437
   26MOL0     O 3423  -0.376  10.449   9.761  0.2354 -0.0720 -0.3800
   26MOL0     C 3424  -0.054  10.454   9.588  0.7653 -0.8955 -0.8253
   26MOL0     C 3425   0.071  10.507   9.602  0.6577 -0.3296  0.6893
   26MOL0     N 3426   0.868  10.742   9.413  0.3711  0.6120  0.3407
   26MOL0     N 3427   0.994  10.697   9.404 -0.0532  0.6263 -0.9130
   26MOL0     C 3428   1.966  10.482   9.180 -0.1190 -0.0161  0.2650
   26MOL0     C 3429   2.056  10.470   9.078  0.2612 -0.4789  0.5355
   26MOL0     C 3430   2.405  10.409   8.817  0.0511 -0.3098 -0.4891
   26MOL0     C 3431   2.430  10.298   8.739 -0.1851  0.1335  0.3708
   26MOL0     C 3432   2.540  10.299   8.650  0.0046  1.3942  0.1537
   26MOL0     C 3433   2.611  10.418   8.619  1.4458 -0.1751  1.2378
   26MOL0     O 3434   2.719  10.397   8.530  0.0055 -0.5547 -0.1205
   26MOL0     C 3435   2.837  10.488   8.548 -0.7026 -0.3320  0.8936
   26MOL0     C 3436   2.865  10.566   8.411  0.5962  0.5775  0.4153
   26MOL0     C 3437   2.851  10.489   8.280  0.8815  0.2709  0.6355
   26MOL0     C 3438   2.915  10.571   8.171  0.2494  0.2042  0.7360
   26MOL0     C 3439   2.887  10.501   8.046  0.1133  0.3959 -0.0764
   26MOL0     C 3440   2.839  10.424   7.954 -0.0087  0.1502  0.4179
   26MOL0     C 3441   2.583  10.533   8.706 -1.7854  0.1286  0.7746
   26MOL0     C 3442   2.489  10.522   8.804  0.1497  1.2267 -0.6145
   26MOL0     H 3443   2.328  10.581   9.247  1.3078 -2.1223 -1.7622
   26MOL0     H 3444   2.168  10.564   9.437 -0.2659  1.2877 -1.3850
   26MOL0     H 3445   1.976  10.486   9.560 -0.0378  1.2810  1.8583
   26MOL0     H 3446   1.965  10.657   9.507 -0.9935  0.9852 -0.6883
   26MOL0     H 3447   1.747  10.474   9.609 -0.3244  0.3742 -3.2830
   26MOL0     H 3448   1.813  10.607   9.692  1.3508 -2.3525  0.6991
   26MOL0     H 3449   1.750  10.758   9.508 -0.1031 -1.1640 -4.4229
   26MOL0     H 3450   1.652  10.630   9.439  0.6790 -1.7319  0.7356
   26MOL0     H 3451   1.586  10.788   9.701 -1.1640  0.5639  0.7245
   26MOL0     H 3452   1.507  10.757   9.546  3.2460 -0.7549 -3.4340
   26MOL0     H 3453   1.556  10.514   9.712  0.3442 -0.9093 -3.8314
   26MOL0     H 3454   1.436  10.623   9.773 -1.8068 -2.9043  0.2277
   26MOL0     H 3455   1.461  10.491   9.504  0.5276 -1.9319  0.8985
   26MOL0     H 3456   1.364  10.438   9.629 -1.9372  0.3285 -0.8460
   26MOL0     H 3457   1.285  10.705   9.631 -2.2927 -1.1717  1.8874
   26MOL0     H 3458   1.292  10.672   9.449  0.3684  0.0725 -0.2183
   26MOL0     H 3459   1.129  10.522   9.668  0.3021 -0.9604 -0.4056
   26MOL0     H 3460   1.144  10.488   9.492 -0.4547 -1.6142  0.8421
   26MOL0     H 3461   0.932  10.676   9.725  2.2596  1.2717 -0.0025
   26MOL0     H 3462   0.698  10.804   9.696 -2.6072 -0.9773  0.5891
   26MOL0     H 3463   0.655  10.857   9.531  2.2029  0.5596  1.1360
   26MOL0     H 3464   0.633  10.565   9.635 -1.2454  0.7237  4.1610
   26MOL0     H 3465   0.590  10.644   9.480 -1.5750  5.8275 -0.5392
   26MOL0     H 3466   0.422  10.785   9.620 -0.5943 -1.6497 -1.0480
   26MOL0     H 3467   0.491  10.727   9.765  0.4236  0.7110 -0.1221
   26MOL0     H 3468   0.378  10.504   9.678 -0.0323  0.4331 -1.6547
   26MOL0     H 3469   0.314  10.591   9.541  0.6124  1.8684 -0.9268
   26MOL0     H 3470   0.025  10.690   9.874 -3.3949  0.0006 -0.1896
   26MOL0     H 3471  -0.321  10.644   9.877  0.1728 -0.3700  0.7141
   26MOL0     H 3472  -0.229  10.521   9.961  0.5312 -0.0722 -0.6056
   26MOL0     H 3473  -0.173  10.695   9.959 -0.1313  2.6090 -2.8431
   26MOL0     H 3474  -0.548  10.293   9.677 -0.9542  0.3564 -0.4048
   26MOL0     H 3475  -0.750  10.205   9.566  2.2937 -1.5733  1.8379
   26MOL0     H 3476  -0.923  10.248   9.450  1.0293 -1.1033  0.7389
   26MOL0     H 3477  -0.918  10.376   9.342 -0.7714 -0.4276  1.0036
   26MOL0     H 3478  -1.017  10.220   9.164 -1.0226 -1.4157 -0.1586
   26MOL0     H 3479  -1.005  10.080   9.277  4.4154  0.1268  1.8247
   26MOL0     H 3480  -1.208  10.311   9.286 -0.1282  0.9575  0.2289
   26MOL0     H 3481  -1.162  10.194   9.427  1.2647  0.7311  0.3968
   26MOL0     H 3482  -1.284  10.139   9.151 -1.0059  0.6002 -0.1595
   26MOL0     H 3483  -1.215  10.015   9.247  1.0860  1.5493  2.0723
   26MOL0     H 3484  -1.359  10.070   9.431  2.0103  0.4766 -0.5613
   26MOL0     H 3485  -1.438  10.007   9.287 -3.5584  0.2612  2.8153
   26MOL0     H 3486  -1.578  10.168   9.385  0.7803 -2.1389  0.9802
   26MOL0     H 3487  -1.448  10.282   9.390  0.0295 -1.2135 -0.4736
   26MOL0     H 3488  -1.596  10.169   9.151  0.7210  0.6101  0.1587
   26MOL0     H 3489  -1.473  10.295   9.141  2.4287 -1.2844  0.7896
   26MOL0     H 3490  -1.656  10.421   9.135 -3.1350 -2.1251 -2.9369
   26MOL0     H 3491  -1.632  10.420   9.317  1.0048 -1.0959  0.7163
   26MOL0     H 3492  -0.565  10.282   9.189 -0.7136  1.0463  0.0403
   26MOL0     H 3493  -0.378  10.371   9.297  1.5344 -0.1028  2.4433
   26MOL0     H 3494  -0.078  10.383   9.509  2.4008 -1.1050 -1.1698
   26MOL0     H 3495   0.136  10.481   9.518 -0.4678 -0.7439 -0.0769
   26MOL0     H 3496   1.865  10.449   9.158  1.1646 -4.6774  0.1348
   26MOL0     H 3497   2.026  10.453   8.975  0.8516 -0.2296  0.3179
   26MOL0     H 3498   2.384  10.200   8.751 -1.1507  0.8118  2.9264
   26MOL0     H 3499   2.568  10.207   8.601 -1.7801  0.6325  0.4951
   26MOL0     H 3500   2.827  10.563   8.628 -1.9112 -1.9643  2.3596
   26MOL0     H 3501   2.923  10.422   8.543 -2.3843 -2.5671  0.0363
   26MOL0     H 3502   2.965  10.609   8.405  0.8299 -0.1155 -1.3947
   26MOL0     H 3503   2.797  10.652   8.414  3.0870  2.6728 -0.0998
   26MOL0     H 3504   2.750  10.457   8.251  1.4507 -0.4854 -0.5813
   26MOL0     H 3505   2.921  10.411   8.309  1.2942  0.3343 -0.1784
   26MOL0     H 3506   3.022  10.584   8.186 -0.2104  2.9785  2.2849
   26MOL0     H 3507   2.878  10.674   8.170  1.9764  0.8458  0.3351
   26MOL0     H 3508   2.780  10.369   7.884  0.5185 -0.9909  0.8491
   26MOL0     H 3509   2.637  10.627   8.697  1.0751 -1.4268  0.2933
   26MOL0     H 3510   2.472  10.602   8.874 -2.1791  0.3987 -0.1195
   27MOL0     O 3511   2.769   1.487   4.535  0.4102  0.1461  0.4959
   27MOL0     C 3512   2.800   1.595   4.478 -0.3317 -0.4265 -0.6628
   27MOL0     O 3513   2.713   1.684   4.422  0.0891 -0.0015  0.1736
   27MOL0     C 3514   2.573   1.671   4.420 -0.1015  0.3718 -0.3059
   27MOL0     C 3515   2.521   1.542   4.384 -0.3774  0.4646 -0.5674
   27MOL0     C 3516   2.379   1.527   4.366 -0.2192 -0.0571 -0.0165
   27MOL0     C 3517   2.297   1.641   4.396  0.7792 -0.4949 -0.1340
   27MOL0     O 3518   2.162   1.630   4.368  0.2177 -0.5053  0.0883
   27MOL0     C 3519   2.069   1.665   4.476 -0.4576  0.2252  0.2501
   27MOL0     C 3520   2.072   1.567   4.596  0.5548  0.1841  0.6222
   27MOL0     C 3521   1.944   1.572   4.686  0.4072 -0.1561  0.0890
   27MOL0     C 3522   1.918   1.467   4.797  0.4004  0.2566 -0.1065
   27MOL0     C 3523   1.876   1.328   4.738 -0.1848  0.3223  0.4001
   27MOL0     C 3524   1.815   1.237   4.844 -0.1032  0.1339  0.5430
   27MOL0     C 3525   1.672   1.266   4.868 -0.4482  0.4426  0.2636
   27MOL0     C 3526   1.586   1.177   4.784 -0.2182  0.2188 -0.2328
   27MOL0     N 3527   1.449   1.195   4.837 -0.7591 -0.4086  0.5618
   27MOL0     C 3528   1.378   1.101   4.900  1.2430 -0.0753  0.1212
   27MOL0     C 3529   1.256   1.167   4.918 -0.2694  0.4074 -0.6400
   27MOL0     C 3530   1.141   1.111   4.997  0.6320 -0.2335 -0.2476
   27MOL0     C 3531   1.162   1.092   5.143  0.1627 -1.0074  0.3744
   27MOL0     C 3532   1.148   1.228   5.204 -0.9221  0.4636 -0.5823
   27MOL0     C 3533   1.005   1.278   5.234 -0.2948 -0.0695 -0.7688
   27MOL0     O 3534   0.931   1.195   5.327  1.0731 -0.5682  0.3511
   27MOL0     C 3535   0.798   1.227   5.349 -0.8151 -0.7172 -0.7855
   27MOL0     C 3536   0.729   1.139   5.423  0.4470  0.1851 -0.9886
   27MOL0     C 3537   0.599   1.161   5.451  0.2983  0.8934  0.2499
   27MOL0     C 3538   0.531   1.048   5.541 -0.6831 -0.1548 -0.7469
   27MOL0     C 3539   0.525   1.267   5.397  0.2151 -0.6600  0.0719
   27MOL0     C 3540   0.383   1.296   5.428  0.9837  0.8214 -0.2251
   27MOL0     O 3541   0.353   1.435   5.424 -0.2399  0.9493 -0.1786
   27MOL0     C 3542   0.226   1.477   5.466  0.0039 -0.3036  0.2525
   27MOL0     C 3543   0.206   1.608   5.443  0.7926  0.0861  0.4600
   27MOL0     C 3544   0.082   1.677   5.476 -0.0888  0.5510  0.1788
   27MOL0     C 3545  -0.032   1.603   5.522 -0.0058  0.3827  0.3868
   27MOL0     O 3546  -0.154   1.659   5.558 -0.9143  0.1691 -0.0595
   27MOL0     C 3547  -0.184   1.787   5.505  0.0221 -0.4872  0.3406
   27MOL0     C 3548  -0.335   1.798   5.477  0.5492  0.6543  0.6077
   27MOL0     C 3549  -0.406   1.837   5.610  1.0313  0.1330 -0.5809
   27MOL0     C 3550  -0.557   1.851   5.610  0.3069  0.4354 -0.7754
   27MOL0     C 3551  -0.617   1.935   5.483 -0.0737  0.0602 -0.2563
   27MOL0     C 3552  -0.753   1.977   5.510  0.6205 -0.0195  0.3242
   27MOL0     C 3553  -0.821   2.008   5.375 -0.0687  0.2195  1.0249
   27MOL0     C 3554  -0.965   2.045   5.403  0.0664 -0.1957  0.0205
   27MOL0    Cl 3555  -1.056   2.084   5.261  0.1561  0.5561  0.1161
   27MOL0     C 3556  -0.013   1.467   5.544 -0.5228 -0.4580  0.6866
   27MOL0     C 3557   0.114   1.405   5.513 -0.2737 -0.6480  0.2618
   27MOL0     O 3558   0.297   1.204   5.430 -0.1744 -0.4657 -0.5075
   27MOL0     C 3559   0.593   1.351   5.308  0.5693  0.1762 -0.0321
   27MOL0     C 3560   0.727   1.330   5.290 -0.1846  0.4691  0.7167
   27MOL0     N 3561   1.259   1.287   4.859 -0.2338 -0.6106 -0.5700
   27MOL0     N 3562   1.376   1.313   4.814 -0.4128 -0.2764 -0.1798
   27MOL0     C 3563   2.358   1.765   4.429  0.9296 -0.1088  0.0942
   27MOL0     C 3564   2.494   1.777   4.441  0.3081 -0.6207  0.1252
   27MOL0     C 3565   2.946   1.620   4.464 -0.4500  0.3076  1.1967
   27MOL0     C 3566   3.001   1.742   4.411  0.0064 -0.3470 -0.0085
   27MOL0     C 3567   3.134   1.764   4.379 -0.6177 -0.2949  0.1861
   27MOL0     C 3568   3.224   1.671   4.435 -0.1416  0.1792  0.6586
   27MOL0     O 3569   3.356   1.713   4.412 -0.8502  0.8224 -0.7962
   27MOL0     C 3570   3.443   1.664   4.519 -0.0397  0.2576 -0.2854
   27MOL0     C 3571   3.577   1.722   4.519  0.5641 -0.7106  0.3407
   27MOL0     C 3572   3.565   1.860   4.591 -0.4104 -0.0057  0.9436
   27MOL0     C 3573   3.688   1.945   4.573 -0.5578 -0.0234  0.1474
   27MOL0     C 3574   3.665   2.080   4.631  0.0410 -0.1116  0.7267
   27MOL0     C 3575   3.661   2.186   4.698  0.1179 -1.1644  0.4319
   27MOL0     C 3576   3.176   1.548   4.486  0.6485 -0.2308 -0.4662
   27MOL0     C 3577   3.041   1.522   4.503  0.0321 -0.6439 -0.0871
   27MOL0     H 3578   2.583   1.453   4.377 -1.3197 -0.0974 -2.4861
   27MOL0     H 3579   2.343   1.426   4.347  2.6524 -1.3928  0.8990
   27MOL0     H 3580   2.076   1.773   4.493  0.9033  0.1348  0.3938
   27MOL0     H 3581   1.970   1.657   4.430 -0.6639  1.5021  0.4299
   27MOL0     H 3582   2.086   1.467   4.555 -1.5889  1.1209 -2.7544
   27MOL0     H 3583   2.160   1.580   4.660 -0.0406  0.1321  1.4745
   27MOL0     H 3584   1.931   1.664   4.743 -1.7026 -1.5999  2.1657
   27MOL0     H 3585   1.852   1.573   4.626  0.6582 -0.2287 -0.3014
   27MOL0     H 3586   2.008   1.460   4.860  0.0162  1.3836  0.6100
   27MOL0     H 3587   1.844   1.509   4.866  3.7166  0.8919  3.4457
   27MOL0     H 3588   1.809   1.355   4.656 -0.6901 -0.4846  0.5345
   27MOL0     H 3589   1.958   1.277   4.687 -0.5637 -0.3327  0.4305
   27MOL0     H 3590   1.819   1.130   4.826 -3.5151 -0.3627  1.8962
   27MOL0     H 3591   1.868   1.262   4.936  0.1376 -4.0234  1.7183
   27MOL0     H 3592   1.660   1.248   4.975  1.8533 -0.0150  0.4932
   27MOL0     H 3593   1.648   1.373   4.865  1.0478  0.8264  0.9538
   27MOL0     H 3594   1.622   1.074   4.791 -0.1252  0.2350 -0.4656
   27MOL0     H 3595   1.578   1.210   4.680 -0.7965  0.2998 -0.1639
   27MOL0     H 3596   1.410   1.007   4.944 -0.0268 -0.8671 -0.5866
   27MOL0     H 3597   1.050   1.171   4.986  0.3227  0.1049  3.1693
   27MOL0     H 3598   1.116   1.011   4.961  1.3852 -0.4147 -0.2835
   27MOL0     H 3599   1.265   1.057   5.156  1.0334  0.3001 -2.2674
   27MOL0     H 3600   1.095   1.016   5.184 -1.1870 -0.6516 -1.0600
   27MOL0     H 3601   1.183   1.305   5.135 -0.2297  1.2426  0.6037
   27MOL0     H 3602   1.204   1.230   5.298 -3.2620 -0.4048  0.9181
   27MOL0     H 3603   0.953   1.280   5.137 -0.4754  4.0859 -0.7602
   27MOL0     H 3604   1.013   1.381   5.269  2.4343 -0.4800  0.0479
   27MOL0     H 3605   0.788   1.057   5.463 -1.2293 -0.1879  0.9010
   27MOL0     H 3606   0.615   0.991   5.582 -0.6719  0.8912  0.7709
   27MOL0     H 3607   0.479   1.105   5.619 -1.6911 -1.0909 -0.7149
   27MOL0     H 3608   0.453   0.992   5.488 -1.4694 -1.0528  1.2772
   27MOL0     H 3609   0.283   1.672   5.402  0.2798  1.9164  2.1570
   27MOL0     H 3610   0.066   1.785   5.473 -1.3567  0.4045  0.8931
   27MOL0     H 3611  -0.147   1.847   5.589  0.8156 -1.9386  1.0678
   27MOL0     H 3612  -0.132   1.804   5.410 -0.1074  0.0791  0.3669
   27MOL0     H 3613  -0.354   1.865   5.393  0.3439  1.6730  1.4389
   27MOL0     H 3614  -0.363   1.697   5.444 -2.4343  1.4666  0.4176
   27MOL0     H 3615  -0.376   1.935   5.647 -1.6887  0.7133  0.2888
   27MOL0     H 3616  -0.380   1.764   5.688  0.0373 -0.1595 -0.5132
   27MOL0     H 3617  -0.604   1.752   5.609 -0.0570  0.5930  0.0435
   27MOL0     H 3618  -0.591   1.898   5.703  0.8838  3.3176 -1.9025
   27MOL0     H 3619  -0.608   1.861   5.403  0.5572 -1.5829  1.2677
   27MOL0     H 3620  -0.553   2.022   5.465  0.9505 -0.0590  2.2992
   27MOL0     H 3621  -0.805   1.898   5.565  3.9924 -1.4875  1.6349
   27MOL0     H 3622  -0.757   2.070   5.568  1.3553 -1.2143  2.4162
   27MOL0     H 3623  -0.833   1.929   5.300 -0.2751  0.6916  0.5527
   27MOL0     H 3624  -0.771   2.084   5.313 -1.6942 -1.4887 -2.7135
   27MOL0     H 3625  -0.975   2.134   5.466  0.3155  0.3140 -0.6468
   27MOL0     H 3626  -1.006   1.960   5.458  0.3886 -0.6303 -0.3996
   27MOL0     H 3627  -0.092   1.416   5.598 -0.8348 -1.0238 -0.2936
   27MOL0     H 3628   0.119   1.299   5.535  1.3506 -0.8604 -0.9229
   27MOL0     H 3629   0.542   1.429   5.252  0.3640 -0.5885 -0.9254
   27MOL0     H 3630   0.781   1.402   5.228  2.2409 -1.1422  0.8314
   27MOL0     H 3631   2.290   1.850   4.440 -0.3344 -1.3882  3.9550
   27MOL0     H 3632   2.545   1.871   4.456  4.5982 -2.4452 -1.3898
   27MOL0     H 3633   2.933   1.823   4.385 -0.4618  0.0582  2.2567
   27MOL0     H 3634   3.171   1.852   4.327 -2.1164  1.4538  1.9493
   27MOL0     H 3635   3.404   1.674   4.621 -0.0626  1.6621 -0.4163
   27MOL0     H 3636   3.457   1.558   4.498  2.3340  0.2934  0.6941
   27MOL0     H 3637   3.615   1.730   4.417  1.3691 -0.8031  0.6317
   27MOL0     H 3638   3.655   1.668   4.574  1.6781  0.6619  0.1647
   27MOL0     H 3639   3.537   1.846   4.696  1.7067  0.1450  1.5646
   27MOL0     H 3640   3.486   1.919   4.543  1.4313  1.1734 -0.8073
   27MOL0     H 3641   3.709   1.942   4.466 -1.5450  0.5960 -0.0830
   27MOL0     H 3642   3.767   1.892   4.628 -0.2504 -0.4918 -0.7368
   27MOL0     H 3643   3.659   2.275   4.757  2.1089  0.0278 -1.1652
   27MOL0     H 3644   3.250   1.482   4.532  1.0126 -2.0235 -3.3504
   27MOL0     H 3645   2.997   1.438   4.555 -3.9547  0.8223 -0.7192
   28MOL0     O 3646   0.657   1.701   0.576  0.6757  0.1814  0.6029
   28MOL0     C 3647   0.767   1.759   0.587  0.4721 -0.0990 -0.3561
   28MOL0     O 3648   0.789   1.871   0.661  0.3023 -0.2388  0.0863
   28MOL0     C 3649   0.680   1.933   0.707  0.6369 -0.6979  0.3407
   28MOL0     C 3650   0.583   1.989   0.626  0.0260 -1.1725  0.2367
   28MOL0     C 3651   0.460   2.036   0.666  0.2453  0.2454 -0.2187
   28MOL0     C 3652   0.438   2.035   0.807 -0.3893  0.0967 -0.2018
   28MOL0     O 3653   0.322   2.087   0.867 -0.5490 -0.4349 -0.0328
   28MOL0     C 3654   0.225   2.149   0.794  0.0567  0.0736 -0.0786
   28MOL0     C 3655   0.105   2.199   0.869  0.2126 -0.2548  0.3200
   28MOL0     C 3656   0.007   2.088   0.904  0.0358 -0.0280  0.0710
   28MOL0     C 3657  -0.136   2.150   0.930 -0.2440  0.1632  0.3504
   28MOL0     C 3658  -0.228   2.034   0.966 -0.4050  0.2294 -0.8754
   28MOL0     C 3659  -0.372   2.087   0.963 -0.8694 -0.0862  0.2110
   28MOL0     C 3660  -0.468   1.972   1.007  0.6842 -0.7466 -0.4592
   28MOL0     C 3661  -0.493   1.852   0.911  0.5826  1.1726  0.1507
   28MOL0     N 3662  -0.563   1.743   0.984 -0.2844  0.4067 -0.1917
   28MOL0     C 3663  -0.524   1.667   1.092 -0.5928 -0.5957 -0.2192
   28MOL0     C 3664  -0.637   1.618   1.143 -0.0608 -0.0422  0.4206
   28MOL0     C 3665  -0.629   1.540   1.263  0.6388  0.0767 -0.3845
   28MOL0     C 3666  -0.637   1.386   1.260 -0.5061  0.1199 -1.0445
   28MOL0     C 3667  -0.660   1.334   1.403 -1.0352  0.2341 -0.3373
   28MOL0     C 3668  -0.541   1.302   1.493 -0.1278  0.0895  0.2342
   28MOL0     O 3669  -0.459   1.419   1.518 -0.0000 -0.1840  0.3829
   28MOL0     C 3670  -0.363   1.394   1.613 -0.1840  0.3893 -0.2937
   28MOL0     C 3671  -0.237   1.352   1.574  0.1867 -0.0335 -0.4964
   28MOL0     C 3672  -0.131   1.317   1.660  0.2726  0.1015  0.2094
   28MOL0     C 3673   0.006   1.310   1.590  0.0366 -0.1634 -0.7040
   28MOL0     C 3674  -0.157   1.307   1.796  0.1319  0.3735  0.6707
   28MOL0     C 3675  -0.056   1.264   1.904 -0.0095 -0.0370  0.8268
   28MOL0     O 3676  -0.107   1.248   2.033 -0.0482 -0.0062  0.0853
   28MOL0     C 3677  -0.032   1.196   2.137 -0.9484 -0.6599 -0.3603
   28MOL0     C 3678   0.102   1.151   2.149 -0.6049  0.0391  0.6600
   28MOL0     C 3679   0.153   1.088   2.270  0.8544  1.4753  0.5095
   28MOL0     C 3680   0.073   1.074   2.384 -0.1936  0.5698 -0.0590
   28MOL0     O 3681   0.115   1.004   2.496 -0.5494  0.4525 -0.3634
   28MOL0     C 3682   0.059   1.040   2.622  0.5759 -0.0476  0.5221
   28MOL0     C 3683   0.132   0.956   2.725 -0.2161  0.2562 -0.2569
   28MOL0     C 3684   0.284   0.968   2.724 -0.4132 -0.0989  0.1760
   28MOL0     C 3685   0.356   0.873   2.824 -0.7107  0.0963  0.1441
   28MOL0     C 3686   0.488   0.806   2.766  0.1507 -0.6311  0.6936
   28MOL0     C 3687   0.590   0.748   2.874 -0.0110 -0.3070 -1.0109
   28MOL0     C 3688   0.539   0.617   2.956 -0.0363  0.7170 -0.0507
   28MOL0     C 3689   0.627   0.581   3.078  0.6968 -0.9015 -1.4198
   28MOL0    Cl 3690   0.804   0.540   3.043  0.1382 -0.5336  0.5324
   28MOL0     C 3691  -0.048   1.146   2.375  0.0813  0.2449  0.8864
   28MOL0     C 3692  -0.100   1.202   2.261  0.0276  1.3931 -0.0551
   28MOL0     O 3693   0.060   1.239   1.872  0.4331 -0.0202  0.0236
   28MOL0     C 3694  -0.288   1.343   1.841  0.3808  0.5161  0.0557
   28MOL0     C 3695  -0.385   1.394   1.755  0.3074 -0.5201  0.5772
   28MOL0     N 3696  -0.742   1.638   1.061 -0.3793 -0.4006  0.1083
   28MOL0     N 3697  -0.697   1.713   0.971 -0.2780  0.2324 -0.3334
   28MOL0     C 3698   0.534   1.989   0.895  0.0333  0.7750 -0.0229
   28MOL0     C 3699   0.652   1.937   0.841 -0.0824 -0.3482  0.3650
   28MOL0     C 3700   0.875   1.705   0.506  0.2095 -1.0512  0.5520
   28MOL0     C 3701   1.002   1.770   0.528  0.1879 -0.7071 -0.6320
   28MOL0     C 3702   1.115   1.728   0.460  0.0027  0.3024 -0.4377
   28MOL0     C 3703   1.115   1.636   0.356  0.9267 -0.1946  1.3193
   28MOL0     O 3704   1.214   1.600   0.268 -0.0068 -0.0282 -0.4871
   28MOL0     C 3705   1.346   1.650   0.261 -0.4297  0.4441 -0.7059
   28MOL0     C 3706   1.363   1.783   0.189  0.5246 -0.5973 -0.4883
   28MOL0     C 3707   1.495   1.853   0.215 -0.1592  0.4113  0.4551
   28MOL0     C 3708   1.509   1.976   0.135 -0.8012  0.0962  0.4443
   28MOL0     C 3709   1.520   1.952  -0.013 -0.2879 -0.9355 -0.2282
   28MOL0     C 3710   1.527   1.955  -0.130 -0.0857 -0.1308  0.4064
   28MOL0     C 3711   0.984   1.576   0.334 -0.5983 -0.5139 -0.2754
   28MOL0     C 3712   0.867   1.599   0.413  0.1718  0.5879  0.7660
   28MOL0     H 3713   0.600   1.992   0.519 -1.4225 -0.8389 -0.0066
   28MOL0     H 3714   0.371   2.054   0.607 -1.0232 -1.1311  1.1999
   28MOL0     H 3715   0.269   2.240   0.752 -0.0761  1.4146  2.5473
   28MOL0     H 3716   0.189   2.085   0.713 -2.0396  1.7736 -0.5616
   28MOL0     H 3717   0.153   2.252   0.952  4.5559  0.7986 -2.5133
   28MOL0     H 3718   0.068   2.277   0.801  1.3870 -0.2081 -0.2926
   28MOL0     H 3719   0.000   2.015   0.822 -0.0206 -2.2850  1.9745
   28MOL0     H 3720   0.034   2.030   0.993 -1.6795  0.6473  1.0909
   28MOL0     H 3721  -0.139   2.229   1.005 -3.1021  2.6675 -2.1120
   28MOL0     H 3722  -0.170   2.202   0.839  0.3941 -1.0103 -0.5896
   28MOL0     H 3723  -0.219   1.954   0.892 -0.5846 -0.2548 -0.3775
   28MOL0     H 3724  -0.197   1.989   1.061  2.7049  0.1179 -1.8312
   28MOL0     H 3725  -0.373   2.183   1.016  1.3959  0.4722 -0.6116
   28MOL0     H 3726  -0.398   2.094   0.857  0.9030  2.3369 -0.1651
   28MOL0     H 3727  -0.439   1.929   1.104 -0.3168 -0.6623 -0.1123
   28MOL0     H 3728  -0.565   2.020   1.025  1.5418  0.3769  1.4290
   28MOL0     H 3729  -0.400   1.821   0.862  1.7290  3.8017  0.4786
   28MOL0     H 3730  -0.558   1.882   0.828 -1.0325 -1.0372  0.5340
   28MOL0     H 3731  -0.425   1.644   1.131 -0.2305 -0.4059 -1.0009
   28MOL0     H 3732  -0.539   1.580   1.309 -0.5941  3.3097 -0.5331
   28MOL0     H 3733  -0.714   1.575   1.322 -0.5076 -2.4409 -0.4246
   28MOL0     H 3734  -0.544   1.346   1.218  0.1703  0.6812 -0.1232
   28MOL0     H 3735  -0.717   1.344   1.198  1.6175 -0.4284 -3.6485
   28MOL0     H 3736  -0.705   1.236   1.391 -1.6879 -0.1967  4.1110
   28MOL0     H 3737  -0.731   1.392   1.463  0.4686 -0.2416  2.0621
   28MOL0     H 3738  -0.481   1.227   1.441  1.5722  0.6950  1.2506
   28MOL0     H 3739  -0.589   1.257   1.581 -2.1306 -0.9654 -1.3128
   28MOL0     H 3740  -0.216   1.360   1.467 -1.8781  0.7161 -0.8999
   28MOL0     H 3741   0.040   1.208   1.613 -0.8436  0.1677  2.4302
   28MOL0     H 3742  -0.003   1.330   1.483  0.3509  0.9441 -0.5356
   28MOL0     H 3743   0.080   1.382   1.628  1.0842  0.5112 -3.7114
   28MOL0     H 3744   0.166   1.131   2.064 -2.5104  1.3956 -1.2077
   28MOL0     H 3745   0.249   1.039   2.268  0.1442  0.0257 -1.4040
   28MOL0     H 3746   0.059   1.147   2.645 -1.6981  0.5386 -1.7132
   28MOL0     H 3747  -0.047   1.012   2.612  0.4857  0.7844 -1.2586
   28MOL0     H 3748   0.101   1.004   2.819  0.7012  2.3430 -0.9588
   28MOL0     H 3749   0.104   0.852   2.704 -3.9053  1.3465 -1.5280
   28MOL0     H 3750   0.320   1.071   2.736 -1.0390  0.0354  0.9686
   28MOL0     H 3751   0.305   0.931   2.623 -2.3759 -2.2741  0.4970
   28MOL0     H 3752   0.395   0.928   2.911 -1.7034 -1.5052  1.6606
   28MOL0     H 3753   0.283   0.794   2.843 -2.8561  1.1324 -3.0869
   28MOL0     H 3754   0.549   0.879   2.712  1.7545 -1.2185  1.6340
   28MOL0     H 3755   0.448   0.727   2.702 -2.7676  3.1855 -2.7518
   28MOL0     H 3756   0.679   0.721   2.818  1.9485  0.7833  1.4035
   28MOL0     H 3757   0.614   0.817   2.955  0.4815 -2.3553  0.6652
   28MOL0     H 3758   0.520   0.527   2.897 -0.4290  0.1960  0.8465
   28MOL0     H 3759   0.438   0.634   2.994  0.2325 -1.5030  1.8689
   28MOL0     H 3760   0.582   0.502   3.138  1.3587 -0.0074  0.3446
   28MOL0     H 3761   0.630   0.668   3.144 -2.6132 -1.5332 -0.2355
   28MOL0     H 3762  -0.112   1.168   2.460  0.0258  0.7595  0.7115
   28MOL0     H 3763  -0.196   1.252   2.267  0.5214  2.5389 -1.2139
   28MOL0     H 3764  -0.313   1.327   1.946 -0.0585 -1.2569 -0.2904
   28MOL0     H 3765  -0.478   1.429   1.798 -0.8687 -1.5435 -1.0030
   28MOL0     H 3766   0.528   1.980   1.003  0.1134  0.4180 -0.0457
   28MOL0     H 3767   0.733   1.893   0.898 -1.7324 -1.3108  2.0945
   28MOL0     H 3768   1.019   1.846   0.603  1.3252 -0.4273 -1.1475
   28MOL0     H 3769   1.197   1.786   0.502  1.0509 -1.6870  0.4175
   28MOL0     H 3770   1.393   1.659   0.359  1.0313 -0.8443 -1.2442
   28MOL0     H 3771   1.407   1.572   0.213  0.1261  0.1959  0.3692
   28MOL0     H 3772   1.287   1.854   0.223  1.6618  0.7200 -0.6312
   28MOL0     H 3773   1.338   1.781   0.082 -2.2762 -0.7870  0.0965
   28MOL0     H 3774   1.577   1.784   0.193 -2.3119 -1.9987 -0.4915
   28MOL0     H 3775   1.511   1.871   0.322  2.2317 -0.0795  0.2473
   28MOL0     H 3776   1.604   2.024   0.162 -0.5336 -1.5282  2.6828
   28MOL0     H 3777   1.430   2.047   0.160 -2.2859 -1.0616 -0.7581
   28MOL0     H 3778   1.552   1.971  -0.233  0.3505  1.7280  0.7533
   28MOL0     H 3779   0.983   1.507   0.249  2.8520 -1.0865 -0.0093
   28MOL0     H 3780   0.775   1.547   0.389  0.6757  0.0001  0.0435
   29MOL0     O 3781   4.743   2.936   6.413  0.1517 -0.2844 -0.6573
   29MOL0     C 3782   4.771   2.818   6.401  0.4822  0.0010  0.8429
   29MOL0     O 3783   4.680   2.718   6.403  0.5696  0.7139 -0.1983
   29MOL0     C 3784   4.555   2.747   6.455 -0.8353 -0.4187 -0.0923
   29MOL0     C 3785   4.545   2.766   6.592 -0.2184  0.0468  0.3545
   29MOL0     C 3786   4.429   2.809   6.645  0.5416  0.5337  0.2032
   29MOL0     C 3787   4.312   2.826   6.574  0.4241 -0.0990  0.5265
   29MOL0     O 3788   4.185   2.853   6.619 -0.7350 -0.6157  0.1078
   29MOL0     C 3789   4.165   2.834   6.758 -0.1307 -0.2752  0.7590
   29MOL0     C 3790   4.016   2.872   6.774 -0.4188  0.7615  0.8479
   29MOL0     C 3791   3.923   2.774   6.702  0.2405  0.3299  0.0489
   29MOL0     C 3792   3.776   2.814   6.733  0.0334  0.0566 -0.1475
   29MOL0     C 3793   3.673   2.697   6.723 -0.2251 -0.4628  0.3488
   29MOL0     C 3794   3.531   2.753   6.748 -0.0837 -0.0081 -0.2216
   29MOL0     C 3795   3.439   2.637   6.790 -0.4239  0.4637 -0.3834
   29MOL0     C 3796   3.296   2.686   6.820 -0.3314  0.2641 -0.3066
   29MOL0     N 3797   3.190   2.582   6.834  0.1520  0.5500  0.1321
   29MOL0     C 3798   3.204   2.490   6.928  0.0818 -0.8528  0.4309
   29MOL0     C 3799   3.116   2.393   6.891 -0.9634  0.3333 -0.2056
   29MOL0     C 3800   3.128   2.250   6.947 -0.0410  0.0659  0.7884
   29MOL0     C 3801   3.147   2.249   7.099  1.0362  0.0684 -0.2650
   29MOL0     C 3802   3.055   2.347   7.182  0.2260  0.2011  0.3425
   29MOL0     C 3803   2.905   2.335   7.154  0.3013  0.0079  0.2790
   29MOL0     O 3804   2.853   2.214   7.202  0.8293 -0.4421  0.0211
   29MOL0     C 3805   2.714   2.205   7.224 -0.0076 -1.2138 -0.4890
   29MOL0     C 3806   2.664   2.080   7.215  0.5656 -0.7307  0.9638
   29MOL0     C 3807   2.532   2.040   7.247  0.9247 -0.0305  0.0987
   29MOL0     C 3808   2.503   1.890   7.251 -0.3660 -0.2397 -0.4560
   29MOL0     C 3809   2.431   2.139   7.277  0.1535 -0.0033  0.4946
   29MOL0     C 3810   2.287   2.103   7.312 -0.0118  0.3538  0.5150
   29MOL0     O 3811   2.222   2.209   7.378  0.0740 -0.5854 -0.4387
   29MOL0     C 3812   2.089   2.224   7.390 -0.2584  0.0090  0.0514
   29MOL0     C 3813   1.988   2.131   7.367 -0.0507 -0.7028  0.7830
   29MOL0     C 3814   1.853   2.169   7.373  1.3187  0.8059 -0.9427
   29MOL0     C 3815   1.813   2.298   7.425 -0.0593  0.8868  0.2166
   29MOL0     O 3816   1.681   2.323   7.456  0.5207 -0.4694  0.0067
   29MOL0     C 3817   1.615   2.227   7.546  1.3617 -0.2557  0.7040
   29MOL0     C 3818   1.513   2.293   7.641  0.4394 -0.4158  0.8340
   29MOL0     C 3819   1.453   2.195   7.737  0.7882 -0.7292  0.0519
   29MOL0     C 3820   1.299   2.231   7.758 -0.4873  1.3839 -0.2098
   29MOL0     C 3821   1.236   2.116   7.830  0.4741  0.5328 -1.0207
   29MOL0     C 3822   1.095   2.155   7.881 -0.6192  0.5779  0.0816
   29MOL0     C 3823   1.032   2.033   7.948  0.3682 -0.6913  0.6555
   29MOL0     C 3824   0.876   2.067   7.953  0.3472 -0.2381 -0.1866
   29MOL0    Cl 3825   0.801   2.042   7.787 -0.0252  0.4472  0.1388
   29MOL0     C 3826   1.914   2.386   7.442 -0.6489 -0.7826  0.7595
   29MOL0     C 3827   2.050   2.352   7.430  1.0633  0.2197  0.9278
   29MOL0     O 3828   2.230   2.001   7.269 -0.4805 -0.0028  0.6280
   29MOL0     C 3829   2.480   2.274   7.298 -0.5741 -0.3343 -0.4003
   29MOL0     C 3830   2.616   2.308   7.258  0.0528 -0.1169 -0.5881
   29MOL0     N 3831   3.035   2.445   6.799 -0.6009 -0.0864 -0.3492
   29MOL0     N 3832   3.078   2.566   6.764  0.0932  0.1727  0.1574
   29MOL0     C 3833   4.318   2.806   6.432  0.0865  0.0754 -0.2497
   29MOL0     C 3834   4.437   2.767   6.381 -1.2815  0.5240  0.1347
   29MOL0     C 3835   4.908   2.790   6.361 -0.5867 -0.5834  0.1076
   29MOL0     C 3836   5.002   2.883   6.314 -0.5442  0.1942 -0.2802
   29MOL0     C 3837   5.126   2.847   6.268  0.1041  0.2581  0.5165
   29MOL0     C 3838   5.176   2.713   6.280 -1.0888 -0.5531  0.7469
   29MOL0     O 3839   5.310   2.687   6.259  0.0330  0.4545 -0.0624
   29MOL0     C 3840   5.378   2.604   6.352 -0.9506  0.1699 -0.4922
   29MOL0     C 3841   5.380   2.661   6.492 -0.7367  0.1248 -0.1948
   29MOL0     C 3842   5.446   2.550   6.584 -0.4819  0.9469 -0.1693
   29MOL0     C 3843   5.480   2.598   6.723  0.1979 -0.3267 -0.7818
   29MOL0     C 3844   5.583   2.519   6.781  0.0733  0.5323 -0.5509
   29MOL0     C 3845   5.671   2.473   6.844  0.2844  0.2756 -1.0115
   29MOL0     C 3846   5.086   2.622   6.334 -0.9744  0.5085 -0.2899
   29MOL0     C 3847   4.955   2.658   6.378 -0.0770  0.0863  0.0871
   29MOL0     H 3848   4.630   2.746   6.656 -0.5602 -0.1131  0.7671
   29MOL0     H 3849   4.426   2.829   6.752 -3.1710 -0.0226  0.3497
   29MOL0     H 3850   4.176   2.728   6.783  0.3821  0.5031  4.4700
   29MOL0     H 3851   4.233   2.893   6.820  1.1856 -1.7754  0.8051
   29MOL0     H 3852   3.991   2.874   6.880 -1.2566  0.4514  0.6620
   29MOL0     H 3853   3.989   2.973   6.744 -0.5146  0.9604  1.5837
   29MOL0     H 3854   3.933   2.769   6.594  3.4452 -0.1646  0.2912
   29MOL0     H 3855   3.936   2.676   6.747 -0.7964  0.4997  0.7625
   29MOL0     H 3856   3.775   2.837   6.840 -0.5779  0.5960 -0.2645
   29MOL0     H 3857   3.761   2.906   6.676  1.9019 -0.7259 -2.0514
   29MOL0     H 3858   3.678   2.648   6.625 -3.5573 -0.6249  0.1557
   29MOL0     H 3859   3.703   2.627   6.801  0.9360 -0.4028 -0.0186
   29MOL0     H 3860   3.531   2.828   6.828 -0.5450  0.8700 -1.0292
   29MOL0     H 3861   3.491   2.784   6.652 -0.1472  0.9473  0.1066
   29MOL0     H 3862   3.442   2.553   6.720  1.5079 -1.1158  1.4810
   29MOL0     H 3863   3.474   2.594   6.883 -0.7294 -2.9107 -1.6911
   29MOL0     H 3864   3.272   2.763   6.746 -2.6723  0.9166  1.0467
   29MOL0     H 3865   3.308   2.736   6.916 -1.0810  1.0628 -0.6182
   29MOL0     H 3866   3.287   2.488   6.998  0.1266 -1.6956  0.3653
   29MOL0     H 3867   3.036   2.196   6.925  0.3348 -0.2181 -0.0883
   29MOL0     H 3868   3.193   2.179   6.897 -2.9664 -1.1861 -1.5274
   29MOL0     H 3869   3.253   2.249   7.125  1.0337 -1.6231 -0.1288
   29MOL0     H 3870   3.112   2.148   7.123  0.2546  0.4281  0.1480
   29MOL0     H 3871   3.087   2.447   7.153 -1.2708 -0.3236 -3.8045
   29MOL0     H 3872   3.079   2.334   7.288  1.9825 -1.3424 -0.1806
   29MOL0     H 3873   2.894   2.357   7.047  3.4349  0.1245 -0.1105
   29MOL0     H 3874   2.857   2.425   7.194 -1.7704  0.2816 -2.5020
   29MOL0     H 3875   2.739   2.007   7.186  1.3625 -0.4670  2.2444
   29MOL0     H 3876   2.591   1.830   7.226 -0.9842 -0.6215 -1.8428
   29MOL0     H 3877   2.472   1.868   7.353  1.8082 -0.5699  0.1843
   29MOL0     H 3878   2.434   1.859   7.172  0.2459  1.0788 -1.5689
   29MOL0     H 3879   2.012   2.032   7.329 -2.5151  0.0078 -3.1636
   29MOL0     H 3880   1.777   2.091   7.376  1.0727  1.0647 -0.0620
   29MOL0     H 3881   1.570   2.146   7.487 -1.7117  1.4787  0.4396
   29MOL0     H 3882   1.693   2.179   7.606 -0.6787 -1.6904  2.3772
   29MOL0     H 3883   1.568   2.357   7.711 -0.0494 -1.1995  1.9596
   29MOL0     H 3884   1.435   2.353   7.594  0.1137  0.7824  2.8068
   29MOL0     H 3885   1.513   2.201   7.829 -0.1738  0.5111  0.6391
   29MOL0     H 3886   1.464   2.095   7.695  4.8824 -1.2385  1.8215
   29MOL0     H 3887   1.290   2.316   7.826 -0.8865  2.5401 -1.6458
   29MOL0     H 3888   1.261   2.251   7.657 -1.1628 -4.6177 -1.5186
   29MOL0     H 3889   1.289   2.085   7.921  0.7715  2.1506 -0.6064
   29MOL0     H 3890   1.238   2.032   7.760  1.1540  1.1466 -1.7519
   29MOL0     H 3891   1.094   2.237   7.953 -0.1189  0.0275  0.7402
   29MOL0     H 3892   1.045   2.194   7.792  0.5397 -0.8233 -1.2558
   29MOL0     H 3893   1.070   2.008   8.047  1.6841  2.3688  1.0163
   29MOL0     H 3894   1.051   1.935   7.902  3.1882  0.0220  0.1443
   29MOL0     H 3895   0.878   2.173   7.981  2.2144 -0.4721  0.6878
   29MOL0     H 3896   0.837   1.997   8.028  2.6979 -1.6100 -0.1498
   29MOL0     H 3897   1.878   2.485   7.468  0.2585 -0.0894 -0.5039
   29MOL0     H 3898   2.122   2.430   7.452  4.6869 -2.9515  1.6042
   29MOL0     H 3899   2.409   2.353   7.322  0.2613  0.0552  0.8734
   29MOL0     H 3900   2.648   2.411   7.271 -0.8117 -0.0503  1.3726
   29MOL0     H 3901   4.234   2.837   6.371  1.3241  1.3928 -1.3454
   29MOL0     H 3902   4.458   2.754   6.275 -2.3836  0.4953 -0.0963
   29MOL0     H 3903   4.973   2.987   6.315  0.8179  0.7624 -4.2972
   29MOL0     H 3904   5.189   2.933   6.248 -1.6885  2.1958  2.7678
   29MOL0     H 3905   5.325   2.508   6.351  1.1557 -1.1509  1.5223
   29MOL0     H 3906   5.479   2.589   6.313 -0.2642  2.1774  0.3747
   29MOL0     H 3907   5.280   2.691   6.525 -0.9856 -1.0508  0.1629
   29MOL0     H 3908   5.446   2.747   6.507  0.1777 -0.4036 -1.0516
   29MOL0     H 3909   5.536   2.502   6.545 -1.3376  1.3478 -2.8497
   29MOL0     H 3910   5.382   2.464   6.600  0.8024  0.3300  2.3262
   29MOL0     H 3911   5.392   2.592   6.788  1.7611 -0.5197  1.4285
   29MOL0     H 3912   5.501   2.703   6.704 -2.3568 -0.1132 -3.3365
   29MOL0     H 3913   5.755   2.422   6.887 -0.3061  0.0409 -0.1231
   29MOL0     H 3914   5.116   2.518   6.336 -0.3335  0.6866  1.4352
   29MOL0     H 3915   4.889   2.578   6.408 -1.0226  0.6658 -0.4214
   30MOL0     O 3916   8.493  11.109   8.479 -0.1666  0.1080  0.1991
   30MOL0     C 3917   8.567  11.098   8.378 -0.4280  0.0157  0.2561
   30MOL0     O 3918   8.526  11.113   8.248 -0.4330 -0.7069 -0.3357
   30MOL0     C 3919   8.396  11.124   8.206  0.9643  1.0410 -0.5632
   30MOL0     C 3920   8.288  11.184   8.274 -0.5573 -1.2170  0.5115
   30MOL0     C 3921   8.172  11.223   8.210  0.7072 -0.0269 -0.2091
   30MOL0     C 3922   8.158  11.197   8.084  0.4049  0.5109  0.4132
   30MOL0     O 3923   8.048  11.229   8.013  0.8580 -0.7157  0.6588
   30MOL0     C 3924   7.963  11.340   8.062  0.0056 -0.4053 -1.1611
   30MOL0     C 3925   7.866  11.383   7.958 -0.2899  0.1078  0.2277
   30MOL0     C 3926   7.754  11.270   7.929 -0.1372  0.7449 -0.7792
   30MOL0     C 3927   7.627  11.278   8.027  0.5728 -0.0252 -0.3181
   30MOL0     C 3928   7.509  11.200   7.965 -0.5316 -0.0779 -0.7095
   30MOL0     C 3929   7.382  11.231   8.042  0.1827  0.0364 -0.2015
   30MOL0     C 3930   7.298  11.110   8.003  0.3891 -0.6766 -0.4499
   30MOL0     C 3931   7.154  11.138   8.031  0.4134 -0.7494 -0.3003
   30MOL0     N 3932   7.092  11.232   7.938 -0.2007 -0.0136 -0.8847
   30MOL0     C 3933   7.075  11.208   7.797 -0.0207  0.0728  0.6276
   30MOL0     C 3934   7.001  11.319   7.754  0.6085  0.3229 -0.8519
   30MOL0     C 3935   6.954  11.343   7.624 -0.5019 -0.4503 -0.1644
   30MOL0     C 3936   6.831  11.443   7.611 -0.4212 -0.0587  1.0268
   30MOL0     C 3937   6.698  11.361   7.619  0.1623 -0.2522  0.0652
   30MOL0     C 3938   6.605  11.366   7.492  0.1808 -0.0566 -0.3495
   30MOL0     O 3939   6.555  11.492   7.445  0.3311  0.7891  0.2924
   30MOL0     C 3940   6.460  11.555   7.514  0.6629 -0.3923  0.0714
   30MOL0     C 3941   6.466  11.692   7.543  0.1133 -0.4852 -0.3402
   30MOL0     C 3942   6.373  11.761   7.627 -0.8433  0.6788  0.4411
   30MOL0     C 3943   6.421  11.896   7.671 -0.0542  1.1029  0.2965
   30MOL0     C 3944   6.263  11.688   7.672  0.6920 -0.2913 -0.7808
   30MOL0     C 3945   6.163  11.739   7.765  0.0427 -0.9237 -0.2662
   30MOL0     O 3946   6.036  11.696   7.755  0.0005  0.2311  0.9626
   30MOL0     C 3947   5.944  11.777   7.813 -0.1102  0.4290 -0.2549
   30MOL0     C 3948   5.869  11.867   7.736 -0.5001  0.3174 -0.0453
   30MOL0     C 3949   5.751  11.931   7.781  0.2889  0.3452 -1.7157
   30MOL0     C 3950   5.712  11.915   7.917 -0.2978 -0.4562  0.3029
   30MOL0     O 3951   5.604  11.968   7.972  0.4074  0.4436  0.2508
   30MOL0     C 3952   5.530  12.083   7.909  0.0490  0.0836  0.2056
   30MOL0     C 3953   5.397  12.091   7.979  0.1042 -0.2940 -0.4747
   30MOL0     C 3954   5.336  12.231   7.977 -0.0605 -0.5862 -0.6782
   30MOL0     C 3955   5.189  12.222   8.009  0.7458 -0.1725 -0.1195
   30MOL0     C 3956   5.124  12.358   7.988 -0.2283  0.6831 -0.9962
   30MOL0     C 3957   4.985  12.385   8.050 -0.1621 -0.2202  0.3096
   30MOL0     C 3958   4.882  12.356   7.935  0.1978  0.5654 -0.0097
   30MOL0     C 3959   4.735  12.365   7.988 -0.8287  0.3518 -0.0163
   30MOL0    Cl 3960   4.688  12.527   8.032 -0.1324  0.1731  0.2404
   30MOL0     C 3961   5.780  11.822   7.996 -0.5592 -0.1813  0.2895
   30MOL0     C 3962   5.889  11.757   7.944  0.1077  0.4165  0.7913
   30MOL0     O 3963   6.205  11.808   7.854  0.7489 -0.9762  0.4118
   30MOL0     C 3964   6.242  11.560   7.611  0.5259 -0.4484  0.3777
   30MOL0     C 3965   6.341  11.494   7.530  0.1833 -0.1247  0.4858
   30MOL0     N 3966   6.960  11.391   7.860 -0.1856 -0.0517 -0.8341
   30MOL0     N 3967   7.018  11.349   7.964  0.4388 -0.5810  0.9973
   30MOL0     C 3968   8.257  11.141   8.009  0.0129 -0.0603  0.4659
   30MOL0     C 3969   8.373  11.102   8.070  0.2867 -0.0050  0.3273
   30MOL0     C 3970   8.708  11.077   8.404  0.9555  0.0651 -0.4093
   30MOL0     C 3971   8.762  11.090   8.534 -0.3666  0.6815  0.6256
   30MOL0     C 3972   8.896  11.099   8.546  0.2556 -0.4386  0.2959
   30MOL0     C 3973   8.985  11.075   8.440  0.5344  0.2230 -0.0032
   30MOL0     O 3974   9.115  11.075   8.477 -0.6485 -0.3444 -0.1485
   30MOL0     C 3975   9.188  10.985   8.389 -0.2557  0.0121  0.5322
   30MOL0     C 3976   9.317  10.936   8.465  0.5832 -0.4891 -0.1129
   30MOL0     C 3977   9.424  11.044   8.497  0.3891  0.4502  0.4073
   30MOL0     C 3978   9.501  11.087   8.373  0.0481 -0.3599 -0.2905
   30MOL0     C 3979   9.589  10.985   8.324 -0.5204  0.0791 -1.7399
   30MOL0     C 3980   9.689  10.919   8.301 -0.0967 -1.0000 -0.2828
   30MOL0     C 3981   8.922  11.060   8.304  0.4172  0.7796  0.0933
   30MOL0     C 3982   8.787  11.068   8.288  0.6186 -0.1509  0.1469
   30MOL0     H 3983   8.290  11.226   8.374  1.6255  2.5856 -0.9241
   30MOL0     H 3984   8.103  11.287   8.265  0.1379  1.5498 -2.6207
   30MOL0     H 3985   7.897  11.300   8.140 -1.9008  2.1608 -1.3254
   30MOL0     H 3986   8.016  11.425   8.106 -0.0662 -0.0969 -1.6681
   30MOL0     H 3987   7.822  11.479   7.984  0.1843  0.7848 -1.3813
   30MOL0     H 3988   7.924  11.404   7.868  1.0948  0.3157  1.1214
   30MOL0     H 3989   7.724  11.274   7.824 -0.3985 -1.0379 -0.7936
   30MOL0     H 3990   7.798  11.174   7.959  1.4704  1.5570 -0.4260
   30MOL0     H 3991   7.644  11.253   8.132  0.7221 -1.1231 -0.5916
   30MOL0     H 3992   7.595  11.383   8.033  1.6370  0.3340 -0.7077
   30MOL0     H 3993   7.503  11.229   7.860 -0.1222  1.8185 -0.2477
   30MOL0     H 3994   7.525  11.092   7.968 -2.5977 -0.6209 -4.2269
   30MOL0     H 3995   7.419  11.239   8.145  2.9507  2.4535 -1.2165
   30MOL0     H 3996   7.339  11.330   8.020 -2.6725 -0.9159  0.6021
   30MOL0     H 3997   7.330  11.103   7.899  4.8876 -0.2233  0.6746
   30MOL0     H 3998   7.330  11.027   8.067 -0.1998  0.8497  1.9517
   30MOL0     H 3999   7.144  11.186   8.129 -0.5781  2.1775 -1.7139
   30MOL0     H 4000   7.098  11.045   8.040  2.0733 -1.7863 -0.2460
   30MOL0     H 4001   7.108  11.128   7.731 -0.4371 -1.0809  1.7728
   30MOL0     H 4002   7.035  11.380   7.561  1.1430 -1.8449  1.0201
   30MOL0     H 4003   6.926  11.252   7.571 -0.7955 -0.6855  0.3825
   30MOL0     H 4004   6.835  11.494   7.515 -1.9332  1.9425  1.9430
   30MOL0     H 4005   6.825  11.522   7.687 -3.3686 -2.0113  3.0457
   30MOL0     H 4006   6.644  11.400   7.706 -1.2250 -1.1115 -0.3775
   30MOL0     H 4007   6.721  11.260   7.653 -4.3575 -1.5283 -0.0596
   30MOL0     H 4008   6.521  11.307   7.530  0.8780  0.8339  2.9394
   30MOL0     H 4009   6.654  11.322   7.405  2.6202  1.4298  0.1927
   30MOL0     H 4010   6.556  11.746   7.515  0.1697  1.2057  2.6971
   30MOL0     H 4011   6.477  11.868   7.761  0.5831 -1.2845 -0.7685
   30MOL0     H 4012   6.500  11.933   7.605 -1.2962  1.1375 -1.2147
   30MOL0     H 4013   6.344  11.973   7.684 -1.1276  0.0862  0.0676
   30MOL0     H 4014   5.905  11.882   7.635  0.1345  0.4871  0.2037
   30MOL0     H 4015   5.690  11.985   7.710 -0.3102  0.5244 -1.0837
   30MOL0     H 4016   5.586  12.174   7.930 -0.0724  0.2542 -0.2025
   30MOL0     H 4017   5.512  12.080   7.801 -2.5144 -1.9558  0.5737
   30MOL0     H 4018   5.318  12.021   7.949 -2.0026  0.8382  2.0576
   30MOL0     H 4019   5.416  12.062   8.083 -0.6764 -1.7933 -0.7104
   30MOL0     H 4020   5.346  12.291   7.886 -0.0942 -1.6853 -1.4203
   30MOL0     H 4021   5.382  12.298   8.051  0.9661 -1.5846 -0.3878
   30MOL0     H 4022   5.152  12.148   7.938 -0.0642 -0.5664  0.6867
   30MOL0     H 4023   5.170  12.176   8.107 -0.8437  0.4474 -0.1021
   30MOL0     H 4024   5.136  12.390   7.884 -1.3318  0.0378 -1.3350
   30MOL0     H 4025   5.192  12.417   8.050 -1.0546  2.5592 -1.8171
   30MOL0     H 4026   4.980  12.326   8.142 -1.9083 -1.9518 -0.7987
   30MOL0     H 4027   4.973  12.493   8.067  0.6326  0.2987 -2.0698
   30MOL0     H 4028   4.896  12.255   7.898  2.2205  0.7152  0.2441
   30MOL0     H 4029   4.889  12.422   7.848 -0.1628  1.9033  0.9447
   30MOL0     H 4030   4.711  12.292   8.066 -1.2667  1.1983  0.6566
   30MOL0     H 4031   4.671  12.336   7.904  1.2421 -2.3000 -0.8440
   30MOL0     H 4032   5.755  11.802   8.100  0.0775  1.2115  0.7345
   30MOL0     H 4033   5.940  11.691   8.014 -1.8202 -0.9197  1.0249
   30MOL0     H 4034   6.146  11.512   7.628  0.2745 -1.2217 -2.6497
   30MOL0     H 4035   6.317  11.398   7.485 -3.1838  0.0814  1.5542
   30MOL0     H 4036   8.256  11.141   7.901 -2.0089 -0.2012  0.4430
   30MOL0     H 4037   8.463  11.073   8.017  0.7472 -0.6778  1.4379
   30MOL0     H 4038   8.702  11.110   8.622  0.2868  1.0774  0.9853
   30MOL0     H 4039   8.945  11.115   8.642  2.6388 -0.8834 -0.7672
   30MOL0     H 4040   9.128  10.897   8.366  0.6659 -0.6178  0.4820
   30MOL0     H 4041   9.210  11.032   8.293 -3.1053  1.3436  0.4400
   30MOL0     H 4042   9.361  10.857   8.403  1.7431  1.1376 -1.4359
   30MOL0     H 4043   9.275  10.903   8.561 -0.0158  3.2657  1.0579
   30MOL0     H 4044   9.489  11.006   8.575  0.8094  0.4900  0.0784
   30MOL0     H 4045   9.380  11.137   8.536 -0.0355  0.2379  0.4426
   30MOL0     H 4046   9.565  11.173   8.398 -3.6989  2.0348  2.1821
   30MOL0     H 4047   9.431  11.125   8.298  2.0450  2.4252 -0.9025
   30MOL0     H 4048   9.786  10.885   8.271  1.7705  2.5851  1.0693
   30MOL0     H 4049   8.979  11.059   8.212  2.1915  1.5318  1.1290
   30MOL0     H 4050   8.746  11.062   8.187  1.0290  0.2491 -0.0487
   31MOL0     O 4051   4.733   4.977   2.442  0.1999  0.6067 -0.6840
   31MOL0     C 4052   4.752   4.876   2.510  0.0668 -0.3296  0.5234
   31MOL0     O 4053   4.870   4.798   2.509  1.0011 -0.3605  0.2217
   31MOL0     C 4054   4.995   4.855   2.505  0.1224  0.2223  0.3625
   31MOL0     C 4055   5.101   4.764   2.521  0.4168 -0.0366 -0.0965
   31MOL0     C 4056   5.234   4.807   2.542 -1.4027 -0.4346 -0.6476
   31MOL0     C 4057   5.260   4.947   2.545 -0.2169  0.6354 -0.0852
   31MOL0     O 4058   5.382   5.003   2.565  1.0499  0.8557 -0.3110
   31MOL0     C 4059   5.423   5.026   2.699 -0.1062  0.4850 -0.8343
   31MOL0     C 4060   5.547   4.939   2.730 -0.5083  0.5278 -0.3544
   31MOL0     C 4061   5.648   4.922   2.614  0.2200  0.0146  0.4766
   31MOL0     C 4062   5.754   5.039   2.611  0.4262  0.7026 -0.3152
   31MOL0     C 4063   5.868   5.018   2.511  0.3610  0.6449 -0.9413
   31MOL0     C 4064   5.935   5.154   2.490  0.9833  0.4932 -0.0233
   31MOL0     C 4065   6.067   5.157   2.420  0.6064 -0.0204  0.1523
   31MOL0     C 4066   6.150   5.271   2.488  0.3739 -0.4058 -0.7251
   31MOL0     N 4067   6.277   5.269   2.427 -0.1573  0.1855  0.2461
   31MOL0     C 4068   6.386   5.182   2.460 -0.4895  0.9131 -0.0826
   31MOL0     C 4069   6.472   5.201   2.366  0.1322 -0.0411  0.3351
   31MOL0     C 4070   6.603   5.141   2.350 -0.3011  0.6280  1.0164
   31MOL0     C 4071   6.702   5.225   2.436 -0.3246 -0.1978  0.4053
   31MOL0     C 4072   6.718   5.372   2.385 -0.5388 -0.2150  0.9028
   31MOL0     C 4073   6.732   5.390   2.236 -0.8139 -0.1874 -0.2149
   31MOL0     O 4074   6.769   5.522   2.216  0.1268 -0.0107 -0.5950
   31MOL0     C 4075   6.678   5.627   2.221  0.0621 -0.4499 -0.5557
   31MOL0     C 4076   6.545   5.613   2.249  0.4283 -0.8056 -0.3352
   31MOL0     C 4077   6.457   5.713   2.258 -0.6070 -0.2778  0.2812
   31MOL0     C 4078   6.316   5.678   2.290 -0.0923  0.0953 -0.7208
   31MOL0     C 4079   6.499   5.843   2.228  0.7671 -0.1088  0.5239
   31MOL0     C 4080   6.418   5.967   2.213 -0.0883 -0.1388 -0.7290
   31MOL0     O 4081   6.313   5.975   2.293 -0.2082 -0.3851 -0.5734
   31MOL0     C 4082   6.227   6.078   2.273 -0.2537  0.5092  0.6333
   31MOL0     C 4083   6.098   6.055   2.232  1.2139 -1.0976  0.4584
   31MOL0     C 4084   6.014   6.167   2.211  1.5378  0.1190  0.6173
   31MOL0     C 4085   6.048   6.306   2.241 -0.3069 -0.1526  0.6997
   31MOL0     O 4086   5.976   6.419   2.213 -0.1992 -0.5643 -0.3371
   31MOL0     C 4087   5.835   6.416   2.228  0.0179 -0.3570 -0.0720
   31MOL0     C 4088   5.762   6.517   2.134  1.0273 -0.5249 -0.8433
   31MOL0     C 4089   5.621   6.545   2.192  1.0194  0.3818  0.3103
   31MOL0     C 4090   5.539   6.612   2.083  0.3839 -0.6810  1.1849
   31MOL0     C 4091   5.398   6.666   2.131 -0.2217 -0.1427  0.9628
   31MOL0     C 4092   5.335   6.757   2.014  0.0568  0.2009 -0.1426
   31MOL0     C 4093   5.206   6.837   2.054  0.5747  0.4193 -0.0621
   31MOL0     C 4094   5.076   6.770   2.023 -0.3923 -0.5976 -0.1249
   31MOL0    Cl 4095   4.932   6.876   2.070 -0.3048  0.2371  0.3936
   31MOL0     C 4096   6.175   6.325   2.297  0.6390  0.8713 -0.6651
   31MOL0     C 4097   6.258   6.211   2.312 -0.2578  0.2929 -1.1060
   31MOL0     O 4098   6.458   6.061   2.136  0.4943 -0.0562  0.5979
   31MOL0     C 4099   6.640   5.870   2.209 -0.2563  0.6865  1.2244
   31MOL0     C 4100   6.727   5.756   2.209 -0.3781  0.0353 -0.6695
   31MOL0     N 4101   6.413   5.293   2.273 -0.0681 -1.0208  0.4527
   31MOL0     N 4102   6.301   5.335   2.318 -0.5721 -0.2099 -0.6844
   31MOL0     C 4103   5.159   5.042   2.521  0.3151 -0.1980 -0.8114
   31MOL0     C 4104   5.026   4.993   2.504 -0.2733 -1.1239  0.4280
   31MOL0     C 4105   4.638   4.830   2.589  1.1473 -0.7717 -0.8484
   31MOL0     C 4106   4.504   4.880   2.583  0.5361 -0.5900 -0.4463
   31MOL0     C 4107   4.401   4.844   2.671 -0.5251  0.2935  0.1111
   31MOL0     C 4108   4.423   4.741   2.762 -0.0758 -0.2244 -0.0385
   31MOL0     O 4109   4.320   4.714   2.844 -0.1824  0.4036 -0.4454
   31MOL0     C 4110   4.347   4.629   2.959 -0.5537 -0.2238  0.0261
   31MOL0     C 4111   4.215   4.601   3.039 -0.5587 -0.1869  0.0904
   31MOL0     C 4112   4.257   4.536   3.175 -0.6505 -0.0974  0.6118
   31MOL0     C 4113   4.196   4.609   3.294 -0.5871  0.5406 -0.0361
   31MOL0     C 4114   4.230   4.538   3.423  0.9889  0.4269 -0.2948
   31MOL0     C 4115   4.248   4.469   3.521 -0.2216  0.3230  0.5460
   31MOL0     C 4116   4.546   4.674   2.755 -0.2264 -0.5189 -0.1348
   31MOL0     C 4117   4.652   4.718   2.669  0.2207  0.1992 -0.4997
   31MOL0     H 4118   5.077   4.661   2.499 -2.4292  0.1467  1.5836
   31MOL0     H 4119   5.308   4.728   2.538 -3.1042 -2.0744 -1.9554
   31MOL0     H 4120   5.447   5.133   2.693  2.4190 -0.0938 -2.2069
   31MOL0     H 4121   5.338   5.000   2.763 -0.9433  1.8940 -1.3202
   31MOL0     H 4122   5.598   4.974   2.819  0.3258  2.9843 -1.7048
   31MOL0     H 4123   5.521   4.836   2.755  0.6121  0.6710  1.6018
   31MOL0     H 4124   5.705   4.828   2.618  2.0237  1.1197  2.6793
   31MOL0     H 4125   5.601   4.938   2.516  1.0434  1.7718  0.3315
   31MOL0     H 4126   5.701   5.128   2.576 -1.3384 -1.2392 -3.0361
   31MOL0     H 4127   5.792   5.056   2.712 -1.8006 -0.3828  0.7934
   31MOL0     H 4128   5.933   4.939   2.548  1.0371  0.9724 -1.4138
   31MOL0     H 4129   5.834   4.975   2.416  0.7981  0.9473 -1.2382
   31MOL0     H 4130   5.870   5.216   2.428  2.1398  1.8740  0.0922
   31MOL0     H 4131   5.936   5.197   2.590 -1.3014 -2.7506  1.5767
   31MOL0     H 4132   6.107   5.058   2.444 -4.3467 -2.7866 -1.6833
   31MOL0     H 4133   6.065   5.178   2.312  1.1096  2.6524  0.6069
   31MOL0     H 4134   6.155   5.246   2.594 -1.7590  0.2313 -0.4283
   31MOL0     H 4135   6.102   5.368   2.478 -0.0686 -0.3160  1.7508
   31MOL0     H 4136   6.398   5.129   2.554 -0.9414 -0.3251 -0.6936
   31MOL0     H 4137   6.595   5.040   2.390 -1.9562  0.6149  0.6976
   31MOL0     H 4138   6.639   5.133   2.247 -2.1902 -1.9506  0.4713
   31MOL0     H 4139   6.795   5.166   2.437  0.9961  1.7770  0.5028
   31MOL0     H 4140   6.668   5.234   2.540  1.9218 -0.5427  1.2387
   31MOL0     H 4141   6.798   5.424   2.438  1.0012 -0.3183 -1.2112
   31MOL0     H 4142   6.624   5.416   2.422 -0.5631 -1.2367  2.1386
   31MOL0     H 4143   6.645   5.362   2.175 -0.3946 -1.5764 -0.2207
   31MOL0     H 4144   6.812   5.330   2.192  1.3127  2.0057  0.4950
   31MOL0     H 4145   6.503   5.514   2.261 -0.2558 -0.4754  0.0522
   31MOL0     H 4146   6.286   5.591   2.231  0.5449 -0.0038 -0.9049
   31MOL0     H 4147   6.311   5.642   2.393  0.2023 -0.3756 -0.8684
   31MOL0     H 4148   6.241   5.753   2.263  0.1037 -0.4066 -2.8655
   31MOL0     H 4149   6.053   5.958   2.214 -0.4226 -0.1124 -1.0700
   31MOL0     H 4150   5.918   6.127   2.181  2.3208  1.0001 -3.7658
   31MOL0     H 4151   5.789   6.317   2.218  2.4389 -1.3360 -2.4782
   31MOL0     H 4152   5.818   6.443   2.333  0.6131 -3.7932  1.0199
   31MOL0     H 4153   5.814   6.612   2.143  0.4164 -0.1361 -1.3559
   31MOL0     H 4154   5.762   6.484   2.030  0.3232 -1.9713 -0.4112
   31MOL0     H 4155   5.633   6.615   2.275 -0.2816  3.6087 -2.0372
   31MOL0     H 4156   5.564   6.454   2.214  0.1717 -0.3495 -3.9830
   31MOL0     H 4157   5.593   6.699   2.045 -1.4183  0.0519  0.1394
   31MOL0     H 4158   5.519   6.536   2.006 -0.3786 -1.4635  2.1310
   31MOL0     H 4159   5.417   6.727   2.220  0.5404  1.4619 -0.2392
   31MOL0     H 4160   5.330   6.590   2.170 -0.1329  0.3933  2.2150
   31MOL0     H 4161   5.406   6.833   1.978  2.1068  0.1402  3.3672
   31MOL0     H 4162   5.307   6.684   1.938  0.7347 -1.4741  1.1652
   31MOL0     H 4163   5.214   6.935   2.005 -1.0280 -0.5976 -2.5902
   31MOL0     H 4164   5.211   6.856   2.161 -1.6552 -2.4769  0.6767
   31MOL0     H 4165   5.078   6.673   2.073  0.6206 -0.8372 -0.6056
   31MOL0     H 4166   5.065   6.759   1.915 -2.4644  1.2578 -0.1641
   31MOL0     H 4167   6.218   6.422   2.318 -0.7187  1.3012  0.2364
   31MOL0     H 4168   6.360   6.227   2.343 -0.2080 -0.5359 -0.8202
   31MOL0     H 4169   6.674   5.971   2.192  0.2996  0.8278  3.0323
   31MOL0     H 4170   6.835   5.759   2.199  0.0174 -1.3307  2.0479
   31MOL0     H 4171   5.177   5.148   2.504 -0.0849 -0.1670 -1.0492
   31MOL0     H 4172   4.951   5.070   2.485  0.8711 -0.2561 -0.8251
   31MOL0     H 4173   4.488   4.944   2.497 -1.8045 -0.1429  0.2662
   31MOL0     H 4174   4.298   4.877   2.676 -0.1250  1.4226  4.6274
   31MOL0     H 4175   4.379   4.530   2.924 -1.3909 -0.1036 -1.1262
   31MOL0     H 4176   4.417   4.678   3.028 -1.1315  0.8464 -0.1430
   31MOL0     H 4177   4.147   4.535   2.983 -0.0035 -0.0880 -0.7150
   31MOL0     H 4178   4.159   4.695   3.041 -2.5856 -1.3077  2.3896
   31MOL0     H 4179   4.366   4.543   3.188 -0.5789 -0.2464  0.1299
   31MOL0     H 4180   4.223   4.432   3.172 -0.1099 -0.2904  0.8978
   31MOL0     H 4181   4.088   4.618   3.282 -0.8470 -2.2555 -0.4253
   31MOL0     H 4182   4.227   4.714   3.303  2.1565 -0.3395  3.0757
   31MOL0     H 4183   4.280   4.424   3.613 -1.6680 -1.9878 -0.0018
   31MOL0     H 4184   4.576   4.584   2.808 -1.4889 -1.3110 -0.7180
   31MOL0     H 4185   4.742   4.659   2.683 -0.5370 -0.7867  0.3588
   32MOL0     O 4186   8.113   7.644  11.207 -0.4061 -0.0690 -0.0069
   32MOL0     C 4187   8.189   7.625  11.114  0.0955  1.0053 -0.5363
   32MOL0     O 4188   8.156   7.599  10.988  0.5620 -0.0887  0.3564
   32MOL0     C 4189   8.025   7.572  10.952 -0.1814  0.1229  0.0295
   32MOL0     C 4190   7.917   7.647  10.972 -0.7015 -0.4844 -0.4813
   32MOL0     C 4191   7.789   7.602  10.926 -0.8330 -0.2263  0.3971
   32MOL0     C 4192   7.771   7.493  10.844 -0.1378 -0.1926 -0.4769
   32MOL0     O 4193   7.644   7.477  10.790  0.0749  0.6699 -0.0928
   32MOL0     C 4194   7.608   7.340  10.782  0.3465  0.3308  0.1359
   32MOL0     C 4195   7.593   7.299  10.634 -0.5937  0.4923 -0.9426
   32MOL0     C 4196   7.446   7.282  10.591  0.8006  0.4778  0.0939
   32MOL0     C 4197   7.362   7.410  10.604  0.3306 -0.3583 -0.3523
   32MOL0     C 4198   7.374   7.515  10.488  0.3922 -0.8985  0.4294
   32MOL0     C 4199   7.257   7.616  10.465 -0.6107 -0.4239 -0.6078
   32MOL0     C 4200   7.136   7.545  10.395 -0.6971 -0.3748  0.5672
   32MOL0     C 4201   7.004   7.629  10.403 -0.9847  0.3415  0.0855
   32MOL0     N 4202   6.899   7.563  10.325  0.9085  0.1232 -0.4371
   32MOL0     C 4203   6.781   7.626  10.286  0.1744  0.4692  0.2518
   32MOL0     C 4204   6.688   7.531  10.288 -0.2039 -0.1302 -0.1743
   32MOL0     C 4205   6.546   7.547  10.273  0.2987  0.0165 -0.6530
   32MOL0     C 4206   6.522   7.590  10.125  0.2089  0.0087  0.4224
   32MOL0     C 4207   6.369   7.600  10.108 -0.3529  1.1570  1.1399
   32MOL0     C 4208   6.305   7.620   9.970  0.2259 -0.0223 -0.4365
   32MOL0     O 4209   6.174   7.664   9.981  0.4369  1.0988 -0.2607
   32MOL0     C 4210   6.087   7.618   9.891  0.9754  0.4755  1.0933
   32MOL0     C 4211   6.113   7.604   9.757  0.1268  0.9272  0.3820
   32MOL0     C 4212   6.013   7.558   9.668  0.1251  0.7159 -0.4660
   32MOL0     C 4213   6.042   7.555   9.523 -0.2676  0.0119 -0.2885
   32MOL0     C 4214   5.880   7.530   9.720 -1.0382 -0.4405  1.2224
   32MOL0     C 4215   5.767   7.474   9.635  0.7971 -0.5041  0.4639
   32MOL0     O 4216   5.649   7.483   9.692 -0.3586 -0.3841 -0.3622
   32MOL0     C 4217   5.535   7.456   9.618 -0.4115  0.0163 -0.0445
   32MOL0     C 4218   5.492   7.550   9.521  0.3205  0.3961 -0.5619
   32MOL0     C 4219   5.376   7.532   9.442 -0.5126  0.1399 -0.3467
   32MOL0     C 4220   5.302   7.418   9.459 -0.5241  0.4133  0.1332
   32MOL0     O 4221   5.178   7.403   9.404 -0.2466 -0.3451  0.2471
   32MOL0     C 4222   5.066   7.384   9.489  0.1163  0.1312 -0.2241
   32MOL0     C 4223   4.949   7.356   9.402  0.8580 -0.1218  0.7930
   32MOL0     C 4224   4.816   7.359   9.479 -0.8250 -0.3302 -0.5143
   32MOL0     C 4225   4.690   7.297   9.422 -0.2321 -0.2981  0.3525
   32MOL0     C 4226   4.560   7.316   9.499  0.9573 -0.6189  0.3539
   32MOL0     C 4227   4.498   7.462   9.479  0.0274 -0.1049  0.1569
   32MOL0     C 4228   4.344   7.448   9.506 -0.4054  0.6973 -0.5215
   32MOL0     C 4229   4.264   7.558   9.458  0.1596 -0.3484  0.8076
   32MOL0    Cl 4230   4.105   7.493   9.417 -0.7330  0.5999 -0.3135
   32MOL0     C 4231   5.352   7.322   9.553 -0.7114  1.1464 -0.9175
   32MOL0     C 4232   5.463   7.337   9.632 -0.9241 -0.1877  0.3645
   32MOL0     O 4233   5.792   7.422   9.526 -0.5028 -0.6484 -0.2722
   32MOL0     C 4234   5.867   7.538   9.857 -0.6972 -0.2997 -0.2591
   32MOL0     C 4235   5.961   7.591   9.941  0.0183  0.9618 -0.0659
   32MOL0     N 4236   6.745   7.414  10.332 -0.4602 -0.1748  0.6654
   32MOL0     N 4237   6.868   7.427  10.357  0.3542 -0.1310  1.1725
   32MOL0     C 4238   7.882   7.419  10.816 -0.0778 -0.0888 -1.0121
   32MOL0     C 4239   8.006   7.453  10.878  0.5827 -0.2688  0.0864
   32MOL0     C 4240   8.331   7.654  11.151 -0.3549  0.5964 -0.6825
   32MOL0     C 4241   8.422   7.661  11.050 -0.4059  0.1364 -0.4030
   32MOL0     C 4242   8.558   7.692  11.075 -0.5427  0.2798  0.2120
   32MOL0     C 4243   8.593   7.738  11.204 -0.7238 -1.2152  0.1853
   32MOL0     O 4244   8.723   7.782  11.233  0.1248 -0.0897  0.4955
   32MOL0     C 4245   8.836   7.718  11.169  0.3158  1.2074  0.3503
   32MOL0     C 4246   8.852   7.579  11.226  0.1513  0.9288 -0.6764
   32MOL0     C 4247   8.992   7.539  11.184 -0.1644 -0.3206  0.1112
   32MOL0     C 4248   9.019   7.390  11.190 -0.9277 -0.3417 -1.1530
   32MOL0     C 4249   9.024   7.337  11.331  0.4732  0.5479  0.8226
   32MOL0     C 4250   9.047   7.293  11.437  0.4170  0.5206 -0.3151
   32MOL0     C 4251   8.497   7.744  11.310  0.2437  0.6710  0.4333
   32MOL0     C 4252   8.364   7.695  11.279 -0.9833 -0.5683  0.5141
   32MOL0     H 4253   7.931   7.742  11.021 -1.2141 -0.3262 -0.6385
   32MOL0     H 4254   7.707   7.672  10.932  0.3959  1.2447  0.5217
   32MOL0     H 4255   7.682   7.274  10.828 -0.9623  0.1024  2.0220
   32MOL0     H 4256   7.512   7.331  10.833 -1.6406  1.8008 -3.0538
   32MOL0     H 4257   7.644   7.378  10.578 -0.0568 -0.0019 -1.1605
   32MOL0     H 4258   7.643   7.205  10.608 -0.4632  1.3099 -3.9708
   32MOL0     H 4259   7.439   7.240  10.491 -0.4352  2.1773 -0.5875
   32MOL0     H 4260   7.410   7.204  10.659 -2.9217  1.7097 -0.2424
   32MOL0     H 4261   7.258   7.382  10.623 -0.0334  0.0661 -1.6407
   32MOL0     H 4262   7.387   7.477  10.687 -2.3833  1.2450 -0.7124
   32MOL0     H 4263   7.463   7.576  10.510  1.0617 -2.4203  2.1871
   32MOL0     H 4264   7.399   7.456  10.400  3.1455 -3.0257  2.4434
   32MOL0     H 4265   7.221   7.669  10.554  0.0283  1.0363 -1.1771
   32MOL0     H 4266   7.293   7.689  10.392  0.2033 -2.6656 -2.5657
   32MOL0     H 4267   7.160   7.544  10.289 -1.3287  3.4093  0.2679
   32MOL0     H 4268   7.122   7.443  10.432  1.9593 -2.0786 -2.5806
   32MOL0     H 4269   7.039   7.724  10.361 -0.2910  0.5835  1.1714
   32MOL0     H 4270   6.968   7.646  10.505 -0.9210  0.0267  0.1620
   32MOL0     H 4271   6.768   7.734  10.285  1.0729  0.6086 -1.6615
   32MOL0     H 4272   6.500   7.452  10.304 -0.0227  0.2205 -0.5054
   32MOL0     H 4273   6.510   7.622  10.343  1.4086 -1.0759  1.1730
   32MOL0     H 4274   6.563   7.516  10.056 -3.6936  0.2399 -2.4537
   32MOL0     H 4275   6.574   7.685  10.106 -0.4230  0.3510  0.3813
   32MOL0     H 4276   6.332   7.685  10.167 -2.0659  0.0377  1.7665
   32MOL0     H 4277   6.319   7.509  10.142 -1.0463  1.5461  1.1908
   32MOL0     H 4278   6.316   7.532   9.906 -1.0189  1.5711 -2.9758
   32MOL0     H 4279   6.365   7.699   9.924 -0.6290  0.8456 -0.1122
   32MOL0     H 4280   6.213   7.619   9.717 -0.6744  2.6482 -1.1430
   32MOL0     H 4281   6.143   7.597   9.518 -0.0412  0.0729  2.7833
   32MOL0     H 4282   6.035   7.458   9.473  2.6147 -0.4306 -0.0062
   32MOL0     H 4283   5.986   7.628   9.464 -0.8879 -0.4092 -0.2305
   32MOL0     H 4284   5.546   7.643   9.503 -0.0339  0.7215  0.0117
   32MOL0     H 4285   5.343   7.607   9.371  0.8384 -0.7073 -1.9443
   32MOL0     H 4286   5.084   7.316   9.573  0.7387  1.5001  0.7762
   32MOL0     H 4287   5.043   7.479   9.537 -1.2997  0.7576 -2.0478
   32MOL0     H 4288   4.949   7.432   9.323 -1.2163 -0.7409  0.1188
   32MOL0     H 4289   4.957   7.255   9.361 -2.8253 -0.2067 -0.0437
   32MOL0     H 4290   4.799   7.467   9.494 -2.0748  0.0023 -3.6595
   32MOL0     H 4291   4.826   7.306   9.574 -0.6294 -3.8638 -2.3531
   32MOL0     H 4292   4.668   7.346   9.327 -2.5171 -1.1976  0.3661
   32MOL0     H 4293   4.706   7.193   9.393 -0.6378 -0.5092  0.8905
   32MOL0     H 4294   4.579   7.307   9.606 -2.1966  1.0647  1.1798
   32MOL0     H 4295   4.491   7.239   9.464 -0.1500  0.5739 -0.1298
   32MOL0     H 4296   4.535   7.546   9.539 -1.2294  2.8417 -2.8443
   32MOL0     H 4297   4.516   7.488   9.374 -1.4758 -5.1480 -1.6394
   32MOL0     H 4298   4.326   7.442   9.614  1.9750  2.7057  0.0673
   32MOL0     H 4299   4.292   7.357   9.474 -0.0018  0.2637  0.0310
   32MOL0     H 4300   4.298   7.580   9.356 -0.8918 -1.5327  0.1515
   32MOL0     H 4301   4.272   7.650   9.516 -3.2688  0.3862  0.3323
   32MOL0     H 4302   5.293   7.233   9.572  0.4297  0.2545 -1.4412
   32MOL0     H 4303   5.486   7.263   9.709 -2.1813 -0.6797  0.2876
   32MOL0     H 4304   5.776   7.509   9.909  0.9276 -2.7999  1.4482
   32MOL0     H 4305   5.938   7.622  10.043  0.9569  0.7446  0.2236
   32MOL0     H 4306   7.879   7.338  10.745 -1.4931 -2.3194  1.4248
   32MOL0     H 4307   8.097   7.394  10.872  1.3325  0.7239  1.1504
   32MOL0     H 4308   8.388   7.644  10.948 -0.0507  1.8741 -0.8407
   32MOL0     H 4309   8.633   7.693  10.996  0.4394 -2.7600  0.9506
   32MOL0     H 4310   8.832   7.713  11.060  1.4003  2.6407  0.2164
   32MOL0     H 4311   8.916   7.791  11.189  2.5047 -0.3641 -2.0788
   32MOL0     H 4312   8.776   7.502  11.209  2.7978 -2.2363  0.7018
   32MOL0     H 4313   8.840   7.579  11.335  1.3491 -2.0885 -0.4707
   32MOL0     H 4314   9.072   7.600  11.226 -0.8804 -0.2656  1.4459
   32MOL0     H 4315   8.992   7.557  11.076  1.7463 -0.9050 -0.0328
   32MOL0     H 4316   9.113   7.356  11.148  0.2566  1.2543  0.0602
   32MOL0     H 4317   8.945   7.335  11.131 -0.8288 -2.1475  0.3482
   32MOL0     H 4318   9.079   7.251  11.530 -1.7476 -4.4129 -1.4882
   32MOL0     H 4319   8.526   7.781  11.408 -0.3669 -3.1414  2.2367
   32MOL0     H 4320   8.294   7.717  11.360  0.7588 -0.1456  1.9863
   33MOL0     O 4321   7.913  10.082   0.552  0.3261  0.4422 -1.0978
   33MOL0     C 4322   7.928  10.050   0.435 -0.3660  0.3711 -0.6959
   33MOL0     O 4323   7.897  10.131   0.332  0.5269  0.0352 -0.3269
   33MOL0     C 4324   7.786  10.210   0.331 -0.0327 -0.4935 -1.7512
   33MOL0     C 4325   7.747  10.252   0.201 -0.3468 -0.4922 -0.0897
   33MOL0     C 4326   7.644  10.344   0.186  0.9524  0.3779 -0.6790
   33MOL0     C 4327   7.576  10.403   0.296 -0.0588 -0.4930  0.0348
   33MOL0     O 4328   7.488  10.511   0.275 -0.2538  0.2101  0.3981
   33MOL0     C 4329   7.456  10.604   0.379  0.0933  0.1025 -0.1690
   33MOL0     C 4330   7.338  10.558   0.465  0.2040  0.0495 -0.6905
   33MOL0     C 4331   7.221  10.511   0.388  0.6646  0.8136 -0.0857
   33MOL0     C 4332   7.112  10.474   0.482 -0.6390 -0.0335 -0.6408
   33MOL0     C 4333   6.977  10.456   0.416  0.0879  0.3256  1.0864
   33MOL0     C 4334   6.975  10.347   0.305  0.0980 -0.1596 -0.3074
   33MOL0     C 4335   6.827  10.320   0.254  0.5756  0.4373 -0.4461
   33MOL0     C 4336   6.769  10.198   0.329 -0.2679  0.5280 -0.6397
   33MOL0     N 4337   6.630  10.158   0.300 -0.1377  1.0245  0.9671
   33MOL0     C 4338   6.525  10.239   0.316 -0.0172  0.7505 -0.2784
   33MOL0     C 4339   6.422  10.143   0.327  1.1318  0.1542 -0.8334
   33MOL0     C 4340   6.272  10.186   0.359 -0.3482  0.5615  0.0152
   33MOL0     C 4341   6.167  10.092   0.290 -0.3153 -0.1966 -0.1997
   33MOL0     C 4342   6.035  10.158   0.293 -0.2156  0.2291  0.8057
   33MOL0     C 4343   5.974  10.183   0.431  0.6063 -0.3872 -0.4978
   33MOL0     O 4344   5.944  10.056   0.503  0.7296  0.3279 -0.2670
   33MOL0     C 4345   5.826   9.981   0.477 -0.6006  0.7034  1.0566
   33MOL0     C 4346   5.721  10.024   0.399  0.5189 -0.3443 -0.5586
   33MOL0     C 4347   5.617   9.941   0.354  0.2547  0.2883 -0.3997
   33MOL0     C 4348   5.527  10.001   0.253  0.1106  0.5585 -0.6992
   33MOL0     C 4349   5.602   9.816   0.408 -0.2032 -0.1581  0.3256
   33MOL0     C 4350   5.472   9.732   0.401  0.8181  0.1724  0.1496
   33MOL0     O 4351   5.476   9.600   0.444 -0.0489 -0.1150 -0.4911
   33MOL0     C 4352   5.371   9.528   0.409  0.9133  0.9861  0.0354
   33MOL0     C 4353   5.342   9.482   0.283  0.2574  0.0059  0.5918
   33MOL0     C 4354   5.229   9.406   0.265  0.8612  0.2830 -0.5062
   33MOL0     C 4355   5.143   9.372   0.372  0.2098 -1.0704  0.4057
   33MOL0     O 4356   5.025   9.313   0.333  0.9606 -0.2402 -0.0841
   33MOL0     C 4357   4.906   9.380   0.397 -0.4792  0.7757 -0.2376
   33MOL0     C 4358   4.791   9.379   0.306  0.0897  0.5730 -0.5959
   33MOL0     C 4359   4.662   9.419   0.371  0.3178 -0.1311  0.6670
   33MOL0     C 4360   4.534   9.418   0.279  0.2497 -0.9991  1.2272
   33MOL0     C 4361   4.399   9.433   0.352  0.8968  0.5238 -0.0012
   33MOL0     C 4362   4.366   9.575   0.398 -0.4771  0.1184 -0.2921
   33MOL0     C 4363   4.236   9.572   0.470 -0.9072 -1.0672  0.0073
   33MOL0     C 4364   4.184   9.708   0.495  0.1348  0.2214 -0.4363
   33MOL0    Cl 4365   4.032   9.724   0.603  0.1646  0.3354  0.1295
   33MOL0     C 4366   5.175   9.408   0.500 -0.0518 -0.0064  0.9065
   33MOL0     C 4367   5.292   9.488   0.516  0.2509 -0.0592 -0.4099
   33MOL0     O 4368   5.373   9.781   0.343 -0.1114 -0.1394 -0.0984
   33MOL0     C 4369   5.708   9.772   0.496 -0.2370 -0.0367  0.2461
   33MOL0     C 4370   5.817   9.854   0.534  0.3561 -0.8397 -0.5783
   33MOL0     N 4371   6.463  10.018   0.281 -0.2603 -0.0575  0.3418
   33MOL0     N 4372   6.588  10.035   0.265 -0.0154 -0.2702  0.3977
   33MOL0     C 4373   7.613  10.366   0.423 -0.4026 -0.6721 -0.2751
   33MOL0     C 4374   7.706  10.266   0.441  0.5711 -0.0101  0.3340
   33MOL0     C 4375   8.027   9.948   0.410  0.8030  0.1746 -1.1435
   33MOL0     C 4376   8.083   9.872   0.509 -0.5237 -0.0610  0.3233
   33MOL0     C 4377   8.180   9.772   0.477 -0.1441  0.1464 -0.3975
   33MOL0     C 4378   8.216   9.754   0.346 -0.6456 -0.0170  0.1920
   33MOL0     O 4379   8.302   9.654   0.322  0.3140 -0.1351  0.6935
   33MOL0     C 4380   8.399   9.674   0.219  0.5096 -0.2752  0.5385
   33MOL0     C 4381   8.472   9.527   0.210  0.5778  0.6269 -0.9221
   33MOL0     C 4382   8.600   9.531   0.118  0.4488  0.1207 -0.0719
   33MOL0     C 4383   8.698   9.653   0.145  0.0764  0.4161  0.7758
   33MOL0     C 4384   8.836   9.620   0.100  0.7655  0.6635 -1.0020
   33MOL0     C 4385   8.935   9.581   0.056 -0.1297  0.5059  0.2035
   33MOL0     C 4386   8.167   9.840   0.242 -0.5728 -0.1372 -0.7865
   33MOL0     C 4387   8.072   9.927   0.281  0.0492  0.5888  0.0610
   33MOL0     H 4388   7.804  10.213   0.117  1.9950  2.6601 -0.1817
   33MOL0     H 4389   7.622  10.373   0.083 -1.5676 -1.3499 -0.7005
   33MOL0     H 4390   7.536  10.626   0.451 -2.1971  1.4104  2.1449
   33MOL0     H 4391   7.439  10.700   0.329  1.1974  2.7069  3.9259
   33MOL0     H 4392   7.375  10.478   0.530  0.4603  0.1683 -0.6880
   33MOL0     H 4393   7.309  10.641   0.530 -0.1308 -1.1351  0.7354
   33MOL0     H 4394   7.183  10.583   0.315  1.2119  0.4110 -0.7871
   33MOL0     H 4395   7.245  10.421   0.331  0.8593  1.3901 -0.9261
   33MOL0     H 4396   7.137  10.381   0.533 -1.8004 -1.0558 -1.8683
   33MOL0     H 4397   7.107  10.547   0.564  2.2871 -0.1549 -0.2222
   33MOL0     H 4398   6.905  10.405   0.480 -1.0320 -0.0165 -0.4038
   33MOL0     H 4399   6.935  10.549   0.377 -3.2334 -0.8677  1.5464
   33MOL0     H 4400   7.035  10.384   0.221 -1.0844  0.2966 -0.9896
   33MOL0     H 4401   7.020  10.255   0.343 -0.6176  0.0179  1.0282
   33MOL0     H 4402   6.775  10.415   0.264  0.4677  0.2739  0.7850
   33MOL0     H 4403   6.826  10.299   0.147  2.3860  0.4068 -0.4918
   33MOL0     H 4404   6.766  10.214   0.437 -0.1470 -3.1248  0.0144
   33MOL0     H 4405   6.835  10.111   0.330 -2.5730 -1.3210 -0.0981
   33MOL0     H 4406   6.534  10.343   0.346  0.5833  0.6605 -0.1443
   33MOL0     H 4407   6.253  10.193   0.466 -0.2653  0.1480  0.0610
   33MOL0     H 4408   6.260  10.291   0.331 -0.7338  0.6315  0.4351
   33MOL0     H 4409   6.162   9.990   0.329  1.1096 -0.4869 -0.7014
   33MOL0     H 4410   6.182  10.085   0.182 -5.6293  0.6359 -1.2362
   33MOL0     H 4411   5.961  10.100   0.238 -2.5544  2.9500  0.8401
   33MOL0     H 4412   6.042  10.257   0.247 -2.4994  1.5905  3.0951
   33MOL0     H 4413   5.883  10.243   0.425 -1.0941 -2.7699 -0.0934
   33MOL0     H 4414   6.039  10.243   0.495  0.3228 -0.2827 -0.3083
   33MOL0     H 4415   5.708  10.130   0.379  1.1362 -0.0751  0.4098
   33MOL0     H 4416   5.583  10.083   0.206  1.7284  0.4629  0.9161
   33MOL0     H 4417   5.510   9.940   0.165  0.3829 -0.6334  0.0560
   33MOL0     H 4418   5.428  10.029   0.292 -0.2136  0.0376 -1.1444
   33MOL0     H 4419   5.418   9.478   0.206 -2.5498  1.4301 -2.5033
   33MOL0     H 4420   5.206   9.371   0.165 -3.4309 -0.0980  0.4204
   33MOL0     H 4421   4.882   9.323   0.487  1.0750 -0.8171 -0.7838
   33MOL0     H 4422   4.928   9.482   0.431 -1.5920  1.3988 -1.2967
   33MOL0     H 4423   4.805   9.456   0.228  1.1662  1.6452  0.6066
   33MOL0     H 4424   4.775   9.279   0.264  2.3535 -0.1632  0.1577
   33MOL0     H 4425   4.684   9.517   0.416  0.2047 -0.1918  0.8556
   33MOL0     H 4426   4.622   9.352   0.447 -3.3511 -2.6154 -3.0622
   33MOL0     H 4427   4.549   9.507   0.217 -0.0870 -0.0975  2.3946
   33MOL0     H 4428   4.541   9.329   0.216  2.6703  0.0188 -0.0863
   33MOL0     H 4429   4.379   9.355   0.426  1.3182 -1.1372 -1.5688
   33MOL0     H 4430   4.329   9.405   0.273  0.3399 -1.6194  1.1898
   33MOL0     H 4431   4.438   9.611   0.472  0.8838  0.3538 -1.6715
   33MOL0     H 4432   4.366   9.639   0.309 -1.6056  1.2573  0.4889
   33MOL0     H 4433   4.237   9.520   0.566  1.2970 -1.0836  0.0098
   33MOL0     H 4434   4.157   9.521   0.414 -2.3123  1.3228 -0.3332
   33MOL0     H 4435   4.163   9.763   0.403  0.1339 -1.0465 -1.2151
   33MOL0     H 4436   4.265   9.760   0.546 -0.0761 -0.1521  0.3035
   33MOL0     H 4437   5.123   9.367   0.586  0.3490 -1.4548  0.4701
   33MOL0     H 4438   5.310   9.505   0.622  2.8030 -4.2212  0.0272
   33MOL0     H 4439   5.711   9.666   0.521  2.5612 -0.3040 -0.8113
   33MOL0     H 4440   5.889   9.827   0.611  0.5042  2.4454  0.6082
   33MOL0     H 4441   7.571  10.412   0.512 -1.4459 -0.2326 -0.9894
   33MOL0     H 4442   7.729  10.249   0.546  1.8327  1.8827  0.4212
   33MOL0     H 4443   8.055   9.900   0.610  2.0091 -0.6248  1.2547
   33MOL0     H 4444   8.220   9.725   0.565 -2.5176  0.0039  0.6975
   33MOL0     H 4445   8.362   9.689   0.117 -0.5310 -0.3185  0.8987
   33MOL0     H 4446   8.481   9.745   0.233  2.0210 -1.6054 -1.0473
   33MOL0     H 4447   8.402   9.451   0.176  0.8131 -0.0398  0.0417
   33MOL0     H 4448   8.504   9.487   0.307 -2.1222 -1.1325 -0.6726
   33MOL0     H 4449   8.554   9.547   0.020 -0.6294 -0.0896  0.3846
   33MOL0     H 4450   8.648   9.433   0.111  0.0336 -0.0630 -0.4451
   33MOL0     H 4451   8.696   9.661   0.254  5.1895  3.4449  0.9282
   33MOL0     H 4452   8.674   9.745   0.091  1.1559 -1.4552 -3.2066
   33MOL0     H 4453   9.023   9.554   0.002  0.7107  1.0868  1.2672
   33MOL0     H 4454   8.191   9.838   0.137 -2.3731  0.4648 -1.2530
   33MOL0     H 4455   8.029   9.985   0.199  0.0580  1.7732  0.8728
   34MOL0     O 4456   7.570   2.248   1.209 -0.6840 -0.1475  0.6318
   34MOL0     C 4457   7.683   2.305   1.204  0.6976  0.1303 -0.7602
   34MOL0     O 4458   7.767   2.323   1.098  0.5167 -0.1246 -0.1173
   34MOL0     C 4459   7.700   2.303   0.978 -0.1951 -0.0869  0.1790
   34MOL0     C 4460   7.788   2.239   0.885 -0.3817 -0.5557  0.2244
   34MOL0     C 4461   7.737   2.206   0.759  0.5492  0.0225  0.6466
   34MOL0     C 4462   7.603   2.248   0.715  0.3926  0.7273 -0.4429
   34MOL0     O 4463   7.555   2.239   0.586  0.3263 -0.3040  0.5524
   34MOL0     C 4464   7.628   2.179   0.486 -0.6438  0.4651  0.2534
   34MOL0     C 4465   7.539   2.133   0.362  1.2178  0.6332  0.5937
   34MOL0     C 4466   7.441   2.002   0.390 -0.0003  0.0531 -1.0099
   34MOL0     C 4467   7.294   2.033   0.405  0.6553  0.6735 -0.4455
   34MOL0     C 4468   7.247   2.094   0.274  0.4513  0.2126 -0.2802
   34MOL0     C 4469   7.097   2.091   0.266 -1.0300  0.5237 -0.6159
   34MOL0     C 4470   7.047   2.132   0.124 -0.2381  1.0071 -1.0790
   34MOL0     C 4471   6.895   2.139   0.111 -0.6115  0.2755 -0.3659
   34MOL0     N 4472   6.849   2.121  -0.023 -0.7441  0.6548 -0.0420
   34MOL0     C 4473   6.719   2.095  -0.052  0.9248 -0.6237 -0.5887
   34MOL0     C 4474   6.710   2.090  -0.185  0.2461 -0.2973 -0.3180
   34MOL0     C 4475   6.594   2.044  -0.266 -1.2777  0.9185  0.2043
   34MOL0     C 4476   6.632   2.006  -0.411 -0.2402 -0.0137 -0.4696
   34MOL0     C 4477   6.529   1.957  -0.497  1.0934 -0.0742  0.6107
   34MOL0     C 4478   6.446   1.847  -0.435 -0.1654  0.0505 -0.3561
   34MOL0     O 4479   6.343   1.805  -0.531  0.0779 -0.7709 -0.3381
   34MOL0     C 4480   6.237   1.723  -0.494 -0.5825 -0.2648 -0.2146
   34MOL0     C 4481   6.209   1.678  -0.368 -0.8431 -0.4145  0.5590
   34MOL0     C 4482   6.106   1.600  -0.337  0.8233  0.4441  0.3464
   34MOL0     C 4483   6.114   1.538  -0.195  0.0217 -0.2243  0.1194
   34MOL0     C 4484   6.011   1.564  -0.440  0.1216 -0.4588 -0.8045
   34MOL0     C 4485   5.894   1.488  -0.423  0.4077  0.3933  0.7915
   34MOL0     O 4486   5.830   1.432  -0.530 -0.7708  0.4758 -0.0617
   34MOL0     C 4487   5.719   1.349  -0.522 -0.2817  0.4746 -1.1733
   34MOL0     C 4488   5.683   1.266  -0.413  0.5785  0.3706  0.2405
   34MOL0     C 4489   5.566   1.190  -0.421 -0.4546 -0.2858  0.7292
   34MOL0     C 4490   5.493   1.185  -0.537 -0.7111  0.4516  1.2295
   34MOL0     O 4491   5.373   1.108  -0.547 -0.0881  0.2763  0.1510
   34MOL0     C 4492   5.268   1.131  -0.642  0.1082 -0.7453 -0.9234
   34MOL0     C 4493   5.183   0.997  -0.659 -0.1399  0.1501 -0.2494
   34MOL0     C 4494   5.062   1.022  -0.749  0.4831 -0.3598  0.1213
   34MOL0     C 4495   5.103   1.068  -0.888 -0.1764  1.1130  0.7582
   34MOL0     C 4496   4.986   1.098  -0.981 -0.0058 -0.6551 -0.7672
   34MOL0     C 4497   4.912   0.965  -1.023  0.2104 -0.5414  0.2775
   34MOL0     C 4498   4.812   0.993  -1.138 -0.2224  0.3989  0.2270
   34MOL0     C 4499   4.728   1.128  -1.117  0.0902 -0.0400 -0.0098
   34MOL0    Cl 4500   4.580   1.118  -1.224 -0.2807  0.4153 -0.0066
   34MOL0     C 4501   5.538   1.263  -0.650 -0.3553  0.3403  0.6970
   34MOL0     C 4502   5.650   1.343  -0.641 -0.4272 -0.0867 -0.7502
   34MOL0     O 4503   5.840   1.490  -0.308 -0.7637 -0.4023 -0.2481
   34MOL0     C 4504   6.032   1.624  -0.567 -0.0540  0.3577 -0.7239
   34MOL0     C 4505   6.154   1.692  -0.593 -0.6224 -0.0350  0.4774
   34MOL0     N 4506   6.837   2.113  -0.233 -0.5301 -0.8159 -0.1580
   34MOL0     N 4507   6.919   2.129  -0.140  0.7077 -0.0629 -0.5418
   34MOL0     C 4508   7.529   2.328   0.803 -0.1697  0.8492 -0.3171
   34MOL0     C 4509   7.575   2.352   0.940 -0.0573 -0.1052  0.2730
   34MOL0     C 4510   7.721   2.369   1.331 -0.8271 -0.2951 -0.0384
   34MOL0     C 4511   7.835   2.456   1.340 -0.7362  0.1805  0.2208
   34MOL0     C 4512   7.876   2.510   1.454  0.0146  0.1988 -0.1089
   34MOL0     C 4513   7.812   2.484   1.578  0.4389  0.6485  0.2669
   34MOL0     O 4514   7.865   2.523   1.703 -0.1932 -0.0670  0.9895
   34MOL0     C 4515   7.958   2.625   1.711  0.0289  0.9085 -0.5035
   34MOL0     C 4516   7.973   2.668   1.855  0.3525  0.3851 -0.5518
   34MOL0     C 4517   8.092   2.767   1.874  0.6220 -0.2823  0.3032
   34MOL0     C 4518   8.123   2.780   2.024 -1.0335 -0.6573  0.1927
   34MOL0     C 4519   8.265   2.828   2.024  0.3444  0.3832 -0.5271
   34MOL0     C 4520   8.379   2.873   2.017 -0.0686  0.0090  0.0380
   34MOL0     C 4521   7.697   2.395   1.575 -0.3918  0.5279 -0.5855
   34MOL0     C 4522   7.660   2.339   1.454  0.2987  0.2021 -0.6461
   34MOL0     H 4523   7.894   2.222   0.900 -0.0588  0.6770 -0.5609
   34MOL0     H 4524   7.791   2.152   0.682 -5.5376  0.8596 -5.1858
   34MOL0     H 4525   7.708   2.250   0.462 -1.3990  1.1310 -0.3115
   34MOL0     H 4526   7.682   2.090   0.522 -0.9431  0.9619  2.0337
   34MOL0     H 4527   7.497   2.224   0.318  0.5626  0.2561  0.4237
   34MOL0     H 4528   7.607   2.094   0.286  1.3541  0.8071  0.6264
   34MOL0     H 4529   7.459   1.918   0.322 -0.9832 -1.2091  0.2350
   34MOL0     H 4530   7.475   1.969   0.488  4.1706 -1.2701 -2.7022
   34MOL0     H 4531   7.237   1.939   0.414  1.1493  0.2028 -1.9298
   34MOL0     H 4532   7.271   2.091   0.495  0.8831  0.5064 -0.2790
   34MOL0     H 4533   7.269   2.201   0.282 -1.7324  0.6049  1.4666
   34MOL0     H 4534   7.298   2.052   0.187 -1.1960 -1.6701 -0.3989
   34MOL0     H 4535   7.058   1.990   0.281 -1.0050  0.3195 -1.8177
   34MOL0     H 4536   7.061   2.160   0.343  2.6640  2.8649 -0.6846
   34MOL0     H 4537   7.084   2.234   0.117  0.1992  1.1798  2.1691
   34MOL0     H 4538   7.098   2.072   0.048  1.9914 -1.2127  1.9207
   34MOL0     H 4539   6.868   2.242   0.134  2.3528  1.3905 -1.4056
   34MOL0     H 4540   6.833   2.068   0.168 -1.7386  1.2500 -0.3353
   34MOL0     H 4541   6.646   2.066   0.022 -0.2917 -2.0704 -2.2650
   34MOL0     H 4542   6.544   1.963  -0.213  1.9108 -0.3099  1.6348
   34MOL0     H 4543   6.523   2.127  -0.276 -1.9431  0.0821 -2.8710
   34MOL0     H 4544   6.709   1.929  -0.405 -0.8705 -0.5923  0.4720
   34MOL0     H 4545   6.684   2.094  -0.451  1.5170 -0.2450  1.1858
   34MOL0     H 4546   6.565   1.925  -0.595 -1.0648 -2.3872  0.4841
   34MOL0     H 4547   6.476   2.051  -0.513  2.6402  0.6444 -0.5006
   34MOL0     H 4548   6.385   1.866  -0.346 -0.7430 -1.8995 -0.2883
   34MOL0     H 4549   6.499   1.759  -0.398  2.0207  2.1166  1.7684
   34MOL0     H 4550   6.281   1.699  -0.290  0.5698  0.6374 -0.9595
   34MOL0     H 4551   6.216   1.547  -0.156 -0.4414 -0.4021  1.4222
   34MOL0     H 4552   6.047   1.587  -0.123 -2.1794 -1.0598 -1.2606
   34MOL0     H 4553   6.090   1.431  -0.199  2.7793 -0.8965 -0.9286
   34MOL0     H 4554   5.755   1.251  -0.333  1.5497 -1.0538 -0.8311
   34MOL0     H 4555   5.542   1.126  -0.336  0.2501 -1.0499  0.3658
   34MOL0     H 4556   5.209   1.216  -0.607  0.5770 -0.9925  0.5266
   34MOL0     H 4557   5.314   1.157  -0.738  0.0734 -1.4522 -1.1406
   34MOL0     H 4558   5.250   0.923  -0.703  0.3046  1.2603 -1.5158
   34MOL0     H 4559   5.155   0.956  -0.562  1.0239  1.1603  0.5521
   34MOL0     H 4560   4.998   1.098  -0.703  0.8919  0.9314 -1.3307
   34MOL0     H 4561   5.004   0.930  -0.756 -2.9797  1.7574 -3.7607
   34MOL0     H 4562   5.159   1.162  -0.894  1.2176  0.2545 -0.1759
   34MOL0     H 4563   5.150   0.987  -0.945 -0.9810  0.5642  0.8588
   34MOL0     H 4564   5.027   1.150  -1.068 -2.6143  0.8295 -1.2206
   34MOL0     H 4565   4.918   1.172  -0.935  0.9633  1.0470 -1.9562
   34MOL0     H 4566   4.981   0.887  -1.056 -0.5407 -0.5783 -1.3431
   34MOL0     H 4567   4.848   0.926  -0.944 -3.0463  2.1123 -0.8020
   34MOL0     H 4568   4.740   0.911  -1.148  0.5261 -0.4250  1.3278
   34MOL0     H 4569   4.874   0.982  -1.228 -0.5107  0.7570 -0.0173
   34MOL0     H 4570   4.782   1.223  -1.123  4.4243 -2.1553  1.2789
   34MOL0     H 4571   4.695   1.122  -1.013  1.4991 -0.7991  0.4171
   34MOL0     H 4572   5.483   1.277  -0.742  0.6648  2.1308  0.3183
   34MOL0     H 4573   5.683   1.417  -0.712 -2.2839  2.1933  0.6082
   34MOL0     H 4574   5.952   1.612  -0.640  0.5364  2.3559 -1.7903
   34MOL0     H 4575   6.173   1.731  -0.693 -2.3770 -1.5967 -0.5274
   34MOL0     H 4576   7.438   2.360   0.753  0.9933  2.4313 -1.5404
   34MOL0     H 4577   7.508   2.407   1.006 -1.7646 -0.1058 -1.3738
   34MOL0     H 4578   7.893   2.466   1.249 -3.9624  1.9578 -1.8303
   34MOL0     H 4579   7.969   2.567   1.455 -0.4938  1.3590 -3.7524
   34MOL0     H 4580   8.055   2.592   1.671 -0.0391 -0.6051  0.5333
   34MOL0     H 4581   7.935   2.715   1.652 -3.0526  0.8129  0.4100
   34MOL0     H 4582   8.000   2.582   1.917  1.5997  1.5292  0.5537
   34MOL0     H 4583   7.874   2.702   1.888  0.0144 -1.0230 -0.0276
   34MOL0     H 4584   8.073   2.864   1.829 -0.5719 -0.1114  1.1264
   34MOL0     H 4585   8.163   2.719   1.806 -2.6275 -2.0852 -2.0865
   34MOL0     H 4586   8.128   2.691   2.088  3.4153  1.1618  2.8062
   34MOL0     H 4587   8.059   2.857   2.069  1.1187  1.7415 -0.5743
   34MOL0     H 4588   8.480   2.906   2.010  0.1921 -0.8096 -0.2223
   34MOL0     H 4589   7.637   2.380   1.663  1.3913  0.4753  0.6766
   34MOL0     H 4590   7.570   2.278   1.454  1.5345 -1.7333 -0.4265
   35MOL0     O 4591   6.375   9.940   7.699  0.1581 -0.0497  0.0821
   35MOL0     C 4592   6.385   9.898   7.813  0.0788  0.0772  0.0918
   35MOL0     O 4593   6.345   9.965   7.915 -0.0813  0.6725 -0.2075
   35MOL0     C 4594   6.292  10.090   7.898 -0.1161  0.1694  0.4537
   35MOL0     C 4595   6.354  10.205   7.843 -0.7418  0.4492  1.5484
   35MOL0     C 4596   6.290  10.329   7.835 -0.6433 -0.4391 -1.6246
   35MOL0     C 4597   6.164  10.350   7.888  0.1933  0.3440  0.4137
   35MOL0     O 4598   6.089  10.464   7.864  0.1121 -0.4098 -0.1211
   35MOL0     C 4599   6.150  10.590   7.894  0.3174  0.0932  0.2726
   35MOL0     C 4600   6.174  10.666   7.762  0.8920 -0.6431  1.2177
   35MOL0     C 4601   6.253  10.796   7.766 -0.2910  0.5044  0.0171
   35MOL0     C 4602   6.155  10.909   7.792 -0.3283 -0.4155  0.4634
   35MOL0     C 4603   6.222  11.043   7.824  0.4327 -0.4378 -0.3654
   35MOL0     C 4604   6.126  11.127   7.910  0.7420  0.5594  0.4710
   35MOL0     C 4605   5.974  11.131   7.870 -0.2948 -0.6709 -0.8460
   35MOL0     C 4606   5.966  11.186   7.723 -0.5105 -0.3982 -0.1202
   35MOL0     N 4607   5.838  11.248   7.689  0.5593 -0.1641 -0.4865
   35MOL0     C 4608   5.792  11.372   7.740 -0.0848 -0.0820 -0.4538
   35MOL0     C 4609   5.699  11.409   7.645 -0.5860  0.0752  0.5018
   35MOL0     C 4610   5.624  11.535   7.654 -0.1610  0.3152  1.1827
   35MOL0     C 4611   5.592  11.574   7.501  0.5139  1.0942 -0.0162
   35MOL0     C 4612   5.540  11.715   7.484 -0.0548 -0.0983  0.4038
   35MOL0     C 4613   5.405  11.735   7.562  0.1989 -0.0804  1.0638
   35MOL0     O 4614   5.389  11.881   7.570  0.0940  0.5681 -0.3461
   35MOL0     C 4615   5.266  11.936   7.585  0.4767 -0.1317 -0.8596
   35MOL0     C 4616   5.266  12.072   7.566  0.5948 -0.2175 -0.0605
   35MOL0     C 4617   5.147  12.148   7.585 -0.3522 -0.0212 -0.2026
   35MOL0     C 4618   5.157  12.296   7.580 -0.7111  0.1299 -0.3486
   35MOL0     C 4619   5.026  12.081   7.631 -0.3477 -0.0648  0.2725
   35MOL0     C 4620   4.888  12.152   7.658 -0.3710 -0.0223  0.0287
   35MOL0     O 4621   4.802  12.062   7.729 -0.7829 -0.7897  0.2228
   35MOL0     C 4622   4.672  12.087   7.744  0.1144 -0.6519  1.0262
   35MOL0     C 4623   4.625  12.077   7.867 -0.6167  0.4537  0.5399
   35MOL0     C 4624   4.489  12.097   7.894 -0.3869 -0.0175 -0.7543
   35MOL0     C 4625   4.398  12.139   7.798 -0.0403  0.2112  0.3147
   35MOL0     O 4626   4.274  12.167   7.834 -0.5612  0.2468  0.6717
   35MOL0     C 4627   4.165  12.172   7.735  0.0544 -0.0475 -0.9750
   35MOL0     C 4628   4.038  12.203   7.813  0.4321 -0.3809  1.3006
   35MOL0     C 4629   3.924  12.229   7.715 -0.7847 -0.3714  0.1153
   35MOL0     C 4630   3.795  12.275   7.782  0.2073  0.2960 -0.2714
   35MOL0     C 4631   3.670  12.266   7.686  0.9494 -0.1377 -0.2171
   35MOL0     C 4632   3.605  12.135   7.680 -0.0487 -0.6988  0.3214
   35MOL0     C 4633   3.493  12.143   7.579 -0.2191  0.6484 -0.1158
   35MOL0     C 4634   3.427  12.007   7.573 -0.3301  0.4781 -0.5151
   35MOL0    Cl 4635   3.536  11.878   7.498 -0.0146  0.0370 -0.2706
   35MOL0     C 4636   4.453  12.149   7.668 -0.4006  0.6504 -0.1500
   35MOL0     C 4637   4.586  12.130   7.646 -0.8926  0.6447 -0.1863
   35MOL0     O 4638   4.859  12.254   7.592  0.8195 -0.3816 -0.8045
   35MOL0     C 4639   5.036  11.940   7.639  1.0408 -0.1090  0.2494
   35MOL0     C 4640   5.151  11.870   7.626  0.0966  0.9914 -0.1711
   35MOL0     N 4641   5.673  11.310   7.557 -0.9984  0.8380  0.0219
   35MOL0     N 4642   5.761  11.205   7.579  0.4106  0.5097  1.1275
   35MOL0     C 4643   6.104  10.239   7.950  0.0164  0.2766  0.4477
   35MOL0     C 4644   6.172  10.111   7.961  0.4524 -0.5001 -1.4021
   35MOL0     C 4645   6.446   9.770   7.833  0.0439 -0.6014 -0.1567
   35MOL0     C 4646   6.527   9.711   7.739  1.2262 -0.4108 -0.2323
   35MOL0     C 4647   6.583   9.587   7.760  0.2837  0.1099  0.0781
   35MOL0     C 4648   6.566   9.526   7.884  0.2867  0.0305 -0.2783
   35MOL0     O 4649   6.625   9.407   7.900  0.0266 -0.2553  0.3028
   35MOL0     C 4650   6.743   9.362   7.830  0.1409 -0.1316  0.0048
   35MOL0     C 4651   6.792   9.223   7.870  0.2443  0.1371  0.5638
   35MOL0     C 4652   6.682   9.120   7.850  0.1809  0.1214 -0.0604
   35MOL0     C 4653   6.737   8.976   7.895  1.2055  0.1420 -0.1690
   35MOL0     C 4654   6.632   8.868   7.894  0.0589  0.8741 -0.4217
   35MOL0     C 4655   6.547   8.781   7.894  0.3365  0.1665  0.6506
   35MOL0     C 4656   6.475   9.576   7.979  0.2831 -0.0694  0.6464
   35MOL0     C 4657   6.420   9.701   7.951  0.1443 -0.5588  0.2474
   35MOL0     H 4658   6.456  10.204   7.805 -1.5228  2.6323 -0.8692
   35MOL0     H 4659   6.330  10.419   7.789  2.7423  0.3077  2.1971
   35MOL0     H 4660   6.087  10.636   7.970  0.6094 -1.5201  1.5561
   35MOL0     H 4661   6.252  10.578   7.933  0.1283  0.2813  0.8424
   35MOL0     H 4662   6.217  10.590   7.697 -0.5972 -0.7399  0.3003
   35MOL0     H 4663   6.082  10.690   7.707  0.1710 -2.4290  1.5693
   35MOL0     H 4664   6.329  10.788   7.845  1.3499  1.5404 -1.3692
   35MOL0     H 4665   6.315  10.818   7.678  1.5950 -0.3813  1.0548
   35MOL0     H 4666   6.085  10.917   7.709  0.5468 -1.8514 -0.4465
   35MOL0     H 4667   6.099  10.888   7.884 -0.5120  1.7140  0.8906
   35MOL0     H 4668   6.311  11.019   7.882  2.4814  0.5580 -2.9004
   35MOL0     H 4669   6.254  11.088   7.729 -1.1868 -1.4892 -1.4714
   35MOL0     H 4670   6.125  11.083   8.010  1.5115  1.1965  0.7643
   35MOL0     H 4671   6.157  11.231   7.924  2.1727  0.6946 -2.8553
   35MOL0     H 4672   5.931  11.031   7.877  1.3698 -1.3258  1.0754
   35MOL0     H 4673   5.922  11.194   7.942 -1.1891  1.0402 -2.8931
   35MOL0     H 4674   5.985  11.105   7.652 -0.3997 -1.3577  0.9755
   35MOL0     H 4675   6.045  11.260   7.709 -2.4032  1.7150 -0.1474
   35MOL0     H 4676   5.822  11.426   7.829 -1.0652 -0.8663  0.3761
   35MOL0     H 4677   5.535  11.511   7.711 -0.6595  0.4752  0.4887
   35MOL0     H 4678   5.668  11.624   7.699 -2.0609  2.5826 -1.1477
   35MOL0     H 4679   5.520  11.506   7.455  1.4231  0.1729 -0.1179
   35MOL0     H 4680   5.676  11.558   7.433 -1.6690 -1.0184 -2.4305
   35MOL0     H 4681   5.526  11.737   7.378  2.3313 -0.5007 -0.0642
   35MOL0     H 4682   5.609  11.788   7.526 -0.7324 -0.1609  1.6715
   35MOL0     H 4683   5.422  11.696   7.663  0.9986  3.3187  2.3784
   35MOL0     H 4684   5.314  11.695   7.516 -0.1482  2.2118 -0.4090
   35MOL0     H 4685   5.360  12.113   7.530 -0.0123 -1.3124 -3.2221
   35MOL0     H 4686   5.067  12.341   7.537  0.7591  3.1362 -0.5473
   35MOL0     H 4687   5.173  12.326   7.685 -0.0077 -0.6641 -0.2202
   35MOL0     H 4688   5.233  12.330   7.509 -0.1875 -1.0372 -0.3653
   35MOL0     H 4689   4.688  12.043   7.949 -1.5693  1.6532  1.8225
   35MOL0     H 4690   4.450  12.086   7.995 -1.1260 -1.2842 -1.1434
   35MOL0     H 4691   4.175  12.257   7.666 -1.9896  1.8796  0.9400
   35MOL0     H 4692   4.163  12.078   7.679  1.1189 -2.0219  2.0471
   35MOL0     H 4693   4.013  12.120   7.881 -2.1342  0.8684  2.0285
   35MOL0     H 4694   4.061  12.295   7.868 -0.3279  0.6774 -0.0843
   35MOL0     H 4695   3.915  12.144   7.646  2.0948 -0.7161  0.0510
   35MOL0     H 4696   3.963  12.309   7.651  3.3220 -2.4285 -0.2813
   35MOL0     H 4697   3.777  12.209   7.868 -1.5496 -1.3383 -1.8014
   35MOL0     H 4698   3.802  12.383   7.798 -1.6541  1.0165 -3.4666
   35MOL0     H 4699   3.687  12.316   7.590 -0.2715  0.7264  0.0020
   35MOL0     H 4700   3.593  12.334   7.723  0.8740  0.2096 -1.0062
   35MOL0     H 4701   3.678  12.060   7.649  1.0924 -0.0092  1.2835
   35MOL0     H 4702   3.571  12.109   7.780  0.2208 -1.4634  0.2210
   35MOL0     H 4703   3.541  12.173   7.486 -2.1277 -0.0799 -1.4140
   35MOL0     H 4704   3.422  12.219   7.613 -0.7766  0.3096 -0.5070
   35MOL0     H 4705   3.350  12.016   7.495 -0.1118 -2.2475 -1.1437
   35MOL0     H 4706   3.399  11.983   7.676  2.5715 -1.2262 -0.0253
   35MOL0     H 4707   4.394  12.176   7.582 -2.0746 -1.1837  0.3431
   35MOL0     H 4708   4.619  12.161   7.548  2.7948  1.2340  1.0853
   35MOL0     H 4709   4.950  11.882   7.672  3.6667 -3.8013  1.1769
   35MOL0     H 4710   5.124  11.765   7.638 -1.6307  1.3155 -0.9688
   35MOL0     H 4711   6.014  10.243   8.011  0.4338  1.4492  1.0014
   35MOL0     H 4712   6.123  10.033   8.018  1.2644  0.7316  1.1268
   35MOL0     H 4713   6.555   9.760   7.646  0.7751  1.9008  0.7585
   35MOL0     H 4714   6.649   9.552   7.681 -0.9173 -0.2084 -0.8202
   35MOL0     H 4715   6.717   9.361   7.724 -0.5764 -0.0539  0.1794
   35MOL0     H 4716   6.827   9.431   7.840  0.2707 -0.4978  1.8596
   35MOL0     H 4717   6.833   9.223   7.972 -2.0348 -1.1941  1.5418
   35MOL0     H 4718   6.868   9.206   7.793  1.1906  1.3102  1.2050
   35MOL0     H 4719   6.665   9.122   7.742  2.7763  2.9376 -0.5830
   35MOL0     H 4720   6.592   9.138   7.909 -0.8035 -3.9320 -0.0527
   35MOL0     H 4721   6.778   8.975   7.997  4.3111  1.8884 -1.2718
   35MOL0     H 4722   6.811   8.954   7.818  3.0764  2.2851  0.8798
   35MOL0     H 4723   6.469   8.707   7.888  0.0718  0.4694  0.3041
   35MOL0     H 4724   6.441   9.532   8.073 -2.5178  0.1179 -0.1737
   35MOL0     H 4725   6.358   9.747   8.027  0.3808  0.8263 -0.3602
   36MOL0     O 4726  11.203   8.464   9.760 -0.1605  0.2891 -0.1836
   36MOL0     C 4727  11.324   8.448   9.752 -0.0050 -0.2437 -0.5107
   36MOL0     O 4728  11.397   8.387   9.656  0.8488 -0.3128  1.1092
   36MOL0     C 4729  11.343   8.302   9.561 -0.6058 -0.9225 -0.3228
   36MOL0     C 4730  11.423   8.294   9.444  0.2916  0.3879  0.2706
   36MOL0     C 4731  11.370   8.228   9.336 -1.1744 -0.9038 -0.3322
   36MOL0     C 4732  11.254   8.158   9.339 -0.3408 -0.2984 -0.4042
   36MOL0     O 4733  11.204   8.080   9.237 -0.2702  0.4363  0.6178
   36MOL0     C 4734  11.218   7.941   9.260 -0.3843 -0.3099  0.8418
   36MOL0     C 4735  11.146   7.862   9.154  0.3333 -0.2380  0.3856
   36MOL0     C 4736  10.997   7.845   9.166  0.3876 -1.3468  0.2889
   36MOL0     C 4737  10.948   7.748   9.053  0.2586 -0.0209  0.5842
   36MOL0     C 4738  10.791   7.736   9.049  0.4382 -0.3093 -0.3687
   36MOL0     C 4739  10.723   7.674   8.924  0.6756  0.5892 -1.8092
   36MOL0     C 4740  10.574   7.698   8.923  0.5682 -0.3191 -0.0778
   36MOL0     C 4741  10.501   7.633   9.038  0.3265 -0.8051 -0.4012
   36MOL0     N 4742  10.511   7.488   9.021  0.5396  0.0174  0.0991
   36MOL0     C 4743  10.580   7.405   9.094 -0.1294  0.4291  0.0290
   36MOL0     C 4744  10.562   7.280   9.039  0.1196 -0.1100 -0.2238
   36MOL0     C 4745  10.626   7.156   9.090  0.0311  0.1468  0.2007
   36MOL0     C 4746  10.752   7.126   9.017 -0.4191 -0.4282 -0.1919
   36MOL0     C 4747  10.806   6.989   9.066  0.4491  0.6961 -0.2030
   36MOL0     C 4748  10.702   6.875   9.037 -0.5707 -0.0471 -0.4716
   36MOL0     O 4749  10.768   6.747   9.037  0.2890 -0.1523  0.1012
   36MOL0     C 4750  10.874   6.721   8.957 -0.0140  1.0971  0.0093
   36MOL0     C 4751  10.970   6.638   9.003  0.2849 -1.1313  0.6686
   36MOL0     C 4752  11.082   6.599   8.937 -0.2985  0.3401 -0.0523
   36MOL0     C 4753  11.192   6.523   9.012  0.4185 -0.9504 -0.0631
   36MOL0     C 4754  11.099   6.652   8.811 -0.4506  0.1929  0.8238
   36MOL0     C 4755  11.224   6.629   8.726  1.0363 -1.0133  0.4009
   36MOL0     O 4756  11.205   6.643   8.591  0.5518  0.6198  1.1904
   36MOL0     C 4757  11.320   6.648   8.513  0.3958  0.5657 -0.7670
   36MOL0     C 4758  11.354   6.776   8.452  0.1886 -0.2048 -0.6285
   36MOL0     C 4759  11.479   6.794   8.390  0.3062 -0.3405 -0.0313
   36MOL0     C 4760  11.570   6.691   8.378 -0.1671  0.4945  0.0265
   36MOL0     O 4761  11.701   6.710   8.330  0.5114 -0.6348 -0.1472
   36MOL0     C 4762  11.707   6.781   8.195 -0.0305  0.0037 -0.2115
   36MOL0     C 4763  11.840   6.802   8.131  0.6003 -1.1832  0.5060
   36MOL0     C 4764  11.920   6.914   8.195  0.2600 -0.1233 -0.0209
   36MOL0     C 4765  12.061   6.908   8.134  0.3399  0.9816  0.4929
   36MOL0     C 4766  12.162   6.988   8.212 -0.3308  0.6237  0.6767
   36MOL0     C 4767  12.298   6.983   8.139  1.1670 -0.0943 -0.1643
   36MOL0     C 4768  12.416   7.035   8.225  0.9145 -0.4426  0.6698
   36MOL0     C 4769  12.547   7.008   8.159  0.1670  0.1160  0.8653
   36MOL0    Cl 4770  12.563   6.832   8.105 -0.4728  0.0129 -0.6177
   36MOL0     C 4771  11.536   6.566   8.442 -0.5117  0.7472 -0.0740
   36MOL0     C 4772  11.417   6.541   8.505 -0.1561 -0.9423  0.1575
   36MOL0     O 4773  11.332   6.602   8.782  0.2616 -0.5641 -0.1823
   36MOL0     C 4774  10.996   6.733   8.756  0.0235  0.7145  0.5375
   36MOL0     C 4775  10.883   6.773   8.828  0.4362  0.8091 -0.1367
   36MOL0     N 4776  10.481   7.301   8.925  0.3613 -0.7233 -0.1573
   36MOL0     N 4777  10.468   7.426   8.909 -0.5769  0.0092 -0.0507
   36MOL0     C 4778  11.180   8.159   9.455 -0.3587  0.4471 -0.5105
   36MOL0     C 4779  11.224   8.226   9.570  0.1356  0.1077  0.4461
   36MOL0     C 4780  11.407   8.513   9.858  0.0375 -0.0991  0.5717
   36MOL0     C 4781  11.341   8.603   9.950  1.1841 -0.3904  0.4096
   36MOL0     C 4782  11.420   8.666  10.048 -0.4651  0.6884 -0.7657
   36MOL0     C 4783  11.559   8.667  10.045  0.3121  0.0738  0.4523
   36MOL0     O 4784  11.625   8.748  10.122 -0.4486  0.6787  0.1719
   36MOL0     C 4785  11.771   8.740  10.135  0.1300  0.1706 -0.1381
   36MOL0     C 4786  11.822   8.790  10.281 -1.0056  0.1326 -0.7131
   36MOL0     C 4787  11.957   8.881  10.284  0.5414  0.7674  0.9955
   36MOL0     C 4788  11.991   8.933  10.424  0.3671  0.1466  0.2464
   36MOL0     C 4789  12.117   9.000  10.417 -0.1951  0.3141  0.2936
   36MOL0     C 4790  12.221   9.047  10.408  0.2144 -0.3048 -1.3788
   36MOL0     C 4791  11.618   8.573   9.954  0.8736 -0.5736 -0.4618
   36MOL0     C 4792  11.547   8.490   9.866 -0.2652 -0.8745 -0.4854
   36MOL0     H 4793  11.515   8.351   9.449  0.5319 -0.0457  1.0307
   36MOL0     H 4794  11.435   8.212   9.251  0.8820 -0.6979  1.1436
   36MOL0     H 4795  11.325   7.917   9.257 -0.5474 -0.9492 -1.3018
   36MOL0     H 4796  11.181   7.910   9.359  1.3026  0.3612  1.7303
   36MOL0     H 4797  11.158   7.911   9.057 -2.9181  1.6190  0.7759
   36MOL0     H 4798  11.188   7.761   9.145  0.7778  0.1363 -3.0400
   36MOL0     H 4799  10.974   7.801   9.264  1.0689 -0.7946  0.7047
   36MOL0     H 4800  10.942   7.939   9.161 -0.4462 -1.6793  2.1276
   36MOL0     H 4801  10.984   7.782   8.955 -0.5963  0.2786  0.3667
   36MOL0     H 4802  10.994   7.649   9.051 -1.4406 -0.8497  0.5703
   36MOL0     H 4803  10.764   7.663   9.125 -3.0927 -0.3418 -1.4436
   36MOL0     H 4804  10.736   7.829   9.070 -2.8913 -1.3836 -3.3310
   36MOL0     H 4805  10.771   7.721   8.838  2.8159  1.3958 -0.2740
   36MOL0     H 4806  10.749   7.567   8.921  2.1285  0.6094  2.5486
   36MOL0     H 4807  10.554   7.806   8.922  1.5711 -0.1216 -0.4687
   36MOL0     H 4808  10.537   7.664   8.825  1.0735 -1.7866  0.2093
   36MOL0     H 4809  10.395   7.658   9.033  0.7161  0.7992 -1.4969
   36MOL0     H 4810  10.541   7.672   9.132  0.2570  0.1783 -0.7715
   36MOL0     H 4811  10.638   7.420   9.185 -0.8523 -0.7979  0.7237
   36MOL0     H 4812  10.633   7.152   9.199  0.7406  1.0555  0.2079
   36MOL0     H 4813  10.555   7.078   9.063  0.1312 -0.2681  1.0936
   36MOL0     H 4814  10.828   7.203   9.030  0.1233 -0.7629 -1.2685
   36MOL0     H 4815  10.734   7.109   8.910  1.0269  1.8744 -0.8617
   36MOL0     H 4816  10.823   6.991   9.174 -3.9237  0.9906  0.6777
   36MOL0     H 4817  10.896   6.976   9.006 -1.5390 -0.9756 -3.0675
   36MOL0     H 4818  10.642   6.893   8.948 -1.6017 -1.1490 -0.0256
   36MOL0     H 4819  10.629   6.863   9.118 -2.7640  1.3144 -2.1350
   36MOL0     H 4820  10.955   6.595   9.102 -2.2023 -1.7857  0.0678
   36MOL0     H 4821  11.161   6.487   9.110  1.5331 -1.5586  0.0818
   36MOL0     H 4822  11.232   6.434   8.962  0.3674 -0.4087 -1.1101
   36MOL0     H 4823  11.279   6.589   9.025 -0.2057  0.3490 -1.9621
   36MOL0     H 4824  11.292   6.864   8.465  2.0874  1.1343 -0.1484
   36MOL0     H 4825  11.499   6.887   8.338 -1.1287 -0.1501 -0.3049
   36MOL0     H 4826  11.654   6.709   8.132 -0.0676 -2.3764  2.3464
   36MOL0     H 4827  11.647   6.871   8.207 -0.8428 -0.7437  1.6428
   36MOL0     H 4828  11.895   6.707   8.130  5.7737  1.3560  3.6047
   36MOL0     H 4829  11.823   6.838   8.029  0.5686 -4.7176 -0.8790
   36MOL0     H 4830  11.925   6.912   8.305  0.6471  1.1980  0.0079
   36MOL0     H 4831  11.876   7.012   8.174  2.7478  0.5387 -2.8605
   36MOL0     H 4832  12.093   6.804   8.140 -1.9571  0.0501 -1.5183
   36MOL0     H 4833  12.054   6.930   8.027 -0.1009  2.5520  0.8126
   36MOL0     H 4834  12.177   6.940   8.310 -0.4775 -0.0044  0.3957
   36MOL0     H 4835  12.133   7.091   8.234 -1.0150  0.3463  1.1432
   36MOL0     H 4836  12.311   6.875   8.124 -1.3842 -0.2778 -1.7311
   36MOL0     H 4837  12.289   7.027   8.040  1.1586 -2.5833 -1.3426
   36MOL0     H 4838  12.417   6.978   8.318 -1.5986 -0.6358  0.6603
   36MOL0     H 4839  12.413   7.142   8.245 -0.0255  0.4158 -3.1143
   36MOL0     H 4840  12.629   7.024   8.230 -0.7540 -1.2270  2.3025
   36MOL0     H 4841  12.568   7.076   8.076  1.0073 -0.3596  0.6767
   36MOL0     H 4842  11.611   6.489   8.430  0.4346  1.9505 -2.9798
   36MOL0     H 4843  11.380   6.444   8.538 -3.4047  0.1431  0.0914
   36MOL0     H 4844  11.004   6.780   8.659  0.9420  0.6022  0.5441
   36MOL0     H 4845  10.805   6.840   8.795 -0.3554  0.4179  0.8896
   36MOL0     H 4846  11.095   8.091   9.464  1.7092 -2.5631 -1.9677
   36MOL0     H 4847  11.165   8.232   9.661 -0.4329 -0.4173  0.1197
   36MOL0     H 4848  11.232   8.610   9.953  1.2343  0.4565  0.5930
   36MOL0     H 4849  11.369   8.715  10.131 -1.0495  1.9271 -1.8101
   36MOL0     H 4850  11.817   8.642  10.119 -0.5095  0.0772 -1.5889
   36MOL0     H 4851  11.810   8.806  10.057  2.6663  0.5754  1.3419
   36MOL0     H 4852  11.839   8.697  10.336  0.3327 -0.7917 -2.5723
   36MOL0     H 4853  11.739   8.840  10.331 -2.0672 -0.6295 -1.6529
   36MOL0     H 4854  11.917   8.969  10.232 -1.3126  0.2400  1.4377
   36MOL0     H 4855  12.040   8.831  10.233  0.1686  1.4733 -0.3392
   36MOL0     H 4856  12.006   8.851  10.495  3.1565 -0.3568 -0.7839
   36MOL0     H 4857  11.915   8.998  10.469 -2.5387 -3.5105  1.1911
   36MOL0     H 4858  12.318   9.087  10.387 -0.9812  1.8331 -3.2494
   36MOL0     H 4859  11.725   8.553   9.955  1.5238  1.6145 -4.6535
   36MOL0     H 4860  11.595   8.412   9.808 -0.3124 -0.3000 -1.3084
   37MOL0     O 4861   2.575   9.236   7.344  1.0942 -0.3949  0.5938
   37MOL0     C 4862   2.692   9.238   7.352 -0.5673  0.4977 -0.1101
   37MOL0     O 4863   2.762   9.263   7.471  0.2014  0.6055 -0.7297
   37MOL0     C 4864   2.700   9.334   7.571 -0.2756 -0.6226  1.1580
   37MOL0     C 4865   2.621   9.276   7.671 -0.2145  0.3605  0.2555
   37MOL0     C 4866   2.574   9.354   7.783 -0.7255 -0.0690  0.3198
   37MOL0     C 4867   2.611   9.484   7.795 -0.1079 -0.4490 -0.3007
   37MOL0     O 4868   2.576   9.551   7.914 -0.1652  0.1988 -0.1391
   37MOL0     C 4869   2.607   9.684   7.951 -0.8426  0.4833  0.5457
   37MOL0     C 4870   2.514   9.737   8.064  0.6818 -0.9532  0.4874
   37MOL0     C 4871   2.379   9.784   8.002  0.0925 -0.4054  0.1442
   37MOL0     C 4872   2.285   9.847   8.107  0.0024 -0.3616 -0.2243
   37MOL0     C 4873   2.157   9.902   8.055 -0.3185  0.3556  0.3615
   37MOL0     C 4874   2.115  10.022   8.131  0.6099 -0.2478 -0.4587
   37MOL0     C 4875   1.978  10.056   8.079  0.2802  0.4816  0.3172
   37MOL0     C 4876   1.902  10.123   8.199 -0.6525 -0.3821 -0.6656
   37MOL0     N 4877   1.760  10.128   8.165 -0.3560  0.1004 -0.4041
   37MOL0     C 4878   1.712  10.217   8.073  1.0254 -1.1987  1.0619
   37MOL0     C 4879   1.584  10.170   8.041 -0.5540 -0.2441  0.2077
   37MOL0     C 4880   1.485  10.228   7.936 -0.4300 -0.1796  0.4566
   37MOL0     C 4881   1.504  10.380   7.897  1.8691 -0.3154 -0.2431
   37MOL0     C 4882   1.468  10.479   8.018 -0.4800 -0.7924  1.0352
   37MOL0     C 4883   1.468  10.619   7.959  0.1590  0.2900  0.0422
   37MOL0     O 4884   1.603  10.649   7.917 -0.0915 -0.4010 -0.7042
   37MOL0     C 4885   1.649  10.777   7.878 -0.0110 -0.4491  0.5269
   37MOL0     C 4886   1.732  10.793   7.768 -0.5599 -0.8239  0.0589
   37MOL0     C 4887   1.780  10.918   7.721 -0.1997  0.0599 -0.1887
   37MOL0     C 4888   1.902  10.901   7.626  0.3490  0.1994  0.6901
   37MOL0     C 4889   1.718  11.032   7.773  0.4010  0.4497  0.2117
   37MOL0     C 4890   1.735  11.171   7.732  0.6290  0.5283  0.0877
   37MOL0     O 4891   1.637  11.268   7.783 -0.0785 -0.6670  0.4868
   37MOL0     C 4892   1.595  11.374   7.711  0.4194  0.5318  0.6158
   37MOL0     C 4893   1.631  11.404   7.576  0.2694 -0.1555  0.2313
   37MOL0     C 4894   1.547  11.486   7.495 -0.1459 -0.4662  0.1377
   37MOL0     C 4895   1.439  11.561   7.557 -0.1391  0.3745  0.2720
   37MOL0     O 4896   1.361  11.641   7.477 -0.0589  0.3822 -0.6496
   37MOL0     C 4897   1.409  11.772   7.491  0.0441  1.1265 -0.9563
   37MOL0     C 4898   1.406  11.841   7.354 -0.4194  0.5118 -0.0086
   37MOL0     C 4899   1.471  11.767   7.247  0.5732  0.1682  0.7976
   37MOL0     C 4900   1.467  11.860   7.124 -0.3587  0.1419  0.5003
   37MOL0     C 4901   1.544  11.807   6.996 -0.5709 -0.6706 -0.0366
   37MOL0     C 4902   1.695  11.839   6.986  0.5271  0.6257  0.0134
   37MOL0     C 4903   1.788  11.742   7.070 -0.4419 -0.4570 -0.8163
   37MOL0     C 4904   1.921  11.748   7.018  0.8526 -0.0098  0.1855
   37MOL0    Cl 4905   2.021  11.847   7.127  0.1586 -0.2360 -0.1701
   37MOL0     C 4906   1.406  11.529   7.689  0.6011  0.2591  0.5461
   37MOL0     C 4907   1.485  11.443   7.764 -0.3942  0.2779 -0.3863
   37MOL0     O 4908   1.829  11.203   7.661 -0.2852  0.3997 -0.4594
   37MOL0     C 4909   1.626  11.019   7.887 -0.9117 -0.9316 -0.1203
   37MOL0     C 4910   1.594  10.891   7.934  0.7642  0.5711 -1.2683
   37MOL0     N 4911   1.550  10.068   8.120  0.0469 -0.0529  0.5760
   37MOL0     N 4912   1.660  10.040   8.191  0.2720 -0.2532 -0.2034
   37MOL0     C 4913   2.700   9.539   7.699  0.2114  0.1317 -0.2741
   37MOL0     C 4914   2.749   9.469   7.583  0.1378  0.5195 -0.0759
   37MOL0     C 4915   2.772   9.205   7.229  0.0849 -0.5846  1.0199
   37MOL0     C 4916   2.716   9.202   7.098  0.4924 -0.5009  0.3388
   37MOL0     C 4917   2.785   9.186   6.980  0.6016  0.1257 -0.2582
   37MOL0     C 4918   2.920   9.161   6.997 -0.5865  1.6935 -0.4563
   37MOL0     O 4919   3.003   9.132   6.886  0.5706 -0.1119 -0.0429
   37MOL0     C 4920   2.950   9.107   6.759 -0.0841  0.5898 -0.1506
   37MOL0     C 4921   3.025   8.991   6.698 -0.0949 -0.3311 -0.5199
   37MOL0     C 4922   3.041   8.857   6.769 -0.8772 -0.7529 -0.6614
   37MOL0     C 4923   2.908   8.804   6.809  0.4556 -0.6826 -0.3948
   37MOL0     C 4924   2.913   8.682   6.887 -0.1731  0.5982  0.7346
   37MOL0     C 4925   2.913   8.592   6.968  0.7877 -0.5944  0.0373
   37MOL0     C 4926   2.986   9.165   7.118 -0.0153  0.6891 -0.1506
   37MOL0     C 4927   2.916   9.194   7.240 -0.0474 -0.5741  0.4090
   37MOL0     H 4928   2.601   9.175   7.638  2.2945  0.6808 -2.7655
   37MOL0     H 4929   2.514   9.307   7.859 -0.5397 -1.7598 -0.5427
   37MOL0     H 4930   2.712   9.679   7.980 -0.1191 -0.3486 -1.9752
   37MOL0     H 4931   2.602   9.739   7.857  1.2594  0.3155  0.3002
   37MOL0     H 4932   2.511   9.658   8.139  0.0869 -3.3849 -1.9597
   37MOL0     H 4933   2.563   9.827   8.102  0.5651 -0.2461 -0.9772
   37MOL0     H 4934   2.407   9.858   7.927  0.1865 -1.5035 -0.9218
   37MOL0     H 4935   2.318   9.703   7.961  1.5087 -1.6162  0.3447
   37MOL0     H 4936   2.269   9.780   8.192 -0.2651 -1.4510 -1.1150
   37MOL0     H 4937   2.348   9.930   8.141  0.5669 -1.0726  0.5113
   37MOL0     H 4938   2.155   9.931   7.949  2.1953 -1.4872 -0.3104
   37MOL0     H 4939   2.087   9.821   8.079 -1.3036  1.0421 -0.1274
   37MOL0     H 4940   2.120   9.994   8.237  1.4980  0.3840 -0.3210
   37MOL0     H 4941   2.182  10.108   8.120 -0.3992  0.8104  1.1953
   37MOL0     H 4942   1.994  10.111   7.986 -1.6263  0.2628 -0.1774
   37MOL0     H 4943   1.910   9.977   8.047 -1.2840  2.4575 -1.5724
   37MOL0     H 4944   1.946  10.220   8.225 -1.2045  0.0175 -1.1822
   37MOL0     H 4945   1.896  10.062   8.289 -1.7449  1.4657  0.5672
   37MOL0     H 4946   1.772  10.301   8.042  1.1516 -1.6914 -0.0911
   37MOL0     H 4947   1.497  10.171   7.843 -1.4210 -1.5777  1.1350
   37MOL0     H 4948   1.381  10.210   7.966 -1.2361  1.9988 -0.8299
   37MOL0     H 4949   1.425  10.393   7.823  0.3561 -2.0952  0.9907
   37MOL0     H 4950   1.603  10.395   7.853  1.7372  0.3536 -0.3341
   37MOL0     H 4951   1.527  10.479   8.110 -0.0565 -0.2194  0.7721
   37MOL0     H 4952   1.368  10.461   8.060 -0.1576  0.3643  2.3688
   37MOL0     H 4953   1.430  10.683   8.039  2.6048  0.8763  0.8228
   37MOL0     H 4954   1.407  10.625   7.869  2.2605 -1.6408 -1.6533
   37MOL0     H 4955   1.782  10.705   7.729 -0.4168 -0.2816 -1.0446
   37MOL0     H 4956   1.998  10.915   7.676 -0.1628 -0.2284  1.8278
   37MOL0     H 4957   1.912  10.797   7.593  4.8055  0.0976  1.6894
   37MOL0     H 4958   1.907  10.969   7.540 -0.3604 -0.7812 -0.1489
   37MOL0     H 4959   1.712  11.357   7.521 -2.1740 -1.8179 -2.2118
   37MOL0     H 4960   1.569  11.513   7.392 -1.6534 -0.2532 -0.1404
   37MOL0     H 4961   1.348  11.823   7.566  0.5067 -1.4315  1.3061
   37MOL0     H 4962   1.516  11.786   7.510  0.1628 -0.0217 -0.7109
   37MOL0     H 4963   1.299  11.842   7.333 -0.4400  1.4209  0.0878
   37MOL0     H 4964   1.451  11.940   7.367  1.0067  0.2435 -2.2033
   37MOL0     H 4965   1.412  11.681   7.215  1.9652 -0.7050  0.5233
   37MOL0     H 4966   1.570  11.730   7.276  0.1350 -3.2537 -1.4720
   37MOL0     H 4967   1.364  11.886   7.100  0.1390  1.2152 -0.5594
   37MOL0     H 4968   1.500  11.960   7.156  2.6069 -1.3508  2.6596
   37MOL0     H 4969   1.505  11.848   6.902  0.1061  2.7862  1.0722
   37MOL0     H 4970   1.527  11.700   6.980  1.4634 -0.7658 -2.2581
   37MOL0     H 4971   1.725  11.833   6.880  1.0327  2.1997  0.0483
   37MOL0     H 4972   1.689  11.939   7.028 -0.4010 -1.4616  5.6381
   37MOL0     H 4973   1.741  11.643   7.061 -0.3316 -0.6414  0.4617
   37MOL0     H 4974   1.791  11.763   7.177  1.8823  0.1373 -0.9334
   37MOL0     H 4975   1.929  11.784   6.915 -0.9634 -0.2873 -0.0758
   37MOL0     H 4976   1.976  11.653   7.018  2.7450  1.0272 -0.4830
   37MOL0     H 4977   1.313  11.572   7.725  1.1271 -0.2571  2.6729
   37MOL0     H 4978   1.463  11.427   7.869  0.5138  0.6745 -0.1218
   37MOL0     H 4979   1.565  11.095   7.936  1.9459  0.0400  2.2031
   37MOL0     H 4980   1.515  10.882   8.007  0.7300  2.7793 -0.9708
   37MOL0     H 4981   2.732   9.642   7.710 -0.1128  0.2829 -0.7186
   37MOL0     H 4982   2.802   9.527   7.508  1.2462 -0.4909 -0.1186
   37MOL0     H 4983   2.613   9.229   7.082  0.4438  0.4981  2.0944
   37MOL0     H 4984   2.733   9.176   6.885 -1.4348  0.3031  0.7720
   37MOL0     H 4985   2.845   9.075   6.750  0.9192 -2.9497 -1.0605
   37MOL0     H 4986   2.957   9.199   6.701 -1.2904  0.8528  0.0894
   37MOL0     H 4987   3.127   9.022   6.672 -0.2318 -0.8847 -1.7933
   37MOL0     H 4988   2.979   8.957   6.605 -0.0255  0.2045 -0.7487
   37MOL0     H 4989   3.102   8.867   6.860 -3.2436  0.9239  0.8708
   37MOL0     H 4990   3.096   8.792   6.701  3.1107  1.5089  0.1164
   37MOL0     H 4991   2.856   8.786   6.714 -1.4121 -3.4797  1.0095
   37MOL0     H 4992   2.838   8.866   6.866 -2.6268 -1.1667 -3.3100
   37MOL0     H 4993   2.895   8.527   7.051  1.6967 -1.3691 -0.3587
   37MOL0     H 4994   3.094   9.148   7.120 -0.1922 -0.5343  1.1840
   37MOL0     H 4995   2.971   9.193   7.333 -1.0821 -1.4363  1.0387
   38MOL0     O 4996   2.987   6.581   0.482 -0.0409 -0.0574  0.5958
   38MOL0     C 4997   2.879   6.637   0.491  1.0749 -0.3677 -0.4115
   38MOL0     O 4998   2.747   6.592   0.479  0.1701 -0.4811  0.0336
   38MOL0     C 4999   2.739   6.464   0.430 -0.0679  0.0335  0.0643
   38MOL0     C 5000   2.808   6.431   0.307 -0.3000  0.3848 -0.1432
   38MOL0     C 5001   2.793   6.302   0.253 -0.0128 -1.3474  0.7837
   38MOL0     C 5002   2.703   6.210   0.296 -1.3512 -0.7952  1.1543
   38MOL0     O 5003   2.696   6.094   0.228  0.0820 -0.2894  0.5418
   38MOL0     C 5004   2.587   6.007   0.254  0.7606  0.5969  0.1566
   38MOL0     C 5005   2.589   5.883   0.158  0.2828 -0.0573  0.3962
   38MOL0     C 5006   2.451   5.823   0.126 -0.2597  0.0597 -0.6107
   38MOL0     C 5007   2.379   5.902   0.017  0.7160 -0.7581  0.3089
   38MOL0     C 5008   2.258   5.828  -0.041  0.3036  0.2608  0.3638
   38MOL0     C 5009   2.133   5.817   0.051  0.4175 -0.3746 -0.2074
   38MOL0     C 5010   2.025   5.716   0.013  0.5001 -0.4373  1.0571
   38MOL0     C 5011   1.920   5.702   0.125 -0.0387  0.1529  0.1997
   38MOL0     N 5012   1.826   5.597   0.088 -1.0156 -0.3241 -0.0631
   38MOL0     C 5013   1.854   5.467   0.103 -0.9529 -0.1512  0.0798
   38MOL0     C 5014   1.745   5.398   0.051  0.9938 -0.0600  0.6764
   38MOL0     C 5015   1.719   5.247   0.068 -0.2131 -0.1809  0.7820
   38MOL0     C 5016   1.652   5.218   0.205  0.4555  0.4056  0.8777
   38MOL0     C 5017   1.512   5.269   0.235 -0.3503  0.4689  0.2641
   38MOL0     C 5018   1.412   5.203   0.142  0.3574 -0.3324 -0.5884
   38MOL0     O 5019   1.277   5.241   0.188 -0.1866  1.0284 -0.1735
   38MOL0     C 5020   1.169   5.201   0.106 -0.0598  0.8140  0.2727
   38MOL0     C 5021   1.179   5.119  -0.008 -0.4715  0.3573 -0.3056
   38MOL0     C 5022   1.067   5.084  -0.080 -0.0538 -1.0287  0.0390
   38MOL0     C 5023   1.089   5.021  -0.222 -0.0852  0.0446 -0.2863
   38MOL0     C 5024   0.932   5.120  -0.031  0.8575 -0.2673  0.1480
   38MOL0     C 5025   0.808   5.082  -0.104 -0.8597  0.2313  0.7535
   38MOL0     O 5026   0.691   5.137  -0.061  0.4697 -0.0053  0.5509
   38MOL0     C 5027   0.573   5.094  -0.123  0.5806 -0.1562  0.2589
   38MOL0     C 5028   0.545   5.115  -0.259  0.0658 -0.3364 -0.5185
   38MOL0     C 5029   0.435   5.051  -0.317 -0.6532 -0.5674 -0.0138
   38MOL0     C 5030   0.335   4.994  -0.241  0.1420 -0.5789  0.1595
   38MOL0     O 5031   0.216   4.941  -0.295  0.5183  0.7404  0.0730
   38MOL0     C 5032   0.171   4.994  -0.426  0.2111 -0.0276 -0.3958
   38MOL0     C 5033   0.018   4.955  -0.441 -0.0810  1.0494  0.3935
   38MOL0     C 5034   0.001   4.802  -0.468 -0.7067 -0.2396 -0.4689
   38MOL0     C 5035  -0.144   4.763  -0.481  0.3151  0.7457  0.0584
   38MOL0     C 5036  -0.173   4.613  -0.466 -0.4383  1.1225  0.0070
   38MOL0     C 5037  -0.151   4.549  -0.332 -0.9542 -1.2228 -0.2870
   38MOL0     C 5038  -0.190   4.401  -0.334  0.9141 -0.1140  0.1351
   38MOL0     C 5039  -0.153   4.324  -0.208  0.1009  0.0216 -1.2727
   38MOL0    Cl 5040  -0.190   4.403  -0.051 -0.1464  0.7915  0.2111
   38MOL0     C 5041   0.358   4.986  -0.108 -0.0390 -0.7718 -0.1373
   38MOL0     C 5042   0.478   5.033  -0.046 -0.3449 -0.1039  0.4384
   38MOL0     O 5043   0.814   5.002  -0.196 -0.0977  0.5140 -0.2308
   38MOL0     C 5044   0.927   5.207   0.086  0.3289  0.1241  0.0763
   38MOL0     C 5045   1.043   5.238   0.152 -1.0908 -0.6822  0.1349
   38MOL0     N 5046   1.660   5.498   0.006  0.4189  0.4542  0.1151
   38MOL0     N 5047   1.712   5.608   0.023  0.2659 -1.3832  0.9618
   38MOL0     C 5048   2.632   6.239   0.410  0.2342  0.0727 -0.5904
   38MOL0     C 5049   2.651   6.364   0.479 -0.9199 -0.6654 -0.6741
   38MOL0     C 5050   2.892   6.782   0.495 -0.3886  0.0077  0.5943
   38MOL0     C 5051   2.803   6.868   0.427  0.0910  0.0279 -0.1178
   38MOL0     C 5052   2.815   7.003   0.439  1.0929 -0.2497 -0.8370
   38MOL0     C 5053   2.912   7.067   0.518  0.0117 -0.0293  0.1103
   38MOL0     O 5054   2.920   7.204   0.520  0.3033  0.3523 -0.1171
   38MOL0     C 5055   3.010   7.269   0.427 -0.2379  0.9389 -0.2860
   38MOL0     C 5056   2.955   7.400   0.372  0.5986 -0.5081 -0.4719
   38MOL0     C 5057   2.970   7.524   0.467 -0.1037  0.5398  0.1371
   38MOL0     C 5058   2.905   7.497   0.602  0.9123 -0.1816 -0.3088
   38MOL0     C 5059   2.902   7.626   0.685 -0.0559  0.9746  0.4885
   38MOL0     C 5060   2.888   7.723   0.751  0.3247  0.0607 -0.5606
   38MOL0     C 5061   2.998   6.981   0.587  0.7700  0.4743 -1.3283
   38MOL0     C 5062   2.993   6.843   0.565  0.5983 -1.0004  0.2974
   38MOL0     H 5063   2.872   6.508   0.265  0.4620 -0.8581 -1.3183
   38MOL0     H 5064   2.852   6.281   0.165  1.2175  0.0354  1.2287
   38MOL0     H 5065   2.590   5.969   0.356  0.5883  1.1236  0.3641
   38MOL0     H 5066   2.492   6.053   0.225  1.4075  1.4437 -0.6604
   38MOL0     H 5067   2.639   5.917   0.067  3.9933  1.6611  2.8378
   38MOL0     H 5068   2.658   5.809   0.199 -0.6056 -1.2681 -0.2277
   38MOL0     H 5069   2.472   5.719   0.100  1.6222 -0.7259  3.2146
   38MOL0     H 5070   2.385   5.813   0.213  0.5672  0.8875  0.1328
   38MOL0     H 5071   2.338   5.991   0.067  0.6046 -0.0762 -0.9562
   38MOL0     H 5072   2.444   5.936  -0.065  0.6683  1.7142  1.2220
   38MOL0     H 5073   2.218   5.890  -0.122  1.1831  2.4497  1.5206
   38MOL0     H 5074   2.291   5.736  -0.090 -2.5259  0.2016 -1.6958
   38MOL0     H 5075   2.177   5.800   0.150  1.9422 -3.0471 -1.2446
   38MOL0     H 5076   2.093   5.918   0.045  1.4649  0.2365  1.9483
   38MOL0     H 5077   1.972   5.748  -0.077 -1.3662  1.2971  2.7007
   38MOL0     H 5078   2.072   5.618  -0.003  2.0047  0.6583 -1.9663
   38MOL0     H 5079   1.860   5.793   0.138  0.5273  0.5815 -0.1375
   38MOL0     H 5080   1.964   5.666   0.219 -1.8417 -5.2949 -0.7126
   38MOL0     H 5081   1.932   5.421   0.163  0.6128 -1.4769 -2.7856
   38MOL0     H 5082   1.665   5.207  -0.019 -0.2054 -1.4674  1.3468
   38MOL0     H 5083   1.816   5.198   0.057  0.7382  1.1261  2.7259
   38MOL0     H 5084   1.721   5.269   0.272  0.2185  3.1492 -0.8230
   38MOL0     H 5085   1.653   5.110   0.225  0.0859  0.0817 -0.6916
   38MOL0     H 5086   1.502   5.377   0.220 -1.9729  0.1641 -1.3119
   38MOL0     H 5087   1.485   5.240   0.337 -2.5270 -1.5772 -0.7843
   38MOL0     H 5088   1.420   5.094   0.135  0.7212 -0.3616  0.1296
   38MOL0     H 5089   1.433   5.241   0.042 -0.7064 -1.5632 -1.3102
   38MOL0     H 5090   1.278   5.091  -0.042  0.9629  2.4329  1.8776
   38MOL0     H 5091   1.024   5.077  -0.289 -0.7985  0.4937  0.7566
   38MOL0     H 5092   1.190   5.044  -0.257  0.1916  3.0653  2.1350
   38MOL0     H 5093   1.081   4.911  -0.222  0.1151  0.0071  1.5076
   38MOL0     H 5094   0.621   5.165  -0.318  0.8370 -0.5290  0.2850
   38MOL0     H 5095   0.422   5.051  -0.425 -0.7590 -0.9456 -0.0044
   38MOL0     H 5096   0.178   5.103  -0.417 -0.3399 -0.0116 -0.1597
   38MOL0     H 5097   0.230   4.963  -0.512  2.0916 -1.3405  1.2576
   38MOL0     H 5098  -0.029   4.993  -0.349 -0.6661  2.2125 -0.3576
   38MOL0     H 5099  -0.029   5.007  -0.525 -0.2554  0.5790  0.1994
   38MOL0     H 5100   0.045   4.749  -0.383 -0.2921 -1.4441 -1.4015
   38MOL0     H 5101   0.067   4.778  -0.552 -1.1557  2.4931 -1.7272
   38MOL0     H 5102  -0.193   4.819  -0.401 -0.4511  1.0387 -0.5988
   38MOL0     H 5103  -0.174   4.790  -0.583  2.8345 -0.3363 -1.0831
   38MOL0     H 5104  -0.103   4.569  -0.538  0.0596 -0.0262  1.1586
   38MOL0     H 5105  -0.279   4.602  -0.491 -0.5316  0.7940  0.5512
   38MOL0     H 5106  -0.044   4.552  -0.309 -0.8867  1.5168 -0.6959
   38MOL0     H 5107  -0.202   4.598  -0.248  1.2692 -0.3093  0.6099
   38MOL0     H 5108  -0.156   4.352  -0.425 -2.0874 -3.0228  0.4002
   38MOL0     H 5109  -0.299   4.400  -0.325  0.9727  2.1115  1.9509
   38MOL0     H 5110  -0.045   4.309  -0.203  0.2449  0.7511 -1.9771
   38MOL0     H 5111  -0.194   4.223  -0.207 -3.4971  1.3178 -0.4950
   38MOL0     H 5112   0.296   4.927  -0.041 -1.0003 -1.1121 -1.2808
   38MOL0     H 5113   0.497   5.006   0.058 -3.2211  0.2921  1.1449
   38MOL0     H 5114   0.838   5.250   0.131 -0.1121  1.7766 -2.1358
   38MOL0     H 5115   1.042   5.307   0.235  3.6494  0.1525 -0.2353
   38MOL0     H 5116   2.553   6.177   0.453 -2.5633  3.2349 -0.7210
   38MOL0     H 5117   2.604   6.379   0.576 -0.4694 -1.6266 -0.2955
   38MOL0     H 5118   2.723   6.829   0.365 -0.3148  1.6620 -0.6602
   38MOL0     H 5119   2.757   7.065   0.371  1.8549  1.5157  0.0430
   38MOL0     H 5120   3.107   7.277   0.477  0.2126 -0.7524 -0.8120
   38MOL0     H 5121   3.019   7.207   0.338  1.2335 -1.4155  1.3774
   38MOL0     H 5122   2.850   7.380   0.351 -0.0392  1.8394  0.2223
   38MOL0     H 5123   3.009   7.420   0.279 -1.0934  0.5221 -1.2706
   38MOL0     H 5124   2.912   7.608   0.429  1.6611  1.5332 -0.4638
   38MOL0     H 5125   3.074   7.557   0.477  0.3491 -0.2449 -1.5994
   38MOL0     H 5126   2.950   7.412   0.655  0.6896  0.1997  0.4982
   38MOL0     H 5127   2.801   7.463   0.592  0.8792 -1.4166  2.9225
   38MOL0     H 5128   2.884   7.812   0.811 -1.6577  0.7331 -1.6193
   38MOL0     H 5129   3.076   7.031   0.643 -2.2375  2.7140  1.2673
   38MOL0     H 5130   3.073   6.789   0.616  0.9027 -1.4142 -0.5984
   39MOL0     O 5131   0.830   0.760   0.253 -0.0954  0.5593 -0.1389
   39MOL0     C 5132   0.813   0.679   0.347  0.0904  0.4632 -0.1366
   39MOL0     O 5133   0.879   0.553   0.363  0.1148 -0.2283 -1.0135
   39MOL0     C 5134   0.994   0.534   0.294  0.7165 -0.0089  1.4247
   39MOL0     C 5135   0.999   0.519   0.150 -0.0418 -0.1440  0.1974
   39MOL0     C 5136   1.123   0.518   0.083  0.2305  0.5861 -1.2304
   39MOL0     C 5137   1.247   0.518   0.158  0.2595 -0.8372  0.2925
   39MOL0     O 5138   1.373   0.542   0.110 -0.2579  1.0340 -0.2140
   39MOL0     C 5139   1.388   0.547  -0.035 -0.4501  0.7181  0.0251
   39MOL0     C 5140   1.456   0.417  -0.072  0.0273 -0.2605  1.0972
   39MOL0     C 5141   1.600   0.400  -0.031 -0.1918 -0.5682 -0.0893
   39MOL0     C 5142   1.696   0.431  -0.146  0.9001 -0.1219 -0.8905
   39MOL0     C 5143   1.837   0.417  -0.099 -0.3194 -0.4095 -0.3770
   39MOL0     C 5144   1.936   0.465  -0.213 -0.5618 -0.3700  0.2140
   39MOL0     C 5145   2.080   0.450  -0.173 -0.6373  0.0868  0.1823
   39MOL0     C 5146   2.169   0.432  -0.300 -0.1241 -0.3928 -0.6238
   39MOL0     N 5147   2.150   0.302  -0.373 -0.3794  0.1734 -0.0029
   39MOL0     C 5148   2.088   0.279  -0.497  0.0292 -0.6743 -0.5435
   39MOL0     C 5149   2.062   0.148  -0.496  0.0288 -0.1520  0.5955
   39MOL0     C 5150   2.014   0.088  -0.621  0.1186  0.5046  0.1466
   39MOL0     C 5151   1.874   0.133  -0.667  0.2457 -0.1980 -0.1565
   39MOL0     C 5152   1.779   0.128  -0.547  0.0933  0.5533 -0.2089
   39MOL0     C 5153   1.638   0.132  -0.603  0.5175 -0.4054  0.0021
   39MOL0     O 5154   1.622   0.243  -0.691 -0.2552  0.5867  0.1115
   39MOL0     C 5155   1.535   0.332  -0.628  0.1894  0.0809  0.3008
   39MOL0     C 5156   1.597   0.452  -0.603  0.0241  0.7448  0.6096
   39MOL0     C 5157   1.520   0.554  -0.543  0.2648  0.0128  0.2660
   39MOL0     C 5158   1.576   0.693  -0.528  0.7788 -0.3466 -0.4094
   39MOL0     C 5159   1.387   0.533  -0.496 -0.6736  0.3064 -0.2791
   39MOL0     C 5160   1.309   0.630  -0.420 -0.4943  0.0138 -0.6210
   39MOL0     O 5161   1.181   0.644  -0.463  0.2545  0.8564 -0.9194
   39MOL0     C 5162   1.075   0.696  -0.381  0.4823  0.0168  1.0053
   39MOL0     C 5163   1.052   0.672  -0.241 -0.0875  0.3932 -0.1027
   39MOL0     C 5164   0.928   0.695  -0.175  0.4960  0.0298  0.3293
   39MOL0     C 5165   0.820   0.735  -0.263  0.0019  0.5374  0.4590
   39MOL0     O 5166   0.693   0.753  -0.211  0.7806  0.0387  0.4485
   39MOL0     C 5167   0.575   0.709  -0.284  0.1802 -0.0087 -0.0294
   39MOL0     C 5168   0.445   0.733  -0.207 -0.9898 -0.4823 -0.2577
   39MOL0     C 5169   0.436   0.646  -0.092  0.0320 -0.3765 -0.0917
   39MOL0     C 5170   0.297   0.669  -0.027  0.2490 -0.0197 -0.1666
   39MOL0     C 5171   0.317   0.759   0.092 -0.0268 -0.3878  1.0166
   39MOL0     C 5172   0.182   0.806   0.141  0.1648 -0.3624  0.2195
   39MOL0     C 5173   0.137   0.939   0.077  0.1756 -0.1217  0.0848
   39MOL0     C 5174   0.058   1.023   0.180  0.9329 -0.4233 -0.3401
   39MOL0    Cl 5175  -0.104   0.952   0.234 -0.3242  0.1522 -0.3399
   39MOL0     C 5176   0.845   0.746  -0.404 -0.1231  0.3605  0.2030
   39MOL0     C 5177   0.968   0.733  -0.463 -0.5704  0.3744  0.1911
   39MOL0     O 5178   1.357   0.681  -0.323 -0.1664  0.3309 -0.2610
   39MOL0     C 5179   1.325   0.413  -0.541  0.6009  0.4402  0.0068
   39MOL0     C 5180   1.400   0.309  -0.608 -0.0216 -0.0511 -0.1501
   39MOL0     N 5181   2.107   0.090  -0.377  0.2797 -0.5340  0.2108
   39MOL0     N 5182   2.160   0.183  -0.315 -0.0865  0.4651  0.3190
   39MOL0     C 5183   1.234   0.526   0.297 -0.4086 -0.5868  0.3210
   39MOL0     C 5184   1.110   0.526   0.368 -0.2742  0.2415 -0.5695
   39MOL0     C 5185   0.717   0.715   0.441 -0.2579 -0.8393 -0.1138
   39MOL0     C 5186   0.767   0.739   0.572  0.4061  1.0150  0.2565
   39MOL0     C 5187   0.686   0.795   0.670 -0.4114  0.6344  0.7896
   39MOL0     C 5188   0.550   0.808   0.638 -1.0027  0.2159 -0.3833
   39MOL0     O 5189   0.446   0.853   0.723 -0.4283  0.5231  0.1832
   39MOL0     C 5190   0.480   0.869   0.862 -0.4318  0.5935 -0.2525
   39MOL0     C 5191   0.477   0.732   0.935 -0.2973 -0.3209  0.1337
   39MOL0     C 5192   0.560   0.749   1.062  1.0356 -1.2830  0.5821
   39MOL0     C 5193   0.590   0.616   1.125 -0.2944 -0.0644 -0.3215
   39MOL0     C 5194   0.680   0.643   1.237  0.1506  0.8028 -1.0391
   39MOL0     C 5195   0.757   0.648   1.335  0.5616  0.5946  0.3611
   39MOL0     C 5196   0.508   0.805   0.503  0.5761  0.0327  0.1566
   39MOL0     C 5197   0.586   0.752   0.407  0.1428  0.3270 -0.0006
   39MOL0     H 5198   0.909   0.518   0.090 -0.1904 -0.7452  0.4286
   39MOL0     H 5199   1.124   0.507  -0.025  2.7808  0.2881 -1.2224
   39MOL0     H 5200   1.301   0.539  -0.100  0.4791 -2.1921 -1.0510
   39MOL0     H 5201   1.453   0.629  -0.066 -0.2142 -0.0606 -1.6793
   39MOL0     H 5202   1.405   0.333  -0.026 -1.6893 -0.5811 -1.1773
   39MOL0     H 5203   1.441   0.404  -0.180  0.7246  0.4173  0.9119
   39MOL0     H 5204   1.618   0.462   0.057  2.4461 -1.2858 -0.0350
   39MOL0     H 5205   1.609   0.295  -0.002 -2.9110 -1.2628 -1.4403
   39MOL0     H 5206   1.673   0.361  -0.227  0.0308 -2.3988  1.1978
   39MOL0     H 5207   1.685   0.536  -0.174 -1.4696  0.2794  1.2280
   39MOL0     H 5208   1.848   0.489  -0.017  0.9965  0.0355 -0.9213
   39MOL0     H 5209   1.864   0.321  -0.056  3.0242 -0.1770 -1.6582
   39MOL0     H 5210   1.918   0.417  -0.309  0.2246  0.3340 -0.2987
   39MOL0     H 5211   1.915   0.571  -0.229  2.2396 -0.1840 -3.8668
   39MOL0     H 5212   2.100   0.536  -0.109  0.4636 -1.4889  2.0834
   39MOL0     H 5213   2.106   0.364  -0.111  0.3462 -2.5229 -3.5275
   39MOL0     H 5214   2.271   0.445  -0.263 -0.3724 -0.9536  0.2902
   39MOL0     H 5215   2.152   0.517  -0.367 -0.6617  0.2638  0.3201
   39MOL0     H 5216   2.089   0.349  -0.580 -2.2865  0.4120  0.2578
   39MOL0     H 5217   2.089   0.113  -0.697 -0.9920 -0.8261 -1.4732
   39MOL0     H 5218   2.010  -0.021  -0.615 -1.3355  0.6488  3.9994
   39MOL0     H 5219   1.848   0.069  -0.751  2.3429  0.9039 -1.7367
   39MOL0     H 5220   1.884   0.231  -0.715  2.5069 -0.9198 -1.2913
   39MOL0     H 5221   1.799   0.216  -0.484 -3.3700  1.5553 -0.2752
   39MOL0     H 5222   1.783   0.041  -0.482  3.3418  0.8086  0.1224
   39MOL0     H 5223   1.570   0.132  -0.517 -0.5496 -1.6697 -0.7964
   39MOL0     H 5224   1.612   0.038  -0.653 -1.3838  0.6916 -1.1916
   39MOL0     H 5225   1.693   0.481  -0.646  0.5490 -1.9125 -0.1695
   39MOL0     H 5226   1.499   0.762  -0.562  0.8818 -1.0659 -2.2170
   39MOL0     H 5227   1.597   0.723  -0.425  2.7844 -0.1337 -0.8412
   39MOL0     H 5228   1.664   0.710  -0.590  1.8318 -0.8313  0.9014
   39MOL0     H 5229   1.132   0.643  -0.175 -0.3551 -0.6875 -0.2351
   39MOL0     H 5230   0.917   0.678  -0.068 -1.6279 -0.6848  0.0451
   39MOL0     H 5231   0.568   0.780  -0.367  3.8228 -0.3664 -0.7941
   39MOL0     H 5232   0.579   0.606  -0.321  2.7241 -0.6528  1.7492
   39MOL0     H 5233   0.452   0.830  -0.156 -0.3022 -1.2769  1.2427
   39MOL0     H 5234   0.356   0.728  -0.270 -0.5566 -1.8170 -0.8077
   39MOL0     H 5235   0.513   0.657  -0.015  2.1706 -6.0927 -0.8958
   39MOL0     H 5236   0.464   0.546  -0.125 -0.2094 -0.4669 -0.0237
   39MOL0     H 5237   0.232   0.720  -0.098  0.3024 -1.1201 -1.0332
   39MOL0     H 5238   0.253   0.571  -0.005 -0.3897 -0.0067 -1.3271
   39MOL0     H 5239   0.378   0.842   0.056 -1.1166 -0.8863 -2.3179
   39MOL0     H 5240   0.371   0.705   0.171 -0.1771 -0.5989  0.9768
   39MOL0     H 5241   0.104   0.729   0.131 -2.2716  1.8864  0.8752
   39MOL0     H 5242   0.213   0.822   0.245  1.3011 -0.6061 -0.0636
   39MOL0     H 5243   0.091   0.919  -0.020  2.0083 -1.8241 -0.5143
   39MOL0     H 5244   0.224   1.004   0.065  0.4355  0.1873  3.0437
   39MOL0     H 5245   0.037   1.116   0.126 -1.1070 -0.5924  0.0675
   39MOL0     H 5246   0.116   1.054   0.268 -2.2800  0.7853  1.5379
   39MOL0     H 5247   0.759   0.756  -0.469 -1.1267  1.6382  1.6719
   39MOL0     H 5248   0.965   0.731  -0.571 -3.2657  0.6210  0.1938
   39MOL0     H 5249   1.218   0.399  -0.536  0.5558  0.6569 -0.3242
   39MOL0     H 5250   1.352   0.218  -0.640  2.2181 -0.8673 -1.3936
   39MOL0     H 5251   1.331   0.536   0.345  0.1083 -0.6885 -0.6810
   39MOL0     H 5252   1.103   0.532   0.476 -1.9100 -1.0732 -0.5632
   39MOL0     H 5253   0.875   0.732   0.583  0.1033  0.6220  4.1881
   39MOL0     H 5254   0.732   0.815   0.766 -2.6512 -3.7513  3.1092
   39MOL0     H 5255   0.581   0.909   0.873 -0.3032  0.1670  0.1547
   39MOL0     H 5256   0.413   0.945   0.903 -1.0865 -0.2176  0.2086
   39MOL0     H 5257   0.531   0.659   0.874  0.8374  2.1136 -1.9389
   39MOL0     H 5258   0.373   0.700   0.949  0.3516 -2.5553  0.2269
   39MOL0     H 5259   0.514   0.817   1.134 -0.0339  0.1857 -1.3516
   39MOL0     H 5260   0.650   0.808   1.043  2.0385 -1.7752  3.4432
   39MOL0     H 5261   0.645   0.565   1.045 -2.2827 -1.5944 -0.7760
   39MOL0     H 5262   0.499   0.559   1.145 -1.4378  1.3877 -1.1448
   39MOL0     H 5263   0.822   0.660   1.419  2.0616  0.1984 -0.6944
   39MOL0     H 5264   0.403   0.825   0.485 -0.1673 -1.6726  2.1225
   39MOL0     H 5265   0.541   0.736   0.309 -1.1364  0.9835  0.4567
   40MOL0     O 5266   4.655  10.427   7.429  0.0479  0.2537 -0.2951
   40MOL0     C 5267   4.751  10.354   7.421 -0.5723  0.3151  0.2117
   40MOL0     O 5268   4.758  10.224   7.487  0.2729  0.1437 -0.3309
   40MOL0     C 5269   4.647  10.170   7.555 -0.4891 -0.4709  0.4212
   40MOL0     C 5270   4.572  10.069   7.493  0.1667 -0.3716  0.4225
   40MOL0     C 5271   4.473   9.994   7.563 -0.4619 -0.1784 -0.2742
   40MOL0     C 5272   4.451  10.026   7.696  0.7041  0.2601 -0.1164
   40MOL0     O 5273   4.367   9.953   7.784  0.6069 -0.4852 -0.4058
   40MOL0     C 5274   4.248   9.897   7.728  0.1871  0.2664 -0.2518
   40MOL0     C 5275   4.298   9.746   7.704 -0.0014  0.6761  0.9135
   40MOL0     C 5276   4.232   9.646   7.603 -0.5321  0.2233 -0.5509
   40MOL0     C 5277   4.087   9.693   7.582  0.4004  1.0913 -0.5595
   40MOL0     C 5278   4.002   9.620   7.478 -0.0405 -0.1590  0.9423
   40MOL0     C 5279   3.980   9.477   7.521 -1.5032  0.3956  0.0214
   40MOL0     C 5280   3.851   9.420   7.460 -1.1042  0.4104  0.7568
   40MOL0     C 5281   3.854   9.262   7.455 -0.1059  0.0483  0.0792
   40MOL0     N 5282   3.958   9.207   7.366  0.2002  0.1294 -0.1986
   40MOL0     C 5283   3.991   9.264   7.252  1.7107 -0.2185  0.0926
   40MOL0     C 5284   4.112   9.220   7.213 -0.7668 -0.2998 -0.6482
   40MOL0     C 5285   4.186   9.269   7.092  0.6724 -0.6882 -0.0553
   40MOL0     C 5286   4.321   9.220   7.061  0.2385 -0.4704 -0.1509
   40MOL0     C 5287   4.425   9.333   7.084  0.2026 -0.9584  0.0826
   40MOL0     C 5288   4.565   9.279   7.116 -0.3565 -0.0160  0.9172
   40MOL0     O 5289   4.665   9.308   7.017 -0.7267  0.3280 -0.3416
   40MOL0     C 5290   4.795   9.269   7.047 -0.5068 -1.1102 -0.2445
   40MOL0     C 5291   4.848   9.147   7.017  0.0873  1.5399  0.4755
   40MOL0     C 5292   4.969   9.107   7.055 -0.5998  0.9917  0.9696
   40MOL0     C 5293   5.014   8.973   6.991 -0.2673 -1.6366 -0.0961
   40MOL0     C 5294   5.054   9.184   7.131  0.3413 -0.2286 -0.1500
   40MOL0     C 5295   5.191   9.141   7.180 -0.1923  0.4688 -0.7214
   40MOL0     O 5296   5.259   9.236   7.253  0.0575  1.2200  0.2249
   40MOL0     C 5297   5.371   9.203   7.325  0.3697  0.3576  1.2301
   40MOL0     C 5298   5.503   9.216   7.291  0.1767 -0.0915  0.5712
   40MOL0     C 5299   5.611   9.199   7.375 -0.2176  0.8085 -0.3512
   40MOL0     C 5300   5.599   9.134   7.497  0.1228 -0.0099  0.4704
   40MOL0     O 5301   5.700   9.130   7.591  0.0050 -0.6530 -0.2024
   40MOL0     C 5302   5.654   9.107   7.727  0.2606  0.1961 -0.4016
   40MOL0     C 5303   5.761   9.155   7.821  0.2582  0.6791  0.1214
   40MOL0     C 5304   5.790   9.308   7.799  0.1128 -0.8901 -0.8552
   40MOL0     C 5305   5.933   9.354   7.836  0.2257  0.1878  0.2020
   40MOL0     C 5306   5.971   9.499   7.798 -0.2858 -0.3196  0.9557
   40MOL0     C 5307   5.926   9.596   7.910  0.2496  0.2450 -0.3354
   40MOL0     C 5308   5.946   9.740   7.855  0.4665  0.2469  0.4077
   40MOL0     C 5309   5.830   9.836   7.879 -0.3896  0.1755  0.3066
   40MOL0    Cl 5310   5.866   9.998   7.824 -0.1496  0.1908 -0.2898
   40MOL0     C 5311   5.461   9.098   7.526 -0.5511 -1.2113  0.2613
   40MOL0     C 5312   5.350   9.138   7.448 -0.9504 -0.1757 -0.3997
   40MOL0     O 5313   5.225   9.027   7.158 -0.0296  0.7344 -1.2897
   40MOL0     C 5314   5.005   9.307   7.174 -0.2776 -0.5722 -0.2255
   40MOL0     C 5315   4.881   9.359   7.128  0.3798  0.2538 -0.4098
   40MOL0     N 5316   4.145   9.123   7.302  0.3590  0.4711 -0.1275
   40MOL0     N 5317   4.052   9.116   7.393  0.8666  0.0067 -0.5737
   40MOL0     C 5318   4.526  10.121   7.759 -0.5795  0.8265 -0.7001
   40MOL0     C 5319   4.621  10.201   7.691  0.0108 -0.7025 -0.2550
   40MOL0     C 5320   4.871  10.382   7.330  1.0839  0.9053  0.3894
   40MOL0     C 5321   4.960  10.290   7.289  0.0945 -0.1339 -0.2399
   40MOL0     C 5322   5.076  10.327   7.222  0.4030  0.7651 -0.4239
   40MOL0     C 5323   5.098  10.459   7.188  0.0825  0.2442 -0.7373
   40MOL0     O 5324   5.209  10.509   7.122  0.0511  0.5616  0.8041
   40MOL0     C 5325   5.297  10.420   7.049  0.0679  0.4370 -0.2822
   40MOL0     C 5326   5.373  10.510   6.962 -0.8621  0.5259  0.2934
   40MOL0     C 5327   5.522  10.460   6.953 -1.0828  0.4039  0.7252
   40MOL0     C 5328   5.534  10.312   6.907  0.8635  0.2300  0.2901
   40MOL0     C 5329   5.666  10.283   6.863 -0.7192  0.7874  0.1437
   40MOL0     C 5330   5.780  10.268   6.817  0.0665 -0.5302 -0.8952
   40MOL0     C 5331   4.996  10.548   7.228  0.0309  0.1024 -0.1787
   40MOL0     C 5332   4.884  10.508   7.292  0.2847 -0.4200  0.0396
   40MOL0     H 5333   4.590  10.048   7.388 -3.5334 -1.6458 -0.1129
   40MOL0     H 5334   4.425   9.907   7.521 -2.8985 -0.6725  3.1683
   40MOL0     H 5335   4.170   9.900   7.804 -0.4759 -1.4215 -0.8252
   40MOL0     H 5336   4.225   9.941   7.630  1.1588 -2.0889 -1.6357
   40MOL0     H 5337   4.406   9.749   7.685 -0.3575 -1.1294 -1.8901
   40MOL0     H 5338   4.292   9.692   7.798 -1.1097 -0.7809  0.0445
   40MOL0     H 5339   4.281   9.651   7.505 -1.2600 -1.5287 -1.0321
   40MOL0     H 5340   4.230   9.542   7.637 -0.1672  0.9685  1.9714
   40MOL0     H 5341   4.042   9.688   7.681  3.9873 -2.5475  1.2270
   40MOL0     H 5342   4.082   9.796   7.546  0.1271  2.8786  3.9713
   40MOL0     H 5343   3.903   9.667   7.479  0.3121  0.5976  0.8512
   40MOL0     H 5344   4.040   9.619   7.376  0.0835 -0.7004  0.9915
   40MOL0     H 5345   4.064   9.415   7.488 -2.0310 -0.0884 -0.4512
   40MOL0     H 5346   3.967   9.463   7.628 -1.8778 -0.2392 -0.0975
   40MOL0     H 5347   3.758   9.445   7.511 -0.4819  2.0631  1.1635
   40MOL0     H 5348   3.841   9.462   7.359  1.8651  1.1452  0.6517
   40MOL0     H 5349   3.752   9.236   7.428  0.2439  0.1675 -1.4027
   40MOL0     H 5350   3.874   9.223   7.556  1.6611 -1.3638 -0.7609
   40MOL0     H 5351   3.932   9.333   7.193  1.3428 -1.5581 -1.1354
   40MOL0     H 5352   4.122   9.256   7.004 -1.7458 -1.0630  1.6411
   40MOL0     H 5353   4.177   9.378   7.103 -2.4226 -0.8202 -0.3874
   40MOL0     H 5354   4.333   9.181   6.959 -0.2646  1.8380 -1.1512
   40MOL0     H 5355   4.340   9.132   7.122 -0.7521  0.6402  1.8466
   40MOL0     H 5356   4.389   9.396   7.166  3.9308 -0.1193  1.2715
   40MOL0     H 5357   4.438   9.400   6.998 -0.2914 -1.0181 -0.0409
   40MOL0     H 5358   4.545   9.174   7.136 -0.1720  0.1029  1.7957
   40MOL0     H 5359   4.605   9.328   7.206  1.4324  0.5792 -0.1425
   40MOL0     H 5360   4.789   9.084   6.952  2.2813 -0.0343 -0.1166
   40MOL0     H 5361   5.119   8.977   6.963 -0.2862  0.0738 -0.0468
   40MOL0     H 5362   4.994   8.890   7.059 -1.2360 -1.2610  0.0938
   40MOL0     H 5363   4.966   8.954   6.895  2.3159 -2.3151 -1.3391
   40MOL0     H 5364   5.531   9.273   7.203  0.2933  0.8024  1.1760
   40MOL0     H 5365   5.704   9.242   7.339 -1.8159  4.5752 -0.4331
   40MOL0     H 5366   5.568   9.170   7.752  2.2945  2.5248  1.2147
   40MOL0     H 5367   5.608   9.008   7.732  0.5367  0.0925  0.2402
   40MOL0     H 5368   5.723   9.142   7.922  1.1173 -0.8288  0.2729
   40MOL0     H 5369   5.848   9.096   7.792 -0.3773  0.0128 -0.4752
   40MOL0     H 5370   5.716   9.362   7.857  0.0399  2.2571 -3.5756
   40MOL0     H 5371   5.770   9.338   7.695  1.7917  2.2010 -0.4113
   40MOL0     H 5372   5.959   9.339   7.941  3.9889  1.0471 -0.4813
   40MOL0     H 5373   6.001   9.293   7.776  0.5522  1.2412 -0.5190
   40MOL0     H 5374   5.925   9.531   7.704  2.2885  2.6257  0.5234
   40MOL0     H 5375   6.080   9.500   7.785 -0.4921 -3.7744 -2.9636
   40MOL0     H 5376   5.827   9.577   7.953  1.6373 -0.7251  2.7457
   40MOL0     H 5377   6.006   9.584   7.984  1.4348 -2.9023 -1.9268
   40MOL0     H 5378   5.965   9.737   7.748 -1.4772 -1.1548  0.0358
   40MOL0     H 5379   6.034   9.785   7.901  0.9284  1.8409 -1.9054
   40MOL0     H 5380   5.816   9.839   7.987 -0.2714 -0.1090  0.3305
   40MOL0     H 5381   5.739   9.798   7.831  0.7054 -1.0545 -0.8733
   40MOL0     H 5382   5.447   9.038   7.615  1.2553 -1.6548  0.2901
   40MOL0     H 5383   5.260   9.088   7.481 -0.1171 -1.1827  0.4265
   40MOL0     H 5384   5.063   9.369   7.242  0.4309 -1.7487  0.2800
   40MOL0     H 5385   4.832   9.449   7.165  2.1346  0.9271  0.4074
   40MOL0     H 5386   4.502  10.141   7.863  1.2504  0.3115 -0.1361
   40MOL0     H 5387   4.680  10.281   7.735 -0.0435 -1.3641  1.0595
   40MOL0     H 5388   4.954  10.181   7.297 -2.3916  0.0204  1.5254
   40MOL0     H 5389   5.151  10.251   7.204  3.0347  2.8909  0.9439
   40MOL0     H 5390   5.366  10.374   7.120 -0.4076  1.5780  0.9618
   40MOL0     H 5391   5.229  10.350   7.001  1.2411 -1.1067  0.2433
   40MOL0     H 5392   5.371  10.616   6.989 -3.6327  0.1870  1.8478
   40MOL0     H 5393   5.324  10.508   6.864 -0.8392 -2.6071  0.2194
   40MOL0     H 5394   5.559  10.468   7.055 -3.4139 -0.8475  1.7415
   40MOL0     H 5395   5.583  10.525   6.889 -0.4226 -0.6641  0.2530
   40MOL0     H 5396   5.474  10.301   6.817 -3.0376  1.1847  2.5131
   40MOL0     H 5397   5.481  10.251   6.981 -2.1095  2.5477  0.2921
   40MOL0     H 5398   5.882  10.259   6.785 -0.9029 -0.9464 -4.2988
   40MOL0     H 5399   5.012  10.654   7.215 -1.8544  0.8611  2.6848
   40MOL0     H 5400   4.810  10.581   7.324 -1.4598 -2.2176  0.2865
   41MOL0     O 5401   0.216  10.105   0.610  0.2270  0.9907 -0.2315
   41MOL0     C 5402   0.222   9.985   0.628 -0.3339 -0.1411 -0.4999
   41MOL0     O 5403   0.330   9.909   0.663 -0.4678  0.2095  0.3365
   41MOL0     C 5404   0.455   9.959   0.660  0.1966  0.3342 -0.4129
   41MOL0     C 5405   0.495  10.076   0.584 -0.2345 -0.7840  0.2440
   41MOL0     C 5406   0.626  10.122   0.559 -0.4543  0.3044  0.2347
   41MOL0     C 5407   0.724  10.049   0.638  0.2824 -0.6249  0.0940
   41MOL0     O 5408   0.850  10.102   0.629 -0.2009  0.8781 -0.1256
   41MOL0     C 5409   0.944  10.013   0.568  0.3583 -0.4838 -0.2990
   41MOL0     C 5410   1.081  10.090   0.562 -0.1826 -0.0366  0.4789
   41MOL0     C 5411   1.196   9.989   0.539  1.0277 -0.4377 -0.4441
   41MOL0     C 5412   1.328  10.061   0.503 -0.8840  0.7467 -0.4716
   41MOL0     C 5413   1.441   9.975   0.430  0.8962 -0.2484 -0.3208
   41MOL0     C 5414   1.410   9.924   0.283 -0.7029 -0.1676 -0.5256
   41MOL0     C 5415   1.520   9.841   0.219 -0.3129  0.1225  0.3307
   41MOL0     C 5416   1.658   9.905   0.209  0.8407  0.6242 -0.2033
   41MOL0     N 5417   1.748   9.828   0.123 -0.0022 -0.9751  0.3525
   41MOL0     C 5418   1.878   9.870   0.074  0.1168 -0.4095 -0.9326
   41MOL0     C 5419   1.944   9.757   0.055 -0.6012 -0.2513  1.4478
   41MOL0     C 5420   2.084   9.734  -0.008 -0.1780 -0.6259  0.4787
   41MOL0     C 5421   2.107   9.794  -0.144 -0.1351 -0.8950 -0.3808
   41MOL0     C 5422   2.033   9.719  -0.257  0.6196 -0.6267  0.1314
   41MOL0     C 5423   1.871   9.720  -0.266 -0.2513 -0.6976 -0.1658
   41MOL0     O 5424   1.820   9.852  -0.239 -0.2867  0.2514 -0.8601
   41MOL0     C 5425   1.688   9.865  -0.217 -0.0336  0.3854 -0.0562
   41MOL0     C 5426   1.647   9.989  -0.162 -0.4698  1.4317 -0.3259
   41MOL0     C 5427   1.514  10.010  -0.124  0.1987 -0.1759 -0.9472
   41MOL0     C 5428   1.492  10.157  -0.072  0.5998  0.3130 -0.3556
   41MOL0     C 5429   1.421   9.913  -0.142  0.8966 -0.2422  0.4660
   41MOL0     C 5430   1.277   9.919  -0.106  0.2234  0.2222  0.0840
   41MOL0     O 5431   1.237  10.022  -0.024  0.1421 -0.3988  0.6230
   41MOL0     C 5432   1.107  10.039   0.025 -0.0296  0.6971  0.1789
   41MOL0     C 5433   1.093  10.106   0.138  0.0158 -0.1023 -0.9949
   41MOL0     C 5434   0.965  10.134   0.195  0.3597 -0.0235  0.1195
   41MOL0     C 5435   0.844  10.082   0.121  0.0744  0.4437 -0.1564
   41MOL0     O 5436   0.721  10.115   0.168 -0.6704  0.2225 -0.5026
   41MOL0     C 5437   0.634  10.166   0.068 -0.2266 -0.0846 -0.9395
   41MOL0     C 5438   0.504  10.195   0.139 -0.3440 -0.6196  0.4273
   41MOL0     C 5439   0.428  10.072   0.197 -1.2790 -0.7943  0.3859
   41MOL0     C 5440   0.291  10.107   0.247 -0.3991  0.0299  1.1245
   41MOL0     C 5441   0.210   9.980   0.282 -0.4642 -0.0168 -0.0527
   41MOL0     C 5442   0.097   9.949   0.168  0.1738  1.0572 -0.3767
   41MOL0     C 5443  -0.023  10.049   0.175 -0.0765  0.4379  0.0800
   41MOL0     C 5444  -0.160   9.977   0.136 -1.2350  0.5478  0.9729
   41MOL0    Cl 5445  -0.134   9.866  -0.011  0.1059  0.1087  0.4410
   41MOL0     C 5446   0.860  10.002   0.005  0.1509 -0.4731 -0.0609
   41MOL0     C 5447   0.988   9.978  -0.032 -0.4261  0.2032 -0.3327
   41MOL0     O 5448   1.207   9.831  -0.151  0.7657 -0.1931  0.1502
   41MOL0     C 5449   1.460   9.794  -0.204  0.6214  0.6820 -0.5952
   41MOL0     C 5450   1.591   9.770  -0.241 -0.3018 -0.3631 -0.0292
   41MOL0     N 5451   1.863   9.658   0.085 -0.0194 -0.0117  0.6957
   41MOL0     N 5452   1.747   9.694   0.131  0.0725 -0.7192  0.4215
   41MOL0     C 5453   0.689   9.944   0.719 -0.6611 -0.8826 -0.3029
   41MOL0     C 5454   0.560   9.897   0.739  0.5766 -0.6738 -0.1944
   41MOL0     C 5455   0.097   9.909   0.614  0.5170 -0.0052 -0.4880
   41MOL0     C 5456  -0.035   9.966   0.605 -0.4098  1.3551  0.4986
   41MOL0     C 5457  -0.145   9.883   0.592 -0.1651  0.5242  0.2260
   41MOL0     C 5458  -0.145   9.749   0.591 -0.5019 -0.2031 -0.7622
   41MOL0     O 5459  -0.257   9.670   0.586  0.1986 -0.4003  0.6655
   41MOL0     C 5460  -0.320   9.653   0.717 -0.6208  0.0826  0.5539
   41MOL0     C 5461  -0.438   9.557   0.712 -1.1397  0.4155  0.0682
   41MOL0     C 5462  -0.486   9.495   0.842 -0.1358 -0.0381  0.1074
   41MOL0     C 5463  -0.601   9.407   0.829  0.3450  0.2199 -0.3271
   41MOL0     C 5464  -0.626   9.332   0.960  0.3691 -0.3568  1.2330
   41MOL0     C 5465  -0.665   9.257   1.049  0.4861  0.9483  0.0459
   41MOL0     C 5466  -0.015   9.692   0.602  1.2305  0.3517  0.4342
   41MOL0     C 5467   0.102   9.766   0.611  0.0621  0.4682  0.3167
   41MOL0     H 5468   0.425  10.122   0.516  1.7069 -1.5099 -2.4345
   41MOL0     H 5469   0.654  10.191   0.480  1.5906  1.7907  2.1502
   41MOL0     H 5470   0.964   9.927   0.632  2.1735  0.0702 -0.0594
   41MOL0     H 5471   0.908   9.979   0.471 -0.4610  1.3222 -0.6687
   41MOL0     H 5472   1.066  10.159   0.479 -0.3181 -0.6197  0.0123
   41MOL0     H 5473   1.100  10.143   0.656  1.7077  1.3770 -0.6232
   41MOL0     H 5474   1.200   9.929   0.630 -3.7464  1.1967  1.1691
   41MOL0     H 5475   1.173   9.932   0.449 -1.0197  0.1809 -0.3783
   41MOL0     H 5476   1.309  10.153   0.448  2.8514  2.9501  1.5149
   41MOL0     H 5477   1.371  10.093   0.598  0.3206 -1.8472 -0.0618
   41MOL0     H 5478   1.535  10.030   0.420  0.7372  0.0253 -0.3249
   41MOL0     H 5479   1.460   9.892   0.498  2.3434  1.7720  1.8823
   41MOL0     H 5480   1.313   9.872   0.287 -1.0890  0.5592 -0.2441
   41MOL0     H 5481   1.388  10.015   0.227 -1.1432 -0.1840 -0.3900
   41MOL0     H 5482   1.521   9.754   0.286 -3.1245 -1.7399 -1.8150
   41MOL0     H 5483   1.484   9.816   0.119 -1.8641  1.6206  0.4754
   41MOL0     H 5484   1.703   9.906   0.309  0.1050  2.4677  0.1624
   41MOL0     H 5485   1.657  10.006   0.167  1.9883  0.3715 -0.8546
   41MOL0     H 5486   1.912   9.973   0.068 -1.6579  0.7776  4.2031
   41MOL0     H 5487   2.153   9.779   0.065  1.4657  0.1820 -1.4863
   41MOL0     H 5488   2.093   9.626  -0.017  0.6594 -0.3809 -3.0158
   41MOL0     H 5489   2.212   9.797  -0.172  0.4063 -2.4197  1.3341
   41MOL0     H 5490   2.064   9.895  -0.146  2.0852  0.1272 -3.0310
   41MOL0     H 5491   2.062   9.616  -0.233  0.4118 -0.3090  1.9233
   41MOL0     H 5492   2.075   9.745  -0.354 -0.9860 -1.4682 -0.8212
   41MOL0     H 5493   1.824   9.659  -0.188 -4.3531  3.8961  1.4976
   41MOL0     H 5494   1.856   9.687  -0.369  0.0892  1.9354 -1.1339
   41MOL0     H 5495   1.722  10.063  -0.136 -3.0400  4.9444 -2.0668
   41MOL0     H 5496   1.561  10.230  -0.115  1.0910 -1.0361 -1.9528
   41MOL0     H 5497   1.392  10.193  -0.095  0.0842 -1.7214 -1.5774
   41MOL0     H 5498   1.499  10.139   0.036  0.8694 -2.7807 -0.7909
   41MOL0     H 5499   1.172  10.135   0.206  0.0059 -1.7836 -0.1990
   41MOL0     H 5500   0.956  10.182   0.292  0.3138 -0.3700  0.2872
   41MOL0     H 5501   0.670  10.257   0.020 -1.0692  0.3438 -0.7766
   41MOL0     H 5502   0.615  10.084  -0.002 -0.8812 -0.8022  0.0491
   41MOL0     H 5503   0.505  10.266   0.222 -1.1626 -0.9919  0.7638
   41MOL0     H 5504   0.445  10.226   0.052  3.2758 -2.8961 -3.2026
   41MOL0     H 5505   0.492  10.032   0.275 -0.0621 -0.0454 -0.1982
   41MOL0     H 5506   0.415   9.998   0.117  1.5465 -0.5186 -0.4305
   41MOL0     H 5507   0.300  10.168   0.337 -0.2584 -0.7219  1.6286
   41MOL0     H 5508   0.250  10.164   0.164 -0.8739  0.2356  1.4958
   41MOL0     H 5509   0.156   9.993   0.376  0.2726 -0.3470  0.4283
   41MOL0     H 5510   0.286   9.902   0.291 -1.2422 -0.7149  0.6535
   41MOL0     H 5511   0.151   9.947   0.073  4.0195 -0.2422  1.5866
   41MOL0     H 5512   0.062   9.846   0.175  2.1555  0.3123 -0.6068
   41MOL0     H 5513  -0.009  10.128   0.101 -5.9629  2.4839  0.5886
   41MOL0     H 5514  -0.037  10.093   0.274 -0.6207  1.6667 -0.5244
   41MOL0     H 5515  -0.245  10.044   0.116 -2.2497 -0.9560 -0.0051
   41MOL0     H 5516  -0.188   9.928   0.230  0.2955  0.7002  1.5286
   41MOL0     H 5517   0.780   9.960  -0.055  1.2129 -0.8459 -1.2637
   41MOL0     H 5518   0.998   9.900  -0.106 -0.1217  1.1383 -1.3064
   41MOL0     H 5519   1.393   9.712  -0.225 -0.1004  1.4783 -1.5240
   41MOL0     H 5520   1.614   9.681  -0.299  1.0888  1.1033 -1.8584
   41MOL0     H 5521   0.760   9.891   0.782 -0.3760 -0.2147 -0.0551
   41MOL0     H 5522   0.538   9.806   0.795 -3.9796 -2.6880 -4.4713
   41MOL0     H 5523  -0.048  10.073   0.592  1.2095  1.2023 -4.6705
   41MOL0     H 5524  -0.247   9.920   0.594 -0.7582 -0.9284 -0.9046
   41MOL0     H 5525  -0.246   9.609   0.785 -1.4750 -0.9313  0.8543
   41MOL0     H 5526  -0.355   9.747   0.761 -1.3805  1.4055 -2.5725
   41MOL0     H 5527  -0.393   9.484   0.645  2.7196  0.6178  2.1187
   41MOL0     H 5528  -0.518   9.615   0.664 -1.5027  0.9629  1.2845
   41MOL0     H 5529  -0.517   9.577   0.907 -1.9214 -1.1982  0.7826
   41MOL0     H 5530  -0.400   9.437   0.877  1.5409 -0.7766 -4.5316
   41MOL0     H 5531  -0.584   9.328   0.756  1.2059 -0.4734  0.5943
   41MOL0     H 5532  -0.690   9.456   0.788 -0.0091 -0.4310 -0.3529
   41MOL0     H 5533  -0.692   9.186   1.125 -0.2291 -0.2081 -1.2414
   41MOL0     H 5534  -0.021   9.585   0.590  0.0844  0.3989  0.4566
   41MOL0     H 5535   0.202   9.726   0.604  0.1076  0.0377  2.6680
   42MOL0     O 5536   5.227   2.215   5.185 -0.1902 -0.1497 -0.1550
   42MOL0     C 5537   5.178   2.114   5.231  0.5563  0.3154  0.9756
   42MOL0     O 5538   5.084   2.111   5.334 -0.0737 -0.0993 -0.1011
   42MOL0     C 5539   5.006   2.220   5.355 -0.7506  0.3464 -1.0964
   42MOL0     C 5540   5.041   2.316   5.453  0.5132  0.8773  0.2297
   42MOL0     C 5541   4.947   2.418   5.473 -0.1008 -0.1244  0.2032
   42MOL0     C 5542   4.823   2.423   5.420 -0.6488 -0.0831 -0.0433
   42MOL0     O 5543   4.729   2.511   5.473 -0.2825  0.7997  0.4282
   42MOL0     C 5544   4.711   2.499   5.616  0.4306 -0.2134 -0.0195
   42MOL0     C 5545   4.561   2.514   5.656  0.0922 -0.4494 -0.3268
   42MOL0     C 5546   4.470   2.605   5.576  0.2556 -0.1174 -0.3664
   42MOL0     C 5547   4.500   2.751   5.582 -0.0958  0.4904 -0.1316
   42MOL0     C 5548   4.404   2.821   5.500 -0.7918  0.5164  0.4670
   42MOL0     C 5549   4.419   2.827   5.345 -0.0355  0.1661  0.3236
   42MOL0     C 5550   4.301   2.897   5.273 -0.4779 -0.2810  1.7658
   42MOL0     C 5551   4.301   3.043   5.303 -0.7784 -0.2539  0.2787
   42MOL0     N 5552   4.217   3.132   5.213 -0.4127  0.1066  0.3867
   42MOL0     C 5553   4.091   3.105   5.162 -0.2278 -0.0203 -0.8499
   42MOL0     C 5554   4.062   3.211   5.083  0.7052 -0.3344  0.1478
   42MOL0     C 5555   3.940   3.243   4.989 -1.0016 -0.1068  0.0747
   42MOL0     C 5556   3.932   3.126   4.900 -0.3987 -0.3556  0.3709
   42MOL0     C 5557   3.821   3.134   4.791 -0.0205 -0.1087 -0.4902
   42MOL0     C 5558   3.674   3.138   4.830  0.3261  0.2272  0.8408
   42MOL0     O 5559   3.633   3.028   4.904 -0.1930 -0.1796  0.3172
   42MOL0     C 5560   3.509   3.032   4.952  0.4544 -0.1326  0.7604
   42MOL0     C 5561   3.455   2.918   4.983  0.6055 -0.3862 -0.4388
   42MOL0     C 5562   3.335   2.900   5.043  0.7174  1.0023 -0.3032
   42MOL0     C 5563   3.302   2.755   5.080  0.0708 -0.0369  0.9322
   42MOL0     C 5564   3.243   3.011   5.057  0.8527  0.1644 -0.2591
   42MOL0     C 5565   3.099   3.000   5.093 -0.2978 -0.0785 -0.6305
   42MOL0     O 5566   3.002   3.095   5.042  0.6078 -0.1181 -0.7973
   42MOL0     C 5567   2.867   3.062   5.047 -0.1064  0.9282 -0.1231
   42MOL0     C 5568   2.816   2.940   5.000  0.1084 -0.2089 -0.5684
   42MOL0     C 5569   2.675   2.927   5.007  0.5980  0.3037 -0.1144
   42MOL0     C 5570   2.591   3.025   5.059  0.2615 -0.6669 -0.0429
   42MOL0     O 5571   2.454   3.005   5.074 -0.3328 -0.0654 -1.2161
   42MOL0     C 5572   2.386   2.885   5.029  0.0557  0.0744 -1.2774
   42MOL0     C 5573   2.236   2.883   5.052 -0.1434  0.4686  1.0097
   42MOL0     C 5574   2.195   2.920   5.188  0.2669  0.0154 -0.1539
   42MOL0     C 5575   2.046   2.945   5.200  0.3008  0.5278 -0.1780
   42MOL0     C 5576   2.019   2.948   5.350  0.6267  0.1233 -0.1973
   42MOL0     C 5577   1.874   2.989   5.375  0.0344  0.1255  0.9551
   42MOL0     C 5578   1.845   3.009   5.523 -0.6347  0.0119  0.9097
   42MOL0     C 5579   1.711   3.091   5.543  0.3071  0.3907 -0.2162
   42MOL0    Cl 5580   1.737   3.200   5.677  0.1921  0.6659 -0.1180
   42MOL0     C 5581   2.643   3.146   5.095 -0.0210 -0.1566  0.5356
   42MOL0     C 5582   2.785   3.164   5.089 -0.3603  0.1471 -0.1745
   42MOL0     O 5583   3.071   2.897   5.155 -0.4112  0.2363 -0.2626
   42MOL0     C 5584   3.293   3.132   5.015  0.2600  1.0398  0.0151
   42MOL0     C 5585   3.426   3.145   4.978 -0.1106  0.0081 -0.4907
   42MOL0     N 5586   4.163   3.306   5.094 -0.7322  0.3326  0.0694
   42MOL0     N 5587   4.255   3.253   5.166  0.1273  0.2409 -0.0508
   42MOL0     C 5588   4.801   2.340   5.311 -0.0675  0.3375 -0.3300
   42MOL0     C 5589   4.887   2.229   5.281 -0.4184  0.1925  0.5191
   42MOL0     C 5590   5.205   1.979   5.164 -0.5811  0.1860 -0.3737
   42MOL0     C 5591   5.167   1.855   5.232 -0.8912  0.6764  0.0540
   42MOL0     C 5592   5.194   1.728   5.172  0.0045 -0.4632  0.1551
   42MOL0     C 5593   5.266   1.719   5.054 -0.8490  1.1757  0.5251
   42MOL0     O 5594   5.271   1.593   4.988 -0.0210 -0.6748 -0.3953
   42MOL0     C 5595   5.359   1.569   4.869  0.4254 -0.1761 -0.4261
   42MOL0     C 5596   5.331   1.439   4.812 -0.1864 -0.1843 -0.4472
   42MOL0     C 5597   5.381   1.327   4.903  1.0116 -0.0344 -0.1525
   42MOL0     C 5598   5.334   1.184   4.861 -0.7706 -0.2215  0.9161
   42MOL0     C 5599   5.194   1.167   4.818  0.5897  0.1965  0.2960
   42MOL0     C 5600   5.076   1.161   4.780 -0.5682 -0.6469 -0.6066
   42MOL0     C 5601   5.302   1.841   4.987 -0.2295 -0.2955  0.2047
   42MOL0     C 5602   5.276   1.967   5.041  0.4809 -0.4522 -0.6604
   42MOL0     H 5603   5.138   2.311   5.501  0.8855 -2.3248 -0.6372
   42MOL0     H 5604   4.979   2.502   5.534  1.0264 -0.5187  0.1676
   42MOL0     H 5605   4.738   2.401   5.656  0.4181 -0.6127 -0.9714
   42MOL0     H 5606   4.755   2.583   5.670 -1.8500  0.1679  1.3898
   42MOL0     H 5607   4.518   2.413   5.653 -0.1663 -0.3196 -1.5031
   42MOL0     H 5608   4.566   2.548   5.760 -0.7575  1.9103 -0.9917
   42MOL0     H 5609   4.467   2.582   5.469  0.9391  0.8680 -0.6135
   42MOL0     H 5610   4.367   2.592   5.611  0.5721 -0.0046  0.6367
   42MOL0     H 5611   4.482   2.776   5.687 -1.2620 -4.4123  1.0692
   42MOL0     H 5612   4.595   2.781   5.537  1.6982 -2.1532  1.6450
   42MOL0     H 5613   4.312   2.763   5.510  0.8374 -2.4834 -0.4075
   42MOL0     H 5614   4.403   2.919   5.548  2.4611  0.6660  0.4485
   42MOL0     H 5615   4.511   2.882   5.325  1.4900 -2.3945 -0.1340
   42MOL0     H 5616   4.441   2.728   5.304 -3.0207  0.2883 -1.9052
   42MOL0     H 5617   4.319   2.900   5.165  0.2275  2.7568  1.8873
   42MOL0     H 5618   4.206   2.845   5.287  0.0762 -1.5290  1.1061
   42MOL0     H 5619   4.407   3.070   5.304  0.2009 -3.4645 -1.5693
   42MOL0     H 5620   4.260   3.052   5.404 -3.3870  1.3932 -0.7979
   42MOL0     H 5621   4.034   3.012   5.166 -0.4757  0.0913 -1.5838
   42MOL0     H 5622   3.852   3.263   5.051 -1.3955 -1.4991 -0.0081
   42MOL0     H 5623   3.961   3.322   4.916  2.5715 -1.9536 -1.1184
   42MOL0     H 5624   3.905   3.040   4.961  3.4878 -2.3077 -0.3492
   42MOL0     H 5625   4.029   3.097   4.858 -1.3540 -2.9381 -0.2210
   42MOL0     H 5626   3.828   3.034   4.748 -2.5792 -0.4758 -0.1703
   42MOL0     H 5627   3.843   3.213   4.719  1.3840 -0.2716 -0.2780
   42MOL0     H 5628   3.616   3.139   4.737  2.3984  2.8788 -0.5560
   42MOL0     H 5629   3.656   3.233   4.883  3.9866  0.8398  1.2161
   42MOL0     H 5630   3.511   2.826   4.965  3.5338  0.1405  4.2888
   42MOL0     H 5631   3.256   2.744   5.178 -1.0390  0.2007  0.4502
   42MOL0     H 5632   3.229   2.706   5.014  1.7305 -0.9584 -0.3123
   42MOL0     H 5633   3.383   2.687   5.051  2.0573  2.7523 -0.4684
   42MOL0     H 5634   2.881   2.857   4.975 -0.5351 -0.8776 -0.0603
   42MOL0     H 5635   2.635   2.828   4.987 -0.7336 -0.4459  4.8111
   42MOL0     H 5636   2.412   2.872   4.924  0.7723 -3.2677 -0.8005
   42MOL0     H 5637   2.420   2.803   5.093 -1.1032 -0.6370 -1.5404
   42MOL0     H 5638   2.191   2.964   4.994  1.2626 -0.7427 -1.9848
   42MOL0     H 5639   2.195   2.786   5.022  2.4052 -0.4609  0.2430
   42MOL0     H 5640   2.245   3.010   5.225  0.5900 -0.5242  0.7468
   42MOL0     H 5641   2.230   2.835   5.246  1.4413  0.1400 -0.6512
   42MOL0     H 5642   2.029   3.044   5.158  1.6554  0.5792 -0.6461
   42MOL0     H 5643   1.998   2.863   5.145  4.8845 -3.0255  0.5453
   42MOL0     H 5644   2.092   3.012   5.399  0.9611  0.4891 -1.1606
   42MOL0     H 5645   2.024   2.846   5.391 -1.9126 -0.2255 -0.5862
   42MOL0     H 5646   1.847   3.084   5.328  0.2433 -1.4645 -2.7326
   42MOL0     H 5647   1.799   2.915   5.345 -0.9292  1.4975 -0.1609
   42MOL0     H 5648   1.929   3.063   5.567  0.0447 -0.3391  0.0835
   42MOL0     H 5649   1.832   2.913   5.574  0.8042  0.8049  2.8723
   42MOL0     H 5650   1.628   3.020   5.552  1.5649 -1.1469 -0.5356
   42MOL0     H 5651   1.681   3.156   5.460  0.1371  0.7907  0.1499
   42MOL0     H 5652   2.580   3.229   5.125  0.5161  0.0971  0.9903
   42MOL0     H 5653   2.832   3.256   5.120 -2.2090  1.3725 -0.8521
   42MOL0     H 5654   3.223   3.214   5.006 -0.2368  0.5104 -1.0406
   42MOL0     H 5655   3.466   3.244   4.960 -0.7791 -0.0815 -2.9407
   42MOL0     H 5656   4.715   2.375   5.254 -0.4232  2.2125  1.2358
   42MOL0     H 5657   4.861   2.165   5.198 -3.5841  0.9305  0.8095
   42MOL0     H 5658   5.109   1.845   5.323  2.1541 -4.0273  1.8620
   42MOL0     H 5659   5.161   1.635   5.217  0.8774  0.2531  2.4568
   42MOL0     H 5660   5.341   1.646   4.793  4.1135 -0.7703 -2.1417
   42MOL0     H 5661   5.463   1.577   4.903  0.5700  1.6252 -1.1938
   42MOL0     H 5662   5.387   1.450   4.719 -1.5277 -0.4662 -1.3295
   42MOL0     H 5663   5.224   1.450   4.791 -0.0922  1.1357 -0.2957
   42MOL0     H 5664   5.339   1.352   5.001 -1.6705  0.9573 -1.4702
   42MOL0     H 5665   5.490   1.330   4.913  1.1854  4.9976 -1.0151
   42MOL0     H 5666   5.360   1.110   4.937 -2.2607 -1.9863 -0.2034
   42MOL0     H 5667   5.397   1.162   4.775  0.1270 -0.2518  1.5645
   42MOL0     H 5668   4.982   1.166   4.730 -0.1404  3.0097 -1.3347
   42MOL0     H 5669   5.355   1.839   4.892 -0.4015 -0.7421  0.1183
   42MOL0     H 5670   5.313   2.050   4.982  0.1014 -0.2596 -0.6300
   43MOL0     O 5671   0.994   2.154   1.850  0.0547 -0.5467  0.8884
   43MOL0     C 5672   1.010   2.050   1.915  0.9768 -0.6947 -0.8870
   43MOL0     O 5673   0.918   1.987   1.987 -0.3420 -0.8153 -0.4660
   43MOL0     C 5674   0.796   2.042   2.022 -0.2769 -0.6309 -0.0919
   43MOL0     C 5675   0.775   2.181   2.047 -1.5332  0.5125 -0.6102
   43MOL0     C 5676   0.641   2.234   2.069  0.0809  0.3201  0.6388
   43MOL0     C 5677   0.526   2.153   2.087 -0.4685 -0.2306 -1.0614
   43MOL0     O 5678   0.407   2.213   2.139  0.3510  0.2088  0.0498
   43MOL0     C 5679   0.407   2.318   2.231 -0.6049 -1.0388  0.5553
   43MOL0     C 5680   0.269   2.376   2.243  0.4292 -0.7670  0.2484
   43MOL0     C 5681   0.156   2.274   2.278  0.1761 -0.9211 -0.1337
   43MOL0     C 5682   0.025   2.340   2.315 -0.6918  0.2009  0.4099
   43MOL0     C 5683  -0.066   2.233   2.384  0.2113  0.0574  0.6450
   43MOL0     C 5684  -0.123   2.144   2.274 -0.2881 -0.0082 -0.3827
   43MOL0     C 5685  -0.223   2.043   2.346  0.5002  0.0719 -0.3102
   43MOL0     C 5686  -0.288   1.929   2.257 -0.0485 -0.2377 -0.4363
   43MOL0     N 5687  -0.413   1.984   2.193 -0.0894  0.6879  0.1100
   43MOL0     C 5688  -0.433   2.068   2.085  0.2715 -0.2391  0.8225
   43MOL0     C 5689  -0.562   2.079   2.059 -0.2321 -0.1932  0.4969
   43MOL0     C 5690  -0.600   2.177   1.949 -0.3069 -0.6607  0.1551
   43MOL0     C 5691  -0.759   2.156   1.931 -0.2397 -0.3396  0.1835
   43MOL0     C 5692  -0.833   2.251   1.841 -0.3070 -0.2779  0.2080
   43MOL0     C 5693  -0.990   2.229   1.831 -0.4084  0.8498  0.3143
   43MOL0     O 5694  -1.063   2.347   1.784  0.0221 -0.0391 -0.0639
   43MOL0     C 5695  -1.181   2.376   1.842 -0.4019  0.2873  0.1573
   43MOL0     C 5696  -1.261   2.282   1.912 -0.8482 -0.5479 -0.0687
   43MOL0     C 5697  -1.375   2.325   1.976 -0.7710 -1.0950  0.5318
   43MOL0     C 5698  -1.466   2.225   2.031  0.2349  0.0218  0.8487
   43MOL0     C 5699  -1.419   2.463   1.969 -0.2470  0.6148  0.6899
   43MOL0     C 5700  -1.545   2.518   2.014  0.6998 -0.1109 -0.8995
   43MOL0     O 5701  -1.660   2.443   1.996 -0.9672  0.1869 -0.1168
   43MOL0     C 5702  -1.767   2.468   2.075 -0.4144  0.0554  0.4191
   43MOL0     C 5703  -1.796   2.378   2.177  0.6610 -0.0026 -0.1364
   43MOL0     C 5704  -1.918   2.397   2.248  0.2775 -0.0917  0.4581
   43MOL0     C 5705  -1.991   2.509   2.231 -0.1671 -0.0369  0.5875
   43MOL0     O 5706  -2.100   2.528   2.303  0.1165 -0.6204  0.2500
   43MOL0     C 5707  -2.176   2.424   2.366  0.1540  0.0982  0.9676
   43MOL0     C 5708  -2.305   2.491   2.410  0.2472  0.5227  0.1139
   43MOL0     C 5709  -2.379   2.579   2.312 -0.1259  0.0961  0.4608
   43MOL0     C 5710  -2.462   2.703   2.363 -0.3979  0.2602 -0.3103
   43MOL0     C 5711  -2.469   2.814   2.258 -0.0630  0.0990 -0.8429
   43MOL0     C 5712  -2.535   2.936   2.313  0.1278  0.6123 -0.6957
   43MOL0     C 5713  -2.685   2.924   2.290  0.6147  0.0300 -0.1011
   43MOL0     C 5714  -2.776   3.000   2.383 -0.7912  0.2853  0.1060
   43MOL0    Cl 5715  -2.779   3.164   2.319  0.1244 -0.2904 -0.2123
   43MOL0     C 5716  -1.956   2.601   2.137  0.0875  0.0968 -0.1010
   43MOL0     C 5717  -1.848   2.576   2.046 -0.9155  0.1733 -0.2150
   43MOL0     O 5718  -1.538   2.621   2.080 -0.5601 -0.2653  0.2103
   43MOL0     C 5719  -1.339   2.549   1.891  0.7321  0.3031  0.2888
   43MOL0     C 5720  -1.225   2.505   1.831  0.2501  0.0216  0.8609
   43MOL0     N 5721  -0.623   1.978   2.131  0.3748 -0.7661  0.0566
   43MOL0     N 5722  -0.539   1.928   2.212 -0.4026 -0.8834  0.7948
   43MOL0     C 5723   0.551   2.018   2.085 -0.7896 -0.0096 -0.6119
   43MOL0     C 5724   0.674   1.965   2.047  0.7477  0.2284  0.5074
   43MOL0     C 5725   1.138   1.978   1.903  0.0395  0.0158  0.0114
   43MOL0     C 5726   1.169   1.863   1.987 -0.7583  0.0176 -0.4728
   43MOL0     C 5727   1.297   1.795   1.976  0.4402 -0.4389  0.3365
   43MOL0     C 5728   1.385   1.836   1.869 -0.0631  1.5765 -0.7020
   43MOL0     O 5729   1.506   1.770   1.869  0.0559 -0.8488 -0.2949
   43MOL0     C 5730   1.598   1.798   1.759 -0.3673  0.5612 -0.4016
   43MOL0     C 5731   1.733   1.737   1.785 -1.2224 -0.1126 -0.3989
   43MOL0     C 5732   1.804   1.680   1.651  0.7745 -0.1426 -0.0282
   43MOL0     C 5733   1.930   1.606   1.686  0.6267 -0.1754 -0.2650
   43MOL0     C 5734   1.990   1.520   1.579  0.3847 -0.8188  0.2542
   43MOL0     C 5735   2.041   1.471   1.478  0.4381  0.6935  0.8135
   43MOL0     C 5736   1.356   1.941   1.792  0.4537 -0.2842 -0.3066
   43MOL0     C 5737   1.229   2.014   1.801  0.2972  0.1844  0.3231
   43MOL0     H 5738   0.852   2.256   2.031 -2.7335  1.3210 -2.9852
   43MOL0     H 5739   0.628   2.342   2.073 -0.0358  0.3486 -0.2880
   43MOL0     H 5740   0.424   2.276   2.331 -1.4821 -2.0336  0.3024
   43MOL0     H 5741   0.475   2.403   2.216 -2.3782 -0.0256 -2.5678
   43MOL0     H 5742   0.273   2.457   2.316  1.5007  0.7225 -1.3614
   43MOL0     H 5743   0.253   2.427   2.147  2.4402 -0.3265  0.1174
   43MOL0     H 5744   0.149   2.198   2.199 -0.6097  1.3374 -2.4118
   43MOL0     H 5745   0.194   2.225   2.368 -2.3203  1.2587  2.2862
   43MOL0     H 5746   0.036   2.416   2.393 -0.0685  0.1394  0.3914
   43MOL0     H 5747  -0.021   2.391   2.230 -1.2121  1.3989  1.3758
   43MOL0     H 5748  -0.003   2.175   2.452  2.3372  1.5575  0.0375
   43MOL0     H 5749  -0.151   2.289   2.426 -1.2917 -0.8848 -1.0138
   43MOL0     H 5750  -0.174   2.204   2.199  0.0180 -0.5888 -1.0718
   43MOL0     H 5751  -0.049   2.072   2.237 -0.0864 -1.2568  2.2684
   43MOL0     H 5752  -0.184   1.992   2.435 -0.1315  1.6787  0.9302
   43MOL0     H 5753  -0.311   2.097   2.384 -1.0969 -0.4460 -2.9682
   43MOL0     H 5754  -0.307   1.840   2.317  0.2221  1.6479  2.7085
   43MOL0     H 5755  -0.209   1.894   2.189  1.0464  1.0248  0.1365
   43MOL0     H 5756  -0.351   2.116   2.033 -0.9272  1.6976  0.6123
   43MOL0     H 5757  -0.594   2.282   1.979 -1.3430 -0.2849 -0.8587
   43MOL0     H 5758  -0.545   2.159   1.856 -1.6770  1.9456 -1.2975
   43MOL0     H 5759  -0.811   2.171   2.025 -3.9855  1.8364 -1.9854
   43MOL0     H 5760  -0.785   2.055   1.899 -4.9024  1.4135 -2.6769
   43MOL0     H 5761  -0.792   2.251   1.739  1.4689 -0.3256  0.8888
   43MOL0     H 5762  -0.825   2.355   1.874 -1.2337 -0.2281  0.3210
   43MOL0     H 5763  -1.010   2.217   1.937  1.5162  0.6229  0.6781
   43MOL0     H 5764  -0.999   2.142   1.765  2.5508 -0.0576  0.9706
   43MOL0     H 5765  -1.247   2.175   1.924 -1.5129 -0.8078 -1.4370
   43MOL0     H 5766  -1.553   2.210   1.967  0.5850  2.6717 -0.3502
   43MOL0     H 5767  -1.414   2.128   2.030  2.0341  0.7912 -3.5652
   43MOL0     H 5768  -1.504   2.257   2.129  0.2874 -0.4092  1.0134
   43MOL0     H 5769  -1.745   2.288   2.209  0.5355 -0.1739 -0.4085
   43MOL0     H 5770  -1.946   2.324   2.323  2.3062  1.6558  3.1417
   43MOL0     H 5771  -2.182   2.341   2.295 -2.5468 -0.6092  1.8839
   43MOL0     H 5772  -2.130   2.378   2.454  0.4493  2.3261  2.0426
   43MOL0     H 5773  -2.372   2.416   2.454 -0.5420  0.0204 -1.8078
   43MOL0     H 5774  -2.277   2.557   2.492 -3.4979  1.4675  0.8545
   43MOL0     H 5775  -2.438   2.501   2.262  0.6186  0.9515 -1.8713
   43MOL0     H 5776  -2.307   2.608   2.236 -2.6719  0.3535 -2.0242
   43MOL0     H 5777  -2.561   2.675   2.399  0.1060 -1.9057 -0.4457
   43MOL0     H 5778  -2.413   2.741   2.453  2.0675 -0.6557 -1.1827
   43MOL0     H 5779  -2.521   2.779   2.168 -1.0968 -2.0805  0.5031
   43MOL0     H 5780  -2.371   2.829   2.214 -0.5440  3.1636 -1.0842
   43MOL0     H 5781  -2.512   2.945   2.419  0.9244 -0.3899 -0.7699
   43MOL0     H 5782  -2.495   3.022   2.258  2.6974  0.4074  0.7227
   43MOL0     H 5783  -2.707   2.817   2.277 -1.1926  0.5341 -1.7429
   43MOL0     H 5784  -2.707   2.978   2.198  0.9952  1.3378  0.5628
   43MOL0     H 5785  -2.732   2.985   2.482  0.2958  1.5185 -0.1623
   43MOL0     H 5786  -2.879   2.964   2.383 -0.8280  0.2450  2.4344
   43MOL0     H 5787  -2.003   2.696   2.115  0.8787  0.2049 -1.3910
   43MOL0     H 5788  -1.825   2.638   1.959  2.5987 -2.1165 -1.1071
   43MOL0     H 5789  -1.371   2.652   1.896 -0.1266 -0.0015  1.2912
   43MOL0     H 5790  -1.154   2.566   1.777 -1.8422 -0.0995 -2.3392
   43MOL0     H 5791   0.481   1.941   2.114 -1.6431  1.2231  0.7791
   43MOL0     H 5792   0.683   1.857   2.047  2.7364  0.3538  1.0012
   43MOL0     H 5793   1.100   1.835   2.066 -1.5161  0.1789 -1.0701
   43MOL0     H 5794   1.332   1.720   2.046  2.6984  0.8478  0.6887
   43MOL0     H 5795   1.556   1.743   1.673 -1.9980 -0.5402  1.0254
   43MOL0     H 5796   1.610   1.905   1.742  1.7712  0.4822  0.4029
   43MOL0     H 5797   1.728   1.656   1.859 -3.1509 -0.0407 -0.4106
   43MOL0     H 5798   1.797   1.813   1.831 -2.0229  1.1417 -1.3034
   43MOL0     H 5799   1.825   1.766   1.586  1.7622 -0.8153 -0.6215
   43MOL0     H 5800   1.730   1.617   1.600  1.9610 -0.2957 -1.6336
   43MOL0     H 5801   1.911   1.535   1.767 -2.9315  1.2657  0.3198
   43MOL0     H 5802   2.011   1.675   1.713  0.2700  0.1501 -0.0169
   43MOL0     H 5803   2.071   1.428   1.384  1.0436  2.2308  0.2790
   43MOL0     H 5804   1.427   1.986   1.723  0.7757  2.7939  1.7921
   43MOL0     H 5805   1.232   2.097   1.731  0.3380  0.9928  1.2604
   44MOL0     O 5806   2.882  10.548  10.898  0.2962 -0.4105 -0.2641
   44MOL0     C 5807   2.851  10.445  10.956  0.0711 -0.4304  0.3156
   44MOL0     O 5808   2.731  10.413  11.017 -0.2618  0.0776  0.1567
   44MOL0     C 5809   2.654  10.521  11.059 -0.3193  0.4191  0.5856
   44MOL0     C 5810   2.687  10.584  11.181 -0.1374  0.1472  0.5811
   44MOL0     C 5811   2.620  10.704  11.224 -0.0095  0.0659  0.8617
   44MOL0     C 5812   2.522  10.757  11.135  0.4536  0.1622  0.3108
   44MOL0     O 5813   2.467  10.879  11.158 -0.2139  0.0219  0.9420
   44MOL0     C 5814   2.549  10.985  11.100  0.6260 -0.2030 -0.8369
   44MOL0     C 5815   2.508  11.112  11.160 -0.0538  0.3813 -0.3612
   44MOL0     C 5816   2.374  11.151  11.107  0.6989 -0.7854 -0.6858
   44MOL0     C 5817   2.316  11.277  11.174  0.4267  0.5717 -0.8121
   44MOL0     C 5818   2.311  11.287  11.329  0.9713  0.4236 -0.5196
   44MOL0     C 5819   2.201  11.206  11.407  0.1815 -0.3077  0.0762
   44MOL0     C 5820   2.057  11.219  11.359 -0.5885  0.2379 -0.1680
   44MOL0     C 5821   2.017  11.370  11.351  1.0041 -0.0016 -0.3334
   44MOL0     N 5822   1.866  11.384  11.380 -0.2987 -0.1903  0.5800
   44MOL0     C 5823   1.780  11.345  11.282  0.8289  0.1718  0.2252
   44MOL0     C 5824   1.661  11.367  11.349 -0.4873 -0.0049  0.0462
   44MOL0     C 5825   1.526  11.357  11.289  0.4707  0.0737  0.0983
   44MOL0     C 5826   1.409  11.431  11.357 -0.2903  0.2287 -0.3410
   44MOL0     C 5827   1.277  11.434  11.278 -0.2233 -0.4588 -0.1180
   44MOL0     C 5828   1.244  11.310  11.185 -0.0321  0.7970 -0.2397
   44MOL0     O 5829   1.229  11.184  11.255 -0.0178  0.2152  0.1065
   44MOL0     C 5830   1.125  11.158  11.333 -0.5418 -0.7157 -0.2037
   44MOL0     C 5831   1.120  11.040  11.403 -0.0964  0.4249 -0.8642
   44MOL0     C 5832   1.007  11.003  11.487 -0.0541 -1.2069  0.2953
   44MOL0     C 5833   1.018  10.883  11.572 -0.1523  0.0481 -0.1360
   44MOL0     C 5834   0.895  11.082  11.482  0.5849  0.0559 -0.3172
   44MOL0     C 5835   0.775  11.060  11.552 -0.5373  0.2894 -0.2007
   44MOL0     O 5836   0.793  11.052  11.689 -0.5913 -0.7313 -0.0934
   44MOL0     C 5837   0.705  11.027  11.781  0.7361  1.3267  0.0464
   44MOL0     C 5838   0.576  11.076  11.780  0.1680 -0.7104 -0.5833
   44MOL0     C 5839   0.484  11.043  11.888  0.5573 -0.0217  1.1185
   44MOL0     C 5840   0.525  10.970  11.993 -0.2101 -0.3288  0.2417
   44MOL0     O 5841   0.429  10.937  12.086 -0.7032 -0.2428  0.1401
   44MOL0     C 5842   0.457  10.875  12.214  0.0994 -0.3708  0.5203
   44MOL0     C 5843   0.400  10.948  12.337  0.0009 -0.0371  0.5662
   44MOL0     C 5844   0.479  10.928  12.463  0.1788 -0.5907 -0.3452
   44MOL0     C 5845   0.589  11.041  12.491  0.5772  0.5025  0.3837
   44MOL0     C 5846   0.717  10.993  12.562 -0.0450  0.0399  0.3590
   44MOL0     C 5847   0.848  11.011  12.482 -0.3430  0.4544 -0.6133
   44MOL0     C 5848   0.869  10.898  12.378  0.3749 -0.0901  0.6624
   44MOL0     C 5849   0.992  10.910  12.289 -0.0912 -0.0879 -0.6098
   44MOL0    Cl 5850   0.987  10.822  12.139 -0.7483 -0.2716 -0.2396
   44MOL0     C 5851   0.655  10.928  12.001  0.8132  0.2240  0.8269
   44MOL0     C 5852   0.743  10.954  11.896 -0.5836  0.6122  0.1188
   44MOL0     O 5853   0.678  11.018  11.495 -0.3538 -0.3706  0.4144
   44MOL0     C 5854   0.890  11.197  11.405 -0.3551 -0.3294 -0.2619
   44MOL0     C 5855   1.007  11.239  11.336  0.2065  0.3826 -0.1313
   44MOL0     N 5856   1.682  11.411  11.480 -0.0878  0.6441  0.0803
   44MOL0     N 5857   1.804  11.405  11.500 -0.7137 -0.4959 -0.3946
   44MOL0     C 5858   2.482  10.683  11.024 -0.5944  0.1241  0.4843
   44MOL0     C 5859   2.546  10.563  10.981 -0.3837 -0.2897 -0.0849
   44MOL0     C 5860   2.964  10.342  10.957 -0.0518  0.5361 -0.2553
   44MOL0     C 5861   3.095  10.373  10.965 -1.1568 -0.1007  0.3635
   44MOL0     C 5862   3.194  10.274  10.973 -0.1495 -0.0064 -0.5237
   44MOL0     C 5863   3.167  10.140  10.986 -0.5094  0.7801 -0.0388
   44MOL0     O 5864   3.271  10.046  11.011 -0.0585 -0.4528  0.6127
   44MOL0     C 5865   3.224   9.924  11.079 -0.2136  0.7367 -0.1940
   44MOL0     C 5866   3.339   9.880  11.168  0.0661 -0.8962  0.6189
   44MOL0     C 5867   3.320   9.745  11.237 -0.5592  0.1174 -0.0509
   44MOL0     C 5868   3.404   9.734  11.365  0.9430 -0.4730 -0.4984
   44MOL0     C 5869   3.547   9.743  11.339  0.1660  0.6187  0.3355
   44MOL0     C 5870   3.665   9.761  11.317 -0.9573 -0.6808  0.2042
   44MOL0     C 5871   3.035  10.105  10.963  0.0137  0.0728 -0.1665
   44MOL0     C 5872   2.937  10.201  10.940 -0.7259 -0.7992 -0.1872
   44MOL0     H 5873   2.757  10.541  11.251 -2.3072  1.6684  3.9295
   44MOL0     H 5874   2.652  10.748  11.318  1.9407 -1.8551  1.1818
   44MOL0     H 5875   2.655  10.970  11.122  0.4128  1.6781  1.9933
   44MOL0     H 5876   2.533  10.990  10.992 -0.0184 -0.6961 -0.7723
   44MOL0     H 5877   2.508  11.089  11.267  1.1335  0.2974 -0.3685
   44MOL0     H 5878   2.576  11.197  11.159  0.7938 -0.2704  0.3301
   44MOL0     H 5879   2.375  11.168  10.999  1.4257  1.3220 -0.4071
   44MOL0     H 5880   2.306  11.068  11.127  1.6938 -1.1806  1.3301
   44MOL0     H 5881   2.379  11.360  11.140  0.3905  0.9053 -0.0687
   44MOL0     H 5882   2.214  11.294  11.138  0.4588  1.9662 -0.3037
   44MOL0     H 5883   2.405  11.256  11.375  1.1714 -0.4850 -1.5108
   44MOL0     H 5884   2.301  11.389  11.368 -1.6990 -0.2175  0.7063
   44MOL0     H 5885   2.225  11.099  11.397  2.4092  0.2908 -1.8464
   44MOL0     H 5886   2.216  11.235  11.512  0.7297  2.1071 -0.6278
   44MOL0     H 5887   2.046  11.170  11.262  0.4414 -1.4820  0.5344
   44MOL0     H 5888   2.005  11.167  11.440 -0.2031 -0.4875 -0.3777
   44MOL0     H 5889   2.041  11.426  11.260 -0.9625  0.8120 -0.4046
   44MOL0     H 5890   2.060  11.428  11.433 -0.1639  1.6307 -0.8065
   44MOL0     H 5891   1.803  11.331  11.177 -0.1950  0.1914 -0.0160
   44MOL0     H 5892   1.522  11.389  11.185 -2.9783  1.9513  0.6812
   44MOL0     H 5893   1.512  11.248  11.288 -2.0264  0.3149 -2.2475
   44MOL0     H 5894   1.432  11.531  11.394 -0.7529  0.0121  0.5779
   44MOL0     H 5895   1.374  11.381  11.448  2.9007  2.0766  2.1364
   44MOL0     H 5896   1.283  11.516  11.206 -0.3952 -0.1502  0.2158
   44MOL0     H 5897   1.200  11.464  11.351 -0.8634 -1.9703 -0.1324
   44MOL0     H 5898   1.322  11.290  11.111 -0.2506 -2.9489  0.3285
   44MOL0     H 5899   1.159  11.328  11.118 -0.1016 -1.3192 -0.8008
   44MOL0     H 5900   1.212  10.983  11.400  1.4186  2.7498 -2.1861
   44MOL0     H 5901   1.124  10.868  11.597 -0.3031 -1.7609 -0.4907
   44MOL0     H 5902   0.958  10.894  11.663 -0.2316 -1.0635 -0.0391
   44MOL0     H 5903   0.969  10.801  11.519  2.0921 -0.2264 -1.9281
   44MOL0     H 5904   0.544  11.135  11.694  2.7734 -0.2258 -1.3216
   44MOL0     H 5905   0.385  11.086  11.895  0.8080  1.3114 -1.8805
   44MOL0     H 5906   0.415  10.774  12.210 -0.2521 -0.1945 -1.8191
   44MOL0     H 5907   0.559  10.846  12.240 -0.0710 -2.5933 -0.9910
   44MOL0     H 5908   0.384  11.054  12.319  2.8527  0.3929  0.1456
   44MOL0     H 5909   0.299  10.914  12.362 -0.0500  0.5614  1.1967
   44MOL0     H 5910   0.539  10.836  12.456  2.2888  0.8430 -3.1251
   44MOL0     H 5911   0.422  10.918  12.556  2.5821  2.4692  1.6611
   44MOL0     H 5912   0.618  11.065  12.389  0.6732  0.9401  0.5099
   44MOL0     H 5913   0.549  11.130  12.540 -0.8551 -0.8128  1.7269
   44MOL0     H 5914   0.693  10.892  12.595  0.1030 -0.3229 -0.6146
   44MOL0     H 5915   0.727  11.058  12.650 -1.7868  2.7221 -1.2820
   44MOL0     H 5916   0.866  11.109  12.436  2.1411  0.3155 -0.0864
   44MOL0     H 5917   0.930  11.001  12.554 -1.5583 -3.1973  0.4259
   44MOL0     H 5918   0.791  10.906  12.302  0.9930  2.6972  0.2075
   44MOL0     H 5919   0.881  10.805  12.435 -0.8788  0.0500  1.1719
   44MOL0     H 5920   1.077  10.884  12.352  1.1174 -0.0773 -2.1808
   44MOL0     H 5921   0.990  11.017  12.266  0.3748 -0.5261 -2.9872
   44MOL0     H 5922   0.694  10.861  12.077  2.9284  1.9115  1.3313
   44MOL0     H 5923   0.847  10.923  11.894 -1.0815 -1.6063  2.4431
   44MOL0     H 5924   0.803  11.262  11.401 -1.2085 -1.4026  0.2433
   44MOL0     H 5925   1.004  11.324  11.268  2.7032 -0.8600 -1.9238
   44MOL0     H 5926   2.399  10.720  10.964 -0.4651 -1.3859 -0.7003
   44MOL0     H 5927   2.519  10.512  10.890  1.0090 -1.0328 -0.1070
   44MOL0     H 5928   3.124  10.477  10.954 -0.8398 -0.0990  1.1822
   44MOL0     H 5929   3.295  10.305  10.948 -0.7555  0.6200 -2.3982
   44MOL0     H 5930   3.136   9.945  11.141 -0.1712 -1.5527  0.7351
   44MOL0     H 5931   3.202   9.849  11.002 -0.5005 -0.5023  1.0631
   44MOL0     H 5932   3.353   9.959  11.242  3.5123  2.5709 -3.1800
   44MOL0     H 5933   3.429   9.889  11.106 -1.3874 -0.5958 -1.5857
   44MOL0     H 5934   3.346   9.670  11.161  3.3231  1.3125 -0.1232
   44MOL0     H 5935   3.219   9.729  11.275  0.3434 -0.7952  2.1614
   44MOL0     H 5936   3.375   9.638  11.408  2.2631 -1.3336 -1.4778
   44MOL0     H 5937   3.373   9.810  11.438 -1.3595 -1.7456 -0.0524
   44MOL0     H 5938   3.766   9.790  11.295 -0.1631 -1.8843  2.0102
   44MOL0     H 5939   2.999  10.002  10.968 -0.8915  0.4427  2.1445
   44MOL0     H 5940   2.831  10.177  10.931 -1.1018  1.4711 -4.2080
   45MOL0     O 5941   5.625   1.496   5.848  0.2416 -0.1461  0.0450
   45MOL0     C 5942   5.636   1.404   5.929  0.1504  0.0894 -0.0549
   45MOL0     O 5943   5.542   1.344   6.001 -0.0850 -0.2170  0.2480
   45MOL0     C 5944   5.409   1.378   5.997 -0.6007 -0.6992 -0.8414
   45MOL0     C 5945   5.345   1.452   5.889  0.7242  0.8370  0.1668
   45MOL0     C 5946   5.205   1.466   5.888 -0.9077 -0.1672 -0.1949
   45MOL0     C 5947   5.129   1.408   5.988 -0.4522  1.3169  0.5717
   45MOL0     O 5948   4.992   1.398   5.974 -0.3668  0.0612  0.4381
   45MOL0     C 5949   4.913   1.288   6.036 -0.7066  0.5123 -0.3743
   45MOL0     C 5950   4.778   1.277   5.985  0.4277 -0.8708  0.5289
   45MOL0     C 5951   4.769   1.245   5.833 -0.0508 -0.7597 -0.5264
   45MOL0     C 5952   4.643   1.295   5.760 -0.1770 -0.6306 -0.1917
   45MOL0     C 5953   4.519   1.233   5.840  0.3638 -0.1660  0.7163
   45MOL0     C 5954   4.398   1.263   5.748 -0.5352  0.0876  0.0187
   45MOL0     C 5955   4.260   1.231   5.810 -0.2138  0.2736  0.0236
   45MOL0     C 5956   4.240   1.081   5.834  0.4342  0.2314  0.5568
   45MOL0     N 5957   4.094   1.046   5.818 -0.3084  0.2662 -0.5846
   45MOL0     C 5958   4.027   1.054   5.695 -0.2439  0.0690 -0.0039
   45MOL0     C 5959   3.894   1.066   5.730 -0.1878  0.2111 -0.6956
   45MOL0     C 5960   3.769   1.073   5.640 -0.4620 -0.5964 -0.1093
   45MOL0     C 5961   3.642   1.126   5.704 -0.0607  0.2289  0.4615
   45MOL0     C 5962   3.555   1.010   5.759  0.0126  0.2478  0.4292
   45MOL0     C 5963   3.464   1.066   5.873 -0.6555 -0.2178  0.0629
   45MOL0     O 5964   3.346   1.133   5.819  0.2678  0.5701  0.6936
   45MOL0     C 5965   3.232   1.122   5.889  0.4241  0.8520 -0.2389
   45MOL0     C 5966   3.219   1.082   6.021  0.2319 -0.1015 -0.4051
   45MOL0     C 5967   3.092   1.067   6.083 -1.0879  0.2066  0.4100
   45MOL0     C 5968   3.087   1.028   6.232  0.2285  0.6461 -0.0232
   45MOL0     C 5969   2.974   1.101   6.012 -0.0491  0.1388  0.0470
   45MOL0     C 5970   2.839   1.062   6.064  0.4455 -0.1948 -0.1437
   45MOL0     O 5971   2.752   0.981   5.982  0.0523 -0.3594 -0.2774
   45MOL0     C 5972   2.621   0.969   6.023  0.5806 -0.1743 -0.4112
   45MOL0     C 5973   2.513   1.053   5.995 -0.9182 -0.1901  0.2172
   45MOL0     C 5974   2.387   1.022   6.049 -0.0288  0.1972 -0.8410
   45MOL0     C 5975   2.361   0.901   6.106  0.8722  0.1539 -0.3030
   45MOL0     O 5976   2.238   0.871   6.160  0.1893 -0.2423  0.8836
   45MOL0     C 5977   2.115   0.943   6.136 -0.8116 -1.0159 -0.0299
   45MOL0     C 5978   2.080   0.951   5.988 -0.5198  0.6491  0.7142
   45MOL0     C 5979   1.998   1.073   5.959  0.5732 -0.8475  0.0020
   45MOL0     C 5980   1.851   1.046   6.017 -0.4701 -0.4734 -0.7641
   45MOL0     C 5981   1.734   1.136   5.957 -0.2118  0.6737 -0.5068
   45MOL0     C 5982   1.596   1.082   5.983 -0.2700 -0.0323 -0.0043
   45MOL0     C 5983   1.489   1.176   5.925  0.4850 -0.3126 -0.2519
   45MOL0     C 5984   1.355   1.107   5.912  1.1082  0.3351 -0.0916
   45MOL0    Cl 5985   1.344   0.969   5.797  0.1181 -0.6763 -0.0926
   45MOL0     C 5986   2.464   0.820   6.141  1.0056 -0.2492  0.8334
   45MOL0     C 5987   2.588   0.852   6.097 -0.2727 -0.1265 -0.3666
   45MOL0     O 5988   2.798   1.119   6.166 -0.2082  0.0743 -0.4589
   45MOL0     C 5989   2.991   1.149   5.880 -0.0326 -0.1801  0.3260
   45MOL0     C 5990   3.118   1.162   5.825 -0.6561 -0.2356  0.4875
   45MOL0     N 5991   3.886   1.079   5.872 -0.2180  0.3228 -0.7281
   45MOL0     N 5992   4.006   1.076   5.920  0.3883  0.5709  0.0919
   45MOL0     C 5993   5.189   1.349   6.097 -1.3735  0.1463 -0.0332
   45MOL0     C 5994   5.328   1.336   6.102  0.1635  0.4128  0.7691
   45MOL0     C 5995   5.769   1.325   5.930  0.6867  0.5357 -0.1290
   45MOL0     C 5996   5.874   1.381   5.853  0.8196  0.0548  0.0410
   45MOL0     C 5997   5.997   1.313   5.839 -1.1269 -0.1371  0.9377
   45MOL0     C 5998   6.021   1.188   5.902 -0.6058 -0.2120  1.0433
   45MOL0     O 5999   6.129   1.112   5.890  0.3357  0.1620 -0.2432
   45MOL0     C 6000   6.252   1.176   5.917 -0.7824 -0.7290 -0.0343
   45MOL0     C 6001   6.367   1.083   5.868  0.3981 -0.0502 -0.7757
   45MOL0     C 6002   6.403   1.073   5.720  0.2893  1.1924  0.8003
   45MOL0     C 6003   6.511   1.167   5.674 -0.4451 -1.1424 -0.4345
   45MOL0     C 6004   6.632   1.137   5.751  1.1348 -0.1240  0.0034
   45MOL0     C 6005   6.726   1.139   5.822 -0.1079  0.8862 -0.6038
   45MOL0     C 6006   5.919   1.139   5.991  0.9355  0.1528  0.2510
   45MOL0     C 6007   5.791   1.205   6.004  0.2889 -0.3713  0.9004
   45MOL0     H 6008   5.392   1.489   5.799  0.5362  1.6635  0.4063
   45MOL0     H 6009   5.162   1.489   5.791  0.8881 -1.4168 -1.3329
   45MOL0     H 6010   4.965   1.192   6.025  1.0565  0.9299  2.8962
   45MOL0     H 6011   4.898   1.306   6.143 -0.0763 -1.7769  0.1646
   45MOL0     H 6012   4.724   1.195   6.033 -1.0093  0.8483  1.9901
   45MOL0     H 6013   4.730   1.374   5.996  4.2736  1.2156  0.7416
   45MOL0     H 6014   4.850   1.302   5.785 -1.7131  0.9411 -1.4588
   45MOL0     H 6015   4.790   1.139   5.818  0.1979 -0.8456  0.3317
   45MOL0     H 6016   4.632   1.404   5.755 -0.2177 -0.5408  1.3615
   45MOL0     H 6017   4.647   1.264   5.655  1.0824 -2.5741  0.3671
   45MOL0     H 6018   4.534   1.126   5.854 -0.8230 -0.2399  1.5275
   45MOL0     H 6019   4.509   1.283   5.937  0.2947  0.6992  0.2760
   45MOL0     H 6020   4.403   1.372   5.738  2.5311 -0.1229 -1.8237
   45MOL0     H 6021   4.407   1.211   5.652 -1.9545 -0.4016  0.1259
   45MOL0     H 6022   4.242   1.287   5.902 -1.0789 -1.6837  1.1017
   45MOL0     H 6023   4.194   1.267   5.730  3.3381  1.9220 -2.4875
   45MOL0     H 6024   4.275   1.067   5.937  4.9533 -0.3446 -0.8362
   45MOL0     H 6025   4.302   1.027   5.761  0.2854 -0.4560  0.9316
   45MOL0     H 6026   4.075   1.051   5.597  0.9758 -0.7560  0.5979
   45MOL0     H 6027   3.805   1.145   5.566  1.0739 -0.7978  0.4052
   45MOL0     H 6028   3.765   0.974   5.595  2.2609 -0.3070 -1.1644
   45MOL0     H 6029   3.588   1.183   5.628 -0.6271 -0.7638  0.0996
   45MOL0     H 6030   3.670   1.195   5.784 -0.2458 -2.0931  2.6665
   45MOL0     H 6031   3.613   0.921   5.785 -3.4279 -2.7340 -1.2999
   45MOL0     H 6032   3.500   0.964   5.677  2.8280 -4.6185  0.8662
   45MOL0     H 6033   3.521   1.134   5.936 -2.3430  1.9399 -0.6288
   45MOL0     H 6034   3.435   0.982   5.938 -1.3484  2.0706  2.9101
   45MOL0     H 6035   3.300   1.048   6.085 -1.2499 -1.2106  0.9794
   45MOL0     H 6036   3.102   1.111   6.302 -0.7737 -0.9687  2.2178
   45MOL0     H 6037   2.996   0.969   6.249  2.4325 -3.8337 -2.2231
   45MOL0     H 6038   3.165   0.955   6.250 -1.7519 -0.9088  3.2453
   45MOL0     H 6039   2.538   1.148   5.949  0.7208 -0.2222  0.9780
   45MOL0     H 6040   2.321   1.107   6.033 -1.4739 -0.7615 -0.2223
   45MOL0     H 6041   2.028   0.901   6.189 -0.0985 -1.3462  0.9086
   45MOL0     H 6042   2.122   1.044   6.176 -1.8607 -0.5994 -0.8487
   45MOL0     H 6043   2.167   0.939   5.923  0.3430 -0.2653  1.9789
   45MOL0     H 6044   2.019   0.864   5.964 -0.1455  0.7168 -0.5451
   45MOL0     H 6045   1.992   1.086   5.851 -2.1513 -0.2235  0.1585
   45MOL0     H 6046   2.050   1.160   6.002  1.5115 -0.9949 -0.8100
   45MOL0     H 6047   1.827   0.943   5.989  1.2335 -0.8597 -0.9127
   45MOL0     H 6048   1.858   1.061   6.125 -1.3191  2.3929 -0.9986
   45MOL0     H 6049   1.734   1.136   5.848  1.7094  0.0159 -0.5383
   45MOL0     H 6050   1.739   1.239   5.993 -0.2475  0.1269  1.1636
   45MOL0     H 6051   1.589   0.982   5.938 -1.4561  0.6882 -1.5545
   45MOL0     H 6052   1.567   1.074   6.088 -3.5201 -3.0827 -0.9264
   45MOL0     H 6053   1.506   1.218   5.825 -1.4259  1.8438  0.2230
   45MOL0     H 6054   1.465   1.263   5.986  0.1744  2.1309 -3.5599
   45MOL0     H 6055   1.283   1.182   5.879  1.8341  1.6834  1.2467
   45MOL0     H 6056   1.337   1.073   6.015  3.3444  0.4719  0.3937
   45MOL0     H 6057   2.443   0.730   6.198  0.8943  2.0442  4.7178
   45MOL0     H 6058   2.670   0.788   6.128 -1.5237 -2.5354 -1.7348
   45MOL0     H 6059   2.901   1.181   5.828  0.4530  2.3755  0.9185
   45MOL0     H 6060   3.134   1.204   5.726  1.5082  0.2098  0.9549
   45MOL0     H 6061   5.132   1.306   6.179 -3.4670 -2.9896 -2.8679
   45MOL0     H 6062   5.362   1.263   6.174  0.6814 -1.4460 -1.2587
   45MOL0     H 6063   5.851   1.464   5.787  0.5214  0.3159  0.4673
   45MOL0     H 6064   6.058   1.340   5.754 -3.7734  1.0390 -0.7206
   45MOL0     H 6065   6.264   1.273   5.869  1.0598 -1.9146 -2.2041
   45MOL0     H 6066   6.254   1.193   6.025  2.1894  1.4369 -0.3233
   45MOL0     H 6067   6.337   0.980   5.888 -1.0548  0.6563  0.9496
   45MOL0     H 6068   6.450   1.103   5.937 -0.4205  0.2414  0.1609
   45MOL0     H 6069   6.311   1.077   5.660  0.4243 -0.9751  0.3791
   45MOL0     H 6070   6.450   0.980   5.687  0.6096  2.1414 -1.6112
   45MOL0     H 6071   6.481   1.269   5.699  1.3863 -1.0070  1.4830
   45MOL0     H 6072   6.521   1.156   5.565 -1.6850 -0.5944 -0.6207
   45MOL0     H 6073   6.802   1.112   5.892 -0.1293  0.4313 -0.7547
   45MOL0     H 6074   5.927   1.043   6.040 -2.5790 -0.5133 -0.2012
   45MOL0     H 6075   5.709   1.179   6.069 -2.2235  4.6046  0.2149
   46MOL0     O 6076  11.176   9.847   3.122 -0.0473 -0.5059  0.9469
   46MOL0     C 6077  11.113   9.849   3.016  0.9594  0.5133  0.6359
   46MOL0     O 6078  10.982   9.827   2.994 -0.1476  0.2996  0.3080
   46MOL0     C 6079  10.911   9.794   3.109  1.4360 -0.4356  0.6841
   46MOL0     C 6080  10.943   9.678   3.183 -0.5377 -0.2349 -0.1849
   46MOL0     C 6081  10.892   9.674   3.311  0.3595 -0.6234  0.3842
   46MOL0     C 6082  10.813   9.776   3.364  0.2463 -0.0913 -0.7033
   46MOL0     O 6083  10.778   9.747   3.489  0.0910 -0.6957 -0.0882
   46MOL0     C 6084  10.706   9.849   3.568  0.6269 -0.3948 -0.0150
   46MOL0     C 6085  10.646   9.788   3.697 -0.9160 -0.6840  0.8468
   46MOL0     C 6086  10.742   9.697   3.780  1.5183  0.0163  0.8939
   46MOL0     C 6087  10.858   9.780   3.831  0.7242 -0.9880 -0.2842
   46MOL0     C 6088  10.977   9.703   3.876  0.2253  0.3397 -0.3259
   46MOL0     C 6089  11.036   9.603   3.777 -0.3139  0.1840  0.0017
   46MOL0     C 6090  11.127   9.492   3.839  0.3050 -0.5866  0.1058
   46MOL0     C 6091  11.156   9.382   3.739  0.3840 -0.1118  0.2366
   46MOL0     N 6092  11.258   9.423   3.635 -0.0366  0.0654 -0.2218
   46MOL0     C 6093  11.388   9.442   3.673 -0.9121 -0.2691  0.6806
   46MOL0     C 6094  11.454   9.468   3.558 -0.4061 -0.4586  0.5240
   46MOL0     C 6095  11.604   9.491   3.544  0.5221 -0.1046 -0.8870
   46MOL0     C 6096  11.649   9.424   3.416  0.2346  0.1621  0.2904
   46MOL0     C 6097  11.676   9.269   3.432  0.0064 -1.2072  0.2541
   46MOL0     C 6098  11.699   9.193   3.298  0.1194 -0.0437 -0.4150
   46MOL0     O 6099  11.817   9.244   3.228 -0.6261  0.8032  0.2105
   46MOL0     C 6100  11.833   9.190   3.099 -0.3125 -0.3706 -0.9065
   46MOL0     C 6101  11.939   9.097   3.080  0.1233 -0.3957 -0.0030
   46MOL0     C 6102  11.947   9.020   2.962  0.6925  0.2307 -0.5744
   46MOL0     C 6103  12.062   8.932   2.954 -0.1618  0.2811 -1.2970
   46MOL0     C 6104  11.851   9.038   2.862  0.2495  1.1025  0.4090
   46MOL0     C 6105  11.848   8.971   2.729  0.7219  0.1986  1.1331
   46MOL0     O 6106  11.756   9.020   2.634  0.0459 -0.0158  0.1035
   46MOL0     C 6107  11.739   8.952   2.516  0.0790  0.3384 -0.5340
   46MOL0     C 6108  11.827   8.972   2.408  1.0357 -0.5352  0.4972
   46MOL0     C 6109  11.805   8.903   2.293 -0.1728 -0.0133  0.6288
   46MOL0     C 6110  11.692   8.825   2.272 -1.0950 -0.2773  0.1131
   46MOL0     O 6111  11.672   8.775   2.149 -0.0028 -0.5185  0.3996
   46MOL0     C 6112  11.560   8.836   2.078 -0.1803  0.0342  0.3739
   46MOL0     C 6113  11.589   8.971   2.011 -0.6058  0.1873  0.0815
   46MOL0     C 6114  11.457   9.042   1.963 -0.3264  0.6628  0.0312
   46MOL0     C 6115  11.495   9.157   1.882 -0.2544 -0.2617  0.2594
   46MOL0     C 6116  11.383   9.232   1.813  0.6995 -0.2554  0.2085
   46MOL0     C 6117  11.258   9.245   1.900  0.3218 -0.6731  0.1808
   46MOL0     C 6118  11.141   9.316   1.831  0.6094 -1.1154  0.2072
   46MOL0     C 6119  10.999   9.264   1.861 -0.2853  0.5208 -0.3057
   46MOL0    Cl 6120  10.983   9.090   1.803 -0.2457  0.6913  0.1028
   46MOL0     C 6121  11.608   8.806   2.380 -0.0558 -0.1873 -0.4617
   46MOL0     C 6122  11.627   8.870   2.501  0.0696  0.0461  0.0486
   46MOL0     O 6123  11.924   8.878   2.707 -0.3002 -0.6982  0.4664
   46MOL0     C 6124  11.744   9.132   2.886 -0.2377  0.3006  0.5108
   46MOL0     C 6125  11.741   9.209   3.000  0.0964 -0.3835 -0.3290
   46MOL0     N 6126  11.358   9.459   3.456 -0.0045  0.4662 -0.6703
   46MOL0     N 6127  11.242   9.431   3.499 -0.2395 -0.0611 -0.7974
   46MOL0     C 6128  10.788   9.895   3.300  0.2744 -0.3918  0.4834
   46MOL0     C 6129  10.841   9.902   3.169  0.8959  0.8691 -0.1392
   46MOL0     C 6130  11.180   9.907   2.901 -0.2607 -0.0020  0.1864
   46MOL0     C 6131  11.296   9.991   2.917 -0.1798 -0.2707  0.3348
   46MOL0     C 6132  11.360  10.043   2.803  0.5594 -0.1960 -0.4848
   46MOL0     C 6133  11.310  10.014   2.670 -0.1098  0.3079  0.1399
   46MOL0     O 6134  11.390  10.048   2.561  0.5102 -0.4579 -0.0784
   46MOL0     C 6135  11.370   9.985   2.434  0.2952  0.0554  0.8832
   46MOL0     C 6136  11.504   9.967   2.362 -0.6665  0.3681 -0.0462
   46MOL0     C 6137  11.588   9.856   2.441  0.4272  0.4351 -0.1413
   46MOL0     C 6138  11.731   9.836   2.384 -1.0249  0.5402 -0.9350
   46MOL0     C 6139  11.753   9.817   2.243  0.7324 -0.1871 -0.3053
   46MOL0     C 6140  11.774   9.806   2.131  0.1386 -0.3977  0.8796
   46MOL0     C 6141  11.195   9.940   2.657  0.0965  0.2765 -1.2577
   46MOL0     C 6142  11.145   9.873   2.769 -0.0941 -0.5897  0.3538
   46MOL0     H 6143  11.003   9.606   3.130 -0.6699  1.0517 -2.1948
   46MOL0     H 6144  10.908   9.591   3.379 -2.4606  1.3224  3.7916
   46MOL0     H 6145  10.759   9.937   3.604 -0.5800 -0.1962  1.3742
   46MOL0     H 6146  10.622   9.893   3.514 -1.4153 -3.7637  0.0801
   46MOL0     H 6147  10.604   9.863   3.764 -3.2249 -2.0034  0.9772
   46MOL0     H 6148  10.563   9.726   3.663  1.6953 -3.5102 -0.9920
   46MOL0     H 6149  10.682   9.667   3.867  0.6867 -1.9553 -0.2971
   46MOL0     H 6150  10.762   9.606   3.724 -1.6860 -1.6779  2.2221
   46MOL0     H 6151  10.894   9.837   3.744 -1.8687  0.1869 -0.6725
   46MOL0     H 6152  10.819   9.848   3.907  0.6959  1.7050 -2.5189
   46MOL0     H 6153  11.052   9.771   3.917 -1.0875  2.8127 -1.8212
   46MOL0     H 6154  10.931   9.651   3.961 -0.7559 -0.2661 -1.2002
   46MOL0     H 6155  10.954   9.548   3.730  1.5301 -1.2068 -1.7427
   46MOL0     H 6156  11.103   9.647   3.703 -0.6132 -0.8772 -0.9377
   46MOL0     H 6157  11.221   9.532   3.878 -1.6257  2.1472  2.4452
   46MOL0     H 6158  11.072   9.447   3.923  0.5777 -1.9610 -0.4315
   46MOL0     H 6159  11.067   9.346   3.686 -0.7600  3.7275 -0.7243
   46MOL0     H 6160  11.204   9.301   3.795 -0.1066  0.6618  1.8042
   46MOL0     H 6161  11.424   9.429   3.775  1.4971  0.1676 -0.0506
   46MOL0     H 6162  11.611   9.599   3.554 -0.6303 -0.2363  2.2662
   46MOL0     H 6163  11.652   9.441   3.628 -0.6866  3.5495  2.2817
   46MOL0     H 6164  11.741   9.474   3.385 -0.2334  1.3351  0.7097
   46MOL0     H 6165  11.581   9.437   3.331 -1.1861 -0.1946  1.3306
   46MOL0     H 6166  11.591   9.224   3.483  1.5745 -3.2198  1.2226
   46MOL0     H 6167  11.768   9.254   3.489  0.6029  2.0274  0.3321
   46MOL0     H 6168  11.603   9.194   3.245  0.3921  0.7640 -0.9246
   46MOL0     H 6169  11.703   9.088   3.327 -1.1135  0.1500  0.5476
   46MOL0     H 6170  12.016   9.094   3.156  1.1493 -0.2425 -1.0089
   46MOL0     H 6171  12.125   8.965   2.872  1.0245 -0.3025 -0.6452
   46MOL0     H 6172  12.121   8.939   3.046  0.1727  0.2367 -1.5085
   46MOL0     H 6173  12.040   8.826   2.937 -0.7783  0.2586 -0.4738
   46MOL0     H 6174  11.921   9.025   2.410 -0.4436  2.3779 -1.0734
   46MOL0     H 6175  11.859   8.923   2.201 -0.5622  0.1584  0.4340
   46MOL0     H 6176  11.536   8.775   1.991  0.0822  0.9124 -0.3308
   46MOL0     H 6177  11.471   8.840   2.142 -1.1160 -1.7411 -0.7446
   46MOL0     H 6178  11.648   9.029   2.082 -0.1714  1.3498 -1.1722
   46MOL0     H 6179  11.655   8.956   1.925 -0.6372 -0.2470  0.1312
   46MOL0     H 6180  11.401   9.069   2.053  0.6709 -0.8236  1.1429
   46MOL0     H 6181  11.397   8.974   1.902  1.5115 -0.9665 -0.0347
   46MOL0     H 6182  11.541   9.231   1.948 -2.2665 -0.1800  1.6439
   46MOL0     H 6183  11.560   9.121   1.802 -0.2029  1.8623 -0.6994
   46MOL0     H 6184  11.358   9.175   1.723  1.1853  2.9636 -2.1242
   46MOL0     H 6185  11.407   9.335   1.786 -1.6719  0.5052  0.7473
   46MOL0     H 6186  11.226   9.143   1.921  3.5754 -1.8901 -0.2992
   46MOL0     H 6187  11.266   9.295   1.997  0.5264  1.1350 -0.7113
   46MOL0     H 6188  11.146   9.305   1.722  1.8972 -0.4283  0.1741
   46MOL0     H 6189  11.140   9.424   1.851 -1.5490 -1.2218  0.8691
   46MOL0     H 6190  10.920   9.323   1.815 -0.8167  1.0175  1.2019
   46MOL0     H 6191  10.991   9.265   1.970 -0.5128 -0.4547 -0.2982
   46MOL0     H 6192  11.514   8.755   2.365 -2.0230  3.1618 -0.6754
   46MOL0     H 6193  11.569   8.830   2.583  0.0792 -2.4856 -1.0838
   46MOL0     H 6194  11.666   9.148   2.812 -0.6302 -1.6209  0.4518
   46MOL0     H 6195  11.674   9.292   3.019 -0.1264 -0.9248  1.4349
   46MOL0     H 6196  10.745   9.979   3.354 -2.8009 -0.3571 -1.7423
   46MOL0     H 6197  10.846   9.990   3.107  0.0353  0.1513 -1.2626
   46MOL0     H 6198  11.317  10.017   3.020 -0.6440 -2.4081  1.0284
   46MOL0     H 6199  11.454  10.095   2.820 -1.8962  3.6030  3.4832
   46MOL0     H 6200  11.328   9.884   2.430 -0.6959  0.4248 -3.2978
   46MOL0     H 6201  11.309  10.051   2.371  1.1546 -1.0297 -1.1777
   46MOL0     H 6202  11.543  10.069   2.360 -2.3771  1.0703 -0.0295
   46MOL0     H 6203  11.484   9.936   2.259  0.7297 -2.0023  0.3440
   46MOL0     H 6204  11.537   9.760   2.427  2.9312 -1.0560  0.3333
   46MOL0     H 6205  11.577   9.881   2.546 -3.1080 -3.0617  0.5400
   46MOL0     H 6206  11.744   9.732   2.417 -1.6918  0.7548  0.0709
   46MOL0     H 6207  11.804   9.901   2.433 -0.7311 -0.3026 -0.2092
   46MOL0     H 6208  11.800   9.778   2.031 -0.4248 -1.9235  1.1373
   46MOL0     H 6209  11.154   9.916   2.559 -3.6136  0.3162  0.1285
   46MOL0     H 6210  11.054   9.814   2.772  0.6461 -1.7859  3.9282
   47MOL0     O 6211   7.651   1.123   2.806  0.4096  1.0089  0.2816
   47MOL0     C 6212   7.668   1.203   2.714 -1.0096  0.0919 -0.7496
   47MOL0     O 6213   7.581   1.234   2.621 -0.1364  0.2339  0.0673
   47MOL0     C 6214   7.464   1.163   2.622  0.0923  0.5708  0.7625
   47MOL0     C 6215   7.434   1.072   2.521 -0.5404 -0.2756 -0.7195
   47MOL0     C 6216   7.310   0.997   2.516  0.4637 -0.2042  0.8863
   47MOL0     C 6217   7.223   1.012   2.624  0.4760  0.0533  0.2732
   47MOL0     O 6218   7.116   0.918   2.633 -0.0498 -0.0298  0.1873
   47MOL0     C 6219   7.000   0.953   2.710  0.5066  0.6102  0.0776
   47MOL0     C 6220   6.882   0.877   2.646  1.3997 -0.6898  0.8231
   47MOL0     C 6221   6.747   0.938   2.699  0.6466  0.4003  0.4448
   47MOL0     C 6222   6.637   0.864   2.632 -0.1141  0.6010 -0.4891
   47MOL0     C 6223   6.509   0.955   2.645  0.2714  0.2350 -0.3209
   47MOL0     C 6224   6.397   0.891   2.560 -0.5042  0.1636 -0.1042
   47MOL0     C 6225   6.270   0.971   2.533 -0.0821  0.0270 -0.3401
   47MOL0     C 6226   6.288   1.117   2.502  0.3892 -0.5889  1.3556
   47MOL0     N 6227   6.166   1.178   2.445  0.2714  0.4988 -0.0183
   47MOL0     C 6228   6.099   1.152   2.320  0.4011 -0.2052  0.1321
   47MOL0     C 6229   5.980   1.208   2.328 -0.8481 -0.6155  0.4370
   47MOL0     C 6230   5.885   1.212   2.210  0.6284  0.0524 -0.3241
   47MOL0     C 6231   5.787   1.095   2.192 -0.2309 -0.8962  0.4029
   47MOL0     C 6232   5.720   1.062   2.316 -0.2357 -0.4772 -0.9582
   47MOL0     C 6233   5.601   0.970   2.292  0.0971  0.9859 -1.0659
   47MOL0     O 6234   5.629   0.827   2.311 -0.4765 -0.3323  0.9042
   47MOL0     C 6235   5.574   0.761   2.418 -0.0674  0.1865  0.3274
   47MOL0     C 6236   5.522   0.637   2.392 -0.0981 -0.1117 -0.0814
   47MOL0     C 6237   5.480   0.556   2.493  0.4705 -0.4136 -0.2823
   47MOL0     C 6238   5.434   0.415   2.453 -0.1909 -0.4288 -0.1794
   47MOL0     C 6239   5.489   0.600   2.632  0.0449 -0.4480 -0.3870
   47MOL0     C 6240   5.436   0.529   2.757  0.2733 -0.5897  0.5128
   47MOL0     O 6241   5.481   0.578   2.879  0.4882  0.3585  0.8778
   47MOL0     C 6242   5.429   0.527   2.997  0.7298 -0.8295 -0.6552
   47MOL0     C 6243   5.291   0.524   3.021 -0.2678 -0.3868  1.0215
   47MOL0     C 6244   5.250   0.484   3.141  0.4409  0.0107  0.2777
   47MOL0     C 6245   5.323   0.417   3.240  0.5958 -0.4288  0.5656
   47MOL0     O 6246   5.271   0.375   3.354  0.2987  0.1912  0.1086
   47MOL0     C 6247   5.145   0.306   3.353  0.5118  0.4653 -0.1825
   47MOL0     C 6248   5.153   0.196   3.461 -0.1692  0.5025  0.1541
   47MOL0     C 6249   5.021   0.136   3.483  1.2503  0.2891 -1.2423
   47MOL0     C 6250   5.018   0.051   3.612 -1.4962 -0.2610  0.2809
   47MOL0     C 6251   4.870   0.034   3.656  0.3470  0.7374  0.0533
   47MOL0     C 6252   4.866  -0.068   3.773  0.5633  0.9732 -0.0996
   47MOL0     C 6253   4.966  -0.049   3.894  0.1394  0.5803  1.1337
   47MOL0     C 6254   4.948   0.083   3.970  0.0221 -0.3309  0.0415
   47MOL0    Cl 6255   4.790   0.075   4.047 -0.0109  0.1367  0.1488
   47MOL0     C 6256   5.453   0.404   3.213  0.0849  0.7289  0.6042
   47MOL0     C 6257   5.507   0.471   3.098 -0.8772  1.0813 -1.3621
   47MOL0     O 6258   5.370   0.431   2.747  1.0660  0.0619 -0.5776
   47MOL0     C 6259   5.535   0.726   2.653  0.3645 -0.8363 -0.5605
   47MOL0     C 6260   5.576   0.806   2.548  0.0437 -0.4495  0.1254
   47MOL0     N 6261   5.964   1.275   2.447  0.1882 -0.3994  0.0921
   47MOL0     N 6262   6.081   1.264   2.514  0.4259 -0.0350  0.0851
   47MOL0     C 6263   7.247   1.106   2.721 -0.3417 -0.4305 -0.3864
   47MOL0     C 6264   7.360   1.183   2.718 -0.5118 -0.2123  0.8395
   47MOL0     C 6265   7.798   1.280   2.721  0.0959 -0.1316 -0.5134
   47MOL0     C 6266   7.813   1.396   2.642  0.2496 -0.8696 -0.0933
   47MOL0     C 6267   7.921   1.484   2.660 -0.6954  0.9831 -0.2502
   47MOL0     C 6268   8.028   1.455   2.747  0.0988 -0.2795 -0.3263
   47MOL0     O 6269   8.137   1.546   2.748  0.1860 -0.5256 -0.4945
   47MOL0     C 6270   8.266   1.491   2.779  0.1819 -0.6792 -1.0682
   47MOL0     C 6271   8.322   1.437   2.651 -0.7343  0.3816  0.8823
   47MOL0     C 6272   8.477   1.395   2.668 -0.4365 -0.4436  0.0023
   47MOL0     C 6273   8.580   1.519   2.686  0.2862  0.2781  0.0966
   47MOL0     C 6274   8.568   1.637   2.606  0.1177 -0.8363  0.1652
   47MOL0     C 6275   8.571   1.726   2.525  0.6097  0.4721  0.2391
   47MOL0     C 6276   8.024   1.333   2.809  0.2508  0.4231  0.2271
   47MOL0     C 6277   7.907   1.252   2.806  0.3973 -0.0397 -0.8617
   47MOL0     H 6278   7.514   1.049   2.451  0.7034  1.9878 -0.1377
   47MOL0     H 6279   7.311   0.915   2.445 -1.8354  0.2450  0.2313
   47MOL0     H 6280   7.004   0.914   2.812  0.0549 -0.6105 -0.3454
   47MOL0     H 6281   6.980   1.060   2.711 -0.0581  0.5087  0.9326
   47MOL0     H 6282   6.895   0.896   2.539 -0.9840 -2.3925  0.1760
   47MOL0     H 6283   6.889   0.770   2.664 -2.4606 -0.9766  1.2797
   47MOL0     H 6284   6.749   0.917   2.806 -1.4195 -0.1641  0.4209
   47MOL0     H 6285   6.741   1.046   2.681  1.4468  0.0698 -2.1675
   47MOL0     H 6286   6.655   0.829   2.530  1.1298 -0.7675  0.1705
   47MOL0     H 6287   6.640   0.771   2.689  5.0251  0.5525 -0.3292
   47MOL0     H 6288   6.481   0.964   2.750  1.4536 -2.3755  0.3076
   47MOL0     H 6289   6.529   1.057   2.612  0.7621 -0.5294 -2.5784
   47MOL0     H 6290   6.438   0.858   2.464 -1.9743 -1.4254 -0.2327
   47MOL0     H 6291   6.360   0.807   2.619 -0.9667 -1.3427 -2.3987
   47MOL0     H 6292   6.210   0.922   2.455  0.0556  0.8304 -0.9729
   47MOL0     H 6293   6.208   0.973   2.623 -0.6363  1.9461 -0.7098
   47MOL0     H 6294   6.381   1.118   2.444 -0.0194  2.8428  0.5513
   47MOL0     H 6295   6.326   1.178   2.584 -0.9178  1.7560  0.3291
   47MOL0     H 6296   6.137   1.098   2.234  0.7346  1.5879 -0.9121
   47MOL0     H 6297   5.832   1.305   2.233  1.0735  0.0735  0.6640
   47MOL0     H 6298   5.945   1.220   2.119  1.7622 -2.8085  0.0608
   47MOL0     H 6299   5.852   1.016   2.153 -1.5835 -0.2850 -3.5430
   47MOL0     H 6300   5.708   1.111   2.118  1.4253  0.7344 -1.1218
   47MOL0     H 6301   5.689   1.151   2.370  0.1704 -2.1203  2.2571
   47MOL0     H 6302   5.784   1.013   2.390 -3.3909 -2.4486  0.7011
   47MOL0     H 6303   5.545   0.989   2.200 -4.5310 -0.5897  1.1225
   47MOL0     H 6304   5.534   1.005   2.371  0.6023 -0.0689 -0.1412
   47MOL0     H 6305   5.533   0.597   2.291  2.2306 -1.2059  0.5215
   47MOL0     H 6306   5.340   0.383   2.497  0.3581 -0.2545  1.1845
   47MOL0     H 6307   5.415   0.405   2.346 -0.0695 -1.1997 -0.1311
   47MOL0     H 6308   5.516   0.350   2.484  0.4957  1.6204  2.6977
   47MOL0     H 6309   5.216   0.556   2.950  0.0312 -0.7312  0.5449
   47MOL0     H 6310   5.144   0.497   3.161 -0.1802 -0.9269 -2.0697
   47MOL0     H 6311   5.059   0.367   3.380 -2.4338 -3.4332 -0.0341
   47MOL0     H 6312   5.129   0.259   3.255  3.5199 -3.8923  1.1053
   47MOL0     H 6313   5.226   0.121   3.431  2.3730  3.6874 -2.4942
   47MOL0     H 6314   5.199   0.238   3.551  1.0729 -2.6256  1.0846
   47MOL0     H 6315   5.000   0.069   3.400 -0.1322 -3.3924  1.7642
   47MOL0     H 6316   4.939   0.209   3.487 -0.2284 -1.3382 -0.2543
   47MOL0     H 6317   5.066  -0.044   3.587 -0.5225  0.0371  0.9241
   47MOL0     H 6318   5.072   0.097   3.696 -1.4412 -0.0062  0.1056
   47MOL0     H 6319   4.818  -0.006   3.568  1.8169 -1.6954  0.1894
   47MOL0     H 6320   4.819   0.127   3.680 -0.0886  0.3918  0.4671
   47MOL0     H 6321   4.762  -0.081   3.805  0.6242 -0.8354 -0.5166
   47MOL0     H 6322   4.897  -0.163   3.729  0.5453  0.7362  0.3837
   47MOL0     H 6323   5.068  -0.053   3.855 -0.1370 -0.0034  0.4639
   47MOL0     H 6324   4.946  -0.133   3.961 -0.3613 -1.1781 -1.1008
   47MOL0     H 6325   4.965   0.171   3.908 -1.0057  0.3749  0.7331
   47MOL0     H 6326   5.018   0.083   4.054 -0.8474  1.8071  0.8440
   47MOL0     H 6327   5.519   0.366   3.291  2.1247 -2.4820 -2.4043
   47MOL0     H 6328   5.612   0.479   3.071 -0.9183 -1.1334 -2.3791
   47MOL0     H 6329   5.554   0.760   2.754  0.7514 -0.1341 -0.8569
   47MOL0     H 6330   5.617   0.904   2.573 -1.3193  0.2185 -0.1691
   47MOL0     H 6331   7.182   1.114   2.808 -2.8248 -0.5356 -2.1249
   47MOL0     H 6332   7.371   1.244   2.807 -2.4798 -0.3330  1.1901
   47MOL0     H 6333   7.735   1.424   2.572  0.2501  1.2107  0.6717
   47MOL0     H 6334   7.916   1.580   2.609 -2.3113 -0.3000 -2.7475
   47MOL0     H 6335   8.323   1.578   2.812 -0.0852 -0.2611 -1.6959
   47MOL0     H 6336   8.279   1.415   2.856  0.3787  0.7014  0.2998
   47MOL0     H 6337   8.302   1.505   2.567 -3.6180 -1.1296  0.1909
   47MOL0     H 6338   8.270   1.343   2.630 -2.6753  1.4146  0.8039
   47MOL0     H 6339   8.513   1.336   2.584  1.4947  0.3777  0.2134
   47MOL0     H 6340   8.499   1.333   2.756  1.6788 -0.5201 -0.5280
   47MOL0     H 6341   8.682   1.482   2.674  0.7077  1.2057  0.6363
   47MOL0     H 6342   8.568   1.565   2.785  2.9962  0.6327  0.3292
   47MOL0     H 6343   8.573   1.801   2.449 -1.6207  0.5086  0.1510
   47MOL0     H 6344   8.093   1.301   2.887 -0.5650  3.2425  2.2619
   47MOL0     H 6345   7.893   1.167   2.871  0.7843 -1.2174 -2.2701
   48MOL0     O 6346   3.646   4.570   8.384  0.5649  0.5877  0.1404
   48MOL0     C 6347   3.719   4.619   8.471 -0.1887  0.3568  0.4386
   48MOL0     O 6348   3.686   4.680   8.589  0.2952  0.3369 -0.4354
   48MOL0     C 6349   3.550   4.677   8.613  0.1591  0.1964  0.5302
   48MOL0     C 6350   3.492   4.590   8.707  0.1980  0.3998  0.5604
   48MOL0     C 6351   3.358   4.575   8.708 -0.8392  0.0823 -0.0751
   48MOL0     C 6352   3.265   4.663   8.631 -0.5703 -0.0155 -0.1618
   48MOL0     O 6353   3.129   4.647   8.650  0.0591  0.3442  0.2612
   48MOL0     C 6354   3.043   4.682   8.540  0.8911 -0.0210 -0.9254
   48MOL0     C 6355   2.895   4.647   8.580 -0.7606 -0.7393  0.7707
   48MOL0     C 6356   2.837   4.743   8.686  0.3165 -0.3401  0.1687
   48MOL0     C 6357   2.690   4.712   8.716  0.4728 -0.2854 -0.4173
   48MOL0     C 6358   2.598   4.773   8.604  0.4061  0.8125  1.1390
   48MOL0     C 6359   2.442   4.759   8.646 -0.1287  0.9983  0.2767
   48MOL0     C 6360   2.356   4.824   8.532 -0.5494  0.2918  0.1608
   48MOL0     C 6361   2.214   4.874   8.580  0.2289  0.5831  0.4150
   48MOL0     N 6362   2.145   4.952   8.474  0.2493  0.0569  1.1642
   48MOL0     C 6363   2.068   4.887   8.372 -0.2076 -0.9286 -0.2090
   48MOL0     C 6364   1.987   4.987   8.332  0.4452  0.2489 -0.8896
   48MOL0     C 6365   1.871   4.980   8.241  0.2243 -0.2101  0.3032
   48MOL0     C 6366   1.733   4.963   8.302 -0.1600 -0.5435 -0.2849
   48MOL0     C 6367   1.710   5.096   8.390 -0.0673  0.1767  0.2879
   48MOL0     C 6368   1.569   5.154   8.380 -0.0113  0.3970  0.1680
   48MOL0     O 6369   1.563   5.257   8.479 -0.8522  0.2031 -0.6026
   48MOL0     C 6370   1.439   5.279   8.548 -0.5238 -0.1403  0.4981
   48MOL0     C 6371   1.460   5.341   8.675 -1.3681  0.1444 -0.0651
   48MOL0     C 6372   1.352   5.355   8.762 -0.3487 -0.0262 -0.8763
   48MOL0     C 6373   1.384   5.400   8.901 -0.6740  0.0565  0.8458
   48MOL0     C 6374   1.212   5.325   8.721  0.0199 -0.1853 -0.2575
   48MOL0     C 6375   1.082   5.348   8.795  0.0154 -0.0579 -0.4980
   48MOL0     O 6376   0.968   5.311   8.726 -0.2048 -0.3342  0.9753
   48MOL0     C 6377   0.860   5.398   8.734 -0.2830  1.2781 -0.3841
   48MOL0     C 6378   0.861   5.535   8.756  0.9493  1.0508 -0.5613
   48MOL0     C 6379   0.748   5.616   8.750  0.2800  0.1579  0.0075
   48MOL0     C 6380   0.631   5.551   8.726  0.3066 -0.3040  0.1750
   48MOL0     O 6381   0.529   5.637   8.710 -0.7213 -0.1156  0.2404
   48MOL0     C 6382   0.402   5.609   8.766 -0.2538 -0.6139 -0.7312
   48MOL0     C 6383   0.294   5.622   8.662  0.7133 -0.5714 -0.3079
   48MOL0     C 6384   0.162   5.540   8.693  0.7135  0.2886  0.5980
   48MOL0     C 6385   0.043   5.614   8.624 -0.2858 -0.4201 -0.1504
   48MOL0     C 6386  -0.082   5.550   8.680  0.1206  0.0942 -0.3092
   48MOL0     C 6387  -0.213   5.617   8.619 -0.9010 -0.3551 -0.0634
   48MOL0     C 6388  -0.343   5.560   8.685  0.3333  0.5489 -0.1023
   48MOL0     C 6389  -0.383   5.438   8.590  0.0829 -0.5753  0.7089
   48MOL0    Cl 6390  -0.555   5.390   8.652  0.4317 -0.1018  0.0219
   48MOL0     C 6391   0.622   5.414   8.694 -0.7758 -0.3224 -0.6384
   48MOL0     C 6392   0.732   5.343   8.709 -0.0885  0.3533  0.5771
   48MOL0     O 6393   1.088   5.387   8.908 -0.4015  1.0939 -0.4613
   48MOL0     C 6394   1.200   5.275   8.593 -0.3178  0.2248 -0.5715
   48MOL0     C 6395   1.307   5.250   8.512 -0.3680 -0.4393 -0.2788
   48MOL0     N 6396   2.023   5.109   8.381 -0.0339 -0.1514 -0.1279
   48MOL0     N 6397   2.115   5.089   8.474 -1.0247  0.2699  0.2841
   48MOL0     C 6398   3.326   4.758   8.546 -0.3187  0.8699 -0.3868
   48MOL0     C 6399   3.466   4.762   8.538 -0.0139 -0.1234 -0.8546
   48MOL0     C 6400   3.865   4.638   8.451  0.2650  0.5215 -0.3847
   48MOL0     C 6401   3.923   4.612   8.330 -0.0065 -0.7734 -1.4729
   48MOL0     C 6402   4.057   4.626   8.307 -0.0260 -0.0761  0.3101
   48MOL0     C 6403   4.151   4.665   8.409  0.4654  0.2552  0.3125
   48MOL0     O 6404   4.287   4.660   8.408 -0.6033  0.4126 -0.0212
   48MOL0     C 6405   4.336   4.618   8.280  0.0125 -0.0832 -0.3010
   48MOL0     C 6406   4.480   4.576   8.298 -0.3919  0.1273  0.1183
   48MOL0     C 6407   4.536   4.504   8.177 -0.6830  0.2114  0.9933
   48MOL0     C 6408   4.626   4.392   8.215  0.1612  0.0701 -0.0535
   48MOL0     C 6409   4.717   4.419   8.330 -0.0404 -0.3776  0.4191
   48MOL0     C 6410   4.788   4.471   8.414  0.0840  0.0331 -0.7015
   48MOL0     C 6411   4.091   4.694   8.527  0.6205  0.3374  0.1316
   48MOL0     C 6412   3.951   4.682   8.553 -0.5971 -0.5753 -0.6124
   48MOL0     H 6413   3.571   4.533   8.754 -0.9074 -1.6815  0.0159
   48MOL0     H 6414   3.314   4.492   8.762  0.1269 -0.7481 -0.5302
   48MOL0     H 6415   3.055   4.787   8.511 -3.4112  0.3050 -2.1730
   48MOL0     H 6416   3.069   4.612   8.459 -0.6319 -2.8121  0.8534
   48MOL0     H 6417   2.829   4.656   8.493  0.2546  0.9289  0.1182
   48MOL0     H 6418   2.882   4.545   8.618 -2.6914 -0.5365  0.7271
   48MOL0     H 6419   2.906   4.731   8.771  2.8468 -0.0885 -1.7159
   48MOL0     H 6420   2.845   4.850   8.663  0.4882 -0.1430  1.0968
   48MOL0     H 6421   2.677   4.605   8.737  0.9123 -1.2906 -4.3306
   48MOL0     H 6422   2.668   4.778   8.800  1.5362  0.2626 -0.5492
   48MOL0     H 6423   2.624   4.878   8.584  0.1570  0.5848 -0.5239
   48MOL0     H 6424   2.622   4.722   8.511  1.8042  3.2176  0.0764
   48MOL0     H 6425   2.416   4.654   8.660  1.5234  0.7506  2.0265
   48MOL0     H 6426   2.425   4.813   8.740 -3.2717  1.5959 -0.5335
   48MOL0     H 6427   2.415   4.903   8.484 -2.9385  1.1884 -1.4296
   48MOL0     H 6428   2.339   4.750   8.453 -1.7978  1.0680 -0.3161
   48MOL0     H 6429   2.225   4.952   8.656 -0.8402  0.8097  0.3441
   48MOL0     H 6430   2.147   4.795   8.615  2.6918 -0.6221  2.8779
   48MOL0     H 6431   2.062   4.784   8.339  0.7422 -0.7815 -0.8776
   48MOL0     H 6432   1.868   5.078   8.193 -1.3319 -0.2109  0.3483
   48MOL0     H 6433   1.886   4.897   8.171  2.5001  1.0910 -0.8499
   48MOL0     H 6434   1.736   4.873   8.365 -1.4962 -0.4997 -0.1234
   48MOL0     H 6435   1.660   4.946   8.222  1.7086 -2.6448 -1.6630
   48MOL0     H 6436   1.775   5.179   8.360  6.0785 -3.0947  2.6172
   48MOL0     H 6437   1.735   5.075   8.494 -2.6425 -3.5697  0.3388
   48MOL0     H 6438   1.495   5.074   8.387 -0.3038  0.5331 -1.1932
   48MOL0     H 6439   1.545   5.202   8.284  0.8924  2.0001  0.6993
   48MOL0     H 6440   1.564   5.346   8.705 -1.1889 -2.6181  0.0524
   48MOL0     H 6441   1.335   5.494   8.925 -1.4105  0.2243 -1.1671
   48MOL0     H 6442   1.373   5.320   8.975  2.3473 -1.0822  0.2385
   48MOL0     H 6443   1.493   5.413   8.900 -0.4651 -1.5178  0.1720
   48MOL0     H 6444   0.960   5.576   8.772  2.3848 -1.9358 -0.9618
   48MOL0     H 6445   0.754   5.722   8.772  3.7789  0.2377 -0.6838
   48MOL0     H 6446   0.394   5.508   8.807 -1.6973  0.6418  2.4866
   48MOL0     H 6447   0.388   5.681   8.848 -1.0881 -0.5264 -0.9408
   48MOL0     H 6448   0.272   5.729   8.667  1.0466 -0.5477  0.7096
   48MOL0     H 6449   0.326   5.608   8.558 -1.6079  1.5376 -1.4242
   48MOL0     H 6450   0.139   5.524   8.799  0.9666 -0.4913  0.5390
   48MOL0     H 6451   0.183   5.443   8.648  1.7249  0.9555 -0.3968
   48MOL0     H 6452   0.049   5.721   8.645  0.6372 -0.6331  0.7664
   48MOL0     H 6453   0.054   5.608   8.515  0.3489  1.2485 -0.2117
   48MOL0     H 6454  -0.078   5.557   8.789  3.4139 -0.2468 -0.3314
   48MOL0     H 6455  -0.092   5.444   8.655 -3.2578 -0.0854  1.1649
   48MOL0     H 6456  -0.193   5.721   8.645  0.3641 -0.4703 -0.5382
   48MOL0     H 6457  -0.209   5.616   8.510 -1.8553  4.2407 -0.3387
   48MOL0     H 6458  -0.417   5.641   8.682 -0.4929 -0.2160 -1.5568
   48MOL0     H 6459  -0.344   5.533   8.791 -5.4350  4.2445  1.2426
   48MOL0     H 6460  -0.313   5.354   8.584  0.8793  0.1968 -1.9465
   48MOL0     H 6461  -0.382   5.475   8.488 -0.8302  1.5659  1.4311
   48MOL0     H 6462   0.528   5.362   8.679  0.6586 -3.2958 -0.1662
   48MOL0     H 6463   0.732   5.234   8.715  0.2171  0.2308 -1.0518
   48MOL0     H 6464   1.107   5.237   8.552  0.2213 -0.3639 -1.2539
   48MOL0     H 6465   1.294   5.212   8.411 -0.5950 -2.5517  0.5072
   48MOL0     H 6466   3.258   4.804   8.475 -1.0686 -1.8606 -1.5795
   48MOL0     H 6467   3.511   4.841   8.478 -0.2922 -0.6869 -1.8358
   48MOL0     H 6468   3.856   4.585   8.250 -2.3522  2.4508 -0.8086
   48MOL0     H 6469   4.085   4.607   8.204  0.0813  1.3465  0.0562
   48MOL0     H 6470   4.288   4.532   8.232  3.1820 -1.1221 -1.8608
   48MOL0     H 6471   4.321   4.707   8.219 -2.5552 -1.3730 -1.7208
   48MOL0     H 6472   4.472   4.504   8.379 -0.4558 -1.2707 -1.0839
   48MOL0     H 6473   4.543   4.662   8.321  0.1317  0.7077 -3.0264
   48MOL0     H 6474   4.599   4.573   8.121 -2.0725  0.5591 -0.2177
   48MOL0     H 6475   4.462   4.456   8.111  0.0292 -1.6977  1.5260
   48MOL0     H 6476   4.686   4.375   8.125 -0.4671 -0.8694 -0.3081
   48MOL0     H 6477   4.576   4.297   8.235  0.4014  0.2270  1.3675
   48MOL0     H 6478   4.853   4.520   8.484  0.0973  0.1504 -0.7962
   48MOL0     H 6479   4.163   4.715   8.607  0.4444 -0.0047  0.3802
   48MOL0     H 6480   3.916   4.699   8.655 -1.3156  0.5704 -1.0322
   49MOL0     O 6481   8.213  10.666   2.636 -0.5720  0.2183  0.2284
   49MOL0     C 6482   8.290  10.574   2.666  0.2173 -0.2093 -0.2702
   49MOL0     O 6483   8.267  10.489   2.769 -0.5842  0.5619  0.3355
   49MOL0     C 6484   8.144  10.497   2.834  0.2269 -0.8891 -0.0689
   49MOL0     C 6485   8.152  10.462   2.972 -0.3015  0.3340  0.2143
   49MOL0     C 6486   8.032  10.439   3.053  0.0566 -0.2213  0.5803
   49MOL0     C 6487   7.901  10.463   2.994  0.1874 -0.7181  0.6602
   49MOL0     O 6488   7.790  10.434   3.052  0.3922 -0.6059 -0.1508
   49MOL0     C 6489   7.785  10.366   3.176 -0.6288  0.2547  0.4209
   49MOL0     C 6490   7.646  10.317   3.203  0.3302 -0.0120 -0.5442
   49MOL0     C 6491   7.565  10.385   3.320  0.9808  0.0049 -0.0353
   49MOL0     C 6492   7.491  10.507   3.259  0.6488 -0.7317  1.1529
   49MOL0     C 6493   7.453  10.597   3.376 -0.2119 -0.0702  0.2402
   49MOL0     C 6494   7.375  10.514   3.484  0.7747  0.7797 -0.9683
   49MOL0     C 6495   7.283  10.598   3.582 -0.0702 -0.9086 -0.3296
   49MOL0     C 6496   7.368  10.673   3.683  0.6763 -0.4984 -0.2685
   49MOL0     N 6497   7.355  10.818   3.669  0.2717 -0.3310  0.1774
   49MOL0     C 6498   7.242  10.887   3.670  0.2234 -0.5905 -0.0910
   49MOL0     C 6499   7.285  11.013   3.675 -0.3786  0.4662 -0.6736
   49MOL0     C 6500   7.217  11.150   3.679 -0.6113  0.3605  0.8977
   49MOL0     C 6501   7.068  11.132   3.718  0.4306  0.0996  0.8783
   49MOL0     C 6502   6.969  11.166   3.601 -0.0676  0.1411 -0.2858
   49MOL0     C 6503   6.829  11.142   3.654  0.3034  1.0007  0.0199
   49MOL0     O 6504   6.791  11.231   3.755 -0.1525 -1.1322 -0.1647
   49MOL0     C 6505   6.731  11.355   3.723 -0.0088  0.4761  0.3380
   49MOL0     C 6506   6.688  11.441   3.819 -0.0797  0.2399  0.4259
   49MOL0     C 6507   6.633  11.567   3.798  0.2692  0.2105 -0.0611
   49MOL0     C 6508   6.595  11.650   3.917  0.4906  0.0289 -0.5801
   49MOL0     C 6509   6.628  11.615   3.667  0.3034 -0.7864  0.0514
   49MOL0     C 6510   6.571  11.751   3.624 -0.7440 -0.6941 -0.7823
   49MOL0     O 6511   6.529  11.761   3.495 -0.3993  0.4216 -0.1750
   49MOL0     C 6512   6.444  11.859   3.450  0.6798  1.0118 -0.4257
   49MOL0     C 6513   6.373  11.960   3.530  0.9422 -0.3881  0.6720
   49MOL0     C 6514   6.280  12.044   3.460 -0.7261  0.1969  0.4365
   49MOL0     C 6515   6.262  12.036   3.321  1.0625 -0.1384  0.3019
   49MOL0     O 6516   6.168  12.120   3.267  0.1658 -0.6550  0.0974
   49MOL0     C 6517   6.080  12.051   3.175 -0.0566 -0.4829  0.4530
   49MOL0     C 6518   5.941  12.042   3.238  0.4119 -0.3177  0.1563
   49MOL0     C 6519   5.872  12.168   3.281  0.6909 -0.7008  0.3972
   49MOL0     C 6520   5.719  12.152   3.293  0.3598  0.0045  0.6448
   49MOL0     C 6521   5.649  12.273   3.345 -0.4499 -0.0715 -0.1257
   49MOL0     C 6522   5.501  12.274   3.342 -0.9821  1.0656 -0.2507
   49MOL0     C 6523   5.452  12.194   3.459  0.1022 -0.2403 -0.0496
   49MOL0     C 6524   5.295  12.177   3.471  0.1569 -1.1498  0.3456
   49MOL0    Cl 6525   5.248  12.161   3.640  0.2435 -0.1016 -0.0006
   49MOL0     C 6526   6.342  11.947   3.252  0.7022  0.1423  0.4970
   49MOL0     C 6527   6.430  11.865   3.315 -0.2439 -0.4346 -0.8898
   49MOL0     O 6528   6.542  11.831   3.714 -0.1435 -0.1883  0.0955
   49MOL0     C 6529   6.671  11.535   3.561 -0.4609 -0.4791  0.4809
   49MOL0     C 6530   6.723  11.407   3.587  0.0174 -0.2866 -0.7611
   49MOL0     N 6531   7.424  11.010   3.662  0.5370  0.5161  0.5456
   49MOL0     N 6532   7.466  10.892   3.652 -0.5297 -0.0284 -0.3752
   49MOL0     C 6533   7.902  10.509   2.856 -0.0158 -0.1258  0.0747
   49MOL0     C 6534   8.020  10.525   2.780  1.2179  0.5306 -0.0434
   49MOL0     C 6535   8.415  10.567   2.594 -0.0704  0.1778 -0.0988
   49MOL0     C 6536   8.524  10.472   2.628  2.1000  0.5108 -0.5307
   49MOL0     C 6537   8.638  10.466   2.559  1.0083  0.1562  0.5621
   49MOL0     C 6538   8.666  10.562   2.468 -0.1131  0.7822 -0.0645
   49MOL0     O 6539   8.783  10.573   2.387  0.0458  0.2313  0.0659
   49MOL0     C 6540   8.868  10.457   2.386  0.0428  0.0526  0.9138
   49MOL0     C 6541   8.954  10.443   2.265 -0.3069  0.6412 -0.3478
   49MOL0     C 6542   9.055  10.561   2.244  0.1915  0.0308  0.2951
   49MOL0     C 6543   9.133  10.605   2.371 -0.1819 -0.2495  0.3270
   49MOL0     C 6544   9.241  10.701   2.327  0.1476 -0.9585 -0.1201
   49MOL0     C 6545   9.327  10.767   2.275  0.9994 -1.5658 -0.9239
   49MOL0     C 6546   8.570  10.654   2.428  0.2556 -0.0455 -0.0144
   49MOL0     C 6547   8.440  10.655   2.484 -0.6290 -0.0938 -0.3893
   49MOL0     H 6548   8.249  10.448   3.018 -0.7571 -2.2764  0.5755
   49MOL0     H 6549   8.035  10.422   3.160 -1.3636  1.8007  1.0011
   49MOL0     H 6550   7.851  10.279   3.168  1.6467  1.7122  1.9965
   49MOL0     H 6551   7.813  10.429   3.261 -2.2805  1.5103  0.0637
   49MOL0     H 6552   7.583  10.327   3.114 -0.4461 -1.1654 -0.1536
   49MOL0     H 6553   7.654  10.209   3.212  0.1431  0.1131  1.4796
   49MOL0     H 6554   7.501  10.315   3.375  0.8653  1.5636  1.9632
   49MOL0     H 6555   7.634  10.417   3.399 -1.4820 -0.1610  2.3427
   49MOL0     H 6556   7.547  10.569   3.189  0.9830 -1.0634  1.1222
   49MOL0     H 6557   7.400  10.471   3.210 -0.5244  0.2787  2.4937
   49MOL0     H 6558   7.541  10.638   3.427 -1.0614  1.1696  0.7684
   49MOL0     H 6559   7.385  10.679   3.350 -2.6220 -2.3616 -1.1088
   49MOL0     H 6560   7.300  10.457   3.428 -0.0888 -1.8724  2.4905
   49MOL0     H 6561   7.439  10.450   3.544 -0.2737  1.9524  1.5503
   49MOL0     H 6562   7.228  10.678   3.531  1.8820  3.0020  3.1568
   49MOL0     H 6563   7.214  10.536   3.641 -1.3966  1.9501  1.3228
   49MOL0     H 6564   7.471  10.637   3.672  1.6663  2.4534 -1.4032
   49MOL0     H 6565   7.333  10.653   3.785 -2.8231  0.0898 -1.2221
   49MOL0     H 6566   7.138  10.858   3.672  0.4236 -1.3145  0.5626
   49MOL0     H 6567   7.261  11.213   3.757 -0.2623 -0.0476  1.0344
   49MOL0     H 6568   7.230  11.211   3.589 -0.6875  1.2234  1.4700
   49MOL0     H 6569   7.042  11.190   3.807  0.5565 -2.3782  2.6062
   49MOL0     H 6570   7.032  11.030   3.731 -0.7459 -0.1022 -2.8427
   49MOL0     H 6571   6.995  11.103   3.515 -2.5373 -0.5434 -0.5982
   49MOL0     H 6572   6.976  11.272   3.575  0.3238  0.9556  2.7176
   49MOL0     H 6573   6.820  11.043   3.700 -0.4621  0.7687 -0.6099
   49MOL0     H 6574   6.763  11.144   3.567 -3.0450  1.2109  2.3562
   49MOL0     H 6575   6.701  11.404   3.921 -1.0235 -2.9271 -0.4806
   49MOL0     H 6576   6.635  11.601   4.006  0.7421 -0.0330 -0.7268
   49MOL0     H 6577   6.622  11.756   3.916  1.4711 -0.1137  2.0461
   49MOL0     H 6578   6.486  11.653   3.929  0.4628 -1.9141 -0.0186
   49MOL0     H 6579   6.358  11.976   3.636  0.5216  1.4389  0.3613
   49MOL0     H 6580   6.224  12.116   3.518 -3.2383 -2.4844  1.5857
   49MOL0     H 6581   6.076  12.111   3.084 -1.6560  3.5581  2.8965
   49MOL0     H 6582   6.115  11.949   3.154 -0.8596 -0.9919  1.4948
   49MOL0     H 6583   5.874  11.997   3.163 -2.3992  3.1501  0.3453
   49MOL0     H 6584   5.941  11.968   3.319 -0.9925 -3.3318 -2.3377
   49MOL0     H 6585   5.904  12.240   3.206  0.7788 -3.0426 -1.9514
   49MOL0     H 6586   5.905  12.192   3.382  2.5633  0.4094 -0.4351
   49MOL0     H 6587   5.677  12.118   3.199 -0.0267  2.8702 -0.3212
   49MOL0     H 6588   5.706  12.072   3.366  0.1222 -0.6496 -0.0994
   49MOL0     H 6589   5.681  12.363   3.292 -1.1744  1.5331  2.0359
   49MOL0     H 6590   5.684  12.288   3.448  0.5281  0.7530 -0.5653
   49MOL0     H 6591   5.458  12.375   3.343  0.2696  1.6138  0.3475
   49MOL0     H 6592   5.477  12.235   3.243 -1.5145 -0.2662  0.3745
   49MOL0     H 6593   5.488  12.256   3.542 -0.8696  1.8706 -1.1094
   49MOL0     H 6594   5.493  12.093   3.465 -1.8812 -1.0751  0.3325
   49MOL0     H 6595   5.266  12.084   3.421  1.1943 -0.5814 -1.3969
   49MOL0     H 6596   5.245  12.269   3.437 -0.1572 -0.8697  1.5332
   49MOL0     H 6597   6.342  11.947   3.143  1.7892  0.5672  0.4885
   49MOL0     H 6598   6.489  11.789   3.264  2.9607  1.2312  0.0744
   49MOL0     H 6599   6.666  11.576   3.461  0.5870  1.9116  1.3215
   49MOL0     H 6600   6.752  11.348   3.500  0.5843  0.2111 -0.9172
   49MOL0     H 6601   7.798  10.512   2.824 -1.3211  3.5556  3.7209
   49MOL0     H 6602   8.007  10.549   2.675 -1.5501 -2.0473 -0.4151
   49MOL0     H 6603   8.521  10.416   2.721  0.4662  2.9428  1.0202
   49MOL0     H 6604   8.707  10.392   2.599  0.8185 -2.6305 -3.5423
   49MOL0     H 6605   8.938  10.466   2.469  1.5396 -1.7303 -0.0810
   49MOL0     H 6606   8.810  10.364   2.393  0.5181 -0.8041 -3.5218
   49MOL0     H 6607   8.903  10.416   2.172  0.1026  1.0827 -0.7047
   49MOL0     H 6608   9.012  10.351   2.280  0.6989  1.1514 -0.9996
   49MOL0     H 6609   8.993  10.646   2.215 -0.5889 -0.3859  0.7096
   49MOL0     H 6610   9.125  10.541   2.163 -2.0462  1.2371 -2.0934
   49MOL0     H 6611   9.197  10.523   2.405 -1.2549 -1.2846 -0.0811
   49MOL0     H 6612   9.064  10.642   2.448 -2.5113 -0.2205 -1.6272
   49MOL0     H 6613   9.394  10.838   2.230 -0.2298 -0.1160 -0.5446
   49MOL0     H 6614   8.599  10.721   2.347 -0.6347 -3.0903 -3.0962
   49MOL0     H 6615   8.358  10.716   2.450  0.1913  1.2504 -0.0297
   50MOL0     O 6616   9.740   8.578   4.167 -0.0678 -0.4891 -0.5285
   50MOL0     C 6617   9.802   8.662   4.103  0.0352  0.5754 -0.0619
   50MOL0     O 6618   9.936   8.679   4.101  0.3187  0.5121  0.1463
   50MOL0     C 6619  10.006   8.610   4.192  0.2969 -0.4418  0.0598
   50MOL0     C 6620  10.009   8.649   4.332  0.1887  0.1544  0.0839
   50MOL0     C 6621  10.071   8.565   4.424 -0.0927 -0.3112  0.3570
   50MOL0     C 6622  10.124   8.442   4.386 -0.0103  1.0570  0.6685
   50MOL0     O 6623  10.187   8.372   4.485  0.1295  0.1965  0.0715
   50MOL0     C 6624  10.278   8.416   4.585 -0.2394  0.1227 -0.0143
   50MOL0     C 6625  10.406   8.458   4.523 -0.3566 -0.4429  0.2640
   50MOL0     C 6626  10.517   8.342   4.505  0.8655 -0.9574  1.0530
   50MOL0     C 6627  10.492   8.248   4.391 -0.0605  0.1512 -0.3574
   50MOL0     C 6628  10.589   8.135   4.352  0.1221  0.3381  0.0386
   50MOL0     C 6629  10.617   8.122   4.204 -0.1223 -0.1837 -0.6982
   50MOL0     C 6630  10.710   8.237   4.149 -0.4765  1.0344  0.2400
   50MOL0     C 6631  10.848   8.246   4.210  0.6790 -0.2277 -0.6364
   50MOL0     N 6632  10.930   8.136   4.171  0.3193  0.6024 -0.6573
   50MOL0     C 6633  10.936   8.024   4.253  0.7799 -0.8744  0.5500
   50MOL0     C 6634  10.994   7.925   4.180 -0.1288  0.4232 -0.1778
   50MOL0     C 6635  11.015   7.785   4.220  0.4021 -0.0366  0.0305
   50MOL0     C 6636  11.126   7.751   4.315 -0.3739  0.5808  0.6755
   50MOL0     C 6637  11.271   7.786   4.251  0.2094  1.0895 -0.2712
   50MOL0     C 6638  11.290   7.701   4.126  0.0081 -0.3453 -0.0344
   50MOL0     O 6639  11.259   7.564   4.148  0.0277  0.0312  0.5897
   50MOL0     C 6640  11.251   7.480   4.040  0.6654 -0.2973  0.5645
   50MOL0     C 6641  11.192   7.357   4.059 -0.1604  0.2075  0.2448
   50MOL0     C 6642  11.188   7.269   3.949 -0.2466  0.3546  0.0384
   50MOL0     C 6643  11.144   7.127   3.987  0.1016  0.1487  0.6321
   50MOL0     C 6644  11.236   7.305   3.820 -0.6008  0.6871 -0.5729
   50MOL0     C 6645  11.240   7.219   3.699  0.5184  0.4290 -0.2825
   50MOL0     O 6646  11.234   7.077   3.716  0.2398 -0.7187 -0.2617
   50MOL0     C 6647  11.216   6.996   3.607 -0.1352  0.2006 -0.0035
   50MOL0     C 6648  11.315   6.900   3.592  0.0548  0.5647 -0.1194
   50MOL0     C 6649  11.294   6.793   3.502  1.1124  0.2298  0.4686
   50MOL0     C 6650  11.179   6.785   3.427  0.6171 -0.2950  0.6794
   50MOL0     O 6651  11.172   6.675   3.342  0.2679 -0.3928 -0.6056
   50MOL0     C 6652  11.059   6.663   3.257 -0.5865 -0.4660 -0.9370
   50MOL0     C 6653  11.071   6.767   3.144  0.2298  0.4805 -0.0061
   50MOL0     C 6654  10.944   6.764   3.050  0.2000 -0.0065 -1.1723
   50MOL0     C 6655  10.974   6.848   2.930 -0.6128 -0.0826 -1.0961
   50MOL0     C 6656  10.846   6.867   2.846  0.6264 -0.3590 -0.1400
   50MOL0     C 6657  10.861   6.946   2.715  0.1130 -0.2307  0.4849
   50MOL0     C 6658  10.937   6.876   2.597 -0.0573 -0.6320  0.2990
   50MOL0     C 6659  10.856   6.778   2.509  0.1841  0.0569  0.3927
   50MOL0    Cl 6660  10.945   6.749   2.361  0.0196 -0.3138 -0.0507
   50MOL0     C 6661  11.073   6.876   3.445 -0.8568 -0.6841  0.2271
   50MOL0     C 6662  11.091   6.980   3.541 -0.1139  0.4210 -0.0317
   50MOL0     O 6663  11.257   7.274   3.585 -0.7624 -0.6292 -0.0547
   50MOL0     C 6664  11.292   7.430   3.815 -0.8623 -0.2830  0.6712
   50MOL0     C 6665  11.294   7.520   3.919  0.3951  1.7000  0.6984
   50MOL0     N 6666  11.040   7.994   4.067  0.0486  1.0873 -0.0426
   50MOL0     N 6667  11.007   8.120   4.067 -0.5112  0.4020  0.2142
   50MOL0     C 6668  10.126   8.398   4.250 -0.3325  0.4115 -0.6740
   50MOL0     C 6669  10.054   8.480   4.151  0.1622  0.1934  0.4122
   50MOL0     C 6670   9.723   8.745   4.013 -0.4092 -0.4841 -0.0360
   50MOL0     C 6671   9.796   8.807   3.906 -0.4039 -1.2115  0.9090
   50MOL0     C 6672   9.735   8.875   3.799 -0.5187 -0.1032 -0.2817
   50MOL0     C 6673   9.599   8.886   3.800 -0.1533  0.1595  0.2804
   50MOL0     O 6674   9.536   8.959   3.709  0.1527  0.3184 -0.1394
   50MOL0     C 6675   9.570   8.949   3.567 -0.0429  0.0644 -0.2428
   50MOL0     C 6676   9.470   8.877   3.478 -0.3664 -0.1132 -0.6979
   50MOL0     C 6677   9.429   8.736   3.535 -0.0523  0.6906 -0.2945
   50MOL0     C 6678   9.294   8.681   3.468  0.6470 -0.3788 -0.9345
   50MOL0     C 6679   9.183   8.695   3.571  0.5159  0.2029  1.0168
   50MOL0     C 6680   9.083   8.726   3.635 -0.5484  0.2238  0.1669
   50MOL0     C 6681   9.521   8.839   3.910 -1.0283 -0.0373 -0.3753
   50MOL0     C 6682   9.581   8.762   4.012 -0.1930 -0.1284  0.6762
   50MOL0     H 6683   9.964   8.746   4.346  1.6810  0.6652  1.5978
   50MOL0     H 6684  10.080   8.593   4.529 -1.6061  1.5295  0.0372
   50MOL0     H 6685  10.233   8.499   4.640  3.3256 -0.1317  3.7876
   50MOL0     H 6686  10.312   8.345   4.660 -0.5991  0.4355  0.4508
   50MOL0     H 6687  10.379   8.510   4.430 -0.4150  1.2918  1.2235
   50MOL0     H 6688  10.461   8.534   4.579 -1.1637 -1.2412  2.2095
   50MOL0     H 6689  10.606   8.393   4.466  0.9351 -2.0297 -0.2281
   50MOL0     H 6690  10.546   8.292   4.598 -1.2411 -0.6699  1.9373
   50MOL0     H 6691  10.397   8.206   4.425 -0.3431  1.6919  0.8775
   50MOL0     H 6692  10.476   8.307   4.299 -0.4970  0.2921 -0.1975
   50MOL0     H 6693  10.678   8.148   4.415 -0.8391 -1.1614  1.8049
   50MOL0     H 6694  10.546   8.042   4.389  1.9691 -0.1946  0.9943
   50MOL0     H 6695  10.666   8.026   4.188 -2.7227 -1.5021 -1.2856
   50MOL0     H 6696  10.525   8.147   4.150 -0.1832  2.7606  0.5711
   50MOL0     H 6697  10.727   8.222   4.042  3.7347 -0.6142  0.9632
   50MOL0     H 6698  10.659   8.333   4.167 -5.1262 -1.0212 -0.3728
   50MOL0     H 6699  10.842   8.265   4.318 -1.4479  0.4171 -0.8123
   50MOL0     H 6700  10.894   8.336   4.168 -0.3572  0.4103 -0.4303
   50MOL0     H 6701  10.893   8.014   4.352  1.2688  1.9060  1.1386
   50MOL0     H 6702  10.920   7.766   4.271 -0.3508  3.0832 -0.0068
   50MOL0     H 6703  11.022   7.728   4.126 -1.8191 -1.3517  0.5836
   50MOL0     H 6704  11.112   7.646   4.342 -4.8721  0.1776 -2.0420
   50MOL0     H 6705  11.122   7.814   4.404  3.0020  1.6719  0.2123
   50MOL0     H 6706  11.343   7.762   4.329  1.1533  1.0654 -1.1317
   50MOL0     H 6707  11.276   7.892   4.227  1.1503  0.8590 -1.1542
   50MOL0     H 6708  11.396   7.708   4.102  0.0681  0.6312  0.4749
   50MOL0     H 6709  11.228   7.736   4.042  0.3154 -1.2776 -0.6697
   50MOL0     H 6710  11.160   7.326   4.158 -0.4313 -0.1602  0.0449
   50MOL0     H 6711  11.225   7.055   3.974 -1.5120 -1.2032 -4.0742
   50MOL0     H 6712  11.097   7.113   4.084 -2.1343 -2.1318 -0.6653
   50MOL0     H 6713  11.070   7.107   3.910  1.2556  0.2219 -0.5356
   50MOL0     H 6714  11.403   6.899   3.656 -0.3457 -1.6303  0.4787
   50MOL0     H 6715  11.375   6.724   3.479  1.2063  0.0602  1.2688
   50MOL0     H 6716  11.063   6.558   3.224 -0.9880 -0.9761  0.5436
   50MOL0     H 6717  10.966   6.672   3.313 -0.7798  1.8911 -1.5661
   50MOL0     H 6718  11.085   6.865   3.190 -0.5515  0.4492  0.3106
   50MOL0     H 6719  11.165   6.753   3.089  1.6330  1.7183  1.9554
   50MOL0     H 6720  10.856   6.801   3.103 -0.5398 -3.3337  0.1353
   50MOL0     H 6721  10.921   6.662   3.017  0.5976 -0.4856 -0.0134
   50MOL0     H 6722  10.998   6.950   2.962  0.2533 -0.6768  0.2670
   50MOL0     H 6723  11.044   6.799   2.861 -0.2852  0.5230 -1.2077
   50MOL0     H 6724  10.769   6.917   2.907 -0.0066 -1.3864 -0.0723
   50MOL0     H 6725  10.806   6.766   2.835 -0.9460 -0.0628  2.0572
   50MOL0     H 6726  10.760   6.981   2.695  0.5617  0.7990 -0.0371
   50MOL0     H 6727  10.915   7.036   2.744  2.3960 -0.7277 -1.8319
   50MOL0     H 6728  11.038   6.850   2.628  0.0167 -0.6845  0.0122
   50MOL0     H 6729  10.961   6.957   2.527  0.3067 -1.4085 -0.4862
   50MOL0     H 6730  10.756   6.822   2.498 -1.7314 -3.1860  3.0506
   50MOL0     H 6731  10.836   6.686   2.563  0.0800  0.8937  1.8297
   50MOL0     H 6732  10.981   6.863   3.389 -1.1734  0.1630  0.5429
   50MOL0     H 6733  11.011   7.049   3.566  1.2481  2.4888 -1.0728
   50MOL0     H 6734  11.333   7.470   3.723  0.2077 -0.8034  0.8998
   50MOL0     H 6735  11.340   7.616   3.901 -1.7124  2.1116 -3.4919
   50MOL0     H 6736  10.180   8.306   4.230 -1.1707  0.0024 -1.1145
   50MOL0     H 6737  10.057   8.455   4.045  1.0916  1.0311  0.2219
   50MOL0     H 6738   9.904   8.813   3.906 -0.4656  0.2414  1.8981
   50MOL0     H 6739   9.795   8.929   3.726  0.9871  1.3076  1.8847
   50MOL0     H 6740   9.569   9.055   3.539 -0.8874 -0.1400 -1.0265
   50MOL0     H 6741   9.672   8.908   3.557  0.0093  0.1933 -0.2381
   50MOL0     H 6742   9.513   8.875   3.378 -0.4427 -1.5695 -0.7142
   50MOL0     H 6743   9.376   8.933   3.473 -0.1507  0.2884 -0.3255
   50MOL0     H 6744   9.420   8.729   3.643 -3.2742 -1.9413 -0.5617
   50MOL0     H 6745   9.509   8.665   3.515  0.4621 -0.8702  5.4694
   50MOL0     H 6746   9.308   8.575   3.444  0.1004 -0.5312 -0.6044
   50MOL0     H 6747   9.262   8.739   3.382 -1.9519  3.2536  2.1550
   50MOL0     H 6748   9.003   8.754   3.700  1.0553 -0.1037  2.4194
   50MOL0     H 6749   9.415   8.844   3.933 -0.6376  1.2902  1.3922
   50MOL0     H 6750   9.518   8.727   4.093 -0.9496  0.2072  0.2439
   51MOL0     O 6751   5.964   3.069   7.671 -0.2610 -0.6411 -0.6231
   51MOL0     C 6752   6.013   2.957   7.642 -0.5683 -0.7129  0.1597
   51MOL0     O 6753   5.950   2.856   7.589 -0.1590  0.5991 -0.1250
   51MOL0     C 6754   5.834   2.885   7.518  1.0187 -0.0092 -0.2234
   51MOL0     C 6755   5.722   2.937   7.589  0.3023 -0.0105  0.3579
   51MOL0     C 6756   5.607   2.973   7.517 -0.5438 -0.4262  0.1741
   51MOL0     C 6757   5.596   2.956   7.374  1.4825 -0.4877  0.5423
   51MOL0     O 6758   5.486   2.983   7.296  0.9314  0.2407  0.2357
   51MOL0     C 6759   5.379   3.041   7.372  0.1172 -0.3838  0.1669
   51MOL0     C 6760   5.260   3.054   7.279  0.2884  0.1936  0.5891
   51MOL0     C 6761   5.152   3.142   7.335 -1.0567  0.4665 -0.4641
   51MOL0     C 6762   5.028   3.155   7.241 -0.1742  0.1156 -0.2032
   51MOL0     C 6763   4.941   3.253   7.312 -0.7727  0.5073  0.2125
   51MOL0     C 6764   4.818   3.301   7.246  0.2701 -0.3277  0.8013
   51MOL0     C 6765   4.736   3.370   7.360 -0.4462 -0.5386 -0.3054
   51MOL0     C 6766   4.582   3.361   7.350 -0.4234 -0.2596  0.1464
   51MOL0     N 6767   4.521   3.227   7.370 -0.6075  0.2834 -0.1270
   51MOL0     C 6768   4.458   3.191   7.490 -0.3088  0.1725  0.7060
   51MOL0     C 6769   4.428   3.063   7.468  0.1357  0.5492 -0.5695
   51MOL0     C 6770   4.358   2.970   7.564 -0.8201  0.2723  0.1852
   51MOL0     C 6771   4.222   2.928   7.502 -0.5803 -0.8408  0.6491
   51MOL0     C 6772   4.159   2.820   7.591  0.8889  0.4560  0.5223
   51MOL0     C 6773   4.004   2.806   7.571 -0.1509  0.3724  0.1304
   51MOL0     O 6774   3.965   2.787   7.430  0.4901 -0.3016 -0.2503
   51MOL0     C 6775   3.832   2.767   7.405  0.7592  1.1510  0.5620
   51MOL0     C 6776   3.731   2.747   7.502  0.3061  0.2491 -0.7020
   51MOL0     C 6777   3.597   2.745   7.467 -0.6326  0.2329 -1.9113
   51MOL0     C 6778   3.510   2.732   7.588  0.7823  0.0721 -0.6234
   51MOL0     C 6779   3.557   2.748   7.331 -0.0091  0.0369  0.5372
   51MOL0     C 6780   3.425   2.720   7.276 -0.1415  0.2834 -0.0262
   51MOL0     O 6781   3.328   2.772   7.351 -0.3823  0.2467 -0.0982
   51MOL0     C 6782   3.197   2.744   7.321  0.1549 -0.7933 -0.8855
   51MOL0     C 6783   3.142   2.766   7.192 -1.2072  0.9914 -0.1092
   51MOL0     C 6784   3.004   2.758   7.169 -0.2468  0.7702 -0.1453
   51MOL0     C 6785   2.916   2.730   7.279  0.3936 -0.2144  0.2755
   51MOL0     O 6786   2.772   2.720   7.278 -0.1059 -0.2754 -0.8491
   51MOL0     C 6787   2.712   2.777   7.166  0.0702  0.6511  0.3110
   51MOL0     C 6788   2.564   2.728   7.162  0.3204  0.8672 -0.4467
   51MOL0     C 6789   2.483   2.760   7.291  0.7172 -0.5650 -0.2140
   51MOL0     C 6790   2.457   2.912   7.310  0.1147  0.6453 -0.2975
   51MOL0     C 6791   2.345   2.960   7.401 -0.8346  0.5253 -0.4213
   51MOL0     C 6792   2.209   2.896   7.371  0.4315  0.8739  0.8359
   51MOL0     C 6793   2.101   2.947   7.473 -0.4607 -0.2962 -0.9123
   51MOL0     C 6794   1.965   2.909   7.448  0.4682 -0.2512  0.6584
   51MOL0    Cl 6795   1.858   3.009   7.537 -0.2932 -0.3351  0.5520
   51MOL0     C 6796   2.969   2.708   7.405  0.3284 -0.1020  0.0832
   51MOL0     C 6797   3.109   2.708   7.427 -0.3005  1.1988  0.4189
   51MOL0     O 6798   3.413   2.641   7.182  0.4303  0.5695 -0.5906
   51MOL0     C 6799   3.663   2.749   7.234  0.5465  0.0143 -0.3173
   51MOL0     C 6800   3.801   2.759   7.269 -0.2294 -0.3645  1.2396
   51MOL0     N 6801   4.461   3.029   7.342 -0.9830  0.0094  0.6241
   51MOL0     N 6802   4.530   3.122   7.285  0.4936  0.2152  0.1442
   51MOL0     C 6803   5.705   2.913   7.302  0.2233 -0.0774 -1.3456
   51MOL0     C 6804   5.820   2.882   7.374 -0.8924  0.1976  0.2297
   51MOL0     C 6805   6.157   2.938   7.688 -0.7069  0.1595 -0.7930
   51MOL0     C 6806   6.235   3.052   7.732  0.8233 -0.3480  0.3398
   51MOL0     C 6807   6.371   3.033   7.752  0.0111 -0.8605 -0.0141
   51MOL0     C 6808   6.430   2.902   7.746  0.0082 -1.3645  0.3145
   51MOL0     O 6809   6.565   2.890   7.780 -0.0024  0.4458  0.2290
   51MOL0     C 6810   6.636   2.806   7.684  0.7059  0.8581  0.4543
   51MOL0     C 6811   6.779   2.787   7.730  0.5749 -0.5181  0.8002
   51MOL0     C 6812   6.789   2.720   7.872  0.0613  0.9869  0.7073
   51MOL0     C 6813   6.918   2.733   7.954 -0.0227  0.2113 -0.7405
   51MOL0     C 6814   7.022   2.640   7.915 -0.6513 -0.3552 -0.1046
   51MOL0     C 6815   7.104   2.560   7.884 -0.0551 -0.1711 -0.1417
   51MOL0     C 6816   6.353   2.794   7.714  0.4002  0.0678  0.0750
   51MOL0     C 6817   6.223   2.814   7.678 -0.0589 -0.0628 -0.3575
   51MOL0     H 6818   5.728   2.955   7.696 -0.4747  3.2453 -0.0409
   51MOL0     H 6819   5.532   3.005   7.588  1.0529  2.5798  0.6850
   51MOL0     H 6820   5.350   2.979   7.458 -1.7046 -2.1542 -1.6118
   51MOL0     H 6821   5.397   3.142   7.409 -0.9108 -0.4768  0.9768
   51MOL0     H 6822   5.291   3.103   7.187 -1.9249 -3.1561 -2.2131
   51MOL0     H 6823   5.221   2.953   7.263 -1.4653  0.8969  0.2138
   51MOL0     H 6824   5.114   3.101   7.428  0.9380 -0.4094  0.0019
   51MOL0     H 6825   5.199   3.241   7.345  3.1943 -0.9354 -3.5048
   51MOL0     H 6826   5.062   3.191   7.143  0.2973  0.8288  0.2110
   51MOL0     H 6827   4.981   3.057   7.230 -1.1060  0.6113 -0.6716
   51MOL0     H 6828   4.917   3.202   7.406  2.0728  1.1147  1.3730
   51MOL0     H 6829   4.998   3.343   7.337  0.2980  0.4548 -1.7694
   51MOL0     H 6830   4.836   3.367   7.160  0.3135 -0.7686  0.4665
   51MOL0     H 6831   4.761   3.215   7.209  1.2736  0.1385 -2.1704
   51MOL0     H 6832   4.756   3.326   7.458 -2.0568 -5.5323 -1.8903
   51MOL0     H 6833   4.782   3.469   7.366 -1.0119 -0.3649  2.0791
   51MOL0     H 6834   4.560   3.396   7.248 -1.0692 -0.0547  0.3531
   51MOL0     H 6835   4.550   3.433   7.425  1.0159  2.8286 -1.9886
   51MOL0     H 6836   4.466   3.256   7.576  0.9759 -0.7526  1.3106
   51MOL0     H 6837   4.404   2.879   7.603 -1.4235 -1.3862 -2.7150
   51MOL0     H 6838   4.333   3.031   7.652  2.9373 -0.0855  1.7101
   51MOL0     H 6839   4.252   2.884   7.406  1.4116  0.4894  0.6209
   51MOL0     H 6840   4.153   3.010   7.480  0.4714  0.1157  0.8537
   51MOL0     H 6841   4.182   2.854   7.692  0.0629  1.1772  0.4809
   51MOL0     H 6842   4.207   2.723   7.575 -2.7615 -1.3570 -0.7094
   51MOL0     H 6843   3.945   2.886   7.617 -2.4293 -1.3739  0.4542
   51MOL0     H 6844   3.974   2.717   7.628 -1.1332  1.8850  2.0695
   51MOL0     H 6845   3.774   2.744   7.602  1.4840  0.8737 -1.1702
   51MOL0     H 6846   3.402   2.747   7.582  0.6499  0.1009  1.2143
   51MOL0     H 6847   3.520   2.628   7.619  6.0967  0.7358  0.9927
   51MOL0     H 6848   3.560   2.800   7.659  2.2019 -3.0513  1.6325
   51MOL0     H 6849   3.210   2.800   7.114  0.9724 -2.3208  0.1315
   51MOL0     H 6850   2.968   2.768   7.066  0.8463 -1.7194 -0.8360
   51MOL0     H 6851   2.707   2.884   7.187 -2.6420  1.5218 -3.6934
   51MOL0     H 6852   2.753   2.742   7.070  0.0220  1.5681 -0.0499
   51MOL0     H 6853   2.527   2.768   7.068 -0.0643 -1.6504 -1.4479
   51MOL0     H 6854   2.569   2.619   7.154  1.1978  0.8270  0.4435
   51MOL0     H 6855   2.536   2.734   7.384 -0.4651 -1.8116  0.1380
   51MOL0     H 6856   2.392   2.700   7.297  0.9239 -0.7600  1.8237
   51MOL0     H 6857   2.542   2.972   7.343 -1.0315  2.1065  0.1071
   51MOL0     H 6858   2.452   2.958   7.211  2.2132 -0.0495 -0.7855
   51MOL0     H 6859   2.337   3.069   7.410 -4.0479  0.2316  4.0337
   51MOL0     H 6860   2.375   2.919   7.498  2.3975 -2.0220 -2.2673
   51MOL0     H 6861   2.183   2.922   7.268  0.3598 -1.9866  0.0486
   51MOL0     H 6862   2.213   2.787   7.363 -1.4428  0.9219 -3.4806
   51MOL0     H 6863   2.109   3.055   7.459 -0.2899 -0.4749 -2.2877
   51MOL0     H 6864   2.122   2.923   7.578 -1.1359  2.2062 -0.1331
   51MOL0     H 6865   1.956   2.803   7.475 -1.5755 -0.9663 -2.2594
   51MOL0     H 6866   1.942   2.927   7.342 -0.3408  1.2059  1.0525
   51MOL0     H 6867   2.897   2.672   7.478  2.9401  0.4538  3.1786
   51MOL0     H 6868   3.148   2.681   7.525 -0.2993  2.1548  0.6982
   51MOL0     H 6869   3.639   2.731   7.130  2.3548 -1.4616 -0.5375
   51MOL0     H 6870   3.885   2.765   7.201 -0.8863 -1.9707  0.2165
   51MOL0     H 6871   5.710   2.891   7.196 -0.2761 -0.4378 -1.2957
   51MOL0     H 6872   5.904   2.837   7.322 -1.9883 -3.0808  1.0145
   51MOL0     H 6873   6.197   3.153   7.738 -1.5495 -0.9084 -2.7584
   51MOL0     H 6874   6.434   3.117   7.780  2.5149 -2.6260  0.0446
   51MOL0     H 6875   6.593   2.707   7.669  2.7305 -0.0310  0.1989
   51MOL0     H 6876   6.630   2.857   7.587 -0.0812  2.0154  1.0851
   51MOL0     H 6877   6.827   2.884   7.742  1.9359 -0.9559 -0.8182
   51MOL0     H 6878   6.838   2.726   7.661  1.0006  0.0352  0.6710
   51MOL0     H 6879   6.753   2.617   7.862  2.4611  0.2744 -1.6451
   51MOL0     H 6880   6.715   2.772   7.935 -0.5874 -0.5159  1.2328
   51MOL0     H 6881   6.887   2.714   8.057 -1.8389  2.2941 -0.8259
   51MOL0     H 6882   6.963   2.833   7.945  1.5870 -0.1257  2.3148
   51MOL0     H 6883   7.180   2.488   7.860 -0.7244 -1.1376  0.5682
   51MOL0     H 6884   6.393   2.694   7.705  0.4240  0.1967 -1.7093
   51MOL0     H 6885   6.180   2.727   7.630  1.2378 -0.0327 -1.6234
   52MOL0     O 6886   5.678   2.997   3.943 -0.1798  0.3983 -0.2746
   52MOL0     C 6887   5.696   2.943   4.051 -1.5539 -0.5298 -1.3368
   52MOL0     O 6888   5.620   2.845   4.099  0.6933  0.0373  0.0021
   52MOL0     C 6889   5.490   2.833   4.054 -0.1367  0.5890 -0.5534
   52MOL0     C 6890   5.398   2.914   4.108  0.1457 -0.5665 -0.4536
   52MOL0     C 6891   5.265   2.897   4.076  0.7910  0.5472  0.3713
   52MOL0     C 6892   5.223   2.786   4.003  0.6719  0.5130  0.3210
   52MOL0     O 6893   5.088   2.765   3.982 -0.3479  0.2869  0.7510
   52MOL0     C 6894   5.043   2.632   4.006 -0.4344  0.1131  0.1143
   52MOL0     C 6895   4.891   2.611   4.000 -0.0934 -0.4799 -0.2787
   52MOL0     C 6896   4.819   2.660   4.129  0.7791  0.0525 -0.7514
   52MOL0     C 6897   4.669   2.655   4.113 -0.3611 -0.8349 -0.2581
   52MOL0     C 6898   4.594   2.654   4.248  0.5877 -0.7416  0.4123
   52MOL0     C 6899   4.439   2.656   4.223 -0.2729 -0.5104 -0.1999
   52MOL0     C 6900   4.380   2.789   4.167 -0.5417  0.2254 -0.4485
   52MOL0     C 6901   4.227   2.797   4.155 -0.1212 -0.3869 -0.1535
   52MOL0     N 6902   4.168   2.849   4.278  0.2575 -0.0113 -1.2600
   52MOL0     C 6903   4.074   2.784   4.366 -0.7300  0.3418  0.6822
   52MOL0     C 6904   4.040   2.875   4.455 -0.7180  0.2670 -0.3386
   52MOL0     C 6905   3.945   2.826   4.567 -0.9620 -0.7602 -0.3719
   52MOL0     C 6906   3.838   2.723   4.519 -0.1122 -0.2024 -0.4107
   52MOL0     C 6907   3.785   2.642   4.641 -0.0759 -0.3388  1.5865
   52MOL0     C 6908   3.709   2.730   4.728  1.0322  0.5545 -0.5588
   52MOL0     O 6909   3.684   2.646   4.843 -0.3185  0.1185  0.2045
   52MOL0     C 6910   3.580   2.554   4.836  0.3081  0.1607 -0.7876
   52MOL0     C 6911   3.557   2.470   4.943  0.2709  0.1175 -0.1157
   52MOL0     C 6912   3.450   2.379   4.965 -0.4853  0.4569 -0.2437
   52MOL0     C 6913   3.448   2.305   5.093  0.0408 -0.4666 -0.1274
   52MOL0     C 6914   3.364   2.362   4.846  0.6759 -0.2212 -0.6243
   52MOL0     C 6915   3.273   2.253   4.821  0.0471  0.2416  0.4612
   52MOL0     O 6916   3.291   2.136   4.892 -0.4580 -0.2865  0.2677
   52MOL0     C 6917   3.211   2.028   4.863 -0.2630 -0.1613 -0.2807
   52MOL0     C 6918   3.093   2.020   4.941 -0.6193 -0.4854  0.5928
   52MOL0     C 6919   3.011   1.912   4.905  0.4175 -0.1862 -0.2235
   52MOL0     C 6920   3.054   1.807   4.831 -0.0726  0.1675  0.3422
   52MOL0     O 6921   2.979   1.699   4.820 -0.2548  0.7225 -0.6456
   52MOL0     C 6922   2.980   1.624   4.947 -0.4099 -0.5371 -0.2444
   52MOL0     C 6923   2.882   1.513   4.938  0.0918  0.5041  0.5085
   52MOL0     C 6924   2.915   1.438   5.070 -0.6822  0.1893  0.3146
   52MOL0     C 6925   2.811   1.337   5.092 -0.4767 -0.2177  0.4013
   52MOL0     C 6926   2.829   1.251   5.216  0.2167 -0.0988 -0.0210
   52MOL0     C 6927   2.703   1.150   5.219 -0.1102  0.3551  0.2434
   52MOL0     C 6928   2.565   1.200   5.262 -0.4895  0.5309  0.4014
   52MOL0     C 6929   2.475   1.091   5.330  0.1002  0.6145  0.3298
   52MOL0    Cl 6930   2.432   0.965   5.218 -0.2816 -0.0713  0.1588
   52MOL0     C 6931   3.169   1.822   4.751 -0.5792 -0.1080  0.5880
   52MOL0     C 6932   3.246   1.929   4.761  0.4805  0.1152 -0.7112
   52MOL0     O 6933   3.186   2.273   4.743 -0.7276  0.0552  0.0262
   52MOL0     C 6934   3.375   2.448   4.734  0.1222  0.1890 -0.2174
   52MOL0     C 6935   3.487   2.533   4.731 -1.2489  0.0740  0.3242
   52MOL0     N 6936   4.108   2.995   4.430 -0.4529  0.2037 -0.0234
   52MOL0     N 6937   4.187   2.975   4.328  0.0398  0.4172 -0.3541
   52MOL0     C 6938   5.319   2.699   3.955 -0.3605 -0.2164 -0.8980
   52MOL0     C 6939   5.453   2.727   3.977 -1.0023 -0.0643  0.4281
   52MOL0     C 6940   5.820   2.972   4.125 -0.1398 -0.5043  0.2643
   52MOL0     C 6941   5.840   2.933   4.257  0.2142 -0.1231  0.2043
   52MOL0     C 6942   5.974   2.935   4.311  0.0325 -0.1744 -0.2831
   52MOL0     C 6943   6.081   2.980   4.240 -0.1954 -0.7079  0.1656
   52MOL0     O 6944   6.198   2.956   4.298  0.9462  0.2702 -0.5266
   52MOL0     C 6945   6.312   3.028   4.247  0.2479  0.5102 -1.1750
   52MOL0     C 6946   6.308   3.174   4.246  0.3011  0.8158 -0.7378
   52MOL0     C 6947   6.410   3.220   4.146 -0.6963 -0.6276 -0.6167
   52MOL0     C 6948   6.436   3.364   4.176 -0.2314 -0.8722  0.0428
   52MOL0     C 6949   6.516   3.412   4.054  0.4234 -0.5259  0.1942
   52MOL0     C 6950   6.562   3.448   3.948  0.6397  0.2731  0.3264
   52MOL0     C 6951   6.057   3.039   4.115  0.4960  0.4055  0.1994
   52MOL0     C 6952   5.928   3.033   4.057 -0.1350  0.2275  0.2624
   52MOL0     H 6953   5.432   2.993   4.175 -0.9287 -0.6196  0.1769
   52MOL0     H 6954   5.197   2.971   4.118 -1.5798 -3.4580  4.5325
   52MOL0     H 6955   5.076   2.562   3.928  0.0932 -0.9208  1.2277
   52MOL0     H 6956   5.084   2.600   4.103 -0.6747 -0.8546 -0.0888
   52MOL0     H 6957   4.849   2.662   3.913  1.0558 -3.2436 -2.5901
   52MOL0     H 6958   4.863   2.507   3.982 -1.2135  0.0043 -1.5191
   52MOL0     H 6959   4.838   2.598   4.218 -3.6902 -0.9730 -0.2999
   52MOL0     H 6960   4.848   2.762   4.156 -1.2012 -0.1353  2.6536
   52MOL0     H 6961   4.640   2.747   4.061  0.8110 -0.6095 -0.5418
   52MOL0     H 6962   4.634   2.581   4.040 -2.0100  0.6071 -1.0125
   52MOL0     H 6963   4.623   2.563   4.301 -1.2779 -2.2436 -0.9865
   52MOL0     H 6964   4.618   2.741   4.309 -2.1292  0.8986 -0.6349
   52MOL0     H 6965   4.420   2.583   4.143 -2.6353 -0.7514  0.5018
   52MOL0     H 6966   4.390   2.617   4.313  1.2905 -3.6151 -0.5261
   52MOL0     H 6967   4.406   2.870   4.236 -1.7033 -0.1944  0.4934
   52MOL0     H 6968   4.421   2.830   4.074 -1.3709  3.8224  0.6131
   52MOL0     H 6969   4.199   2.696   4.122  1.1362 -0.3903 -1.2654
   52MOL0     H 6970   4.201   2.859   4.069  1.3503  0.7836  0.2103
   52MOL0     H 6971   4.054   2.678   4.362 -0.4372  0.3159 -0.4876
   52MOL0     H 6972   3.994   2.801   4.661 -1.0793  2.1421  0.5534
   52MOL0     H 6973   3.891   2.916   4.598 -0.3756 -0.4395 -0.2721
   52MOL0     H 6974   3.878   2.649   4.450 -1.1533  0.5837 -1.9135
   52MOL0     H 6975   3.757   2.769   4.461  0.5182 -1.4974 -2.4018
   52MOL0     H 6976   3.875   2.598   4.685  0.7580  1.8366  2.1516
   52MOL0     H 6977   3.728   2.559   4.598  0.5872 -0.9193  1.8033
   52MOL0     H 6978   3.622   2.775   4.679 -0.5294 -2.9024 -1.3071
   52MOL0     H 6979   3.783   2.800   4.769 -0.0511 -0.4096  3.4704
   52MOL0     H 6980   3.624   2.465   5.027  0.3606  1.6861 -0.0732
   52MOL0     H 6981   3.488   2.364   5.176 -2.1536 -1.3647  1.6629
   52MOL0     H 6982   3.351   2.268   5.125  0.7328 -2.1479  0.1242
   52MOL0     H 6983   3.510   2.215   5.088  2.5973  1.2021 -0.5835
   52MOL0     H 6984   3.070   2.090   5.021  0.4046 -1.3138  1.6649
   52MOL0     H 6985   2.914   1.894   4.950  1.5470 -0.7486  2.1512
   52MOL0     H 6986   3.079   1.578   4.958 -0.5672 -0.2759  3.2280
   52MOL0     H 6987   2.957   1.692   5.030 -1.6176 -0.1233 -0.8897
   52MOL0     H 6988   2.783   1.559   4.934  0.9724  2.7970  2.4651
   52MOL0     H 6989   2.897   1.452   4.849  2.6893  0.3953  0.9257
   52MOL0     H 6990   2.901   1.510   5.151 -4.3370  0.8395 -0.7156
   52MOL0     H 6991   3.013   1.391   5.067 -0.1512  1.2973 -1.6076
   52MOL0     H 6992   2.712   1.380   5.105  0.5497  2.1562  0.9003
   52MOL0     H 6993   2.813   1.274   5.003  0.6267  2.0278 -1.2897
   52MOL0     H 6994   2.833   1.310   5.307  0.3252  0.7875 -0.5935
   52MOL0     H 6995   2.925   1.201   5.200 -1.7241 -4.5577  0.6026
   52MOL0     H 6996   2.672   1.106   5.124 -4.1676  1.4003  0.8920
   52MOL0     H 6997   2.749   1.078   5.287  0.0709  1.6702  1.5661
   52MOL0     H 6998   2.505   1.238   5.179 -1.7979 -0.8556  0.6531
   52MOL0     H 6999   2.591   1.276   5.337  3.5809 -1.7332  1.6099
   52MOL0     H 7000   2.386   1.132   5.379  0.5150 -2.4033  4.1321
   52MOL0     H 7001   2.526   1.038   5.412 -0.7266 -2.1359 -0.8236
   52MOL0     H 7002   3.177   1.744   4.676 -1.6557  0.9774 -0.6877
   52MOL0     H 7003   3.331   1.958   4.701 -1.7229  2.9957 -2.7604
   52MOL0     H 7004   3.314   2.460   4.645  0.6601  1.4572 -0.4401
   52MOL0     H 7005   3.504   2.586   4.638  0.9685 -1.4796 -0.2426
   52MOL0     H 7006   5.295   2.605   3.906 -0.6278 -0.3183 -0.5755
   52MOL0     H 7007   5.531   2.660   3.941  0.9148  0.4949  3.1884
   52MOL0     H 7008   5.767   2.873   4.311 -1.1617  0.5709 -0.8279
   52MOL0     H 7009   5.993   2.894   4.410 -3.8760  0.1336  0.7702
   52MOL0     H 7010   6.397   3.006   4.312 -2.7176 -1.8932  2.3383
   52MOL0     H 7011   6.315   2.991   4.145 -1.7538 -0.1938 -1.0314
   52MOL0     H 7012   6.324   3.212   4.347 -6.2233 -0.8720  1.4049
   52MOL0     H 7013   6.206   3.209   4.230 -0.3330 -1.5332 -2.4470
   52MOL0     H 7014   6.366   3.218   4.046 -1.9563 -0.2821 -0.0981
   52MOL0     H 7015   6.501   3.160   4.153  1.8158  2.8189 -0.8843
   52MOL0     H 7016   6.494   3.375   4.268  4.2864  0.1749 -2.5889
   52MOL0     H 7017   6.347   3.425   4.192  0.7777  1.1902 -1.6140
   52MOL0     H 7018   6.591   3.472   3.848  1.4465  2.4626  1.0386
   52MOL0     H 7019   6.140   3.080   4.057  2.9491 -1.8620  1.8564
   52MOL0     H 7020   5.909   3.078   3.961 -1.5373 -1.8769 -0.5301
   53MOL0     O 7021   8.545  11.358   1.634  0.0944 -0.2984 -0.1427
   53MOL0     C 7022   8.615  11.292   1.704  0.3766  0.5746 -0.3455
   53MOL0     O 7023   8.582  11.253   1.836 -0.2602  0.3186  0.2213
   53MOL0     C 7024   8.477  11.316   1.897  0.6368 -0.9388  0.8772
   53MOL0     C 7025   8.509  11.420   1.984  0.1963 -0.2952  0.7256
   53MOL0     C 7026   8.406  11.496   2.042  0.7006 -0.0836  0.5226
   53MOL0     C 7027   8.270  11.461   2.028  0.2239 -0.0643 -0.4647
   53MOL0     O 7028   8.182  11.554   2.090 -0.6404  0.1306  0.3497
   53MOL0     C 7029   8.047  11.521   2.096 -0.4686 -0.7750 -0.3407
   53MOL0     C 7030   8.021  11.413   2.205  0.5301  0.8528 -0.3455
   53MOL0     C 7031   7.872  11.352   2.197 -0.3735 -0.2653 -1.1631
   53MOL0     C 7032   7.847  11.264   2.319  0.2180  0.3788  0.3191
   53MOL0     C 7033   7.708  11.204   2.314 -0.1226 -0.4444 -0.2051
   53MOL0     C 7034   7.694  11.103   2.438 -0.2914 -0.0572  0.1408
   53MOL0     C 7035   7.559  11.055   2.475 -0.5598 -0.9158  0.6338
   53MOL0     C 7036   7.478  11.157   2.559  0.1998  0.6490  0.5280
   53MOL0     N 7037   7.368  11.085   2.629  0.2929 -0.2016 -1.0962
   53MOL0     C 7038   7.244  11.066   2.577 -0.9756 -0.8272 -0.1386
   53MOL0     C 7039   7.157  11.040   2.679  0.0496 -0.3033  0.6559
   53MOL0     C 7040   7.008  11.017   2.682 -0.0421  1.1862 -0.7213
   53MOL0     C 7041   6.929  11.146   2.731  0.4600 -0.4881  0.6916
   53MOL0     C 7042   6.778  11.134   2.712  0.0129  0.4474 -0.5838
   53MOL0     C 7043   6.724  11.075   2.579 -0.4916 -0.5359  0.4955
   53MOL0     O 7044   6.773  11.148   2.464  0.9218  0.3077 -1.2968
   53MOL0     C 7045   6.831  11.087   2.352 -1.4593 -1.1882 -0.3539
   53MOL0     C 7046   6.841  11.174   2.247  0.3804 -0.6614  0.6676
   53MOL0     C 7047   6.888  11.135   2.119  0.2028 -0.4102  0.6945
   53MOL0     C 7048   6.898  11.243   2.012  0.2539  0.8704 -0.0642
   53MOL0     C 7049   6.947  11.008   2.111 -0.2618  0.0437 -0.3093
   53MOL0     C 7050   7.020  10.961   1.991  0.3219  1.2262  0.2717
   53MOL0     O 7051   7.116  11.036   1.932 -0.1046  0.3132 -1.2054
   53MOL0     C 7052   7.172  10.986   1.817 -0.2181  0.3041 -0.1013
   53MOL0     C 7053   7.276  10.897   1.806 -0.2770 -0.1224  0.2975
   53MOL0     C 7054   7.317  10.850   1.676 -0.2852  0.6733 -0.4725
   53MOL0     C 7055   7.249  10.892   1.558 -0.2097  0.2923  0.2860
   53MOL0     O 7056   7.286  10.852   1.434 -0.2641 -0.3206  0.5756
   53MOL0     C 7057   7.322  10.711   1.433 -0.1832 -1.0095 -0.5625
   53MOL0     C 7058   7.335  10.652   1.287  0.0456 -0.2940 -0.6747
   53MOL0     C 7059   7.294  10.509   1.275 -1.0964 -0.1432 -0.6652
   53MOL0     C 7060   7.144  10.498   1.277 -0.4184  0.1040  0.0269
   53MOL0     C 7061   7.105  10.369   1.214 -0.1663 -0.6268 -0.0722
   53MOL0     C 7062   6.957  10.365   1.173  0.0377  0.0609 -0.6214
   53MOL0     C 7063   6.910  10.226   1.150  1.1422 -0.4507  0.6730
   53MOL0     C 7064   6.767  10.230   1.117 -0.1755  0.3735  0.7195
   53MOL0    Cl 7065   6.730  10.104   0.977 -0.3222  0.3865  0.1843
   53MOL0     C 7066   7.150  10.984   1.575 -0.2308 -0.0614 -0.8292
   53MOL0     C 7067   7.114  11.040   1.706 -0.5633  0.1758  0.0277
   53MOL0     O 7068   6.980  10.847   1.957  0.1960 -0.4976  0.9947
   53MOL0     C 7069   6.929  10.920   2.218  0.0084 -0.0296  0.3735
   53MOL0     C 7070   6.883  10.956   2.338  0.1283  0.8212  0.7655
   53MOL0     N 7071   7.234  11.042   2.794  0.0778  0.0602 -0.1885
   53MOL0     N 7072   7.351  11.077   2.763 -0.2302 -0.2269  0.3538
   53MOL0     C 7073   8.235  11.362   1.940 -0.1742 -0.3367  0.5922
   53MOL0     C 7074   8.338  11.284   1.875 -1.3090 -0.3090 -0.2205
   53MOL0     C 7075   8.737  11.237   1.641 -0.0953 -0.3258 -0.2476
   53MOL0     C 7076   8.829  11.168   1.717 -0.3750 -0.1982 -0.5638
   53MOL0     C 7077   8.939  11.111   1.658 -0.2671 -0.8011  0.3622
   53MOL0     C 7078   8.955  11.121   1.526 -0.4029  0.4036  0.5922
   53MOL0     O 7079   9.045  11.026   1.488 -0.5452 -1.2918 -0.2319
   53MOL0     C 7080   9.119  11.052   1.365  0.9050  0.6204  0.4208
   53MOL0     C 7081   9.248  10.996   1.380 -0.6407  0.5951  0.0088
   53MOL0     C 7082   9.338  10.988   1.260 -0.6437  0.8561 -0.3920
   53MOL0     C 7083   9.355  11.125   1.211  0.4721 -0.7119  0.0674
   53MOL0     C 7084   9.440  11.125   1.093  0.6808  0.7942  1.0371
   53MOL0     C 7085   9.480  11.138   0.976  0.5087  1.0252  0.1648
   53MOL0     C 7086   8.858  11.180   1.445  0.2047  0.3707  0.4909
   53MOL0     C 7087   8.749  11.240   1.506  0.9468  0.7136 -0.3578
   53MOL0     H 7088   8.613  11.449   1.994 -0.0229  1.6668 -1.6529
   53MOL0     H 7089   8.439  11.594   2.076 -0.9236  1.7697 -2.7873
   53MOL0     H 7090   8.022  11.625   2.119  3.0778  0.9321 -3.1487
   53MOL0     H 7091   8.010  11.506   1.994  0.5794 -1.1538 -0.6826
   53MOL0     H 7092   8.087  11.328   2.188 -0.1714 -0.3364  2.3659
   53MOL0     H 7093   8.032  11.459   2.303 -2.7854  2.8560 -0.7333
   53MOL0     H 7094   7.795  11.428   2.183 -0.9821 -0.7830 -0.6502
   53MOL0     H 7095   7.856  11.284   2.113  1.7200 -0.9148 -1.1082
   53MOL0     H 7096   7.915  11.180   2.306 -0.4630 -0.0346 -0.6790
   53MOL0     H 7097   7.855  11.310   2.418 -1.7004  0.5279  0.4558
   53MOL0     H 7098   7.626  11.278   2.315 -1.3268 -1.7244  1.2865
   53MOL0     H 7099   7.689  11.154   2.219 -1.7099  1.6746 -1.1128
   53MOL0     H 7100   7.746  11.017   2.397  1.2992  0.1225  1.6689
   53MOL0     H 7101   7.742  11.136   2.531 -0.8704  0.2452  0.3367
   53MOL0     H 7102   7.501  11.018   2.391 -3.4652 -0.3352  2.2336
   53MOL0     H 7103   7.570  10.967   2.538 -0.7049  0.0903  2.1357
   53MOL0     H 7104   7.437  11.243   2.504  0.5139  3.0091  3.7354
   53MOL0     H 7105   7.546  11.199   2.633  0.1417  2.5111 -0.4144
   53MOL0     H 7106   7.208  11.058   2.475  1.6125 -0.5344 -1.1311
   53MOL0     H 7107   6.983  10.990   2.579  2.1934  1.3370 -1.3471
   53MOL0     H 7108   6.992  10.932   2.748  0.2688  2.7572  1.5009
   53MOL0     H 7109   6.961  11.233   2.673  1.5484  0.2150  2.2697
   53MOL0     H 7110   6.941  11.176   2.836 -4.1867 -0.7692  1.5150
   53MOL0     H 7111   6.727  11.231   2.711 -1.0420 -0.0271 -3.4091
   53MOL0     H 7112   6.751  11.073   2.798 -0.0857  0.3411 -0.6905
   53MOL0     H 7113   6.616  11.090   2.575 -0.6279 -1.4720  0.2575
   53MOL0     H 7114   6.753  10.971   2.561 -0.4852 -0.5362  0.5112
   53MOL0     H 7115   6.799  11.274   2.255 -1.1527 -1.1336 -0.9385
   53MOL0     H 7116   6.814  11.314   2.020 -4.6387 -4.1061 -1.1141
   53MOL0     H 7117   6.991  11.298   2.027  2.2298 -2.7434  2.6756
   53MOL0     H 7118   6.891  11.201   1.911 -1.7752 -0.4624  0.5571
   53MOL0     H 7119   7.327  10.847   1.887  1.8535 -1.3917 -1.7123
   53MOL0     H 7120   7.394  10.776   1.696 -2.9221 -2.3102 -0.5228
   53MOL0     H 7121   7.421  10.692   1.476  0.1324  0.9450 -0.3388
   53MOL0     H 7122   7.241  10.655   1.482 -0.3416 -1.2541 -1.0956
   53MOL0     H 7123   7.276  10.718   1.222  0.3438  1.7452  1.0006
   53MOL0     H 7124   7.438  10.662   1.249  0.7354 -1.2017  0.8568
   53MOL0     H 7125   7.338  10.457   1.360  1.1096 -0.5644 -1.9676
   53MOL0     H 7126   7.341  10.472   1.183  2.3571  0.9250  0.5073
   53MOL0     H 7127   7.105  10.518   1.377  0.6279  0.3694  0.3872
   53MOL0     H 7128   7.100  10.580   1.219  1.6479  0.5327 -1.0048
   53MOL0     H 7129   7.131  10.291   1.287  2.1533 -1.7909 -2.0079
   53MOL0     H 7130   7.171  10.349   1.129  0.0299 -2.1254  0.3936
   53MOL0     H 7131   6.897  10.414   1.250  1.2077  1.3313 -0.4854
   53MOL0     H 7132   6.963  10.430   1.085  2.1220 -1.7832 -1.9630
   53MOL0     H 7133   6.933  10.165   1.238 -2.7245 -2.8004  0.2973
   53MOL0     H 7134   6.959  10.194   1.058 -3.0536 -0.9493 -1.6234
   53MOL0     H 7135   6.748  10.331   1.079 -1.5015  0.0227  0.4122
   53MOL0     H 7136   6.709  10.207   1.207 -0.4246  0.9798  0.7179
   53MOL0     H 7137   7.094  11.024   1.491  0.3712 -1.7769 -2.0911
   53MOL0     H 7138   7.041  11.121   1.713  0.0124  1.1012 -3.0253
   53MOL0     H 7139   6.955  10.815   2.204  3.1486  0.6385  0.5692
   53MOL0     H 7140   6.882  10.877   2.411 -4.3985  1.2932  1.4551
   53MOL0     H 7141   8.129  11.346   1.925 -0.0697 -0.1269 -0.4240
   53MOL0     H 7142   8.313  11.223   1.789  0.7251 -1.4154 -0.0961
   53MOL0     H 7143   8.831  11.146   1.823  0.9675 -0.8435 -0.7066
   53MOL0     H 7144   9.011  11.048   1.710  0.9378 -0.4097 -0.7779
   53MOL0     H 7145   9.069  11.019   1.274  0.4382 -1.5224  1.3923
   53MOL0     H 7146   9.125  11.161   1.352 -0.6835  0.8143  1.0483
   53MOL0     H 7147   9.236  10.891   1.410  0.5419  1.1064  2.5429
   53MOL0     H 7148   9.306  11.043   1.461  3.2320 -1.9428 -1.0253
   53MOL0     H 7149   9.282  10.925   1.190 -2.7833  1.7908  0.3855
   53MOL0     H 7150   9.427  10.937   1.297 -2.5079 -1.9465  0.6257
   53MOL0     H 7151   9.391  11.187   1.293  1.6200  0.0759 -0.9843
   53MOL0     H 7152   9.263  11.174   1.176 -0.1406 -1.4441  0.6418
   53MOL0     H 7153   9.517  11.139   0.876 -0.1704  1.5228 -0.0858
   53MOL0     H 7154   8.872  11.185   1.337 -2.1084  0.2701  0.1286
   53MOL0     H 7155   8.683  11.305   1.448 -0.0212  0.7766  0.7768
   54MOL0     O 7156   4.703   3.060   5.298  0.7030 -0.1703 -0.4629
   54MOL0     C 7157   4.821   3.093   5.289  1.0309 -0.2865 -0.6976
   54MOL0     O 7158   4.860   3.220   5.276 -0.7874 -0.7796  0.5489
   54MOL0     C 7159   4.770   3.319   5.258  0.4673 -0.8904  0.1516
   54MOL0     C 7160   4.751   3.423   5.353 -0.3566 -0.2698  0.6888
   54MOL0     C 7161   4.663   3.522   5.325  0.2895  0.8042  0.1907
   54MOL0     C 7162   4.582   3.525   5.213  0.0411  1.1821 -0.3525
   54MOL0     O 7163   4.506   3.639   5.187  0.2993  0.3167  0.0219
   54MOL0     C 7164   4.367   3.613   5.171  1.0208 -0.1572  0.3865
   54MOL0     C 7165   4.284   3.732   5.212 -0.0039  0.7242  0.5610
   54MOL0     C 7166   4.128   3.695   5.210 -0.1163 -0.4662  0.6270
   54MOL0     C 7167   4.070   3.657   5.354 -0.2556  0.4726 -0.2830
   54MOL0     C 7168   3.916   3.649   5.361 -0.8404  0.0959 -0.0796
   54MOL0     C 7169   3.848   3.545   5.267  0.3326 -0.2795 -1.0368
   54MOL0     C 7170   3.698   3.575   5.247 -0.5787 -0.6037 -0.0127
   54MOL0     C 7171   3.651   3.461   5.158  0.4245  0.1771 -0.3730
   54MOL0     N 7172   3.509   3.474   5.124 -0.1877 -0.5371 -0.0887
   54MOL0     C 7173   3.454   3.566   5.036 -0.2778 -0.0244  0.0085
   54MOL0     C 7174   3.325   3.572   5.048 -0.2340 -0.5730  0.2006
   54MOL0     C 7175   3.218   3.652   4.972  0.5595  0.7127 -0.8406
   54MOL0     C 7176   3.215   3.802   4.967  0.9635 -0.2096 -0.0981
   54MOL0     C 7177   3.091   3.845   4.884 -0.4556  0.2520 -0.8451
   54MOL0     C 7178   3.090   3.991   4.837  0.1510  0.4411  0.0243
   54MOL0     O 7179   3.022   4.020   4.714  0.3736  0.3015 -0.3596
   54MOL0     C 7180   2.891   4.034   4.695  1.3548 -1.5012  0.1973
   54MOL0     C 7181   2.843   4.068   4.564 -0.2360 -0.5289 -0.4010
   54MOL0     C 7182   2.711   4.095   4.542  0.6746  0.3748  0.3662
   54MOL0     C 7183   2.659   4.101   4.401 -0.4034  0.4387  1.2335
   54MOL0     C 7184   2.623   4.098   4.656  0.0479  0.1844 -0.5551
   54MOL0     C 7185   2.480   4.124   4.635  0.0173  0.4754  0.1865
   54MOL0     O 7186   2.403   4.013   4.627 -0.0299  0.4262 -0.1879
   54MOL0     C 7187   2.275   4.037   4.586 -0.7170 -0.6755  0.3332
   54MOL0     C 7188   2.170   4.019   4.668 -0.0930  0.2981 -0.0163
   54MOL0     C 7189   2.036   4.023   4.618 -0.2879 -0.0073  0.0063
   54MOL0     C 7190   2.015   4.038   4.479  0.0787  0.4520 -0.1123
   54MOL0     O 7191   1.892   4.059   4.424  1.0125  0.9337 -0.0210
   54MOL0     C 7192   1.779   3.980   4.463  0.0710  0.2790  0.8365
   54MOL0     C 7193   1.671   4.004   4.361 -0.4929 -0.9016 -0.1635
   54MOL0     C 7194   1.690   3.973   4.214  0.7207 -0.0463  0.4677
   54MOL0     C 7195   1.552   3.966   4.138 -0.6410  0.3848  0.6151
   54MOL0     C 7196   1.526   4.098   4.066  1.0828  0.2910  0.8373
   54MOL0     C 7197   1.395   4.095   3.973  0.2247  0.0917  0.7139
   54MOL0     C 7198   1.423   4.086   3.819  1.2087 -0.0481 -0.4213
   54MOL0     C 7199   1.287   4.072   3.747 -0.1003  0.2039  0.3568
   54MOL0    Cl 7200   1.331   4.013   3.589  0.5367 -0.2558 -0.0084
   54MOL0     C 7201   2.126   4.049   4.394  0.5175 -0.2641 -0.7494
   54MOL0     C 7202   2.252   4.047   4.449  0.2424 -0.1014 -0.0093
   54MOL0     O 7203   2.441   4.239   4.620  0.0295 -0.7676 -0.8630
   54MOL0     C 7204   2.672   4.068   4.784  0.6745 -0.8089 -0.3220
   54MOL0     C 7205   2.803   4.039   4.799  0.2909 -0.4504  0.2625
   54MOL0     N 7206   3.297   3.483   5.155 -0.6469  0.1279 -0.0012
   54MOL0     N 7207   3.406   3.439   5.206  0.1637 -0.5262 -0.7534
   54MOL0     C 7208   4.594   3.414   5.130 -0.4876 -1.2487  0.5564
   54MOL0     C 7209   4.688   3.312   5.143 -0.4480 -0.3078 -0.0459
   54MOL0     C 7210   4.924   3.000   5.324 -0.0533  0.2481 -0.3390
   54MOL0     C 7211   5.056   3.033   5.307 -0.4081  0.3619 -0.1729
   54MOL0     C 7212   5.159   2.938   5.335 -0.0534  0.0434  0.1079
   54MOL0     C 7213   5.127   2.812   5.371 -0.8821  0.1407  0.3244
   54MOL0     O 7214   5.224   2.710   5.407 -0.1571 -0.0285  0.5366
   54MOL0     C 7215   5.364   2.746   5.404  0.1406  0.0370 -0.9101
   54MOL0     C 7216   5.417   2.703   5.270 -0.8810 -0.0968  0.2434
   54MOL0     C 7217   5.437   2.554   5.268  0.4077  0.0796  0.0655
   54MOL0     C 7218   5.485   2.479   5.147  0.2063 -1.0643 -0.5775
   54MOL0     C 7219   5.631   2.524   5.112  0.4614  0.6892 -0.4720
   54MOL0     C 7220   5.738   2.560   5.068  0.8385  1.0055 -0.7170
   54MOL0     C 7221   4.990   2.773   5.375 -0.0873 -0.3360 -0.0267
   54MOL0     C 7222   4.887   2.869   5.357 -0.4360  0.3722  0.8741
   54MOL0     H 7223   4.810   3.441   5.442  1.9261 -0.1618 -0.7538
   54MOL0     H 7224   4.665   3.600   5.401  2.8774 -0.1192  1.1659
   54MOL0     H 7225   4.351   3.579   5.068  2.4894 -2.2889  0.7956
   54MOL0     H 7226   4.332   3.529   5.233  0.6546 -2.4320 -2.6513
   54MOL0     H 7227   4.319   3.762   5.311  1.0375 -2.8615  1.4346
   54MOL0     H 7228   4.302   3.818   5.147  2.5329  0.3153  0.6296
   54MOL0     H 7229   4.073   3.777   5.165  1.7319 -0.0907 -1.0897
   54MOL0     H 7230   4.121   3.611   5.140 -0.4620  1.0757 -1.2529
   54MOL0     H 7231   4.119   3.563   5.384  2.9607  1.8058 -1.0088
   54MOL0     H 7232   4.107   3.722   5.434  0.1188 -0.3749  0.2618
   54MOL0     H 7233   3.888   3.633   5.466  0.9251 -0.9234  0.2783
   54MOL0     H 7234   3.880   3.749   5.335 -2.7881  0.4350  3.3101
   54MOL0     H 7235   3.901   3.533   5.172 -1.1427 -1.3796 -1.7610
   54MOL0     H 7236   3.860   3.449   5.319  1.6725  1.8796  3.0813
   54MOL0     H 7237   3.639   3.584   5.339 -0.4589  0.9332 -0.0627
   54MOL0     H 7238   3.679   3.666   5.189  1.1767  0.4471  0.9827
   54MOL0     H 7239   3.670   3.370   5.216 -2.7630  0.4127  1.2870
   54MOL0     H 7240   3.712   3.457   5.068  1.0048  0.2314  0.0127
   54MOL0     H 7241   3.500   3.634   4.965 -2.9999 -0.7069 -2.6311
   54MOL0     H 7242   3.219   3.601   4.875 -0.3718  1.2965 -1.1758
   54MOL0     H 7243   3.124   3.627   5.022  3.2004 -1.0420  3.8601
   54MOL0     H 7244   3.309   3.842   4.928  0.9453 -1.3391 -1.3525
   54MOL0     H 7245   3.200   3.849   5.065 -2.9569 -0.8556 -0.2336
   54MOL0     H 7246   3.001   3.815   4.939  0.8755 -0.5989  0.9924
   54MOL0     H 7247   3.099   3.781   4.796 -1.4771 -3.0751  1.2900
   54MOL0     H 7248   3.191   4.029   4.818 -0.5920  1.6137 -1.9323
   54MOL0     H 7249   3.048   4.053   4.916  0.5095  0.0919  0.4921
   54MOL0     H 7250   2.917   4.073   4.485 -2.5923 -2.9308 -3.0033
   54MOL0     H 7251   2.706   4.038   4.325 -0.0216 -1.4354  2.9070
   54MOL0     H 7252   2.555   4.066   4.405  0.0517 -1.1977 -0.1479
   54MOL0     H 7253   2.672   4.204   4.369  0.6635  0.3447  1.3195
   54MOL0     H 7254   2.177   3.990   4.772 -3.1497 -3.0046 -0.5420
   54MOL0     H 7255   1.952   4.003   4.683 -2.9897 -3.2587 -3.9826
   54MOL0     H 7256   1.801   3.873   4.474  0.1085  0.1258 -0.5221
   54MOL0     H 7257   1.744   4.021   4.558 -1.7850  2.5235 -0.7224
   54MOL0     H 7258   1.585   3.939   4.379  0.1815 -1.4414  1.2398
   54MOL0     H 7259   1.642   4.109   4.347  0.7619 -0.6732 -1.1755
   54MOL0     H 7260   1.735   3.874   4.201 -0.4783 -0.5598  0.0723
   54MOL0     H 7261   1.753   4.046   4.162 -1.6859  0.7955 -1.4627
   54MOL0     H 7262   1.569   3.887   4.064  0.6189  1.3649 -0.1830
   54MOL0     H 7263   1.468   3.934   4.200  0.8711 -1.6360  1.7606
   54MOL0     H 7264   1.617   4.109   4.006 -1.1333 -2.4478 -3.5138
   54MOL0     H 7265   1.506   4.177   4.139 -2.1890  1.6345 -1.2804
   54MOL0     H 7266   1.330   4.014   4.005  0.1269 -0.4304 -0.7558
   54MOL0     H 7267   1.327   4.181   3.983  0.3019  0.4138 -1.1578
   54MOL0     H 7268   1.485   4.002   3.785  1.2092  0.9138 -3.0669
   54MOL0     H 7269   1.480   4.176   3.794 -0.3571  1.3467  0.8121
   54MOL0     H 7270   1.238   4.170   3.745  1.1085  0.8099 -1.6023
   54MOL0     H 7271   1.218   4.006   3.801 -0.7605  0.6507  0.0724
   54MOL0     H 7272   2.100   4.063   4.289 -2.2096  0.3199 -0.0768
   54MOL0     H 7273   2.331   4.038   4.375 -1.6475  1.5426 -2.4254
   54MOL0     H 7274   2.612   4.074   4.875  1.0427 -0.7234 -0.0814
   54MOL0     H 7275   2.853   4.033   4.895  4.0245 -0.4937 -1.5164
   54MOL0     H 7276   4.539   3.423   5.036 -0.2224 -1.7905  0.3440
   54MOL0     H 7277   4.701   3.232   5.070  2.0612  0.5199 -0.6115
   54MOL0     H 7278   5.079   3.133   5.272 -2.6878  1.1768  0.4781
   54MOL0     H 7279   5.262   2.968   5.346 -0.2006  0.7404 -0.3946
   54MOL0     H 7280   5.383   2.849   5.434  0.0207 -0.0617 -0.4957
   54MOL0     H 7281   5.398   2.691   5.492 -0.4090  0.4142 -0.4502
   54MOL0     H 7282   5.518   2.743   5.258  0.2018 -2.4765  0.7876
   54MOL0     H 7283   5.356   2.739   5.187  3.7746  1.7369 -2.7868
   54MOL0     H 7284   5.336   2.519   5.291  0.2646  2.2135  3.2747
   54MOL0     H 7285   5.499   2.526   5.353  4.1489  3.3821 -1.2589
   54MOL0     H 7286   5.419   2.507   5.065 -1.2457  0.2523  0.9620
   54MOL0     H 7287   5.486   2.371   5.161  1.2082 -0.9881  0.0138
   54MOL0     H 7288   5.827   2.605   5.030  1.9056 -1.0247 -0.7646
   54MOL0     H 7289   4.963   2.674   5.412 -2.1170  0.1239 -0.1526
   54MOL0     H 7290   4.791   2.830   5.387 -0.3772 -2.6022 -2.2171
   55MOL0     O 7291   5.828   6.892   2.340  0.1332  0.7089  0.4272
   55MOL0     C 7292   5.900   6.919   2.431 -0.6646 -0.5284  0.4244
   55MOL0     O 7293   5.861   6.980   2.542 -0.3322 -0.0699 -1.1821
   55MOL0     C 7294   5.734   7.014   2.565 -0.2315  0.9396  0.8006
   55MOL0     C 7295   5.682   7.143   2.538 -0.0847 -1.0215 -0.2030
   55MOL0     C 7296   5.555   7.185   2.572 -0.1162  0.1766  0.2045
   55MOL0     C 7297   5.467   7.089   2.622 -0.2900 -0.5553 -0.1989
   55MOL0     O 7298   5.346   7.143   2.663 -0.0467  0.0483 -0.0739
   55MOL0     C 7299   5.252   7.072   2.735  0.5842 -0.0345  0.6225
   55MOL0     C 7300   5.158   7.172   2.788  0.5351  0.4211 -1.2204
   55MOL0     C 7301   5.043   7.084   2.836  0.7384  0.1500 -0.4760
   55MOL0     C 7302   4.941   7.178   2.894 -0.2044 -0.6076  0.3350
   55MOL0     C 7303   4.814   7.092   2.938 -0.1064  0.2807 -0.0813
   55MOL0     C 7304   4.813   7.027   3.072  0.7105 -0.7982 -0.6667
   55MOL0     C 7305   4.689   6.935   3.102 -1.1683 -0.3937  1.1797
   55MOL0     C 7306   4.555   6.994   3.141 -0.7250 -0.0329  0.1815
   55MOL0     N 7307   4.447   6.956   3.043  0.3757 -1.0719  0.4489
   55MOL0     C 7308   4.454   6.988   2.910  0.0647  0.0967  0.2636
   55MOL0     C 7309   4.360   6.920   2.849 -0.1952  0.6102  0.6432
   55MOL0     C 7310   4.338   6.916   2.707  1.0136 -0.5540  0.4092
   55MOL0     C 7311   4.445   6.845   2.628 -0.5817 -0.2233  0.4622
   55MOL0     C 7312   4.453   6.695   2.661  0.2682  0.9975  0.6452
   55MOL0     C 7313   4.606   6.661   2.676  0.0060 -0.2239  0.4544
   55MOL0     O 7314   4.690   6.689   2.561  0.1715  0.2621 -0.0746
   55MOL0     C 7315   4.828   6.691   2.569  1.2246  0.4669  0.1182
   55MOL0     C 7316   4.900   6.690   2.690  0.5151 -0.7895  0.0879
   55MOL0     C 7317   5.043   6.687   2.690  0.0600 -0.2191 -0.3460
   55MOL0     C 7318   5.098   6.704   2.831  0.0015  0.3265  0.5561
   55MOL0     C 7319   5.109   6.661   2.577 -0.3393 -0.4207  0.4313
   55MOL0     C 7320   5.252   6.631   2.569  0.0144 -1.1428 -0.0979
   55MOL0     O 7321   5.309   6.582   2.691  0.1464  0.2159 -0.6036
   55MOL0     C 7322   5.440   6.538   2.711  0.1880  0.1303 -0.4292
   55MOL0     C 7323   5.472   6.478   2.839  0.7333  0.4068 -0.2782
   55MOL0     C 7324   5.604   6.438   2.868  0.6164 -0.6859 -0.2462
   55MOL0     C 7325   5.701   6.454   2.770 -0.5299  0.4543  0.4626
   55MOL0     O 7326   5.821   6.412   2.810 -0.4966 -0.5479  0.5521
   55MOL0     C 7327   5.923   6.399   2.706 -0.2249  0.6696  0.2088
   55MOL0     C 7328   6.060   6.340   2.761 -0.2356  0.1916 -0.4622
   55MOL0     C 7329   6.181   6.377   2.666 -0.5686  0.2872  0.1684
   55MOL0     C 7330   6.294   6.273   2.673 -0.6446  0.2476  0.1900
   55MOL0     C 7331   6.435   6.342   2.632  0.6316 -0.4636  0.4506
   55MOL0     C 7332   6.566   6.275   2.655 -0.7449 -0.4051 -0.0768
   55MOL0     C 7333   6.592   6.181   2.538 -0.9749 -0.4712 -0.0431
   55MOL0     C 7334   6.719   6.108   2.548  0.3340 -0.0079  0.0377
   55MOL0    Cl 7335   6.749   6.010   2.694  0.5181  0.2843  0.1414
   55MOL0     C 7336   5.667   6.486   2.637 -0.7804 -0.1256  0.4404
   55MOL0     C 7337   5.542   6.529   2.617  0.4575  0.0975  0.9115
   55MOL0     O 7338   5.313   6.641   2.465  0.0124 -0.6892 -0.3378
   55MOL0     C 7339   5.044   6.655   2.455  0.3666  0.6550  0.0343
   55MOL0     C 7340   4.902   6.677   2.459  0.1922 -0.2979  0.5481
   55MOL0     N 7341   4.288   6.846   2.945 -0.3010  0.8432  0.2908
   55MOL0     N 7342   4.346   6.859   3.056  0.4825 -0.0189 -0.7393
   55MOL0     C 7343   5.507   6.957   2.632 -0.1052  0.2743  0.1300
   55MOL0     C 7344   5.640   6.909   2.595  0.4053  0.1353 -1.3990
   55MOL0     C 7345   6.042   6.872   2.423 -0.3458 -0.0564 -0.0602
   55MOL0     C 7346   6.132   6.895   2.539 -0.0841 -0.2142 -0.1753
   55MOL0     C 7347   6.267   6.869   2.523 -0.0979 -0.3196 -0.8096
   55MOL0     C 7348   6.319   6.824   2.403 -0.1958  0.1650  0.3081
   55MOL0     O 7349   6.451   6.792   2.378  0.5559  0.1165  0.1125
   55MOL0     C 7350   6.546   6.780   2.488 -0.1774 -0.7646 -0.3628
   55MOL0     C 7351   6.667   6.719   2.436  0.2644 -0.1010  1.0339
   55MOL0     C 7352   6.643   6.564   2.410  0.9259 -0.4286 -0.2746
   55MOL0     C 7353   6.772   6.483   2.377  0.0140 -0.7730  0.1399
   55MOL0     C 7354   6.868   6.486   2.486  0.2868 -0.3899  0.0555
   55MOL0     C 7355   6.932   6.490   2.588 -0.0099 -0.8871  0.1414
   55MOL0     C 7356   6.230   6.800   2.295 -1.0724  0.3972  0.1197
   55MOL0     C 7357   6.095   6.828   2.304 -0.0718 -0.3003  1.1483
   55MOL0     H 7358   5.741   7.221   2.489  1.0805 -1.6365  0.1776
   55MOL0     H 7359   5.526   7.289   2.559  0.7687  0.3188 -0.7439
   55MOL0     H 7360   5.193   7.026   2.655 -0.8000  1.6477  0.6207
   55MOL0     H 7361   5.287   7.000   2.810 -2.6766 -3.6826 -1.0015
   55MOL0     H 7362   5.211   7.226   2.867 -1.4982 -1.6582  1.7819
   55MOL0     H 7363   5.118   7.237   2.710  0.4134  0.8969 -0.7649
   55MOL0     H 7364   4.997   7.025   2.757  0.3011  1.4503 -1.2308
   55MOL0     H 7365   5.072   7.011   2.912  0.9666 -1.1030 -1.7389
   55MOL0     H 7366   4.981   7.244   2.972 -2.7742  1.5862 -0.0605
   55MOL0     H 7367   4.899   7.243   2.816  0.1401  0.4182  0.9856
   55MOL0     H 7368   4.738   7.171   2.941 -1.8593 -1.3790  1.8859
   55MOL0     H 7369   4.781   7.019   2.864 -2.8526  0.0151  1.2626
   55MOL0     H 7370   4.901   6.962   3.076 -0.2898 -2.1156  2.1574
   55MOL0     H 7371   4.825   7.115   3.135 -2.7650  1.2640 -2.6010
   55MOL0     H 7372   4.669   6.878   3.011 -1.8787  0.8678  0.5297
   55MOL0     H 7373   4.727   6.862   3.175  0.2855  0.2555  1.1110
   55MOL0     H 7374   4.576   7.100   3.159  1.1170 -0.3429  0.0163
   55MOL0     H 7375   4.524   6.964   3.241 -1.5821 -1.8163 -0.5773
   55MOL0     H 7376   4.527   7.053   2.863  0.7313 -1.7499 -1.4029
   55MOL0     H 7377   4.238   6.870   2.707  1.0229 -0.7113 -2.3671
   55MOL0     H 7378   4.337   7.021   2.677  1.5825 -0.3718  1.0193
   55MOL0     H 7379   4.536   6.892   2.669 -0.9950  0.3205  0.7685
   55MOL0     H 7380   4.440   6.873   2.523  0.0212  1.2437  0.7899
   55MOL0     H 7381   4.399   6.632   2.590 -0.5635 -0.1492  2.2305
   55MOL0     H 7382   4.406   6.672   2.757 -0.2887 -3.4046 -0.4617
   55MOL0     H 7383   4.615   6.556   2.707 -2.0921 -0.5904 -0.0418
   55MOL0     H 7384   4.638   6.721   2.762 -0.4347 -0.2427  0.6364
   55MOL0     H 7385   4.841   6.705   2.781  0.6045  4.3386 -0.3759
   55MOL0     H 7386   5.024   6.726   2.908 -0.5401 -0.0284  0.1499
   55MOL0     H 7387   5.139   6.605   2.854 -0.8403 -0.7889 -2.2843
   55MOL0     H 7388   5.174   6.782   2.834 -0.9448  1.2739  0.3650
   55MOL0     H 7389   5.384   6.459   2.901  0.0196  0.1668 -1.3412
   55MOL0     H 7390   5.653   6.409   2.960 -2.2695  0.4194  1.7958
   55MOL0     H 7391   5.901   6.317   2.638  1.4532  1.7660 -1.7655
   55MOL0     H 7392   5.938   6.494   2.654 -1.6385  1.6825  1.5611
   55MOL0     H 7393   6.080   6.377   2.862  1.5723 -1.8516 -0.0073
   55MOL0     H 7394   6.067   6.231   2.765  4.2098  0.3237  0.0233
   55MOL0     H 7395   6.213   6.478   2.692 -0.6807  0.1744  0.7529
   55MOL0     H 7396   6.135   6.381   2.567 -1.0541 -2.2005  0.2271
   55MOL0     H 7397   6.320   6.236   2.773  2.6136 -3.6127 -1.7885
   55MOL0     H 7398   6.266   6.185   2.614  0.3103  0.6830 -0.9521
   55MOL0     H 7399   6.445   6.432   2.693  3.5400 -0.1381 -0.3209
   55MOL0     H 7400   6.424   6.371   2.527  0.8992 -0.9657  0.2785
   55MOL0     H 7401   6.654   6.338   2.641  3.3015 -5.2236  0.8478
   55MOL0     H 7402   6.582   6.223   2.750  0.9563  1.4265  0.7138
   55MOL0     H 7403   6.607   6.238   2.446  0.2074  0.0447  0.4528
   55MOL0     H 7404   6.509   6.111   2.527  0.6885 -2.9009  1.9217
   55MOL0     H 7405   6.805   6.174   2.549  0.1322  0.2539  0.1057
   55MOL0     H 7406   6.735   6.042   2.461  1.7799 -1.4631  1.3385
   55MOL0     H 7407   5.732   6.468   2.552 -2.4126  0.9030 -1.0855
   55MOL0     H 7408   5.536   6.550   2.510  0.6430  2.3228  1.2829
   55MOL0     H 7409   5.099   6.628   2.365  2.0680  0.1729  1.1881
   55MOL0     H 7410   4.844   6.668   2.368 -0.3507  1.0050  0.7477
   55MOL0     H 7411   5.441   6.875   2.660 -1.5293 -0.6628 -5.0024
   55MOL0     H 7412   5.660   6.802   2.593  2.5546  0.3700  1.1778
   55MOL0     H 7413   6.093   6.941   2.630  4.6428 -0.2351  2.1737
   55MOL0     H 7414   6.330   6.897   2.607 -1.6391 -0.8262  0.5577
   55MOL0     H 7415   6.573   6.882   2.518 -0.6971 -0.4361 -0.9983
   55MOL0     H 7416   6.493   6.723   2.565 -0.9965  1.9623  1.2489
   55MOL0     H 7417   6.748   6.733   2.507  0.7918  2.6145  0.0304
   55MOL0     H 7418   6.687   6.770   2.341 -0.2499 -1.1460  0.3421
   55MOL0     H 7419   6.576   6.547   2.325 -1.3515 -1.3400  1.5669
   55MOL0     H 7420   6.598   6.510   2.494  2.0920  0.2151  0.8054
   55MOL0     H 7421   6.812   6.520   2.283 -1.0272 -1.9440 -0.7877
   55MOL0     H 7422   6.750   6.376   2.369  2.9706 -1.8950  3.8611
   55MOL0     H 7423   6.983   6.501   2.682 -1.4063 -2.9431  1.2161
   55MOL0     H 7424   6.269   6.778   2.197  0.2772 -0.7878  0.8923
   55MOL0     H 7425   6.030   6.820   2.217 -0.9955 -2.0529  1.9356
   56MOL0     O 7426   3.275   4.288  11.237 -0.2039 -1.1424 -0.1952
   56MOL0     C 7427   3.252   4.189  11.317  0.2598 -0.1926 -0.0705
   56MOL0     O 7428   3.135   4.145  11.347  0.2212 -0.0805  0.4842
   56MOL0     C 7429   3.022   4.197  11.279 -0.2596  0.1373  0.2579
   56MOL0     C 7430   2.974   4.126  11.175 -0.1601  0.4710  0.0450
   56MOL0     C 7431   2.850   4.157  11.116  0.1855 -0.8310  0.0683
   56MOL0     C 7432   2.788   4.272  11.162  0.1096 -0.0038 -0.2243
   56MOL0     O 7433   2.671   4.310  11.109 -0.2664  0.0998  0.5816
   56MOL0     C 7434   2.557   4.222  11.104 -0.5783 -0.1025  0.0941
   56MOL0     C 7435   2.430   4.301  11.089  0.3404  0.3735  0.1489
   56MOL0     C 7436   2.386   4.336  10.943 -0.3360 -0.4710  0.0990
   56MOL0     C 7437   2.439   4.471  10.891  0.4783  0.4283  0.6965
   56MOL0     C 7438   2.420   4.486  10.740 -0.2223 -0.2260  0.5318
   56MOL0     C 7439   2.520   4.592  10.702  0.9365 -0.4377  0.9141
   56MOL0     C 7440   2.542   4.583  10.547  0.3949  0.5968 -0.9587
   56MOL0     C 7441   2.686   4.616  10.498  0.6379  0.7608 -0.1429
   56MOL0     N 7442   2.704   4.575  10.356  0.0290  0.3475 -0.8687
   56MOL0     C 7443   2.817   4.532  10.296  0.5041  0.1627  0.2027
   56MOL0     C 7444   2.775   4.489  10.169  0.4949  0.0763 -0.4795
   56MOL0     C 7445   2.868   4.446  10.058  0.3185  0.2673 -0.3768
   56MOL0     C 7446   2.903   4.292  10.059 -1.2445 -0.1649  0.2740
   56MOL0     C 7447   2.780   4.210  10.026 -0.2125 -0.1386  0.2678
   56MOL0     C 7448   2.733   4.196   9.877  0.2333  0.3860  0.4410
   56MOL0     O 7449   2.617   4.115   9.887  0.1123  0.3905 -0.1290
   56MOL0     C 7450   2.493   4.170   9.877 -0.1638 -0.6030 -0.2878
   56MOL0     C 7451   2.398   4.088   9.826 -0.7825  0.1154  0.1248
   56MOL0     C 7452   2.260   4.124   9.817 -0.7741  0.4577 -0.1894
   56MOL0     C 7453   2.160   4.031   9.753 -0.6516 -0.3483 -0.5706
   56MOL0     C 7454   2.223   4.252   9.862  0.4228  0.0319 -0.4406
   56MOL0     C 7455   2.094   4.312   9.830  0.9700 -0.4639  0.0397
   56MOL0     O 7456   2.044   4.402   9.924 -0.4252 -0.0474  0.0860
   56MOL0     C 7457   1.918   4.462   9.920 -0.2796 -0.0862 -1.7848
   56MOL0     C 7458   1.897   4.569  10.004  0.3105  0.6969  0.1981
   56MOL0     C 7459   1.779   4.642  10.014 -0.1254  0.1484  0.3097
   56MOL0     C 7460   1.676   4.605   9.931 -0.8359 -1.6578  0.4434
   56MOL0     O 7461   1.555   4.670   9.926 -1.1121  1.0540  0.3689
   56MOL0     C 7462   1.503   4.698  10.058  0.7694 -0.5375  0.4595
   56MOL0     C 7463   1.357   4.711  10.056  0.0208  0.0308 -0.7184
   56MOL0     C 7464   1.304   4.820   9.960  0.4470 -0.2725  0.2318
   56MOL0     C 7465   1.154   4.790   9.939  0.6777  0.3072 -0.0698
   56MOL0     C 7466   1.080   4.903   9.863  1.1830  0.0616  0.1763
   56MOL0     C 7467   0.917   4.876   9.856  0.2326 -0.9766 -0.1407
   56MOL0     C 7468   0.861   4.898   9.994  0.4394 -0.5534  0.7636
   56MOL0     C 7469   0.708   4.913   9.994  0.3603 -0.1902 -0.0896
   56MOL0    Cl 7470   0.644   4.862  10.140 -0.0251 -0.8358  0.1808
   56MOL0     C 7471   1.687   4.501   9.844 -0.3439  0.4880  0.4554
   56MOL0     C 7472   1.809   4.427   9.842  0.4338 -0.3677  1.4217
   56MOL0     O 7473   2.039   4.293   9.725  0.0021 -0.2184 -0.5990
   56MOL0     C 7474   2.322   4.339   9.910 -0.6641 -0.0756 -1.0084
   56MOL0     C 7475   2.455   4.294   9.918 -0.1960  0.6430  0.6158
   56MOL0     N 7476   2.639   4.485  10.162 -0.8379 -0.1113 -0.7583
   56MOL0     N 7477   2.600   4.537  10.273  0.3136 -0.2566  0.0936
   56MOL0     C 7478   2.847   4.348  11.267  0.0629  0.0035  0.1549
   56MOL0     C 7479   2.964   4.307  11.327  0.3836 -1.1968 -0.0171
   56MOL0     C 7480   3.374   4.119  11.369 -1.2969 -0.2851 -0.7949
   56MOL0     C 7481   3.501   4.143  11.310  0.1038 -0.3924 -0.3999
   56MOL0     C 7482   3.617   4.072  11.348  0.6880 -0.2989 -0.1310
   56MOL0     C 7483   3.611   3.990  11.457 -0.2485  0.7807  0.7246
   56MOL0     O 7484   3.723   3.922  11.490 -0.1044  0.3792 -0.1403
   56MOL0     C 7485   3.766   3.909  11.626  1.0267 -0.0086 -0.2827
   56MOL0     C 7486   3.900   3.836  11.642 -0.7998  0.3044  0.3952
   56MOL0     C 7487   4.033   3.910  11.590  0.2456  0.0095 -0.1127
   56MOL0     C 7488   4.169   3.848  11.629 -0.2145  1.0670  0.5554
   56MOL0     C 7489   4.219   3.773  11.513 -0.0033 -0.3678  0.3944
   56MOL0     C 7490   4.270   3.720  11.413 -1.2829  0.0003 -0.2675
   56MOL0     C 7491   3.484   3.977  11.521 -0.6302  0.5554 -0.5251
   56MOL0     C 7492   3.366   4.051  11.490 -0.3912  0.8147  0.7283
   56MOL0     H 7493   3.017   4.034  11.137 -0.8658 -0.3709  1.2322
   56MOL0     H 7494   2.805   4.093  11.042 -0.3393 -0.8757  0.4268
   56MOL0     H 7495   2.565   4.151  11.021 -0.4625  0.3169 -0.2571
   56MOL0     H 7496   2.555   4.170  11.201  1.8412  2.0812  1.4517
   56MOL0     H 7497   2.347   4.247  11.135 -1.5250  2.9895  0.0712
   56MOL0     H 7498   2.444   4.395  11.142 -1.7939  0.8382 -0.0229
   56MOL0     H 7499   2.428   4.270  10.866 -1.7579  1.1217 -2.1846
   56MOL0     H 7500   2.277   4.327  10.945 -0.2574 -1.3589  0.5758
   56MOL0     H 7501   2.382   4.554  10.935 -2.3222  1.0762 -3.4693
   56MOL0     H 7502   2.545   4.467  10.919  0.5663 -1.2832  0.1824
   56MOL0     H 7503   2.435   4.389  10.690  0.3931  0.3334 -0.3944
   56MOL0     H 7504   2.323   4.520  10.702  0.5774  1.7928  0.2095
   56MOL0     H 7505   2.489   4.693  10.731  1.2437 -0.5836  1.7814
   56MOL0     H 7506   2.619   4.575  10.746  1.7390  0.7016 -0.3489
   56MOL0     H 7507   2.512   4.481  10.522  0.5164  0.0185  1.0360
   56MOL0     H 7508   2.467   4.643  10.495 -0.9197 -0.4019 -0.2888
   56MOL0     H 7509   2.756   4.556  10.556 -0.3490 -2.6482 -2.2032
   56MOL0     H 7510   2.706   4.724  10.497 -1.1190  1.1243  0.0989
   56MOL0     H 7511   2.918   4.545  10.334 -0.1261  1.6070  1.5344
   56MOL0     H 7512   2.817   4.470   9.964  0.3122  0.9677 -0.2000
   56MOL0     H 7513   2.960   4.502  10.072  0.1670  0.5214 -0.3832
   56MOL0     H 7514   2.942   4.268  10.158  0.5794 -0.8847 -0.5706
   56MOL0     H 7515   2.978   4.257   9.987 -1.8156 -0.5953 -0.1245
   56MOL0     H 7516   2.696   4.255  10.080  0.5151  2.3368 -0.5259
   56MOL0     H 7517   2.798   4.111  10.069 -1.7027 -0.6851 -0.2902
   56MOL0     H 7518   2.799   4.146   9.805 -1.9766  1.2388 -2.3939
   56MOL0     H 7519   2.713   4.296   9.836  0.0246 -0.3632 -1.4012
   56MOL0     H 7520   2.420   3.984   9.807  0.0815  0.6401 -2.1254
   56MOL0     H 7521   2.159   4.055   9.646 -1.8187 -0.8639 -0.6913
   56MOL0     H 7522   2.189   3.927   9.771  1.1929 -0.2603 -2.6846
   56MOL0     H 7523   2.055   4.052   9.776 -0.2120  2.7912 -1.0034
   56MOL0     H 7524   1.970   4.609  10.073 -0.7987  2.7258  0.2672
   56MOL0     H 7525   1.771   4.727  10.082  2.1240  0.4312  0.2862
   56MOL0     H 7526   1.541   4.634  10.138  1.8903  0.9326  1.1509
   56MOL0     H 7527   1.546   4.798  10.071  0.5166 -0.0341 -1.9659
   56MOL0     H 7528   1.322   4.612  10.024  2.5621 -0.2500 -3.0335
   56MOL0     H 7529   1.317   4.728  10.157 -1.4581  3.7847 -1.7541
   56MOL0     H 7530   1.358   4.824   9.865  0.2556 -3.7163 -0.1221
   56MOL0     H 7531   1.314   4.911  10.021  0.2116 -1.6878  2.5065
   56MOL0     H 7532   1.141   4.697   9.883  1.4001  1.0530 -1.5291
   56MOL0     H 7533   1.118   4.793  10.042  4.0351  0.5975  1.2195
   56MOL0     H 7534   1.111   4.905   9.758  0.6724 -2.4066 -0.0793
   56MOL0     H 7535   1.112   5.003   9.894  0.4573  0.2412  0.3576
   56MOL0     H 7536   0.894   4.951   9.780 -1.9744 -0.9361  0.4996
   56MOL0     H 7537   0.893   4.780   9.809 -1.8953  0.3389 -1.9368
   56MOL0     H 7538   0.907   4.977  10.053  2.2615 -0.0575 -1.2018
   56MOL0     H 7539   0.886   4.803  10.043 -0.5901 -0.7187  1.0062
   56MOL0     H 7540   0.661   4.848   9.919  1.3608  0.8496 -1.6685
   56MOL0     H 7541   0.670   5.014   9.977  1.3976  0.2996  0.4707
   56MOL0     H 7542   1.602   4.470   9.784  1.0813  2.2004 -2.6565
   56MOL0     H 7543   1.814   4.343   9.773  2.6599  0.9560 -0.1317
   56MOL0     H 7544   2.298   4.439   9.947  3.7864  0.4196  1.2591
   56MOL0     H 7545   2.518   4.366   9.970 -1.6972  1.3543  1.5003
   56MOL0     H 7546   2.800   4.440  11.302 -0.3014 -0.3788  0.6845
   56MOL0     H 7547   3.013   4.364  11.406  2.5938 -1.7226 -0.9377
   56MOL0     H 7548   3.503   4.220  11.234 -1.4122  0.1577  0.0802
   56MOL0     H 7549   3.704   4.084  11.285 -0.4954  2.5252 -1.4199
   56MOL0     H 7550   3.767   4.009  11.670 -2.4596 -0.2656  0.6721
   56MOL0     H 7551   3.692   3.855  11.686 -0.3653  2.1158  0.0245
   56MOL0     H 7552   3.888   3.734  11.604  0.6650  0.2417  0.0507
   56MOL0     H 7553   3.929   3.811  11.744  0.2835 -1.4154 -0.2881
   56MOL0     H 7554   4.036   4.014  11.623 -0.9625  0.6519 -1.8577
   56MOL0     H 7555   4.010   3.917  11.483 -0.5248 -0.8025 -0.0076
   56MOL0     H 7556   4.156   3.773  11.707 -1.7962 -0.1670 -0.8166
   56MOL0     H 7557   4.238   3.930  11.652  1.6534  0.2560 -1.7025
   56MOL0     H 7558   4.315   3.673  11.328  2.7262 -1.1843  2.2382
   56MOL0     H 7559   3.485   3.913  11.609  0.8377  1.5992  0.2632
   56MOL0     H 7560   3.270   4.045  11.539 -1.8908 -0.4976 -2.1380
   57MOL0     O 7561   2.106   2.170  11.342  0.1254  0.9093 -0.1483
   57MOL0     C 7562   2.088   2.184  11.465 -0.5922 -0.0025 -0.1166
   57MOL0     O 7563   2.132   2.291  11.533 -0.7567 -0.5689 -0.5082
   57MOL0     C 7564   2.192   2.402  11.463 -0.1209  0.3391 -0.3854
   57MOL0     C 7565   2.324   2.389  11.423 -1.4282  0.2919 -0.0545
   57MOL0     C 7566   2.386   2.495  11.351  0.1277  0.5709 -0.0478
   57MOL0     C 7567   2.314   2.612  11.317 -0.1159  0.1705  0.6748
   57MOL0     O 7568   2.364   2.723  11.254 -0.7033  0.8778 -0.1782
   57MOL0     C 7569   2.491   2.708  11.186 -0.7170  0.7753 -0.2418
   57MOL0     C 7570   2.496   2.834  11.088 -0.8834  0.3335  0.3544
   57MOL0     C 7571   2.610   2.811  10.996  0.4096 -0.0863  0.3750
   57MOL0     C 7572   2.745   2.834  11.069 -0.2321  1.1374 -0.4719
   57MOL0     C 7573   2.853   2.857  10.973  1.0225  0.7206  0.4738
   57MOL0     C 7574   2.881   2.728  10.882  0.3773  0.0267  0.3781
   57MOL0     C 7575   3.014   2.741  10.795 -0.0404  0.1259 -0.0862
   57MOL0     C 7576   3.129   2.709  10.893  0.2321  0.0867 -0.3046
   57MOL0     N 7577   3.259   2.729  10.822  0.1730 -0.0109 -0.3543
   57MOL0     C 7578   3.321   2.639  10.733  0.1704  0.0876 -0.5452
   57MOL0     C 7579   3.440   2.702  10.711  0.1628 -0.0725 -0.2195
   57MOL0     C 7580   3.556   2.660  10.631 -0.5872  0.2030  0.9352
   57MOL0     C 7581   3.648   2.569  10.705 -0.1834  1.0405 -0.0847
   57MOL0     C 7582   3.764   2.528  10.614  0.5998 -0.4895  0.0809
   57MOL0     C 7583   3.841   2.427  10.685 -0.5568  0.2966  0.9324
   57MOL0     O 7584   3.913   2.461  10.802  0.2469 -0.0177 -0.3482
   57MOL0     C 7585   4.040   2.512  10.785  0.0923 -0.5800 -0.3212
   57MOL0     C 7586   4.094   2.571  10.666  0.5789  0.7347  0.2177
   57MOL0     C 7587   4.220   2.632  10.655 -0.6388 -0.2821  0.9924
   57MOL0     C 7588   4.254   2.681  10.518  0.7787  0.6858  0.0083
   57MOL0     C 7589   4.303   2.638  10.770 -0.2540  0.0993 -0.3284
   57MOL0     C 7590   4.447   2.697  10.772  0.2287 -0.4973  0.5403
   57MOL0     O 7591   4.504   2.709  10.893 -0.3997 -0.3761 -0.1479
   57MOL0     C 7592   4.637   2.710  10.909  0.7892  0.0304 -0.2559
   57MOL0     C 7593   4.696   2.597  10.965  0.4812 -0.3494 -1.2179
   57MOL0     C 7594   4.839   2.601  10.992  0.2371 -0.3648 -0.0166
   57MOL0     C 7595   4.911   2.717  10.960 -0.4602 -0.6281 -0.0187
   57MOL0     O 7596   5.047   2.710  10.953  1.0056  0.0291  0.1181
   57MOL0     C 7597   5.100   2.732  10.817  0.3068  0.5032 -0.2076
   57MOL0     C 7598   5.242   2.685  10.810 -0.2901 -0.3097 -0.1056
   57MOL0     C 7599   5.336   2.783  10.873 -0.7428  0.2633  0.2630
   57MOL0     C 7600   5.485   2.741  10.844  0.2265  0.3799 -0.2291
   57MOL0     C 7601   5.576   2.851  10.882 -0.7809 -0.2307  0.7094
   57MOL0     C 7602   5.715   2.806  10.913  0.6058  0.0815 -0.2233
   57MOL0     C 7603   5.803   2.924  10.955  0.7940  0.2908  0.5539
   57MOL0     C 7604   5.929   2.891  11.030 -0.3912 -0.6149  0.1764
   57MOL0    Cl 7605   6.009   2.740  10.966  0.3380  0.4592  0.2303
   57MOL0     C 7606   4.845   2.824  10.902  1.3236 -0.2437  0.0431
   57MOL0     C 7607   4.707   2.827  10.873 -0.4786  0.8249 -0.4420
   57MOL0     O 7608   4.504   2.726  10.668 -0.4510  0.2458  0.0353
   57MOL0     C 7609   4.254   2.596  10.893  0.6049  0.0034  0.3102
   57MOL0     C 7610   4.126   2.531  10.893 -0.6199  0.6745  0.2411
   57MOL0     N 7611   3.443   2.819  10.788  0.0640 -0.6536  0.3861
   57MOL0     N 7612   3.334   2.840  10.846 -0.6356  0.3256 -0.3248
   57MOL0     C 7613   2.181   2.620  11.372 -0.2040  0.6716 -0.7538
   57MOL0     C 7614   2.115   2.520  11.449 -0.6296 -0.1662 -0.3706
   57MOL0     C 7615   2.008   2.085  11.537  0.2778 -0.6400  0.1076
   57MOL0     C 7616   2.030   2.067  11.672 -0.5240  0.0076  0.0732
   57MOL0     C 7617   1.957   1.984  11.757 -0.5656  0.3132  0.6890
   57MOL0     C 7618   1.862   1.896  11.693  0.7608 -0.1763 -0.6706
   57MOL0     O 7619   1.785   1.808  11.761  0.2049 -0.1319 -0.7584
   57MOL0     C 7620   1.817   1.772  11.904  0.4086  0.1493  1.0147
   57MOL0     C 7621   1.716   1.658  11.954  0.2443  0.3649  0.1901
   57MOL0     C 7622   1.756   1.516  11.909  1.4266 -0.0903 -0.0893
   57MOL0     C 7623   1.875   1.440  11.984  0.3234 -0.1692  0.3698
   57MOL0     C 7624   1.876   1.475  12.132  0.6042  0.6102 -0.5816
   57MOL0     C 7625   1.891   1.501  12.248 -0.5577  0.2212  0.1382
   57MOL0     C 7626   1.840   1.909  11.557 -0.2806  0.1551  0.0950
   57MOL0     C 7627   1.903   2.013  11.483  0.5485 -0.5296 -0.1973
   57MOL0     H 7628   2.387   2.303  11.443 -0.1342  0.8083 -1.7159
   57MOL0     H 7629   2.492   2.482  11.330  0.5591  1.3647  1.4833
   57MOL0     H 7630   2.574   2.711  11.257  2.2749  0.2282 -3.4289
   57MOL0     H 7631   2.498   2.611  11.136 -1.4410  0.6053 -0.0239
   57MOL0     H 7632   2.403   2.852  11.034 -0.0682  1.2316 -0.8168
   57MOL0     H 7633   2.519   2.927  11.141 -0.6312 -0.5915  1.9575
   57MOL0     H 7634   2.589   2.713  10.952  2.0829 -0.8552  1.2083
   57MOL0     H 7635   2.615   2.880  10.912  0.4182 -3.1197 -2.3170
   57MOL0     H 7636   2.748   2.915  11.143  0.7898  0.5655  0.1455
   57MOL0     H 7637   2.757   2.744  11.131 -0.7748  1.8167  0.6478
   57MOL0     H 7638   2.833   2.944  10.910  1.0971  1.7596  1.8510
   57MOL0     H 7639   2.932   2.894  11.038 -1.6023  1.3594  3.5256
   57MOL0     H 7640   2.878   2.633  10.937 -0.7054  0.6374  1.4065
   57MOL0     H 7641   2.799   2.714  10.810  1.4608  2.0934 -1.3749
   57MOL0     H 7642   3.016   2.683  10.703  2.5627  0.1809 -0.1499
   57MOL0     H 7643   3.027   2.846  10.769 -1.2019 -0.5588 -4.0204
   57MOL0     H 7644   3.126   2.607  10.931 -0.8046 -0.7810 -2.5133
   57MOL0     H 7645   3.116   2.779  10.976  0.5940 -0.3933  0.1603
   57MOL0     H 7646   3.270   2.551  10.696 -1.4778  0.4864  0.6714
   57MOL0     H 7647   3.521   2.604  10.543 -0.3460  0.3398  0.7505
   57MOL0     H 7648   3.613   2.749  10.602  3.0675 -1.5571  2.1602
   57MOL0     H 7649   3.598   2.476  10.732 -0.6700  1.5753  0.9238
   57MOL0     H 7650   3.688   2.611  10.798  3.2781  2.0421 -1.8446
   57MOL0     H 7651   3.825   2.619  10.608  0.6552 -0.3816  1.8982
   57MOL0     H 7652   3.732   2.489  10.517 -1.2644 -1.5987  1.0947
   57MOL0     H 7653   3.906   2.369  10.618 -1.4313 -1.9850  1.9272
   57MOL0     H 7654   3.772   2.345  10.709  1.3629 -1.3917  0.9332
   57MOL0     H 7655   4.031   2.569  10.578  1.4037  2.5879 -0.4688
   57MOL0     H 7656   4.288   2.784  10.529  1.6714  0.3601  0.4590
   57MOL0     H 7657   4.344   2.633  10.477  2.9023  3.7152  0.7597
   57MOL0     H 7658   4.173   2.665  10.447 -0.2997 -1.0468  1.5302
   57MOL0     H 7659   4.646   2.501  10.964  0.2035 -0.2037 -1.2821
   57MOL0     H 7660   4.881   2.505  11.020 -3.9761 -2.0785  1.2905
   57MOL0     H 7661   5.033   2.686  10.744 -1.9526 -1.3339  2.8011
   57MOL0     H 7662   5.107   2.840  10.802  0.7635  0.8782  2.3248
   57MOL0     H 7663   5.238   2.598  10.877 -1.0308  2.1156  3.2577
   57MOL0     H 7664   5.277   2.663  10.709  0.3944  0.6701 -0.0952
   57MOL0     H 7665   5.318   2.786  10.981  0.6895  1.1185  0.5042
   57MOL0     H 7666   5.330   2.883  10.827 -1.5022  0.1927  0.1903
   57MOL0     H 7667   5.502   2.658  10.913  0.1492  0.9380  0.4747
   57MOL0     H 7668   5.505   2.721  10.738  1.3440 -0.0489  0.0399
   57MOL0     H 7669   5.534   2.913  10.962 -0.4008 -1.6317  2.0376
   57MOL0     H 7670   5.585   2.923  10.800 -4.0691  3.2885  3.0725
   57MOL0     H 7671   5.710   2.732  10.994 -1.1863  1.4149  0.9606
   57MOL0     H 7672   5.748   2.756  10.821 -0.9259 -3.7579  1.0767
   57MOL0     H 7673   5.751   2.992  11.022  0.3760 -1.1501  1.7339
   57MOL0     H 7674   5.811   2.981  10.862  0.2030  3.3194  2.2335
   57MOL0     H 7675   5.902   2.876  11.135  0.9747 -0.1600  0.6172
   57MOL0     H 7676   6.006   2.968  11.020 -0.4488 -0.7954 -2.1864
   57MOL0     H 7677   4.904   2.911  10.874  0.0360  0.9456  0.8785
   57MOL0     H 7678   4.661   2.913  10.824  0.9963  2.4167  0.8511
   57MOL0     H 7679   4.321   2.593  10.979  0.4955  0.8206  0.4324
   57MOL0     H 7680   4.106   2.485  10.990 -1.2403  0.9335  0.2361
   57MOL0     H 7681   2.129   2.714  11.361 -0.7749  0.9685  3.0682
   57MOL0     H 7682   2.018   2.543  11.492  0.0402  3.1627 -0.3797
   57MOL0     H 7683   2.106   2.127  11.720 -2.4542  2.6824 -0.0049
   57MOL0     H 7684   1.979   1.988  11.863  2.0712  2.0651  0.1834
   57MOL0     H 7685   1.923   1.748  11.917  0.1725 -0.9554  0.9774
   57MOL0     H 7686   1.800   1.857  11.971 -0.9985  0.2075  0.6149
   57MOL0     H 7687   1.613   1.681  11.924 -1.4046 -4.8497  0.8738
   57MOL0     H 7688   1.720   1.661  12.063 -0.7919 -2.0745  0.3539
   57MOL0     H 7689   1.776   1.515  11.801  1.9563 -2.1165 -0.0185
   57MOL0     H 7690   1.671   1.450  11.930  0.6961  1.3652  1.7550
   57MOL0     H 7691   1.969   1.477  11.942  0.2795 -0.5023 -0.0404
   57MOL0     H 7692   1.873   1.332  11.965  1.9600  0.0089 -1.1003
   57MOL0     H 7693   1.902   1.527  12.352  0.3904 -0.6150  0.2576
   57MOL0     H 7694   1.750   1.864  11.516 -0.4395  0.7980 -0.2834
   57MOL0     H 7695   1.886   2.028  11.377  0.4796  3.5781  0.2273
   58MOL0     O 7696   8.047  10.399   4.522 -0.0498  0.3847  0.0130
   58MOL0     C 7697   7.988  10.375   4.630 -0.5196  0.0556 -0.0993
   58MOL0     O 7698   8.045  10.371   4.751  0.2507  0.3681 -0.5491
   58MOL0     C 7699   8.171  10.424   4.754  0.4091  0.7391 -0.0944
   58MOL0     C 7700   8.273  10.352   4.819  0.1992  0.0986  0.4286
   58MOL0     C 7701   8.391  10.421   4.845  0.7622 -0.3604 -0.0149
   58MOL0     C 7702   8.411  10.556   4.817  0.4785  0.0409 -0.0958
   58MOL0     O 7703   8.521  10.635   4.851  0.3908  0.9281 -0.8102
   58MOL0     C 7704   8.586  10.587   4.955  0.5517  0.7606 -0.2755
   58MOL0     C 7705   8.685  10.685   5.014 -0.0308  1.1190 -0.3767
   58MOL0     C 7706   8.617  10.788   5.108 -0.3663  0.2728  0.0828
   58MOL0     C 7707   8.492  10.856   5.042 -0.2558  1.0987 -0.1906
   58MOL0     C 7708   8.451  10.965   5.129 -0.1876  0.4756 -0.5299
   58MOL0     C 7709   8.320  11.031   5.091 -0.2990  0.2838  0.0054
   58MOL0     C 7710   8.322  11.092   4.949  0.0592  0.2423  0.1299
   58MOL0     C 7711   8.187  11.179   4.913 -0.3220 -0.2367  0.3293
   58MOL0     N 7712   8.057  11.137   4.963 -0.7598 -0.7495  0.1655
   58MOL0     C 7713   8.011  11.105   5.087  0.3071 -0.0823  0.4948
   58MOL0     C 7714   7.875  11.100   5.071 -0.3485 -0.4435  0.0158
   58MOL0     C 7715   7.767  11.078   5.180 -0.2305 -0.2822 -0.1005
   58MOL0     C 7716   7.760  10.939   5.233 -0.0397 -0.2907  0.5006
   58MOL0     C 7717   7.728  10.833   5.131 -0.1327 -0.3379 -0.7602
   58MOL0     C 7718   7.697  10.700   5.196 -0.5575 -0.4958  0.0498
   58MOL0     O 7719   7.580  10.719   5.282 -0.1092  0.0187 -0.1249
   58MOL0     C 7720   7.454  10.687   5.232  0.4380 -0.3527 -0.7423
   58MOL0     C 7721   7.352  10.671   5.337 -0.1547  0.4282  0.2962
   58MOL0     C 7722   7.216  10.631   5.307 -0.0759 -0.6669 -0.1406
   58MOL0     C 7723   7.119  10.623   5.423 -0.4864  1.0349  0.5373
   58MOL0     C 7724   7.182  10.622   5.166  0.2897 -0.2504  0.5796
   58MOL0     C 7725   7.038  10.603   5.113  0.0991 -1.1936  1.4168
   58MOL0     O 7726   7.010  10.595   4.975  0.0438  0.2064  0.0100
   58MOL0     C 7727   6.887  10.636   4.940  0.4779 -0.4618 -0.2946
   58MOL0     C 7728   6.841  10.766   4.952  0.0277  0.0183 -0.6454
   58MOL0     C 7729   6.700  10.797   4.946 -0.2982  0.4366  0.8501
   58MOL0     C 7730   6.605  10.706   4.897  0.0104  0.4377 -0.4075
   58MOL0     O 7731   6.472  10.728   4.897  0.6170  0.1927  0.6797
   58MOL0     C 7732   6.411  10.841   4.974 -0.1804 -0.9209 -0.3940
   58MOL0     C 7733   6.259  10.825   4.975  0.2403  0.7419 -0.0216
   58MOL0     C 7734   6.213  10.756   5.112  0.0808  0.0264  0.1299
   58MOL0     C 7735   6.058  10.765   5.142  0.0976 -0.1466  1.0548
   58MOL0     C 7736   6.004  10.683   5.259 -0.2289  0.0009 -1.1466
   58MOL0     C 7737   5.856  10.669   5.260  0.3349 -0.2075  0.9481
   58MOL0     C 7738   5.810  10.627   5.394 -0.0963 -0.4723  0.9640
   58MOL0     C 7739   5.659  10.597   5.399  0.7132  0.2448  0.0082
   58MOL0    Cl 7740   5.609  10.591   5.558 -0.3502  0.1344 -0.0110
   58MOL0     C 7741   6.651  10.583   4.870 -0.1779  0.2196  1.2253
   58MOL0     C 7742   6.789  10.543   4.890  0.3210  0.2991 -0.5215
   58MOL0     O 7743   6.951  10.603   5.193 -0.1216  0.1877 -0.8636
   58MOL0     C 7744   7.278  10.644   5.069 -0.1330 -0.4059  0.5058
   58MOL0     C 7745   7.411  10.675   5.102 -0.0923  0.7735 -0.4972
   58MOL0     N 7746   7.842  11.144   4.950 -0.6673 -0.0606  0.6860
   58MOL0     N 7747   7.952  11.166   4.883 -0.0726 -0.5265  0.5558
   58MOL0     C 7748   8.304  10.620   4.754  0.5480  0.0100 -0.1515
   58MOL0     C 7749   8.186  10.558   4.714 -0.1357  0.0653 -0.3215
   58MOL0     C 7750   7.843  10.347   4.641 -0.7499  0.6109  1.0093
   58MOL0     C 7751   7.795  10.260   4.733  0.3542  0.0206  0.0497
   58MOL0     C 7752   7.664  10.220   4.733 -0.7341  0.4414 -0.7148
   58MOL0     C 7753   7.566  10.281   4.659  0.3127 -0.2856 -0.3116
   58MOL0     O 7754   7.439  10.244   4.655  0.4391 -0.4755 -0.5680
   58MOL0     C 7755   7.409  10.114   4.691  0.1483 -0.2008 -0.8904
   58MOL0     C 7756   7.287  10.066   4.607  0.1678  0.0408  0.8789
   58MOL0     C 7757   7.203   9.956   4.673  0.3450 -0.4372  0.1155
   58MOL0     C 7758   7.084   9.930   4.579 -0.9023 -0.5503 -0.2584
   58MOL0     C 7759   6.963  10.023   4.591 -0.3426 -0.7569  0.3587
   58MOL0     C 7760   6.867  10.100   4.602  0.4047  0.3717  0.7557
   58MOL0     C 7761   7.607  10.366   4.563  0.1317  1.0709 -0.2022
   58MOL0     C 7762   7.746  10.399   4.549  0.4653  0.2920 -1.0599
   58MOL0     H 7763   8.261  10.253   4.861  2.1556  0.1017  1.1116
   58MOL0     H 7764   8.479  10.377   4.891  2.7283  1.7857 -1.4731
   58MOL0     H 7765   8.521  10.552   5.035  1.5994 -1.4965 -0.3357
   58MOL0     H 7766   8.642  10.505   4.910 -1.3526  0.2432 -1.8584
   58MOL0     H 7767   8.760  10.627   5.068  0.1539  1.5070 -0.2070
   58MOL0     H 7768   8.736  10.747   4.940  1.7671  0.8251  0.5673
   58MOL0     H 7769   8.579  10.735   5.196  0.1086  1.4920  1.0528
   58MOL0     H 7770   8.688  10.868   5.133 -3.2357  2.8456  0.6349
   58MOL0     H 7771   8.529  10.894   4.947 -0.6466 -2.3223 -1.8716
   58MOL0     H 7772   8.409  10.791   5.015  1.8816 -2.2265  0.5696
   58MOL0     H 7773   8.437  10.918   5.227  1.4826  0.0309 -0.4756
   58MOL0     H 7774   8.528  11.042   5.119 -1.2083  1.4589 -1.1183
   58MOL0     H 7775   8.236  10.962   5.095 -1.3443  1.5249  3.6036
   58MOL0     H 7776   8.309  11.107   5.169  1.3647  0.5349  0.0317
   58MOL0     H 7777   8.412  11.154   4.953  1.9365 -2.3662  1.7167
   58MOL0     H 7778   8.340  11.019   4.869 -1.0559  2.4054 -2.2296
   58MOL0     H 7779   8.192  11.201   4.806 -0.7912 -1.0921  0.1269
   58MOL0     H 7780   8.204  11.279   4.954  1.4143 -0.3490 -0.0511
   58MOL0     H 7781   8.065  11.071   5.175  0.6113  0.5560  0.5562
   58MOL0     H 7782   7.788  11.144   5.265 -2.4946  0.5623 -0.1324
   58MOL0     H 7783   7.670  11.113   5.142 -0.0286  0.7988  0.3163
   58MOL0     H 7784   7.682  10.933   5.308 -0.0419 -0.0249  0.5215
   58MOL0     H 7785   7.852  10.919   5.289 -1.4203 -1.7399  2.3464
   58MOL0     H 7786   7.814  10.827   5.063  0.3114 -0.8072 -0.1711
   58MOL0     H 7787   7.633  10.850   5.080 -0.1300 -1.2097 -1.0770
   58MOL0     H 7788   7.786  10.668   5.249 -0.9242  0.3016  1.1742
   58MOL0     H 7789   7.684  10.631   5.112 -0.5059 -0.1760 -0.2229
   58MOL0     H 7790   7.395  10.677   5.436  1.2359  2.1274 -0.3614
   58MOL0     H 7791   7.139  10.694   5.504  0.7712 -0.3651  1.5288
   58MOL0     H 7792   7.013  10.640   5.402 -0.0988  2.7744 -0.1762
   58MOL0     H 7793   7.123  10.521   5.463 -0.6107  1.3099  1.2669
   58MOL0     H 7794   6.904  10.848   4.986  0.0774  0.0338 -0.7728
   58MOL0     H 7795   6.679  10.899   4.978  0.0974  0.5693  0.6952
   58MOL0     H 7796   6.451  10.855   5.075 -0.7279 -0.0218 -0.2943
   58MOL0     H 7797   6.442  10.936   4.931 -0.3628  0.5052  2.3653
   58MOL0     H 7798   6.218  10.926   4.982 -0.5887  0.2782  3.8229
   58MOL0     H 7799   6.217  10.769   4.890 -1.9846 -1.1220  2.1442
   58MOL0     H 7800   6.266  10.805   5.194 -1.7730  0.9953  0.8008
   58MOL0     H 7801   6.253  10.654   5.110  2.0894  0.7553 -1.5148
   58MOL0     H 7802   6.023  10.869   5.143 -0.8677 -0.4406  0.0327
   58MOL0     H 7803   6.012  10.731   5.048  1.1623 -2.0538  1.1707
   58MOL0     H 7804   6.054  10.722   5.349 -0.9237 -1.9794  0.1530
   58MOL0     H 7805   6.035  10.579   5.254 -1.9056 -0.8405  2.5120
   58MOL0     H 7806   5.816  10.770   5.247  2.0693  0.2140 -1.6436
   58MOL0     H 7807   5.821  10.607   5.177 -1.6916  3.5340 -1.2444
   58MOL0     H 7808   5.831  10.705   5.468 -1.2541  0.6019  0.2045
   58MOL0     H 7809   5.871  10.543   5.428  0.4686  0.4151  2.2000
   58MOL0     H 7810   5.623  10.501   5.361 -2.1029  1.1977  0.0647
   58MOL0     H 7811   5.598  10.670   5.345  1.4007  1.4960  0.8393
   58MOL0     H 7812   6.579  10.506   4.843  0.4533  0.0955 -0.2285
   58MOL0     H 7813   6.825  10.442   4.875  0.0802  0.3481 -1.4663
   58MOL0     H 7814   7.266  10.645   4.962 -0.0427 -1.0173  0.4844
   58MOL0     H 7815   7.487  10.665   5.024  0.5861  0.5121  0.1888
   58MOL0     H 7816   8.331  10.724   4.738  4.0675 -0.4984  1.4800
   58MOL0     H 7817   8.107  10.612   4.661 -1.1191 -0.5563  0.4710
   58MOL0     H 7818   7.865  10.217   4.804 -0.4138 -1.6987 -0.1785
   58MOL0     H 7819   7.630  10.151   4.810 -1.6836 -0.3108 -1.7818
   58MOL0     H 7820   7.493  10.044   4.689  1.0593  0.7709  1.0196
   58MOL0     H 7821   7.372  10.117   4.794 -0.2429 -3.0359 -0.8824
   58MOL0     H 7822   7.332  10.022   4.517  0.3252 -1.7634  1.8038
   58MOL0     H 7823   7.221  10.152   4.588 -1.8024 -1.2401  1.6590
   58MOL0     H 7824   7.166   9.988   4.771 -1.2152 -3.1855  0.5182
   58MOL0     H 7825   7.261   9.865   4.688  1.9059  0.4300 -0.4217
   58MOL0     H 7826   7.051   9.827   4.597  1.1826 -1.7396 -2.6067
   58MOL0     H 7827   7.110   9.930   4.473  0.5133  4.8402 -0.1771
   58MOL0     H 7828   6.786  10.167   4.623  0.4874  0.5197  0.6043
   58MOL0     H 7829   7.533  10.407   4.494  2.1277  1.9916 -1.8851
   58MOL0     H 7830   7.790  10.465   4.474 -2.0463  2.2024 -0.9918
   59MOL0     O 7831   9.220   3.505  10.268 -0.6544 -0.3452  0.2641
   59MOL0     C 7832   9.161   3.563  10.180 -0.3151 -0.0628 -0.0843
   59MOL0     O 7833   9.197   3.574  10.045  0.9625  0.2814  0.7914
   59MOL0     C 7834   9.308   3.504   9.991  0.0530 -0.1332 -0.2612
   59MOL0     C 7835   9.287   3.388   9.904  0.8735 -0.9699 -0.0828
   59MOL0     C 7836   9.393   3.312   9.862 -0.3374  0.3606 -0.8151
   59MOL0     C 7837   9.523   3.333   9.904 -0.8708  0.9301 -0.1197
   59MOL0     O 7838   9.620   3.240   9.856  0.3517  0.5864 -0.5881
   59MOL0     C 7839   9.757   3.257   9.904 -0.6659  0.0838 -0.4049
   59MOL0     C 7840   9.846   3.137   9.865  0.2363  0.3083 -0.7513
   59MOL0     C 7841   9.997   3.158   9.886  0.1476  0.3579  0.0016
   59MOL0     C 7842  10.035   3.100  10.027  0.5730 -0.0127 -0.5220
   59MOL0     C 7843  10.183   3.149  10.055  1.1838 -0.2063  0.1931
   59MOL0     C 7844  10.288   3.076   9.965 -0.2299 -0.5157 -0.4895
   59MOL0     C 7845  10.424   3.081  10.040 -0.3535 -0.6205 -0.0366
   59MOL0     C 7846  10.516   2.978   9.972  0.3371  0.4596 -0.3195
   59MOL0     N 7847  10.558   3.017   9.836 -0.3046  0.5247 -0.4037
   59MOL0     C 7848  10.488   2.998   9.719  0.1187 -0.6851 -0.4890
   59MOL0     C 7849  10.560   3.065   9.625 -0.1546 -0.0144  0.3875
   59MOL0     C 7850  10.524   3.085   9.480 -0.3069  0.3690  0.4365
   59MOL0     C 7851  10.409   3.185   9.457  0.0696 -0.2734 -0.3882
   59MOL0     C 7852  10.430   3.325   9.520 -0.3244  0.3330 -0.5707
   59MOL0     C 7853  10.557   3.401   9.480  0.2444 -0.0999 -0.2935
   59MOL0     O 7854  10.573   3.373   9.337  0.2110  0.8118  0.2873
   59MOL0     C 7855  10.683   3.415   9.265  0.1947 -0.4505  0.5108
   59MOL0     C 7856  10.685   3.389   9.128 -0.0256  0.7381  0.1680
   59MOL0     C 7857  10.788   3.442   9.050  0.4406 -0.2626  0.8566
   59MOL0     C 7858  10.764   3.429   8.907  0.0981  0.3174  0.7329
   59MOL0     C 7859  10.905   3.502   9.104 -0.4642 -0.5442  0.0665
   59MOL0     C 7860  11.019   3.550   9.027 -0.3214 -0.7886  1.1901
   59MOL0     O 7861  11.116   3.617   9.095  0.0815 -0.7118 -0.3967
   59MOL0     C 7862  11.248   3.638   9.050  0.3685  0.7096 -0.6535
   59MOL0     C 7863  11.350   3.622   9.151 -1.3147 -0.3187  0.7931
   59MOL0     C 7864  11.490   3.631   9.113 -0.5924  0.4234 -0.4548
   59MOL0     C 7865  11.516   3.635   8.978 -0.1128 -0.2715  0.0545
   59MOL0     O 7866  11.638   3.646   8.926 -0.3767 -0.1052 -0.1185
   59MOL0     C 7867  11.740   3.723   8.991 -0.4961 -0.2192 -0.6165
   59MOL0     C 7868  11.872   3.694   8.928 -0.6240  0.1658 -1.1501
   59MOL0     C 7869  11.991   3.707   9.026 -0.6204  0.1318  0.2913
   59MOL0     C 7870  12.128   3.718   8.944  0.1447  0.1575  0.1868
   59MOL0     C 7871  12.166   3.866   8.918 -0.9748 -0.1649  0.3255
   59MOL0     C 7872  12.277   3.900   8.829  0.3902 -0.2989  1.5820
   59MOL0     C 7873  12.229   3.860   8.680  0.4611  0.3859  0.0663
   59MOL0     C 7874  12.322   3.916   8.568  0.2354  0.7376  0.2425
   59MOL0    Cl 7875  12.304   4.097   8.571 -0.0349  0.0749 -0.3364
   59MOL0     C 7876  11.414   3.659   8.877 -0.4911 -0.5714 -0.2965
   59MOL0     C 7877  11.281   3.663   8.918 -0.3333 -0.3645 -0.3728
   59MOL0     O 7878  11.027   3.516   8.909  0.0984 -0.4115 -0.4803
   59MOL0     C 7879  10.915   3.511   9.244  1.8082 -0.7876 -0.7455
   59MOL0     C 7880  10.789   3.476   9.322 -0.0394  0.1961 -0.4248
   59MOL0     N 7881  10.668   3.131   9.681 -0.6810 -0.0241 -0.9636
   59MOL0     N 7882  10.665   3.095   9.806 -0.0346  0.0752 -0.3728
   59MOL0     C 7883   9.551   3.443   9.985 -0.4000  0.2779  0.0453
   59MOL0     C 7884   9.444   3.522  10.034  0.4850  0.7382 -0.3617
   59MOL0     C 7885   9.022   3.626  10.222  0.0268  0.0321 -0.0572
   59MOL0     C 7886   8.924   3.612  10.130 -0.0999  0.0486 -0.2222
   59MOL0     C 7887   8.792   3.650  10.152 -1.0925  0.3915  0.5078
   59MOL0     C 7888   8.756   3.707  10.274 -0.3769 -0.1095  0.6386
   59MOL0     O 7889   8.627   3.750  10.288  0.1789  0.4600 -0.3036
   59MOL0     C 7890   8.577   3.797  10.415 -0.6603 -0.1776 -0.2483
   59MOL0     C 7891   8.600   3.950  10.429  0.4734  0.4254  0.2962
   59MOL0     C 7892   8.482   4.025  10.360 -0.1480  0.5960 -0.1684
   59MOL0     C 7893   8.362   4.052  10.452  0.2128 -0.4089  0.1716
   59MOL0     C 7894   8.251   4.103  10.364 -0.2327  0.8713  0.3070
   59MOL0     C 7895   8.148   4.134  10.301 -0.0229 -0.4927 -0.3510
   59MOL0     C 7896   8.859   3.720  10.374 -0.0058  0.0804 -0.0484
   59MOL0     C 7897   8.987   3.676  10.345  0.3933  0.4641 -0.0287
   59MOL0     H 7898   9.185   3.367   9.873  1.0611  0.3285 -1.7110
   59MOL0     H 7899   9.380   3.224   9.799  4.2380 -0.9566 -0.3100
   59MOL0     H 7900   9.807   3.349   9.871 -1.3893 -0.3489 -2.8889
   59MOL0     H 7901   9.758   3.251  10.013  2.8204  0.3866 -0.3109
   59MOL0     H 7902   9.809   3.041   9.903 -0.0141 -0.7821 -3.4613
   59MOL0     H 7903   9.845   3.121   9.756  1.8685 -1.6487 -0.5422
   59MOL0     H 7904  10.047   3.107   9.803  3.1764 -0.1323  1.9775
   59MOL0     H 7905  10.022   3.264   9.887 -3.1891  1.5073  5.4335
   59MOL0     H 7906   9.959   3.133  10.098 -0.4105  1.3700 -2.1498
   59MOL0     H 7907  10.025   2.991  10.023 -1.9053  0.0193  2.1750
   59MOL0     H 7908  10.200   3.257  10.053  2.1672 -0.3498  0.3151
   59MOL0     H 7909  10.205   3.110  10.155 -1.6391  0.7722  1.3067
   59MOL0     H 7910  10.240   2.978   9.967 -1.7895  0.1978  1.3609
   59MOL0     H 7911  10.289   3.123   9.866 -2.0556 -1.1363 -0.8400
   59MOL0     H 7912  10.453   3.186  10.033 -3.3903  0.2075 -2.1447
   59MOL0     H 7913  10.410   3.060  10.147 -0.2410  0.3874  0.1854
   59MOL0     H 7914  10.451   2.890   9.961 -1.1281  1.6701 -1.9851
   59MOL0     H 7915  10.605   2.960  10.033 -0.3771  0.1269  0.6603
   59MOL0     H 7916  10.393   2.945   9.714 -0.4483  0.3585 -1.0838
   59MOL0     H 7917  10.603   3.133   9.422 -2.2366  3.2680 -0.0163
   59MOL0     H 7918  10.501   2.990   9.431  1.6065  1.5867 -3.1714
   59MOL0     H 7919  10.315   3.155   9.505  0.3749  1.0132  1.0855
   59MOL0     H 7920  10.401   3.202   9.349  0.6711  3.4463  0.0295
   59MOL0     H 7921  10.417   3.320   9.629  0.7785 -4.6818 -0.4568
   59MOL0     H 7922  10.350   3.388   9.480  1.3601  3.2903  0.3667
   59MOL0     H 7923  10.639   3.360   9.538  0.3732  1.7108  0.8884
   59MOL0     H 7924  10.540   3.509   9.495 -1.0556 -0.3400  0.1524
   59MOL0     H 7925  10.597   3.333   9.099  1.9959 -2.6710  0.1081
   59MOL0     H 7926  10.813   3.338   8.872 -5.5805 -3.1704  0.6228
   59MOL0     H 7927  10.658   3.411   8.888  0.1234 -0.8241  1.5958
   59MOL0     H 7928  10.784   3.521   8.851  0.7600  0.7579  1.6623
   59MOL0     H 7929  11.331   3.613   9.257 -1.1390 -0.0625  0.8480
   59MOL0     H 7930  11.563   3.613   9.191 -1.8450 -2.0386  0.2490
   59MOL0     H 7931  11.725   3.832   8.994 -2.5308 -0.4639 -0.5973
   59MOL0     H 7932  11.744   3.689   9.094  1.6605  0.8279 -0.3060
   59MOL0     H 7933  11.865   3.592   8.887 -3.9105  0.2884 -1.1077
   59MOL0     H 7934  11.880   3.757   8.839 -1.9225 -1.0013 -2.1480
   59MOL0     H 7935  12.004   3.620   9.091  1.8760  0.2998  0.1026
   59MOL0     H 7936  11.986   3.800   9.083  1.6766 -0.7694  2.1088
   59MOL0     H 7937  12.207   3.659   8.991  0.8119 -0.2195 -1.3502
   59MOL0     H 7938  12.102   3.680   8.845  1.8998  0.8510 -0.5898
   59MOL0     H 7939  12.202   3.903   9.015  2.1526  0.4901 -0.9533
   59MOL0     H 7940  12.077   3.921   8.888 -1.7700 -1.7610 -0.3001
   59MOL0     H 7941  12.304   4.006   8.834  2.9628 -0.6749 -1.3295
   59MOL0     H 7942  12.371   3.855   8.863  1.7951  1.2527 -0.0220
   59MOL0     H 7943  12.127   3.892   8.659  0.9150  1.5306 -0.5040
   59MOL0     H 7944  12.229   3.752   8.670 -1.6722  0.0734  2.4003
   59MOL0     H 7945  12.292   3.871   8.474  2.5471  0.6732 -0.5446
   59MOL0     H 7946  12.426   3.894   8.594 -0.3743 -2.8640  0.0931
   59MOL0     H 7947  11.443   3.687   8.776  1.3998 -1.1905  0.0218
   59MOL0     H 7948  11.204   3.675   8.841 -0.2954 -1.2888 -0.5721
   59MOL0     H 7949  11.004   3.539   9.299  1.2424 -2.6654  1.2922
   59MOL0     H 7950  10.783   3.482   9.430 -0.1422 -0.6229 -0.3778
   59MOL0     H 7951   9.650   3.467  10.023  0.5769 -3.3647  0.1151
   59MOL0     H 7952   9.461   3.583  10.122 -2.7859 -2.1565  2.6287
   59MOL0     H 7953   8.949   3.576  10.030 -0.8589  2.1589 -1.2322
   59MOL0     H 7954   8.724   3.663  10.069  0.7246  1.9712 -0.8253
   59MOL0     H 7955   8.475   3.766  10.437 -0.4043  0.1082  1.4415
   59MOL0     H 7956   8.637   3.733  10.480 -1.6266  0.2816  1.1326
   59MOL0     H 7957   8.689   3.976  10.372 -0.1231 -2.2743 -2.1806
   59MOL0     H 7958   8.615   3.974  10.534  1.2245  3.2731 -0.3880
   59MOL0     H 7959   8.436   3.963  10.282 -0.5193  0.2453  0.3175
   59MOL0     H 7960   8.522   4.114  10.312  1.5266 -0.3234 -0.5422
   59MOL0     H 7961   8.384   4.134  10.520  0.5505 -1.0027  0.7879
   59MOL0     H 7962   8.338   3.959  10.503  1.7495 -0.0633  1.5849
   59MOL0     H 7963   8.071   4.153  10.229 -1.4193 -3.5783  0.1200
   59MOL0     H 7964   8.842   3.769  10.469  2.8937  1.2386 -0.0221
   59MOL0     H 7965   9.068   3.674  10.417  1.5316  1.6604 -1.2304
   60MOL0     O 7966   9.310   4.946   3.165 -0.6668  0.4168 -0.8157
   60MOL0     C 7967   9.407   5.026   3.153 -0.2655  0.8758 -0.4930
   60MOL0     O 7968   9.446   5.110   3.255 -0.0006  0.5692 -0.0194
   60MOL0     C 7969   9.371   5.113   3.371  0.4885 -0.1362  0.2719
   60MOL0     C 7970   9.333   5.000   3.449 -0.2910  0.5526  0.0400
   60MOL0     C 7971   9.269   5.019   3.571  0.5848 -0.3596  0.1612
   60MOL0     C 7972   9.232   5.146   3.619  0.4246  1.0548 -0.0710
   60MOL0     O 7973   9.170   5.147   3.745  0.6888  0.4430 -0.0323
   60MOL0     C 7974   9.068   5.237   3.753 -0.1053 -0.6425 -0.2892
   60MOL0     C 7975   9.054   5.275   3.901 -0.7411 -0.1346 -0.1783
   60MOL0     C 7976   8.921   5.356   3.935 -0.6341  0.7451 -0.4789
   60MOL0     C 7977   8.913   5.432   4.068  0.2359  0.3078 -0.2160
   60MOL0     C 7978   8.909   5.334   4.188 -0.0073  0.7150  0.0744
   60MOL0     C 7979   8.774   5.261   4.194 -0.7085 -0.8910  0.0527
   60MOL0     C 7980   8.734   5.203   4.327  0.1598  0.2197  0.5768
   60MOL0     C 7981   8.743   5.285   4.458 -0.1956 -0.2522  0.2945
   60MOL0     N 7982   8.657   5.218   4.554  0.2794  0.5192  0.0941
   60MOL0     C 7983   8.537   5.276   4.596 -0.2375  0.0352  0.2554
   60MOL0     C 7984   8.485   5.197   4.692 -0.6862 -0.2310  0.4392
   60MOL0     C 7985   8.351   5.231   4.752 -0.4046 -0.2912  0.1223
   60MOL0     C 7986   8.362   5.238   4.908 -0.1294  0.0754  0.3790
   60MOL0     C 7987   8.502   5.303   4.950  0.4303  0.1809 -0.9729
   60MOL0     C 7988   8.508   5.354   5.090  0.7241 -0.3332  0.2452
   60MOL0     O 7989   8.396   5.451   5.100  0.4941 -0.4097  0.1807
   60MOL0     C 7990   8.361   5.506   5.223 -0.6238 -0.4490  0.7669
   60MOL0     C 7991   8.412   5.461   5.342  0.2446  0.1897  0.2981
   60MOL0     C 7992   8.370   5.511   5.461  0.4058  0.0575 -0.4811
   60MOL0     C 7993   8.421   5.450   5.600 -0.3182 -0.5143  1.1477
   60MOL0     C 7994   8.260   5.599   5.465 -0.1735 -0.8018  1.2879
   60MOL0     C 7995   8.202   5.659   5.581 -0.7529  1.1455 -1.0373
   60MOL0     O 7996   8.075   5.696   5.565 -0.1000  0.3783  0.2736
   60MOL0     C 7997   8.010   5.753   5.678 -0.0766  0.1793 -0.6103
   60MOL0     C 7998   7.994   5.678   5.792 -0.0073 -0.4350 -0.3281
   60MOL0     C 7999   7.897   5.718   5.887 -0.5929 -0.6036 -0.2442
   60MOL0     C 8000   7.823   5.840   5.877 -0.7492 -0.6420 -0.0332
   60MOL0     O 8001   7.721   5.885   5.963 -0.1249  0.0095 -0.4353
   60MOL0     C 8002   7.678   5.809   6.080  0.4679 -0.8984  0.7208
   60MOL0     C 8003   7.562   5.885   6.145 -0.0448 -0.7886  0.1349
   60MOL0     C 8004   7.440   5.913   6.054  0.4914  0.3915  0.2413
   60MOL0     C 8005   7.318   5.991   6.114  0.1880 -0.3541 -0.6511
   60MOL0     C 8006   7.221   6.040   6.011  0.0343  0.8865 -0.1192
   60MOL0     C 8007   7.081   6.045   6.076 -0.4933  0.7514 -0.4095
   60MOL0     C 8008   6.985   6.104   5.981 -0.3093  0.7714  0.8856
   60MOL0     C 8009   6.859   6.145   6.055 -0.1540 -0.9655  0.0324
   60MOL0    Cl 8010   6.807   6.010   6.168  0.1451  0.2964  0.5259
   60MOL0     C 8011   7.855   5.916   5.762 -0.8459  0.2420  0.3849
   60MOL0     C 8012   7.944   5.874   5.667 -0.0368  0.0958 -0.8779
   60MOL0     O 8013   8.266   5.669   5.686 -0.6464 -0.7109 -1.0331
   60MOL0     C 8014   8.215   5.652   5.343 -0.3126  0.6772 -0.7375
   60MOL0     C 8015   8.254   5.602   5.220 -0.3047  0.3276 -0.2449
   60MOL0     N 8016   8.567   5.083   4.693  0.1591 -0.5400 -0.3457
   60MOL0     N 8017   8.669   5.096   4.615 -0.4148 -0.5065  0.2149
   60MOL0     C 8018   9.260   5.264   3.546 -0.5201  0.4620  0.5517
   60MOL0     C 8019   9.326   5.239   3.418 -0.5326 -0.7459  0.1702
   60MOL0     C 8020   9.476   5.036   3.024 -0.2744  1.1621  0.3226
   60MOL0     C 8021   9.552   4.928   2.978  1.0745  0.2627  0.0497
   60MOL0     C 8022   9.599   4.926   2.849  0.0656 -0.2782  0.0354
   60MOL0     C 8023   9.579   5.039   2.770  0.2104 -0.3108  0.5716
   60MOL0     O 8024   9.641   5.060   2.642  0.3833 -0.7113  0.0401
   60MOL0     C 8025   9.717   4.965   2.573 -0.0705 -0.5192 -0.9511
   60MOL0     C 8026   9.796   5.033   2.451  0.1265 -0.4848  0.5642
   60MOL0     C 8027   9.725   5.155   2.377  0.8212 -0.5309  0.3665
   60MOL0     C 8028   9.820   5.273   2.324 -0.2448  0.4040  0.4203
   60MOL0     C 8029   9.909   5.232   2.215 -0.1050 -0.5881 -0.2812
   60MOL0     C 8030   9.976   5.194   2.120  1.2349 -0.2760 -0.5793
   60MOL0     C 8031   9.513   5.150   2.821  0.3912  0.7978 -0.8987
   60MOL0     C 8032   9.466   5.154   2.948 -0.2170  1.3153 -0.6359
   60MOL0     H 8033   9.364   4.901   3.417  1.0066  1.3407 -1.2649
   60MOL0     H 8034   9.246   4.927   3.622 -0.9019  0.5023  1.1342
   60MOL0     H 8035   9.081   5.333   3.700  1.3815  0.5801  2.1144
   60MOL0     H 8036   8.974   5.192   3.719 -1.2413  1.4447 -0.0830
   60MOL0     H 8037   9.056   5.187   3.967 -0.3067  1.4236  2.0042
   60MOL0     H 8038   9.145   5.327   3.932 -1.0918  1.3584 -1.5657
   60MOL0     H 8039   8.897   5.426   3.855 -0.9715 -0.5606 -1.5487
   60MOL0     H 8040   8.834   5.290   3.934 -1.8859  2.3399 -1.6263
   60MOL0     H 8041   8.995   5.505   4.076  2.8107 -2.5802  2.7390
   60MOL0     H 8042   8.822   5.493   4.069  1.8621  3.0514  3.1904
   60MOL0     H 8043   8.993   5.265   4.176 -1.4283 -0.9391 -1.0287
   60MOL0     H 8044   8.923   5.386   4.283  4.0035  2.1073 -1.0989
   60MOL0     H 8045   8.694   5.333   4.169  0.8288  0.5689 -0.9031
   60MOL0     H 8046   8.770   5.187   4.114 -0.1936  0.5953 -1.4301
   60MOL0     H 8047   8.632   5.166   4.312  1.4278 -2.3072 -3.5121
   60MOL0     H 8048   8.779   5.104   4.340  1.2095  0.8624  2.2166
   60MOL0     H 8049   8.715   5.389   4.439 -1.8437 -0.9771 -1.6362
   60MOL0     H 8050   8.848   5.285   4.490 -0.4988  2.1921  1.4524
   60MOL0     H 8051   8.502   5.373   4.562 -0.5462  0.9460  2.9364
   60MOL0     H 8052   8.309   5.327   4.722  0.4884 -0.3264 -1.3523
   60MOL0     H 8053   8.278   5.152   4.730 -1.9639  0.9623  0.5569
   60MOL0     H 8054   8.343   5.141   4.955  2.5248 -0.1890  1.0550
   60MOL0     H 8055   8.281   5.301   4.945  0.6026  2.5094 -1.8371
   60MOL0     H 8056   8.523   5.388   4.885 -2.4835  1.7991  0.0434
   60MOL0     H 8057   8.577   5.223   4.955  0.6756  0.4931  1.6614
   60MOL0     H 8058   8.606   5.392   5.120  1.0029  0.3038 -1.3635
   60MOL0     H 8059   8.491   5.270   5.158 -2.2289  0.9172  1.1833
   60MOL0     H 8060   8.475   5.373   5.346  0.1538  0.0454 -1.0122
   60MOL0     H 8061   8.473   5.530   5.652 -0.3537 -0.3976  1.0051
   60MOL0     H 8062   8.338   5.417   5.663  0.4687 -0.3347  2.3152
   60MOL0     H 8063   8.491   5.370   5.575  0.5315 -0.2143  2.4673
   60MOL0     H 8064   8.053   5.587   5.799  3.1405  1.4567 -0.0830
   60MOL0     H 8065   7.871   5.655   5.971  0.7785 -0.3843  0.3793
   60MOL0     H 8066   7.650   5.709   6.045 -0.5162  0.2747 -2.0719
   60MOL0     H 8067   7.763   5.794   6.148  1.3841  2.5844  0.5507
   60MOL0     H 8068   7.527   5.840   6.239  3.1796 -0.7423  1.5086
   60MOL0     H 8069   7.599   5.986   6.167 -1.4792  0.3706 -2.3807
   60MOL0     H 8070   7.403   5.818   6.013 -1.4640  2.3204 -2.8979
   60MOL0     H 8071   7.477   5.976   5.973 -2.2738  0.3803 -1.1450
   60MOL0     H 8072   7.279   5.920   6.187  1.3471 -0.1289  0.2246
   60MOL0     H 8073   7.352   6.080   6.169 -1.3963 -0.5259  0.6738
   60MOL0     H 8074   7.222   5.973   5.925 -0.4924  1.9279 -0.9650
   60MOL0     H 8075   7.259   6.137   5.976  3.0388 -0.1721 -0.0941
   60MOL0     H 8076   7.047   5.946   6.108 -0.9256  1.0906  0.2150
   60MOL0     H 8077   7.081   6.098   6.172 -2.5811  0.4234 -0.1875
   60MOL0     H 8078   6.957   6.027   5.908 -0.4883  2.6743 -1.1796
   60MOL0     H 8079   7.032   6.186   5.926 -0.6516 -0.4096 -1.2859
   60MOL0     H 8080   6.789   6.154   5.972 -0.6763 -0.2496  0.5355
   60MOL0     H 8081   6.864   6.241   6.108  1.3043 -0.2023 -1.4220
   60MOL0     H 8082   7.798   6.008   5.748 -0.9407  0.2374  0.7368
   60MOL0     H 8083   7.954   5.921   5.570 -0.3603 -2.5220 -2.2672
   60MOL0     H 8084   8.146   5.736   5.344  1.9110  2.6524  2.2061
   60MOL0     H 8085   8.204   5.631   5.128  0.0089  1.6584 -0.0230
   60MOL0     H 8086   9.245   5.369   3.569  0.6278  0.9428 -0.7356
   60MOL0     H 8087   9.336   5.321   3.349  1.6081 -0.6480  0.5375
   60MOL0     H 8088   9.559   4.840   3.041 -0.9869 -0.6882 -0.9734
   60MOL0     H 8089   9.643   4.841   2.798  0.0809 -0.0091 -0.3996
   60MOL0     H 8090   9.794   4.918   2.636  1.3495  3.4095  0.5478
   60MOL0     H 8091   9.655   4.883   2.535  0.2332 -2.6970  2.7532
   60MOL0     H 8092   9.812   4.950   2.382 -0.5846 -0.6768  0.6204
   60MOL0     H 8093   9.894   5.056   2.494  0.1387  0.0791  0.2443
   60MOL0     H 8094   9.635   5.184   2.431  1.7607 -0.3205  1.8864
   60MOL0     H 8095   9.687   5.123   2.280 -1.2615  0.0072  0.9512
   60MOL0     H 8096   9.876   5.311   2.409  1.1805  3.2424 -1.6199
   60MOL0     H 8097   9.754   5.346   2.276  0.9893 -0.2341 -2.4738
   60MOL0     H 8098  10.023   5.138   2.042  3.6897  1.3712 -0.3905
   60MOL0     H 8099   9.508   5.246   2.771 -0.5460  1.4711  0.4105
   60MOL0     H 8100   9.423   5.243   2.993 -1.2025  0.2974  0.4708
   61MOL0     O 8101   1.881   8.095  10.201 -0.0477  0.4869 -0.3246
   61MOL0     C 8102   1.966   8.014  10.233 -0.3848 -0.2074  0.5256
   61MOL0     O 8103   1.954   7.919  10.328 -0.3212  0.9153  0.6540
   61MOL0     C 8104   1.829   7.892  10.386 -0.7663 -0.6439 -0.7130
   61MOL0     C 8105   1.844   7.866  10.525 -0.3892 -0.0701  0.3225
   61MOL0     C 8106   1.727   7.843  10.605 -0.3018  0.1470 -0.0312
   61MOL0     C 8107   1.597   7.860  10.543  0.5500  0.3010 -0.2030
   61MOL0     O 8108   1.481   7.844  10.616 -0.8897  0.2081 -0.0985
   61MOL0     C 8109   1.477   7.872  10.757 -0.4779 -0.1628  0.3158
   61MOL0     C 8110   1.333   7.892  10.784  0.8500  0.0314  0.5303
   61MOL0     C 8111   1.296   7.918  10.926  0.5540 -0.6330 -0.9677
   61MOL0     C 8112   1.365   8.034  10.995  0.3286 -0.6882 -1.0307
   61MOL0     C 8113   1.313   8.051  11.144  0.1798 -0.4585 -0.0288
   61MOL0     C 8114   1.380   8.168  11.214 -0.4832  0.2667 -0.1568
   61MOL0     C 8115   1.293   8.225  11.327  0.2840  0.5306 -1.1517
   61MOL0     C 8116   1.237   8.125  11.447 -0.4211  0.1897 -0.4660
   61MOL0     N 8117   1.148   8.024  11.400 -0.3906 -0.9061  0.2697
   61MOL0     C 8118   1.147   7.888  11.425 -0.6326 -0.2578 -1.1982
   61MOL0     C 8119   1.014   7.851  11.425  0.4017 -0.9396  0.8681
   61MOL0     C 8120   0.945   7.719  11.452 -0.5456  0.5092 -0.0148
   61MOL0     C 8121   0.928   7.645  11.319 -0.7252  0.0025  0.5190
   61MOL0     C 8122   0.817   7.700  11.230 -0.3212  0.4783  0.3682
   61MOL0     C 8123   0.679   7.733  11.292 -0.5488 -0.0184 -0.4686
   61MOL0     O 8124   0.634   7.661  11.402  0.1300 -0.0248  0.1859
   61MOL0     C 8125   0.521   7.597  11.413  1.0868  0.2500 -0.4469
   61MOL0     C 8126   0.481   7.516  11.306 -0.8913  0.9327  1.0354
   61MOL0     C 8127   0.365   7.440  11.308  0.7848 -0.2803  0.4569
   61MOL0     C 8128   0.339   7.344  11.199 -0.5354  0.5367 -0.5387
   61MOL0     C 8129   0.267   7.462  11.416  1.0054  0.6798 -0.5570
   61MOL0     C 8130   0.138   7.386  11.431 -0.1752 -0.1234  0.6613
   61MOL0     O 8131   0.083   7.388  11.559 -0.3504  0.4967 -0.2163
   61MOL0     C 8132  -0.037   7.314  11.595 -0.9006  0.3784 -0.9106
   61MOL0     C 8133  -0.031   7.219  11.693  0.3847  0.4208 -0.0720
   61MOL0     C 8134  -0.142   7.142  11.730  0.2722 -0.8339  0.1979
   61MOL0     C 8135  -0.254   7.149  11.654  0.6876 -0.3507  0.1982
   61MOL0     O 8136  -0.369   7.074  11.690  0.4186  0.0291  0.3264
   61MOL0     C 8137  -0.500   7.132  11.696  0.1334  0.2078 -0.4973
   61MOL0     C 8138  -0.586   7.035  11.763  0.1413 -0.2563  0.5522
   61MOL0     C 8139  -0.733   7.043  11.723 -0.1652 -0.5283  0.1742
   61MOL0     C 8140  -0.820   6.947  11.809 -0.3801 -0.2690  0.1439
   61MOL0     C 8141  -0.876   6.834  11.720  0.2532  0.2893 -0.3667
   61MOL0     C 8142  -0.987   6.749  11.778  1.1022 -0.7563 -0.0268
   61MOL0     C 8143  -1.022   6.631  11.681  0.5367  0.3324 -1.0746
   61MOL0     C 8144  -1.147   6.551  11.728  0.2267  0.5134  0.1062
   61MOL0    Cl 8145  -1.140   6.506  11.895 -0.0583 -0.1632  0.4528
   61MOL0     C 8146  -0.264   7.235  11.547  0.0355  0.0893 -0.1600
   61MOL0     C 8147  -0.152   7.321  11.515  0.1055 -0.3088 -0.3496
   61MOL0     O 8148   0.082   7.319  11.338 -0.2780 -0.2689 -0.3979
   61MOL0     C 8149   0.301   7.559  11.519  0.1344 -0.0256  0.8199
   61MOL0     C 8150   0.436   7.612  11.526 -0.0763  0.1558  0.6814
   61MOL0     N 8151   0.943   7.956  11.360  0.7337  0.9570  0.0696
   61MOL0     N 8152   1.021   8.063  11.365 -0.1678  0.9032  0.2648
   61MOL0     C 8153   1.588   7.881  10.402  0.0283  0.2278  0.6411
   61MOL0     C 8154   1.702   7.887  10.327  0.1490  0.3163  0.1506
   61MOL0     C 8155   2.098   8.034  10.163  0.2418  0.7834  0.2877
   61MOL0     C 8156   2.214   7.957  10.206  0.2526 -0.6845  0.1003
   61MOL0     C 8157   2.338   7.979  10.147 -0.6284  0.2494  0.2037
   61MOL0     C 8158   2.351   8.071  10.047  0.4018 -0.9131  0.5978
   61MOL0     O 8159   2.461   8.089   9.970  0.8111  0.7633 -0.0459
   61MOL0     C 8160   2.585   8.111  10.049 -0.4023  0.5536  0.5308
   61MOL0     C 8161   2.669   8.204   9.974 -0.3502 -0.5079  0.2037
   61MOL0     C 8162   2.626   8.347   9.982 -0.0269 -0.1523 -0.1595
   61MOL0     C 8163   2.615   8.389  10.130 -0.4419 -0.2073 -0.2492
   61MOL0     C 8164   2.477   8.397  10.172 -0.5086  0.3755 -0.2186
   61MOL0     C 8165   2.355   8.405  10.192  0.7555 -0.0246  0.1544
   61MOL0     C 8166   2.236   8.139  10.003 -1.2914  0.2636  0.2117
   61MOL0     C 8167   2.111   8.119  10.057  0.4279 -0.0204 -1.1471
   61MOL0     H 8168   1.941   7.887  10.569  0.4202 -0.3427 -1.2812
   61MOL0     H 8169   1.732   7.818  10.710 -0.7153  2.6214  0.6336
   61MOL0     H 8170   1.517   7.788  10.816  4.1018  2.6574  1.7795
   61MOL0     H 8171   1.519   7.967  10.792 -0.0648 -0.7087  1.3635
   61MOL0     H 8172   1.297   7.984  10.736  0.6263  1.1564  2.7130
   61MOL0     H 8173   1.269   7.810  10.751  1.4822 -0.9918  1.7704
   61MOL0     H 8174   1.189   7.939  10.919  0.5818 -0.8327 -2.2157
   61MOL0     H 8175   1.309   7.834  10.995  1.0571 -0.1542 -0.4642
   61MOL0     H 8176   1.474   8.030  10.991  0.6077  3.1863 -1.4682
   61MOL0     H 8177   1.339   8.122  10.935  0.2450  0.7416  0.9948
   61MOL0     H 8178   1.205   8.062  11.133 -0.1277 -4.0798 -2.3101
   61MOL0     H 8179   1.338   7.959  11.198  2.3741  0.0622 -0.0607
   61MOL0     H 8180   1.471   8.126  11.258 -0.1402  0.9514 -0.2039
   61MOL0     H 8181   1.404   8.242  11.137 -0.5790 -2.0729 -2.5819
   61MOL0     H 8182   1.345   8.305  11.380  0.2820 -0.5568  0.5597
   61MOL0     H 8183   1.201   8.270  11.288 -2.7149 -2.6317  1.6254
   61MOL0     H 8184   1.183   8.191  11.516 -2.3324 -0.1285 -1.5825
   61MOL0     H 8185   1.317   8.084  11.511 -2.0916  1.3475  2.5801
   61MOL0     H 8186   1.230   7.826  11.456  0.0882  0.7124 -1.1537
   61MOL0     H 8187   0.997   7.660  11.528 -3.1011  0.0678  1.5024
   61MOL0     H 8188   0.847   7.738  11.497 -1.1635 -0.3202 -0.9983
   61MOL0     H 8189   0.912   7.538  11.331 -0.4475 -0.4954 -2.6596
   61MOL0     H 8190   1.024   7.648  11.267 -0.0658 -1.1788  1.6187
   61MOL0     H 8191   0.792   7.637  11.144 -0.7255  1.9854 -0.6658
   61MOL0     H 8192   0.849   7.792  11.180 -0.9922 -0.1334 -1.2446
   61MOL0     H 8193   0.603   7.726  11.213 -0.9775 -2.8427  0.0952
   61MOL0     H 8194   0.687   7.836  11.327  0.4088  0.0804 -0.9558
   61MOL0     H 8195   0.563   7.505  11.236 -0.5228 -1.0044  1.7094
   61MOL0     H 8196   0.429   7.338  11.137  0.0687  2.8490  0.0147
   61MOL0     H 8197   0.323   7.243  11.238  0.4590  0.5877  0.0163
   61MOL0     H 8198   0.256   7.380  11.136 -0.3968 -0.6231 -1.4165
   61MOL0     H 8199   0.067   7.215  11.738  0.3897  3.0310  0.3392
   61MOL0     H 8200  -0.154   7.069  11.810 -3.5820 -2.5184 -1.6530
   61MOL0     H 8201  -0.494   7.224  11.753 -0.2031  2.4256 -3.7630
   61MOL0     H 8202  -0.548   7.149  11.599 -0.7363 -0.9048 -0.2862
   61MOL0     H 8203  -0.558   6.934  11.733  1.3168  0.9311 -2.6839
   61MOL0     H 8204  -0.563   7.051  11.869 -1.8670  1.7299  0.7761
   61MOL0     H 8205  -0.737   7.027  11.615 -4.8000 -0.7996  0.1974
   61MOL0     H 8206  -0.755   7.149  11.741  3.8308  0.2805  1.3107
   61MOL0     H 8207  -0.760   6.911  11.894  4.3870 -0.3592 -2.8904
   61MOL0     H 8208  -0.907   7.002  11.845  0.4408  1.4969 -0.4701
   61MOL0     H 8209  -0.794   6.773  11.683  0.6860  0.8210 -0.3101
   61MOL0     H 8210  -0.934   6.865  11.633 -2.3394  0.8554  1.4529
   61MOL0     H 8211  -0.968   6.714  11.880  2.7980  0.4777  0.1180
   61MOL0     H 8212  -1.067   6.823  11.780  3.2215  1.6422  0.3352
   61MOL0     H 8213  -0.932   6.570  11.677  0.9528  0.8847 -0.3607
   61MOL0     H 8214  -1.043   6.672  11.582 -1.1751  1.5241 -0.2781
   61MOL0     H 8215  -1.160   6.460  11.669 -0.2834  1.4932 -1.3535
   61MOL0     H 8216  -1.236   6.611  11.710  1.0290  1.0300 -2.5550
   61MOL0     H 8217  -0.350   7.226  11.482 -0.4737 -1.9723  0.7135
   61MOL0     H 8218  -0.150   7.390  11.431  0.4647 -2.1187 -1.9112
   61MOL0     H 8219   0.225   7.586  11.592 -0.4907  0.3212  0.0451
   61MOL0     H 8220   0.465   7.682  11.605 -4.0356 -0.0340  2.5377
   61MOL0     H 8221   1.500   7.865  10.341 -0.7312  1.9381  1.2122
   61MOL0     H 8222   1.696   7.892  10.219 -0.2486  0.2652  0.1656
   61MOL0     H 8223   2.211   7.893  10.293 -0.4253  1.1342  1.4565
   61MOL0     H 8224   2.428   7.935  10.189 -1.0579 -1.0189 -0.1422
   61MOL0     H 8225   2.552   8.149  10.147 -3.2062  4.4032 -1.6102
   61MOL0     H 8226   2.649   8.023  10.058 -0.9833 -0.1302 -1.5848
   61MOL0     H 8227   2.671   8.170   9.870  1.1849  1.6500 -0.5496
   61MOL0     H 8228   2.772   8.197  10.012 -0.4360 -1.2856  0.3112
   61MOL0     H 8229   2.529   8.360   9.933  0.7376 -1.9806 -2.3251
   61MOL0     H 8230   2.702   8.413   9.941  0.3270 -0.5608 -0.1707
   61MOL0     H 8231   2.642   8.495  10.128 -0.0928 -0.3078 -1.2694
   61MOL0     H 8232   2.686   8.340  10.197  0.5021  4.2807  2.5009
   61MOL0     H 8233   2.251   8.419  10.213  0.9599  0.6145  0.7293
   61MOL0     H 8234   2.245   8.208   9.920 -1.2078 -1.8652 -1.6379
   61MOL0     H 8235   2.025   8.174  10.019  0.6561  0.5214 -0.8977
   62MOL0     O 8236   5.363   2.945   7.878 -0.7561  0.0921  0.5227
   62MOL0     C 8237   5.448   3.032   7.879 -0.2623 -1.1382  0.3920
   62MOL0     O 8238   5.433   3.156   7.820  0.6826  0.1746 -0.1346
   62MOL0     C 8239   5.312   3.207   7.764  0.4975  0.1882 -0.6343
   62MOL0     C 8240   5.188   3.178   7.825 -0.3201 -0.5968  0.1439
   62MOL0     C 8241   5.067   3.246   7.783 -0.0406  1.1016  0.0544
   62MOL0     C 8242   5.072   3.343   7.682  0.2136 -1.1172 -0.0941
   62MOL0     O 8243   4.961   3.414   7.638  0.2006  0.7364 -0.6546
   62MOL0     C 8244   4.897   3.493   7.740  0.7215 -0.2188  0.2197
   62MOL0     C 8245   4.757   3.532   7.689 -0.5198  0.6129  0.7001
   62MOL0     C 8246   4.686   3.644   7.770  0.2154 -0.8516 -0.1392
   62MOL0     C 8247   4.574   3.698   7.687  0.1399  0.3149 -0.5153
   62MOL0     C 8248   4.476   3.778   7.766  0.2351 -0.5030  0.4564
   62MOL0     C 8249   4.508   3.908   7.839  0.4900 -0.6461 -0.1020
   62MOL0     C 8250   4.524   4.029   7.751 -0.6347 -0.9442 -0.6226
   62MOL0     C 8251   4.515   4.165   7.825  0.1319 -0.3782 -0.7276
   62MOL0     N 8252   4.382   4.191   7.875 -0.8073  0.7532 -0.2086
   62MOL0     C 8253   4.276   4.246   7.823  0.0241  0.6371  1.1370
   62MOL0     C 8254   4.196   4.274   7.926  0.1999  0.8731  0.8998
   62MOL0     C 8255   4.065   4.333   7.916 -0.7105 -0.1300 -0.2462
   62MOL0     C 8256   3.947   4.232   7.881  0.0201  0.1593 -0.0303
   62MOL0     C 8257   3.810   4.313   7.876 -0.0134 -0.2231 -0.2896
   62MOL0     C 8258   3.695   4.205   7.874  0.2456 -0.0889 -0.0370
   62MOL0     O 8259   3.568   4.277   7.869 -0.4472  0.2641  0.2160
   62MOL0     C 8260   3.454   4.204   7.872  0.1737  0.2284  0.2717
   62MOL0     C 8261   3.442   4.062   7.891 -1.0719  0.0502  0.0755
   62MOL0     C 8262   3.316   4.009   7.910 -0.0379 -0.3643  0.1225
   62MOL0     C 8263   3.315   3.861   7.934  0.7153  0.0126 -0.3286
   62MOL0     C 8264   3.198   4.090   7.906 -0.0104 -0.1905  0.1593
   62MOL0     C 8265   3.057   4.039   7.911  0.4798 -1.1183 -0.3687
   62MOL0     O 8266   3.037   3.916   7.854 -0.3795 -0.1453 -0.7144
   62MOL0     C 8267   2.919   3.846   7.883 -0.4890 -0.5841 -0.0001
   62MOL0     C 8268   2.918   3.726   7.949  0.2137  0.3331 -0.5275
   62MOL0     C 8269   2.803   3.659   7.988  0.4848  0.2200 -0.1902
   62MOL0     C 8270   2.679   3.718   7.958  0.3734  0.4440 -0.1732
   62MOL0     O 8271   2.572   3.636   7.994 -0.0001  0.3675 -0.0779
   62MOL0     C 8272   2.444   3.686   7.989  0.1922 -0.2715  0.3710
   62MOL0     C 8273   2.348   3.585   8.065  0.6885  0.8433  0.0594
   62MOL0     C 8274   2.223   3.652   8.123  0.8954 -0.7925  1.3724
   62MOL0     C 8275   2.130   3.562   8.209  0.0790  0.1772  0.0430
   62MOL0     C 8276   2.008   3.655   8.251 -0.1336  0.7711  0.2588
   62MOL0     C 8277   1.888   3.554   8.274 -0.2168 -0.3519  0.4792
   62MOL0     C 8278   1.768   3.619   8.332  0.6322  0.5259  0.5786
   62MOL0     C 8279   1.724   3.758   8.285 -1.0844 -0.2324  0.0920
   62MOL0    Cl 8280   1.700   3.775   8.104 -0.0033 -0.3176  0.0275
   62MOL0     C 8281   2.673   3.835   7.885 -0.2700  1.0916  0.0058
   62MOL0     C 8282   2.791   3.898   7.848 -0.8437 -0.1335 -0.0373
   62MOL0     O 8283   2.968   4.111   7.947 -0.2023  0.1446 -0.6446
   62MOL0     C 8284   3.219   4.227   7.883  0.8532  0.0681  0.1940
   62MOL0     C 8285   3.345   4.285   7.870  0.5545  0.2821 -0.7327
   62MOL0     N 8286   4.264   4.233   8.041  0.1798  0.4916 -0.3129
   62MOL0     N 8287   4.371   4.180   8.006 -0.9598  2.1941 -0.4305
   62MOL0     C 8288   5.196   3.362   7.616  0.0520 -0.9641 -0.5099
   62MOL0     C 8289   5.308   3.286   7.655 -0.5569 -0.4776 -0.7922
   62MOL0     C 8290   5.589   3.003   7.912 -1.1017  0.1118 -0.3541
   62MOL0     C 8291   5.626   2.886   7.974 -0.8826 -0.4110 -0.2196
   62MOL0     C 8292   5.764   2.869   8.008  1.2976  0.7499 -0.2591
   62MOL0     C 8293   5.858   2.970   7.988 -0.2150 -0.1438 -0.2103
   62MOL0     O 8294   5.992   2.949   7.998 -0.1659 -0.2694 -0.9272
   62MOL0     C 8295   6.040   2.827   8.050  0.1130  0.3763  0.1877
   62MOL0     C 8296   6.187   2.826   8.081  0.0978 -0.2421  0.2148
   62MOL0     C 8297   6.230   2.920   8.196 -1.0580 -0.4498  0.5549
   62MOL0     C 8298   6.390   2.927   8.190  0.6801  0.8316  0.4433
   62MOL0     C 8299   6.470   3.007   8.290 -0.1192 -0.4397  0.1639
   62MOL0     C 8300   6.524   3.049   8.384  0.5663 -0.7991  0.4420
   62MOL0     C 8301   5.818   3.092   7.927  0.1752  0.7593 -0.0787
   62MOL0     C 8302   5.682   3.103   7.899 -0.7320 -0.5394  0.4424
   62MOL0     H 8303   5.179   3.108   7.908 -2.4105 -1.2078 -0.5309
   62MOL0     H 8304   4.974   3.229   7.836  1.0364  1.2465  2.1051
   62MOL0     H 8305   4.891   3.442   7.836 -0.2471 -1.7251 -0.6009
   62MOL0     H 8306   4.948   3.590   7.749  2.1880 -1.0385  1.0469
   62MOL0     H 8307   4.779   3.560   7.586 -1.5370 -0.1762  0.2438
   62MOL0     H 8308   4.693   3.444   7.677 -1.6268  1.4081  0.6453
   62MOL0     H 8309   4.658   3.594   7.863  3.2608  1.3503  2.1612
   62MOL0     H 8310   4.743   3.734   7.795 -1.4805  0.1142  0.3651
   62MOL0     H 8311   4.613   3.749   7.598 -1.0204 -2.4778 -2.7827
   62MOL0     H 8312   4.528   3.611   7.639 -1.8631  1.1739 -0.2578
   62MOL0     H 8313   4.393   3.795   7.698  0.4208 -1.0308  0.0903
   62MOL0     H 8314   4.437   3.710   7.842 -0.1890  0.3393  1.0077
   62MOL0     H 8315   4.417   3.921   7.899 -0.8563 -0.9516 -1.9709
   62MOL0     H 8316   4.597   3.898   7.901  1.1638  0.4938 -0.8491
   62MOL0     H 8317   4.616   4.023   7.691  0.5912  1.7734  0.8118
   62MOL0     H 8318   4.446   4.028   7.674  0.0467 -0.2542 -1.3521
   62MOL0     H 8319   4.549   4.243   7.757  0.6053 -0.8230 -1.0054
   62MOL0     H 8320   4.586   4.155   7.908  1.6387  2.2955 -1.5738
   62MOL0     H 8321   4.255   4.262   7.718 -1.2573  2.2082  1.5985
   62MOL0     H 8322   4.049   4.400   8.000 -1.0007 -1.0668  0.4645
   62MOL0     H 8323   4.059   4.399   7.829 -1.4364  1.7693  1.1802
   62MOL0     H 8324   3.943   4.157   7.961 -0.8468 -1.9457 -1.9297
   62MOL0     H 8325   3.959   4.177   7.787  0.4896  1.2097 -0.5948
   62MOL0     H 8326   3.807   4.371   7.783 -0.8120 -1.8323 -1.3140
   62MOL0     H 8327   3.808   4.382   7.961  0.7515  0.5068 -0.8552
   62MOL0     H 8328   3.696   4.145   7.966 -1.2520  3.0839  2.2556
   62MOL0     H 8329   3.700   4.151   7.780  3.5492 -1.1840  0.6503
   62MOL0     H 8330   3.529   3.999   7.895  0.4848  2.0673 -0.1877
   62MOL0     H 8331   3.267   3.835   8.029  0.7439  0.6995 -0.1187
   62MOL0     H 8332   3.288   3.800   7.847 -3.3003  2.5998 -1.1798
   62MOL0     H 8333   3.412   3.819   7.960  0.0106 -1.4441  0.0227
   62MOL0     H 8334   3.015   3.691   7.982 -1.1183 -1.9124  1.3604
   62MOL0     H 8335   2.808   3.568   8.048 -0.1939 -0.5047 -1.2055
   62MOL0     H 8336   2.420   3.780   8.040 -0.1149 -0.3570  0.3872
   62MOL0     H 8337   2.415   3.687   7.884  1.0743  1.0955  0.1288
   62MOL0     H 8338   2.316   3.508   7.995  1.1899  1.3195 -0.7062
   62MOL0     H 8339   2.405   3.540   8.147  0.0154  0.5443  0.3745
   62MOL0     H 8340   2.171   3.699   8.040  1.0401 -0.9953  1.1643
   62MOL0     H 8341   2.256   3.734   8.187 -0.1055  0.0816  0.7923
   62MOL0     H 8342   2.086   3.481   8.150  3.7791 -0.7522 -1.7518
   62MOL0     H 8343   2.192   3.517   8.287 -0.2476  0.9057  0.7377
   62MOL0     H 8344   1.986   3.728   8.173  3.6068 -1.1909 -2.9863
   62MOL0     H 8345   2.033   3.706   8.344 -1.2148 -0.0433  1.0192
   62MOL0     H 8346   1.853   3.515   8.177  0.3607 -1.9590  0.8776
   62MOL0     H 8347   1.918   3.473   8.341 -1.7517 -0.7660  0.7059
   62MOL0     H 8348   1.792   3.637   8.438  0.1256  2.0313  0.4677
   62MOL0     H 8349   1.679   3.555   8.332  0.8345  0.2078  1.7175
   62MOL0     H 8350   1.792   3.837   8.319 -3.4130  1.3955  1.3278
   62MOL0     H 8351   1.639   3.789   8.347 -0.6573 -1.8497  1.5634
   62MOL0     H 8352   2.576   3.882   7.874 -0.2968  0.8730 -0.6972
   62MOL0     H 8353   2.784   3.980   7.777 -1.3122 -0.6965 -0.6461
   62MOL0     H 8354   3.131   4.289   7.867  2.5650  1.9462 -2.8179
   62MOL0     H 8355   3.364   4.391   7.858 -0.7403  0.2999 -3.6168
   62MOL0     H 8356   5.200   3.445   7.546  1.7231 -0.2639  0.3542
   62MOL0     H 8357   5.407   3.308   7.615 -1.2913  0.6695 -2.0385
   62MOL0     H 8358   5.555   2.804   7.983 -1.6575  0.4410  2.2544
   62MOL0     H 8359   5.806   2.773   8.037 -1.7562 -1.3054 -2.0533
   62MOL0     H 8360   5.994   2.803   8.146 -0.7621 -0.3895 -0.3939
   62MOL0     H 8361   6.007   2.751   7.978  0.6797 -0.3584  0.6890
   62MOL0     H 8362   6.253   2.848   7.996  0.1409  1.3016  0.6167
   62MOL0     H 8363   6.209   2.723   8.110 -4.0735 -1.1014  0.8722
   62MOL0     H 8364   6.207   2.896   8.300 -1.8073  1.6328  0.9125
   62MOL0     H 8365   6.168   3.008   8.178 -1.1491 -0.7466 -0.6438
   62MOL0     H 8366   6.416   2.963   8.090 -0.6133  3.1070  0.8365
   62MOL0     H 8367   6.417   2.822   8.205  0.8687  0.4851 -1.9257
   62MOL0     H 8368   6.584   3.085   8.465  0.4223  1.8841 -0.5563
   62MOL0     H 8369   5.889   3.172   7.911 -1.0011  1.6449 -1.1591
   62MOL0     H 8370   5.671   3.197   7.847  2.2726 -0.7465 -0.7515
   63MOL0     O 8371   8.019   4.519   9.607 -0.2773 -0.2570 -0.5991
   63MOL0     C 8372   8.010   4.497   9.487 -0.4980 -0.5210 -0.2416
   63MOL0     O 8373   8.115   4.468   9.398 -0.6616  0.6537 -0.0658
   63MOL0     C 8374   8.242   4.463   9.449  0.0546  0.3049  0.3094
   63MOL0     C 8375   8.319   4.365   9.378 -0.2899 -0.8329  0.3377
   63MOL0     C 8376   8.462   4.362   9.397  0.1226 -0.2042 -0.0979
   63MOL0     C 8377   8.528   4.439   9.493  0.8322  0.0069 -0.4102
   63MOL0     O 8378   8.659   4.422   9.524 -0.1731  0.5887  0.2552
   63MOL0     C 8379   8.747   4.497   9.439  0.4897  0.8464 -0.8882
   63MOL0     C 8380   8.892   4.483   9.489  0.6160  0.1119 -0.4241
   63MOL0     C 8381   8.921   4.579   9.610  0.3698 -0.1334 -0.3805
   63MOL0     C 8382   9.051   4.658   9.603  0.8746 -0.7223  0.1952
   63MOL0     C 8383   9.176   4.565   9.599  0.3538  0.1121 -0.2977
   63MOL0     C 8384   9.297   4.640   9.547  0.8191 -0.4933 -0.2448
   63MOL0     C 8385   9.426   4.561   9.564  0.7510  0.0019  0.7065
   63MOL0     C 8386   9.450   4.455   9.456 -0.4954 -0.7570 -0.1305
   63MOL0     N 8387   9.373   4.333   9.477  0.5033  0.1403  0.6636
   63MOL0     C 8388   9.294   4.279   9.374 -0.2621 -0.6262  0.2186
   63MOL0     C 8389   9.255   4.156   9.420  0.1073  0.4162  0.9867
   63MOL0     C 8390   9.157   4.058   9.355  0.0668 -0.7005  0.2090
   63MOL0     C 8391   9.012   4.087   9.374  0.2029  0.4964 -0.4137
   63MOL0     C 8392   8.957   4.060   9.516 -0.5332  0.3885  0.2303
   63MOL0     C 8393   8.812   4.067   9.528 -0.2294  0.6041 -0.5607
   63MOL0     O 8394   8.751   3.973   9.439  0.3694 -0.2710 -0.0493
   63MOL0     C 8395   8.611   3.970   9.429 -0.8537  0.7276  0.3066
   63MOL0     C 8396   8.531   4.023   9.526 -0.2644 -0.2160  0.2214
   63MOL0     C 8397   8.394   4.025   9.506 -0.8797  0.3584  0.5110
   63MOL0     C 8398   8.324   4.087   9.625 -0.0403  0.0784 -0.5235
   63MOL0     C 8399   8.335   3.971   9.398 -0.1228 -0.4870  0.1399
   63MOL0     C 8400   8.189   3.977   9.355 -0.0904  0.0813 -0.7010
   63MOL0     O 8401   8.113   4.087   9.402 -0.5992 -0.2776 -0.0888
   63MOL0     C 8402   7.980   4.095   9.386 -0.2723  0.2911 -0.2162
   63MOL0     C 8403   7.889   4.016   9.461 -0.1161 -0.1189 -0.1618
   63MOL0     C 8404   7.746   4.034   9.435 -0.2212  0.6278  0.4822
   63MOL0     C 8405   7.706   4.123   9.337 -0.0792  0.5446 -0.6456
   63MOL0     O 8406   7.577   4.143   9.294 -0.1117 -0.0250  0.3241
   63MOL0     C 8407   7.468   4.099   9.383  0.0512  0.6743  0.0239
   63MOL0     C 8408   7.451   4.195   9.504  0.6054  0.9604 -0.2620
   63MOL0     C 8409   7.344   4.121   9.596 -0.0912  0.2310 -0.3019
   63MOL0     C 8410   7.286   4.209   9.715 -0.1102 -0.1906 -0.1003
   63MOL0     C 8411   7.147   4.174   9.771 -0.1271 -0.2355  0.1193
   63MOL0     C 8412   7.158   4.047   9.847  0.2837  0.0213 -0.5395
   63MOL0     C 8413   7.026   3.965   9.864  0.1586 -0.5170  0.2188
   63MOL0     C 8414   6.986   3.903   9.728 -0.5406  0.3695 -0.1514
   63MOL0    Cl 8415   6.836   3.813   9.727 -0.1493 -0.1589  0.3046
   63MOL0     C 8416   7.803   4.191   9.259 -0.1434  0.1768 -0.5263
   63MOL0     C 8417   7.931   4.176   9.285  0.2427  0.3629  0.3555
   63MOL0     O 8418   8.160   3.894   9.272 -0.1548  1.3096  0.7983
   63MOL0     C 8419   8.421   3.901   9.307 -0.3953 -0.3877 -1.0251
   63MOL0     C 8420   8.554   3.897   9.325 -0.4620  0.0715 -0.9499
   63MOL0     N 8421   9.323   4.139   9.538 -0.2598 -0.4197 -0.1531
   63MOL0     N 8422   9.401   4.238   9.571 -0.2549  0.5318 -0.5582
   63MOL0     C 8423   8.446   4.523   9.571  0.2221 -0.0114 -0.0294
   63MOL0     C 8424   8.302   4.536   9.549 -0.5976  1.1760  0.6714
   63MOL0     C 8425   7.881   4.533   9.426 -0.6096  0.4481  0.3443
   63MOL0     C 8426   7.875   4.591   9.296 -0.0221  0.4374 -0.1026
   63MOL0     C 8427   7.751   4.619   9.240  0.1604  0.7608 -0.2415
   63MOL0     C 8428   7.639   4.578   9.298 -0.4135  0.3396 -0.8505
   63MOL0     O 8429   7.520   4.577   9.219 -1.1318  0.2091 -0.3093
   63MOL0     C 8430   7.391   4.549   9.266  0.1447 -0.0884  0.3663
   63MOL0     C 8431   7.332   4.656   9.361  0.5934  0.2829  0.2137
   63MOL0     C 8432   7.278   4.611   9.502  0.1486 -0.8690  0.9701
   63MOL0     C 8433   7.140   4.540   9.505  0.3968  0.4525  0.0991
   63MOL0     C 8434   7.149   4.411   9.437  0.5858  0.7978  0.7346
   63MOL0     C 8435   7.142   4.309   9.365 -0.2419  0.2634  0.7131
   63MOL0     C 8436   7.641   4.520   9.425  1.1553  0.2516  0.0156
   63MOL0     C 8437   7.760   4.506   9.493 -0.8292 -0.5865 -0.3408
   63MOL0     H 8438   8.273   4.293   9.310 -1.6059 -0.0062  0.3177
   63MOL0     H 8439   8.521   4.284   9.350  0.5213 -1.0276  1.6992
   63MOL0     H 8440   8.741   4.459   9.337  1.1557 -1.4415 -0.1493
   63MOL0     H 8441   8.731   4.605   9.444  1.5479  0.9700  0.9968
   63MOL0     H 8442   8.920   4.378   9.503  0.7472  0.1081 -0.7051
   63MOL0     H 8443   8.952   4.511   9.402  2.6531  1.7546  1.3859
   63MOL0     H 8444   8.847   4.659   9.623  1.1314  0.4009  0.8355
   63MOL0     H 8445   8.920   4.514   9.698 -0.3789  0.7449  0.2834
   63MOL0     H 8446   9.047   4.698   9.501 -0.8638 -4.1311 -1.2493
   63MOL0     H 8447   9.057   4.733   9.682  4.7955 -1.3349  0.6542
   63MOL0     H 8448   9.196   4.531   9.701 -0.8885 -2.0657 -0.7319
   63MOL0     H 8449   9.165   4.487   9.523  0.6778  0.1701 -0.4053
   63MOL0     H 8450   9.287   4.669   9.442  0.0691 -0.8326 -0.2754
   63MOL0     H 8451   9.316   4.729   9.607  5.0550  0.0684 -2.0619
   63MOL0     H 8452   9.508   4.633   9.566  0.3470  0.4508  2.2177
   63MOL0     H 8453   9.411   4.514   9.661 -0.2681  2.3094  1.7593
   63MOL0     H 8454   9.554   4.424   9.461  0.3109  1.6700 -0.4665
   63MOL0     H 8455   9.432   4.496   9.356 -0.2455 -2.5673 -0.9510
   63MOL0     H 8456   9.266   4.325   9.280 -0.6375 -1.2529  0.0128
   63MOL0     H 8457   9.177   4.057   9.248 -0.3241 -1.3077  0.1388
   63MOL0     H 8458   9.175   3.960   9.401  0.8079 -0.1290  1.1970
   63MOL0     H 8459   8.968   4.007   9.314 -0.7526  2.2178 -2.1005
   63MOL0     H 8460   8.980   4.182   9.331 -1.1695 -0.1917 -0.9883
   63MOL0     H 8461   8.998   4.128   9.591  0.4588 -0.9922  0.9903
   63MOL0     H 8462   8.988   3.961   9.552  0.8526  1.7910  3.2449
   63MOL0     H 8463   8.778   4.169   9.511 -1.2683  0.0751 -1.7949
   63MOL0     H 8464   8.787   4.045   9.632  1.7648  2.6567  0.4600
   63MOL0     H 8465   8.572   4.068   9.616 -1.1090 -1.7761  1.4588
   63MOL0     H 8466   8.400   4.105   9.701  0.8582  1.1784 -1.6375
   63MOL0     H 8467   8.280   4.183   9.597 -0.0963  0.4125  0.6369
   63MOL0     H 8468   8.246   4.018   9.660  1.0901 -0.3697  1.2241
   63MOL0     H 8469   7.916   3.942   9.536 -0.1227  0.2682  0.2281
   63MOL0     H 8470   7.681   3.972   9.496  1.2320  0.1639  1.6180
   63MOL0     H 8471   7.372   4.100   9.329  0.8888 -3.4401 -1.9452
   63MOL0     H 8472   7.489   3.998   9.418  2.7068  1.5304  1.1023
   63MOL0     H 8473   7.543   4.207   9.561 -0.1765 -0.6885  1.4815
   63MOL0     H 8474   7.415   4.293   9.471 -1.1129  2.0446  4.0541
   63MOL0     H 8475   7.385   4.030   9.641 -1.3944  1.0947  2.9395
   63MOL0     H 8476   7.252   4.099   9.541 -0.7106 -2.0210  1.4709
   63MOL0     H 8477   7.366   4.205   9.790 -0.0273 -1.1447 -0.2329
   63MOL0     H 8478   7.286   4.312   9.678  1.4631 -1.1284 -3.0013
   63MOL0     H 8479   7.080   4.169   9.684  0.3245 -0.1356 -0.2397
   63MOL0     H 8480   7.111   4.253   9.838  2.8953  1.2757  0.1089
   63MOL0     H 8481   7.236   3.984   9.803 -0.2332 -3.6358  3.1790
   63MOL0     H 8482   7.195   4.063   9.949  2.8705 -2.3620 -0.9765
   63MOL0     H 8483   6.950   4.021   9.919  4.3835  2.8661  3.2854
   63MOL0     H 8484   7.045   3.882   9.932  2.5404 -0.6667 -0.5261
   63MOL0     H 8485   7.074   3.843   9.704  1.4133  2.1736  1.9874
   63MOL0     H 8486   6.982   3.975   9.646  1.7404  2.6712  1.6215
   63MOL0     H 8487   7.765   4.272   9.198  0.5421  0.1575 -0.9815
   63MOL0     H 8488   7.992   4.245   9.228  0.3454 -1.2161 -1.5812
   63MOL0     H 8489   8.385   3.847   9.220 -1.5495  0.0093 -0.8110
   63MOL0     H 8490   8.593   3.838   9.243  0.3643 -0.7683  0.0242
   63MOL0     H 8491   8.505   4.574   9.646  1.7602 -2.0769  0.2574
   63MOL0     H 8492   8.247   4.604   9.613 -4.6923 -1.2096  0.0218
   63MOL0     H 8493   7.964   4.615   9.238  0.7305  0.6497  1.0936
   63MOL0     H 8494   7.740   4.666   9.143 -4.3712 -1.5953 -1.1307
   63MOL0     H 8495   7.324   4.547   9.180 -2.1572  4.2968  1.7657
   63MOL0     H 8496   7.397   4.445   9.301  3.1106 -1.1145 -2.6385
   63MOL0     H 8497   7.252   4.707   9.307  0.2793  0.7631  1.1085
   63MOL0     H 8498   7.415   4.727   9.376  3.8421 -3.2071  0.2724
   63MOL0     H 8499   7.267   4.703   9.559  0.8005 -1.4043  1.9957
   63MOL0     H 8500   7.359   4.559   9.555  1.8988  1.5279  0.8105
   63MOL0     H 8501   7.068   4.601   9.448  1.2458  2.6390  1.2400
   63MOL0     H 8502   7.117   4.514   9.609 -0.7371 -1.8841 -0.6643
   63MOL0     H 8503   7.161   4.220   9.308  0.8330 -0.8020  2.6183
   63MOL0     H 8504   7.554   4.489   9.482 -0.8504  2.0344 -1.8930
   63MOL0     H 8505   7.755   4.449   9.585  1.4410 -0.0596  0.1607
   64MOL0     O 8506  10.138   6.899   7.656  0.7289  1.1034  0.0490
   64MOL0     C 8507  10.242   6.944   7.696  0.1396 -0.3648 -0.0596
   64MOL0     O 8508  10.273   7.076   7.707 -0.0015  0.2851  0.6080
   64MOL0     C 8509  10.201   7.168   7.631  0.1669 -0.4365 -0.3671
   64MOL0     C 8510  10.206   7.302   7.675 -1.0640  0.2432  0.3263
   64MOL0     C 8511  10.124   7.395   7.607  0.1008 -0.8873  0.1370
   64MOL0     C 8512  10.052   7.371   7.495  0.4017  0.2400 -0.2970
   64MOL0     O 8513   9.967   7.454   7.424  0.1868 -0.5721 -0.4672
   64MOL0     C 8514  10.016   7.592   7.418 -0.1843  0.4697  0.2931
   64MOL0     C 8515   9.902   7.648   7.327 -0.7115  0.2990 -0.6492
   64MOL0     C 8516   9.781   7.674   7.421 -0.3146  0.4599  0.5905
   64MOL0     C 8517   9.662   7.727   7.331  0.1503  0.1109 -0.9202
   64MOL0     C 8518   9.523   7.720   7.408 -0.8776  0.0095 -0.1686
   64MOL0     C 8519   9.398   7.737   7.315 -0.0578  0.2855  0.6340
   64MOL0     C 8520   9.361   7.621   7.220  0.1514  0.1321  0.2956
   64MOL0     C 8521   9.246   7.673   7.124 -0.1472  0.8967  0.7276
   64MOL0     N 8522   9.290   7.762   7.010  0.5856  0.7661 -0.3095
   64MOL0     C 8523   9.408   7.754   6.945 -0.7789 -1.1867 -0.7631
   64MOL0     C 8524   9.401   7.866   6.866 -0.8309  0.5011 -0.4814
   64MOL0     C 8525   9.522   7.900   6.777  0.1721 -0.2385 -0.6383
   64MOL0     C 8526   9.639   7.966   6.857 -0.0129  0.5524  1.1025
   64MOL0     C 8527   9.768   7.958   6.770  0.6279 -0.2429  0.5394
   64MOL0     C 8528   9.886   7.967   6.856 -0.4462  0.3943 -0.0896
   64MOL0     O 8529   9.873   8.089   6.935  0.2692 -0.0783 -0.9440
   64MOL0     C 8530   9.970   8.147   7.007 -0.6762  0.1814 -0.9394
   64MOL0     C 8531   9.948   8.271   7.065  0.1741  0.3103 -0.4647
   64MOL0     C 8532  10.045   8.330   7.151 -0.4871 -0.4488 -0.5146
   64MOL0     C 8533  10.013   8.470   7.224  0.6983  0.0588 -0.0824
   64MOL0     C 8534  10.171   8.266   7.173  0.0997 -0.4364 -0.1605
   64MOL0     C 8535  10.285   8.323   7.259 -0.1700  0.4695 -0.1875
   64MOL0     O 8536  10.307   8.452   7.274  0.8542 -0.5800 -0.2139
   64MOL0     C 8537  10.422   8.496   7.335  0.6356  0.5611 -0.3027
   64MOL0     C 8538  10.444   8.459   7.466 -0.1503 -0.5796  0.0723
   64MOL0     C 8539  10.551   8.519   7.540  0.4426 -0.6278 -0.1035
   64MOL0     C 8540  10.642   8.600   7.473  0.7939 -0.7775 -0.1953
   64MOL0     O 8541  10.758   8.663   7.523 -0.6940 -0.7745 -0.4100
   64MOL0     C 8542  10.798   8.631   7.657  0.2424 -0.4091  0.6650
   64MOL0     C 8543  10.949   8.676   7.653 -0.4933 -0.6140  0.4311
   64MOL0     C 8544  11.004   8.670   7.798  0.2158 -0.4944 -0.2055
   64MOL0     C 8545  11.150   8.717   7.806 -0.5509 -0.9585 -0.9628
   64MOL0     C 8546  11.179   8.871   7.809  0.4555  0.4483  0.4793
   64MOL0     C 8547  11.329   8.900   7.786  0.9460 -0.4663 -0.0578
   64MOL0     C 8548  11.360   9.045   7.775 -0.7807  0.9826  0.0469
   64MOL0     C 8549  11.293   9.114   7.659  0.1410  0.8672 -0.0467
   64MOL0    Cl 8550  11.293   9.007   7.512 -0.0590 -0.0225 -0.3635
   64MOL0     C 8551  10.620   8.618   7.335 -0.1818  0.2078  0.2018
   64MOL0     C 8552  10.512   8.575   7.273  0.1660  0.1777  0.9708
   64MOL0     O 8553  10.370   8.236   7.303 -0.0766 -0.2805 -0.2387
   64MOL0     C 8554  10.191   8.145   7.103  0.2469 -0.7290 -0.3029
   64MOL0     C 8555  10.085   8.082   7.033 -0.7844 -0.3824  0.2508
   64MOL0     N 8556   9.276   7.928   6.874 -0.6338 -0.6524  0.3518
   64MOL0     N 8557   9.204   7.857   6.958 -0.2563 -0.5606  0.1556
   64MOL0     C 8558  10.055   7.242   7.444 -0.5220  0.6385  0.2544
   64MOL0     C 8559  10.120   7.143   7.519 -0.3098 -0.4123 -0.7361
   64MOL0     C 8560  10.342   6.848   7.733  0.2133 -0.1290 -0.1333
   64MOL0     C 8561  10.300   6.714   7.767  0.4928  0.2391  0.1068
   64MOL0     C 8562  10.396   6.622   7.796  0.8142 -0.6505  0.2917
   64MOL0     C 8563  10.536   6.648   7.800 -0.1526 -1.0055 -0.2431
   64MOL0     O 8564  10.619   6.545   7.838 -0.2828 -0.1662 -0.2529
   64MOL0     C 8565  10.752   6.557   7.808 -0.2554 -0.0457  0.3601
   64MOL0     C 8566  10.809   6.425   7.815  0.9879  0.5850  0.4048
   64MOL0     C 8567  10.945   6.419   7.750 -0.8404  0.7750  0.6118
   64MOL0     C 8568  11.061   6.496   7.815  0.4904 -0.9469 -1.4241
   64MOL0     C 8569  11.065   6.641   7.773  0.0197  0.2896  0.5258
   64MOL0     C 8570  11.053   6.756   7.746  0.3052  0.1961  0.4523
   64MOL0     C 8571  10.578   6.780   7.767  0.2945 -0.0560 -0.0742
   64MOL0     C 8572  10.475   6.883   7.738 -0.3610 -0.3591  0.4755
   64MOL0     H 8573  10.276   7.330   7.753  0.7065  1.3114 -1.5542
   64MOL0     H 8574  10.118   7.496   7.647  0.4533 -1.8134  2.7118
   64MOL0     H 8575  10.030   7.650   7.510  0.7649 -0.8692  1.0235
   64MOL0     H 8576  10.114   7.595   7.370  2.3428 -0.9364  4.7961
   64MOL0     H 8577   9.933   7.737   7.272 -0.1707 -0.1510 -1.0904
   64MOL0     H 8578   9.868   7.566   7.263  1.6372 -1.5073  0.2325
   64MOL0     H 8579   9.758   7.582   7.476 -0.9742 -0.8883 -1.8043
   64MOL0     H 8580   9.812   7.758   7.484  0.5299  0.4158  0.2468
   64MOL0     H 8581   9.687   7.831   7.308  1.4734  0.1502  0.5170
   64MOL0     H 8582   9.659   7.658   7.247 -0.1451 -1.6780  0.4818
   64MOL0     H 8583   9.519   7.617   7.445  2.0304  0.2585  1.1322
   64MOL0     H 8584   9.507   7.786   7.494  2.9565 -1.1977  1.7199
   64MOL0     H 8585   9.311   7.759   7.377 -1.9221 -2.8280 -0.6835
   64MOL0     H 8586   9.421   7.824   7.253  1.3260 -2.3500 -2.8604
   64MOL0     H 8587   9.449   7.593   7.162 -0.6734  0.6417 -1.2587
   64MOL0     H 8588   9.323   7.531   7.270 -1.5180  1.2504  1.1329
   64MOL0     H 8589   9.180   7.719   7.199  1.5365  0.8382  2.3103
   64MOL0     H 8590   9.196   7.587   7.079  1.9673 -1.2347  2.2581
   64MOL0     H 8591   9.491   7.687   6.963 -0.5872 -0.2877  2.4321
   64MOL0     H 8592   9.554   7.817   6.712 -0.5229 -1.0637  0.0439
   64MOL0     H 8593   9.473   7.975   6.714 -1.4627 -0.4308  0.3479
   64MOL0     H 8594   9.649   7.900   6.944 -3.5310 -2.0607 -0.2370
   64MOL0     H 8595   9.623   8.066   6.897  2.1045  1.2323  0.4032
   64MOL0     H 8596   9.762   8.046   6.705  1.9654 -2.0993 -2.2394
   64MOL0     H 8597   9.759   7.867   6.711 -2.9230 -0.6519  1.4831
   64MOL0     H 8598   9.979   7.970   6.798  1.1132  2.0556  2.2948
   64MOL0     H 8599   9.894   7.882   6.925  2.2337 -0.5774 -1.4196
   64MOL0     H 8600   9.862   8.330   7.035 -0.4518 -0.2906  0.0933
   64MOL0     H 8601   9.905   8.483   7.214  0.2068  1.6103  4.6023
   64MOL0     H 8602  10.052   8.453   7.325 -0.0873 -2.5060 -0.1472
   64MOL0     H 8603  10.069   8.543   7.164  1.0193 -1.8534 -2.2540
   64MOL0     H 8604  10.375   8.381   7.497 -0.6842 -1.2573 -2.6150
   64MOL0     H 8605  10.575   8.493   7.642 -0.0001 -0.1310  0.1334
   64MOL0     H 8606  10.744   8.698   7.724  1.5563  1.1301  0.2543
   64MOL0     H 8607  10.774   8.526   7.678 -2.3762 -0.4916 -2.0917
   64MOL0     H 8608  10.998   8.604   7.587 -0.1837 -1.1540  1.2409
   64MOL0     H 8609  10.969   8.779   7.621 -0.9630  0.1679  2.4933
   64MOL0     H 8610  10.997   8.565   7.829  0.1540 -0.4185  0.0418
   64MOL0     H 8611  10.941   8.733   7.862  1.3319 -0.6307  1.0802
   64MOL0     H 8612  11.188   8.676   7.901  0.9158  0.0254 -1.0989
   64MOL0     H 8613  11.211   8.683   7.722  1.1748 -0.3122 -0.0245
   64MOL0     H 8614  11.137   8.916   7.900  0.1493  2.4481 -0.5930
   64MOL0     H 8615  11.115   8.920   7.735 -0.7795  1.3395  2.0620
   64MOL0     H 8616  11.388   8.847   7.861  3.9185  4.0424  1.1749
   64MOL0     H 8617  11.369   8.861   7.692 -1.0613  0.7120 -1.4728
   64MOL0     H 8618  11.466   9.055   7.754 -0.4630 -0.9789  0.5560
   64MOL0     H 8619  11.341   9.094   7.871 -2.2591  2.8732 -1.1192
   64MOL0     H 8620  11.346   9.205   7.627  0.2642  0.8061 -0.0149
   64MOL0     H 8621  11.187   9.134   7.675 -0.1029 -1.2321  1.2523
   64MOL0     H 8622  10.699   8.674   7.285 -0.6294  0.1586 -0.5692
   64MOL0     H 8623  10.499   8.606   7.170  2.5143 -4.1818 -0.9263
   64MOL0     H 8624  10.282   8.087   7.113 -0.0091 -1.2148 -0.7239
   64MOL0     H 8625  10.101   7.978   7.007  3.0034  0.2124 -0.4020
   64MOL0     H 8626  10.008   7.204   7.354  0.6498 -0.3738  0.0464
   64MOL0     H 8627  10.089   7.040   7.502 -2.4455 -0.2303  1.4551
   64MOL0     H 8628  10.199   6.679   7.786  0.4876  0.3524  0.2878
   64MOL0     H 8629  10.364   6.521   7.819  1.5702 -1.0508 -0.3576
   64MOL0     H 8630  10.771   6.599   7.709  0.0781 -0.7874  0.1054
   64MOL0     H 8631  10.804   6.618   7.882 -0.3252  0.5387 -0.0690
   64MOL0     H 8632  10.741   6.353   7.769 -0.5118 -0.2116  3.5871
   64MOL0     H 8633  10.814   6.395   7.920 -2.4639 -1.8523  0.0187
   64MOL0     H 8634  10.939   6.451   7.645  1.4286  1.4279  0.6246
   64MOL0     H 8635  10.975   6.314   7.745 -0.0992  1.0230 -0.9375
   64MOL0     H 8636  11.153   6.449   7.780  2.6463  1.3221  0.7802
   64MOL0     H 8637  11.057   6.484   7.924 -0.3268 -0.9951 -1.4495
   64MOL0     H 8638  11.051   6.858   7.713 -1.8512 -0.0604 -0.4082
   64MOL0     H 8639  10.677   6.821   7.783 -0.6612  1.5426  2.4194
   64MOL0     H 8640  10.511   6.985   7.728 -2.4012  0.5460  1.7016
   65MOL0     O 8641   7.261   6.101   4.703 -0.1151 -0.6553 -0.1654
   65MOL0     C 8642   7.143   6.114   4.735  0.6826 -1.0816  0.1124
   65MOL0     O 8643   7.067   6.223   4.718 -0.2019  0.0858  0.1514
   65MOL0     C 8644   7.132   6.349   4.694  0.5431  0.7714  0.5230
   65MOL0     C 8645   7.208   6.420   4.791  0.4449  0.7130  0.3141
   65MOL0     C 8646   7.261   6.544   4.762  0.4352 -0.2564 -0.8646
   65MOL0     C 8647   7.236   6.607   4.642 -0.0347  0.3309  0.5376
   65MOL0     O 8648   7.287   6.734   4.624 -0.0156  0.6176 -0.3442
   65MOL0     C 8649   7.220   6.840   4.549  0.5177  0.0727 -0.8187
   65MOL0     C 8650   7.295   6.976   4.545  0.8317 -0.4403  0.1223
   65MOL0     C 8651   7.394   6.984   4.430  0.2106 -1.2258 -0.5985
   65MOL0     C 8652   7.427   7.134   4.403 -0.5145  0.0559  0.4009
   65MOL0     C 8653   7.555   7.141   4.314 -0.2368 -1.5063 -0.0101
   65MOL0     C 8654   7.611   7.289   4.317  0.5300 -0.0765 -0.0443
   65MOL0     C 8655   7.738   7.313   4.241 -0.1635  0.0082 -0.2558
   65MOL0     C 8656   7.726   7.309   4.089  0.6376  0.0300 -0.7363
   65MOL0     N 8657   7.836   7.364   4.015 -0.3236 -0.0146 -0.2411
   65MOL0     C 8658   7.863   7.497   4.014  0.0943 -0.1341  0.5377
   65MOL0     C 8659   7.957   7.511   3.920  0.7201 -0.4801 -0.6671
   65MOL0     C 8660   8.021   7.634   3.862 -0.6027 -0.2557  0.9091
   65MOL0     C 8661   8.154   7.672   3.911 -0.7108  0.2601 -0.2043
   65MOL0     C 8662   8.152   7.714   4.065  0.0164  0.2354  0.2465
   65MOL0     C 8663   8.291   7.721   4.129 -0.2428  0.2395  0.6971
   65MOL0     O 8664   8.293   7.804   4.241 -0.7230  0.1432  0.1707
   65MOL0     C 8665   8.405   7.809   4.322  0.2621 -0.1927 -0.2486
   65MOL0     C 8666   8.529   7.755   4.298 -0.2117 -0.3465  0.5223
   65MOL0     C 8667   8.642   7.754   4.387  0.1900 -0.4086 -0.1408
   65MOL0     C 8668   8.766   7.678   4.353  0.2433 -0.1847  0.8421
   65MOL0     C 8669   8.623   7.832   4.505 -0.0648  0.2561  0.3825
   65MOL0     C 8670   8.731   7.876   4.603 -0.1273 -0.8804 -0.1214
   65MOL0     O 8671   8.863   7.876   4.546  0.0507  0.1318 -0.0407
   65MOL0     C 8672   8.978   7.862   4.613 -0.2368 -0.1388  0.3633
   65MOL0     C 8673   9.089   7.827   4.538 -0.7030  0.2627  0.6373
   65MOL0     C 8674   9.214   7.809   4.589 -0.3195  0.1584 -0.2791
   65MOL0     C 8675   9.241   7.850   4.719 -0.8727  0.2163  0.1501
   65MOL0     O 8676   9.368   7.842   4.765  0.1823 -0.5187  0.1210
   65MOL0     C 8677   9.399   7.882   4.897  0.7800 -0.3449  0.6158
   65MOL0     C 8678   9.403   7.751   4.981 -0.3012 -0.2719  0.4304
   65MOL0     C 8679   9.550   7.695   4.966  0.6633  0.0899  0.5371
   65MOL0     C 8680   9.547   7.543   4.973 -0.9899 -0.7529 -0.2542
   65MOL0     C 8681   9.469   7.470   4.860 -0.3718  0.0975  0.6475
   65MOL0     C 8682   9.518   7.483   4.720 -0.0268 -0.3770  0.2504
   65MOL0     C 8683   9.442   7.383   4.644  0.7148 -0.1446  0.3924
   65MOL0     C 8684   9.470   7.386   4.492 -1.4458  0.3819 -0.5313
   65MOL0    Cl 8685   9.391   7.537   4.431 -0.3785 -0.3145 -0.4828
   65MOL0     C 8686   9.133   7.891   4.798  1.3774 -0.1917  0.5605
   65MOL0     C 8687   9.002   7.897   4.746  0.1019 -0.4046 -0.1693
   65MOL0     O 8688   8.698   7.903   4.719 -0.6667 -0.1184  0.0904
   65MOL0     C 8689   8.498   7.889   4.530  0.6335 -0.2633 -0.3558
   65MOL0     C 8690   8.386   7.867   4.447  0.7006 -0.6511 -0.2551
   65MOL0     N 8691   7.989   7.385   3.867  0.4826 -0.3794 -0.3296
   65MOL0     N 8692   7.912   7.300   3.925 -0.6398 -0.4205 -0.0111
   65MOL0     C 8693   7.149   6.546   4.548 -1.3640 -0.4930  0.1773
   65MOL0     C 8694   7.099   6.418   4.573  0.4784 -0.3440  0.2783
   65MOL0     C 8695   7.073   5.993   4.775  0.0909  0.5492  0.2829
   65MOL0     C 8696   6.937   6.002   4.818 -0.0373  0.0029  1.1174
   65MOL0     C 8697   6.882   5.892   4.882  0.3570 -0.3210  0.7059
   65MOL0     C 8698   6.940   5.770   4.892  0.7742 -0.0205 -0.1415
   65MOL0     O 8699   6.872   5.668   4.944  0.1581  0.3732  0.5946
   65MOL0     C 8700   6.887   5.534   4.892  0.5011  0.3666 -0.2937
   65MOL0     C 8701   6.937   5.439   5.000  0.2772 -0.0681 -0.3372
   65MOL0     C 8702   6.928   5.293   4.964  0.7445  0.2419 -0.6232
   65MOL0     C 8703   6.969   5.213   5.089  0.6584 -0.2618 -0.0461
   65MOL0     C 8704   6.881   5.219   5.199 -0.2494  0.4749 -0.9114
   65MOL0     C 8705   6.796   5.226   5.294  0.2427 -1.5508  0.5785
   65MOL0     C 8706   7.073   5.753   4.852 -0.5864 -0.4553 -0.1071
   65MOL0     C 8707   7.141   5.863   4.795 -0.1353 -0.3862 -0.3162
   65MOL0     H 8708   7.234   6.361   4.878 -0.5935 -1.2075 -0.5969
   65MOL0     H 8709   7.318   6.596   4.838  2.8678 -5.0122  0.9910
   65MOL0     H 8710   7.219   6.808   4.445 -0.0085 -0.2761 -0.7117
   65MOL0     H 8711   7.120   6.868   4.584  0.2887  0.7708 -2.0114
   65MOL0     H 8712   7.216   7.043   4.512  0.2567 -1.9881 -1.8916
   65MOL0     H 8713   7.347   7.002   4.638  2.2998 -3.3086  0.2226
   65MOL0     H 8714   7.478   6.923   4.463  1.7984  0.2950 -1.6222
   65MOL0     H 8715   7.358   6.939   4.337 -1.5000  1.2649 -1.2506
   65MOL0     H 8716   7.349   7.188   4.349  1.1889  1.9173 -0.3427
   65MOL0     H 8717   7.456   7.179   4.499 -2.3059  2.5218 -0.1193
   65MOL0     H 8718   7.627   7.072   4.358  0.4083 -1.9551 -1.6914
   65MOL0     H 8719   7.524   7.129   4.210  1.8367  0.7184 -0.9995
   65MOL0     H 8720   7.532   7.364   4.302 -1.7380 -1.9117  1.8887
   65MOL0     H 8721   7.630   7.313   4.422 -3.3495  0.4879  0.6908
   65MOL0     H 8722   7.784   7.409   4.267  2.0788 -0.9154 -0.5922
   65MOL0     H 8723   7.803   7.232   4.275  0.7396  0.9451  0.3109
   65MOL0     H 8724   7.638   7.362   4.052  0.5760 -1.5492 -3.0301
   65MOL0     H 8725   7.702   7.208   4.058 -0.0830 -0.1305  0.3013
   65MOL0     H 8726   7.828   7.579   4.075 -0.3582 -1.2795  1.8908
   65MOL0     H 8727   8.036   7.615   3.756  3.6355  2.6783  0.7506
   65MOL0     H 8728   7.959   7.725   3.865 -1.5517 -0.6477 -2.5077
   65MOL0     H 8729   8.182   7.756   3.847 -2.2455  0.8710 -0.1267
   65MOL0     H 8730   8.223   7.587   3.903 -3.2154 -1.8443 -1.0267
   65MOL0     H 8731   8.071   7.667   4.120 -1.1115 -0.4411 -1.8899
   65MOL0     H 8732   8.116   7.817   4.061 -2.7281 -0.6644 -2.6648
   65MOL0     H 8733   8.354   7.778   4.059 -1.1130  2.6125  1.7516
   65MOL0     H 8734   8.321   7.616   4.141 -3.1750 -1.1124 -2.1867
   65MOL0     H 8735   8.559   7.706   4.205  0.4507  3.2982 -1.3575
   65MOL0     H 8736   8.813   7.728   4.268 -1.5737 -0.6773 -0.5108
   65MOL0     H 8737   8.823   7.669   4.446  3.2991  2.6186 -0.5699
   65MOL0     H 8738   8.741   7.575   4.324  3.2030 -0.1471 -2.5521
   65MOL0     H 8739   9.065   7.814   4.433  2.6883 -0.4168 -0.1829
   65MOL0     H 8740   9.293   7.762   4.530  0.1406  0.8772 -0.2514
   65MOL0     H 8741   9.492   7.939   4.900 -2.2998  5.5811 -1.0691
   65MOL0     H 8742   9.328   7.953   4.940 -1.2354 -1.9262  0.0607
   65MOL0     H 8743   9.378   7.770   5.086 -0.3283  0.9708  0.2088
   65MOL0     H 8744   9.320   7.687   4.951 -1.3936  0.9601  0.7454
   65MOL0     H 8745   9.613   7.731   5.048  1.8947 -1.4400  0.3160
   65MOL0     H 8746   9.598   7.722   4.871 -0.3972 -1.4367 -0.4851
   65MOL0     H 8747   9.652   7.515   4.963 -0.9544 -1.1542  1.1269
   65MOL0     H 8748   9.525   7.520   5.077  1.0642  2.0099  0.9278
   65MOL0     H 8749   9.366   7.506   4.851  0.6475  2.6749 -2.6857
   65MOL0     H 8750   9.479   7.367   4.897 -1.3392 -0.4619 -0.5647
   65MOL0     H 8751   9.496   7.581   4.675  0.9261 -0.1392  0.2922
   65MOL0     H 8752   9.623   7.459   4.701  0.0783  1.6040 -2.0701
   65MOL0     H 8753   9.336   7.390   4.673 -0.2536 -0.5370 -2.6774
   65MOL0     H 8754   9.473   7.281   4.670  2.1253 -0.1586 -1.2089
   65MOL0     H 8755   9.435   7.291   4.452  1.4443  0.2428 -3.0426
   65MOL0     H 8756   9.579   7.388   4.485 -1.3744 -1.2656 -0.3218
   65MOL0     H 8757   9.139   7.936   4.897  0.3611 -0.4404  0.7491
   65MOL0     H 8758   8.922   7.940   4.805 -0.0308 -3.3337  1.9756
   65MOL0     H 8759   8.486   7.945   4.622 -2.2217 -0.9447 -0.2223
   65MOL0     H 8760   8.282   7.893   4.465  0.1494 -2.4765 -0.5663
   65MOL0     H 8761   7.126   6.599   4.456 -1.1690 -1.4712 -0.4466
   65MOL0     H 8762   7.024   6.360   4.519 -2.4705  0.1443  3.5169
   65MOL0     H 8763   6.877   6.092   4.806 -0.7239 -0.7507 -1.9432
   65MOL0     H 8764   6.779   5.876   4.910  0.0587 -0.3378 -0.3459
   65MOL0     H 8765   6.797   5.492   4.846  1.5778 -1.7761 -0.5412
   65MOL0     H 8766   6.966   5.542   4.817  0.5668  0.8568 -0.1792
   65MOL0     H 8767   6.868   5.447   5.084  0.8017  1.5191 -0.0130
   65MOL0     H 8768   7.041   5.466   5.020  0.0911 -0.9893  2.2306
   65MOL0     H 8769   6.980   5.268   4.871  2.3205 -0.3213  0.3618
   65MOL0     H 8770   6.826   5.263   4.940  0.0875 -0.0732  2.2450
   65MOL0     H 8771   7.064   5.253   5.127  0.7564 -0.0790 -0.4782
   65MOL0     H 8772   6.974   5.107   5.065 -2.6074 -1.0397  2.0892
   65MOL0     H 8773   6.710   5.244   5.355 -0.2133  2.7292 -1.0419
   65MOL0     H 8774   7.137   5.669   4.871  2.7644  2.2942  1.9098
   65MOL0     H 8775   7.239   5.835   4.756  0.5252 -0.1016  1.0566
   66MOL0     O 8776   4.491   6.376   2.915  0.3144 -0.3998  0.1076
   66MOL0     C 8777   4.462   6.315   3.015 -0.8743 -0.4276  0.2638
   66MOL0     O 8778   4.537   6.208   3.068  0.2554 -0.5755 -0.5042
   66MOL0     C 8779   4.653   6.176   3.004  0.6217  0.7424 -0.4151
   66MOL0     C 8780   4.677   6.048   2.963 -0.4640  0.2414  0.5069
   66MOL0     C 8781   4.790   6.011   2.897 -0.0028  0.3618  0.3859
   66MOL0     C 8782   4.896   6.104   2.891  0.2472  0.1269 -0.2922
   66MOL0     O 8783   5.018   6.084   2.835 -0.4364  0.1107  0.4087
   66MOL0     C 8784   5.056   5.951   2.820  0.3158  0.1713 -0.8030
   66MOL0     C 8785   5.210   5.945   2.778 -0.0591  0.5606  0.3571
   66MOL0     C 8786   5.310   6.037   2.863  0.7637  0.2413 -0.1001
   66MOL0     C 8787   5.364   5.989   3.002  0.7287 -0.4163  0.1587
   66MOL0     C 8788   5.471   5.873   2.985  0.9623 -0.2687  0.2886
   66MOL0     C 8789   5.511   5.811   3.117  0.7909 -0.2371 -0.6358
   66MOL0     C 8790   5.608   5.687   3.100 -0.3991 -0.7710  0.3317
   66MOL0     C 8791   5.745   5.730   3.038 -0.2820  0.6507 -0.3761
   66MOL0     N 8792   5.843   5.613   3.033  0.5395  0.4640  0.0468
   66MOL0     C 8793   5.972   5.601   3.065 -0.0957  0.4093  0.2067
   66MOL0     C 8794   6.015   5.476   3.022  0.5280  1.0501  0.7722
   66MOL0     C 8795   6.141   5.407   3.062  0.5590 -0.8704 -0.0186
   66MOL0     C 8796   6.229   5.360   2.936  0.6937 -0.0228  0.5269
   66MOL0     C 8797   6.360   5.296   2.971  0.3046 -0.6524 -0.3669
   66MOL0     C 8798   6.338   5.172   3.056  0.2009 -0.9468  0.0283
   66MOL0     O 8799   6.236   5.089   3.000  0.7508  0.3230  0.4028
   66MOL0     C 8800   6.263   5.009   2.896  0.7505  1.1807  0.2557
   66MOL0     C 8801   6.385   4.968   2.842 -0.4664 -0.0336  0.2831
   66MOL0     C 8802   6.399   4.879   2.733 -0.3783  0.5202 -0.2917
   66MOL0     C 8803   6.532   4.852   2.683  0.2522 -0.0590  0.5578
   66MOL0     C 8804   6.284   4.823   2.677  0.1427 -0.4651  0.0444
   66MOL0     C 8805   6.282   4.730   2.558  0.0066  0.1631 -0.6856
   66MOL0     O 8806   6.155   4.670   2.538 -0.7436 -0.0865  0.4318
   66MOL0     C 8807   6.138   4.571   2.442 -0.9618 -0.0059 -1.2384
   66MOL0     C 8808   6.018   4.560   2.373 -0.3635 -0.7277  0.6860
   66MOL0     C 8809   5.990   4.454   2.279  0.2828  0.5158  0.5567
   66MOL0     C 8810   6.089   4.358   2.265  0.7451  0.4149 -0.9950
   66MOL0     O 8811   6.074   4.256   2.171  0.2094  0.2547 -0.0151
   66MOL0     C 8812   5.955   4.180   2.178  0.5829  0.3579 -0.4040
   66MOL0     C 8813   5.861   4.214   2.061 -0.5135  0.6168 -1.0546
   66MOL0     C 8814   5.736   4.114   2.065 -0.3290  0.4907  0.1823
   66MOL0     C 8815   5.622   4.177   1.978 -0.1038 -0.0658 -0.1025
   66MOL0     C 8816   5.496   4.096   1.941  0.7196 -0.1257 -0.3686
   66MOL0     C 8817   5.523   3.958   1.894  0.2969 -0.2092  0.2101
   66MOL0     C 8818   5.409   3.858   1.861  0.4476  0.0411  0.5226
   66MOL0     C 8819   5.331   3.884   1.728  0.3692 -0.7608 -0.1008
   66MOL0    Cl 8820   5.194   3.757   1.730  0.2185  0.0963 -0.1586
   66MOL0     C 8821   6.209   4.360   2.337 -0.4269 -0.4638 -0.5387
   66MOL0     C 8822   6.234   4.464   2.428  0.2988  0.6106 -0.6843
   66MOL0     O 8823   6.382   4.699   2.505  0.0425  0.1044  0.4115
   66MOL0     C 8824   6.159   4.870   2.729  0.7475  0.4401 -0.2608
   66MOL0     C 8825   6.148   4.963   2.832  0.0068 -0.5043 -0.0307
   66MOL0     N 8826   5.913   5.408   2.970 -0.2755 -0.3409 -0.0235
   66MOL0     N 8827   5.811   5.490   2.973 -0.1019 -0.0857  0.1204
   66MOL0     C 8828   4.882   6.226   2.952 -0.0202  0.1831  0.4133
   66MOL0     C 8829   4.761   6.261   2.999 -0.2369 -0.6712 -0.0968
   66MOL0     C 8830   4.340   6.353   3.080  0.1150 -0.7881  0.7639
   66MOL0     C 8831   4.269   6.272   3.166  0.5824  0.0758  0.2103
   66MOL0     C 8832   4.142   6.301   3.224  0.0462 -1.0428  0.1650
   66MOL0     C 8833   4.088   6.425   3.199 -0.4608  0.4940 -1.4363
   66MOL0     O 8834   3.971   6.461   3.255  0.3114  0.1297 -0.5395
   66MOL0     C 8835   3.861   6.462   3.167  0.3953  0.6483 -0.4969
   66MOL0     C 8836   3.819   6.320   3.120 -0.6230  0.4333  0.1712
   66MOL0     C 8837   3.710   6.309   3.020  0.5591  0.2819 -0.0526
   66MOL0     C 8838   3.710   6.174   2.947 -1.3458 -0.0541 -0.1817
   66MOL0     C 8839   3.576   6.143   2.903 -0.2033 -1.4133  0.3396
   66MOL0     C 8840   3.459   6.116   2.870 -0.0961  0.1195 -0.3785
   66MOL0     C 8841   4.154   6.515   3.114  0.2284  0.4254 -0.6175
   66MOL0     C 8842   4.277   6.482   3.059  0.3020  0.1906  0.4862
   66MOL0     H 8843   4.596   5.979   2.983  0.6783 -0.2610  4.1016
   66MOL0     H 8844   4.782   5.915   2.846 -2.7872  0.5823  0.2270
   66MOL0     H 8845   5.039   5.898   2.914 -0.3495  0.7112 -0.6050
   66MOL0     H 8846   4.999   5.891   2.749  0.5000 -1.3039  0.2336
   66MOL0     H 8847   5.238   5.840   2.791  2.5673  1.0828 -0.3050
   66MOL0     H 8848   5.216   5.976   2.673  1.4820 -0.0547  0.2227
   66MOL0     H 8849   5.391   6.061   2.793 -0.7319  0.2873 -1.9021
   66MOL0     H 8850   5.281   6.142   2.875  2.8002  0.7637  0.5449
   66MOL0     H 8851   5.406   6.083   3.038  1.0157 -0.8542  1.0016
   66MOL0     H 8852   5.282   5.959   3.067 -0.0490  2.0851  0.4035
   66MOL0     H 8853   5.431   5.787   2.931  3.3116 -3.5178  3.2123
   66MOL0     H 8854   5.557   5.910   2.928  0.8419  0.7938  0.7598
   66MOL0     H 8855   5.558   5.891   3.175 -1.3362  1.1681 -0.7226
   66MOL0     H 8856   5.426   5.779   3.179  2.2976 -0.4298  1.4469
   66MOL0     H 8857   5.629   5.650   3.201 -3.6207  0.6588  1.6455
   66MOL0     H 8858   5.549   5.618   3.039 -4.1891  2.9926 -0.6831
   66MOL0     H 8859   5.786   5.810   3.100  0.8286  2.4039 -3.1605
   66MOL0     H 8860   5.739   5.773   2.937  1.5681  2.5842  0.2500
   66MOL0     H 8861   6.044   5.668   3.109  0.4954  0.0938 -0.2612
   66MOL0     H 8862   6.207   5.456   3.134  2.5113 -2.7774 -0.4230
   66MOL0     H 8863   6.108   5.312   3.106 -0.7591 -0.1058  0.7231
   66MOL0     H 8864   6.262   5.443   2.873  1.1167 -0.2897  0.3978
   66MOL0     H 8865   6.177   5.293   2.868 -0.3354  0.4061  0.8652
   66MOL0     H 8866   6.426   5.370   3.018 -0.3026 -0.9486  0.9842
   66MOL0     H 8867   6.409   5.256   2.881  0.6093 -2.5869  0.6107
   66MOL0     H 8868   6.303   5.208   3.153  0.2155 -0.9883  0.0487
   66MOL0     H 8869   6.435   5.124   3.073 -0.6784 -2.7500  0.1015
   66MOL0     H 8870   6.477   4.994   2.893  0.0220 -3.9658  1.7552
   66MOL0     H 8871   6.605   4.908   2.742  2.3813 -0.4277 -1.5898
   66MOL0     H 8872   6.570   4.751   2.704  4.4369  1.3215  0.5606
   66MOL0     H 8873   6.550   4.877   2.578 -4.4315 -1.9612 -0.9514
   66MOL0     H 8874   5.933   4.620   2.404  1.4771 -0.2171  5.7132
   66MOL0     H 8875   5.894   4.449   2.229 -0.5185 -0.8302  2.1002
   66MOL0     H 8876   5.959   4.071   2.182  1.2346  0.2692 -2.3436
   66MOL0     H 8877   5.898   4.207   2.267  0.9133  2.5332 -0.7961
   66MOL0     H 8878   5.827   4.318   2.064 -4.0997 -0.4510  1.3512
   66MOL0     H 8879   5.925   4.207   1.972 -0.0535  0.6268 -0.7304
   66MOL0     H 8880   5.698   4.119   2.168  1.3725  2.5486  0.7849
   66MOL0     H 8881   5.779   4.014   2.053  1.1023  0.7961  2.1514
   66MOL0     H 8882   5.592   4.268   2.031  1.4820 -0.4416  1.5364
   66MOL0     H 8883   5.667   4.201   1.881 -3.7729 -1.3223 -2.3645
   66MOL0     H 8884   5.443   4.155   1.866 -0.3696  0.6052  0.9062
   66MOL0     H 8885   5.423   4.097   2.024  0.0996 -2.0526 -0.8374
   66MOL0     H 8886   5.581   3.972   1.803  0.1636  1.7628  0.3714
   66MOL0     H 8887   5.572   3.898   1.971 -0.6130  0.4799  1.3765
   66MOL0     H 8888   5.350   3.859   1.953  1.6517 -2.9504  1.4618
   66MOL0     H 8889   5.466   3.765   1.867 -0.8978 -0.9579 -1.1927
   66MOL0     H 8890   5.408   3.875   1.651  3.9330 -0.4810  3.1071
   66MOL0     H 8891   5.282   3.982   1.728  0.2343 -0.8302  0.1421
   66MOL0     H 8892   6.281   4.278   2.333  1.1250  0.7895  0.3193
   66MOL0     H 8893   6.330   4.467   2.479  0.6376  0.5618 -1.2998
   66MOL0     H 8894   6.068   4.825   2.689 -1.0662  4.7433 -1.4860
   66MOL0     H 8895   6.050   5.007   2.851  1.3706  2.1989  1.4092
   66MOL0     H 8896   4.973   6.285   2.955  1.7121 -2.2003 -1.5051
   66MOL0     H 8897   4.756   6.361   3.040 -0.5450  0.8831 -3.5072
   66MOL0     H 8898   4.312   6.172   3.176  1.4481  0.0389 -2.9674
   66MOL0     H 8899   4.099   6.227   3.291  0.4208 -1.8607 -0.4702
   66MOL0     H 8900   3.772   6.510   3.209 -0.3972 -1.1036 -0.0918
   66MOL0     H 8901   3.896   6.521   3.082 -0.7266  1.6744 -0.2807
   66MOL0     H 8902   3.786   6.260   3.206 -1.8667  2.7657  1.4145
   66MOL0     H 8903   3.904   6.263   3.079 -1.6648 -2.1911  1.3881
   66MOL0     H 8904   3.697   6.383   2.941 -1.9078 -0.1150 -0.0673
   66MOL0     H 8905   3.611   6.313   3.067  0.1073 -0.6852 -0.9102
   66MOL0     H 8906   3.747   6.096   3.015  0.8290  1.7046  0.7904
   66MOL0     H 8907   3.786   6.170   2.868  0.2645  1.7879  1.1831
   66MOL0     H 8908   3.359   6.081   2.856 -0.9599  2.4965 -0.5234
   66MOL0     H 8909   4.114   6.615   3.102  0.8240  0.8017  0.4314
   66MOL0     H 8910   4.328   6.560   3.004  1.3373 -2.1330 -2.0843
   67MOL0     O 8911   5.314   4.807   4.494  0.4796 -0.1916 -0.4021
   67MOL0     C 8912   5.321   4.735   4.592  0.5677  0.7965  0.6105
   67MOL0     O 8913   5.209   4.681   4.660 -0.6391 -0.5821 -0.0855
   67MOL0     C 8914   5.084   4.729   4.621 -0.1781  0.1954 -0.1217
   67MOL0     C 8915   4.997   4.641   4.562  0.3204 -0.5924 -0.5408
   67MOL0     C 8916   4.871   4.686   4.529 -0.2672 -0.6155 -0.0247
   67MOL0     C 8917   4.818   4.816   4.564 -0.5028 -0.3918  0.1625
   67MOL0     O 8918   4.694   4.873   4.521 -0.7577 -0.5283  0.5970
   67MOL0     C 8919   4.615   4.797   4.431 -0.6887  0.0064 -0.7660
   67MOL0     C 8920   4.493   4.874   4.378 -0.3448 -0.0214 -0.1794
   67MOL0     C 8921   4.380   4.885   4.486 -0.7413 -0.0714  0.2064
   67MOL0     C 8922   4.264   4.979   4.440  0.5111  0.1148 -0.1636
   67MOL0     C 8923   4.150   4.986   4.538  0.4294 -0.6318  1.0816
   67MOL0     C 8924   4.036   5.078   4.482  0.2513 -0.6460 -0.1768
   67MOL0     C 8925   3.906   5.023   4.546  0.3620 -0.7764  0.5312
   67MOL0     C 8926   3.789   5.101   4.476  0.2142 -0.5195 -0.2525
   67MOL0     N 8927   3.665   5.100   4.554 -0.6718  0.9781  0.3206
   67MOL0     C 8928   3.619   5.194   4.638 -0.4272 -0.5536 -1.0339
   67MOL0     C 8929   3.497   5.151   4.682  0.4527 -0.6635  0.2877
   67MOL0     C 8930   3.392   5.221   4.763 -1.2506  0.0688  0.9305
   67MOL0     C 8931   3.269   5.270   4.686 -0.9917 -1.3604 -0.1784
   67MOL0     C 8932   3.309   5.379   4.590 -0.7231 -0.4060 -0.3270
   67MOL0     C 8933   3.182   5.449   4.533 -0.0884  0.0229 -0.0237
   67MOL0     O 8934   3.209   5.566   4.460 -0.1713  0.2423  0.0378
   67MOL0     C 8935   3.124   5.603   4.358 -0.3582  0.2576 -0.6845
   67MOL0     C 8936   3.165   5.702   4.265  0.6141 -0.9428  0.7229
   67MOL0     C 8937   3.089   5.762   4.167  1.4094  0.1830  0.1835
   67MOL0     C 8938   3.171   5.839   4.065  0.2510  0.5907  0.2364
   67MOL0     C 8939   2.952   5.716   4.162  0.5468 -0.9975  0.1930
   67MOL0     C 8940   2.854   5.765   4.055 -0.0025  0.3988 -0.1004
   67MOL0     O 8941   2.729   5.702   4.044 -0.4935  0.0192  0.4722
   67MOL0     C 8942   2.637   5.751   3.950  0.2663  1.2775  0.3177
   67MOL0     C 8943   2.525   5.818   3.992  1.1347  0.5366  0.6268
   67MOL0     C 8944   2.427   5.839   3.902 -0.5359  0.0879 -0.0528
   67MOL0     C 8945   2.454   5.827   3.761  0.0738  0.0406 -0.3165
   67MOL0     O 8946   2.366   5.857   3.660 -0.0873  0.3546  0.1138
   67MOL0     C 8947   2.248   5.918   3.691  0.3339 -0.2340 -0.3518
   67MOL0     C 8948   2.190   5.970   3.556 -0.1326 -0.5314  0.4315
   67MOL0     C 8949   2.285   6.076   3.486  0.0348  0.1397  0.7859
   67MOL0     C 8950   2.223   6.120   3.353 -0.9843  0.4008 -0.2791
   67MOL0     C 8951   2.288   6.253   3.311  0.6641  1.1640  0.0101
   67MOL0     C 8952   2.211   6.327   3.185 -0.4607 -0.6596 -0.1961
   67MOL0     C 8953   2.076   6.372   3.235 -0.2278 -0.9203  1.5779
   67MOL0     C 8954   2.017   6.461   3.123 -0.4390 -0.0705 -1.4928
   67MOL0    Cl 8955   1.858   6.521   3.182 -0.1225  0.5576 -0.2709
   67MOL0     C 8956   2.575   5.765   3.716 -0.3812  0.9331 -0.1710
   67MOL0     C 8957   2.663   5.722   3.816  0.2353  1.1293  0.2472
   67MOL0     O 8958   2.868   5.875   4.009 -0.7866 -0.3103 -0.7720
   67MOL0     C 8959   2.908   5.623   4.253 -0.0302  0.0406 -0.3479
   67MOL0     C 8960   2.988   5.579   4.359  0.4205  0.4126  0.4901
   67MOL0     N 8961   3.470   5.030   4.626  0.4700 -0.5272 -0.0011
   67MOL0     N 8962   3.562   5.009   4.541  0.2913  0.7050 -0.3508
   67MOL0     C 8963   4.913   4.898   4.635  0.7946  1.0269  0.5544
   67MOL0     C 8964   5.042   4.856   4.662 -0.0148 -0.5174 -0.9516
   67MOL0     C 8965   5.459   4.682   4.604 -0.4396  0.0765 -0.4601
   67MOL0     C 8966   5.478   4.574   4.685  0.9264 -0.0962  0.5009
   67MOL0     C 8967   5.605   4.516   4.700 -0.2264 -0.3605  0.1702
   67MOL0     C 8968   5.713   4.580   4.637 -0.1439 -0.9470  0.2326
   67MOL0     O 8969   5.839   4.519   4.662  0.2205  0.5611  0.2799
   67MOL0     C 8970   5.967   4.574   4.627 -0.3474  1.2418  0.1295
   67MOL0     C 8971   6.075   4.469   4.657 -0.3719  0.6145  0.0714
   67MOL0     C 8972   6.045   4.327   4.601  1.3162  0.7471 -0.2573
   67MOL0     C 8973   6.014   4.339   4.451 -0.6851 -0.2692  0.0194
   67MOL0     C 8974   6.020   4.213   4.377  0.6434 -0.5314  0.9884
   67MOL0     C 8975   6.021   4.113   4.305  0.0744  0.0693  0.8526
   67MOL0     C 8976   5.694   4.700   4.566 -0.4727 -0.2017  0.3541
   67MOL0     C 8977   5.567   4.755   4.542 -0.2094 -0.0206  0.1156
   67MOL0     H 8978   5.016   4.536   4.543 -0.4347 -1.2471  1.9489
   67MOL0     H 8979   4.802   4.620   4.476 -1.2642 -0.2246  0.7728
   67MOL0     H 8980   4.681   4.765   4.350  0.7995 -0.3466  0.5342
   67MOL0     H 8981   4.584   4.700   4.472  0.2504 -1.1439 -2.6123
   67MOL0     H 8982   4.515   4.973   4.336 -1.9291 -0.5008 -2.2828
   67MOL0     H 8983   4.458   4.807   4.299 -1.4827 -0.5072  0.7071
   67MOL0     H 8984   4.346   4.783   4.505  0.8218 -0.0654  3.6433
   67MOL0     H 8985   4.433   4.924   4.573  0.0849  5.1849 -2.2465
   67MOL0     H 8986   4.303   5.080   4.422 -0.5912  0.3214 -1.6214
   67MOL0     H 8987   4.234   4.954   4.337  1.9142  2.7003 -1.2810
   67MOL0     H 8988   4.108   4.887   4.558  1.6740 -0.5233  4.9984
   67MOL0     H 8989   4.186   5.024   4.634  1.6966  0.8571  0.0792
   67MOL0     H 8990   4.040   5.186   4.500 -3.5726 -0.7169  1.9979
   67MOL0     H 8991   4.036   5.064   4.374  1.6883  0.1059 -0.3047
   67MOL0     H 8992   3.891   4.917   4.522 -1.8733 -0.8723  2.0854
   67MOL0     H 8993   3.896   5.032   4.654 -1.7132 -3.1370  0.6306
   67MOL0     H 8994   3.779   5.045   4.383  0.5286 -0.9856 -0.0144
   67MOL0     H 8995   3.821   5.203   4.456  1.3448 -0.8894 -0.3969
   67MOL0     H 8996   3.671   5.283   4.669 -2.9443 -0.0696  2.3895
   67MOL0     H 8997   3.363   5.152   4.843  1.8318 -0.3360  1.8300
   67MOL0     H 8998   3.437   5.302   4.821  1.8749  0.3231 -1.6127
   67MOL0     H 8999   3.197   5.294   4.765 -1.1723 -5.2496  1.0141
   67MOL0     H 9000   3.228   5.187   4.628 -0.1230 -2.2243  0.4269
   67MOL0     H 9001   3.366   5.340   4.506  0.0662 -3.8150  1.6161
   67MOL0     H 9002   3.380   5.450   4.634 -1.7011  1.7384 -2.0094
   67MOL0     H 9003   3.122   5.493   4.614 -2.1180  2.5985 -2.6727
   67MOL0     H 9004   3.115   5.384   4.475 -0.3713  0.0406  0.2797
   67MOL0     H 9005   3.266   5.740   4.273  1.3898 -3.2238  2.8310
   67MOL0     H 9006   3.110   5.876   3.982  0.7788 -1.2088 -1.0180
   67MOL0     H 9007   3.218   5.924   4.115 -2.0545  1.2794  1.3567
   67MOL0     H 9008   3.250   5.779   4.018  1.1289  1.5116  0.5042
   67MOL0     H 9009   2.504   5.829   4.098 -0.6917  3.6601  0.0433
   67MOL0     H 9010   2.338   5.884   3.944 -1.7306 -2.2215  0.0693
   67MOL0     H 9011   2.178   5.848   3.737 -0.2083  1.3059  1.2989
   67MOL0     H 9012   2.265   6.002   3.759 -0.5206 -0.1662 -0.2093
   67MOL0     H 9013   2.178   5.875   3.503 -0.7697 -0.8737  1.1757
   67MOL0     H 9014   2.090   6.015   3.560  0.3653  1.0525 -2.2573
   67MOL0     H 9015   2.389   6.048   3.467  1.0641  2.6320  2.3186
   67MOL0     H 9016   2.283   6.162   3.553  2.0121  1.5107 -0.7885
   67MOL0     H 9017   2.233   6.031   3.290 -0.9341 -2.0851  2.9752
   67MOL0     H 9018   2.115   6.133   3.366 -0.9155  0.3331  0.3735
   67MOL0     H 9019   2.393   6.228   3.295  0.6640  0.6635  0.7454
   67MOL0     H 9020   2.274   6.322   3.394 -1.2239 -1.4017  1.9879
   67MOL0     H 9021   2.272   6.410   3.148 -2.9229  0.9521 -0.8524
   67MOL0     H 9022   2.203   6.258   3.101  3.1286 -0.8943 -0.5275
   67MOL0     H 9023   2.091   6.435   3.323 -3.0720  1.0868  0.7744
   67MOL0     H 9024   2.003   6.298   3.267 -1.6448 -0.2270  0.1278
   67MOL0     H 9025   2.014   6.407   3.028 -0.0759 -2.4649 -0.2277
   67MOL0     H 9026   2.089   6.544   3.123 -0.7175  0.2525  1.0282
   67MOL0     H 9027   2.600   5.744   3.613  1.1666 -0.9544  0.5269
   67MOL0     H 9028   2.753   5.670   3.784  0.3391  1.5781 -0.2057
   67MOL0     H 9029   2.803   5.597   4.249 -0.0076  0.0604 -2.6056
   67MOL0     H 9030   2.950   5.530   4.448  0.8092  0.0193  0.4451
   67MOL0     H 9031   4.884   4.998   4.665 -0.1046  1.4443 -1.5075
   67MOL0     H 9032   5.105   4.928   4.713  1.1257 -2.5444  0.6444
   67MOL0     H 9033   5.391   4.528   4.731  0.4295 -0.5302 -0.8355
   67MOL0     H 9034   5.635   4.429   4.758 -1.4892 -0.1231  1.2310
   67MOL0     H 9035   5.974   4.583   4.518  1.1729 -2.6948 -0.2630
   67MOL0     H 9036   5.996   4.663   4.683  3.0819  0.1631  0.3046
   67MOL0     H 9037   6.083   4.447   4.764 -0.7009 -2.3267 -0.4337
   67MOL0     H 9038   6.172   4.503   4.620 -0.3898  1.2940  0.6190
   67MOL0     H 9039   5.959   4.291   4.659  1.2818 -2.7699 -2.1961
   67MOL0     H 9040   6.135   4.268   4.618  0.8232 -0.3048 -1.1924
   67MOL0     H 9041   6.079   4.408   4.396  0.6279 -0.8662  0.7694
   67MOL0     H 9042   5.917   4.387   4.437 -0.8542 -0.2694  1.1436
   67MOL0     H 9043   6.025   4.029   4.239 -0.0780  1.5044 -1.0656
   67MOL0     H 9044   5.784   4.752   4.535  1.0376 -2.9219 -0.1800
   67MOL0     H 9045   5.547   4.843   4.481 -1.6310 -1.1431 -1.1233
   68MOL0     O 9046   4.448  10.687   9.718 -0.1781 -0.2376 -0.5551
   68MOL0     C 9047   4.504  10.592   9.774  0.9082 -0.9734  0.2067
   68MOL0     O 9048   4.441  10.479   9.798  0.9932  0.0947 -0.3108
   68MOL0     C 9049   4.307  10.445   9.789  1.6053 -0.1805 -0.2711
   68MOL0     C 9050   4.274  10.316   9.816  0.0256  0.9112 -0.2730
   68MOL0     C 9051   4.142  10.274   9.810 -0.1225  1.5335  1.2828
   68MOL0     C 9052   4.033  10.350   9.773 -0.2288  0.9158  0.2463
   68MOL0     O 9053   3.911  10.292   9.764  0.1387  0.0283 -0.6718
   68MOL0     C 9054   3.840  10.301   9.642  0.3512  0.4137 -0.5380
   68MOL0     C 9055   3.696  10.252   9.665 -0.2698 -0.0545 -0.6051
   68MOL0     C 9056   3.686  10.134   9.761 -0.3380  0.0371 -0.9943
   68MOL0     C 9057   3.552  10.073   9.745  0.5491  0.5728 -0.1257
   68MOL0     C 9058   3.458  10.140   9.858  0.5611 -0.2196 -0.2993
   68MOL0     C 9059   3.301  10.111   9.847 -0.2105  0.3164 -0.3639
   68MOL0     C 9060   3.249  10.185   9.719 -0.6714 -0.0616 -0.0760
   68MOL0     C 9061   3.099  10.191   9.711  0.2606 -0.5652  0.2072
   68MOL0     N 9062   3.008  10.226   9.821 -0.5293  1.1454 -1.1029
   68MOL0     C 9063   3.008  10.350   9.895  0.1136 -0.0960 -1.0405
   68MOL0     C 9064   2.937  10.323  10.013  0.4746 -0.4890  0.4924
   68MOL0     C 9065   2.899  10.404  10.137  0.0191  0.1797  0.2520
   68MOL0     C 9066   2.760  10.468  10.122 -0.7558  0.2195  0.3616
   68MOL0     C 9067   2.650  10.358  10.076 -0.1701 -0.0013  0.3678
   68MOL0     C 9068   2.504  10.397  10.107 -0.2519  0.2679  0.2131
   68MOL0     O 9069   2.495  10.396  10.246  0.2819  0.0360  0.3078
   68MOL0     C 9070   2.378  10.398  10.312  1.0664 -0.0933  0.5424
   68MOL0     C 9071   2.391  10.365  10.441 -0.3813 -0.2610  0.3692
   68MOL0     C 9072   2.290  10.386  10.535 -0.3419  0.1653 -0.0605
   68MOL0     C 9073   2.306  10.311  10.663  0.0324  0.1949  0.1022
   68MOL0     C 9074   2.176  10.456  10.497  0.1408 -0.3900  0.5155
   68MOL0     C 9075   2.052  10.467  10.576  0.0749 -1.1485  0.4530
   68MOL0     O 9076   1.967  10.544  10.512 -0.4113 -0.1428  0.2839
   68MOL0     C 9077   1.852  10.577  10.587 -0.7386 -0.3571  1.5460
   68MOL0     C 9078   1.747  10.479  10.584  0.2858  0.1262 -0.3457
   68MOL0     C 9079   1.635  10.500  10.658 -0.3428  0.1312 -0.7168
   68MOL0     C 9080   1.617  10.616  10.736  0.6471  0.8961  0.2826
   68MOL0     O 9081   1.510  10.638  10.821 -0.4131  0.0078  0.2920
   68MOL0     C 9082   1.409  10.540  10.823  0.8522 -0.1644  0.2860
   68MOL0     C 9083   1.287  10.602  10.909 -0.5193  1.7438  0.4612
   68MOL0     C 9084   1.206  10.680  10.817  0.2297 -0.0544 -0.8197
   68MOL0     C 9085   1.064  10.710  10.858  0.4009 -0.0981  0.2827
   68MOL0     C 9086   1.043  10.790  10.989 -0.3759  0.0539  0.3191
   68MOL0     C 9087   0.906  10.758  11.054  0.2002  0.1331 -1.1813
   68MOL0     C 9088   0.850  10.871  11.136 -0.3834 -1.4454  0.5600
   68MOL0     C 9089   0.699  10.862  11.135 -0.2482  0.5403 -0.4612
   68MOL0    Cl 9090   0.617  10.697  11.163 -0.3972 -0.7067 -0.0162
   68MOL0     C 9091   1.723  10.707  10.736  0.0998  0.3814 -0.1719
   68MOL0     C 9092   1.839  10.692  10.659  0.4217 -0.1122 -0.0183
   68MOL0     O 9093   2.030  10.411  10.681 -0.2215  0.5177  0.2179
   68MOL0     C 9094   2.176  10.513  10.373  0.6956 -0.7441 -0.0382
   68MOL0     C 9095   2.273  10.486  10.278  0.1966  0.4898 -0.3458
   68MOL0     N 9096   2.895  10.188  10.005 -0.0225 -0.8241 -0.3863
   68MOL0     N 9097   2.935  10.132   9.891  0.3652 -0.4272  0.0134
   68MOL0     C 9098   4.068  10.482   9.741 -0.3126 -0.0350  0.0694
   68MOL0     C 9099   4.203  10.531   9.750  0.6016  0.1468  0.0285
   68MOL0     C 9100   4.649  10.597   9.809  1.0978  0.0980 -0.1676
   68MOL0     C 9101   4.712  10.485   9.874 -0.0882 -0.1145  1.2534
   68MOL0     C 9102   4.846  10.489   9.913  0.4236 -0.6106  0.0748
   68MOL0     C 9103   4.923  10.613   9.902  0.1142 -0.1895  0.2197
   68MOL0     O 9104   5.050  10.605   9.952 -0.3869  0.0893 -0.2411
   68MOL0     C 9105   5.134  10.725   9.943 -0.0670  0.2833  0.4035
   68MOL0     C 9106   5.261  10.720  10.012  0.5170 -0.6891  0.1118
   68MOL0     C 9107   5.328  10.589  10.011 -0.0515  0.4325  0.4230
   68MOL0     C 9108   5.463  10.591  10.103  0.6377  0.7619  0.7035
   68MOL0     C 9109   5.565  10.676  10.041 -0.0666 -0.7758  1.2671
   68MOL0     C 9110   5.651  10.758  10.016  0.1885  0.0393  0.9364
   68MOL0     C 9111   4.863  10.719   9.828  0.9558  0.8097 -0.3612
   68MOL0     C 9112   4.727  10.708   9.780  0.2274 -0.6722  0.3417
   68MOL0     H 9113   4.344  10.234   9.831 -2.2931 -1.0931  0.2667
   68MOL0     H 9114   4.128  10.167   9.826  0.2723  1.3867  0.6820
   68MOL0     H 9115   3.834  10.402   9.600 -4.6599  0.3963 -0.4894
   68MOL0     H 9116   3.899  10.239   9.574 -1.0749 -0.8754 -0.6681
   68MOL0     H 9117   3.639  10.340   9.698  0.5824 -0.5007  2.3620
   68MOL0     H 9118   3.656  10.211   9.572  0.1584  0.6823 -1.1276
   68MOL0     H 9119   3.749  10.048   9.734  2.0001  1.4153 -0.2473
   68MOL0     H 9120   3.707  10.157   9.866 -1.7339 -4.4685  0.4887
   68MOL0     H 9121   3.505  10.083   9.646  0.7437  0.7896 -0.1985
   68MOL0     H 9122   3.562   9.966   9.763  3.8802  0.2788 -2.7378
   68MOL0     H 9123   3.497  10.105   9.954 -2.4446  3.5674  2.6358
   68MOL0     H 9124   3.482  10.247   9.854 -1.0933  0.1902 -0.0674
   68MOL0     H 9125   3.269  10.006   9.854 -1.6191  0.8459  3.2666
   68MOL0     H 9126   3.258  10.147   9.941  0.0872 -1.7864  0.6459
   68MOL0     H 9127   3.292  10.284   9.733  0.2053 -0.8513  3.7345
   68MOL0     H 9128   3.284  10.142   9.624 -0.6639 -0.7255  0.2225
   68MOL0     H 9129   3.076  10.085   9.700 -1.7299 -0.3074  1.5376
   68MOL0     H 9130   3.075  10.237   9.615 -2.4730  0.2596  1.2049
   68MOL0     H 9131   3.054  10.445   9.871  0.7928 -0.6326 -1.9152
   68MOL0     H 9132   2.891  10.335  10.222 -1.6930  1.6375  1.3483
   68MOL0     H 9133   2.980  10.476  10.153  4.2033 -3.9052 -0.3407
   68MOL0     H 9134   2.781  10.538  10.041 -2.2988  0.7170  0.3617
   68MOL0     H 9135   2.735  10.520  10.215 -0.8535  2.9554 -1.1188
   68MOL0     H 9136   2.663  10.255  10.112 -3.3004 -0.8258 -0.5107
   68MOL0     H 9137   2.664  10.352   9.968 -0.6925 -1.8811  0.3625
   68MOL0     H 9138   2.442  10.316  10.069  1.1239 -1.4199  1.4506
   68MOL0     H 9139   2.486  10.500  10.073  0.1549  0.6112  0.9933
   68MOL0     H 9140   2.474  10.308  10.482  1.0971  1.7581  0.3373
   68MOL0     H 9141   2.267  10.378  10.740 -0.1822  0.6750 -0.4229
   68MOL0     H 9142   2.267  10.208  10.665  2.1860 -0.9329 -4.3204
   68MOL0     H 9143   2.414  10.300  10.672  0.0774  1.5415  1.5407
   68MOL0     H 9144   1.762  10.393  10.519  2.3187  0.6659 -0.6538
   68MOL0     H 9145   1.560  10.421  10.656 -0.2504  0.0508 -2.4575
   68MOL0     H 9146   1.378  10.503  10.725  0.6455 -0.7349  0.5624
   68MOL0     H 9147   1.447  10.447  10.866 -0.4145 -0.8006  0.0785
   68MOL0     H 9148   1.239  10.508  10.938  3.4978 -1.1665 -1.4504
   68MOL0     H 9149   1.319  10.656  10.999  0.9912 -2.4093  2.6452
   68MOL0     H 9150   1.218  10.645  10.714  5.7127  0.2186 -0.5561
   68MOL0     H 9151   1.253  10.779  10.807  0.3087 -0.1764 -1.7854
   68MOL0     H 9152   1.022  10.778  10.783  0.8315  0.8349  0.8757
   68MOL0     H 9153   1.014  10.613  10.857 -0.6549  0.4395 -0.4311
   68MOL0     H 9154   1.062  10.895  10.967 -0.1388  0.0157  0.3419
   68MOL0     H 9155   1.114  10.766  11.069 -1.0288  0.4773  1.0431
   68MOL0     H 9156   0.838  10.736  10.972 -0.1301 -1.8725 -0.4123
   68MOL0     H 9157   0.904  10.663  11.108 -2.4985  0.4328 -0.6239
   68MOL0     H 9158   0.873  10.971  11.098 -0.6907 -0.2649  3.2826
   68MOL0     H 9159   0.887  10.878  11.238  2.2884  2.5167 -0.4031
   68MOL0     H 9160   0.664  10.909  11.042 -1.4967 -1.1308 -0.8738
   68MOL0     H 9161   0.667  10.926  11.218  1.2909  0.0708  0.5466
   68MOL0     H 9162   1.722  10.795  10.799  1.5840 -0.5663  1.2226
   68MOL0     H 9163   1.921  10.761  10.680 -0.2779  0.8444 -0.3376
   68MOL0     H 9164   2.098  10.576  10.332  1.5339  0.2435 -0.1516
   68MOL0     H 9165   2.282  10.535  10.182  5.3425  1.1781  0.2051
   68MOL0     H 9166   3.999  10.563   9.719  0.0293  1.4393  3.7847
   68MOL0     H 9167   4.213  10.637   9.726 -0.8060  1.0168  2.8290
   68MOL0     H 9168   4.669  10.386   9.893  1.6977 -0.9536  1.1104
   68MOL0     H 9169   4.897  10.401   9.949  2.2104 -0.0457 -0.9024
   68MOL0     H 9170   5.152  10.758   9.840  0.0728 -0.3296  0.2271
   68MOL0     H 9171   5.083  10.815   9.980  3.2203  3.5960 -2.2649
   68MOL0     H 9172   5.257  10.756  10.115  1.0508  2.3091 -0.8439
   68MOL0     H 9173   5.325  10.787   9.953 -2.5453  0.8525 -1.7127
   68MOL0     H 9174   5.374  10.573   9.913 -0.5299  0.4823  0.1922
   68MOL0     H 9175   5.261  10.510  10.046 -1.0397  2.6343  4.0265
   68MOL0     H 9176   5.513  10.494  10.103  1.4281  1.1527 -0.4941
   68MOL0     H 9177   5.428  10.608  10.205 -0.9655 -2.8112  0.9024
   68MOL0     H 9178   5.717  10.833   9.975 -1.0092  0.1550 -0.8931
   68MOL0     H 9179   4.928  10.804   9.810 -0.0680  1.6937  0.0079
   68MOL0     H 9180   4.679  10.792   9.731  2.1038 -0.2882 -0.9464
   69MOL0     O 9181   7.521   3.503   8.409  0.1236  0.4705 -0.1191
   69MOL0     C 9182   7.610   3.564   8.466  0.3634 -0.3436  0.6433
   69MOL0     O 9183   7.606   3.689   8.528  0.2138  0.0602 -0.0249
   69MOL0     C 9184   7.492   3.766   8.500  0.1487 -0.4661  0.9119
   69MOL0     C 9185   7.500   3.851   8.391  0.2464  0.3825 -0.5773
   69MOL0     C 9186   7.384   3.930   8.354  0.4648 -0.0914  0.8414
   69MOL0     C 9187   7.264   3.925   8.431  0.2716  0.2041  0.0594
   69MOL0     O 9188   7.160   3.999   8.402  0.5636 -0.3831  0.1246
   69MOL0     C 9189   7.095   3.963   8.277  0.1937  0.5542  0.5146
   69MOL0     C 9190   6.964   4.030   8.251  0.5290  0.1855 -0.1273
   69MOL0     C 9191   6.872   3.983   8.366  0.0737  0.4799 -0.6388
   69MOL0     C 9192   6.719   3.999   8.349 -0.2049  0.2144 -0.8058
   69MOL0     C 9193   6.655   4.094   8.450 -0.3888  0.3009 -0.0277
   69MOL0     C 9194   6.506   4.069   8.453  0.6868 -0.6268 -0.6837
   69MOL0     C 9195   6.432   4.150   8.556 -0.1894 -0.4508  0.5771
   69MOL0     C 9196   6.451   4.083   8.683  0.1371  0.2710 -0.5444
   69MOL0     N 9197   6.377   4.139   8.791 -0.1095 -0.2685 -0.7192
   69MOL0     C 9198   6.238   4.140   8.800 -0.9188 -0.2434  0.2868
   69MOL0     C 9199   6.197   4.198   8.914  0.3301 -0.7623  0.0799
   69MOL0     C 9200   6.056   4.225   8.952  0.0144 -0.7295  0.5097
   69MOL0     C 9201   6.018   4.135   9.066 -0.8839  0.2697 -0.2527
   69MOL0     C 9202   5.909   4.193   9.160 -0.9561  0.6846 -0.2157
   69MOL0     C 9203   5.932   4.336   9.214 -0.0297 -0.3480 -0.6597
   69MOL0     O 9204   5.802   4.370   9.274 -0.1330 -0.5768 -0.1572
   69MOL0     C 9205   5.783   4.477   9.359 -0.7909 -0.0172  0.4122
   69MOL0     C 9206   5.881   4.584   9.374  0.9798  0.4352 -0.0091
   69MOL0     C 9207   5.855   4.693   9.454 -0.9215  0.2718 -0.2309
   69MOL0     C 9208   5.947   4.819   9.464  0.3326  0.5333 -0.2702
   69MOL0     C 9209   5.732   4.688   9.525 -0.1119 -0.7580 -1.6892
   69MOL0     C 9210   5.687   4.798   9.619 -0.3831 -0.9167  0.1179
   69MOL0     O 9211   5.777   4.832   9.714 -0.1111 -0.1828  0.8188
   69MOL0     C 9212   5.756   4.938   9.793 -0.4530  0.2595 -0.3189
   69MOL0     C 9213   5.645   4.956   9.876 -0.3159 -0.1116 -0.6142
   69MOL0     C 9214   5.635   5.067   9.958 -0.0545 -0.9364 -0.5738
   69MOL0     C 9215   5.716   5.178   9.940 -0.2926 -0.6227 -0.5288
   69MOL0     O 9216   5.695   5.287  10.018  0.3294  0.5173 -0.4667
   69MOL0     C 9217   5.801   5.312  10.100  0.0792 -0.5163  0.6323
   69MOL0     C 9218   5.757   5.428  10.181  0.3069  0.5494  0.4555
   69MOL0     C 9219   5.863   5.455  10.294 -0.5135  0.0093 -0.2021
   69MOL0     C 9220   5.984   5.539  10.238  0.2219  0.4753 -0.9292
   69MOL0     C 9221   5.960   5.687  10.244 -0.4123 -0.6326  0.4892
   69MOL0     C 9222   5.862   5.743  10.148 -0.0546 -1.0946  0.8023
   69MOL0     C 9223   5.855   5.900  10.141 -0.1995  0.4858 -1.3668
   69MOL0     C 9224   5.957   5.954  10.039  0.2315 -0.6215 -0.6713
   69MOL0    Cl 9225   5.926   5.931   9.861  0.4439 -0.1926  0.1774
   69MOL0     C 9226   5.826   5.171   9.856  0.2760  0.0742 -0.3310
   69MOL0     C 9227   5.848   5.048   9.787  0.2362 -0.6513  0.5497
   69MOL0     O 9228   5.572   4.840   9.614 -0.1328 -0.4045 -0.1269
   69MOL0     C 9229   5.645   4.583   9.510 -0.0244  0.3585  0.4754
   69MOL0     C 9230   5.674   4.479   9.429  0.8541 -0.3018 -0.1504
   69MOL0     N 9231   6.314   4.232   8.976  0.3224  0.1025 -0.1280
   69MOL0     N 9232   6.419   4.188   8.909  0.3291  0.2988  0.2265
   69MOL0     C 9233   7.268   3.834   8.538  0.2586  0.4109  0.5605
   69MOL0     C 9234   7.375   3.753   8.575 -0.2579 -0.2322 -0.1270
   69MOL0     C 9235   7.737   3.494   8.452  0.9894  0.4441 -0.5888
   69MOL0     C 9236   7.855   3.539   8.515 -1.2186  0.1579  0.8165
   69MOL0     C 9237   7.983   3.472   8.494  0.6148 -0.1373 -0.3734
   69MOL0     C 9238   7.996   3.357   8.406  0.6578 -0.1463  0.0674
   69MOL0     O 9239   8.117   3.298   8.370  0.5557  0.1184 -0.2658
   69MOL0     C 9240   8.235   3.367   8.369 -0.2658  0.3292  0.2096
   69MOL0     C 9241   8.356   3.275   8.355 -0.0425 -0.1994  0.3622
   69MOL0     C 9242   8.473   3.351   8.302  0.3513  0.2015 -0.7825
   69MOL0     C 9243   8.522   3.275   8.175 -0.5456  0.0133 -0.0225
   69MOL0     C 9244   8.625   3.361   8.111  0.1026  1.1800  0.7984
   69MOL0     C 9245   8.708   3.427   8.048  0.4911  0.4413 -0.6803
   69MOL0     C 9246   7.880   3.323   8.342  0.4089  0.3227  0.7065
   69MOL0     C 9247   7.751   3.373   8.373  0.5494 -0.1563 -0.5649
   69MOL0     H 9248   7.592   3.840   8.334 -0.6458  2.4923 -2.5594
   69MOL0     H 9249   7.386   3.976   8.255  3.4197  0.5540  1.1291
   69MOL0     H 9250   7.153   3.980   8.186 -0.1693  3.1142  0.6937
   69MOL0     H 9251   7.061   3.859   8.269 -2.2708  1.3156  0.5181
   69MOL0     H 9252   6.980   4.138   8.251 -1.1343  0.4489 -0.3762
   69MOL0     H 9253   6.930   3.996   8.153  0.8692  0.1662 -0.2395
   69MOL0     H 9254   6.885   3.875   8.375 -0.6702 -0.1107 -4.6390
   69MOL0     H 9255   6.907   4.039   8.453  0.2897 -2.7197  1.5097
   69MOL0     H 9256   6.687   4.019   8.247  2.3944  1.1835 -1.4919
   69MOL0     H 9257   6.682   3.903   8.387  1.2971  0.5390  1.7222
   69MOL0     H 9258   6.706   4.078   8.545  2.2914 -0.4180 -1.4734
   69MOL0     H 9259   6.680   4.199   8.433  0.3844 -0.3651 -3.9219
   69MOL0     H 9260   6.469   4.104   8.356  2.5087  2.4234 -0.3934
   69MOL0     H 9261   6.475   3.964   8.454 -2.3939  0.1671 -0.2610
   69MOL0     H 9262   6.462   4.255   8.565  2.5133 -1.1525  0.5657
   69MOL0     H 9263   6.325   4.155   8.533  0.1752 -1.0811 -1.4446
   69MOL0     H 9264   6.553   4.078   8.723  0.0788  2.9322  0.0669
   69MOL0     H 9265   6.416   3.979   8.678  0.6024 -0.0576  1.8056
   69MOL0     H 9266   6.163   4.100   8.733 -2.7149  2.8785  0.2383
   69MOL0     H 9267   6.050   4.332   8.969  3.2179 -0.1442 -1.3365
   69MOL0     H 9268   5.985   4.214   8.869  0.0290 -0.0990  0.4096
   69MOL0     H 9269   6.102   4.114   9.133 -1.8676  1.2130  1.3452
   69MOL0     H 9270   5.995   4.038   9.020  0.5680  0.2775 -1.0387
   69MOL0     H 9271   5.889   4.129   9.247  3.8065 -1.6572 -0.5188
   69MOL0     H 9272   5.814   4.185   9.106  0.9407 -1.2379 -3.5861
   69MOL0     H 9273   5.952   4.409   9.135  2.6738  0.8950  1.0436
   69MOL0     H 9274   6.023   4.335   9.274 -0.6638 -1.5066  0.3268
   69MOL0     H 9275   5.964   4.586   9.305  1.7822  1.4561  0.9440
   69MOL0     H 9276   6.005   4.824   9.556  0.0640  4.7203 -0.1199
   69MOL0     H 9277   6.013   4.827   9.378  0.5771 -1.9107 -0.3759
   69MOL0     H 9278   5.891   4.913   9.469  0.3459  0.4767  1.6207
   69MOL0     H 9279   5.576   4.875   9.901 -0.2901  1.0431  4.2413
   69MOL0     H 9280   5.567   5.057  10.042  0.9285 -2.3230  0.0850
   69MOL0     H 9281   5.827   5.224  10.159 -1.5680 -1.5137 -0.0655
   69MOL0     H 9282   5.895   5.340  10.052  0.2912 -1.2853  0.5919
   69MOL0     H 9283   5.747   5.522  10.126  2.7974  0.5551 -0.1160
   69MOL0     H 9284   5.661   5.400  10.226 -0.7441  1.2192 -1.2438
   69MOL0     H 9285   5.895   5.362  10.341 -0.2731 -0.4574 -1.2688
   69MOL0     H 9286   5.812   5.512  10.372  1.5004  2.3617 -0.4769
   69MOL0     H 9287   6.062   5.526  10.314  0.4514  2.8085 -0.7019
   69MOL0     H 9288   6.017   5.503  10.141  0.8817  2.5413 -1.5142
   69MOL0     H 9289   6.061   5.721  10.219 -0.2781 -1.4994 -0.1926
   69MOL0     H 9290   5.926   5.709  10.345 -1.0406 -1.2361  0.4184
   69MOL0     H 9291   5.873   5.694  10.050 -2.2052 -1.9929  0.9640
   69MOL0     H 9292   5.770   5.719  10.202  1.3671 -1.1247  3.3541
   69MOL0     H 9293   5.873   5.939  10.242  1.9295 -0.5118 -1.3130
   69MOL0     H 9294   5.757   5.938  10.110 -0.1667  0.5021 -1.4501
   69MOL0     H 9295   6.057   5.913  10.049  0.8319  0.9659  0.1678
   69MOL0     H 9296   5.959   6.058  10.074 -0.5149 -1.0837  0.8301
   69MOL0     H 9297   5.895   5.255   9.852  0.9882 -0.5718 -2.2422
   69MOL0     H 9298   5.929   5.040   9.716 -2.1847 -2.9323 -2.2051
   69MOL0     H 9299   5.552   4.569   9.563 -1.1013  1.4276 -1.0392
   69MOL0     H 9300   5.602   4.399   9.413  2.7865 -1.6805 -2.7291
   69MOL0     H 9301   7.170   3.805   8.574  0.5622  0.0904  1.1375
   69MOL0     H 9302   7.375   3.681   8.656 -1.1985 -0.8222 -0.6396
   69MOL0     H 9303   7.859   3.633   8.570 -0.7196  1.2522 -1.0150
   69MOL0     H 9304   8.068   3.524   8.536 -0.7572  0.2273  2.1740
   69MOL0     H 9305   8.237   3.429   8.279 -2.3260 -1.5690 -1.2451
   69MOL0     H 9306   8.254   3.427   8.458  0.1357  0.4125  0.0718
   69MOL0     H 9307   8.336   3.182   8.301  2.0752 -2.2962  2.8934
   69MOL0     H 9308   8.389   3.234   8.452 -0.3623 -2.1088 -0.2855
   69MOL0     H 9309   8.549   3.352   8.381  0.7983  1.2618 -1.1993
   69MOL0     H 9310   8.460   3.457   8.278  1.5756  0.2953 -1.0915
   69MOL0     H 9311   8.441   3.264   8.101 -2.1823  0.0592  1.7026
   69MOL0     H 9312   8.571   3.181   8.203  1.1234  0.6446 -0.6540
   69MOL0     H 9313   8.785   3.475   7.992  0.1042  2.4414  0.4065
   69MOL0     H 9314   7.893   3.248   8.265  1.8068 -0.6566  1.8395
   69MOL0     H 9315   7.666   3.320   8.331  0.5167 -0.6904  0.1493
   70MOL0     O 9316   3.668   3.580   0.360 -0.2663  0.5894  0.1776
   70MOL0     C 9317   3.761   3.601   0.433 -0.7363 -0.4967 -0.0518
   70MOL0     O 9318   3.758   3.692   0.532 -0.4624 -1.1156  0.0486
   70MOL0     C 9319   3.639   3.757   0.569 -0.7492 -0.3479  0.8247
   70MOL0     C 9320   3.623   3.789   0.702  0.1121  1.0678  0.5661
   70MOL0     C 9321   3.497   3.812   0.762 -0.2506 -0.6182  0.5703
   70MOL0     C 9322   3.385   3.817   0.685  0.0984 -0.1369  0.4856
   70MOL0     O 9323   3.265   3.853   0.752 -0.6380  0.5297 -0.7220
   70MOL0     C 9324   3.142   3.794   0.702  0.0879 -0.2413 -0.4187
   70MOL0     C 9325   3.054   3.920   0.690 -0.0727  0.1628  0.9691
   70MOL0     C 9326   2.914   3.868   0.670  0.1426 -0.0300 -0.2658
   70MOL0     C 9327   2.799   3.967   0.712 -0.2919  0.4726 -0.2076
   70MOL0     C 9328   2.661   3.892   0.702  0.4504 -0.3978 -0.1441
   70MOL0     C 9329   2.624   3.796   0.815 -0.0552 -0.9153  0.2368
   70MOL0     C 9330   2.475   3.772   0.820  0.6867 -0.8406  0.7069
   70MOL0     C 9331   2.375   3.875   0.874 -0.6585  0.2294  0.0464
   70MOL0     N 9332   2.384   3.901   1.017  0.4104  0.1643  0.1344
   70MOL0     C 9333   2.296   3.851   1.120 -0.1436  0.5259  0.2170
   70MOL0     C 9334   2.357   3.887   1.232 -0.0604 -0.1812  0.5155
   70MOL0     C 9335   2.291   3.885   1.370  0.0621  0.0617  0.5410
   70MOL0     C 9336   2.167   3.981   1.378 -0.1989  0.4665  0.1023
   70MOL0     C 9337   2.058   3.921   1.472  0.1278 -0.3321 -0.3750
   70MOL0     C 9338   1.935   4.016   1.486 -0.1458 -0.1241  0.8093
   70MOL0     O 9339   1.833   3.938   1.544  0.4856 -0.8816  0.6101
   70MOL0     C 9340   1.802   3.955   1.673 -0.0064  0.1308  0.0759
   70MOL0     C 9341   1.881   4.005   1.772 -0.5234  0.1059 -0.8195
   70MOL0     C 9342   1.827   4.055   1.897 -0.2610 -0.3801 -0.1082
   70MOL0     C 9343   1.917   4.131   1.995  0.1022  0.0637  0.1888
   70MOL0     C 9344   1.690   4.014   1.931  0.3058  0.9670 -0.0187
   70MOL0     C 9345   1.640   4.014   2.069  0.0905  0.3812  0.2591
   70MOL0     O 9346   1.580   3.898   2.106  0.3595 -0.2523 -0.3249
   70MOL0     C 9347   1.520   3.890   2.230 -0.2444  0.6853 -0.0878
   70MOL0     C 9348   1.553   3.780   2.310  0.0602 -0.4883  0.2768
   70MOL0     C 9349   1.492   3.762   2.432 -0.3452  0.3067 -0.0360
   70MOL0     C 9350   1.404   3.864   2.477  0.7266 -0.3866 -0.2262
   70MOL0     O 9351   1.337   3.855   2.603 -0.2205  0.2119 -0.2814
   70MOL0     C 9352   1.371   3.747   2.689  0.2168  1.1641 -0.1998
   70MOL0     C 9353   1.274   3.760   2.806  0.0149 -0.0427  0.2288
   70MOL0     C 9354   1.270   3.638   2.895  0.6015 -0.6484  0.2326
   70MOL0     C 9355   1.181   3.668   3.020 -0.0122 -0.2110 -0.2358
   70MOL0     C 9356   1.027   3.697   2.997  1.2246  0.7163 -0.4127
   70MOL0     C 9357   0.938   3.614   2.905 -0.4016 -0.3859 -0.0176
   70MOL0     C 9358   0.813   3.559   2.981 -0.9273  0.0951 -0.3138
   70MOL0     C 9359   0.846   3.453   3.080  0.1519  0.5033  0.3594
   70MOL0    Cl 9360   0.912   3.304   3.005 -0.6159  0.3117  0.0273
   70MOL0     C 9361   1.367   3.970   2.410 -0.6855 -0.0525  0.3136
   70MOL0     C 9362   1.425   3.975   2.284 -0.5697 -0.0593 -0.3241
   70MOL0     O 9363   1.663   4.111   2.144  0.8962  0.7520  0.2646
   70MOL0     C 9364   1.611   3.943   1.835  0.6710  0.6447  0.6672
   70MOL0     C 9365   1.671   3.925   1.711  0.2538  0.7154  0.1096
   70MOL0     N 9366   2.483   3.932   1.206 -0.4550  0.9355  0.3593
   70MOL0     N 9367   2.495   3.948   1.076  0.4030 -0.3598  0.6562
   70MOL0     C 9368   3.399   3.808   0.545  0.0414 -1.1179 -0.3579
   70MOL0     C 9369   3.523   3.768   0.490  1.0438 -0.2553  0.1314
   70MOL0     C 9370   3.891   3.531   0.397 -0.9591 -0.1283  0.1383
   70MOL0     C 9371   4.012   3.584   0.446 -0.6632  1.1229 -0.0798
   70MOL0     C 9372   4.128   3.508   0.435 -0.2522 -0.2494  0.6408
   70MOL0     C 9373   4.127   3.388   0.360  0.1378 -0.8531 -0.6375
   70MOL0     O 9374   4.247   3.324   0.339  0.1883 -0.2756 -0.6448
   70MOL0     C 9375   4.284   3.285   0.207  0.4357 -0.4810 -0.4138
   70MOL0     C 9376   4.278   3.405   0.105 -0.2003 -0.5305 -0.7041
   70MOL0     C 9377   4.306   3.356  -0.041  0.2378  0.5748  0.2768
   70MOL0     C 9378   4.445   3.365  -0.095  0.6730 -0.3903  0.9632
   70MOL0     C 9379   4.541   3.283  -0.014  0.1877  0.9932  0.8525
   70MOL0     C 9380   4.623   3.219   0.044  0.2162 -0.1507 -0.0606
   70MOL0     C 9381   4.004   3.327   0.329  0.4560  0.4743 -0.4281
   70MOL0     C 9382   3.888   3.402   0.347 -0.0967  0.1983  0.0808
   70MOL0     H 9383   3.704   3.786   0.774  0.8817 -2.6305 -0.2471
   70MOL0     H 9384   3.493   3.838   0.867 -0.0441 -0.2467  0.4890
   70MOL0     H 9385   3.164   3.728   0.618 -0.6734 -1.5004  0.3208
   70MOL0     H 9386   3.096   3.725   0.774 -2.8762  0.8231 -1.1423
   70MOL0     H 9387   3.059   3.978   0.783  3.4693 -1.3773  1.8938
   70MOL0     H 9388   3.087   3.985   0.608  0.7118 -0.1468  1.0304
   70MOL0     H 9389   2.906   3.845   0.563 -1.0103  0.2692 -0.2581
   70MOL0     H 9390   2.908   3.774   0.726 -0.5323 -2.7569 -4.4319
   70MOL0     H 9391   2.810   4.006   0.813  0.3210  0.9581 -0.4491
   70MOL0     H 9392   2.800   4.059   0.653 -3.8330  0.2758 -0.8264
   70MOL0     H 9393   2.585   3.970   0.698 -1.8693 -2.5252 -0.0518
   70MOL0     H 9394   2.663   3.842   0.605  1.6315  0.3110 -0.5019
   70MOL0     H 9395   2.680   3.703   0.797  0.8566 -0.3842  0.2713
   70MOL0     H 9396   2.648   3.844   0.910 -4.7051  2.5442  0.0203
   70MOL0     H 9397   2.439   3.747   0.720  0.2325 -0.1699  0.6921
   70MOL0     H 9398   2.464   3.686   0.886  3.5153 -1.7295  0.1639
   70MOL0     H 9399   2.279   3.823   0.864 -0.9462  0.7175  0.2130
   70MOL0     H 9400   2.374   3.966   0.813 -3.9566 -0.5373 -1.2515
   70MOL0     H 9401   2.193   3.820   1.106  0.7595 -1.6531 -2.2158
   70MOL0     H 9402   2.267   3.780   1.392 -0.9758  0.2494  0.3640
   70MOL0     H 9403   2.360   3.920   1.447 -0.6699  2.9253  0.0341
   70MOL0     H 9404   2.123   3.995   1.278 -1.1366  3.2364  0.8191
   70MOL0     H 9405   2.202   4.077   1.415 -2.0527  1.3873 -0.4109
   70MOL0     H 9406   2.096   3.913   1.574 -1.1404  2.8241  0.4732
   70MOL0     H 9407   2.032   3.823   1.431  0.7930 -0.4716 -0.4746
   70MOL0     H 9408   1.898   4.046   1.388 -0.5848  1.6045  1.4645
   70MOL0     H 9409   1.962   4.110   1.535  1.7955  0.9968 -2.1479
   70MOL0     H 9410   1.979   4.044   1.745 -1.1521  2.4428 -0.0160
   70MOL0     H 9411   1.874   4.229   2.018 -0.2538 -0.5700  2.5323
   70MOL0     H 9412   1.929   4.076   2.089 -0.3497 -1.8937 -0.8625
   70MOL0     H 9413   2.019   4.149   1.959  1.6669 -0.3902  3.9098
   70MOL0     H 9414   1.627   3.708   2.277 -0.4943  0.5552 -3.7161
   70MOL0     H 9415   1.518   3.673   2.488  2.4141  0.6720 -0.5944
   70MOL0     H 9416   1.363   3.646   2.650 -1.9440  0.6850  1.2724
   70MOL0     H 9417   1.470   3.756   2.735  1.7460 -2.8832 -2.2723
   70MOL0     H 9418   1.288   3.852   2.864 -3.3641  0.6980  0.0878
   70MOL0     H 9419   1.175   3.758   2.760  0.0627  1.4016  0.0183
   70MOL0     H 9420   1.374   3.614   2.920  0.4525 -0.4940  1.0420
   70MOL0     H 9421   1.237   3.550   2.839 -1.3631 -0.9054  1.6995
   70MOL0     H 9422   1.198   3.579   3.081  3.6216 -3.2849 -5.0057
   70MOL0     H 9423   1.214   3.756   3.077 -1.0881 -0.8984  1.5272
   70MOL0     H 9424   1.015   3.799   2.958 -2.3423  0.8982  0.7727
   70MOL0     H 9425   0.981   3.713   3.095  0.1777 -4.2629  0.1474
   70MOL0     H 9426   0.895   3.684   2.832 -2.1586 -1.8928 -0.5089
   70MOL0     H 9427   1.006   3.542   2.859  1.1105 -0.6037  2.3721
   70MOL0     H 9428   0.734   3.518   2.917 -0.6152 -1.6066  0.3253
   70MOL0     H 9429   0.784   3.646   3.040  0.8002  0.1735  0.4769
   70MOL0     H 9430   0.757   3.428   3.139 -0.9792  0.3810 -1.3259
   70MOL0     H 9431   0.910   3.489   3.161 -0.7856  0.9433  0.9211
   70MOL0     H 9432   1.299   4.042   2.453  0.3715 -0.1809  2.3111
   70MOL0     H 9433   1.399   4.066   2.232  0.1406 -0.9674 -2.3879
   70MOL0     H 9434   1.514   3.900   1.855  1.4748 -1.3102  0.5756
   70MOL0     H 9435   1.622   3.878   1.626 -0.1136  1.9262 -0.3739
   70MOL0     H 9436   3.331   3.830   0.463 -4.1266 -2.4260  2.4652
   70MOL0     H 9437   3.546   3.764   0.384  0.1955  1.5131 -0.1493
   70MOL0     H 9438   4.021   3.677   0.501  0.6911  0.9145  0.0754
   70MOL0     H 9439   4.221   3.557   0.463  1.8646 -2.6988 -1.5941
   70MOL0     H 9440   4.378   3.229   0.212 -1.2069 -3.3411  2.5952
   70MOL0     H 9441   4.218   3.205   0.171  1.7879 -1.5740 -0.5745
   70MOL0     H 9442   4.348   3.482   0.137 -0.1804  0.5113 -3.0580
   70MOL0     H 9443   4.176   3.446   0.104  0.4581  1.2643 -3.0150
   70MOL0     H 9444   4.237   3.418  -0.100  1.7172 -1.6280 -4.2675
   70MOL0     H 9445   4.263   3.259  -0.068 -1.5035  0.8605  1.8274
   70MOL0     H 9446   4.481   3.468  -0.105  2.8752 -1.3113 -1.7445
   70MOL0     H 9447   4.450   3.335  -0.200 -1.5327 -1.2435  1.0406
   70MOL0     H 9448   4.675   3.155   0.112 -0.2145 -0.3028  0.1316
   70MOL0     H 9449   3.985   3.236   0.273 -2.8387  1.2318 -0.7957
   70MOL0     H 9450   3.788   3.361   0.340 -0.7076  0.9007  3.1992
   71MOL0     O 9451   0.770   1.687  10.636 -0.5436 -0.4487 -0.2948
   71MOL0     C 9452   0.704   1.699  10.538 -0.2124 -0.1685  0.3824
   71MOL0     O 9453   0.559   1.715  10.530  0.0489 -0.4351 -0.1874
   71MOL0     C 9454   0.477   1.706  10.636  0.3430  0.1984 -0.5709
   71MOL0     C 9455   0.376   1.614  10.628 -0.3015  0.0004  0.2743
   71MOL0     C 9456   0.278   1.596  10.732  0.4661 -0.3347  0.8319
   71MOL0     C 9457   0.288   1.663  10.849 -0.1238 -0.9849  0.1144
   71MOL0     O 9458   0.189   1.650  10.936 -0.6664  0.0607  0.1610
   71MOL0     C 9459   0.217   1.660  11.073 -0.1367  0.0180  0.3713
   71MOL0     C 9460   0.084   1.640  11.136  0.1105  0.4868 -0.5476
   71MOL0     C 9461   0.094   1.695  11.279 -0.1168  0.4248  0.1506
   71MOL0     C 9462  -0.036   1.654  11.355  0.2269 -0.2309  0.0760
   71MOL0     C 9463  -0.019   1.534  11.442  0.0438  2.0360 -0.8643
   71MOL0     C 9464  -0.143   1.506  11.521  0.7863 -0.8729  0.4835
   71MOL0     C 9465  -0.117   1.384  11.614 -0.4505  0.0752 -0.5082
   71MOL0     C 9466  -0.229   1.368  11.714 -0.8244  1.1807 -0.2834
   71MOL0     N 9467  -0.212   1.478  11.816 -0.5326  0.1733  0.5659
   71MOL0     C 9468  -0.160   1.459  11.949  0.0988 -0.1241  0.6849
   71MOL0     C 9469  -0.186   1.573  12.006 -0.3119 -0.5211  0.4717
   71MOL0     C 9470  -0.159   1.616  12.143 -0.7391  0.5567 -0.2862
   71MOL0     C 9471  -0.125   1.511  12.240  0.2081  0.4600 -0.2274
   71MOL0     C 9472  -0.246   1.418  12.282 -0.9470  0.1326 -0.8159
   71MOL0     C 9473  -0.242   1.364  12.426  0.0426  0.0248 -0.4981
   71MOL0     O 9474  -0.351   1.274  12.452 -0.6790 -0.2507 -0.5556
   71MOL0     C 9475  -0.340   1.135  12.450 -0.2064  0.8879  0.9038
   71MOL0     C 9476  -0.454   1.066  12.482 -0.1936  0.0298  0.3450
   71MOL0     C 9477  -0.474   0.935  12.450  0.7267 -0.8720 -1.1131
   71MOL0     C 9478  -0.611   0.886  12.482 -0.0500  0.2731  0.1575
   71MOL0     C 9479  -0.362   0.860  12.397  0.3301 -0.7961 -0.0823
   71MOL0     C 9480  -0.369   0.710  12.377  0.1129 -0.4143 -0.5816
   71MOL0     O 9481  -0.471   0.645  12.451 -0.5149 -0.3055 -0.5993
   71MOL0     C 9482  -0.526   0.521  12.423 -0.4124 -1.1678  0.5647
   71MOL0     C 9483  -0.662   0.512  12.451  0.0917 -0.3891  0.7589
   71MOL0     C 9484  -0.736   0.391  12.427 -0.0641 -0.7450 -0.0417
   71MOL0     C 9485  -0.670   0.286  12.363  0.5804 -0.0450 -1.5421
   71MOL0     O 9486  -0.725   0.169  12.320  0.1376 -0.6124  1.0421
   71MOL0     C 9487  -0.833   0.122  12.404 -0.2603 -0.8712  1.1135
   71MOL0     C 9488  -0.838  -0.023  12.388 -0.1056  1.0534  0.6936
   71MOL0     C 9489  -0.726  -0.089  12.467  0.5931  0.2537 -0.6705
   71MOL0     C 9490  -0.758  -0.244  12.491 -0.4540  0.2263  0.5078
   71MOL0     C 9491  -0.648  -0.332  12.537  0.1752 -0.0611  1.1024
   71MOL0     C 9492  -0.553  -0.371  12.416  0.3914 -0.6425 -0.4835
   71MOL0     C 9493  -0.430  -0.450  12.453  0.0013 -0.1024  0.2848
   71MOL0     C 9494  -0.326  -0.469  12.349 -0.1801 -0.1783  0.2364
   71MOL0    Cl 9495  -0.392  -0.524  12.195 -0.0347 -0.2394  0.2437
   71MOL0     C 9496  -0.531   0.305  12.335  1.3612  0.1172 -0.8585
   71MOL0     C 9497  -0.464   0.421  12.367 -0.0448 -0.2454  0.1673
   71MOL0     O 9498  -0.304   0.661  12.291  0.2355 -1.1645 -0.2518
   71MOL0     C 9499  -0.244   0.935  12.367 -0.3137  0.3801 -0.7362
   71MOL0     C 9500  -0.233   1.072  12.387 -0.8247 -0.8694 -0.3406
   71MOL0     N 9501  -0.250   1.657  11.916  0.6244  0.3757 -0.4793
   71MOL0     N 9502  -0.274   1.599  11.804 -0.1892  0.1502 -0.1236
   71MOL0     C 9503   0.397   1.749  10.874 -0.1014 -1.0317 -0.1671
   71MOL0     C 9504   0.492   1.765  10.767 -0.0917  0.6536 -0.0475
   71MOL0     C 9505   0.771   1.697  10.413  0.5347  0.2681 -0.2755
   71MOL0     C 9506   0.893   1.759  10.396 -0.1301 -0.0191  0.5977
   71MOL0     C 9507   0.961   1.763  10.271  0.7007 -0.4427 -0.9229
   71MOL0     C 9508   0.906   1.690  10.163 -0.7769  0.2408  0.2489
   71MOL0     O 9509   0.984   1.674  10.046  0.4250 -0.1719 -0.0148
   71MOL0     C 9510   1.023   1.542   9.996 -0.0422 -0.2775  0.6213
   71MOL0     C 9511   0.989   1.543   9.845  0.4037 -0.2614  0.4279
   71MOL0     C 9512   0.843   1.573   9.812 -0.3754  0.1875 -1.0927
   71MOL0     C 9513   0.812   1.533   9.673 -0.3067 -0.1426  0.4571
   71MOL0     C 9514   0.679   1.544   9.633 -1.5100 -0.5505  0.1325
   71MOL0     C 9515   0.570   1.567   9.586 -0.3551  0.3035 -0.4282
   71MOL0     C 9516   0.777   1.632  10.168 -0.6003 -0.7685  0.5326
   71MOL0     C 9517   0.708   1.645  10.292 -0.7167  0.0351  0.7669
   71MOL0     H 9518   0.374   1.552  10.540 -1.2091 -0.5360  0.6552
   71MOL0     H 9519   0.198   1.528  10.706  3.2562 -4.1609  1.3725
   71MOL0     H 9520   0.290   1.591  11.118 -0.4677  0.7904  2.2046
   71MOL0     H 9521   0.254   1.761  11.091  0.1786  0.0712 -0.5243
   71MOL0     H 9522   0.003   1.681  11.075  1.1255  1.9740 -0.9554
   71MOL0     H 9523   0.053   1.537  11.152  1.7807  0.0156 -0.1639
   71MOL0     H 9524   0.191   1.671  11.324  0.2138  1.3110 -0.0765
   71MOL0     H 9525   0.099   1.804  11.276 -2.6347  0.5978 -0.0406
   71MOL0     H 9526  -0.061   1.743  11.414  1.8487  1.4659 -1.6178
   71MOL0     H 9527  -0.109   1.626  11.278  0.3312  0.8154 -0.4345
   71MOL0     H 9528   0.002   1.441  11.388 -1.2110  2.4798 -2.1739
   71MOL0     H 9529   0.049   1.561  11.524 -1.6454  0.1591  1.2869
   71MOL0     H 9530  -0.173   1.594  11.578  2.4314  0.8748 -1.2182
   71MOL0     H 9531  -0.215   1.474  11.444 -1.6992  1.6851  1.5612
   71MOL0     H 9532  -0.106   1.286  11.566 -2.0734 -2.1984  3.2990
   71MOL0     H 9533  -0.020   1.393  11.663 -0.8314 -2.8719  0.9798
   71MOL0     H 9534  -0.214   1.278  11.775 -1.3190  0.9016 -0.5662
   71MOL0     H 9535  -0.332   1.363  11.678 -0.9449  0.7893  0.1066
   71MOL0     H 9536  -0.114   1.372  11.993 -0.8727 -2.1617 -2.0292
   71MOL0     H 9537  -0.076   1.686  12.132  0.1458 -0.5349 -0.7184
   71MOL0     H 9538  -0.237   1.670  12.197 -1.1032 -0.4422  0.2138
   71MOL0     H 9539  -0.084   1.552  12.333  1.0574 -2.0023  0.5750
   71MOL0     H 9540  -0.041   1.451  12.204 -0.3085  0.8571 -2.2079
   71MOL0     H 9541  -0.248   1.335  12.211 -1.5249  1.4121 -2.3307
   71MOL0     H 9542  -0.340   1.473  12.285  0.3794  2.5294  0.3681
   71MOL0     H 9543  -0.235   1.453  12.488  5.1094  0.9446 -1.9211
   71MOL0     H 9544  -0.141   1.323  12.441  1.0828  1.8851 -1.9369
   71MOL0     H 9545  -0.525   1.130  12.533 -0.2820 -1.5279  2.2911
   71MOL0     H 9546  -0.600   0.826  12.573 -1.3918  0.7111  0.6268
   71MOL0     H 9547  -0.679   0.970  12.501 -0.4625  0.5358 -2.1177
   71MOL0     H 9548  -0.651   0.826  12.400  0.6045  0.9141 -0.6513
   71MOL0     H 9549  -0.714   0.590  12.505 -2.1104 -0.4997 -1.0484
   71MOL0     H 9550  -0.841   0.396  12.454 -1.1017  4.2824 -3.5314
   71MOL0     H 9551  -0.822   0.139  12.511  0.2391  0.7527  0.8217
   71MOL0     H 9552  -0.913   0.180  12.359  3.9615  2.7556 -2.7615
   71MOL0     H 9553  -0.933  -0.066  12.422 -1.2116  1.3406 -1.8305
   71MOL0     H 9554  -0.827  -0.046  12.282  0.2195  1.7600  0.5708
   71MOL0     H 9555  -0.721  -0.044  12.567  0.0969  0.2525 -0.6442
   71MOL0     H 9556  -0.631  -0.071  12.416  0.6982  1.7084 -0.0092
   71MOL0     H 9557  -0.838  -0.253  12.565 -0.9727 -0.1691 -0.0953
   71MOL0     H 9558  -0.793  -0.285  12.396  4.4367 -0.1484 -1.4133
   71MOL0     H 9559  -0.686  -0.426  12.577 -0.1323 -0.7018 -0.5961
   71MOL0     H 9560  -0.593  -0.287  12.620  2.8480  0.8808 -1.0560
   71MOL0     H 9561  -0.614  -0.444  12.362 -2.0254  1.4413 -0.7602
   71MOL0     H 9562  -0.535  -0.283  12.353 -0.0404 -1.3177 -1.5635
   71MOL0     H 9563  -0.451  -0.552  12.486 -0.1913  0.4590  1.9980
   71MOL0     H 9564  -0.377  -0.401  12.535  1.1120  1.5624 -1.3250
   71MOL0     H 9565  -0.258  -0.545  12.388  0.5620 -1.3663 -3.0595
   71MOL0     H 9566  -0.276  -0.372  12.340 -1.9180  0.9576  1.8988
   71MOL0     H 9567  -0.480   0.222  12.287  1.3659  0.5220 -1.5723
   71MOL0     H 9568  -0.359   0.420  12.340 -0.3855 -0.4301 -1.1995
   71MOL0     H 9569  -0.154   0.878  12.343 -1.9352 -2.6765 -0.1204
   71MOL0     H 9570  -0.150   1.137  12.361 -1.8983 -0.1491 -2.2123
   71MOL0     H 9571   0.411   1.808  10.963  1.1112 -1.4506 -0.0695
   71MOL0     H 9572   0.570   1.836  10.791  0.1546  0.1529  0.6794
   71MOL0     H 9573   0.939   1.814  10.477  3.6527  0.7710 -1.8459
   71MOL0     H 9574   1.054   1.819  10.262 -0.1778  1.3712  0.7377
   71MOL0     H 9575   1.127   1.527  10.026  0.6001 -0.1079 -1.3489
   71MOL0     H 9576   0.959   1.457  10.023 -0.0176 -0.6531 -0.4510
   71MOL0     H 9577   1.009   1.439   9.816 -1.7769 -0.3270 -1.0755
   71MOL0     H 9578   1.059   1.612   9.797 -2.1387  1.4210 -1.1074
   71MOL0     H 9579   0.840   1.681   9.821  0.9672  0.1527  0.1410
   71MOL0     H 9580   0.774   1.523   9.881 -1.8863  0.7629 -2.1297
   71MOL0     H 9581   0.842   1.429   9.658 -2.3433 -0.6329 -0.5948
   71MOL0     H 9582   0.867   1.600   9.606  0.9722 -0.9332  0.6904
   71MOL0     H 9583   0.474   1.603   9.554 -1.3383 -0.3473  1.6259
   71MOL0     H 9584   0.734   1.584  10.080  1.9626  1.4059 -2.1158
   71MOL0     H 9585   0.613   1.591  10.296 -1.1043  0.3508 -1.9167
   72MOL0     O 9586   2.470  10.856   1.981  0.3499 -0.0518  0.3641
   72MOL0     C 9587   2.485  10.980   1.970 -1.2620 -0.1304  0.5927
   72MOL0     O 9588   2.401  11.082   2.009 -0.3634  0.0242  0.6460
   72MOL0     C 9589   2.309  11.051   2.107 -0.2268 -0.6242 -0.3632
   72MOL0     C 9590   2.320  10.943   2.195 -0.3827 -0.4835 -0.0156
   72MOL0     C 9591   2.223  10.922   2.288 -0.1000 -0.8231  0.2203
   72MOL0     C 9592   2.100  10.988   2.292 -0.2602 -0.2019  0.6612
   72MOL0     O 9593   2.026  10.954   2.395 -0.8417 -0.3756  0.1479
   72MOL0     C 9594   1.924  11.055   2.435  0.2685 -0.2006  1.5032
   72MOL0     C 9595   1.832  11.015   2.549 -0.4211 -0.6741  0.7128
   72MOL0     C 9596   1.724  10.918   2.498  0.3467  0.6765 -0.5494
   72MOL0     C 9597   1.666  10.826   2.606 -0.6271 -0.8197 -0.7785
   72MOL0     C 9598   1.606  10.700   2.553 -0.1711  0.2296 -0.1425
   72MOL0     C 9599   1.620  10.582   2.647  0.5536 -0.2769  0.5045
   72MOL0     C 9600   1.546  10.445   2.616  1.1904  0.2907 -0.0263
   72MOL0     C 9601   1.595  10.336   2.719 -0.1746  0.9608 -0.9434
   72MOL0     N 9602   1.739  10.317   2.705 -0.4756  0.7406  0.2124
   72MOL0     C 9603   1.835  10.382   2.780  0.0950  0.5104  0.9889
   72MOL0     C 9604   1.950  10.328   2.755 -0.5779 -0.6584 -0.1177
   72MOL0     C 9605   2.075  10.347   2.840  0.9146  0.1529  0.1210
   72MOL0     C 9606   2.108  10.492   2.848 -0.6715  0.6072 -0.5423
   72MOL0     C 9607   2.134  10.557   2.709 -0.9431  0.5690 -0.6410
   72MOL0     C 9608   2.154  10.704   2.719 -0.3878  0.6667 -0.1334
   72MOL0     O 9609   2.291  10.728   2.763 -0.3268 -0.0857 -0.1119
   72MOL0     C 9610   2.373  10.777   2.672 -0.0307 -0.6593  0.2616
   72MOL0     C 9611   2.486  10.696   2.645 -0.5424  0.5136  0.2800
   72MOL0     C 9612   2.585  10.744   2.553 -0.3615  0.4696 -0.0880
   72MOL0     C 9613   2.707  10.664   2.540  0.8077  0.0693  0.6602
   72MOL0     C 9614   2.569  10.866   2.481  1.5944  0.4650 -1.3449
   72MOL0     C 9615   2.663  10.922   2.375  1.0686 -0.5145 -0.1036
   72MOL0     O 9616   2.660  11.064   2.371 -0.0843 -0.1299  0.4745
   72MOL0     C 9617   2.738  11.140   2.282  0.1941 -0.2135  0.5274
   72MOL0     C 9618   2.783  11.110   2.155  0.1554  0.6209  0.2197
   72MOL0     C 9619   2.858  11.202   2.079 -0.5063 -1.0159  0.7465
   72MOL0     C 9620   2.894  11.330   2.133 -1.1149  0.2677 -0.0608
   72MOL0     O 9621   2.969  11.423   2.059 -0.3355 -0.0678 -0.4080
   72MOL0     C 9622   3.061  11.497   2.139 -1.9242 -0.5546 -0.1554
   72MOL0     C 9623   3.189  11.557   2.056 -0.6636  0.3894 -1.0467
   72MOL0     C 9624   3.143  11.643   1.937  0.3274 -0.0153 -0.2075
   72MOL0     C 9625   3.251  11.714   1.877  0.1144 -0.2234  0.7368
   72MOL0     C 9626   3.205  11.776   1.740  0.3628 -1.1345 -0.0132
   72MOL0     C 9627   3.322  11.842   1.661  1.0278 -0.0105 -0.1448
   72MOL0     C 9628   3.260  11.952   1.565  0.7409 -0.2519  0.2010
   72MOL0     C 9629   3.362  12.003   1.459 -0.1105 -0.7388 -0.5895
   72MOL0    Cl 9630   3.291  12.113   1.349  0.3104 -0.5561 -0.4159
   72MOL0     C 9631   2.843  11.362   2.266  0.0833 -0.4202  0.5495
   72MOL0     C 9632   2.770  11.268   2.331 -0.3105  1.6811 -1.1168
   72MOL0     O 9633   2.733  10.853   2.303  0.5506 -0.6001 -0.3789
   72MOL0     C 9634   2.458  10.948   2.516 -0.7358  0.3788 -0.5242
   72MOL0     C 9635   2.361  10.897   2.601  0.3695 -0.1607 -0.3984
   72MOL0     N 9636   1.937  10.231   2.659 -0.6167 -0.4829  1.2415
   72MOL0     N 9637   1.809  10.223   2.633  1.2762 -0.0284 -0.2384
   72MOL0     C 9638   2.078  11.079   2.186 -0.6738  0.1230  1.7819
   72MOL0     C 9639   2.190  11.117   2.107 -1.4265 -0.9973  0.3561
   72MOL0     C 9640   2.587  11.022   1.874  0.5067 -0.5184  0.1218
   72MOL0     C 9641   2.670  10.927   1.811  0.5950  0.0394 -0.4887
   72MOL0     C 9642   2.758  10.955   1.715 -0.1055  0.0938 -0.1538
   72MOL0     C 9643   2.774  11.090   1.682  0.5860 -0.7256  0.4715
   72MOL0     O 9644   2.861  11.136   1.579  0.5755 -0.3270 -0.1903
   72MOL0     C 9645   2.895  11.048   1.475 -0.1595 -0.3248 -0.1802
   72MOL0     C 9646   2.936  11.142   1.367 -0.0315  0.2532  0.2728
   72MOL0     C 9647   2.987  11.073   1.238 -1.0484  0.5166 -0.0708
   72MOL0     C 9648   3.054  11.177   1.155 -0.5341  0.1382  0.2105
   72MOL0     C 9649   3.080  11.128   1.017 -0.1081 -0.7204 -0.3976
   72MOL0     C 9650   3.098  11.096   0.898  0.0264  0.2211 -0.3808
   72MOL0     C 9651   2.695  11.181   1.744 -0.0056 -0.7037  0.1495
   72MOL0     C 9652   2.599  11.151   1.833 -1.0181 -0.4967  0.5448
   72MOL0     H 9653   2.417  10.895   2.204  1.7176  3.0213 -1.6113
   72MOL0     H 9654   2.243  10.846   2.364  3.5481  0.3338  0.5813
   72MOL0     H 9655   1.977  11.147   2.460 -0.9379  0.4241  1.8727
   72MOL0     H 9656   1.863  11.081   2.348 -1.0868 -0.4858  2.3262
   72MOL0     H 9657   1.882  10.959   2.630 -0.9403 -0.1276  1.4180
   72MOL0     H 9658   1.788  11.108   2.584 -0.2412 -0.8015  1.2967
   72MOL0     H 9659   1.642  10.973   2.451  0.3437  0.8450 -0.3487
   72MOL0     H 9660   1.765  10.852   2.420 -0.3854 -0.1891 -0.2171
   72MOL0     H 9661   1.749  10.793   2.670 -0.5909  1.7633  0.6436
   72MOL0     H 9662   1.598  10.882   2.671 -0.7700  0.2275 -1.7927
   72MOL0     H 9663   1.506  10.719   2.513  0.1060 -0.0605 -0.9869
   72MOL0     H 9664   1.667  10.669   2.468 -0.9122 -0.2276 -0.5062
   72MOL0     H 9665   1.727  10.560   2.643  0.8900  0.6611  2.6447
   72MOL0     H 9666   1.606  10.615   2.751 -0.3871  1.8795 -0.2341
   72MOL0     H 9667   1.438  10.450   2.624  0.9975 -1.4466 -1.0294
   72MOL0     H 9668   1.575  10.418   2.514  1.2647  2.1808 -0.5530
   72MOL0     H 9669   1.550  10.240   2.695  0.9168  0.0453  0.5506
   72MOL0     H 9670   1.562  10.363   2.819  0.3804  1.4596 -0.8864
   72MOL0     H 9671   1.812  10.453   2.859  1.0319  0.9348  0.8939
   72MOL0     H 9672   2.068  10.314   2.945  0.6749 -2.3363 -0.5999
   72MOL0     H 9673   2.152  10.286   2.792 -0.0965  0.3642 -1.8813
   72MOL0     H 9674   2.206  10.501   2.895 -1.1512 -0.6003  0.7327
   72MOL0     H 9675   2.031  10.542   2.907  0.0999 -0.5050  1.4940
   72MOL0     H 9676   2.036  10.543   2.662 -1.3893 -2.2781  0.8642
   72MOL0     H 9677   2.196  10.503   2.636 -1.9479 -2.4681  0.5565
   72MOL0     H 9678   2.083  10.744   2.793 -1.4004  0.8323 -1.1648
   72MOL0     H 9679   2.135  10.754   2.624  2.5489  0.3182 -1.0066
   72MOL0     H 9680   2.488  10.600   2.696  2.3783  1.1751  1.6532
   72MOL0     H 9681   2.728  10.598   2.625 -0.5300 -0.8378  0.3126
   72MOL0     H 9682   2.711  10.603   2.450 -0.1348 -0.0356  0.6737
   72MOL0     H 9683   2.788  10.736   2.528  0.0711  0.7105 -0.5759
   72MOL0     H 9684   2.764  11.007   2.126 -0.2154  1.0764 -1.2562
   72MOL0     H 9685   2.895  11.176   1.981 -1.3911 -2.3119  0.7326
   72MOL0     H 9686   3.011  11.582   2.186  3.4195  1.9660  1.8222
   72MOL0     H 9687   3.102  11.431   2.216  0.3650  0.8831 -0.0447
   72MOL0     H 9688   3.255  11.614   2.121 -2.6711 -1.2569  2.7420
   72MOL0     H 9689   3.245  11.468   2.024  0.2658  1.3974 -2.3167
   72MOL0     H 9690   3.061  11.709   1.964  0.0940 -1.1740  2.2664
   72MOL0     H 9691   3.113  11.581   1.852  0.0707 -0.2940  0.0859
   72MOL0     H 9692   3.280  11.794   1.947  1.6035  2.2047 -2.3710
   72MOL0     H 9693   3.344  11.659   1.863  1.1802  1.2429  1.7309
   72MOL0     H 9694   3.127  11.849   1.765  1.1183  0.1474 -1.2951
   72MOL0     H 9695   3.154  11.702   1.677 -0.8014 -0.7031  0.3920
   72MOL0     H 9696   3.400  11.886   1.725  3.3403 -0.8886 -2.1871
   72MOL0     H 9697   3.366  11.764   1.599 -0.4645  0.2781 -1.6231
   72MOL0     H 9698   3.225  12.029   1.635  0.1706 -0.8371  0.5621
   72MOL0     H 9699   3.172  11.912   1.515 -0.0534 -0.2134  1.5184
   72MOL0     H 9700   3.399  11.923   1.395  3.7932  0.3955  0.0075
   72MOL0     H 9701   3.450  12.048   1.506 -0.7593  0.4763 -0.4897
   72MOL0     H 9702   2.872  11.456   2.311 -1.1678  0.4571 -0.4245
   72MOL0     H 9703   2.752  11.289   2.435  0.6167 -0.8217 -0.3779
   72MOL0     H 9704   2.450  11.039   2.457 -2.1073  0.6854  0.1010
   72MOL0     H 9705   2.273  10.957   2.621  3.1015  3.8114  0.9073
   72MOL0     H 9706   1.985  11.134   2.172 -0.6066 -0.0000  0.7565
   72MOL0     H 9707   2.179  11.194   2.031  0.9885 -2.9686 -2.1984
   72MOL0     H 9708   2.651  10.821   1.828 -2.7904  0.3736 -1.5035
   72MOL0     H 9709   2.823  10.883   1.666  0.8467  0.8764 -0.0728
   72MOL0     H 9710   2.989  10.996   1.494  0.1124 -0.8765 -2.7116
   72MOL0     H 9711   2.818  10.975   1.449 -1.7256  0.2105  2.5187
   72MOL0     H 9712   3.015  11.204   1.411 -1.3070  0.2844  2.6871
   72MOL0     H 9713   2.852  11.207   1.340 -1.1402 -1.0008  0.6031
   72MOL0     H 9714   2.895  11.043   1.186  0.9130 -1.9663 -2.4281
   72MOL0     H 9715   3.060  10.992   1.245 -0.9124 -0.1247 -5.0795
   72MOL0     H 9716   3.156  11.194   1.192  0.2107  1.0464 -2.0704
   72MOL0     H 9717   2.996  11.269   1.147  1.9266  1.7688  0.0594
   72MOL0     H 9718   3.092  11.059   0.797  0.2122 -1.3653  0.1645
   72MOL0     H 9719   2.694  11.287   1.720  2.2394 -0.0356  2.4522
   72MOL0     H 9720   2.545  11.238   1.869 -1.9605 -0.4907 -0.8078
   73MOL0     O 9721  10.873   8.414   2.051 -0.3652  0.9726 -0.5947
   73MOL0     C 9722  10.835   8.302   2.081  0.0974  1.3817  0.1205
   73MOL0     O 9723  10.904   8.214   2.164 -0.1293  0.2206  0.2535
   73MOL0     C 9724  11.022   8.257   2.214 -0.1870 -0.0693  0.1792
   73MOL0     C 9725  11.045   8.373   2.288  0.9894  0.0016 -1.5470
   73MOL0     C 9726  11.171   8.420   2.320  0.2537  0.7899  0.5015
   73MOL0     C 9727  11.277   8.341   2.267 -0.8735 -0.8636 -0.3589
   73MOL0     O 9728  11.405   8.406   2.290 -0.3067 -0.7923 -0.1010
   73MOL0     C 9729  11.522   8.331   2.259  0.0587 -0.7429  0.5409
   73MOL0     C 9730  11.646   8.429   2.262  0.0158 -0.0937  0.7313
   73MOL0     C 9731  11.688   8.468   2.403 -0.0669 -0.2513  0.3317
   73MOL0     C 9732  11.831   8.522   2.402  0.1590 -0.1303 -0.0209
   73MOL0     C 9733  11.879   8.578   2.533  0.0714 -0.9364  0.1889
   73MOL0     C 9734  11.873   8.489   2.648  0.3021  0.4558 -0.6678
   73MOL0     C 9735  11.933   8.554   2.773  0.3908  0.7065 -0.1644
   73MOL0     C 9736  11.911   8.455   2.895 -0.6146 -0.5880 -0.0409
   73MOL0     N 9737  11.955   8.512   3.027 -0.0505 -0.4124  0.5113
   73MOL0     C 9738  11.895   8.600   3.110 -0.7960  0.3215 -0.5457
   73MOL0     C 9739  11.994   8.646   3.197 -0.8331  0.4697  0.4302
   73MOL0     C 9740  11.967   8.747   3.309 -0.3713  0.6133  0.2947
   73MOL0     C 9741  11.837   8.723   3.373 -0.1702 -0.7597 -0.1680
   73MOL0     C 9742  11.830   8.614   3.475  0.0161  0.5327 -0.7928
   73MOL0     C 9743  11.843   8.472   3.417 -0.7907  0.4739  0.3138
   73MOL0     O 9744  11.727   8.442   3.335 -0.5144 -0.2759 -0.1613
   73MOL0     C 9745  11.736   8.350   3.235  0.2001  0.0333  0.1291
   73MOL0     C 9746  11.831   8.246   3.218 -0.1454  1.0384 -0.5639
   73MOL0     C 9747  11.830   8.172   3.098  0.3762  0.9677  0.4887
   73MOL0     C 9748  11.950   8.089   3.064 -0.5319  0.0444 -0.4430
   73MOL0     C 9749  11.713   8.183   3.010  0.1771  0.8570 -0.6228
   73MOL0     C 9750  11.691   8.093   2.889 -0.6744 -0.1705  1.2684
   73MOL0     O 9751  11.620   8.154   2.787 -0.0905 -0.4263  0.6295
   73MOL0     C 9752  11.602   8.089   2.669  0.1777 -0.3663  0.4774
   73MOL0     C 9753  11.702   8.069   2.576 -0.2876 -0.7904  0.5439
   73MOL0     C 9754  11.686   8.001   2.458 -0.2118  0.2461  0.0882
   73MOL0     C 9755  11.561   7.947   2.423 -0.4256 -0.6701  0.0504
   73MOL0     O 9756  11.552   7.888   2.306 -0.3117  0.0594  0.5299
   73MOL0     C 9757  11.439   7.801   2.292  0.5289 -0.0215 -0.2966
   73MOL0     C 9758  11.447   7.725   2.169  0.3521  0.2666 -0.1677
   73MOL0     C 9759  11.555   7.609   2.181 -0.7933  0.4436 -0.2113
   73MOL0     C 9760  11.600   7.551   2.048 -0.1073 -0.5895  0.2812
   73MOL0     C 9761  11.682   7.431   2.089 -0.4371 -0.4567  0.1450
   73MOL0     C 9762  11.764   7.360   1.981 -0.5950 -1.0766 -0.0520
   73MOL0     C 9763  11.716   7.224   1.922 -1.2745 -0.0008 -0.5776
   73MOL0     C 9764  11.835   7.125   1.922 -0.2001  0.5754 -0.0802
   73MOL0    Cl 9765  11.986   7.181   1.840  0.1732  0.0737 -0.9561
   73MOL0     C 9766  11.456   7.970   2.514  1.0211  0.6072 -0.5369
   73MOL0     C 9767  11.476   8.044   2.630  0.9192 -0.2498 -0.9767
   73MOL0     O 9768  11.735   7.979   2.885  0.2096 -0.3799 -0.5595
   73MOL0     C 9769  11.613   8.273   3.046 -0.6108 -0.1627  0.5463
   73MOL0     C 9770  11.632   8.359   3.151 -0.0222 -0.5747  0.1356
   73MOL0     N 9771  12.112   8.583   3.164 -0.8632  0.3091  0.1749
   73MOL0     N 9772  12.088   8.503   3.060  0.1263 -0.2615 -0.4922
   73MOL0     C 9773  11.257   8.218   2.203 -0.0047  0.5238 -0.0186
   73MOL0     C 9774  11.127   8.183   2.171  0.5138 -0.1433 -0.9008
   73MOL0     C 9775  10.700   8.259   2.029 -0.7241  0.0656  0.3732
   73MOL0     C 9776  10.616   8.341   1.946  0.6315 -0.1455 -0.0481
   73MOL0     C 9777  10.507   8.291   1.894  0.0865 -0.5462  0.0133
   73MOL0     C 9778  10.472   8.154   1.907  0.1825 -0.5707  0.4987
   73MOL0     O 9779  10.361   8.092   1.854  0.5508  0.1779  0.0037
   73MOL0     C 9780  10.268   8.179   1.787  0.0386  0.0975  0.4348
   73MOL0     C 9781  10.155   8.101   1.717  0.3488  0.6247  0.3469
   73MOL0     C 9782  10.087   8.002   1.813  0.0202 -0.6602  0.2423
   73MOL0     C 9783  10.019   7.885   1.736  0.9068  0.0674  0.1592
   73MOL0     C 9784   9.918   7.917   1.632 -0.3067  0.3448 -0.7215
   73MOL0     C 9785   9.843   7.948   1.540 -0.7101  0.5647  0.2402
   73MOL0     C 9786  10.552   8.074   1.987  0.1142 -0.4972  0.0682
   73MOL0     C 9787  10.667   8.128   2.054  0.6206  0.0111  0.1184
   73MOL0     H 9788  10.953   8.430   2.299 -0.4217 -2.5205  1.0991
   73MOL0     H 9789  11.199   8.507   2.379  2.6454  0.6238 -0.2868
   73MOL0     H 9790  11.536   8.248   2.329  2.3824 -0.0303  1.0130
   73MOL0     H 9791  11.506   8.290   2.159  1.3057 -2.7728  1.1312
   73MOL0     H 9792  11.724   8.377   2.206  1.6913  0.7156  2.2269
   73MOL0     H 9793  11.615   8.519   2.208 -2.1703 -2.8456 -3.1434
   73MOL0     H 9794  11.618   8.542   2.442 -0.3557 -0.9259  1.1075
   73MOL0     H 9795  11.678   8.388   2.476  1.8949 -1.0058 -0.1576
   73MOL0     H 9796  11.892   8.439   2.366 -1.1494 -0.9561 -0.4152
   73MOL0     H 9797  11.837   8.600   2.325  0.8023  0.7874  0.9205
   73MOL0     H 9798  11.983   8.599   2.503 -0.5013 -1.0227 -2.0341
   73MOL0     H 9799  11.828   8.672   2.555 -1.0726 -1.0847 -1.6353
   73MOL0     H 9800  11.766   8.466   2.653  0.5621 -1.0826 -1.4811
   73MOL0     H 9801  11.921   8.393   2.630 -2.9402 -1.2731 -0.8989
   73MOL0     H 9802  12.036   8.584   2.753  0.4052  2.0754  1.7861
   73MOL0     H 9803  11.884   8.651   2.784  2.2448  1.5372  1.3744
   73MOL0     H 9804  11.958   8.359   2.873  0.6739  0.2974 -1.3912
   73MOL0     H 9805  11.802   8.445   2.892 -0.8787  1.7998 -0.5072
   73MOL0     H 9806  11.789   8.617   3.127 -1.2167 -2.4788  0.2030
   73MOL0     H 9807  12.047   8.738   3.383 -1.2517 -1.7862  1.0611
   73MOL0     H 9808  11.958   8.845   3.262 -1.5144 -0.1074 -1.0914
   73MOL0     H 9809  11.757   8.707   3.301 -1.7389  0.8053  1.1218
   73MOL0     H 9810  11.821   8.813   3.434  1.2597 -0.2068 -0.5616
   73MOL0     H 9811  11.727   8.608   3.512 -0.0254  0.4577 -0.9213
   73MOL0     H 9812  11.897   8.627   3.561 -1.6681  4.0091  0.2012
   73MOL0     H 9813  11.849   8.405   3.504 -1.2876 -1.0473 -0.7757
   73MOL0     H 9814  11.936   8.457   3.362  0.0325  3.1056  0.8570
   73MOL0     H 9815  11.912   8.235   3.289 -0.2804  1.1383 -0.3935
   73MOL0     H 9816  11.926   7.990   3.104  0.2420 -0.3068 -0.8300
   73MOL0     H 9817  11.963   8.076   2.956  1.0952  0.8540 -0.3769
   73MOL0     H 9818  12.043   8.141   3.087 -0.7592  1.8572 -3.1901
   73MOL0     H 9819  11.804   8.100   2.596  0.4633  1.1125 -4.5982
   73MOL0     H 9820  11.774   7.977   2.399 -1.6403  2.7294 -3.4304
   73MOL0     H 9821  11.425   7.733   2.377 -1.8890  1.7155  0.8081
   73MOL0     H 9822  11.347   7.859   2.285  0.3584 -0.0469  1.3551
   73MOL0     H 9823  11.349   7.678   2.159 -0.3097  1.0426  2.1218
   73MOL0     H 9824  11.455   7.799   2.087 -2.3837  1.9531  0.9573
   73MOL0     H 9825  11.511   7.532   2.246 -2.2346  1.7989  0.4887
   73MOL0     H 9826  11.646   7.655   2.222  0.8387 -1.6195 -1.3255
   73MOL0     H 9827  11.520   7.514   1.984  0.0783 -1.2269  0.4096
   73MOL0     H 9828  11.676   7.614   1.999  0.5727 -3.3082 -2.5494
   73MOL0     H 9829  11.616   7.362   2.141 -0.4688  0.1965  0.9846
   73MOL0     H 9830  11.758   7.465   2.160  0.9026 -1.0275 -0.9643
   73MOL0     H 9831  11.793   7.423   1.897  0.9343 -0.0960  1.1549
   73MOL0     H 9832  11.864   7.351   2.025 -1.4655 -2.1801  1.8208
   73MOL0     H 9833  11.684   7.234   1.818  0.3438  1.7552 -0.9655
   73MOL0     H 9834  11.641   7.177   1.985 -1.2676 -1.3876 -1.5560
   73MOL0     H 9835  11.808   7.028   1.879  1.8819 -0.5837  1.0408
   73MOL0     H 9836  11.849   7.102   2.028 -0.3392  1.8962  0.2316
   73MOL0     H 9837  11.359   7.921   2.512 -0.0422  2.4001  2.1492
   73MOL0     H 9838  11.390   8.054   2.696  0.8653 -1.1889 -0.8928
   73MOL0     H 9839  11.537   8.291   2.970  0.1418  0.7245 -0.0278
   73MOL0     H 9840  11.569   8.447   3.155  1.2909  0.3545  2.2126
   73MOL0     H 9841  11.331   8.144   2.176 -1.7100 -1.6956  1.0840
   73MOL0     H 9842  11.104   8.095   2.111 -1.8648  0.7510 -1.4188
   73MOL0     H 9843  10.647   8.442   1.924  3.0057 -1.4710 -3.5006
   73MOL0     H 9844  10.435   8.356   1.846  0.3970  1.1484  1.7467
   73MOL0     H 9845  10.226   8.245   1.864 -1.0978 -3.0567  2.7619
   73MOL0     H 9846  10.308   8.236   1.703 -1.0630 -0.1491 -0.2840
   73MOL0     H 9847  10.187   8.049   1.627 -1.4646  3.8149 -2.3592
   73MOL0     H 9848  10.072   8.163   1.683  2.4878  2.3932 -2.0061
   73MOL0     H 9849   9.999   8.034   1.870  0.4951 -1.1721  1.2846
   73MOL0     H 9850  10.169   7.955   1.868  1.3130 -0.2084 -1.2279
   73MOL0     H 9851   9.970   7.821   1.811 -1.3168  0.7330 -0.6426
   73MOL0     H 9852  10.100   7.834   1.682 -0.9259 -1.4948 -1.2813
   73MOL0     H 9853   9.780   7.983   1.461  1.2188  1.2679 -1.0549
   73MOL0     H 9854  10.540   7.966   1.979 -1.1704 -0.5112  1.6070
   73MOL0     H 9855  10.739   8.062   2.102  2.2241  0.6477 -1.3347
   74MOL0     O 9856   9.231   1.024  10.349  0.6331 -0.1046  0.0431
   74MOL0     C 9857   9.188   1.041  10.463  0.4542 -0.4118  0.0574
   74MOL0     O 9858   9.101   0.971  10.531  0.6611 -0.3171 -0.4415
   74MOL0     C 9859   9.027   0.861  10.487  0.0501 -0.5745  0.6354
   74MOL0     C 9860   8.987   0.836  10.351 -0.8261  0.6872  0.0889
   74MOL0     C 9861   8.910   0.734  10.307  0.2006  0.1801  0.9819
   74MOL0     C 9862   8.863   0.638  10.399  0.4862 -0.0326  0.3643
   74MOL0     O 9863   8.805   0.523  10.352  0.3429 -1.0174  0.1133
   74MOL0     C 9864   8.895   0.430  10.293  0.7405 -0.0503  0.0101
   74MOL0     C 9865   8.872   0.418  10.139 -1.1627 -0.2867 -0.7623
   74MOL0     C 9866   8.755   0.322  10.106 -0.5107 -0.0640 -0.1923
   74MOL0     C 9867   8.751   0.291   9.954 -0.3107 -0.2214 -0.3395
   74MOL0     C 9868   8.617   0.246   9.905  0.5924 -0.0798 -0.2082
   74MOL0     C 9869   8.596   0.112   9.960  0.3470 -0.8866  0.0405
   74MOL0     C 9870   8.455   0.076   9.916  0.3320 -0.1378 -0.5394
   74MOL0     C 9871   8.448  -0.086   9.912 -0.0384 -0.2629  0.1039
   74MOL0     N 9872   8.467  -0.145  10.043 -0.2832  0.0467  0.0585
   74MOL0     C 9873   8.362  -0.193  10.121  0.4886 -0.7840  0.5033
   74MOL0     C 9874   8.417  -0.236  10.234  0.9232 -0.8778  0.0789
   74MOL0     C 9875   8.327  -0.295  10.337  0.0888 -0.1670  0.4155
   74MOL0     C 9876   8.328  -0.446  10.328  0.2231  0.6667  0.5086
   74MOL0     C 9877   8.461  -0.495  10.385  0.0703  0.5881 -0.0915
   74MOL0     C 9878   8.450  -0.638  10.421 -0.4042  0.6674 -0.5659
   74MOL0     O 9879   8.456  -0.724  10.305  0.7293  0.6333 -0.2075
   74MOL0     C 9880   8.351  -0.811  10.270  0.1916 -0.3833 -0.0155
   74MOL0     C 9881   8.377  -0.918  10.190 -0.1929  0.3432  0.6695
   74MOL0     C 9882   8.273  -1.005  10.149  1.0589  0.0086  0.0083
   74MOL0     C 9883   8.311  -1.105  10.046 -0.7059 -0.2938  0.6491
   74MOL0     C 9884   8.137  -0.985  10.199 -0.6971 -0.2655  0.0880
   74MOL0     C 9885   8.031  -1.082  10.173 -0.3458 -0.1285  1.3463
   74MOL0     O 9886   7.905  -1.043  10.205 -0.0861 -0.3534  0.6102
   74MOL0     C 9887   7.802  -1.128  10.187  0.2276  0.2336 -0.1879
   74MOL0     C 9888   7.708  -1.082  10.107 -0.2710 -0.6252  0.6527
   74MOL0     C 9889   7.597  -1.162  10.077  0.7548 -0.1604 -0.9208
   74MOL0     C 9890   7.571  -1.284  10.143  0.5737  0.1445  0.0298
   74MOL0     O 9891   7.452  -1.359  10.113 -0.2713 -0.0026  0.2773
   74MOL0     C 9892   7.333  -1.279  10.075  1.3440 -0.9307  0.9116
   74MOL0     C 9893   7.213  -1.382  10.072 -0.5379  0.8094  0.0346
   74MOL0     C 9894   7.244  -1.509   9.991 -0.0969  0.6315 -0.2555
   74MOL0     C 9895   7.123  -1.614   9.967 -0.3384 -0.7765 -0.2568
   74MOL0     C 9896   7.138  -1.704   9.845 -0.9699 -0.2029 -0.3645
   74MOL0     C 9897   7.017  -1.788   9.831  0.6239  0.4601 -0.2912
   74MOL0     C 9898   7.002  -1.886   9.952  0.0397 -0.3300 -0.3183
   74MOL0     C 9899   6.879  -1.976   9.920 -1.1586  0.6624  0.7340
   74MOL0    Cl 9900   6.718  -1.902   9.934 -0.2043  0.0172  0.4703
   74MOL0     C 9901   7.668  -1.335  10.236  0.4667 -0.2900 -0.2528
   74MOL0     C 9902   7.784  -1.248  10.254 -0.4311  0.9755 -0.0123
   74MOL0     O 9903   8.060  -1.192  10.131  0.3257 -0.4305  0.2631
   74MOL0     C 9904   8.108  -0.875  10.279  0.3488 -0.2815  0.6023
   74MOL0     C 9905   8.215  -0.791  10.320  1.2872  0.3981 -0.0630
   74MOL0     N 9906   8.551  -0.210  10.227  0.1559  0.2685 -0.4405
   74MOL0     N 9907   8.581  -0.159  10.114 -0.2178  0.2182  0.0718
   74MOL0     C 9908   8.911   0.646  10.535 -0.4146  0.9176  1.4974
   74MOL0     C 9909   8.984   0.759  10.572  0.2093 -1.3155 -0.3750
   74MOL0     C 9910   9.267   1.137  10.546  0.1183  0.9908  0.1177
   74MOL0     C 9911   9.272   1.115  10.686 -0.0652 -0.8751 -0.0938
   74MOL0     C 9912   9.348   1.195  10.762 -0.7451  0.6834 -0.6147
   74MOL0     C 9913   9.439   1.288  10.708 -0.1138  1.2054 -0.0906
   74MOL0     O 9914   9.535   1.363  10.773  0.7006  0.1224 -0.4133
   74MOL0     C 9915   9.556   1.340  10.909 -0.5137  0.5748 -0.0988
   74MOL0     C 9916   9.487   1.433  11.007 -0.1295 -0.8028 -0.7068
   74MOL0     C 9917   9.567   1.439  11.143 -0.9293 -0.5338  0.2101
   74MOL0     C 9918   9.497   1.522  11.238  0.0129 -0.4098 -0.6902
   74MOL0     C 9919   9.585   1.552  11.359  0.6939 -0.3132  0.2805
   74MOL0     C 9920   9.667   1.570  11.451  0.1492 -0.2857  0.6550
   74MOL0     C 9921   9.428   1.311  10.568 -0.6446  0.1796  0.9171
   74MOL0     C 9922   9.334   1.242  10.493 -0.5784  0.7692 -0.3092
   74MOL0     H 9923   9.013   0.913  10.279 -1.3873 -0.5481 -1.5110
   74MOL0     H 9924   8.872   0.736  10.205  1.5430 -0.0810  0.4541
   74MOL0     H 9925   8.997   0.469  10.293  0.8506 -0.2704  1.5097
   74MOL0     H 9926   8.886   0.333  10.343  0.6220  0.1377  0.3532
   74MOL0     H 9927   8.866   0.524  10.111 -4.7817  1.0037  3.6222
   74MOL0     H 9928   8.959   0.370  10.093 -0.8287  1.1242 -1.6738
   74MOL0     H 9929   8.753   0.231  10.166  0.0214  0.4339  0.6039
   74MOL0     H 9930   8.670   0.384  10.133  0.3931  1.4457 -0.6529
   74MOL0     H 9931   8.774   0.379   9.893  2.1629 -1.8877 -2.0144
   74MOL0     H 9932   8.822   0.210   9.932  1.5497  0.7621  1.6562
   74MOL0     H 9933   8.540   0.318   9.935  0.2947 -0.0201 -1.0989
   74MOL0     H 9934   8.625   0.253   9.796  0.7215  0.9309 -0.1447
   74MOL0     H 9935   8.673   0.042   9.925  0.8380 -0.3157 -0.0219
   74MOL0     H 9936   8.609   0.104  10.068  0.2703 -0.3601  0.0904
   74MOL0     H 9937   8.380   0.120   9.982 -1.6648 -2.9375 -0.7169
   74MOL0     H 9938   8.433   0.111   9.815  2.9843  0.3134 -1.0265
   74MOL0     H 9939   8.517  -0.124   9.836 -1.1419  1.8152 -2.0993
   74MOL0     H 9940   8.348  -0.115   9.879 -0.0969 -0.0705  0.1089
   74MOL0     H 9941   8.260  -0.190  10.084  0.6708 -2.0194 -0.1796
   74MOL0     H 9942   8.357  -0.255  10.435 -0.8942  1.7585 -0.0200
   74MOL0     H 9943   8.228  -0.251  10.321  0.6498  0.3256 -2.0946
   74MOL0     H 9944   8.315  -0.480  10.225  2.6207  0.7405  0.1184
   74MOL0     H 9945   8.236  -0.478  10.379  0.3473 -0.7231 -0.0947
   74MOL0     H 9946   8.492  -0.443  10.476  0.1617 -0.6534  0.6165
   74MOL0     H 9947   8.543  -0.495  10.313 -0.6769 -4.0306 -1.2503
   74MOL0     H 9948   8.363  -0.655  10.485 -0.4828 -0.1860 -0.8828
   74MOL0     H 9949   8.540  -0.659  10.479 -0.4683 -0.0938 -0.7277
   74MOL0     H 9950   8.474  -0.932  10.143 -1.8033 -3.3306 -2.0959
   74MOL0     H 9951   8.414  -1.086  10.012 -0.7109  0.7921  1.1847
   74MOL0     H 9952   8.308  -1.204  10.093  0.9925 -0.8237 -0.2593
   74MOL0     H 9953   8.236  -1.115   9.968 -1.4940  1.7103  1.0876
   74MOL0     H 9954   7.698  -0.985  10.057  0.6192 -1.2869 -0.8737
   74MOL0     H 9955   7.531  -1.122  10.000  1.7724 -1.4948 -2.5346
   74MOL0     H 9956   7.303  -1.204  10.148 -2.8948 -1.4069 -0.0669
   74MOL0     H 9957   7.339  -1.230   9.977 -1.7258  1.8843  1.9788
   74MOL0     H 9958   7.180  -1.413  10.172 -1.8033 -1.9863 -1.1642
   74MOL0     H 9959   7.129  -1.328  10.028  1.3304  4.0367  0.0791
   74MOL0     H 9960   7.321  -1.557  10.052 -1.4925 -1.6131 -0.1350
   74MOL0     H 9961   7.284  -1.488   9.892 -2.5925  0.0218 -1.4655
   74MOL0     H 9962   7.112  -1.678  10.055  0.1671  0.0507  0.4348
   74MOL0     H 9963   7.038  -1.548   9.949 -1.5571 -1.5407  2.2624
   74MOL0     H 9964   7.224  -1.770   9.862  0.3789  1.6846  0.5078
   74MOL0     H 9965   7.163  -1.640   9.760  0.7456 -0.0271  0.2324
   74MOL0     H 9966   6.922  -1.735   9.815  0.1199 -0.2879  0.1223
   74MOL0     H 9967   7.039  -1.860   9.751 -1.1225  0.2317 -0.6073
   74MOL0     H 9968   6.965  -1.833  10.040 -1.7450 -0.7889 -0.7515
   74MOL0     H 9969   7.088  -1.948   9.979 -0.3848 -1.5337 -1.6396
   74MOL0     H 9970   6.886  -2.060   9.990  0.5879  0.6052  0.5465
   74MOL0     H 9971   6.896  -2.015   9.819  1.1383  0.2007  1.2504
   74MOL0     H 9972   7.660  -1.434  10.281 -0.7162 -0.8011 -1.5002
   74MOL0     H 9973   7.857  -1.274  10.329 -1.4023  2.3694  1.4737
   74MOL0     H 9974   8.012  -0.847  10.321  0.6219 -2.3904  2.9108
   74MOL0     H 9975   8.183  -0.703  10.375 -2.3772 -1.7727  1.6614
   74MOL0     H 9976   8.896   0.564  10.605 -1.6826 -1.7402 -1.6379
   74MOL0     H 9977   9.012   0.762  10.677 -0.9799  1.8626 -0.0527
   74MOL0     H 9978   9.215   1.034  10.729 -0.4439  1.2264  3.8334
   74MOL0     H 9979   9.347   1.189  10.870  1.1706  2.9714 -0.3803
   74MOL0     H 9980   9.535   1.237  10.938 -2.8318  1.7776  3.1139
   74MOL0     H 9981   9.663   1.362  10.922 -0.7401  1.4292  0.3671
   74MOL0     H 9982   9.392   1.388  11.038 -1.4429  1.8248 -0.6800
   74MOL0     H 9983   9.457   1.531  10.969  1.9635 -0.4386 -1.5737
   74MOL0     H 9984   9.664   1.478  11.112  0.1775 -3.6057 -0.6011
   74MOL0     H 9985   9.588   1.340  11.186  2.1913 -1.1873 -2.4222
   74MOL0     H 9986   9.404   1.479  11.276  0.0385  2.0966  2.8051
   74MOL0     H 9987   9.487   1.621  11.193 -2.2398  0.7631  2.0829
   74MOL0     H 9988   9.728   1.581  11.538 -1.3985  1.1224  1.6279
   74MOL0     H 9989   9.491   1.383  10.517 -0.9667 -1.6213 -2.2609
   74MOL0     H 9990   9.302   1.255  10.390 -1.9431  0.9498  0.1108
   75MOL0     O 9991  11.310   3.266   2.917 -0.1772 -0.9672  0.1558
   75MOL0     C 9992  11.345   3.179   2.837 -0.2622 -0.2100 -0.2544
   75MOL0     O 9993  11.269   3.143   2.732  0.1284 -0.4656 -0.3005
   75MOL0     C 9994  11.145   3.199   2.705  0.0846  0.0829 -0.3190
   75MOL0     C 9995  11.114   3.267   2.584 -0.9160  0.5467  0.8662
   75MOL0     C 9996  10.980   3.295   2.553  0.1469  0.2410  0.7600
   75MOL0     C 9997  10.880   3.276   2.646 -1.5950 -0.0360 -0.9007
   75MOL0     O 9998  10.749   3.287   2.623 -0.2487  0.3272  1.0284
   75MOL0     C 9999  10.711   3.353   2.505  0.3419 -0.3419 -0.3081
   75MOL0     C10000  10.557   3.346   2.486 -0.2277  0.3010 -0.1443
   75MOL0     C10001  10.483   3.218   2.549  0.7506 -0.0927  0.3832
   75MOL0     C10002  10.331   3.254   2.573 -0.0894 -0.1622  0.8017
   75MOL0     C10003  10.260   3.138   2.638  0.0834  0.4422  0.4595
   75MOL0     C10004  10.112   3.135   2.628  0.6869  0.2135 -0.4443
   75MOL0     C10005  10.041   3.230   2.714  0.9593 -0.8582  0.0539
   75MOL0     C10006   9.889   3.250   2.685 -0.0566  0.7030 -0.6010
   75MOL0     N10007   9.802   3.147   2.749  0.0162 -0.4780 -1.0995
   75MOL0     C10008   9.754   3.031   2.700 -0.0467 -0.0350 -0.2054
   75MOL0     C10009   9.662   2.980   2.796 -0.1467 -0.3140  0.4308
   75MOL0     C10010   9.591   2.850   2.787 -0.3650  0.6833 -0.2551
   75MOL0     C10011   9.455   2.872   2.734 -0.1622 -0.6384  0.0785
   75MOL0     C10012   9.373   2.748   2.732 -0.3735  0.1206 -0.2988
   75MOL0     C10013   9.227   2.776   2.706 -0.6040 -0.3695 -0.2241
   75MOL0     O10014   9.139   2.666   2.718 -0.4817 -0.3316 -0.0705
   75MOL0     C10015   9.001   2.697   2.723 -0.1918 -0.0867 -0.3266
   75MOL0     C10016   8.929   2.577   2.700  0.8789 -1.2475 -0.2245
   75MOL0     C10017   8.792   2.584   2.691 -0.6427 -0.7001  1.3198
   75MOL0     C10018   8.729   2.449   2.677  1.6226  0.9276  0.2769
   75MOL0     C10019   8.727   2.716   2.715  0.1041  0.4492  0.4553
   75MOL0     C10020   8.585   2.735   2.724  0.5727 -0.3157 -0.3666
   75MOL0     O10021   8.535   2.860   2.695  0.4073 -1.0178 -0.7692
   75MOL0     C10022   8.406   2.896   2.729 -0.3566 -0.3658 -0.0779
   75MOL0     C10023   8.344   2.872   2.853  0.5881  0.1396 -0.8775
   75MOL0     C10024   8.214   2.918   2.890 -0.5349 -0.1679  0.6451
   75MOL0     C10025   8.151   3.008   2.810 -0.5808  0.6133 -0.2871
   75MOL0     O10026   8.031   3.067   2.846 -0.3290 -0.0372 -0.8042
   75MOL0     C10027   7.949   2.999   2.934 -0.0329  0.5941  1.0027
   75MOL0     C10028   7.834   3.090   2.970 -0.1343  0.0422  0.3853
   75MOL0     C10029   7.768   3.139   2.842 -0.6235 -0.1694  0.3406
   75MOL0     C10030   7.624   3.192   2.877  1.0619  0.2163 -0.5336
   75MOL0     C10031   7.555   3.286   2.776 -0.3931 -0.5802  0.1517
   75MOL0     C10032   7.439   3.223   2.692 -0.0725 -1.3488 -0.0394
   75MOL0     C10033   7.485   3.174   2.560  0.1036  0.3043  0.8375
   75MOL0     C10034   7.359   3.133   2.483  0.2434  0.0756 -0.5963
   75MOL0    Cl10035   7.272   3.270   2.417  0.2253 -0.2006  0.1453
   75MOL0     C10036   8.218   3.049   2.693  0.1601  0.5293 -0.7993
   75MOL0     C10037   8.339   2.991   2.644  0.8526  0.3710  0.1018
   75MOL0     O10038   8.511   2.638   2.756 -0.0086 -0.5312  0.0444
   75MOL0     C10039   8.808   2.829   2.729 -0.0250 -0.9511  0.2765
   75MOL0     C10040   8.943   2.828   2.725  0.0793 -0.1772  0.7036
   75MOL0     N10041   9.659   3.061   2.907 -0.8872 -0.7163  0.1418
   75MOL0     N10042   9.740   3.165   2.874  0.7496  0.0057 -0.4661
   75MOL0     C10043  10.919   3.222   2.770 -0.2076  0.6623  0.8736
   75MOL0     C10044  11.048   3.185   2.805  0.7289 -0.0147 -0.9673
   75MOL0     C10045  11.477   3.119   2.867  0.3130  0.7671  0.0158
   75MOL0     C10046  11.550   3.058   2.761 -0.2148  0.2573 -0.4701
   75MOL0     C10047  11.675   3.002   2.779 -0.5612 -0.0816  0.9198
   75MOL0     C10048  11.730   2.994   2.907  0.5659 -0.4384  0.2578
   75MOL0     O10049  11.849   2.930   2.923  0.3133  0.3990 -0.7191
   75MOL0     C10050  11.948   2.991   3.005 -0.7673 -0.2458  0.4397
   75MOL0     C10051  12.080   2.909   3.000  0.2953  0.2167 -0.1395
   75MOL0     C10052  12.190   2.997   3.054  0.4952 -0.5821  0.0959
   75MOL0     C10053  12.328   2.920   3.066  0.3295 -0.3499  0.8505
   75MOL0     C10054  12.390   2.925   3.196 -0.3952 -0.5059  0.2040
   75MOL0     C10055  12.437   2.907   3.309  1.1653 -0.4010 -0.5499
   75MOL0     C10056  11.655   3.047   3.018 -0.0381  1.1259 -0.3935
   75MOL0     C10057  11.529   3.101   2.998  0.1628 -0.3111  0.3191
   75MOL0     H10058  11.186   3.272   2.503 -2.5964  0.5516 -0.6887
   75MOL0     H10059  10.946   3.315   2.452 -0.6267  0.5819  1.0799
   75MOL0     H10060  10.735   3.459   2.500 -2.0424  0.3525  1.3877
   75MOL0     H10061  10.754   3.300   2.419  1.1637  0.8416 -0.6532
   75MOL0     H10062  10.531   3.433   2.547  2.9793  1.2026  0.1022
   75MOL0     H10063  10.541   3.370   2.381  0.9609  3.6965  0.3370
   75MOL0     H10064  10.487   3.132   2.482  2.6178  0.0259  0.3121
   75MOL0     H10065  10.538   3.194   2.640 -1.0341  0.6389  1.7308
   75MOL0     H10066  10.311   3.344   2.632 -4.4764 -1.9793  2.4742
   75MOL0     H10067  10.287   3.258   2.473 -0.7836  2.2828  1.1319
   75MOL0     H10068  10.299   3.049   2.588 -1.5281  2.0660 -4.1681
   75MOL0     H10069  10.287   3.133   2.744 -2.5233  0.8916  1.2220
   75MOL0     H10070  10.090   3.149   2.522 -1.1495 -0.1045 -0.1442
   75MOL0     H10071  10.076   3.034   2.653  1.8450 -0.1229 -0.0858
   75MOL0     H10072  10.065   3.208   2.818 -1.5064  2.5573  1.5561
   75MOL0     H10073  10.083   3.330   2.700 -4.6062  1.6653 -1.0728
   75MOL0     H10074   9.871   3.262   2.578 -2.3017 -0.5383 -0.4144
   75MOL0     H10075   9.864   3.344   2.736 -0.4873  0.3020 -0.0536
   75MOL0     H10076   9.767   2.995   2.598  1.7394  1.5802 -0.5968
   75MOL0     H10077   9.651   2.787   2.720 -0.1620 -0.6577  1.1294
   75MOL0     H10078   9.588   2.803   2.886 -2.5377  1.5231  0.1113
   75MOL0     H10079   9.454   2.908   2.630 -2.2915 -2.3848 -0.6043
   75MOL0     H10080   9.394   2.946   2.785  1.4084  1.3761 -0.8083
   75MOL0     H10081   9.384   2.689   2.824  0.7974 -0.4002 -0.7504
   75MOL0     H10082   9.404   2.674   2.658  0.2335  1.7204 -1.7047
   75MOL0     H10083   9.220   2.819   2.605  1.1459  2.9189  0.9257
   75MOL0     H10084   9.188   2.848   2.778 -2.2356  0.5385 -1.9325
   75MOL0     H10085   8.992   2.489   2.691 -1.9323 -3.5059  0.6976
   75MOL0     H10086   8.646   2.446   2.606  1.6023  1.3508  0.2759
   75MOL0     H10087   8.794   2.369   2.641 -1.1327 -1.7037  0.7077
   75MOL0     H10088   8.689   2.436   2.778 -0.4176 -0.0037 -0.5847
   75MOL0     H10089   8.397   2.821   2.932 -2.1859 -0.9999  0.3636
   75MOL0     H10090   8.176   2.892   2.988 -0.5477 -2.6500  0.0439
   75MOL0     H10091   7.904   2.908   2.893  0.2123  0.3653  1.2327
   75MOL0     H10092   7.994   2.968   3.029  0.8355  2.4621  1.2335
   75MOL0     H10093   7.769   3.030   3.034  0.9622  1.4927  3.0115
   75MOL0     H10094   7.871   3.176   3.028 -0.4157  0.3003  0.1837
   75MOL0     H10095   7.755   3.062   2.766  3.5718 -2.7594  1.9227
   75MOL0     H10096   7.830   3.220   2.801 -3.0531  1.5296 -0.1888
   75MOL0     H10097   7.560   3.104   2.889  1.6017 -0.5309 -2.6312
   75MOL0     H10098   7.626   3.244   2.973 -0.9169  0.0669 -0.3774
   75MOL0     H10099   7.633   3.339   2.721 -2.2001  1.6377 -0.4369
   75MOL0     H10100   7.507   3.369   2.828  0.1546  1.5257 -2.4750
   75MOL0     H10101   7.387   3.145   2.748 -2.4005  0.1552  0.0332
   75MOL0     H10102   7.360   3.299   2.684  0.9934 -0.2210 -0.1090
   75MOL0     H10103   7.552   3.088   2.565 -0.2660 -0.2617 -2.2199
   75MOL0     H10104   7.536   3.254   2.505 -1.7766  1.9408  1.3356
   75MOL0     H10105   7.289   3.085   2.551  1.2272  2.0818  1.9817
   75MOL0     H10106   7.381   3.061   2.404 -1.4396 -2.4457  1.1052
   75MOL0     H10107   8.170   3.125   2.633 -0.9842  1.8333  1.6141
   75MOL0     H10108   8.380   3.037   2.554 -0.3112  0.0596 -0.6022
   75MOL0     H10109   8.753   2.922   2.743  1.9801  0.8094 -2.5202
   75MOL0     H10110   8.999   2.921   2.725 -0.2654  0.0345  1.1082
   75MOL0     H10111  10.836   3.199   2.836 -0.4371  3.7561  1.8123
   75MOL0     H10112  11.069   3.151   2.906  1.8591  3.7352  0.2084
   75MOL0     H10113  11.510   3.046   2.661 -1.0532  2.1578 -0.4054
   75MOL0     H10114  11.740   2.959   2.703  0.2844  1.0119  0.9956
   75MOL0     H10115  11.970   3.088   2.958 -3.0763  0.3509  0.4738
   75MOL0     H10116  11.926   3.020   3.109  5.1005  2.9207  1.2440
   75MOL0     H10117  12.099   2.890   2.894  1.2957 -3.2738  0.5429
   75MOL0     H10118  12.063   2.814   3.052 -0.6583 -0.0862 -0.9602
   75MOL0     H10119  12.154   3.033   3.151 -1.1816  0.2583 -0.7987
   75MOL0     H10120  12.210   3.088   2.997 -0.6708  0.1803  0.8564
   75MOL0     H10121  12.404   2.955   2.996 -0.3080  1.9976  1.2665
   75MOL0     H10122  12.305   2.819   3.030  2.1007 -1.2248  2.0142
   75MOL0     H10123  12.486   2.902   3.404  0.4303  3.3133  0.1750
   75MOL0     H10124  11.695   3.024   3.116  0.9136 -2.3204 -1.4787
   75MOL0     H10125  11.470   3.143   3.079  0.9062 -1.6164  1.5830
   76MOL0     O10126   0.917   9.201   3.561  0.0732  0.1296  0.4711
   76MOL0     C10127   0.827   9.207   3.472  0.9109  0.3563 -0.5644
   76MOL0     O10128   0.723   9.120   3.462  0.2234  0.3495  0.0168
   76MOL0     C10129   0.711   9.023   3.555 -0.8037 -0.4246  0.4088
   76MOL0     C10130   0.800   8.913   3.573  0.1996 -0.6914  0.0358
   76MOL0     C10131   0.785   8.814   3.672 -0.7048  0.1500 -0.3351
   76MOL0     C10132   0.662   8.814   3.746 -0.1254  0.5720  1.3832
   76MOL0     O10133   0.627   8.720   3.841  0.8707 -0.2822 -0.4745
   76MOL0     C10134   0.692   8.587   3.826 -1.8959 -0.2887  0.7289
   76MOL0     C10135   0.593   8.487   3.908 -0.2830  0.2722  0.3940
   76MOL0     C10136   0.552   8.528   4.053  0.9144 -0.4022 -0.2202
   76MOL0     C10137   0.445   8.408   4.092  0.1807  0.3353 -0.3612
   76MOL0     C10138   0.386   8.414   4.239 -0.6826  0.1516 -0.6410
   76MOL0     C10139   0.497   8.343   4.338  0.6198 -0.0077 -0.2572
   76MOL0     C10140   0.452   8.349   4.489  0.6233  0.5927 -0.3138
   76MOL0     C10141   0.447   8.493   4.543 -0.3137  0.6672  0.1347
   76MOL0     N10142   0.428   8.509   4.681 -0.0830  0.8175  0.1953
   76MOL0     C10143   0.307   8.488   4.749 -1.3551  0.0617  0.6803
   76MOL0     C10144   0.327   8.521   4.872 -0.3884 -0.0656 -0.7294
   76MOL0     C10145   0.224   8.525   4.992 -0.6037 -0.5341  0.2937
   76MOL0     C10146   0.291   8.534   5.122  0.5580  0.2020  0.2391
   76MOL0     C10147   0.204   8.512   5.242  0.9280 -0.1908 -0.1527
   76MOL0     C10148   0.104   8.625   5.285 -0.8512 -0.1928 -0.2655
   76MOL0     O10149  -0.011   8.634   5.201 -0.5371  0.0805  0.0734
   76MOL0     C10150  -0.092   8.742   5.233  0.1436  0.1876  0.5580
   76MOL0     C10151  -0.087   8.861   5.160 -0.8730  1.2809 -0.5167
   76MOL0     C10152  -0.182   8.964   5.189  0.0759  0.2783  0.7782
   76MOL0     C10153  -0.173   9.090   5.107  0.1284 -0.7937  0.4996
   76MOL0     C10154  -0.283   8.950   5.292  0.5126  1.1418 -0.5344
   76MOL0     C10155  -0.387   9.056   5.317 -0.3817 -0.1472 -0.5107
   76MOL0     O10156  -0.423   9.087   5.449 -0.5288  0.1378 -0.3127
   76MOL0     C10157  -0.515   9.182   5.463  0.5553  0.8634 -0.3580
   76MOL0     C10158  -0.479   9.312   5.427 -0.2017  0.5960  0.0377
   76MOL0     C10159  -0.570   9.407   5.451 -0.5851 -0.5427  0.4706
   76MOL0     C10160  -0.697   9.377   5.514  0.5803 -0.1387  0.4620
   76MOL0     O10161  -0.776   9.490   5.518  0.6383  0.4544  0.2533
   76MOL0     C10162  -0.882   9.512   5.613  0.5371 -0.0032  0.3979
   76MOL0     C10163  -0.997   9.607   5.562  0.5240 -0.3340  0.5181
   76MOL0     C10164  -1.103   9.537   5.481  0.3744  0.6490  0.5720
   76MOL0     C10165  -1.201   9.631   5.416 -0.2624 -0.2668  0.2406
   76MOL0     C10166  -1.143   9.695   5.288 -0.2584  0.5700  0.0681
   76MOL0     C10167  -1.254   9.785   5.221 -1.2795 -0.4995  0.3116
   76MOL0     C10168  -1.191   9.870   5.114  0.0466  0.1265 -0.2401
   76MOL0     C10169  -1.095   9.981   5.155  0.0332  0.0282 -0.2590
   76MOL0    Cl10170  -1.185  10.090   5.271  0.2342  0.3411 -0.2516
   76MOL0     C10171  -0.734   9.248   5.542  0.5622 -0.0941 -0.0444
   76MOL0     C10172  -0.641   9.144   5.521 -0.9055  0.2242  1.0736
   76MOL0     O10173  -0.458   9.087   5.222 -0.2596 -0.0826  0.2085
   76MOL0     C10174  -0.267   8.839   5.375  0.7314  0.1104 -0.2231
   76MOL0     C10175  -0.177   8.728   5.342  0.0248 -0.6747 -0.7322
   76MOL0     N10176   0.450   8.579   4.876  0.1310  0.0745 -0.4274
   76MOL0     N10177   0.518   8.565   4.766 -0.3538  0.0802 -0.2731
   76MOL0     C10178   0.574   8.921   3.727  0.4015 -0.4778 -0.8456
   76MOL0     C10179   0.600   9.028   3.638  0.5142  0.0280 -0.4486
   76MOL0     C10180   0.820   9.336   3.400 -0.3799  0.3193 -0.2651
   76MOL0     C10181   0.928   9.430   3.418 -0.0891  0.3171  0.9222
   76MOL0     C10182   0.925   9.554   3.354 -0.0350  0.1038  0.2276
   76MOL0     C10183   0.828   9.590   3.264  0.3119 -0.4902  0.8958
   76MOL0     O10184   0.813   9.717   3.204  0.2528  0.1973 -0.5147
   76MOL0     C10185   0.939   9.781   3.159 -0.7684  0.0335 -1.1077
   76MOL0     C10186   0.895   9.894   3.070  0.1766 -0.0865  0.8180
   76MOL0     C10187   1.020   9.985   3.042  0.4189  0.2315  0.2116
   76MOL0     C10188   1.133   9.933   2.964  0.4795 -0.2754  0.6910
   76MOL0     C10189   1.212  10.043   2.903  0.6127  0.7289 -0.0453
   76MOL0     C10190   1.283  10.135   2.860  0.2440 -0.0281  0.0052
   76MOL0     C10191   0.720   9.510   3.255 -0.1987  0.4105  0.3070
   76MOL0     C10192   0.710   9.384   3.321 -0.0959  0.6006  1.1265
   76MOL0     H10193   0.889   8.924   3.511 -1.2274 -0.0043 -1.9873
   76MOL0     H10194   0.865   8.745   3.697 -0.3519  0.7149  0.1101
   76MOL0     H10195   0.705   8.557   3.721  4.8009 -0.8954  1.2832
   76MOL0     H10196   0.790   8.593   3.875 -0.7581  1.9628 -1.5609
   76MOL0     H10197   0.502   8.489   3.848 -0.2172 -1.7914  0.1628
   76MOL0     H10198   0.638   8.388   3.918 -1.9737 -0.4492  1.3087
   76MOL0     H10199   0.641   8.542   4.115  1.7216 -0.2505 -1.3645
   76MOL0     H10200   0.499   8.623   4.052  2.7689  0.7081  1.0223
   76MOL0     H10201   0.349   8.421   4.041 -1.3475 -0.3401  2.1558
   76MOL0     H10202   0.483   8.306   4.079  0.7722  0.2537  1.6936
   76MOL0     H10203   0.373   8.515   4.276  0.7520 -0.1633  0.8152
   76MOL0     H10204   0.296   8.352   4.235  0.0209 -1.0767  1.1468
   76MOL0     H10205   0.524   8.242   4.308  2.3097  0.3339  0.0088
   76MOL0     H10206   0.590   8.398   4.319  0.3039  0.1291 -1.4940
   76MOL0     H10207   0.361   8.291   4.508  0.9093  0.3403  0.2959
   76MOL0     H10208   0.523   8.292   4.549 -1.2486 -1.0427  0.4633
   76MOL0     H10209   0.367   8.541   4.486 -0.3781 -0.4951 -0.8012
   76MOL0     H10210   0.541   8.535   4.504 -0.0050 -1.8844 -2.1426
   76MOL0     H10211   0.222   8.449   4.694 -2.1324  3.3275 -0.6533
   76MOL0     H10212   0.139   8.594   4.984 -1.2268 -1.4669 -2.0061
   76MOL0     H10213   0.176   8.426   4.985  0.6539 -1.1312 -0.0902
   76MOL0     H10214   0.332   8.634   5.133  0.7509  0.2736 -0.9909
   76MOL0     H10215   0.376   8.465   5.120 -1.6372 -2.7392  0.4498
   76MOL0     H10216   0.275   8.495   5.323  1.4432 -1.1927 -0.8050
   76MOL0     H10217   0.155   8.415   5.231  1.8413 -0.5532 -1.1481
   76MOL0     H10218   0.160   8.718   5.291 -0.5478 -0.4667  2.5945
   76MOL0     H10219   0.080   8.604   5.390  2.0371  0.1222  0.5387
   76MOL0     H10220  -0.016   8.883   5.082  0.2325 -1.0144 -0.2565
   76MOL0     H10221  -0.193   9.168   5.181  2.6222 -1.9431  2.5403
   76MOL0     H10222  -0.078   9.104   5.054 -0.9830 -1.3443 -1.7584
   76MOL0     H10223  -0.254   9.090   5.033  0.8198 -1.2587 -0.2758
   76MOL0     H10224  -0.383   9.344   5.387  0.6601  0.4158  1.8690
   76MOL0     H10225  -0.554   9.512   5.428 -1.4793 -0.0706  1.9018
   76MOL0     H10226  -0.932   9.429   5.664  0.7613  2.3127  4.9440
   76MOL0     H10227  -0.826   9.552   5.698  4.4438 -3.2383 -0.3469
   76MOL0     H10228  -1.044   9.645   5.653  1.5573 -1.2866  1.4897
   76MOL0     H10229  -0.951   9.689   5.507 -1.4164 -2.1105 -4.2647
   76MOL0     H10230  -1.162   9.481   5.554  1.5608 -1.1176  0.2647
   76MOL0     H10231  -1.062   9.469   5.405  0.3376  1.3470 -0.0786
   76MOL0     H10232  -1.286   9.570   5.386 -0.0157 -0.6875  0.3899
   76MOL0     H10233  -1.238   9.706   5.487 -1.5278 -0.8962  0.2630
   76MOL0     H10234  -1.112   9.611   5.224  2.2337  2.0094 -0.7713
   76MOL0     H10235  -1.063   9.763   5.317 -1.8849  1.5418  2.5709
   76MOL0     H10236  -1.322   9.715   5.172  0.2859 -2.1749  0.4196
   76MOL0     H10237  -1.317   9.843   5.289 -1.0153 -1.5578  1.5216
   76MOL0     H10238  -1.272   9.916   5.058  1.0227 -1.0681 -2.7593
   76MOL0     H10239  -1.138   9.798   5.051  0.1446 -0.4232  0.4544
   76MOL0     H10240  -1.061  10.040   5.069 -0.4571  0.8775  0.1221
   76MOL0     H10241  -1.010   9.932   5.203  0.6621 -0.1569 -1.5223
   76MOL0     H10242  -0.838   9.231   5.568 -0.0493  0.6883 -1.8503
   76MOL0     H10243  -0.665   9.039   5.534  3.0090 -0.9516  0.1994
   76MOL0     H10244  -0.333   8.824   5.461  1.1916 -2.3164 -0.2095
   76MOL0     H10245  -0.148   8.647   5.408 -0.7979  0.0849  0.6043
   76MOL0     H10246   0.480   8.918   3.781 -1.0665  2.0659 -3.0544
   76MOL0     H10247   0.513   9.093   3.633 -0.9033 -1.7526 -0.1089
   76MOL0     H10248   1.005   9.413   3.493  1.8088 -2.8572 -1.5023
   76MOL0     H10249   1.003   9.629   3.363  0.4094  0.0822 -2.4649
   76MOL0     H10250   1.009   9.806   3.239 -1.4141 -0.5642 -0.3286
   76MOL0     H10251   0.990   9.693   3.119  1.0451  0.0927  0.9104
   76MOL0     H10252   0.815   9.950   3.120 -0.7011 -0.6949  0.1215
   76MOL0     H10253   0.859   9.846   2.979  1.2025 -0.6624  0.7063
   76MOL0     H10254   1.065  10.029   3.131  1.5415 -0.2112 -0.1182
   76MOL0     H10255   0.984  10.062   2.972  0.4383 -1.9526 -2.3551
   76MOL0     H10256   1.104   9.863   2.885 -0.7061  0.3222  0.5680
   76MOL0     H10257   1.203   9.884   3.033  1.9116 -0.0366 -0.5554
   76MOL0     H10258   1.344  10.215   2.823 -1.0982  1.7354  1.4328
   76MOL0     H10259   0.631   9.536   3.199 -1.5307 -2.0958  1.1407
   76MOL0     H10260   0.612   9.337   3.325 -0.4205  1.0721 -0.6005
   77MOL0     O10261   6.236  10.471   5.936  0.4964  0.4562  0.1584
   77MOL0     C10262   6.297  10.431   5.842 -0.1503 -0.2417  0.2246
   77MOL0     O10263   6.251  10.361   5.735  0.1452 -0.2266  0.6166
   77MOL0     C10264   6.116  10.333   5.750  0.1164 -0.2771  0.5372
   77MOL0     C10265   6.065  10.203   5.729  0.3111 -0.2806  0.9493
   77MOL0     C10266   5.931  10.174   5.723  0.2079 -0.4062  0.1287
   77MOL0     C10267   5.841  10.280   5.715 -0.5713 -1.3328 -0.2043
   77MOL0     O10268   5.707  10.266   5.690 -0.2255 -0.0548  0.7984
   77MOL0     C10269   5.640  10.178   5.774 -0.5086 -1.6623 -0.3294
   77MOL0     C10270   5.623  10.247   5.907  0.0156  0.0582 -0.2030
   77MOL0     C10271   5.538  10.172   6.005 -0.2709 -0.4898  0.5315
   77MOL0     C10272   5.538  10.243   6.147  0.5785 -0.4008  0.8222
   77MOL0     C10273   5.407  10.213   6.218  0.2276 -0.0221 -0.3708
   77MOL0     C10274   5.368  10.314   6.329  0.0250  0.1572 -0.7257
   77MOL0     C10275   5.224  10.284   6.361  0.1604 -0.1361  0.3647
   77MOL0     C10276   5.182  10.384   6.479 -0.3513  0.2400  0.4710
   77MOL0     N10277   5.042  10.399   6.502  0.2973  0.2018  0.5294
   77MOL0     C10278   4.967  10.496   6.440 -0.0406  0.1180 -0.2341
   77MOL0     C10279   4.842  10.491   6.497  0.0508  0.2654  0.8489
   77MOL0     C10280   4.724  10.586   6.472  0.0701 -0.5865 -0.1020
   77MOL0     C10281   4.588  10.501   6.466 -1.1727  1.2425 -0.0955
   77MOL0     C10282   4.472  10.590   6.452 -0.2597  0.5221 -0.5350
   77MOL0     C10283   4.342  10.507   6.436  0.6653  0.5548 -0.0635
   77MOL0     O10284   4.301  10.435   6.548  0.1309 -0.3133 -0.9941
   77MOL0     C10285   4.200  10.480   6.630  0.3508  0.3837  0.0427
   77MOL0     C10286   4.068  10.484   6.586 -0.1057  0.1644  0.3483
   77MOL0     C10287   3.967  10.550   6.660 -0.1757 -0.1751  0.2674
   77MOL0     C10288   3.829  10.553   6.599  0.4658 -0.1510 -0.1199
   77MOL0     C10289   4.005  10.600   6.786 -0.8843  0.5672 -0.9253
   77MOL0     C10290   3.902  10.657   6.877 -0.1597  0.5479 -0.1439
   77MOL0     O10291   3.906  10.606   7.008 -0.0932 -0.3535  0.6120
   77MOL0     C10292   3.805  10.653   7.089 -0.9031  0.8991 -0.0652
   77MOL0     C10293   3.831  10.751   7.183  0.1520 -0.1104  0.3967
   77MOL0     C10294   3.731  10.805   7.267 -0.5273  0.0277 -0.8964
   77MOL0     C10295   3.604  10.755   7.249  0.2127 -0.3611 -0.0879
   77MOL0     O10296   3.490  10.799   7.316 -0.1075  1.0463 -0.5541
   77MOL0     C10297   3.505  10.917   7.403 -0.2011  0.5426 -0.6785
   77MOL0     C10298   3.372  10.978   7.449 -0.6906 -0.0228 -0.5818
   77MOL0     C10299   3.397  11.088   7.550 -1.0671  0.5234  0.8909
   77MOL0     C10300   3.275  11.176   7.574  0.1356 -1.1013 -0.8511
   77MOL0     C10301   3.316  11.316   7.638  1.1733 -0.7727 -0.3438
   77MOL0     C10302   3.193  11.405   7.650  0.5820 -0.7524  0.8255
   77MOL0     C10303   3.256  11.541   7.696 -0.7052  0.3581  0.0348
   77MOL0     C10304   3.133  11.629   7.710  0.0628 -0.5032  0.2190
   77MOL0    Cl10305   3.177  11.800   7.759  0.2339  0.1852  0.1986
   77MOL0     C10306   3.578  10.651   7.159  0.8044  0.0525 -0.4552
   77MOL0     C10307   3.681  10.587   7.086 -0.8984 -0.4359 -0.7071
   77MOL0     O10308   3.812  10.733   6.833 -0.6172 -0.0784 -0.0255
   77MOL0     C10309   4.135  10.585   6.833  0.1980 -0.4675 -0.3899
   77MOL0     C10310   4.233  10.536   6.753  0.3356  0.3107 -0.3096
   77MOL0     N10311   4.844  10.380   6.569 -0.6723  0.4300  0.4123
   77MOL0     N10312   4.966  10.335   6.588 -0.0852  0.3693 -0.2758
   77MOL0     C10313   5.889  10.410   5.728  0.0299  0.2402 -0.4768
   77MOL0     C10314   6.018  10.434   5.747 -0.6481  0.3952 -0.9035
   77MOL0     C10315   6.442  10.473   5.836  0.5859  0.0647  0.2111
   77MOL0     C10316   6.484  10.567   5.933 -0.2712 -0.4838 -0.7724
   77MOL0     C10317   6.614  10.611   5.938 -0.3773  0.2375  0.6556
   77MOL0     C10318   6.694  10.595   5.831 -0.2210 -0.3235  0.0767
   77MOL0     O10319   6.795  10.689   5.832 -0.6671  0.0807  0.5933
   77MOL0     C10320   6.902  10.673   5.741  0.5679 -0.4722  1.1148
   77MOL0     C10321   7.020  10.739   5.806  0.5820 -0.2254  0.0452
   77MOL0     C10322   7.132  10.644   5.855 -0.5019  0.4810 -0.7106
   77MOL0     C10323   7.080  10.543   5.969  0.5770 -0.0404  0.0734
   77MOL0     C10324   7.153  10.414   5.970 -0.3431 -0.2767  0.1911
   77MOL0     C10325   7.238  10.323   5.975  0.5147 -0.6712  0.1244
   77MOL0     C10326   6.664  10.505   5.728  0.6383  0.0450 -0.4986
   77MOL0     C10327   6.535  10.442   5.732 -0.0718  0.3639  0.7634
   77MOL0     H10328   6.135  10.121   5.717  0.3132 -0.3367  1.3331
   77MOL0     H10329   5.899  10.071   5.704 -1.1489  0.0269 -0.0713
   77MOL0     H10330   5.549  10.148   5.720 -0.0017  0.2587 -2.3986
   77MOL0     H10331   5.688  10.082   5.794 -1.6279 -2.4660 -1.3038
   77MOL0     H10332   5.726  10.258   5.943  1.1213 -0.1937 -3.0427
   77MOL0     H10333   5.581  10.347   5.893  2.6139  1.0527 -1.4589
   77MOL0     H10334   5.438  10.170   5.960  0.2509  0.4951 -0.7459
   77MOL0     H10335   5.583  10.073   6.014  2.1817  0.5070 -0.0067
   77MOL0     H10336   5.625  10.206   6.202  0.2216 -0.5768  1.2747
   77MOL0     H10337   5.549  10.351   6.137 -0.1270 -0.4507 -0.8389
   77MOL0     H10338   5.325  10.211   6.145 -0.2091 -0.0500  0.1144
   77MOL0     H10339   5.419  10.110   6.252 -2.0151 -0.4166 -0.5837
   77MOL0     H10340   5.429  10.312   6.420 -1.7947  1.8809  0.6065
   77MOL0     H10341   5.379  10.416   6.290  3.3306 -0.0864 -0.7263
   77MOL0     H10342   5.160  10.300   6.274  1.0316  0.5789 -0.1680
   77MOL0     H10343   5.224  10.180   6.397 -0.0157  0.1195  1.1243
   77MOL0     H10344   5.233  10.479   6.463  0.5774 -0.5519 -1.7131
   77MOL0     H10345   5.203  10.330   6.572 -2.6452 -3.5197 -0.9417
   77MOL0     H10346   5.009  10.573   6.376  1.7246 -0.7185 -0.1180
   77MOL0     H10347   4.720  10.667   6.545 -1.8227  1.6755 -2.4703
   77MOL0     H10348   4.733  10.631   6.373  0.3565 -0.7131 -0.1335
   77MOL0     H10349   4.571  10.441   6.555  0.0656 -0.6524 -1.0556
   77MOL0     H10350   4.597  10.431   6.382 -1.9295 -2.3279  2.5835
   77MOL0     H10351   4.487  10.642   6.358  1.6990  0.4724 -0.2825
   77MOL0     H10352   4.471  10.655   6.540  2.8693  1.1465 -0.8581
   77MOL0     H10353   4.356  10.435   6.355 -0.4805 -0.5792  0.7172
   77MOL0     H10354   4.255  10.567   6.410 -1.8435 -2.8610 -0.1990
   77MOL0     H10355   4.039  10.446   6.488  0.0765 -0.7893  0.6580
   77MOL0     H10356   3.758  10.550   6.682 -0.9432 -0.3313 -1.3069
   77MOL0     H10357   3.816  10.644   6.541  1.3267  0.2841  0.3495
   77MOL0     H10358   3.801  10.460   6.549 -3.0654  0.6765  0.1017
   77MOL0     H10359   3.930  10.796   7.195  0.7302 -0.7603 -1.5299
   77MOL0     H10360   3.768  10.879   7.337  1.0424  0.0247 -1.6743
   77MOL0     H10361   3.573  10.894   7.485  2.3365 -0.5816 -2.9470
   77MOL0     H10362   3.556  10.991   7.341  1.9488 -1.4346 -1.4075
   77MOL0     H10363   3.325  11.020   7.359  0.5012  2.8453  0.0004
   77MOL0     H10364   3.307  10.903   7.495  1.2853 -0.5938  1.4652
   77MOL0     H10365   3.472  11.149   7.500 -1.9481 -0.4749 -1.8759
   77MOL0     H10366   3.429  11.048   7.646 -0.8091 -1.1526  0.1419
   77MOL0     H10367   3.234  11.191   7.474  1.2134  2.3950 -0.8781
   77MOL0     H10368   3.203  11.134   7.645  1.0278  1.5452  1.8439
   77MOL0     H10369   3.391  11.366   7.575  3.1141 -4.0194 -0.8044
   77MOL0     H10370   3.341  11.307   7.744 -2.2716  0.0517  0.6645
   77MOL0     H10371   3.137  11.415   7.557 -0.3319  0.3178  1.4723
   77MOL0     H10372   3.133  11.358   7.729  1.8310 -3.8879  0.0727
   77MOL0     H10373   3.317  11.584   7.616  0.6156 -1.9181 -0.2653
   77MOL0     H10374   3.302  11.531   7.795  0.1811 -3.5168 -0.6063
   77MOL0     H10375   3.054  11.592   7.775 -0.8064 -2.8024 -1.9938
   77MOL0     H10376   3.087  11.638   7.611  2.1788  1.2296 -0.6966
   77MOL0     H10377   3.471  10.635   7.157 -0.2449  4.9994  1.2623
   77MOL0     H10378   3.665  10.511   7.010  1.6431 -0.2926 -1.4716
   77MOL0     H10379   4.158  10.627   6.931 -1.2205  0.1792 -0.3006
   77MOL0     H10380   4.337  10.527   6.784  0.1114 -2.2596 -0.0967
   77MOL0     H10381   5.823  10.496   5.721 -1.1445 -0.6641 -0.7260
   77MOL0     H10382   6.053  10.537   5.743  1.2385 -0.0481  1.5700
   77MOL0     H10383   6.416  10.600   6.011  0.3183 -1.7749  0.3293
   77MOL0     H10384   6.657  10.672   6.018  2.3045 -1.4718  0.6583
   77MOL0     H10385   6.918  10.567   5.719 -0.8658 -0.2042 -1.7595
   77MOL0     H10386   6.872  10.728   5.651 -0.1483  2.0424  2.7747
   77MOL0     H10387   6.990  10.811   5.883  0.6149 -2.1182  1.9035
   77MOL0     H10388   7.091  10.786   5.737  1.7750 -2.3557 -0.2492
   77MOL0     H10389   7.218  10.697   5.897  1.8154 -1.7306 -2.3609
   77MOL0     H10390   7.171  10.581   5.774 -3.0554  0.6726 -2.1855
   77MOL0     H10391   6.976  10.514   5.956  0.5010 -0.3061  1.2122
   77MOL0     H10392   7.091  10.595   6.065  1.1810  2.3234 -1.1777
   77MOL0     H10393   7.310  10.244   5.966  2.1791  0.8773 -0.8239
   77MOL0     H10394   6.733  10.489   5.646  2.0648  2.7196  0.0535
   77MOL0     H10395   6.511  10.366   5.659  0.9595  0.9531 -0.2191
   78MOL0     O10396   7.272   6.470  11.200 -0.8524 -0.6267 -1.0355
   78MOL0     C10397   7.255   6.485  11.079  0.7277 -0.1148  0.2541
   78MOL0     O10398   7.339   6.539  10.986 -0.1262 -0.4175 -0.6620
   78MOL0     C10399   7.470   6.579  11.008 -0.2660  0.1252  0.2775
   78MOL0     C10400   7.541   6.612  10.894 -0.1111  1.1589 -0.7431
   78MOL0     C10401   7.682   6.636  10.901  1.1528 -0.1673  1.3219
   78MOL0     C10402   7.747   6.643  11.025  0.7168 -0.7575  0.4558
   78MOL0     O10403   7.878   6.688  11.005  0.9404 -0.6472 -0.3935
   78MOL0     C10404   7.972   6.692  11.113 -0.1930  0.0135  0.9648
   78MOL0     C10405   8.118   6.729  11.065  0.6970  0.1179  0.0716
   78MOL0     C10406   8.208   6.778  11.175 -0.0579 -0.8145  0.1914
   78MOL0     C10407   8.344   6.807  11.109 -0.2213  0.2110 -0.0505
   78MOL0     C10408   8.455   6.844  11.211  0.3104  0.4928  0.9802
   78MOL0     C10409   8.460   6.777  11.349 -0.2236 -0.4814  1.5032
   78MOL0     C10410   8.595   6.799  11.428  0.2544 -0.0288 -0.1615
   78MOL0     C10411   8.613   6.952  11.463 -0.4824  0.7985  0.7581
   78MOL0     N10412   8.741   6.963  11.540  0.8517  0.3012 -0.7357
   78MOL0     C10413   8.834   6.872  11.571  0.0177 -0.0757  0.7301
   78MOL0     C10414   8.938   6.943  11.624 -0.0099  1.0048 -0.0406
   78MOL0     C10415   9.065   6.902  11.675  0.3827  0.4205 -0.1555
   78MOL0     C10416   9.187   6.961  11.598 -0.4713  0.3665  1.0325
   78MOL0     C10417   9.212   6.887  11.457 -1.6179 -0.0282 -0.9838
   78MOL0     C10418   9.242   6.730  11.456 -0.6683 -0.6015  0.6532
   78MOL0     O10419   9.266   6.672  11.330 -0.2707  0.2921  0.7689
   78MOL0     C10420   9.168   6.617  11.252 -0.5666  0.0627 -0.7343
   78MOL0     C10421   9.212   6.537  11.143 -0.0716  0.4146  0.0877
   78MOL0     C10422   9.127   6.481  11.051  0.2021 -0.4085 -0.0970
   78MOL0     C10423   9.172   6.422  10.925  0.2297  0.3523 -0.0661
   78MOL0     C10424   8.992   6.494  11.078  0.6387 -0.2649  0.4845
   78MOL0     C10425   8.888   6.433  10.989  0.5882  0.0307 -0.6927
   78MOL0     O10426   8.778   6.507  10.961 -0.2688  0.8020  0.1416
   78MOL0     C10427   8.674   6.453  10.883  0.1826 -1.5664 -0.0168
   78MOL0     C10428   8.542   6.502  10.920 -0.6130  0.8177  0.4216
   78MOL0     C10429   8.425   6.463  10.850  0.5557 -0.8146 -0.3655
   78MOL0     C10430   8.442   6.377  10.739  0.0067 -0.7461  1.1353
   78MOL0     O10431   8.329   6.345  10.669  0.5948  0.2267  0.3322
   78MOL0     C10432   8.334   6.225  10.597  1.5713  0.4578  0.2787
   78MOL0     C10433   8.191   6.203  10.547  0.9166 -0.1144 -0.8863
   78MOL0     C10434   8.094   6.183  10.659  0.3823 -0.4219  0.2551
   78MOL0     C10435   7.951   6.186  10.607 -0.3148 -0.5264  0.8082
   78MOL0     C10436   7.852   6.158  10.727  0.1113 -0.1202 -0.5044
   78MOL0     C10437   7.714   6.187  10.688 -0.1652  0.2245 -0.0961
   78MOL0     C10438   7.612   6.185  10.804 -1.1922 -0.2307  0.7388
   78MOL0     C10439   7.480   6.236  10.753 -0.1558 -0.9152 -0.3265
   78MOL0    Cl10440   7.364   6.206  10.884  0.2251  0.1412 -0.0521
   78MOL0     C10441   8.570   6.330  10.708 -0.4449  0.3421 -1.0722
   78MOL0     C10442   8.686   6.376  10.775 -0.7457  0.6494 -0.2720
   78MOL0     O10443   8.902   6.315  10.969 -0.2793  0.1301  0.0377
   78MOL0     C10444   8.940   6.568  11.189  0.0742  0.4106 -0.2686
   78MOL0     C10445   9.033   6.631  11.278 -0.1661  0.5202  0.7489
   78MOL0     N10446   8.906   7.072  11.628  0.4544 -0.3134  0.8592
   78MOL0     N10447   8.783   7.082  11.583 -0.3881 -0.1836 -0.0214
   78MOL0     C10448   7.681   6.602  11.145  0.2905  0.1686  0.7693
   78MOL0     C10449   7.540   6.583  11.133 -0.9778 -0.2928  0.8980
   78MOL0     C10450   7.128   6.435  11.014 -1.0988  0.5761 -0.2148
   78MOL0     C10451   7.068   6.498  10.906 -0.4215  0.1081 -0.8430
   78MOL0     C10452   6.961   6.435  10.846  0.3818 -0.6357  0.7603
   78MOL0     C10453   6.908   6.311  10.894 -0.0877  0.7406  0.1519
   78MOL0     O10454   6.816   6.254  10.812  0.0874 -0.2826 -0.4425
   78MOL0     C10455   6.729   6.146  10.859  0.1538  0.4803  0.0401
   78MOL0     C10456   6.639   6.185  10.974  0.2861 -0.5015  0.9183
   78MOL0     C10457   6.526   6.085  10.995 -0.4200  0.2694 -0.5259
   78MOL0     C10458   6.417   6.085  10.892  0.3493 -1.0148 -0.1622
   78MOL0     C10459   6.311   5.979  10.916  0.0662  0.2393  0.7907
   78MOL0     C10460   6.216   5.899  10.921  0.4760 -0.7987  0.3166
   78MOL0     C10461   6.960   6.256  11.007  0.0641  0.2498 -0.8998
   78MOL0     C10462   7.071   6.317  11.067 -0.0209 -0.0610  0.6168
   78MOL0     H10463   7.484   6.626  10.802 -1.1945 -0.3097 -0.3366
   78MOL0     H10464   7.724   6.651  10.802 -1.3303  1.9966  0.4458
   78MOL0     H10465   7.941   6.771  11.181  0.8491  0.3737  1.0387
   78MOL0     H10466   7.971   6.596  11.166 -1.9773  0.1744  1.2691
   78MOL0     H10467   8.157   6.635  11.026  0.1898  0.3262 -0.9827
   78MOL0     H10468   8.127   6.805  10.987  1.2667 -0.4925 -0.4685
   78MOL0     H10469   8.168   6.872  11.214 -0.2438 -1.4549  1.6109
   78MOL0     H10470   8.208   6.693  11.245 -2.3909 -1.9020 -1.0134
   78MOL0     H10471   8.374   6.713  11.062  0.6396  0.9509 -1.0448
   78MOL0     H10472   8.331   6.892  11.043  1.9015  0.7323  0.1155
   78MOL0     H10473   8.550   6.827  11.159 -0.7646 -0.7764 -0.6494
   78MOL0     H10474   8.460   6.953  11.222  1.4572  0.8092 -1.8933
   78MOL0     H10475   8.381   6.811  11.417  0.1262  0.1803  1.5898
   78MOL0     H10476   8.443   6.670  11.332 -0.9742  0.0711 -1.9432
   78MOL0     H10477   8.596   6.738  11.519  2.7177 -1.2539 -0.9517
   78MOL0     H10478   8.686   6.783  11.371 -0.0340 -0.3223 -0.5469
   78MOL0     H10479   8.535   6.992  11.529  0.4266  1.2822  1.5563
   78MOL0     H10480   8.612   7.011  11.371 -0.8628  1.6383  1.2806
   78MOL0     H10481   8.831   6.768  11.540  0.5490  1.0047 -3.7224
   78MOL0     H10482   9.074   6.928  11.781  0.7994 -0.4200  0.0235
   78MOL0     H10483   9.064   6.793  11.671  0.0156  0.4471 -1.7692
   78MOL0     H10484   9.282   6.945  11.650  1.7850  0.2448 -2.7158
   78MOL0     H10485   9.188   7.069  11.584 -0.5931 -0.0058 -2.9377
   78MOL0     H10486   9.293   6.936  11.402  0.7185 -2.5826 -0.0880
   78MOL0     H10487   9.123   6.921  11.404 -1.8012  2.5075  0.8093
   78MOL0     H10488   9.164   6.675  11.509  0.5612 -0.7247  2.4084
   78MOL0     H10489   9.331   6.714  11.517 -0.1715 -1.3733 -0.2539
   78MOL0     H10490   9.320   6.531  11.132 -0.0535 -1.6689  0.8049
   78MOL0     H10491   9.279   6.398  10.928 -0.2352 -1.8047  1.2883
   78MOL0     H10492   9.122   6.334  10.884  0.1277 -0.1618  1.1237
   78MOL0     H10493   9.147   6.497  10.849 -0.8027 -1.5441 -1.6999
   78MOL0     H10494   8.540   6.554  11.016  0.7478 -2.6271  2.4761
   78MOL0     H10495   8.324   6.489  10.880  1.7475  0.2759  3.1687
   78MOL0     H10496   8.398   6.244  10.510  2.8101  0.3392  1.1467
   78MOL0     H10497   8.370   6.139  10.654 -2.8761 -2.2529 -0.4643
   78MOL0     H10498   8.158   6.283  10.480 -3.1871 -0.3493  0.5680
   78MOL0     H10499   8.188   6.105  10.498 -0.0183  0.6711 -2.4959
   78MOL0     H10500   8.106   6.266  10.729  2.7984 -1.0730  0.6975
   78MOL0     H10501   8.106   6.092  10.720  1.0970 -0.3425  0.2352
   78MOL0     H10502   7.934   6.286  10.565  0.3732 -1.3279 -1.5324
   78MOL0     H10503   7.926   6.118  10.525 -0.1227  2.2134 -1.6898
   78MOL0     H10504   7.881   6.220  10.813 -2.3653  2.4343 -1.3711
   78MOL0     H10505   7.867   6.055  10.760  1.6522 -0.0666 -0.9354
   78MOL0     H10506   7.734   6.288  10.650  0.2299  0.1755 -0.0272
   78MOL0     H10507   7.678   6.119  10.610  1.6007  2.2107 -2.8587
   78MOL0     H10508   7.646   6.240  10.892  1.0027  1.4524 -1.0348
   78MOL0     H10509   7.596   6.079  10.829 -1.8621 -0.3019  0.0350
   78MOL0     H10510   7.443   6.184  10.664 -1.5283  1.0439 -0.9545
   78MOL0     H10511   7.470   6.343  10.735 -0.9948 -0.7471  0.9440
   78MOL0     H10512   8.584   6.258  10.628  2.6278  1.0738 -1.3294
   78MOL0     H10513   8.786   6.350  10.742 -0.2317  1.3699  0.6781
   78MOL0     H10514   8.835   6.580  11.218 -0.1012 -2.3405  0.5416
   78MOL0     H10515   8.994   6.685  11.364 -0.7818 -0.4532  1.1011
   78MOL0     H10516   7.747   6.610  11.231  0.8512 -1.5410  0.5252
   78MOL0     H10517   7.485   6.575  11.226 -2.9345 -0.6077 -0.2257
   78MOL0     H10518   7.110   6.589  10.864  0.5733 -0.0123 -0.1593
   78MOL0     H10519   6.904   6.474  10.763 -0.8419 -1.2117  1.2969
   78MOL0     H10520   6.663   6.128  10.774 -0.5472 -1.1658  0.8976
   78MOL0     H10521   6.789   6.058  10.886 -0.1636  0.3171  0.2216
   78MOL0     H10522   6.595   6.283  10.955  2.4427  0.0093 -2.3705
   78MOL0     H10523   6.692   6.194  11.069 -0.4186  1.7262  1.1655
   78MOL0     H10524   6.485   6.097  11.096  1.0831 -3.5199  0.7126
   78MOL0     H10525   6.574   5.987  10.998 -0.2519  0.3316 -1.0589
   78MOL0     H10526   6.466   6.067  10.796 -0.0381 -5.2141  0.2403
   78MOL0     H10527   6.375   6.185  10.877  0.7484 -0.6458  1.0959
   78MOL0     H10528   6.147   5.818  10.918 -0.2926 -0.1888  0.8960
   78MOL0     H10529   6.913   6.168  11.051 -1.0352  0.7874 -0.9851
   78MOL0     H10530   7.117   6.271  11.154 -1.6589  1.6081  2.4802
   79MOL0     O10531   7.565   1.713   1.120 -0.4651  0.8718 -0.2895
   79MOL0     C10532   7.605   1.771   1.020 -0.5613 -0.3125 -0.4292
   79MOL0     O10533   7.703   1.877   1.014 -0.5616  0.7851 -0.6383
   79MOL0     C10534   7.768   1.907   1.129 -0.1331 -0.3236  0.6339
   79MOL0     C10535   7.715   1.964   1.237  0.7604 -0.3972  0.4265
   79MOL0     C10536   7.781   1.998   1.352 -0.5147 -0.1587  0.7259
   79MOL0     C10537   7.922   1.986   1.354 -0.4666  0.4264  0.9956
   79MOL0     O10538   7.999   2.010   1.462  0.6292  0.4671  0.4368
   79MOL0     C10539   7.952   2.108   1.555  0.1007 -0.6160 -0.6620
   79MOL0     C10540   8.075   2.171   1.613 -0.0887 -0.4486 -0.0068
   79MOL0     C10541   8.144   2.269   1.519  0.7563  0.0694 -0.1799
   79MOL0     C10542   8.261   2.352   1.589  0.7536 -0.2320 -0.2156
   79MOL0     C10543   8.357   2.426   1.490 -0.2402  0.7381 -1.1656
   79MOL0     C10544   8.282   2.541   1.410 -0.6189 -0.4694 -0.3640
   79MOL0     C10545   8.384   2.639   1.349  0.1557 -1.1998  0.5552
   79MOL0     C10546   8.318   2.764   1.295 -0.1515 -0.2142  0.3380
   79MOL0     N10547   8.274   2.850   1.404 -0.0006  0.6964 -0.0043
   79MOL0     C10548   8.356   2.931   1.472  0.5160  0.2461  0.8413
   79MOL0     C10549   8.270   2.975   1.575  0.0138  0.4151 -0.0171
   79MOL0     C10550   8.325   3.064   1.680 -0.2416 -0.5807  0.5231
   79MOL0     C10551   8.329   3.211   1.666 -0.2116 -0.3014 -0.5891
   79MOL0     C10552   8.359   3.272   1.803  0.1652  0.1447  0.0603
   79MOL0     C10553   8.260   3.278   1.914  0.4436  1.1264 -0.0655
   79MOL0     O10554   8.128   3.329   1.878 -0.6419  0.1046 -0.0211
   79MOL0     C10555   8.038   3.230   1.851 -0.1788 -0.1504  0.5409
   79MOL0     C10556   7.992   3.218   1.721 -0.4870 -0.2911  0.4998
   79MOL0     C10557   7.896   3.113   1.689 -0.6237  0.0018  0.7699
   79MOL0     C10558   7.870   3.102   1.541 -0.5572  0.1864 -0.3867
   79MOL0     C10559   7.847   3.029   1.791  0.9340  0.1539 -0.0683
   79MOL0     C10560   7.724   2.946   1.766  0.4084 -0.5365  0.1011
   79MOL0     O10561   7.645   2.962   1.653  0.0448 -0.4236 -0.2022
   79MOL0     C10562   7.535   2.885   1.629 -0.3444  0.5195 -0.0013
   79MOL0     C10563   7.534   2.741   1.642 -0.6259  0.4724 -0.4117
   79MOL0     C10564   7.422   2.663   1.619 -0.9899 -0.2515  0.3123
   79MOL0     C10565   7.305   2.735   1.594  0.6272 -0.2137  0.5732
   79MOL0     O10566   7.198   2.654   1.561 -0.4482 -0.9969  0.1410
   79MOL0     C10567   7.066   2.707   1.577 -0.0086  0.5989  0.7931
   79MOL0     C10568   6.971   2.587   1.553 -1.4679 -0.2154  0.1060
   79MOL0     C10569   7.006   2.476   1.659 -0.4860  0.0116  0.6024
   79MOL0     C10570   7.057   2.508   1.802  0.3944 -0.4117  0.0819
   79MOL0     C10571   7.036   2.387   1.883  0.2189  0.9436 -0.1432
   79MOL0     C10572   7.078   2.425   2.018  0.1425 -0.2232 -0.4296
   79MOL0     C10573   7.125   2.300   2.095 -0.5933  0.0377 -0.3137
   79MOL0     C10574   7.132   2.316   2.239  0.1003 -0.1534 -0.4206
   79MOL0    Cl10575   6.963   2.312   2.294 -0.3406  0.0661  0.0544
   79MOL0     C10576   7.298   2.877   1.591  0.2916  0.0921 -0.1814
   79MOL0     C10577   7.410   2.948   1.603 -0.2065  0.0674  0.6546
   79MOL0     O10578   7.698   2.861   1.850 -0.0890  0.7989 -0.1701
   79MOL0     C10579   7.893   3.047   1.921 -0.7875 -0.0111 -0.3984
   79MOL0     C10580   7.985   3.152   1.950  0.2804 -0.3974 -1.0325
   79MOL0     N10581   8.143   2.909   1.566 -0.4802  0.7318 -0.2289
   79MOL0     N10582   8.150   2.831   1.466 -0.8654  0.2341 -0.7835
   79MOL0     C10583   7.980   1.915   1.250  0.0921  0.1475  0.8740
   79MOL0     C10584   7.905   1.882   1.135 -0.7678  0.0833  0.7887
   79MOL0     C10585   7.528   1.742   0.895  0.0663 -0.2591  0.4258
   79MOL0     C10586   7.587   1.775   0.772 -0.3255 -0.0475 -0.8846
   79MOL0     C10587   7.538   1.712   0.660  0.4241  0.2536  0.1425
   79MOL0     C10588   7.421   1.633   0.658  0.0108 -0.4410 -0.8748
   79MOL0     O10589   7.376   1.564   0.547  0.0307 -0.0665 -0.0030
   79MOL0     C10590   7.403   1.632   0.421 -0.4713 -0.2612  0.0767
   79MOL0     C10591   7.327   1.583   0.296 -0.6947 -0.3642 -0.4027
   79MOL0     C10592   7.175   1.562   0.303  0.1253 -0.0246  0.2924
   79MOL0     C10593   7.093   1.690   0.332 -0.2091  0.2714  0.0383
   79MOL0     C10594   6.948   1.676   0.306  0.2027  1.1628  0.8780
   79MOL0     C10595   6.832   1.641   0.277 -0.0505 -0.9010 -0.2059
   79MOL0     C10596   7.364   1.595   0.779  0.2496  0.5183 -0.3545
   79MOL0     C10597   7.413   1.654   0.894  0.1976  0.1136  0.1883
   79MOL0     H10598   7.607   1.978   1.236  0.3012 -1.4714  5.5149
   79MOL0     H10599   7.721   2.046   1.429 -0.3816  2.5011 -0.7100
   79MOL0     H10600   7.896   2.188   1.506 -0.4056  2.4117  4.2132
   79MOL0     H10601   7.888   2.071   1.635 -0.5464  2.9424  0.6577
   79MOL0     H10602   8.055   2.234   1.700  0.7807 -2.2857  1.6061
   79MOL0     H10603   8.144   2.088   1.635 -1.9167 -2.3071 -0.8998
   79MOL0     H10604   8.181   2.219   1.430  0.5959  1.3565 -1.0008
   79MOL0     H10605   8.064   2.329   1.475 -1.7699 -0.5160  3.2213
   79MOL0     H10606   8.216   2.430   1.652  0.1078 -1.2498  0.6177
   79MOL0     H10607   8.320   2.292   1.659 -0.9633  0.2742  1.7873
   79MOL0     H10608   8.457   2.448   1.531  0.3084  1.6501 -2.8975
   79MOL0     H10609   8.379   2.351   1.414 -1.0761 -1.5248  0.7060
   79MOL0     H10610   8.213   2.498   1.337 -1.1093  2.0757 -1.4891
   79MOL0     H10611   8.218   2.590   1.484 -1.3980 -1.1983 -0.5372
   79MOL0     H10612   8.462   2.669   1.420  3.0176  0.5819 -2.9819
   79MOL0     H10613   8.431   2.606   1.255 -0.4652  0.2411 -0.3025
   79MOL0     H10614   8.239   2.734   1.225  0.9650 -2.6320  0.0214
   79MOL0     H10615   8.390   2.823   1.238 -0.4420 -0.7670 -0.6225
   79MOL0     H10616   8.454   2.961   1.438  0.6373 -0.3203  0.6731
   79MOL0     H10617   8.274   3.035   1.772  0.6603  0.8344  1.4980
   79MOL0     H10618   8.431   3.039   1.695 -0.0507 -0.0236  0.1259
   79MOL0     H10619   8.241   3.261   1.623  0.4337  0.2527 -1.3022
   79MOL0     H10620   8.406   3.246   1.597 -0.4101  0.2057 -0.5636
   79MOL0     H10621   8.400   3.373   1.789  0.4443  0.1643  0.9856
   79MOL0     H10622   8.444   3.215   1.842 -1.1972 -2.3800 -0.4438
   79MOL0     H10623   8.298   3.345   1.992 -2.6560  3.6902 -0.5192
   79MOL0     H10624   8.253   3.176   1.953 -1.0972  0.3139 -2.2670
   79MOL0     H10625   8.033   3.292   1.653 -0.1230  2.0501  3.0950
   79MOL0     H10626   7.780   3.159   1.513 -0.8312 -0.2759 -0.4517
   79MOL0     H10627   7.952   3.158   1.495 -0.9135  1.1217  0.0941
   79MOL0     H10628   7.859   3.002   1.498 -1.8152  1.0053 -2.1130
   79MOL0     H10629   7.624   2.683   1.660 -0.1169  0.8539 -1.6624
   79MOL0     H10630   7.411   2.556   1.629  1.8934 -0.6798 -0.3335
   79MOL0     H10631   7.046   2.736   1.680  0.5271  0.5669  0.9077
   79MOL0     H10632   7.051   2.793   1.511 -2.6883  0.7453  1.4874
   79MOL0     H10633   6.864   2.610   1.551 -1.7133 -0.5483 -5.0135
   79MOL0     H10634   6.979   2.544   1.452 -1.4831  0.6944 -0.2959
   79MOL0     H10635   7.075   2.404   1.614 -0.1624  1.8686 -2.1023
   79MOL0     H10636   6.918   2.412   1.668  1.3889 -2.7789  0.2993
   79MOL0     H10637   7.164   2.529   1.801  0.7460 -1.4547  3.3219
   79MOL0     H10638   7.006   2.597   1.840  2.0382 -0.3857  2.3890
   79MOL0     H10639   7.097   2.305   1.844 -0.3552  1.2461 -1.7355
   79MOL0     H10640   6.936   2.342   1.891  1.8626 -4.1833 -3.1701
   79MOL0     H10641   7.159   2.497   2.015 -1.7307  2.0265  0.1899
   79MOL0     H10642   6.998   2.474   2.074  0.9852 -2.4741  3.0459
   79MOL0     H10643   7.224   2.278   2.054  0.2013  0.4124  1.3019
   79MOL0     H10644   7.060   2.214   2.073 -1.4159  0.2500  1.1439
   79MOL0     H10645   7.182   2.412   2.256  2.8705 -1.6917  0.7092
   79MOL0     H10646   7.197   2.243   2.287 -2.4496 -0.1722  3.4021
   79MOL0     H10647   7.209   2.932   1.560 -0.6483 -1.4015 -0.1902
   79MOL0     H10648   7.411   3.056   1.599  2.7845  0.1713  1.1899
   79MOL0     H10649   7.863   2.987   2.007  2.6517  0.5126  1.3838
   79MOL0     H10650   8.026   3.169   2.049 -1.2279  2.3133 -0.7578
   79MOL0     H10651   8.081   1.876   1.253  0.7321  1.6587  0.0565
   79MOL0     H10652   7.954   1.832   1.052  1.1921  0.2212  1.8246
   79MOL0     H10653   7.664   1.851   0.774 -0.9670  0.6029  0.2611
   79MOL0     H10654   7.586   1.743   0.568  1.9545  0.2534  0.9178
   79MOL0     H10655   7.366   1.734   0.437  4.2278  1.7779 -0.3017
   79MOL0     H10656   7.510   1.647   0.404 -0.4306 -1.1455 -0.5376
   79MOL0     H10657   7.374   1.491   0.260  1.5967  0.1165  1.1403
   79MOL0     H10658   7.336   1.652   0.213 -0.6877  1.4653  1.0607
   79MOL0     H10659   7.153   1.480   0.371  1.5604 -0.8567 -0.1862
   79MOL0     H10660   7.148   1.543   0.198 -0.6399  0.1155  0.4575
   79MOL0     H10661   7.126   1.777   0.275  0.8564 -0.9839 -1.3229
   79MOL0     H10662   7.109   1.698   0.440  2.0378 -0.5290 -0.1919
   79MOL0     H10663   6.733   1.618   0.244  0.2372 -3.5492  0.5352
   79MOL0     H10664   7.274   1.534   0.779  0.8104 -0.3435 -1.0916
   79MOL0     H10665   7.362   1.620   0.983 -1.3895 -1.5287 -1.2758
   80MOL0     O10666   1.562   3.082   6.050 -0.5397  1.0521 -0.7184
   80MOL0     C10667   1.618   2.983   6.101 -0.3260  0.1136 -0.8579
   80MOL0     O10668   1.667   2.975   6.222 -0.3494  0.2120 -0.4315
   80MOL0     C10669   1.637   3.064   6.323 -0.6259 -0.3305  0.6564
   80MOL0     C10670   1.651   3.009   6.450  0.4955 -0.8652 -0.2218
   80MOL0     C10671   1.644   3.092   6.562  0.3039  0.4067  0.5553
   80MOL0     C10672   1.639   3.223   6.559 -0.5213 -0.3086  0.4931
   80MOL0     O10673   1.651   3.310   6.667 -0.1280  0.2329  1.0545
   80MOL0     C10674   1.541   3.411   6.695 -0.1308  0.6340 -0.0911
   80MOL0     C10675   1.583   3.556   6.686  0.7282 -0.0373 -0.5851
   80MOL0     C10676   1.665   3.615   6.806  0.0502  0.6256 -0.1773
   80MOL0     C10677   1.710   3.752   6.784  0.3222  0.1360 -0.4264
   80MOL0     C10678   1.792   3.818   6.896 -0.0838  0.0181 -0.1562
   80MOL0     C10679   1.906   3.914   6.865  0.3712 -0.3939  0.8185
   80MOL0     C10680   1.954   3.973   6.993  0.1720  0.5945  0.6092
   80MOL0     C10681   2.047   4.097   6.976  0.1440 -0.3947 -0.0594
   80MOL0     N10682   2.017   4.183   7.090  0.5240  0.2891 -0.3527
   80MOL0     C10683   2.066   4.174   7.218 -0.3556 -0.2684  0.1203
   80MOL0     C10684   2.008   4.279   7.285  0.7402 -0.3275 -0.7271
   80MOL0     C10685   2.021   4.334   7.425 -0.3891 -0.3216  0.0214
   80MOL0     C10686   2.163   4.337   7.472 -0.1927 -0.1097 -0.1199
   80MOL0     C10687   2.191   4.243   7.586 -0.1021 -0.1620 -0.1880
   80MOL0     C10688   2.334   4.263   7.657  0.3447 -0.8984 -0.4243
   80MOL0     O10689   2.431   4.268   7.544  0.2185 -0.1344 -0.5577
   80MOL0     C10690   2.562   4.281   7.565  0.5491 -0.7936 -0.3153
   80MOL0     C10691   2.638   4.319   7.460  0.5724 -0.0219 -0.2193
   80MOL0     C10692   2.773   4.350   7.470 -0.4433  0.0545  0.0298
   80MOL0     C10693   2.842   4.401   7.347  0.1539  0.7754 -0.1426
   80MOL0     C10694   2.829   4.346   7.598 -0.6492  0.2963 -1.5276
   80MOL0     C10695   2.959   4.410   7.641  0.7581  0.6080 -0.1123
   80MOL0     O10696   3.048   4.414   7.542  0.0048  0.2743  0.3348
   80MOL0     C10697   3.170   4.476   7.542 -0.3985 -0.3996 -0.3282
   80MOL0     C10698   3.241   4.459   7.421  0.2393  0.3299  0.6513
   80MOL0     C10699   3.370   4.513   7.407 -0.0519  0.0035 -0.7644
   80MOL0     C10700   3.429   4.583   7.515  0.5927 -0.2500  0.3842
   80MOL0     O10701   3.560   4.631   7.511  1.4450 -0.6350  0.5231
   80MOL0     C10702   3.649   4.569   7.602  0.2456  0.4784 -0.4162
   80MOL0     C10703   3.797   4.594   7.555  0.4023 -0.7694  0.3074
   80MOL0     C10704   3.822   4.555   7.409  0.0528  0.2631 -0.4872
   80MOL0     C10705   3.949   4.469   7.395  0.1602  0.8432 -0.1683
   80MOL0     C10706   4.082   4.559   7.420  0.4108  0.4577  0.0270
   80MOL0     C10707   4.202   4.466   7.427 -0.0221 -1.3481 -0.3791
   80MOL0     C10708   4.324   4.550   7.475  0.7596  1.2915 -0.3760
   80MOL0     C10709   4.453   4.470   7.441  0.0549  0.3111  0.4180
   80MOL0    Cl10710   4.475   4.311   7.541  0.1061 -0.4413  0.2022
   80MOL0     C10711   3.357   4.604   7.625 -0.6207 -0.5863 -0.5529
   80MOL0     C10712   3.232   4.549   7.642  0.5822 -0.4406 -0.0802
   80MOL0     O10713   2.977   4.445   7.759 -0.7852 -0.4258 -0.0242
   80MOL0     C10714   2.753   4.278   7.699 -0.0928 -0.3232  0.2030
   80MOL0     C10715   2.628   4.237   7.680  0.3395  0.1469  0.6122
   80MOL0     N10716   1.932   4.355   7.198 -0.0791  0.6333  0.5212
   80MOL0     N10717   1.944   4.297   7.079 -0.5668  0.7048  0.2594
   80MOL0     C10718   1.609   3.271   6.429 -0.4123 -0.8386  0.1850
   80MOL0     C10719   1.597   3.196   6.310  1.2938  0.3235  1.0331
   80MOL0     C10720   1.647   2.870   6.009  0.4735 -0.4658  0.0400
   80MOL0     C10721   1.715   2.758   6.057 -0.4824  0.5701  0.4886
   80MOL0     C10722   1.745   2.650   5.975 -0.0489  0.2053 -1.2728
   80MOL0     C10723   1.727   2.651   5.834 -0.5955 -0.5476 -0.8476
   80MOL0     O10724   1.756   2.550   5.737  0.5090 -0.3091 -0.6616
   80MOL0     C10725   1.809   2.432   5.792  0.8181 -0.0323  0.3628
   80MOL0     C10726   1.840   2.326   5.678 -0.7053 -0.0834  0.9452
   80MOL0     C10727   1.778   2.192   5.724  0.1352  0.2246  0.1199
   80MOL0     C10728   1.837   2.076   5.636 -0.3095  0.2680  0.7500
   80MOL0     C10729   1.777   1.944   5.664  0.2773  0.2458  0.2707
   80MOL0     C10730   1.731   1.845   5.706 -0.2313 -0.1036 -0.0344
   80MOL0     C10731   1.642   2.755   5.780 -0.6934  0.1367 -0.0710
   80MOL0     C10732   1.624   2.867   5.869  0.2162  0.1871 -0.0338
   80MOL0     H10733   1.665   2.904   6.470 -1.7992 -0.9131  1.6479
   80MOL0     H10734   1.635   3.049   6.662 -3.8346  2.2370  1.1606
   80MOL0     H10735   1.458   3.391   6.627  1.6005 -2.2637 -1.5304
   80MOL0     H10736   1.513   3.395   6.799 -0.4021  3.0720  0.2634
   80MOL0     H10737   1.648   3.566   6.599  1.2516 -0.7579 -0.2886
   80MOL0     H10738   1.488   3.608   6.669  1.0644  1.9980  2.8011
   80MOL0     H10739   1.615   3.605   6.903 -0.9929  0.5974 -0.6958
   80MOL0     H10740   1.753   3.553   6.824  0.6971  0.6608 -2.8991
   80MOL0     H10741   1.781   3.736   6.702  0.2791 -0.1736 -0.4072
   80MOL0     H10742   1.636   3.825   6.751  1.5655  2.0259  0.7758
   80MOL0     H10743   1.711   3.860   6.956 -0.8725 -2.4767  0.6313
   80MOL0     H10744   1.846   3.741   6.952  1.0315  0.5692 -0.4465
   80MOL0     H10745   1.986   3.884   6.796  1.9025 -1.4100  2.9238
   80MOL0     H10746   1.851   3.997   6.819 -3.6486 -2.1256  2.0488
   80MOL0     H10747   1.868   4.005   7.053 -0.2358  2.9634 -1.1214
   80MOL0     H10748   2.010   3.891   7.040  1.4859  0.6762 -0.7666
   80MOL0     H10749   2.033   4.151   6.882 -4.2731  1.9820  1.6715
   80MOL0     H10750   2.148   4.055   6.971 -0.6843 -2.4633 -0.2372
   80MOL0     H10751   2.128   4.096   7.260 -0.4061  0.0475  0.7965
   80MOL0     H10752   2.001   4.439   7.400 -1.2740 -0.7824 -1.3097
   80MOL0     H10753   1.953   4.288   7.497  0.7629 -0.7900  0.8439
   80MOL0     H10754   2.186   4.441   7.498  1.9779  0.1132 -2.4498
   80MOL0     H10755   2.229   4.323   7.386 -0.7605 -0.6697 -0.4745
   80MOL0     H10756   2.191   4.142   7.545  2.0587 -0.8207  1.2435
   80MOL0     H10757   2.118   4.247   7.668  0.9916 -1.7571  0.9269
   80MOL0     H10758   2.357   4.183   7.729  2.1732 -0.0257  0.0412
   80MOL0     H10759   2.335   4.353   7.720 -2.3974 -1.0006 -0.1071
   80MOL0     H10760   2.575   4.340   7.374  0.4280 -2.7436 -0.8845
   80MOL0     H10761   2.770   4.413   7.265 -1.3009  4.8330  1.4740
   80MOL0     H10762   2.882   4.501   7.367  2.6819  0.0438 -1.2614
   80MOL0     H10763   2.928   4.344   7.311 -0.9198 -0.8786 -0.2183
   80MOL0     H10764   3.206   4.394   7.341 -2.7022 -1.3710  3.1272
   80MOL0     H10765   3.436   4.490   7.325  2.5444  1.6936  0.7279
   80MOL0     H10766   3.641   4.608   7.704  2.8102  3.8685 -1.3268
   80MOL0     H10767   3.636   4.460   7.598 -1.1879  0.5293  1.6335
   80MOL0     H10768   3.820   4.701   7.565 -2.2511 -0.0945  0.1840
   80MOL0     H10769   3.860   4.540   7.625  0.0036 -1.9562 -0.2269
   80MOL0     H10770   3.828   4.643   7.344  0.5098  0.6371  0.0445
   80MOL0     H10771   3.741   4.493   7.371 -0.6891  1.7735 -1.4499
   80MOL0     H10772   3.934   4.383   7.460  0.1393  0.1697 -1.0417
   80MOL0     H10773   3.951   4.441   7.289  1.4993  0.5616 -0.0917
   80MOL0     H10774   4.071   4.621   7.510 -2.4254  0.2167 -0.0624
   80MOL0     H10775   4.085   4.636   7.343 -1.7742  1.4991  0.8984
   80MOL0     H10776   4.192   4.398   7.511 -1.6675  2.2095  2.6246
   80MOL0     H10777   4.206   4.420   7.328 -3.3853 -0.9569 -0.8311
   80MOL0     H10778   4.324   4.558   7.584  0.6636  2.2822 -0.4356
   80MOL0     H10779   4.329   4.650   7.431  0.8301  1.2571 -0.4454
   80MOL0     H10780   4.539   4.533   7.462 -0.7889  1.7004 -0.1320
   80MOL0     H10781   4.449   4.458   7.332 -0.4287  0.8381  0.3730
   80MOL0     H10782   3.407   4.666   7.699  1.6951 -1.8316 -0.9836
   80MOL0     H10783   3.186   4.578   7.736  0.6184 -0.3538 -0.0895
   80MOL0     H10784   2.807   4.264   7.792 -0.8741 -2.9751  0.3216
   80MOL0     H10785   2.575   4.177   7.753 -3.5990 -2.9136 -4.0954
   80MOL0     H10786   1.592   3.379   6.434  1.2799 -0.5942  1.6242
   80MOL0     H10787   1.551   3.250   6.228 -2.6786  0.8178  3.2940
   80MOL0     H10788   1.741   2.741   6.161  0.7665 -1.9757 -0.1526
   80MOL0     H10789   1.807   2.579   6.029 -1.7020 -1.0686 -0.9575
   80MOL0     H10790   1.890   2.453   5.862  0.9236 -0.7636  0.4615
   80MOL0     H10791   1.736   2.382   5.857 -0.1334 -2.8952 -2.6299
   80MOL0     H10792   1.946   2.319   5.653 -1.4326  0.1944 -2.7222
   80MOL0     H10793   1.794   2.357   5.584  0.7702 -0.5387  0.0359
   80MOL0     H10794   1.670   2.184   5.705  0.2136 -0.1089 -0.2094
   80MOL0     H10795   1.806   2.183   5.829  0.7418  1.6020  0.0951
   80MOL0     H10796   1.943   2.061   5.660 -0.3582 -1.6975 -0.0542
   80MOL0     H10797   1.833   2.093   5.528  0.9914  1.2552  0.8252
   80MOL0     H10798   1.688   1.760   5.756  1.1709 -1.1009 -0.4326
   80MOL0     H10799   1.614   2.764   5.676  0.1609  0.1214 -0.3107
   80MOL0     H10800   1.583   2.955   5.821 -2.7134 -1.5475 -0.8915
   81MOL0     O10801   3.716   8.074   5.431 -0.1709  1.2491  0.5721
   81MOL0     C10802   3.784   8.046   5.329  0.6639  0.4380 -0.2627
   81MOL0     O10803   3.771   7.940   5.240  0.3995 -0.4371  0.0201
   81MOL0     C10804   3.673   7.849   5.268  0.2745  0.0504  0.0022
   81MOL0     C10805   3.540   7.883   5.247  0.5148  0.4343  0.2203
   81MOL0     C10806   3.443   7.779   5.268  0.3300 -0.2523 -0.7401
   81MOL0     C10807   3.484   7.651   5.302  0.0420  0.8849 -0.2954
   81MOL0     O10808   3.395   7.552   5.326  0.7675  0.3522  0.2495
   81MOL0     C10809   3.287   7.541   5.237 -1.0207  0.4549  0.2234
   81MOL0     C10810   3.221   7.415   5.300  0.8117  0.0641  0.6557
   81MOL0     C10811   3.081   7.407   5.227 -0.1418  0.0272  1.1722
   81MOL0     C10812   3.099   7.334   5.095 -1.0633 -0.3396  0.2281
   81MOL0     C10813   2.978   7.285   5.026 -0.1937 -0.2768  0.0129
   81MOL0     C10814   3.003   7.226   4.881  0.1418  0.3229 -0.0671
   81MOL0     C10815   3.064   7.082   4.877  0.0417 -0.7526 -0.4178
   81MOL0     C10816   2.992   6.971   4.961 -0.9412  0.4002  0.5814
   81MOL0     N10817   2.852   6.960   4.929 -0.5557 -0.9711  0.9240
   81MOL0     C10818   2.762   7.008   5.023 -1.1931 -0.2748  1.6111
   81MOL0     C10819   2.651   6.993   4.951 -0.6171  0.0484 -0.1208
   81MOL0     C10820   2.525   7.015   5.024  0.3446 -0.2828 -0.4436
   81MOL0     C10821   2.411   7.065   4.933 -1.1305  0.1284  0.3904
   81MOL0     C10822   2.353   6.949   4.846  0.4168  0.3862  0.3599
   81MOL0     C10823   2.255   6.862   4.925  0.5861 -0.8029  0.6671
   81MOL0     O10824   2.143   6.944   4.935  0.1931 -0.0452 -0.2058
   81MOL0     C10825   2.033   6.924   4.856 -0.9399 -0.2307  0.4683
   81MOL0     C10826   1.915   6.998   4.872  0.2177  0.0217  0.1968
   81MOL0     C10827   1.795   6.957   4.800 -0.0200 -0.6816 -0.5861
   81MOL0     C10828   1.671   7.012   4.861 -0.5147  0.2895 -0.5388
   81MOL0     C10829   1.799   6.871   4.692 -0.6215  0.5615  0.2047
   81MOL0     C10830   1.682   6.827   4.607 -0.3676  0.9013 -0.1957
   81MOL0     O10831   1.721   6.739   4.505  1.0669 -0.1073 -0.7312
   81MOL0     C10832   1.622   6.681   4.422  0.5505  0.0942  0.2871
   81MOL0     C10833   1.595   6.547   4.420  0.5836  0.1698  0.2941
   81MOL0     C10834   1.480   6.495   4.350 -0.1694 -0.1304 -0.5582
   81MOL0     C10835   1.398   6.585   4.284  0.1090 -0.2124  0.7463
   81MOL0     O10836   1.300   6.526   4.200 -0.3494 -0.2853 -0.7731
   81MOL0     C10837   1.167   6.559   4.241 -1.7393  0.2819  0.8678
   81MOL0     C10838   1.061   6.452   4.194  0.3261 -0.0299 -0.5266
   81MOL0     C10839   0.983   6.509   4.085 -0.5436  0.1157  0.1388
   81MOL0     C10840   1.062   6.495   3.953  0.1088 -0.3644 -0.1941
   81MOL0     C10841   1.014   6.583   3.835  0.6114 -0.5150  0.2233
   81MOL0     C10842   1.097   6.570   3.705  0.1007  0.0637  0.7758
   81MOL0     C10843   1.029   6.641   3.591 -0.5027  0.2403  0.7939
   81MOL0     C10844   1.131   6.653   3.472 -0.0438  0.4122 -0.0438
   81MOL0    Cl10845   1.050   6.725   3.331  0.0603  0.2299  0.0015
   81MOL0     C10846   1.427   6.720   4.278  0.4290  0.0444 -0.9813
   81MOL0     C10847   1.543   6.758   4.348  0.2318  0.0691  0.1378
   81MOL0     O10848   1.564   6.863   4.635 -0.2569 -0.1076  0.1371
   81MOL0     C10849   1.927   6.811   4.665  0.6982 -0.6297  0.0142
   81MOL0     C10850   2.035   6.836   4.747  0.2006 -0.5514  0.0348
   81MOL0     N10851   2.678   6.944   4.826  0.2721  0.0440  0.5759
   81MOL0     N10852   2.799   6.926   4.804 -0.7236 -0.4152 -0.2113
   81MOL0     C10853   3.612   7.628   5.344 -0.9552  0.1307  0.2485
   81MOL0     C10854   3.709   7.729   5.316  0.0762 -0.0007 -0.8988
   81MOL0     C10855   3.899   8.139   5.316 -0.5649 -0.0009 -0.4465
   81MOL0     C10856   3.968   8.142   5.200 -0.1206 -0.2075 -0.1510
   81MOL0     C10857   4.092   8.205   5.194 -0.2002 -0.2829  0.3259
   81MOL0     C10858   4.138   8.290   5.301 -0.4161 -0.8835  0.3451
   81MOL0     O10859   4.259   8.361   5.283  1.0056 -0.2102  0.4354
   81MOL0     C10860   4.342   8.372   5.395 -0.7273  0.4485  0.0213
   81MOL0     C10861   4.488   8.415   5.362 -0.2914  0.0292 -0.1662
   81MOL0     C10862   4.592   8.383   5.484  0.7605 -0.2108  0.1335
   81MOL0     C10863   4.732   8.355   5.436  0.3575 -0.2230 -0.1925
   81MOL0     C10864   4.750   8.236   5.352 -0.6252 -0.5471 -0.1552
   81MOL0     C10865   4.758   8.162   5.259  0.1414  0.1801  0.2233
   81MOL0     C10866   4.055   8.307   5.415  0.3034  0.4622 -0.7775
   81MOL0     C10867   3.936   8.233   5.419  0.2493  0.1338  0.5356
   81MOL0     H10868   3.517   7.987   5.230  0.6737  0.8055  2.0865
   81MOL0     H10869   3.338   7.803   5.273  0.3109 -0.0870 -1.7203
   81MOL0     H10870   3.223   7.630   5.227 -0.7120  0.5448 -1.0935
   81MOL0     H10871   3.326   7.529   5.136 -0.1814 -0.1292  0.6088
   81MOL0     H10872   3.282   7.327   5.279  2.4820  1.2319  0.3224
   81MOL0     H10873   3.197   7.424   5.406 -0.8496  0.6740  0.2523
   81MOL0     H10874   3.001   7.354   5.278 -3.4774  4.2603  0.9267
   81MOL0     H10875   3.033   7.505   5.212 -2.7375 -1.5138 -1.8092
   81MOL0     H10876   3.153   7.404   5.030  0.0791  0.2786  1.7761
   81MOL0     H10877   3.156   7.244   5.118 -2.8800 -0.7512  3.7432
   81MOL0     H10878   2.918   7.216   5.086  0.7765  1.3046  2.9721
   81MOL0     H10879   2.912   7.371   5.015 -0.2947 -0.4347 -0.6905
   81MOL0     H10880   2.911   7.216   4.823  0.8921  0.0372 -1.2397
   81MOL0     H10881   3.076   7.290   4.829  2.1874 -0.7602  1.3388
   81MOL0     H10882   3.078   7.059   4.771 -0.7094  0.8791 -0.9068
   81MOL0     H10883   3.160   7.076   4.930 -0.6965 -1.3052  0.9207
   81MOL0     H10884   2.995   6.991   5.069  0.4686  0.1154  0.6132
   81MOL0     H10885   3.034   6.873   4.937  2.2498  2.0352 -1.1867
   81MOL0     H10886   2.784   7.019   5.129  0.2095 -0.6578  1.3826
   81MOL0     H10887   2.497   6.928   5.084  2.9569 -0.3286  0.8439
   81MOL0     H10888   2.542   7.106   5.083 -2.6259  0.2043 -0.1836
   81MOL0     H10889   2.439   7.147   4.867  0.8708  0.3336  1.4099
   81MOL0     H10890   2.331   7.094   5.001 -0.8971 -1.1256  1.2485
   81MOL0     H10891   2.437   6.883   4.821  1.2121  2.2514 -2.4010
   81MOL0     H10892   2.302   6.995   4.761  0.0546  0.3804  0.5736
   81MOL0     H10893   2.292   6.852   5.028 -1.4238  1.6708  1.7315
   81MOL0     H10894   2.244   6.759   4.890 -0.3022  0.1993 -2.2693
   81MOL0     H10895   1.930   7.067   4.955  1.7652 -0.2429  0.1622
   81MOL0     H10896   1.687   7.055   4.960  0.2505  0.5218 -0.7496
   81MOL0     H10897   1.626   7.083   4.791  1.5901  0.6164 -1.6509
   81MOL0     H10898   1.607   6.924   4.876 -1.5896  1.1055 -0.2381
   81MOL0     H10899   1.672   6.484   4.464  2.0710  2.3855  1.0398
   81MOL0     H10900   1.450   6.391   4.358 -0.5556  0.0260  0.1419
   81MOL0     H10901   1.173   6.563   4.351 -0.6634 -0.4058  0.8514
   81MOL0     H10902   1.136   6.656   4.201  1.9476  1.6726  0.8940
   81MOL0     H10903   1.107   6.357   4.166  1.2344 -0.6340  2.6758
   81MOL0     H10904   0.993   6.437   4.278 -0.7442  1.7471 -1.0084
   81MOL0     H10905   0.963   6.615   4.102  2.8352  0.9007  0.0349
   81MOL0     H10906   0.886   6.458   4.080 -0.4376 -0.2394  1.2674
   81MOL0     H10907   1.164   6.535   3.961  0.0061  0.2563 -1.5829
   81MOL0     H10908   1.060   6.392   3.916 -1.5252  0.0517 -1.4039
   81MOL0     H10909   1.019   6.689   3.862 -0.3833 -0.5802  0.6794
   81MOL0     H10910   0.909   6.564   3.812 -0.0037  1.5966  1.0010
   81MOL0     H10911   1.200   6.608   3.709 -0.8267  2.9565 -0.5096
   81MOL0     H10912   1.122   6.469   3.670  0.6810  0.7696 -0.9417
   81MOL0     H10913   1.000   6.743   3.620  2.1572  2.0421 -2.2262
   81MOL0     H10914   0.945   6.581   3.555  1.1690 -0.5972 -1.9468
   81MOL0     H10915   1.191   6.563   3.452  1.6224  1.1126  1.4800
   81MOL0     H10916   1.209   6.723   3.504  0.0609  0.2229  0.1171
   81MOL0     H10917   1.354   6.786   4.232 -1.0115 -0.9999 -0.2971
   81MOL0     H10918   1.564   6.864   4.353  1.9263 -0.1329 -1.6196
   81MOL0     H10919   1.937   6.750   4.575 -0.7347 -1.9068  0.6763
   81MOL0     H10920   2.124   6.782   4.715  0.5991  0.8847 -1.4232
   81MOL0     H10921   3.633   7.527   5.376 -0.2025 -0.3544 -1.6157
   81MOL0     H10922   3.814   7.703   5.332  0.5320  0.3245 -3.1080
   81MOL0     H10923   3.925   8.108   5.106 -1.1438  0.2715  0.1217
   81MOL0     H10924   4.151   8.209   5.103 -1.2177 -0.3069 -0.3447
   81MOL0     H10925   4.295   8.451   5.456  2.2573  2.7411 -0.4052
   81MOL0     H10926   4.344   8.280   5.453 -2.1237 -0.4833 -1.3320
   81MOL0     H10927   4.479   8.523   5.343 -1.4999 -0.1742 -0.8335
   81MOL0     H10928   4.523   8.369   5.270  0.7499 -1.6522  1.0178
   81MOL0     H10929   4.551   8.290   5.525  0.6205 -1.0324 -1.7501
   81MOL0     H10930   4.599   8.452   5.568 -1.3116  0.0170  0.1675
   81MOL0     H10931   4.806   8.353   5.516 -1.4422 -0.0029  1.5674
   81MOL0     H10932   4.764   8.422   5.356  3.1901 -1.5350 -0.2810
   81MOL0     H10933   4.759   8.106   5.168  0.5754 -1.3031  1.1052
   81MOL0     H10934   4.088   8.371   5.497 -0.0640 -1.3891  0.8883
   81MOL0     H10935   3.879   8.246   5.510  2.1701  4.3244  1.3789
   82MOL0     O10936   5.361   1.454  10.511  0.0699 -0.7576  0.2852
   82MOL0     C10937   5.317   1.494  10.404 -0.0177 -0.2567  0.2819
   82MOL0     O10938   5.389   1.521  10.297  0.1112 -0.2154 -0.2531
   82MOL0     C10939   5.523   1.542  10.306 -0.3122  0.4363 -0.6478
   82MOL0     C10940   5.591   1.602  10.412  0.0833  1.0812 -0.6039
   82MOL0     C10941   5.724   1.635  10.393 -0.3172  0.7690 -0.0270
   82MOL0     C10942   5.796   1.581  10.285 -0.2512  0.0990  0.5508
   82MOL0     O10943   5.926   1.595  10.286 -0.3027 -0.4899 -0.7527
   82MOL0     C10944   5.987   1.719  10.253 -0.3570 -0.1482 -0.0328
   82MOL0     C10945   6.131   1.699  10.317 -0.9440  0.4485  0.1324
   82MOL0     C10946   6.222   1.812  10.280 -0.1654  0.2807 -0.0082
   82MOL0     C10947   6.377   1.814  10.320 -0.4955  0.0360  0.2486
   82MOL0     C10948   6.399   1.826  10.466  0.2337  1.0162 -0.8570
   82MOL0     C10949   6.552   1.817  10.503 -0.4821  0.8227  0.0414
   82MOL0     C10950   6.570   1.666  10.549  0.1307  0.0926  0.3475
   82MOL0     C10951   6.711   1.614  10.559 -0.0442 -0.6654 -1.0673
   82MOL0     N10952   6.793   1.684  10.657 -0.1786 -0.1923 -0.7776
   82MOL0     C10953   6.837   1.815  10.633  0.5479 -0.0180  0.7587
   82MOL0     C10954   6.919   1.850  10.730  0.0441 -0.6982 -0.4089
   82MOL0     C10955   6.998   1.983  10.741  1.1263  0.0437  0.5329
   82MOL0     C10956   6.915   2.086  10.819 -0.4690  0.3277 -0.1491
   82MOL0     C10957   6.994   2.214  10.809  0.8571 -0.3447  0.1946
   82MOL0     C10958   6.969   2.321  10.919 -0.1607 -0.0427  0.1747
   82MOL0     O10959   7.072   2.422  10.902 -0.0051 -0.6286  0.2632
   82MOL0     C10960   7.175   2.414  10.999  0.9053 -0.4697  0.1477
   82MOL0     C10961   7.206   2.311  11.090  0.7419 -0.8155 -0.2744
   82MOL0     C10962   7.321   2.300  11.170  0.3661  0.0723  0.5525
   82MOL0     C10963   7.324   2.182  11.261  0.0633 -0.1121 -0.3108
   82MOL0     C10964   7.415   2.401  11.158 -0.4590  0.2570  0.3477
   82MOL0     C10965   7.555   2.385  11.212  0.1442 -0.8741  0.1604
   82MOL0     O10966   7.595   2.265  11.257 -0.1041  1.0213 -0.4414
   82MOL0     C10967   7.727   2.248  11.289 -0.4245 -0.3771  0.1697
   82MOL0     C10968   7.827   2.213  11.198 -0.6601 -0.8532  0.2293
   82MOL0     C10969   7.966   2.203  11.234 -0.2546 -0.4878 -0.9710
   82MOL0     C10970   8.002   2.224  11.364 -0.7301  0.4811 -0.2397
   82MOL0     O10971   8.132   2.204  11.409 -0.3219 -0.1573  0.0522
   82MOL0     C10972   8.247   2.180  11.325  0.4087  0.3708 -0.3737
   82MOL0     C10973   8.371   2.166  11.411 -0.3840  0.1771  0.1345
   82MOL0     C10974   8.432   2.302  11.460  0.5789 -0.6731 -0.9574
   82MOL0     C10975   8.485   2.281  11.604  0.7585 -0.7957  0.3290
   82MOL0     C10976   8.573   2.392  11.652 -0.1675 -0.2137  0.3007
   82MOL0     C10977   8.649   2.373  11.786  0.6065  0.1682  0.0074
   82MOL0     C10978   8.741   2.248  11.794  0.1273  0.9322 -0.0363
   82MOL0     C10979   8.859   2.286  11.707  0.6623  0.4019 -0.7938
   82MOL0    Cl10980   8.974   2.157  11.701 -0.0686  0.4561  0.1001
   82MOL0     C10981   7.900   2.239  11.461 -0.5127  0.2382 -0.2317
   82MOL0     C10982   7.765   2.260  11.425  0.3470  0.2645 -0.3295
   82MOL0     O10983   7.622   2.483  11.227 -0.4489 -0.3597 -0.1297
   82MOL0     C10984   7.394   2.508  11.066  0.6112 -0.0889  0.2506
   82MOL0     C10985   7.276   2.514  10.994  0.9245 -0.5621 -0.3091
   82MOL0     N10986   6.928   1.746  10.810 -0.3638 -0.2077 -0.0321
   82MOL0     N10987   6.852   1.649  10.775  0.5368 -0.3906 -0.3911
   82MOL0     C10988   5.735   1.518  10.184  0.2115 -0.7162  0.2095
   82MOL0     C10989   5.598   1.506  10.191  0.3345  0.3333 -0.1657
   82MOL0     C10990   5.177   1.497  10.395  0.1460  0.0713 -0.3112
   82MOL0     C10991   5.113   1.549  10.281  0.0642 -0.1494  0.5365
   82MOL0     C10992   4.977   1.547  10.270  1.0969  0.2445 -0.0376
   82MOL0     C10993   4.895   1.510  10.370  0.5229  0.6096 -0.7520
   82MOL0     O10994   4.752   1.514  10.365 -0.0291 -1.0897 -0.1726
   82MOL0     C10995   4.677   1.565  10.476 -0.5025  0.7418 -0.2459
   82MOL0     C10996   4.541   1.495  10.492  0.0637 -0.6189 -0.1602
   82MOL0     C10997   4.451   1.559  10.384 -0.2445 -0.3255 -0.6608
   82MOL0     C10998   4.316   1.484  10.385 -0.3648  0.5190  0.0519
   82MOL0     C10999   4.238   1.503  10.511 -1.0309 -0.4849 -0.4180
   82MOL0     C11000   4.189   1.537  10.621 -0.6738 -0.3300 -0.9325
   82MOL0     C11001   4.953   1.464  10.487 -0.0672 -0.5959  0.4896
   82MOL0     C11002   5.096   1.459  10.505  0.6887  0.4705  0.1844
   82MOL0     H11003   5.528   1.645  10.488  1.0764 -1.2266  1.6626
   82MOL0     H11004   5.777   1.693  10.468  0.8866 -0.4203  0.0690
   82MOL0     H11005   5.981   1.722  10.144 -2.8494 -2.4821 -0.0679
   82MOL0     H11006   5.927   1.798  10.299 -4.7369 -2.8068 -0.5835
   82MOL0     H11007   6.129   1.696  10.426 -2.0711 -2.4726  0.1228
   82MOL0     H11008   6.185   1.606  10.296 -0.3572  0.5281  1.2111
   82MOL0     H11009   6.224   1.808  10.171  0.3020 -2.4112  0.0446
   82MOL0     H11010   6.187   1.912  10.307  1.5778  1.6604 -2.4588
   82MOL0     H11011   6.434   1.727  10.285  0.5584  1.0737 -0.7004
   82MOL0     H11012   6.425   1.902  10.276  0.5538 -0.8164 -0.3623
   82MOL0     H11013   6.363   1.926  10.494  0.9374  0.8403  0.7764
   82MOL0     H11014   6.341   1.762  10.534  0.2551  3.3734  1.5769
   82MOL0     H11015   6.616   1.843  10.419  1.3209 -3.3013 -0.0922
   82MOL0     H11016   6.571   1.884  10.588 -1.2607  2.6625 -1.1702
   82MOL0     H11017   6.524   1.656  10.648 -0.8012  2.5143  0.2256
   82MOL0     H11018   6.518   1.616  10.467 -1.2852  3.5470 -1.0791
   82MOL0     H11019   6.751   1.610  10.457 -1.0967  0.0429 -1.5251
   82MOL0     H11020   6.713   1.509  10.591 -0.0554 -1.2109 -2.7472
   82MOL0     H11021   6.814   1.879  10.548  1.1283 -1.2682 -0.3770
   82MOL0     H11022   7.087   1.955  10.798 -0.0995 -1.8552  1.6696
   82MOL0     H11023   7.009   2.016  10.638 -1.6441 -0.3840  0.0108
   82MOL0     H11024   6.909   2.043  10.919  0.7561 -4.5332 -1.8774
   82MOL0     H11025   6.809   2.093  10.792 -1.1661  0.0668  2.2836
   82MOL0     H11026   6.959   2.267  10.720 -0.6249  0.4701  1.2263
   82MOL0     H11027   7.102   2.201  10.797  0.7403 -0.7298 -0.4682
   82MOL0     H11028   6.961   2.273  11.017 -1.5139 -1.1360 -0.4335
   82MOL0     H11029   6.870   2.368  10.911 -0.0291  0.3988  1.0415
   82MOL0     H11030   7.135   2.230  11.103 -3.8671  2.6260 -1.2164
   82MOL0     H11031   7.376   2.209  11.353  3.9158 -0.6101 -2.0877
   82MOL0     H11032   7.225   2.139  11.277 -0.7986  1.5226 -1.0463
   82MOL0     H11033   7.389   2.113  11.205  0.7085  0.0817  0.1804
   82MOL0     H11034   7.789   2.190  11.099 -0.6255 -1.2710  0.3097
   82MOL0     H11035   8.045   2.203  11.159 -1.3543 -1.8791 -2.2081
   82MOL0     H11036   8.233   2.083  11.276  0.9842 -0.3017  0.7711
   82MOL0     H11037   8.250   2.264  11.254  2.6218  2.7050  2.2480
   82MOL0     H11038   8.349   2.099  11.495 -1.2977  1.5125  0.9988
   82MOL0     H11039   8.445   2.103  11.360  0.8327  2.4050 -0.9834
   82MOL0     H11040   8.356   2.380  11.462  1.8078  0.6065 -2.0334
   82MOL0     H11041   8.518   2.326  11.398 -1.0148  2.7812 -2.0468
   82MOL0     H11042   8.400   2.268  11.672 -1.5074 -1.7854 -2.4696
   82MOL0     H11043   8.559   2.201  11.609  4.1943  2.1674  0.9916
   82MOL0     H11044   8.503   2.476  11.652 -0.5723 -0.4950 -1.7692
   82MOL0     H11045   8.634   2.428  11.569 -4.3185  0.3244 -2.8201
   82MOL0     H11046   8.693   2.467  11.819  2.0154 -0.1033 -1.0333
   82MOL0     H11047   8.566   2.364  11.857  0.5085  1.5335  0.0770
   82MOL0     H11048   8.708   2.151  11.753  2.4054  0.4906 -1.0083
   82MOL0     H11049   8.773   2.243  11.898  0.5226 -1.9740 -0.1953
   82MOL0     H11050   8.920   2.369  11.744  2.8630 -0.4197 -2.3363
   82MOL0     H11051   8.818   2.317  11.610 -0.1715  1.3503 -0.1613
   82MOL0     H11052   7.936   2.245  11.564 -2.0163 -1.2299  0.4256
   82MOL0     H11053   7.697   2.285  11.506  0.6624 -1.6048  0.5529
   82MOL0     H11054   7.468   2.586  11.055  1.0141 -0.7196 -1.8692
   82MOL0     H11055   7.252   2.589  10.919 -1.1370 -1.4096 -0.5822
   82MOL0     H11056   5.803   1.475  10.111  0.8890  0.3758  0.1704
   82MOL0     H11057   5.548   1.458  10.108 -2.9407  1.2250  1.1406
   82MOL0     H11058   5.166   1.588  10.195 -1.0869  0.9022  0.2662
   82MOL0     H11059   4.926   1.571  10.177 -1.7191 -3.6641  0.2508
   82MOL0     H11060   4.724   1.530  10.568 -2.1175 -2.9287 -0.6271
   82MOL0     H11061   4.665   1.674  10.471 -2.4256  0.5937  0.3470
   82MOL0     H11062   4.499   1.520  10.589 -0.3454  0.1395 -0.5182
   82MOL0     H11063   4.550   1.386  10.490  0.5146 -0.5840 -0.1569
   82MOL0     H11064   4.502   1.563  10.287  1.7913 -0.8873  0.3493
   82MOL0     H11065   4.430   1.661  10.418 -0.2740 -0.9508  1.2999
   82MOL0     H11066   4.321   1.381  10.349 -2.9819  0.7479 -1.2263
   82MOL0     H11067   4.257   1.521  10.301 -3.5814 -2.3954  0.7943
   82MOL0     H11068   4.161   1.564  10.721  1.7629  1.3602 -0.6328
   82MOL0     H11069   4.892   1.416  10.562  1.6974 -0.9898  1.7423
   82MOL0     H11070   5.148   1.412  10.587  1.6195  1.9048  0.4599
   83MOL0     O11071   9.236   1.478   2.627  0.5102 -1.3384  0.0327
   83MOL0     C11072   9.141   1.538   2.683  0.2130  0.3045 -0.1937
   83MOL0     O11073   9.015   1.538   2.635  0.6361  0.8449  0.2825
   83MOL0     C11074   8.968   1.478   2.516  0.2108  0.4400 -0.3863
   83MOL0     C11075   8.866   1.549   2.450 -0.7574  0.3384 -0.3462
   83MOL0     C11076   8.797   1.498   2.339 -0.1218  0.0696  0.3948
   83MOL0     C11077   8.823   1.368   2.300  0.7061  0.0230 -2.0214
   83MOL0     O11078   8.732   1.323   2.202 -0.2043  0.7457  0.3579
   83MOL0     C11079   8.695   1.181   2.203  0.9098  0.3331 -0.3950
   83MOL0     C11080   8.552   1.167   2.155  0.4619 -0.7270  0.1072
   83MOL0     C11081   8.446   1.257   2.219 -0.6732  0.1113 -0.3075
   83MOL0     C11082   8.303   1.186   2.202 -0.6482 -0.0131  0.0153
   83MOL0     C11083   8.198   1.233   2.304 -0.3259 -0.5015 -0.5164
   83MOL0     C11084   8.063   1.159   2.282 -0.3797  0.9786  0.2630
   83MOL0     C11085   7.976   1.148   2.406  0.0862 -0.8560  0.1747
   83MOL0     C11086   7.869   1.047   2.414  1.0366 -0.4750  1.0747
   83MOL0     N11087   7.834   1.014   2.277  0.0103 -0.3938 -0.6972
   83MOL0     C11088   7.736   1.068   2.201 -0.0377 -0.6472  0.2550
   83MOL0     C11089   7.722   0.989   2.096 -0.5738  0.1862  0.3004
   83MOL0     C11090   7.617   1.000   1.989  0.0821  0.4595  0.9838
   83MOL0     C11091   7.484   0.961   2.034  0.7151  0.0452 -0.7567
   83MOL0     C11092   7.364   0.975   1.938 -0.9855 -0.0004  0.1140
   83MOL0     C11093   7.235   0.930   1.998  0.6259  1.4029 -0.2652
   83MOL0     O11094   7.138   0.926   1.895 -0.2787 -0.3653 -0.5254
   83MOL0     C11095   7.004   0.921   1.941  1.0187 -0.4178  0.4145
   83MOL0     C11096   6.953   0.885   2.075 -1.0618 -0.6478  0.2888
   83MOL0     C11097   6.820   0.888   2.107 -0.0318  0.0986 -0.0509
   83MOL0     C11098   6.778   0.854   2.253 -0.2306  0.1832  0.8834
   83MOL0     C11099   6.724   0.919   2.002 -0.3439  0.5817 -0.6821
   83MOL0     C11100   6.579   0.914   2.025 -0.8645  0.5304  0.6162
   83MOL0     O11101   6.515   0.848   1.925 -0.4834  0.2235 -0.0218
   83MOL0     C11102   6.390   0.815   1.956  0.0475  0.3547  0.1049
   83MOL0     C11103   6.284   0.907   1.988 -0.2487  1.0253 -0.0838
   83MOL0     C11104   6.157   0.859   2.007 -0.5907  0.8471  0.2652
   83MOL0     C11105   6.128   0.725   2.003 -0.0462  0.2379  0.5913
   83MOL0     O11106   6.001   0.687   2.029 -0.3114 -0.2703 -0.4526
   83MOL0     C11107   5.924   0.653   1.907  0.0595 -0.0016 -0.7341
   83MOL0     C11108   5.779   0.606   1.951  0.8146  0.9360 -0.4064
   83MOL0     C11109   5.784   0.452   1.981  0.4302  0.1993  0.1135
   83MOL0     C11110   5.655   0.391   2.051 -0.9103  0.0109  0.0211
   83MOL0     C11111   5.669   0.252   2.105  0.3999  0.4845 -0.0324
   83MOL0     C11112   5.754   0.247   2.240  1.2000  0.6485 -0.0672
   83MOL0     C11113   5.759   0.103   2.294  0.0417  0.4552 -0.5771
   83MOL0     C11114   5.882   0.096   2.388  0.2534 -0.2258  0.3899
   83MOL0    Cl11115   6.037   0.116   2.308  0.2390  0.0262 -0.2016
   83MOL0     C11116   6.230   0.631   1.966 -0.2852  0.2261 -0.3838
   83MOL0     C11117   6.356   0.678   1.945  0.1744  0.1612  0.3249
   83MOL0     O11118   6.530   0.956   2.125  0.4330  0.1102 -0.5246
   83MOL0     C11119   6.773   0.939   1.872 -0.3703 -0.4715 -0.4938
   83MOL0     C11120   6.909   0.949   1.840 -0.4199  0.6258 -0.4252
   83MOL0     N11121   7.823   0.894   2.103 -0.1420  0.6591 -0.0093
   83MOL0     N11122   7.888   0.912   2.208  0.7730 -0.2213 -0.7030
   83MOL0     C11123   8.924   1.289   2.371  0.7999 -0.3149  0.1338
   83MOL0     C11124   8.994   1.353   2.475  0.0691  1.2346 -0.4950
   83MOL0     C11125   9.167   1.613   2.808  0.1467  0.0924 -0.5049
   83MOL0     C11126   9.064   1.625   2.913 -0.7997  0.6882 -0.5860
   83MOL0     C11127   9.092   1.712   3.018 -0.0807  0.7486  0.3661
   83MOL0     C11128   9.214   1.779   3.032  0.8252  0.4957 -0.0494
   83MOL0     O11129   9.228   1.872   3.136 -0.7721 -0.2272 -0.0941
   83MOL0     C11130   9.122   1.899   3.222 -0.0274 -0.3180  0.1219
   83MOL0     C11131   9.165   2.032   3.290 -0.7557 -0.0335  0.0616
   83MOL0     C11132   9.211   2.024   3.435  0.4094 -0.5301 -1.1523
   83MOL0     C11133   9.226   2.170   3.503 -0.4017  1.2634  0.5279
   83MOL0     C11134   9.250   2.150   3.641 -1.1509  0.2933  0.3502
   83MOL0     C11135   9.294   2.127   3.756  0.4533 -0.3253  0.6322
   83MOL0     C11136   9.313   1.747   2.943  0.1916  0.2931  0.3480
   83MOL0     C11137   9.295   1.673   2.830  0.0130  0.2099  0.8862
   83MOL0     H11138   8.838   1.646   2.489 -0.3592  0.9478 -1.5568
   83MOL0     H11139   8.722   1.553   2.283 -3.9405 -1.4864  3.4943
   83MOL0     H11140   8.760   1.136   2.128 -0.0184  1.6751 -2.0688
   83MOL0     H11141   8.700   1.129   2.299  0.4768  0.7587 -0.1310
   83MOL0     H11142   8.548   1.195   2.050 -1.8152  1.0970  0.5933
   83MOL0     H11143   8.527   1.061   2.155  1.2344 -0.9145 -0.0009
   83MOL0     H11144   8.475   1.267   2.324  0.4670  0.8782 -0.6737
   83MOL0     H11145   8.438   1.363   2.194  1.5944  0.5603  0.6384
   83MOL0     H11146   8.266   1.201   2.100 -2.8909 -1.1207  0.6261
   83MOL0     H11147   8.310   1.078   2.217 -1.3914  0.1067  1.3671
   83MOL0     H11148   8.226   1.222   2.409  1.2472  0.5560 -0.7814
   83MOL0     H11149   8.175   1.340   2.293 -0.7887 -0.7322 -2.0948
   83MOL0     H11150   8.012   1.219   2.206 -2.6276  1.3051  1.9312
   83MOL0     H11151   8.089   1.059   2.246 -3.1499 -0.3603  1.7346
   83MOL0     H11152   8.035   1.141   2.498 -1.9127  0.6411  1.6523
   83MOL0     H11153   7.924   1.243   2.421  1.1138 -0.0173 -1.3113
   83MOL0     H11154   7.782   1.086   2.468  1.3209  1.8476 -0.0369
   83MOL0     H11155   7.923   0.962   2.457  0.8740 -1.4771 -0.6443
   83MOL0     H11156   7.678   1.153   2.236 -0.1075 -0.2256 -0.8563
   83MOL0     H11157   7.613   1.095   1.933  0.4337 -0.6146 -0.9720
   83MOL0     H11158   7.646   0.935   1.906  0.9358  1.9639  0.0413
   83MOL0     H11159   7.459   1.017   2.124 -0.1378 -0.9570 -0.3434
   83MOL0     H11160   7.489   0.858   2.073 -2.9394  1.2433  3.8167
   83MOL0     H11161   7.385   0.926   1.842  6.1553 -0.6023  1.4412
   83MOL0     H11162   7.370   1.079   1.905  0.0788  0.0005  0.2737
   83MOL0     H11163   7.200   1.005   2.069 -1.9801 -1.9535  2.3747
   83MOL0     H11164   7.234   0.836   2.054 -1.1769  0.8979 -1.0688
   83MOL0     H11165   7.025   0.865   2.154  0.7911  0.3924 -1.0510
   83MOL0     H11166   6.753   0.945   2.308  1.3102  1.3870 -0.3214
   83MOL0     H11167   6.694   0.784   2.245  0.9919 -1.1462 -1.6962
   83MOL0     H11168   6.861   0.806   2.305  0.7029  1.2076  0.3790
   83MOL0     H11169   6.278   1.016   1.987 -1.6367  0.9671 -0.8313
   83MOL0     H11170   6.077   0.931   2.019 -1.3588 -0.2795  2.6550
   83MOL0     H11171   5.909   0.736   1.837  0.7081 -0.8780 -1.9553
   83MOL0     H11172   5.985   0.588   1.843  1.4007  3.2193 -3.0305
   83MOL0     H11173   5.734   0.662   2.033 -0.1649  0.1720 -0.4079
   83MOL0     H11174   5.708   0.605   1.868 -0.0929 -3.9120  0.1532
   83MOL0     H11175   5.867   0.431   2.048  0.0986  2.0878  1.1920
   83MOL0     H11176   5.796   0.398   1.886 -2.2213 -0.5533  0.1450
   83MOL0     H11177   5.619   0.456   2.131  2.4915  0.0035  1.7265
   83MOL0     H11178   5.575   0.394   1.976 -0.5538  0.5173 -0.3448
   83MOL0     H11179   5.715   0.199   2.021 -0.8781 -0.4208 -0.1799
   83MOL0     H11180   5.570   0.211   2.125  1.8582 -2.7736  1.1369
   83MOL0     H11181   5.857   0.283   2.245  1.3691  0.0829  0.6516
   83MOL0     H11182   5.706   0.305   2.319 -0.4333 -0.3760 -0.2597
   83MOL0     H11183   5.774   0.038   2.208 -1.2732  2.4593 -2.4243
   83MOL0     H11184   5.672   0.071   2.353  1.6937  0.8007  2.2319
   83MOL0     H11185   5.885  -0.004   2.431  0.5721 -0.3580  0.0644
   83MOL0     H11186   5.871   0.166   2.472 -0.5679 -0.6336  0.6278
   83MOL0     H11187   6.207   0.526   1.959 -1.0019  0.3779 -0.3223
   83MOL0     H11188   6.438   0.610   1.922  0.2761 -0.7914  3.1521
   83MOL0     H11189   6.697   0.958   1.796 -1.7742 -0.7815  0.7939
   83MOL0     H11190   6.934   0.994   1.745 -2.4580  2.8035 -0.0423
   83MOL0     H11191   8.946   1.185   2.352  3.7907  0.1339  0.5448
   83MOL0     H11192   9.062   1.294   2.534 -1.2762 -1.0598 -1.1096
   83MOL0     H11193   8.972   1.568   2.905 -0.2316 -0.1925 -1.0351
   83MOL0     H11194   9.011   1.724   3.090 -0.3737  1.6998 -0.1157
   83MOL0     H11195   9.037   1.926   3.158  0.1397 -0.0441  0.0169
   83MOL0     H11196   9.092   1.822   3.294 -3.6184 -0.9119 -1.7475
   83MOL0     H11197   9.072   2.088   3.293 -1.5596 -1.1457 -1.8789
   83MOL0     H11198   9.238   2.089   3.233 -1.4996  0.3001 -0.5678
   83MOL0     H11199   9.306   1.972   3.455  1.2098  1.8082  1.9172
   83MOL0     H11200   9.137   1.974   3.497 -1.1300  3.3227  0.4211
   83MOL0     H11201   9.134   2.228   3.491  1.2663  3.9226 -0.1901
   83MOL0     H11202   9.304   2.233   3.460  0.4648  2.0345  3.0491
   83MOL0     H11203   9.354   2.106   3.842  2.1375  1.0161 -0.1490
   83MOL0     H11204   9.416   1.773   2.966  0.3514 -1.7867  2.2541
   83MOL0     H11205   9.374   1.665   2.756 -0.7656 -2.9293  0.2218
   84MOL0     O11206   5.995   4.627  10.058 -0.7685  0.0178  0.4262
   84MOL0     C11207   6.042   4.691   9.964 -0.5842  0.4783 -0.8885
   84MOL0     O11208   6.050   4.647   9.838 -1.0956 -0.0924  0.9121
   84MOL0     C11209   6.007   4.519   9.804 -0.0091 -0.1208  0.6735
   84MOL0     C11210   6.081   4.463   9.706 -0.1673  0.2627  0.7409
   84MOL0     C11211   6.067   4.329   9.663 -0.6379 -0.0287 -1.1297
   84MOL0     C11212   5.963   4.254   9.706  0.2608 -0.1407 -0.3229
   84MOL0     O11213   5.940   4.124   9.660 -0.5563  0.1529 -0.1531
   84MOL0     C11214   6.011   4.079   9.551  0.0742 -1.1829 -0.6699
   84MOL0     C11215   5.961   3.938   9.516 -0.4693 -0.5438 -0.1444
   84MOL0     C11216   6.034   3.874   9.402 -0.7811 -0.2956 -0.0658
   84MOL0     C11217   5.941   3.812   9.287 -0.4040  0.3520  0.1726
   84MOL0     C11218   6.013   3.721   9.180  0.1475 -1.2032 -0.5033
   84MOL0     C11219   5.917   3.660   9.074 -0.8170 -0.8186 -0.6596
   84MOL0     C11220   5.825   3.559   9.137 -0.4173  0.7055  0.6136
   84MOL0     C11221   5.808   3.431   9.054 -0.1553 -1.1724 -0.1748
   84MOL0     N11222   5.752   3.457   8.922  0.6985 -0.2554  1.1051
   84MOL0     C11223   5.620   3.490   8.917  0.3767 -0.2096  0.2045
   84MOL0     C11224   5.594   3.489   8.782 -1.2314  0.8246  0.3178
   84MOL0     C11225   5.451   3.501   8.719 -0.4900 -0.1230 -0.5056
   84MOL0     C11226   5.349   3.404   8.770 -1.0783 -0.2710  0.5925
   84MOL0     C11227   5.228   3.394   8.669 -0.0334  0.5729  0.6782
   84MOL0     C11228   5.135   3.281   8.714 -0.1430  0.4541 -1.4768
   84MOL0     O11229   5.018   3.265   8.629  0.1248  0.7579  0.3137
   84MOL0     C11230   4.895   3.311   8.665  0.2834 -0.0122 -0.8947
   84MOL0     C11231   4.878   3.430   8.726  0.1425  0.2103  0.9393
   84MOL0     C11232   4.755   3.493   8.737  1.1461 -0.0554 -0.4350
   84MOL0     C11233   4.753   3.644   8.781 -0.2736  0.7254  0.3494
   84MOL0     C11234   4.637   3.417   8.693  0.0604 -0.1824  0.2499
   84MOL0     C11235   4.488   3.458   8.721 -0.6188 -0.1648  0.6399
   84MOL0     O11236   4.397   3.365   8.689 -0.0576 -0.2224 -0.7116
   84MOL0     C11237   4.269   3.382   8.693  0.4073 -1.1161  0.3380
   84MOL0     C11238   4.192   3.277   8.723  0.0593  0.5287 -0.4944
   84MOL0     C11239   4.049   3.283   8.721 -0.6015  0.2454 -0.7522
   84MOL0     C11240   3.987   3.395   8.687  0.1614  0.9033  0.1299
   84MOL0     O11241   3.855   3.382   8.685 -0.1057  0.4445 -0.1903
   84MOL0     C11242   3.794   3.455   8.574  0.9755 -0.0444  0.1896
   84MOL0     C11243   3.642   3.440   8.570 -0.1256 -0.2322  0.1223
   84MOL0     C11244   3.557   3.562   8.620  0.5874 -0.3691  0.5294
   84MOL0     C11245   3.417   3.508   8.642  0.0548 -0.0283 -0.0953
   84MOL0     C11246   3.314   3.621   8.653 -0.5276 -1.3021  0.3506
   84MOL0     C11247   3.178   3.578   8.712  0.3366  1.0667 -0.3628
   84MOL0     C11248   3.097   3.696   8.752  0.4652  0.6093  0.5112
   84MOL0     C11249   2.947   3.666   8.754 -0.7714  1.1353 -1.2632
   84MOL0    Cl11250   2.873   3.818   8.817  0.5620 -0.5422 -0.5277
   84MOL0     C11251   4.060   3.505   8.663  1.5107 -0.6667 -0.5661
   84MOL0     C11252   4.198   3.499   8.663  0.6688 -0.1147  0.5248
   84MOL0     O11253   4.464   3.569   8.763  0.9205 -0.4266 -0.0732
   84MOL0     C11254   4.662   3.302   8.624  0.4280 -0.1135 -1.0638
   84MOL0     C11255   4.787   3.248   8.611  1.2482  0.5958  0.3951
   84MOL0     N11256   5.711   3.461   8.710 -0.2089  0.6839  0.8407
   84MOL0     N11257   5.809   3.446   8.792 -0.7658  0.0419  0.5229
   84MOL0     C11258   5.867   4.312   9.789  0.3789 -0.7468  0.8042
   84MOL0     C11259   5.895   4.442   9.843  0.8605  0.7692  0.2474
   84MOL0     C11260   6.092   4.827   9.992 -0.3522 -0.0023  0.0824
   84MOL0     C11261   6.096   4.878  10.123  0.0964 -0.1689  0.8163
   84MOL0     C11262   6.152   5.008  10.157  0.9823  0.8022  0.9295
   84MOL0     C11263   6.224   5.075  10.048  0.1735  0.2938 -0.5924
   84MOL0     O11264   6.324   5.169  10.064  0.1253  0.3204 -0.4983
   84MOL0     C11265   6.276   5.301  10.035 -0.1215 -0.3329 -0.0059
   84MOL0     C11266   6.413   5.375  10.034 -0.7434  0.0865  0.5314
   84MOL0     C11267   6.427   5.471  10.145  0.1129  0.1046  0.4946
   84MOL0     C11268   6.318   5.582  10.163 -0.5895  0.0321 -0.0265
   84MOL0     C11269   6.273   5.629  10.034  0.1158 -0.0705 -0.5412
   84MOL0     C11270   6.231   5.682   9.935 -0.2793  0.1425 -0.0204
   84MOL0     C11271   6.207   5.034   9.913  0.4162 -0.1857  0.0464
   84MOL0     C11272   6.130   4.917   9.889  0.1610 -0.2794  0.3408
   84MOL0     H11273   6.157   4.519   9.652  0.0301 -1.0068 -0.3531
   84MOL0     H11274   6.145   4.292   9.598 -1.9794 -0.4783 -2.5529
   84MOL0     H11275   6.008   4.138   9.459 -0.6919  0.9383  0.6302
   84MOL0     H11276   6.116   4.069   9.579  0.2176  0.6441 -0.4519
   84MOL0     H11277   5.963   3.867   9.599  0.4425 -1.0113 -0.5451
   84MOL0     H11278   5.858   3.944   9.483 -0.1382  1.8446 -0.9019
   84MOL0     H11279   6.097   3.941   9.343  3.2589 -3.1911  0.5254
   84MOL0     H11280   6.102   3.800   9.445  0.2532  0.3954 -0.4867
   84MOL0     H11281   5.875   3.740   9.336  3.0715 -3.1831  0.1736
   84MOL0     H11282   5.876   3.890   9.246  1.1033  1.8965  0.6132
   84MOL0     H11283   6.086   3.787   9.132 -1.5535  2.2409  1.2541
   84MOL0     H11284   6.072   3.644   9.231 -2.4407 -1.1883  2.8110
   84MOL0     H11285   5.873   3.744   9.019  1.1983 -0.5587 -1.9642
   84MOL0     H11286   5.983   3.604   9.007  0.2465  0.5286 -0.7945
   84MOL0     H11287   5.868   3.530   9.233  0.8682  2.7939  0.7498
   84MOL0     H11288   5.727   3.608   9.147 -0.2203  1.5118 -0.9830
   84MOL0     H11289   5.746   3.367   9.118 -0.2976 -0.0906  0.8118
   84MOL0     H11290   5.902   3.381   9.031  0.6512  0.6235 -0.9390
   84MOL0     H11291   5.548   3.520   8.992 -0.0501  3.2058 -1.3611
   84MOL0     H11292   5.410   3.599   8.743 -1.2996  0.1971 -2.9260
   84MOL0     H11293   5.459   3.499   8.610 -1.5080 -1.0058 -0.5814
   84MOL0     H11294   5.300   3.427   8.865 -2.1596  1.0417 -0.2440
   84MOL0     H11295   5.397   3.306   8.769 -0.0756  0.2226 -0.3764
   84MOL0     H11296   5.271   3.386   8.569  2.9408  0.6230  1.8505
   84MOL0     H11297   5.175   3.490   8.678 -1.8454 -0.3048 -0.0542
   84MOL0     H11298   5.100   3.286   8.818  0.4295 -2.6207 -1.0375
   84MOL0     H11299   5.202   3.194   8.710  0.5386  0.8540  0.1874
   84MOL0     H11300   4.963   3.492   8.749 -0.4037  1.3323  0.0519
   84MOL0     H11301   4.708   3.661   8.879 -3.9074 -2.4890 -0.5409
   84MOL0     H11302   4.860   3.666   8.786  0.0143 -0.8219  3.5491
   84MOL0     H11303   4.713   3.705   8.700 -0.5396 -2.0258 -1.7477
   84MOL0     H11304   4.245   3.190   8.760  1.6450  1.9960  0.8831
   84MOL0     H11305   3.992   3.192   8.738  0.8751 -0.3902  1.3025
   84MOL0     H11306   3.821   3.561   8.573  1.4225 -0.1481  0.8365
   84MOL0     H11307   3.836   3.404   8.486 -0.6700 -3.1437  1.0503
   84MOL0     H11308   3.612   3.437   8.465  0.3645 -0.9747 -0.0025
   84MOL0     H11309   3.611   3.346   8.618  1.6741 -1.4067 -0.9192
   84MOL0     H11310   3.557   3.640   8.544 -1.2156 -1.5333 -0.7439
   84MOL0     H11311   3.599   3.601   8.713  2.3528  0.7091 -0.6724
   84MOL0     H11312   3.375   3.452   8.558 -2.3248  1.6635 -0.1522
   84MOL0     H11313   3.428   3.453   8.736  0.5455 -1.9930 -1.2598
   84MOL0     H11314   3.292   3.653   8.551 -1.4779 -0.5212  0.7827
   84MOL0     H11315   3.358   3.702   8.711 -0.4063 -2.1686  1.5197
   84MOL0     H11316   3.127   3.515   8.639 -2.1956  0.1824  1.9914
   84MOL0     H11317   3.187   3.518   8.803 -0.6944 -0.1644 -1.0464
   84MOL0     H11318   3.099   3.766   8.668 -1.6400 -1.2244 -1.2355
   84MOL0     H11319   3.136   3.744   8.842  1.6644 -1.8182  1.3825
   84MOL0     H11320   2.917   3.583   8.819 -1.5201  1.8833 -0.6413
   84MOL0     H11321   2.921   3.643   8.649  0.0620  0.2579 -1.2937
   84MOL0     H11322   4.010   3.600   8.647  3.5149  0.7347  0.8981
   84MOL0     H11323   4.255   3.586   8.634 -0.2470 -0.0292 -1.1562
   84MOL0     H11324   4.576   3.249   8.584  0.4970 -0.7090 -0.4242
   84MOL0     H11325   4.800   3.154   8.559 -0.1468 -1.7389  3.8252
   84MOL0     H11326   5.782   4.252   9.818  0.1242 -1.1173 -0.5984
   84MOL0     H11327   5.829   4.494   9.912  1.2023  2.1857 -0.4737
   84MOL0     H11328   6.047   4.826  10.204  0.4019 -0.4322  0.8341
   84MOL0     H11329   6.163   5.042  10.259 -1.6096 -0.0564  1.5827
   84MOL0     H11330   6.223   5.314   9.940  1.0422 -0.3029 -0.6752
   84MOL0     H11331   6.217   5.336  10.120  0.8846  1.3333  0.0447
   84MOL0     H11332   6.427   5.427   9.939 -0.1219 -1.0920 -0.0426
   84MOL0     H11333   6.499   5.307  10.035 -0.8878 -0.0957  0.7038
   84MOL0     H11334   6.521   5.527  10.138 -1.5960  3.1830  0.1486
   84MOL0     H11335   6.424   5.421  10.242 -3.4819  0.4371  0.7154
   84MOL0     H11336   6.365   5.659  10.226  0.3552 -2.3611  2.4083
   84MOL0     H11337   6.241   5.543  10.230  1.4674 -0.3800  2.2348
   84MOL0     H11338   6.206   5.723   9.839  3.7235 -1.3176 -1.9299
   84MOL0     H11339   6.252   5.092   9.833  1.4141 -1.0172 -0.0141
   84MOL0     H11340   6.108   4.893   9.785 -0.2044  0.6360  0.1995
   85MOL0     O11341   4.685   1.004   0.181 -0.0828  0.0682 -0.3324
   85MOL0     C11342   4.744   0.901   0.202  0.6716  0.7031 -0.1119
   85MOL0     O11343   4.686   0.776   0.172  0.0743  1.3449 -0.7118
   85MOL0     C11344   4.560   0.756   0.114 -0.0357  0.8365  0.4580
   85MOL0     C11345   4.468   0.850   0.084  0.2283 -1.3141 -0.0191
   85MOL0     C11346   4.338   0.817   0.039 -0.2426  0.2050 -0.2622
   85MOL0     C11347   4.301   0.678   0.016 -0.2693 -0.2052 -1.1682
   85MOL0     O11348   4.191   0.658  -0.063 -0.2922 -0.0530 -0.1127
   85MOL0     C11349   4.142   0.525  -0.090  0.0492 -0.2348  0.0388
   85MOL0     C11350   3.989   0.520  -0.126  0.1755  0.3833 -0.6834
   85MOL0     C11351   3.960   0.623  -0.228  1.0461 -1.4875  0.8068
   85MOL0     C11352   3.821   0.604  -0.300  0.2180  0.4081 -0.6666
   85MOL0     C11353   3.699   0.659  -0.216 -0.3408  0.7038 -0.7251
   85MOL0     C11354   3.560   0.648  -0.290  0.7576  0.6190  0.3854
   85MOL0     C11355   3.497   0.509  -0.271  0.9756  0.4615 -0.7438
   85MOL0     C11356   3.491   0.440  -0.139  0.0526  0.2491 -0.4778
   85MOL0     N11357   3.403   0.317  -0.136 -0.7195 -1.0129 -1.0127
   85MOL0     C11358   3.376   0.255  -0.020  0.5579 -0.0816 -0.1179
   85MOL0     C11359   3.307   0.143  -0.063 -0.2842  0.4528  0.3560
   85MOL0     C11360   3.273   0.038   0.043 -0.8160 -0.3319  1.0050
   85MOL0     C11361   3.119   0.028   0.059  0.2915 -0.0232  0.5530
   85MOL0     C11362   3.065  -0.062  -0.054 -0.8041 -0.9441  0.6650
   85MOL0     C11363   2.932  -0.012  -0.112 -0.4877 -0.2195 -0.4191
   85MOL0     O11364   2.824  -0.089  -0.052 -0.6705  0.4421  0.0646
   85MOL0     C11365   2.731  -0.016   0.013  1.4044 -0.4383  0.5183
   85MOL0     C11366   2.731  -0.002   0.149 -0.5459 -0.6647 -0.0179
   85MOL0     C11367   2.640   0.077   0.223  0.1958  0.1552  0.6268
   85MOL0     C11368   2.648   0.062   0.367  0.4621 -0.7142 -0.7964
   85MOL0     C11369   2.548   0.149   0.145 -0.0413  0.1184 -0.3035
   85MOL0     C11370   2.460   0.250   0.201  0.3309 -0.0086 -0.5617
   85MOL0     O11371   2.415   0.339   0.116  0.5731 -0.1019 -1.0547
   85MOL0     C11372   2.318   0.430   0.156 -1.1607  0.3749 -0.1919
   85MOL0     C11373   2.339   0.573   0.159 -0.3601  0.3181  0.5144
   85MOL0     C11374   2.243   0.668   0.194  1.0489 -0.1230  0.0464
   85MOL0     C11375   2.110   0.628   0.220  0.1930 -0.2171  0.4520
   85MOL0     O11376   2.017   0.723   0.247  0.3375 -0.8575  0.3855
   85MOL0     C11377   1.893   0.707   0.174 -0.6869  0.7013  0.1071
   85MOL0     C11378   1.782   0.816   0.203  0.5083  0.4512  0.4541
   85MOL0     C11379   1.754   0.839   0.351 -0.6084 -0.0607  0.7090
   85MOL0     C11380   1.640   0.932   0.369  0.0733 -0.0388  0.0824
   85MOL0     C11381   1.614   0.988   0.509 -0.2953  0.0742  0.8195
   85MOL0     C11382   1.489   1.078   0.505  0.0176 -0.5069 -0.5688
   85MOL0     C11383   1.465   1.145   0.644  0.2658 -0.4073 -0.2008
   85MOL0     C11384   1.335   1.217   0.630  0.0500  0.6152 -0.6437
   85MOL0    Cl11385   1.342   1.335   0.497 -0.0097  0.2145 -0.6421
   85MOL0     C11386   2.088   0.487   0.218  0.1502 -0.6596  0.9126
   85MOL0     C11387   2.181   0.392   0.178 -0.7057  0.1586  0.0672
   85MOL0     O11388   2.412   0.228   0.314 -0.5042 -0.2066 -0.0751
   85MOL0     C11389   2.538   0.117   0.005  0.7707 -0.5424 -0.6039
   85MOL0     C11390   2.629   0.041  -0.064 -0.6551  0.1538 -0.2876
   85MOL0     N11391   3.272   0.156  -0.197 -0.3884  0.5204 -0.4788
   85MOL0     N11392   3.337   0.260  -0.236 -0.0578 -0.7436  0.1669
   85MOL0     C11393   4.395   0.581   0.047  0.2269 -0.8082 -0.3127
   85MOL0     C11394   4.525   0.616   0.089  0.2362  0.4337  0.2413
   85MOL0     C11395   4.872   0.900   0.264  0.2969 -0.6188 -0.4445
   85MOL0     C11396   4.910   1.011   0.342  0.1905  0.4815  0.2871
   85MOL0     C11397   5.025   1.013   0.421  0.3694  0.0962  0.4078
   85MOL0     C11398   5.105   0.904   0.425  0.2005 -0.0099 -1.4075
   85MOL0     O11399   5.223   0.879   0.489 -0.6837 -0.2448 -0.7289
   85MOL0     C11400   5.267   0.977   0.584  0.9605  0.2250 -0.4937
   85MOL0     C11401   5.178   0.997   0.709 -0.0892  0.5511  0.0795
   85MOL0     C11402   5.091   0.882   0.759 -0.2710 -0.4649 -0.8115
   85MOL0     C11403   4.944   0.930   0.795 -0.0992 -0.1236  0.5602
   85MOL0     C11404   4.857   0.834   0.865 -1.0990 -0.5940 -0.2741
   85MOL0     C11405   4.786   0.750   0.909  0.7475  0.0239 -0.3042
   85MOL0     C11406   5.081   0.799   0.331  0.2514 -0.2152 -0.9448
   85MOL0     C11407   4.957   0.799   0.258 -0.6833  0.5582 -0.1304
   85MOL0     H11408   4.483   0.957   0.089 -1.2876 -1.1206  1.8590
   85MOL0     H11409   4.272   0.897   0.008 -0.7354 -0.0329  0.1427
   85MOL0     H11410   4.184   0.478  -0.180  0.3059  1.3291 -0.6867
   85MOL0     H11411   4.160   0.464  -0.001 -1.9012  0.3843  0.9066
   85MOL0     H11412   3.956   0.418  -0.147 -1.4059  0.8858 -0.8361
   85MOL0     H11413   3.930   0.536  -0.035 -1.1396 -0.5559 -1.3392
   85MOL0     H11414   3.959   0.726  -0.193 -0.0136 -0.9669 -0.6545
   85MOL0     H11415   4.045   0.617  -0.297  0.2836  0.5252 -0.3895
   85MOL0     H11416   3.816   0.653  -0.398 -4.3035 -2.0925 -1.9468
   85MOL0     H11417   3.814   0.497  -0.319  2.5921  0.4281 -2.0123
   85MOL0     H11418   3.701   0.610  -0.119 -3.3095  1.6460 -0.0728
   85MOL0     H11419   3.718   0.766  -0.204 -1.2659  0.7057  0.9708
   85MOL0     H11420   3.484   0.717  -0.252  0.4284  1.0679 -1.0355
   85MOL0     H11421   3.566   0.679  -0.395 -1.6346  0.9174  0.2695
   85MOL0     H11422   3.389   0.521  -0.283  0.7977  0.8015  0.9596
   85MOL0     H11423   3.532   0.446  -0.354  0.2227  0.7915 -1.3274
   85MOL0     H11424   3.469   0.517  -0.064  1.0537  1.5110 -1.4312
   85MOL0     H11425   3.594   0.409  -0.122  0.1827 -0.5706 -2.4794
   85MOL0     H11426   3.402   0.285   0.081  0.7317  0.4286 -0.3106
   85MOL0     H11427   3.325  -0.051   0.008 -0.9382  1.0804 -3.4783
   85MOL0     H11428   3.321   0.072   0.135  0.4266  1.0796 -0.1048
   85MOL0     H11429   3.074   0.128   0.055  0.0419 -0.1689 -0.6032
   85MOL0     H11430   3.099  -0.021   0.154  2.5311  0.5801  1.4124
   85MOL0     H11431   3.054  -0.161  -0.008  0.0301 -2.3094 -1.8963
   85MOL0     H11432   3.139  -0.075  -0.133  0.8137  1.1356  1.7607
   85MOL0     H11433   2.938  -0.040  -0.218  0.6501 -1.6441 -0.0034
   85MOL0     H11434   2.912   0.095  -0.112 -2.7420 -0.5751 -0.7227
   85MOL0     H11435   2.807  -0.056   0.205  0.9787  1.1074 -0.2800
   85MOL0     H11436   2.668   0.155   0.422 -0.5600 -0.8141 -0.2274
   85MOL0     H11437   2.552   0.024   0.403  1.5210 -2.3581  0.4542
   85MOL0     H11438   2.724  -0.010   0.399 -0.2147 -0.3611  1.9031
   85MOL0     H11439   2.439   0.606   0.130 -0.0253 -1.3274 -0.2870
   85MOL0     H11440   2.277   0.771   0.190  1.4770 -0.2691 -4.1097
   85MOL0     H11441   1.930   0.679   0.075  5.1898 -1.7105  2.5402
   85MOL0     H11442   1.839   0.625   0.223 -0.4938  0.3796 -0.2190
   85MOL0     H11443   1.803   0.912   0.153 -2.0356  0.4409 -0.8232
   85MOL0     H11444   1.697   0.772   0.150  1.2481  1.3757 -1.6556
   85MOL0     H11445   1.848   0.873   0.395  0.7207 -0.4837 -1.6000
   85MOL0     H11446   1.737   0.743   0.400 -1.2007  0.8032  2.2308
   85MOL0     H11447   1.646   1.019   0.302 -2.1131 -0.6925 -1.0561
   85MOL0     H11448   1.561   0.864   0.335  1.5138 -1.1862 -1.1176
   85MOL0     H11449   1.702   1.031   0.557 -1.8073  0.5280  3.4332
   85MOL0     H11450   1.595   0.908   0.582  4.0817 -0.7583  1.2960
   85MOL0     H11451   1.515   1.151   0.428 -1.9770  1.9219  0.9323
   85MOL0     H11452   1.398   1.028   0.471  0.5906 -0.9837 -1.4596
   85MOL0     H11453   1.545   1.213   0.676 -2.1201  2.9222 -0.7282
   85MOL0     H11454   1.458   1.075   0.727  3.7543  3.3000  3.7682
   85MOL0     H11455   1.310   1.265   0.725  2.5858 -0.6471  0.7771
   85MOL0     H11456   1.256   1.144   0.615 -1.0833  0.8752  3.0637
   85MOL0     H11457   1.988   0.458   0.250  0.2685 -0.3672  1.5734
   85MOL0     H11458   2.153   0.288   0.184 -0.0632  0.0570  1.9186
   85MOL0     H11459   2.464   0.166  -0.057  1.3343  0.3315 -0.5965
   85MOL0     H11460   2.621   0.025  -0.171 -3.8766  4.0017 -0.8796
   85MOL0     H11461   4.372   0.477   0.025 -0.1195 -0.8080  0.0345
   85MOL0     H11462   4.607   0.545   0.093  2.2824  2.5707  5.6346
   85MOL0     H11463   4.844   1.096   0.343 -1.1946 -0.5474 -0.1832
   85MOL0     H11464   5.042   1.098   0.487 -0.7789  1.7960 -1.3928
   85MOL0     H11465   5.366   0.936   0.604  1.0281  1.3800  1.8066
   85MOL0     H11466   5.275   1.073   0.533  1.3275  0.3213 -0.2555
   85MOL0     H11467   5.114   1.083   0.686 -0.1943 -0.1175 -2.3996
   85MOL0     H11468   5.262   1.019   0.777  1.1634 -2.0101 -0.5181
   85MOL0     H11469   5.138   0.827   0.841  0.7803 -1.2423 -1.9067
   85MOL0     H11470   5.069   0.804   0.685 -3.5484  1.1250 -1.7213
   85MOL0     H11471   4.899   0.953   0.699  2.1197 -2.1288 -1.0760
   85MOL0     H11472   4.953   1.030   0.839 -1.7666  1.8259 -3.1410
   85MOL0     H11473   4.727   0.672   0.951  2.2332 -2.4586 -2.5457
   85MOL0     H11474   5.162   0.728   0.319  1.3630  0.6933  0.7134
   85MOL0     H11475   4.935   0.710   0.201 -4.7272  1.1834  0.1902
   86MOL0     O11476   6.364   1.475   6.059 -0.1870  0.2132 -0.4229
   86MOL0     C11477   6.420   1.587   6.059  0.7645 -0.0268  0.2531
   86MOL0     O11478   6.379   1.704   6.121  0.0596 -0.3145 -0.2354
   86MOL0     C11479   6.295   1.694   6.234  0.4117 -0.0471 -0.2133
   86MOL0     C11480   6.276   1.596   6.331  0.2715  0.2900 -0.4647
   86MOL0     C11481   6.179   1.601   6.426 -0.2476  0.7829 -0.8874
   86MOL0     C11482   6.096   1.711   6.447  0.1290  0.1975  0.1884
   86MOL0     O11483   5.996   1.709   6.542 -0.0299  0.0432 -0.8258
   86MOL0     C11484   5.871   1.768   6.502  0.0507  0.7915 -0.3263
   86MOL0     C11485   5.746   1.676   6.520 -0.2401 -0.2371  0.6648
   86MOL0     C11486   5.680   1.683   6.661  0.0164  0.0772  0.3107
   86MOL0     C11487   5.528   1.677   6.637 -0.1911  0.3187 -0.3338
   86MOL0     C11488   5.441   1.664   6.766 -0.6938 -0.6159  0.4117
   86MOL0     C11489   5.466   1.553   6.867  0.3585 -0.8304  0.1729
   86MOL0     C11490   5.421   1.418   6.799  0.3172  0.1986 -0.7867
   86MOL0     C11491   5.447   1.299   6.885 -0.4750  0.0101  0.9138
   86MOL0     N11492   5.367   1.278   7.006 -0.2560  0.1189  0.1075
   86MOL0     C11493   5.229   1.268   7.014 -0.2200  0.6591  0.3029
   86MOL0     C11494   5.202   1.249   7.140  0.0045 -0.6229 -0.9927
   86MOL0     C11495   5.063   1.201   7.193 -0.1375  0.6520 -0.0461
   86MOL0     C11496   5.059   1.050   7.196  1.4627 -0.3582 -0.7051
   86MOL0     C11497   4.944   0.997   7.276  0.0491  0.3124  0.5762
   86MOL0     C11498   4.802   1.049   7.234  0.7756  0.1574 -0.0985
   86MOL0     O11499   4.766   1.026   7.101 -0.1914 -0.4224 -0.1464
   86MOL0     C11500   4.635   1.039   7.060 -0.1144  0.9782 -0.6161
   86MOL0     C11501   4.619   1.070   6.927 -0.7873 -0.1178 -0.2113
   86MOL0     C11502   4.501   1.082   6.861  0.7885 -0.0976  0.2258
   86MOL0     C11503   4.504   1.121   6.719  0.0075  0.6486  0.3059
   86MOL0     C11504   4.376   1.067   6.939 -0.4053 -0.1588  0.5440
   86MOL0     C11505   4.242   1.101   6.885 -0.0978  0.9824  0.3654
   86MOL0     O11506   4.136   1.066   6.959  0.8758  0.6485  0.4475
   86MOL0     C11507   4.016   1.095   6.892  0.3928  0.3102 -0.7977
   86MOL0     C11508   3.937   1.200   6.936 -0.2709 -0.9948  0.5726
   86MOL0     C11509   3.813   1.234   6.870  0.5880  0.0151 -0.3203
   86MOL0     C11510   3.764   1.148   6.775 -0.1448  0.1340 -0.3559
   86MOL0     O11511   3.624   1.163   6.738 -0.3464  0.3322 -0.3614
   86MOL0     C11512   3.563   1.088   6.624 -0.7375 -0.5278  0.2102
   86MOL0     C11513   3.435   1.146   6.565  0.3675 -0.4749  0.4423
   86MOL0     C11514   3.336   1.044   6.510 -0.3453 -0.1585  0.2912
   86MOL0     C11515   3.250   0.974   6.614  0.5149 -1.0558  0.4334
   86MOL0     C11516   3.180   0.855   6.549 -0.3033 -0.3554 -0.3454
   86MOL0     C11517   3.147   0.764   6.666  0.7744  0.4018 -0.2838
   86MOL0     C11518   3.066   0.647   6.611  0.6113 -0.2471 -0.0789
   86MOL0     C11519   2.952   0.606   6.717  0.0347 -0.0215 -0.4466
   86MOL0    Cl11520   2.855   0.469   6.652 -0.3063 -0.1550 -0.0061
   86MOL0     C11521   3.828   1.029   6.738  0.5568 -0.9526 -0.2204
   86MOL0     C11522   3.956   1.004   6.796  0.5821  0.3650  0.0749
   86MOL0     O11523   4.242   1.183   6.790 -0.5900 -0.4779  0.0927
   86MOL0     C11524   4.392   1.025   7.076  0.8781 -0.2649  1.5372
   86MOL0     C11525   4.520   1.008   7.135 -0.3489 -0.1789 -0.0389
   86MOL0     N11526   5.314   1.273   7.213 -0.4018 -0.1253  0.3854
   86MOL0     N11527   5.416   1.296   7.135  0.6390  0.0296  0.3303
   86MOL0     C11528   6.127   1.822   6.359  0.3175  0.7598 -0.2393
   86MOL0     C11529   6.217   1.817   6.252 -0.0742 -0.2404 -1.0407
   86MOL0     C11530   6.543   1.604   5.977 -0.3476 -0.3057  0.3933
   86MOL0     C11531   6.600   1.499   5.908 -0.7229 -1.5366 -0.1270
   86MOL0     C11532   6.715   1.531   5.827 -0.0077 -0.5346 -0.3973
   86MOL0     C11533   6.774   1.657   5.831  0.1020  0.0471 -0.3825
   86MOL0     O11534   6.890   1.685   5.769  0.3655 -0.0859  0.6817
   86MOL0     C11535   6.897   1.641   5.635  0.1395  0.1037  0.0395
   86MOL0     C11536   6.994   1.736   5.563  0.3777 -0.0275  0.0594
   86MOL0     C11537   7.024   1.697   5.418  0.7902  0.5918  0.2944
   86MOL0     C11538   7.100   1.569   5.396  0.1312 -0.7496 -0.3897
   86MOL0     C11539   7.093   1.538   5.257  0.3787 -0.1961  0.2146
   86MOL0     C11540   7.089   1.503   5.146 -0.3773  1.0890 -0.3200
   86MOL0     C11541   6.720   1.757   5.910  0.3456  0.0876  0.8810
   86MOL0     C11542   6.607   1.724   5.987  0.4057  0.8673  0.1660
   86MOL0     H11543   6.338   1.507   6.327  4.0646  2.5341  1.7048
   86MOL0     H11544   6.162   1.520   6.496  0.7954  2.2922  1.2288
   86MOL0     H11545   5.851   1.865   6.549 -0.3500  1.6641 -2.1813
   86MOL0     H11546   5.880   1.784   6.394  0.2311  1.3234 -0.2396
   86MOL0     H11547   5.674   1.721   6.452  0.3822 -0.9474 -0.5071
   86MOL0     H11548   5.768   1.571   6.498 -0.8332 -0.7931  2.5496
   86MOL0     H11549   5.705   1.595   6.721 -0.3868  0.5702  1.2298
   86MOL0     H11550   5.713   1.775   6.710 -0.5914  0.7788 -0.5506
   86MOL0     H11551   5.484   1.761   6.583 -0.5298  1.4172  1.5641
   86MOL0     H11552   5.506   1.590   6.574  0.1263  1.5782 -2.2898
   86MOL0     H11553   5.461   1.752   6.827  3.2044 -0.3498 -0.9745
   86MOL0     H11554   5.336   1.670   6.735 -1.0812 -1.3674  1.5156
   86MOL0     H11555   5.570   1.553   6.899  0.5036  1.8327 -0.0495
   86MOL0     H11556   5.409   1.569   6.959  1.3452  0.4548  0.5937
   86MOL0     H11557   5.315   1.409   6.773  0.2396 -2.9509  0.1130
   86MOL0     H11558   5.490   1.410   6.713 -0.2572 -0.7960 -1.1756
   86MOL0     H11559   5.553   1.303   6.912 -0.5117 -1.4996  1.3773
   86MOL0     H11560   5.421   1.215   6.820 -1.2643  1.4985 -0.7953
   86MOL0     H11561   5.175   1.245   6.922  0.1232  1.0804 -0.0075
   86MOL0     H11562   5.051   1.235   7.297  3.6105  0.3872  0.6307
   86MOL0     H11563   4.987   1.243   7.127 -2.2536 -0.6017  1.4546
   86MOL0     H11564   5.154   1.021   7.242  0.1913 -1.4519  1.3407
   86MOL0     H11565   5.063   1.008   7.095 -1.4551  0.2573 -1.1838
   86MOL0     H11566   4.960   1.018   7.383 -0.4569  2.3559  0.2969
   86MOL0     H11567   4.954   0.889   7.262 -2.4811  0.1397 -0.5252
   86MOL0     H11568   4.795   1.155   7.260 -1.9194  1.3212 -4.5548
   86MOL0     H11569   4.736   0.987   7.297  0.2915  1.2601  0.5024
   86MOL0     H11570   4.715   1.075   6.876 -2.1447 -0.3731 -2.9233
   86MOL0     H11571   4.484   1.227   6.700 -1.6509  0.3584  0.2296
   86MOL0     H11572   4.603   1.111   6.675  0.6871 -0.6773  2.0211
   86MOL0     H11573   4.445   1.059   6.651 -1.9551  1.0611  1.5370
   86MOL0     H11574   3.981   1.271   7.006  0.0674  0.6197 -1.1994
   86MOL0     H11575   3.754   1.318   6.905  0.9331 -0.5737  1.7779
   86MOL0     H11576   3.642   1.085   6.548  2.0736  0.8593  2.8370
   86MOL0     H11577   3.530   0.988   6.654 -1.1828 -0.4804 -0.1109
   86MOL0     H11578   3.386   1.202   6.645  0.4350  4.5246 -2.5893
   86MOL0     H11579   3.458   1.222   6.490  1.7353 -1.4053 -0.1199
   86MOL0     H11580   3.401   0.972   6.460  1.0955 -0.0584  1.9211
   86MOL0     H11581   3.277   1.093   6.431 -3.5542  1.9714  3.6739
   86MOL0     H11582   3.304   0.953   6.707  1.8455  2.9848  0.7754
   86MOL0     H11583   3.173   1.049   6.635  3.2899  2.1302  0.1668
   86MOL0     H11584   3.244   0.812   6.471  0.1174  1.0387 -0.8022
   86MOL0     H11585   3.085   0.887   6.504 -0.1918  1.9279  0.9148
   86MOL0     H11586   3.245   0.732   6.705  2.2128  2.2359 -2.1407
   86MOL0     H11587   3.085   0.812   6.741 -0.1942 -1.5987  0.2469
   86MOL0     H11588   3.118   0.552   6.594 -2.1675 -1.8234 -0.4885
   86MOL0     H11589   3.016   0.687   6.522 -1.8503  0.2501  1.4295
   86MOL0     H11590   2.897   0.691   6.757  2.7178  1.7524 -0.2448
   86MOL0     H11591   3.018   0.571   6.798  0.8027 -2.1027 -1.8832
   86MOL0     H11592   3.783   0.959   6.669 -0.9526  0.7150 -1.0130
   86MOL0     H11593   4.004   0.912   6.766  0.6528  0.5467 -0.3676
   86MOL0     H11594   4.304   1.000   7.135  0.3200  1.4904  1.4910
   86MOL0     H11595   4.530   0.982   7.240  2.8024 -0.6452 -0.3578
   86MOL0     H11596   6.079   1.917   6.381 -0.1146  0.4244  0.2945
   86MOL0     H11597   6.236   1.906   6.193 -2.0755  1.3185  0.4841
   86MOL0     H11598   6.564   1.397   5.901  1.0273 -2.1129 -1.8081
   86MOL0     H11599   6.769   1.463   5.761  0.2125 -2.3088  1.4869
   86MOL0     H11600   6.943   1.542   5.634 -0.3705 -0.1428 -0.9601
   86MOL0     H11601   6.805   1.623   5.579  0.9896 -1.0124 -1.0491
   86MOL0     H11602   7.091   1.740   5.615 -0.4039 -1.7686  1.7819
   86MOL0     H11603   6.961   1.840   5.563  1.7178  0.4445 -1.4493
   86MOL0     H11604   7.072   1.778   5.363 -0.4175  0.6289 -0.7469
   86MOL0     H11605   6.927   1.681   5.370  0.3075  0.5978  1.2314
   86MOL0     H11606   7.049   1.492   5.456 -2.5901  2.4327  1.7445
   86MOL0     H11607   7.202   1.586   5.432 -1.3433  2.2417  3.0061
   86MOL0     H11608   7.085   1.461   5.048  1.1960  0.3175 -0.0776
   86MOL0     H11609   6.764   1.856   5.915  0.6957 -0.0700  0.9869
   86MOL0     H11610   6.560   1.800   6.048 -1.2796 -1.2761  1.7172
   87MOL0     O11611   7.634  10.327   6.049  0.3130 -0.3787  0.0699
   87MOL0     C11612   7.726  10.365   5.978 -0.4383  0.3675 -0.4924
   87MOL0     O11613   7.717  10.384   5.845  0.2055 -0.7389  0.0932
   87MOL0     C11614   7.589  10.362   5.796 -0.8173 -0.8352  0.0228
   87MOL0     C11615   7.539  10.231   5.783  0.0079 -0.1839  0.4691
   87MOL0     C11616   7.414  10.225   5.720  0.8079 -0.7529  0.2729
   87MOL0     C11617   7.349  10.339   5.662 -0.7787  0.3013 -0.9431
   87MOL0     O11618   7.235  10.332   5.589  0.1635 -0.1194  0.2360
   87MOL0     C11619   7.146  10.217   5.605  0.7124  0.4617  0.9899
   87MOL0     C11620   7.019  10.258   5.524 -0.3296  0.7955 -0.3675
   87MOL0     C11621   6.906  10.162   5.550  0.5370  0.6245 -0.1067
   87MOL0     C11622   6.785  10.212   5.461  0.7271  0.5558 -0.6790
   87MOL0     C11623   6.668  10.135   5.522  0.5468  0.4288  0.5195
   87MOL0     C11624   6.536  10.159   5.451 -0.1992 -0.4476  0.6457
   87MOL0     C11625   6.418  10.096   5.535 -0.9039  0.0918  0.3885
   87MOL0     C11626   6.411   9.942   5.521  0.5059 -0.1504  0.0888
   87MOL0     N11627   6.279   9.889   5.566  0.3887 -0.8465  0.3172
   87MOL0     C11628   6.248   9.806   5.666 -0.8397 -1.2577  0.0771
   87MOL0     C11629   6.115   9.791   5.651 -0.2550 -0.7024 -0.0783
   87MOL0     C11630   6.022   9.711   5.747  0.1186 -0.0476 -0.2620
   87MOL0     C11631   5.880   9.789   5.752 -0.9117 -0.0396 -0.9312
   87MOL0     C11632   5.795   9.725   5.858  0.4248  0.4716  0.0941
   87MOL0     C11633   5.658   9.789   5.884  1.0910 -0.3610 -0.1710
   87MOL0     O11634   5.590   9.803   5.764 -0.1359  0.8548 -0.5173
   87MOL0     C11635   5.460   9.842   5.767  0.5325  0.0025  0.6833
   87MOL0     C11636   5.390   9.888   5.877  0.3117  0.3593 -0.4488
   87MOL0     C11637   5.259   9.921   5.870 -0.3638  0.1251 -0.4259
   87MOL0     C11638   5.198   9.982   5.996 -1.0118 -0.2167  0.6549
   87MOL0     C11639   5.195   9.915   5.744 -1.4484  0.4910  0.0022
   87MOL0     C11640   5.052   9.954   5.732 -0.3923  0.9849  0.4502
   87MOL0     O11641   5.021  10.005   5.607  0.5053 -1.0837  0.1783
   87MOL0     C11642   4.891  10.032   5.587  0.1565  0.8285  0.2223
   87MOL0     C11643   4.809   9.928   5.541  0.7732 -0.1117 -0.2186
   87MOL0     C11644   4.668   9.963   5.509 -1.1470 -0.1345  0.4090
   87MOL0     C11645   4.625  10.089   5.532  0.2022 -0.7287  0.1104
   87MOL0     O11646   4.493  10.136   5.518  0.2117  0.0008  0.2619
   87MOL0     C11647   4.382  10.053   5.478  0.4503  0.0244 -0.1424
   87MOL0     C11648   4.248  10.118   5.493 -0.2952  0.2934  0.2652
   87MOL0     C11649   4.229  10.210   5.621  0.5160 -0.9620  0.2559
   87MOL0     C11650   4.087  10.267   5.638  0.5517  0.0050 -0.1455
   87MOL0     C11651   4.070  10.360   5.762 -0.0525  0.7581  0.8339
   87MOL0     C11652   3.923  10.389   5.797  0.0474  0.4343  0.1685
   87MOL0     C11653   3.834  10.453   5.688  0.4723 -0.6551  0.3270
   87MOL0     C11654   3.908  10.556   5.607  0.7122  1.0954  0.3785
   87MOL0    Cl11655   3.925  10.701   5.701 -0.5184 -0.3622 -0.4620
   87MOL0     C11656   4.707  10.188   5.577  0.7157 -0.4449 -0.4346
   87MOL0     C11657   4.843  10.157   5.606  0.0890  0.4531 -0.3205
   87MOL0     O11658   4.971   9.954   5.825  0.2833 -0.3498 -0.5071
   87MOL0     C11659   5.263   9.860   5.631  0.5409 -0.9670  0.0627
   87MOL0     C11660   5.400   9.831   5.643  0.8005 -1.0933  0.4425
   87MOL0     N11661   6.072   9.849   5.532 -0.1100 -0.9881  0.3094
   87MOL0     N11662   6.180   9.905   5.477  0.2112  0.1832 -0.2978
   87MOL0     C11663   7.412  10.468   5.659  0.2833  0.7128  0.2294
   87MOL0     C11664   7.523  10.474   5.737 -0.7322 -0.4724  0.0882
   87MOL0     C11665   7.857  10.368   6.052 -0.6479 -0.3064  0.9194
   87MOL0     C11666   7.981  10.391   5.988 -0.1699 -0.3317  0.8468
   87MOL0     C11667   8.102  10.409   6.059 -0.0060  0.5334 -0.4368
   87MOL0     C11668   8.108  10.406   6.199  0.4645 -0.3272  0.5556
   87MOL0     O11669   8.206  10.413   6.286  0.1879 -0.1013  0.1042
   87MOL0     C11670   8.329  10.467   6.244 -1.0826 -0.1234  0.8820
   87MOL0     C11671   8.329  10.615   6.253  0.5198 -0.6258  0.5876
   87MOL0     C11672   8.292  10.661   6.393 -0.0968  0.6956  0.4086
   87MOL0     C11673   8.320  10.811   6.419 -0.2126  0.5874 -0.2607
   87MOL0     C11674   8.224  10.910   6.361 -0.1930 -0.8512 -0.1434
   87MOL0     C11675   8.134  10.991   6.329  0.0290  0.0896 -1.5281
   87MOL0     C11676   7.983  10.373   6.259 -0.4821  0.0153  0.1149
   87MOL0     C11677   7.868  10.354   6.193  1.7024  0.9957 -0.2435
   87MOL0     H11678   7.603  10.148   5.809  0.1969 -0.4050 -0.6521
   87MOL0     H11679   7.373  10.126   5.701  1.5353 -0.7129 -1.6374
   87MOL0     H11680   7.178  10.118   5.572  0.7316  0.5627  0.7069
   87MOL0     H11681   7.108  10.213   5.707 -1.7295  1.8901  0.2067
   87MOL0     H11682   6.992  10.360   5.554  2.4727  1.3016  0.6826
   87MOL0     H11683   7.045  10.263   5.418 -0.4813 -1.0605 -0.5132
   87MOL0     H11684   6.947  10.064   5.524 -0.0234 -0.9875  4.2172
   87MOL0     H11685   6.872  10.155   5.654 -0.9918  1.8086 -0.4865
   87MOL0     H11686   6.768  10.320   5.467  0.2897  0.4575  0.0375
   87MOL0     H11687   6.805  10.178   5.360  0.1149  1.1441 -1.0097
   87MOL0     H11688   6.694  10.029   5.525 -0.3031  0.1307 -1.1932
   87MOL0     H11689   6.647  10.172   5.623  0.8972  0.8839  0.4237
   87MOL0     H11690   6.525  10.268   5.448  3.4826  0.0024 -1.5751
   87MOL0     H11691   6.543  10.123   5.349 -0.6733  1.5374 -0.1369
   87MOL0     H11692   6.419  10.142   5.635  1.6923  1.2982 -0.1042
   87MOL0     H11693   6.333  10.126   5.474 -1.3954 -2.0687 -0.0687
   87MOL0     H11694   6.492   9.893   5.576 -0.4743 -1.2670  0.6077
   87MOL0     H11695   6.421   9.908   5.417 -0.8295  1.8139 -0.7354
   87MOL0     H11696   6.307   9.777   5.752 -4.0096 -1.2946  2.4478
   87MOL0     H11697   6.013   9.612   5.701 -0.0501 -0.1876  0.0704
   87MOL0     H11698   6.073   9.697   5.843  1.9317  0.7666 -1.0463
   87MOL0     H11699   5.834   9.786   5.653  0.2027  1.2374 -1.5259
   87MOL0     H11700   5.883   9.891   5.791 -2.3936 -0.3464  0.0507
   87MOL0     H11701   5.848   9.722   5.953  2.2891  0.2000 -0.9025
   87MOL0     H11702   5.787   9.617   5.841  0.4034  0.6355 -1.0827
   87MOL0     H11703   5.674   9.884   5.935  5.8129 -0.7855 -0.4340
   87MOL0     H11704   5.609   9.709   5.939 -0.4750 -0.8885 -2.1995
   87MOL0     H11705   5.431   9.899   5.977 -0.9158  1.6028 -0.0414
   87MOL0     H11706   5.273   9.995   6.075 -0.9227  3.7737  0.1238
   87MOL0     H11707   5.163  10.085   5.988  0.7745  0.3207 -0.8221
   87MOL0     H11708   5.114   9.924   6.036 -1.6786  1.7061  2.1777
   87MOL0     H11709   4.849   9.828   5.528  0.4263 -0.0148 -2.6811
   87MOL0     H11710   4.605   9.888   5.462 -0.3526 -0.5917  0.0456
   87MOL0     H11711   4.393  10.019   5.374 -0.2216 -0.2854 -0.1167
   87MOL0     H11712   4.385   9.963   5.540  2.9526  0.8425  1.0616
   87MOL0     H11713   4.242  10.189   5.409 -1.1718  0.0956  0.1467
   87MOL0     H11714   4.164  10.049   5.476 -0.3702  0.9541 -2.6828
   87MOL0     H11715   4.288  10.301   5.607 -4.4022  2.4881 -0.7651
   87MOL0     H11716   4.253  10.156   5.713 -1.8543  0.7136  2.0134
   87MOL0     H11717   4.065  10.326   5.549  0.7865 -1.2340 -1.0465
   87MOL0     H11718   4.022  10.180   5.653  0.7216 -0.2265 -0.7376
   87MOL0     H11719   4.125  10.453   5.751  2.7783 -0.7856  1.0961
   87MOL0     H11720   4.111  10.305   5.848 -1.5509 -1.2452  0.3518
   87MOL0     H11721   3.870  10.298   5.826  1.8369 -0.8136 -0.3495
   87MOL0     H11722   3.916  10.456   5.884 -0.9395 -0.9926  1.2494
   87MOL0     H11723   3.752  10.515   5.725  1.4003  0.7468  0.1188
   87MOL0     H11724   3.800  10.379   5.614 -1.2549  1.5464 -1.2131
   87MOL0     H11725   3.843  10.586   5.525  0.1835  2.7132  1.3441
   87MOL0     H11726   4.001  10.524   5.559  0.9661  2.2946  0.0403
   87MOL0     H11727   4.671  10.284   5.612 -2.1685 -1.3252 -0.7011
   87MOL0     H11728   4.913  10.228   5.648  0.0607  0.8001 -0.8538
   87MOL0     H11729   5.220   9.828   5.537 -2.9730 -0.4909  1.3553
   87MOL0     H11730   5.462   9.797   5.561 -0.6164 -0.2100 -1.0765
   87MOL0     H11731   7.372  10.543   5.592 -0.3535  0.7129  0.5992
   87MOL0     H11732   7.565  10.573   5.733  1.7776 -1.4689  0.1930
   87MOL0     H11733   7.977  10.392   5.880 -1.5073  0.2070  0.8831
   87MOL0     H11734   8.192  10.436   6.005  0.4374  2.4776  1.1268
   87MOL0     H11735   8.418  10.426   6.291  2.0520  3.9081 -0.9376
   87MOL0     H11736   8.344  10.444   6.139 -0.2290 -3.2709  1.5852
   87MOL0     H11737   8.272  10.661   6.172  0.3548 -3.4267 -0.9953
   87MOL0     H11738   8.429  10.651   6.229 -0.8278  2.3496 -1.1299
   87MOL0     H11739   8.353  10.599   6.459 -1.1442 -1.6017 -0.6569
   87MOL0     H11740   8.189  10.630   6.414 -1.0010  0.6984 -3.3198
   87MOL0     H11741   8.426  10.834   6.403 -0.5349  2.6139  0.2412
   87MOL0     H11742   8.303  10.808   6.527  2.0276  1.7246  0.1931
   87MOL0     H11743   8.048  11.050   6.304  0.1992  1.0403 -0.0319
   87MOL0     H11744   7.988  10.387   6.366  3.6358  3.9302 -0.2465
   87MOL0     H11745   7.776  10.340   6.249  3.7536  0.5056  3.3144
   88MOL0     O11746  10.752   0.323   7.374 -0.3089  0.3937 -0.4859
   88MOL0     C11747  10.787   0.423   7.444 -0.3584 -0.4336  0.9398
   88MOL0     O11748  10.701   0.527   7.476  0.7727  0.0817 -0.0960
   88MOL0     C11749  10.565   0.526   7.455  0.9507 -1.1990  0.4932
   88MOL0     C11750  10.490   0.637   7.412 -0.3501 -0.0175  0.2560
   88MOL0     C11751  10.355   0.637   7.426  0.4531  0.6434  0.5859
   88MOL0     C11752  10.278   0.530   7.481 -1.6417 -0.8119 -0.3570
   88MOL0     O11753  10.150   0.534   7.505  0.3762 -0.7466  0.5335
   88MOL0     C11754  10.068   0.549   7.386  0.6791  0.4470 -0.0615
   88MOL0     C11755   9.944   0.616   7.441 -0.6761  0.5827 -0.3148
   88MOL0     C11756   9.856   0.516   7.523 -0.0829  0.1816 -1.4394
   88MOL0     C11757   9.892   0.515   7.668 -0.0264 -0.0180  0.3791
   88MOL0     C11758   9.801   0.407   7.735 -0.1309  0.1256 -0.3624
   88MOL0     C11759   9.810   0.420   7.890  0.0643  0.0900  0.5631
   88MOL0     C11760   9.741   0.310   7.961 -0.5698 -0.3759 -0.3388
   88MOL0     C11761   9.752   0.338   8.114  0.1391 -0.5446  0.8711
   88MOL0     N11762   9.622   0.312   8.184  0.7900  0.8398  0.1544
   88MOL0     C11763   9.591   0.199   8.258  0.4682 -0.3843 -0.3903
   88MOL0     C11764   9.459   0.219   8.300 -0.4209  0.1203 -0.5435
   88MOL0     C11765   9.369   0.131   8.381  0.5749  0.2258 -0.8978
   88MOL0     C11766   9.278   0.057   8.288 -0.0214  0.1120 -0.2493
   88MOL0     C11767   9.199  -0.039   8.381 -0.0820 -0.5709  0.3156
   88MOL0     C11768   9.096   0.008   8.485 -0.5358  0.8364  0.0491
   88MOL0     O11769   9.030   0.112   8.414 -0.0358  1.1481 -0.3928
   88MOL0     C11770   8.893   0.098   8.413  0.3389  0.3629  0.4661
   88MOL0     C11771   8.810   0.044   8.509 -0.1450  0.2899 -0.1702
   88MOL0     C11772   8.667   0.056   8.498 -0.3223  0.3721 -0.4947
   88MOL0     C11773   8.587  -0.025   8.602  0.7784  0.4349 -0.3957
   88MOL0     C11774   8.614   0.136   8.399  1.4708 -0.4301  0.2461
   88MOL0     C11775   8.469   0.152   8.381 -0.6173 -0.3625  0.4968
   88MOL0     O11776   8.432   0.282   8.352  0.4906 -0.2403  0.3357
   88MOL0     C11777   8.298   0.307   8.306 -0.5667 -1.2618 -0.0465
   88MOL0     C11778   8.187   0.234   8.335  0.0566 -0.5731  0.1620
   88MOL0     C11779   8.065   0.263   8.268 -0.5235  0.3922 -0.8519
   88MOL0     C11780   8.041   0.381   8.200  0.4015 -1.1652 -0.3454
   88MOL0     O11781   7.915   0.410   8.150  0.3293 -0.4962  0.1746
   88MOL0     C11782   7.870   0.542   8.124 -0.3192  0.0737 -0.3385
   88MOL0     C11783   7.716   0.565   8.148 -0.0326 -0.2960 -0.7403
   88MOL0     C11784   7.676   0.560   8.291 -0.1250 -0.3588  0.8813
   88MOL0     C11785   7.518   0.537   8.304 -0.0242  0.2400  1.5791
   88MOL0     C11786   7.478   0.494   8.446  0.2619  0.5325 -0.8039
   88MOL0     C11787   7.329   0.487   8.473  0.1581  0.1734 -0.4538
   88MOL0     C11788   7.305   0.446   8.620 -0.0145 -0.3786  0.0316
   88MOL0     C11789   7.155   0.431   8.668  1.0116 -0.5869  0.5378
   88MOL0    Cl11790   7.134   0.368   8.834 -0.3542 -0.0393  0.0750
   88MOL0     C11791   8.161   0.456   8.180  0.6938  0.2637  0.2152
   88MOL0     C11792   8.283   0.424   8.235  0.6518 -0.4632 -0.6897
   88MOL0     O11793   8.400   0.050   8.381 -0.0236  0.2789 -0.6604
   88MOL0     C11794   8.698   0.199   8.315 -0.1932 -0.1991  0.0515
   88MOL0     C11795   8.831   0.169   8.316 -0.3216  0.6221 -0.1191
   88MOL0     N11796   9.413   0.333   8.240 -0.7653  0.7408  0.7213
   88MOL0     N11797   9.513   0.392   8.180 -0.9785  0.6455 -0.2051
   88MOL0     C11798  10.354   0.432   7.542  0.7378  0.7704  0.3424
   88MOL0     C11799  10.490   0.431   7.525  0.0898  0.0887 -0.4782
   88MOL0     C11800  10.927   0.449   7.473  0.2530 -0.1802  0.3289
   88MOL0     C11801  11.023   0.351   7.508 -0.0170 -0.2848 -0.1608
   88MOL0     C11802  11.159   0.382   7.511 -0.3924 -0.2048 -0.4862
   88MOL0     C11803  11.204   0.516   7.471 -0.2031  0.2037  0.7711
   88MOL0     O11804  11.343   0.544   7.477  0.3132  0.0036  0.6350
   88MOL0     C11805  11.441   0.440   7.460 -0.1259  0.2097 -0.0734
   88MOL0     C11806  11.515   0.425   7.598 -0.5196 -0.2054  0.2986
   88MOL0     C11807  11.667   0.388   7.583 -0.6113 -0.5000  0.0701
   88MOL0     C11808  11.697   0.282   7.474 -0.7002 -0.1676  0.0164
   88MOL0     C11809  11.628   0.155   7.509  0.5066  0.2913 -0.5855
   88MOL0     C11810  11.562   0.050   7.531  0.6380  0.0041 -0.2984
   88MOL0     C11811  11.108   0.611   7.438  1.0738  1.3370 -0.0275
   88MOL0     C11812  10.975   0.583   7.454  1.4280 -0.0803 -0.1860
   88MOL0     H11813  10.533   0.730   7.374 -1.2381  0.1683 -0.3199
   88MOL0     H11814  10.299   0.722   7.387  0.8971  1.5510  1.8622
   88MOL0     H11815  10.113   0.621   7.317 -1.2902  2.2284  0.4117
   88MOL0     H11816  10.034   0.455   7.342 -1.4419  0.0534  2.2249
   88MOL0     H11817   9.971   0.694   7.512  0.4112 -0.9246  0.9882
   88MOL0     H11818   9.896   0.671   7.359 -1.5345 -0.0161 -0.2212
   88MOL0     H11819   9.748   0.532   7.522 -0.6707 -3.0835 -0.3019
   88MOL0     H11820   9.859   0.417   7.477 -1.4656 -0.8736  0.6209
   88MOL0     H11821   9.995   0.484   7.683  0.1240  0.5675  0.6087
   88MOL0     H11822   9.876   0.608   7.724 -0.8042 -0.1679  0.4177
   88MOL0     H11823   9.693   0.412   7.722 -0.3264  0.5489  1.1568
   88MOL0     H11824   9.847   0.311   7.713  1.6045 -0.0130  3.0854
   88MOL0     H11825   9.914   0.409   7.924 -0.1695  2.1846  2.1560
   88MOL0     H11826   9.775   0.521   7.914  0.5920  0.4819 -0.2864
   88MOL0     H11827   9.644   0.279   7.919  1.0725 -3.0718 -2.5485
   88MOL0     H11828   9.805   0.224   7.937  1.7430  1.5355 -1.4962
   88MOL0     H11829   9.770   0.444   8.134  0.7992 -0.3003 -0.9055
   88MOL0     H11830   9.831   0.278   8.160 -1.2610 -2.0092  1.4879
   88MOL0     H11831   9.653   0.122   8.301  0.2238 -0.3583  0.0250
   88MOL0     H11832   9.430   0.056   8.433 -1.6671 -2.1982 -1.5362
   88MOL0     H11833   9.318   0.194   8.455 -0.3812  0.0945 -1.4279
   88MOL0     H11834   9.334  -0.007   8.219  0.6270 -1.3574  1.5530
   88MOL0     H11835   9.207   0.122   8.236 -0.9570 -1.9651 -1.7360
   88MOL0     H11836   9.262  -0.111   8.434 -3.0148 -3.3753  0.3277
   88MOL0     H11837   9.150  -0.103   8.306  1.6860 -0.8623 -0.6594
   88MOL0     H11838   9.158   0.035   8.571 -1.3167 -0.2442  0.9742
   88MOL0     H11839   9.032  -0.076   8.512  0.8543 -0.3117 -0.0677
   88MOL0     H11840   8.845  -0.009   8.597  2.6128 -1.0737 -1.9595
   88MOL0     H11841   8.643  -0.094   8.665 -1.9150 -2.4109 -0.8604
   88MOL0     H11842   8.537   0.047   8.669 -1.8659 -1.1045 -0.5690
   88MOL0     H11843   8.510  -0.088   8.557  2.6142 -3.3055  1.3374
   88MOL0     H11844   8.186   0.137   8.383 -2.4404 -0.8243 -0.2544
   88MOL0     H11845   7.975   0.204   8.277 -0.8920  0.6427 -2.5048
   88MOL0     H11846   7.917   0.602   8.203  2.3254 -4.1807  1.6365
   88MOL0     H11847   7.902   0.567   8.023  3.1181  1.9971  1.0437
   88MOL0     H11848   7.696   0.667   8.114 -0.7761 -0.0165  0.4701
   88MOL0     H11849   7.660   0.490   8.091 -0.2202 -3.0624  2.6870
   88MOL0     H11850   7.714   0.652   8.337  0.1288 -0.5898  1.1374
   88MOL0     H11851   7.726   0.473   8.333 -1.6652 -1.1264  1.1816
   88MOL0     H11852   7.480   0.635   8.277 -2.3923 -0.4368  2.2634
   88MOL0     H11853   7.494   0.458   8.233  0.3993  0.1968  1.4810
   88MOL0     H11854   7.524   0.566   8.514 -0.6203  0.8727 -0.5414
   88MOL0     H11855   7.520   0.395   8.466 -1.2325  0.6182  3.9145
   88MOL0     H11856   7.272   0.579   8.455 -0.1761 -0.4367 -2.8530
   88MOL0     H11857   7.285   0.413   8.405 -0.8988 -2.1939  2.5619
   88MOL0     H11858   7.362   0.517   8.681  1.9032 -2.8465  1.2747
   88MOL0     H11859   7.353   0.349   8.634 -1.1219 -0.9180  0.1606
   88MOL0     H11860   7.103   0.372   8.591  0.5807 -0.3170  0.6149
   88MOL0     H11861   7.115   0.533   8.671  0.4493 -0.7132 -1.3232
   88MOL0     H11862   8.152   0.547   8.121  0.2095 -0.4744 -0.8893
   88MOL0     H11863   8.377   0.476   8.227  1.3175 -1.8369 -2.5035
   88MOL0     H11864   8.665   0.272   8.241  0.9879  0.8395  0.5024
   88MOL0     H11865   8.893   0.221   8.244  3.3610 -0.0309  2.3233
   88MOL0     H11866  10.307   0.358   7.606  1.3120  2.1624  2.4615
   88MOL0     H11867  10.547   0.349   7.566 -0.4829  0.5954  1.4284
   88MOL0     H11868  10.981   0.257   7.540 -0.8844 -0.1632 -0.8906
   88MOL0     H11869  11.232   0.311   7.550 -0.2201  0.0419 -0.3590
   88MOL0     H11870  11.403   0.345   7.423  0.8197 -0.1657 -0.1078
   88MOL0     H11871  11.519   0.473   7.390  0.2927 -1.4907 -0.4444
   88MOL0     H11872  11.476   0.350   7.668  2.1056 -2.4946 -0.4909
   88MOL0     H11873  11.507   0.518   7.655  1.0990  0.1998 -0.1089
   88MOL0     H11874  11.704   0.353   7.679  0.4596 -2.4227 -0.9776
   88MOL0     H11875  11.720   0.478   7.552 -0.5539 -0.0100  1.5515
   88MOL0     H11876  11.805   0.267   7.466 -0.7761 -1.1570  0.6259
   88MOL0     H11877  11.664   0.319   7.376  0.3037  0.3637 -0.1344
   88MOL0     H11878  11.500  -0.037   7.541 -1.8611  1.6731 -0.3973
   88MOL0     H11879  11.139   0.712   7.412  0.5261  2.0656  1.9599
   88MOL0     H11880  10.897   0.654   7.429  2.1768  0.5662 -0.7629
   89MOL0     O11881  10.342   3.475   7.397 -0.1347 -0.4026  0.0695
   89MOL0     C11882  10.343   3.523   7.280  0.6723  0.0982 -0.8667
   89MOL0     O11883  10.232   3.538   7.190  0.1821 -0.7444 -0.5107
   89MOL0     C11884  10.101   3.524   7.238 -0.5042 -0.2856 -1.0469
   89MOL0     C11885  10.063   3.526   7.368  0.4947  0.2623 -0.7114
   89MOL0     C11886   9.923   3.523   7.403 -0.3402 -0.3562  0.3811
   89MOL0     C11887   9.819   3.527   7.308 -0.0153  0.2584  0.0655
   89MOL0     O11888   9.685   3.540   7.327 -0.0969  0.0720  0.3915
   89MOL0     C11889   9.639   3.536   7.460 -0.0796  0.7013 -0.0764
   89MOL0     C11890   9.494   3.579   7.466  0.6157 -0.2518  0.5851
   89MOL0     C11891   9.481   3.739   7.436 -0.3377  0.1993 -0.7396
   89MOL0     C11892   9.333   3.775   7.414  0.4847  0.2005 -0.3843
   89MOL0     C11893   9.271   3.731   7.278 -0.1490  0.4718  0.7859
   89MOL0     C11894   9.136   3.793   7.272  0.5663 -0.6301 -0.8285
   89MOL0     C11895   9.070   3.771   7.130 -0.1995 -0.5689  0.9076
   89MOL0     C11896   8.922   3.819   7.134 -0.3653  0.4470  0.9316
   89MOL0     N11897   8.852   3.831   7.002 -0.7929 -0.3622 -0.6494
   89MOL0     C11898   8.775   3.942   6.972 -0.0765 -0.4158 -0.0195
   89MOL0     C11899   8.704   3.909   6.868  1.0223  0.6051  0.8466
   89MOL0     C11900   8.607   3.997   6.794  0.5059  0.0616 -0.6456
   89MOL0     C11901   8.466   3.986   6.858  0.2589  0.2099 -0.0735
   89MOL0     C11902   8.412   3.841   6.842  0.2462  0.7462 -0.4541
   89MOL0     C11903   8.404   3.799   6.680  0.1439 -0.0424 -0.0132
   89MOL0     O11904   8.315   3.886   6.596  0.7189  1.0141 -0.1788
   89MOL0     C11905   8.178   3.882   6.589 -0.7271  0.2519 -0.4482
   89MOL0     C11906   8.099   3.775   6.647  0.0726  0.2563 -0.0429
   89MOL0     C11907   7.962   3.757   6.615 -0.1454 -0.4769 -1.2050
   89MOL0     C11908   7.892   3.636   6.663  0.6066  0.4146  0.6781
   89MOL0     C11909   7.906   3.854   6.530 -0.7203  0.1168  0.3421
   89MOL0     C11910   7.768   3.834   6.484 -0.2980 -0.6745  0.7777
   89MOL0     O11911   7.745   3.740   6.396  0.5145  0.0945 -0.1213
   89MOL0     C11912   7.621   3.702   6.361  0.7885  0.8374  0.3651
   89MOL0     C11913   7.621   3.634   6.237  0.1214  0.0777 -0.3969
   89MOL0     C11914   7.503   3.581   6.185  0.6047  0.8814  0.3621
   89MOL0     C11915   7.386   3.580   6.260 -0.8725 -0.1823 -0.2601
   89MOL0     O11916   7.274   3.520   6.200 -0.4774 -0.6846 -0.9331
   89MOL0     C11917   7.149   3.578   6.220  0.8052 -0.1010 -0.3772
   89MOL0     C11918   7.044   3.488   6.159  0.4548 -0.6079 -0.6279
   89MOL0     C11919   6.901   3.524   6.213 -0.2968  0.2769 -0.2972
   89MOL0     C11920   6.783   3.445   6.143  0.4228  0.3732  0.0519
   89MOL0     C11921   6.641   3.500   6.149 -0.7742  0.8199 -0.3960
   89MOL0     C11922   6.578   3.485   6.290  0.0090  0.7236  0.0391
   89MOL0     C11923   6.427   3.518   6.286 -0.8130 -1.2792  0.9548
   89MOL0     C11924   6.383   3.516   6.435 -0.0802 -0.1039  0.3070
   89MOL0    Cl11925   6.443   3.662   6.526  0.1082  0.3736  0.1946
   89MOL0     C11926   7.384   3.652   6.383 -0.7259 -0.8510 -0.0353
   89MOL0     C11927   7.503   3.708   6.436  0.3857 -0.3588  0.4441
   89MOL0     O11928   7.689   3.925   6.513  0.0892 -0.1611 -1.1920
   89MOL0     C11929   7.988   3.955   6.471  0.5104  0.0749  0.1371
   89MOL0     C11930   8.118   3.973   6.507  0.1342 -0.1827  0.1094
   89MOL0     N11931   8.724   3.775   6.838 -0.1815  0.1128  0.6027
   89MOL0     N11932   8.822   3.727   6.914  0.8552 -0.3439 -0.1292
   89MOL0     C11933   9.863   3.526   7.172  0.2379 -0.2251  1.3212
   89MOL0     C11934   9.995   3.531   7.139  0.2147  1.0373 -0.6316
   89MOL0     C11935  10.475   3.563   7.230  0.6396  0.8040 -0.2323
   89MOL0     C11936  10.489   3.623   7.103  0.2438 -0.2230 -0.1643
   89MOL0     C11937  10.618   3.679   7.063 -1.3171 -0.1533 -0.7950
   89MOL0     C11938  10.734   3.653   7.142 -0.0296 -0.1168  0.2692
   89MOL0     O11939  10.854   3.676   7.091 -0.4237  0.0791  0.5566
   89MOL0     C11940  10.895   3.808   7.042 -0.6432  0.2527  0.2685
   89MOL0     C11941  10.945   3.885   7.166 -0.5563  1.1430  0.6777
   89MOL0     C11942  11.090   3.831   7.213 -0.5031 -0.1309 -0.0414
   89MOL0     C11943  11.122   3.857   7.357  0.1244 -0.5047 -0.3649
   89MOL0     C11944  11.266   3.819   7.370 -0.2249 -1.0434 -0.1317
   89MOL0     C11945  11.385   3.783   7.396  0.0550  0.4191 -0.0209
   89MOL0     C11946  10.717   3.592   7.259  0.1835  0.0868  0.1773
   89MOL0     C11947  10.597   3.545   7.307 -0.0581 -0.3809  0.1183
   89MOL0     H11948  10.133   3.538   7.451 -1.4094  0.8754  0.8838
   89MOL0     H11949   9.906   3.534   7.509 -1.3288  0.4816  0.1459
   89MOL0     H11950   9.646   3.438   7.508 -0.8830 -0.1301 -1.5859
   89MOL0     H11951   9.695   3.602   7.527 -0.1939  1.0408 -0.3119
   89MOL0     H11952   9.424   3.533   7.396  0.4750 -1.2393  1.3515
   89MOL0     H11953   9.452   3.550   7.563 -0.7484 -0.0101  0.0815
   89MOL0     H11954   9.514   3.784   7.530  0.6728  1.1452 -1.5306
   89MOL0     H11955   9.539   3.777   7.352 -0.7610  2.5305 -0.0653
   89MOL0     H11956   9.274   3.733   7.496 -1.5680  0.2650 -1.7815
   89MOL0     H11957   9.316   3.883   7.425 -0.8512  0.1439 -1.7276
   89MOL0     H11958   9.320   3.765   7.186 -2.6795 -0.3950 -1.0198
   89MOL0     H11959   9.259   3.622   7.267 -5.4776  0.9779 -1.3047
   89MOL0     H11960   9.073   3.757   7.353  0.9004  2.7300  1.0603
   89MOL0     H11961   9.142   3.900   7.293 -1.0530 -0.6441 -0.1726
   89MOL0     H11962   9.124   3.825   7.052 -1.0019 -1.2684 -0.1465
   89MOL0     H11963   9.064   3.665   7.105  2.0068 -0.9422  1.6705
   89MOL0     H11964   8.919   3.916   7.185  0.5946  1.9330 -1.6255
   89MOL0     H11965   8.883   3.748   7.207  1.8201 -0.3937  1.3527
   89MOL0     H11966   8.793   4.036   7.023 -0.3439  1.0312 -2.4224
   89MOL0     H11967   8.638   4.102   6.807  2.1404 -0.5450  0.7192
   89MOL0     H11968   8.621   3.987   6.686  2.5335 -1.1890 -0.3191
   89MOL0     H11969   8.399   4.054   6.805 -2.0103 -1.1087  0.9352
   89MOL0     H11970   8.468   4.007   6.966  1.1853  1.5908 -0.3354
   89MOL0     H11971   8.319   3.832   6.899 -0.3936  2.0804 -1.2257
   89MOL0     H11972   8.475   3.768   6.894  0.7084  1.5232  0.1023
   89MOL0     H11973   8.364   3.697   6.668 -0.4172  0.3071 -1.3161
   89MOL0     H11974   8.506   3.801   6.643  0.3567 -0.7745  0.4983
   89MOL0     H11975   8.147   3.705   6.714  0.6159  1.6341  1.0662
   89MOL0     H11976   7.879   3.563   6.583 -1.5984  1.2670  0.1814
   89MOL0     H11977   7.935   3.589   6.752  1.5650  2.4924  1.3745
   89MOL0     H11978   7.789   3.662   6.691 -0.3834 -0.6943 -1.6255
   89MOL0     H11979   7.708   3.640   6.173 -2.2541  0.2603 -3.9381
   89MOL0     H11980   7.495   3.543   6.084 -0.7496 -0.1979  0.8432
   89MOL0     H11981   7.135   3.571   6.329 -0.3640  0.6817 -0.4573
   89MOL0     H11982   7.143   3.678   6.177  1.7562 -0.9836 -2.7295
   89MOL0     H11983   7.054   3.493   6.050 -1.1529 -0.6343 -0.7949
   89MOL0     H11984   7.070   3.386   6.192  0.2326 -0.4436  0.0758
   89MOL0     H11985   6.881   3.631   6.207  5.3300  1.5245 -3.2658
   89MOL0     H11986   6.918   3.486   6.314  3.8015  0.0542 -0.9021
   89MOL0     H11987   6.813   3.418   6.041  0.8132 -0.5891  0.4105
   89MOL0     H11988   6.774   3.351   6.198  0.1002  1.7739  2.5519
   89MOL0     H11989   6.596   3.441   6.069 -2.0856  1.3420 -0.0680
   89MOL0     H11990   6.640   3.606   6.122 -2.5087  0.9490  0.1007
   89MOL0     H11991   6.586   3.380   6.320  2.8730 -0.3499 -3.7361
   89MOL0     H11992   6.627   3.548   6.365 -0.1431 -2.2992  2.9390
   89MOL0     H11993   6.364   3.449   6.230 -0.0829  0.9523 -2.9566
   89MOL0     H11994   6.414   3.617   6.243 -0.5313 -1.2925  0.8354
   89MOL0     H11995   6.409   3.426   6.491  0.5056  0.6817  1.3368
   89MOL0     H11996   6.275   3.532   6.433 -0.3744 -1.6934  1.5935
   89MOL0     H11997   7.287   3.660   6.431 -3.0968 -2.2589 -4.0778
   89MOL0     H11998   7.489   3.772   6.522  0.3578  0.1722  0.0486
   89MOL0     H11999   7.954   4.027   6.398 -2.0944 -1.5433 -0.3904
   89MOL0     H12000   8.183   4.047   6.460 -0.9898  0.5168 -0.3719
   89MOL0     H12001   9.805   3.517   7.081  1.2371 -1.3337  0.7700
   89MOL0     H12002  10.037   3.543   7.039  3.4845 -1.8438  0.1866
   89MOL0     H12003  10.409   3.628   7.029 -0.1098 -2.6241 -0.0024
   89MOL0     H12004  10.619   3.714   6.961  1.5467 -0.5259 -0.9895
   89MOL0     H12005  10.982   3.800   6.976 -0.7257 -1.2190  0.3034
   89MOL0     H12006  10.815   3.869   6.997  2.4451  2.5234 -2.6431
   89MOL0     H12007  10.872   3.890   7.247 -1.2564  1.6300  0.0375
   89MOL0     H12008  10.952   3.989   7.131 -1.1983  0.5173 -1.4618
   89MOL0     H12009  11.169   3.871   7.149  1.8071 -2.9564  0.8099
   89MOL0     H12010  11.091   3.724   7.189 -1.4817 -0.3456  0.7804
   89MOL0     H12011  11.053   3.798   7.419 -0.2728  1.0180  0.6897
   89MOL0     H12012  11.098   3.958   7.391 -0.3437 -1.6801  3.2628
   89MOL0     H12013  11.484   3.743   7.405  0.8465  0.6472 -4.8505
   89MOL0     H12014  10.809   3.570   7.313  0.7764  0.2697 -0.7251
   89MOL0     H12015  10.593   3.490   7.401 -5.9610  1.1899  1.2470
   90MOL0     O12016   2.158   0.351   9.405 -0.3001 -0.5447 -0.3029
   90MOL0     C12017   2.061   0.328   9.337  0.1219  0.3102 -0.1285
   90MOL0     O12018   1.966   0.413   9.280 -0.1859 -0.2205  0.1856
   90MOL0     C12019   1.990   0.545   9.273 -0.3930  0.2810 -0.0624
   90MOL0     C12020   2.103   0.598   9.204 -0.3929 -0.0426  0.0025
   90MOL0     C12021   2.121   0.733   9.181  1.3077  0.6217  1.1116
   90MOL0     C12022   2.020   0.819   9.233 -0.9667 -0.1410  0.2398
   90MOL0     O12023   2.009   0.954   9.216  0.0188 -0.0626 -0.5419
   90MOL0     C12024   2.101   1.029   9.133  0.3806  0.0128  0.5868
   90MOL0     C12025   2.224   1.056   9.212 -0.3392  0.6235  0.0350
   90MOL0     C12026   2.310   1.172   9.167 -0.3832  0.0647 -0.3520
   90MOL0     C12027   2.250   1.312   9.188  0.3050 -0.1895 -0.3685
   90MOL0     C12028   2.362   1.418   9.176 -0.0980 -0.4422 -0.5122
   90MOL0     C12029   2.299   1.557   9.219 -0.3036 -0.2359  0.3477
   90MOL0     C12030   2.413   1.656   9.239  0.7050  0.4291 -0.9386
   90MOL0     C12031   2.504   1.678   9.111  0.2915 -0.4450  0.1779
   90MOL0     N12032   2.596   1.793   9.121  0.8226  0.1211  0.8904
   90MOL0     C12033   2.693   1.801   9.023 -0.1199 -0.4469 -0.4192
   90MOL0     C12034   2.743   1.926   9.041 -0.3011  0.0969 -0.6262
   90MOL0     C12035   2.851   1.979   8.951  0.3668  0.1775  0.5185
   90MOL0     C12036   2.981   1.929   9.007  0.9571  0.0439  0.5564
   90MOL0     C12037   3.101   1.989   8.921  0.8494  0.4302 -0.5097
   90MOL0     C12038   3.232   1.964   8.988  0.5195  0.1176  0.5079
   90MOL0     O12039   3.338   1.943   8.891  0.5539 -0.9684  0.7084
   90MOL0     C12040   3.462   1.928   8.944 -0.5488  0.3218  0.1920
   90MOL0     C12041   3.494   1.904   9.077 -0.2207 -0.3251  0.4784
   90MOL0     C12042   3.629   1.899   9.118 -0.4254 -0.2191  0.5534
   90MOL0     C12043   3.650   1.865   9.261  0.6504  0.5176 -0.7266
   90MOL0     C12044   3.731   1.915   9.024 -0.1733  0.4790 -0.2300
   90MOL0     C12045   3.874   1.902   9.050 -0.1834 -0.6118  0.0259
   90MOL0     O12046   3.955   2.010   9.023  0.2525  0.0259 -0.3297
   90MOL0     C12047   4.086   1.990   9.060  0.7879 -0.3062 -0.4997
   90MOL0     C12048   4.191   1.987   8.963  0.2584 -0.3151 -0.6007
   90MOL0     C12049   4.320   1.972   9.010  0.1143 -0.0832 -0.5224
   90MOL0     C12050   4.362   1.943   9.138 -0.0226  0.5380  0.1437
   90MOL0     O12051   4.499   1.914   9.156  0.4317  0.4816 -0.6528
   90MOL0     C12052   4.543   1.886   9.290 -0.0969 -0.1701 -0.2246
   90MOL0     C12053   4.694   1.860   9.294 -0.0651 -1.1246 -0.3913
   90MOL0     C12054   4.750   1.840   9.439 -1.1319  0.2120 -0.3821
   90MOL0     C12055   4.904   1.813   9.466 -0.2395  0.4572 -0.3873
   90MOL0     C12056   4.946   1.801   9.610 -0.4132  0.2812 -0.1013
   90MOL0     C12057   5.088   1.763   9.637  0.3032  0.5520  0.5529
   90MOL0     C12058   5.107   1.737   9.791  0.4589 -0.3356  0.0967
   90MOL0     C12059   5.222   1.811   9.857  1.3119  0.6485  0.5647
   90MOL0    Cl12060   5.226   1.749  10.025 -0.1262 -0.2365  0.1263
   90MOL0     C12061   4.262   1.932   9.232 -0.0114  0.4689 -0.3132
   90MOL0     C12062   4.128   1.953   9.192  1.5118 -0.2053 -0.5965
   90MOL0     O12063   3.901   1.797   9.099  0.2497 -0.1882  0.7691
   90MOL0     C12064   3.701   1.927   8.895  0.9799  0.3838  0.5488
   90MOL0     C12065   3.569   1.941   8.857  0.7075 -0.2455 -0.0536
   90MOL0     N12066   2.684   1.982   9.152  0.6641 -0.5117 -0.4653
   90MOL0     N12067   2.589   1.907   9.196 -0.7877 -0.3888  0.2524
   90MOL0     C12068   1.914   0.766   9.309 -0.0423  0.0704  0.5239
   90MOL0     C12069   1.900   0.634   9.329 -0.4211  0.0587  0.3970
   90MOL0     C12070   2.015   0.182   9.317 -0.1217 -0.5722 -0.1002
   90MOL0     C12071   1.919   0.149   9.222  0.0238 -0.1760  0.9477
   90MOL0     C12072   1.880   0.014   9.210  0.4697 -0.0789  0.5538
   90MOL0     C12073   1.933  -0.089   9.283 -0.7070 -0.4200 -0.4414
   90MOL0     O12074   1.876  -0.206   9.249 -0.7844 -0.6160  0.1441
   90MOL0     C12075   1.908  -0.319   9.330 -0.3385  0.0569 -0.0714
   90MOL0     C12076   1.833  -0.448   9.315 -0.6999 -0.3356 -0.2921
   90MOL0     C12077   1.837  -0.515   9.170 -0.0954 -0.6394 -1.1094
   90MOL0     C12078   1.762  -0.636   9.148 -0.2356 -0.0895  0.0980
   90MOL0     C12079   1.622  -0.623   9.186 -0.2896 -0.0278  0.5330
   90MOL0     C12080   1.504  -0.626   9.211  0.2814  0.4854  0.5702
   90MOL0     C12081   2.033  -0.055   9.388  0.2476  0.6620  0.5392
   90MOL0     C12082   2.077   0.081   9.401 -0.3478  0.0948  0.4109
   90MOL0     H12083   2.188   0.534   9.185 -1.5957 -1.3675 -1.2770
   90MOL0     H12084   2.204   0.773   9.124 -1.2226  3.2961 -0.9815
   90MOL0     H12085   2.115   0.984   9.034  0.1433 -0.9281  0.9709
   90MOL0     H12086   2.056   1.127   9.118 -0.8651 -0.5668  0.4354
   90MOL0     H12087   2.186   1.073   9.313  1.4761  2.1877  0.5248
   90MOL0     H12088   2.281   0.963   9.210 -3.3129 -1.4112  2.0098
   90MOL0     H12089   2.396   1.167   9.235 -0.7695  1.4456  0.2831
   90MOL0     H12090   2.343   1.163   9.063  0.8172  1.1563 -0.0900
   90MOL0     H12091   2.167   1.339   9.123  0.9021  1.8254 -0.3469
   90MOL0     H12092   2.216   1.321   9.292 -0.9662  0.3254 -0.8133
   90MOL0     H12093   2.449   1.381   9.232  0.7004  0.7788 -0.9171
   90MOL0     H12094   2.381   1.420   9.069 -0.5428 -0.2048 -0.5895
   90MOL0     H12095   2.234   1.599   9.142 -2.1589  0.6263  2.2926
   90MOL0     H12096   2.240   1.551   9.311 -1.1872  0.5714 -0.1525
   90MOL0     H12097   2.369   1.753   9.266 -3.7652 -1.6892  0.3264
   90MOL0     H12098   2.467   1.612   9.323 -4.0287 -0.8491  1.7973
   90MOL0     H12099   2.439   1.694   9.025 -1.5472 -1.7308  1.2565
   90MOL0     H12100   2.564   1.588   9.093  0.9152 -0.0754  0.3730
   90MOL0     H12101   2.715   1.743   8.934  0.3506 -0.3737 -0.3542
   90MOL0     H12102   2.832   1.956   8.846  0.5434 -1.7453  0.8693
   90MOL0     H12103   2.857   2.088   8.962  0.7402  0.0768  1.4280
   90MOL0     H12104   2.975   1.820   8.995 -3.7724 -0.0652  2.0432
   90MOL0     H12105   2.993   1.955   9.113  1.3580 -1.3905  0.8994
   90MOL0     H12106   3.089   2.097   8.903 -0.5677  0.6264  1.2741
   90MOL0     H12107   3.108   1.938   8.824  2.7208 -2.8360  1.1774
   90MOL0     H12108   3.218   1.870   9.042 -1.2329  0.6075  0.9683
   90MOL0     H12109   3.276   2.041   9.052  3.7797 -2.0058  1.0911
   90MOL0     H12110   3.424   1.876   9.154 -3.1025  2.2090 -0.9838
   90MOL0     H12111   3.755   1.880   9.289  0.5762  1.1593 -0.7742
   90MOL0     H12112   3.594   1.936   9.323  1.6016  0.1323  0.6382
   90MOL0     H12113   3.631   1.762   9.293  1.2585  1.4441  3.1858
   90MOL0     H12114   4.157   2.011   8.863 -0.0404 -0.2274 -0.4821
   90MOL0     H12115   4.398   1.977   8.935 -0.7168  4.7590 -1.4073
   90MOL0     H12116   4.505   1.955   9.366  0.4148 -1.5220  1.3233
   90MOL0     H12117   4.490   1.792   9.305  1.2239 -0.8320  0.4364
   90MOL0     H12118   4.723   1.777   9.229  1.8047 -1.7309  1.1257
   90MOL0     H12119   4.747   1.946   9.250  1.3521 -2.0175 -0.4836
   90MOL0     H12120   4.706   1.752   9.487 -0.4667  0.5104  0.8197
   90MOL0     H12121   4.725   1.926   9.502 -0.8294  0.0006  0.0326
   90MOL0     H12122   4.936   1.722   9.415 -1.6700 -0.6693  0.6221
   90MOL0     H12123   4.962   1.900   9.436  1.9497 -0.1491  1.7523
   90MOL0     H12124   4.885   1.718   9.646 -2.1317  0.9414 -1.3492
   90MOL0     H12125   4.920   1.894   9.661 -2.9562  0.7094 -1.9553
   90MOL0     H12126   5.119   1.679   9.575 -1.3379 -0.4754  1.0805
   90MOL0     H12127   5.156   1.847   9.622  2.3137 -0.9294  0.9255
   90MOL0     H12128   5.127   1.629   9.801  0.2580 -0.4762 -0.9309
   90MOL0     H12129   5.017   1.769   9.844  1.6768  1.3346  1.2271
   90MOL0     H12130   5.205   1.919   9.851 -0.1158  0.4864  1.1760
   90MOL0     H12131   5.309   1.775   9.801 -1.8186 -1.3396 -3.5243
   90MOL0     H12132   4.288   1.903   9.333  0.4924  0.2430 -0.5040
   90MOL0     H12133   4.050   1.937   9.266  0.6446 -1.1747 -1.6806
   90MOL0     H12134   3.766   1.935   8.808 -1.3506  1.1900 -1.2222
   90MOL0     H12135   3.534   1.931   8.755 -1.1265  0.8470  0.4211
   90MOL0     H12136   1.845   0.843   9.341  0.4874  0.2635  1.2258
   90MOL0     H12137   1.807   0.610   9.381 -0.9250 -1.9475 -1.2996
   90MOL0     H12138   1.861   0.224   9.170  2.0841  0.8714  0.0800
   90MOL0     H12139   1.809  -0.011   9.133  0.3806 -0.9720  0.9127
   90MOL0     H12140   2.016  -0.338   9.320  0.0705  2.0587  0.1430
   90MOL0     H12141   1.890  -0.286   9.433 -0.3058 -3.9735  1.4039
   90MOL0     H12142   1.729  -0.428   9.341  0.2845  2.1798  2.1331
   90MOL0     H12143   1.874  -0.520   9.386  1.3655  0.8763 -0.1945
   90MOL0     H12144   1.942  -0.542   9.154 -0.4514 -4.2808  1.4879
   90MOL0     H12145   1.809  -0.440   9.095  0.9311  1.1617  0.2097
   90MOL0     H12146   1.799  -0.726   9.198 -1.8028 -0.6856  0.2659
   90MOL0     H12147   1.784  -0.664   9.044  1.2218 -1.9223  0.8353
   90MOL0     H12148   1.401  -0.612   9.239 -0.2727 -1.1268 -0.4924
   90MOL0     H12149   2.077  -0.125   9.458  1.1412  1.3630  0.6934
   90MOL0     H12150   2.150   0.104   9.478 -2.3705 -3.5399  3.8142
   91MOL0     O12151   8.137   8.849   2.264  0.2901  0.3387 -0.0426
   91MOL0     C12152   8.065   8.753   2.269 -0.2324  0.3564  0.6145
   91MOL0     O12153   8.066   8.651   2.181 -0.1937 -0.0179  0.8482
   91MOL0     C12154   8.153   8.641   2.069  0.7031 -0.1730  0.2372
   91MOL0     C12155   8.189   8.510   2.036  1.0716 -0.0410  0.0714
   91MOL0     C12156   8.270   8.486   1.929  0.6661 -0.8014  0.0775
   91MOL0     C12157   8.345   8.580   1.867 -0.2718 -0.4889  0.2197
   91MOL0     O12158   8.435   8.528   1.774  0.1330  0.4974  0.2067
   91MOL0     C12159   8.483   8.606   1.665 -0.8543  0.2519 -0.3999
   91MOL0     C12160   8.597   8.701   1.702  0.1648  0.1551  0.5878
   91MOL0     C12161   8.725   8.640   1.738  0.3304 -0.0757  0.3526
   91MOL0     C12162   8.851   8.735   1.732 -0.0088  0.0649  0.0484
   91MOL0     C12163   8.833   8.861   1.805  0.3573 -0.5684 -0.4334
   91MOL0     C12164   8.957   8.953   1.789 -0.1223  0.4316 -0.7386
   91MOL0     C12165   9.088   8.897   1.853 -0.6506 -0.3651 -0.1080
   91MOL0     C12166   9.217   8.974   1.828  0.6935 -0.4032  0.1971
   91MOL0     N12167   9.238   8.994   1.686 -0.5729 -0.2255  0.3238
   91MOL0     C12168   9.257   8.898   1.588 -0.2575 -1.3144 -0.4189
   91MOL0     C12169   9.250   8.968   1.471 -0.2558  0.6912  0.3437
   91MOL0     C12170   9.274   8.920   1.329 -0.7377  0.2617  0.4413
   91MOL0     C12171   9.342   9.015   1.233 -0.5889 -0.4080 -0.6765
   91MOL0     C12172   9.471   9.072   1.273 -0.3826 -0.6256  0.0927
   91MOL0     C12173   9.548   9.123   1.154  0.0538 -0.0149  0.5072
   91MOL0     O12174   9.683   9.138   1.209 -0.8663  0.2875  0.4514
   91MOL0     C12175   9.783   9.186   1.128 -0.4595 -0.3064  0.4796
   91MOL0     C12176   9.909   9.133   1.129 -0.8455  0.7060 -0.1036
   91MOL0     C12177  10.007   9.161   1.036 -0.0683  0.6423  0.3064
   91MOL0     C12178  10.136   9.090   1.045  0.3321 -0.3972 -0.3027
   91MOL0     C12179   9.971   9.246   0.925  1.0712  0.4296  0.4872
   91MOL0     C12180  10.052   9.297   0.810  0.2086 -0.6926  0.6939
   91MOL0     O12181  10.175   9.245   0.811  0.7958 -0.5139  0.0570
   91MOL0     C12182  10.285   9.272   0.736  0.0577 -0.0197  0.1603
   91MOL0     C12183  10.282   9.340   0.621 -0.1899 -0.0517 -1.0849
   91MOL0     C12184  10.391   9.374   0.552 -0.7363 -0.0403  0.1439
   91MOL0     C12185  10.517   9.330   0.593 -0.5014  0.6514  0.4148
   91MOL0     O12186  10.632   9.360   0.530 -0.0412  1.0368  0.1192
   91MOL0     C12187  10.635   9.459   0.431 -0.2770 -0.4036  0.2109
   91MOL0     C12188  10.782   9.467   0.390  0.3361  0.3670 -0.7937
   91MOL0     C12189  10.793   9.570   0.271  0.1558  0.9020 -1.2380
   91MOL0     C12190  10.939   9.621   0.258 -0.4021  0.1606  0.4306
   91MOL0     C12191  10.963   9.692   0.116  0.5186 -0.4730 -0.7823
   91MOL0     C12192  10.864   9.807   0.089  0.2482  0.0125  0.0895
   91MOL0     C12193  10.894   9.868  -0.052 -0.9471  0.1556  0.3760
   91MOL0     C12194  10.821   9.787  -0.168 -0.4838 -0.4446  1.1798
   91MOL0    Cl12195  10.639   9.810  -0.172 -0.2157 -0.3310 -0.3140
   91MOL0     C12196  10.519   9.250   0.710 -0.1214  0.6694  0.1256
   91MOL0     C12197  10.406   9.214   0.780 -0.4517 -1.0770  0.0337
   91MOL0     O12198  10.023   9.398   0.743 -0.5616  0.0736 -0.2010
   91MOL0     C12199   9.832   9.288   0.924  0.7856 -0.3949 -0.2544
   91MOL0     C12200   9.744   9.262   1.021  0.1251 -0.2256  0.0046
   91MOL0     N12201   9.234   9.109   1.499  0.0460 -0.0628  0.2766
   91MOL0     N12202   9.233   9.116   1.630  0.4536  0.2372  0.0066
   91MOL0     C12203   8.311   8.718   1.893 -0.3137 -0.4531 -0.2126
   91MOL0     C12204   8.204   8.740   1.989 -0.3909 -0.0234  0.1192
   91MOL0     C12205   7.970   8.748   2.369  0.4191 -0.4649 -0.3244
   91MOL0     C12206   7.872   8.646   2.369 -0.0639  0.3148  0.3680
   91MOL0     C12207   7.765   8.653   2.456  0.8321  0.7715 -0.2374
   91MOL0     C12208   7.737   8.773   2.525 -0.3901 -0.7552  1.1035
   91MOL0     O12209   7.633   8.789   2.606 -0.1593 -0.0435 -0.6313
   91MOL0     C12210   7.503   8.771   2.541  0.8213 -0.0383  0.7008
   91MOL0     C12211   7.393   8.823   2.630  0.4695  0.0048 -0.2431
   91MOL0     C12212   7.370   8.739   2.753  0.2492  0.2275 -1.1215
   91MOL0     C12213   7.280   8.788   2.866 -0.1009 -0.0737 -0.5454
   91MOL0     C12214   7.142   8.804   2.825 -0.0283  0.0213 -0.7791
   91MOL0     C12215   7.027   8.816   2.787  0.1350 -0.5286 -0.8707
   91MOL0     C12216   7.828   8.878   2.524  0.7896 -0.6100 -0.3097
   91MOL0     C12217   7.935   8.862   2.440 -0.0282  0.5983 -0.7442
   91MOL0     H12218   8.143   8.422   2.081 -1.2511  0.2352 -1.5985
   91MOL0     H12219   8.288   8.382   1.903 -1.1183 -0.5881 -2.3666
   91MOL0     H12220   8.522   8.540   1.587  1.3400  2.7335 -1.5458
   91MOL0     H12221   8.395   8.654   1.620 -1.6876 -1.6911 -0.9842
   91MOL0     H12222   8.609   8.758   1.609 -0.9633 -0.7986 -0.1749
   91MOL0     H12223   8.551   8.775   1.767 -0.3291  1.0323 -0.7059
   91MOL0     H12224   8.727   8.589   1.835 -1.1401 -0.9074 -0.0302
   91MOL0     H12225   8.734   8.566   1.658 -1.5575  3.2555 -3.2756
   91MOL0     H12226   8.933   8.674   1.771  0.1390 -0.1440 -0.5801
   91MOL0     H12227   8.880   8.763   1.630  1.0321 -2.6950 -0.4789
   91MOL0     H12228   8.751   8.910   1.751  1.0310  0.1507 -0.8325
   91MOL0     H12229   8.812   8.837   1.909  1.8431 -0.1432 -0.0218
   91MOL0     H12230   8.981   8.960   1.683  3.2875 -3.4350 -0.4638
   91MOL0     H12231   8.934   9.052   1.831  0.7988 -0.5974  2.4976
   91MOL0     H12232   9.061   8.897   1.959  2.0193 -0.6494  0.6534
   91MOL0     H12233   9.112   8.793   1.829 -0.7816 -0.4501  0.1276
   91MOL0     H12234   9.306   8.925   1.868  1.6774  1.3804  0.2976
   91MOL0     H12235   9.210   9.072   1.877  1.1955  1.1444 -2.6283
   91MOL0     H12236   9.271   8.791   1.598  0.5325 -1.3617 -1.7597
   91MOL0     H12237   9.338   8.832   1.325  0.8466  1.4162 -1.8657
   91MOL0     H12238   9.170   8.897   1.302 -0.5262 -0.0298 -0.1242
   91MOL0     H12239   9.284   9.105   1.209  3.4259  2.1630 -1.5881
   91MOL0     H12240   9.350   8.954   1.143 -0.2655 -2.8843  0.9171
   91MOL0     H12241   9.531   8.989   1.311 -0.3495 -1.4993 -1.7476
   91MOL0     H12242   9.463   9.145   1.354  0.8755 -0.9042  0.4829
   91MOL0     H12243   9.496   9.216   1.131 -1.8863 -0.5149  2.5603
   91MOL0     H12244   9.540   9.051   1.072  0.5935  2.0109 -1.4295
   91MOL0     H12245   9.939   9.054   1.197  1.4479 -0.3217 -2.1098
   91MOL0     H12246  10.142   9.021   0.960  2.0778 -2.0648  1.0692
   91MOL0     H12247  10.221   9.157   1.054  0.6587 -0.9675  0.9872
   91MOL0     H12248  10.141   9.035   1.139 -1.6914 -0.1854 -0.0241
   91MOL0     H12249  10.188   9.380   0.583  0.0921 -0.7590 -2.6024
   91MOL0     H12250  10.373   9.433   0.462  0.0053  0.6568  0.4454
   91MOL0     H12251  10.573   9.433   0.345  2.4141  0.4335 -2.1398
   91MOL0     H12252  10.603   9.559   0.459  0.0043 -0.3010  0.1707
   91MOL0     H12253  10.848   9.509   0.466  2.1163 -1.6244 -1.1325
   91MOL0     H12254  10.815   9.369   0.354 -2.0109 -1.0934  0.7384
   91MOL0     H12255  10.731   9.658   0.293  1.8453  2.0809 -1.0234
   91MOL0     H12256  10.763   9.527   0.175 -3.4697  1.7417 -0.6316
   91MOL0     H12257  10.965   9.689   0.340  0.7709 -0.6812  0.7876
   91MOL0     H12258  11.008   9.538   0.275  0.4969  0.6964 -0.4542
   91MOL0     H12259  10.950   9.617   0.037  1.7563 -4.1486  2.2117
   91MOL0     H12260  11.066   9.724   0.100  0.5375 -1.0591 -1.9352
   91MOL0     H12261  10.760   9.774   0.096 -0.5584  2.3920  0.4550
   91MOL0     H12262  10.871   9.874   0.175  0.0246 -0.5500  0.5519
   91MOL0     H12263  11.002   9.870  -0.071 -1.4723 -0.4489 -3.7315
   91MOL0     H12264  10.864   9.972  -0.043 -0.5010  0.1160  3.2375
   91MOL0     H12265  10.847   9.681  -0.165  5.3992  0.6932  1.6502
   91MOL0     H12266  10.855   9.821  -0.266 -2.6026  0.1171  0.5872
   91MOL0     H12267  10.618   9.210   0.727 -0.0557 -0.3230 -2.2281
   91MOL0     H12268  10.397   9.162   0.875 -4.1285 -0.6488  0.0724
   91MOL0     H12269   9.808   9.352   0.840 -0.8858 -0.0355  0.4579
   91MOL0     H12270   9.643   9.301   1.020  0.2523  0.3065  2.0636
   91MOL0     H12271   8.345   8.806   1.841 -0.9615  2.5810  3.9804
   91MOL0     H12272   8.171   8.843   1.997 -1.7105 -0.1097 -2.9914
   91MOL0     H12273   7.883   8.561   2.301  4.3187  1.2167 -0.3759
   91MOL0     H12274   7.691   8.573   2.461 -3.7103  4.5476 -0.4398
   91MOL0     H12275   7.513   8.836   2.454  0.5228 -1.9523 -0.8560
   91MOL0     H12276   7.477   8.668   2.511 -2.6451  0.3444  1.9330
   91MOL0     H12277   7.301   8.835   2.572 -0.8920  1.0141  1.9618
   91MOL0     H12278   7.440   8.918   2.660  1.8055 -0.3504 -1.1509
   91MOL0     H12279   7.470   8.733   2.796 -0.5988  0.9545  1.0784
   91MOL0     H12280   7.346   8.634   2.735 -1.6340  0.4463 -0.1752
   91MOL0     H12281   7.314   8.885   2.902 -0.3396  0.0400 -0.6299
   91MOL0     H12282   7.295   8.712   2.944  1.0927  0.8899  0.1840
   91MOL0     H12283   6.927   8.806   2.751 -0.8094  1.3486  1.0526
   91MOL0     H12284   7.824   8.967   2.586  0.5322 -0.2516 -0.8256
   91MOL0     H12285   7.997   8.952   2.439 -2.3680  2.2946 -0.6270
   92MOL0     O12286  10.200  10.708   7.477  0.2227  0.3461  0.3603
   92MOL0     C12287  10.285  10.713   7.564 -0.2722  0.2658 -0.0795
   92MOL0     O12288  10.263  10.699   7.696  0.3991  0.1090  0.2375
   92MOL0     C12289  10.148  10.651   7.758 -1.1389 -0.4773  0.5180
   92MOL0     C12290  10.077  10.556   7.695  0.6235 -0.0750 -0.0187
   92MOL0     C12291   9.962  10.506   7.749 -0.3518 -0.7429 -0.4754
   92MOL0     C12292   9.919  10.551   7.871 -0.2186  0.5128 -0.4254
   92MOL0     O12293   9.805  10.509   7.929 -0.0746 -0.7779  0.8063
   92MOL0     C12294   9.694  10.498   7.842  0.0580  0.0788  0.1008
   92MOL0     C12295   9.558  10.501   7.904 -0.5349 -0.3691  0.1728
   92MOL0     C12296   9.544  10.641   7.976 -0.1074  0.5379 -0.0911
   92MOL0     C12297   9.504  10.749   7.874 -0.4374  0.4887  0.2794
   92MOL0     C12298   9.475  10.881   7.953 -0.4655  0.6102  0.2580
   92MOL0     C12299   9.428  10.980   7.840  0.1394  0.1800  0.3277
   92MOL0     C12300   9.390  11.114   7.918 -0.3286  0.6928  0.0061
   92MOL0     C12301   9.250  11.126   7.985 -0.2621  0.3601 -0.2183
   92MOL0     N12302   9.142  11.095   7.885  0.3281 -0.0200  0.2685
   92MOL0     C12303   9.090  11.194   7.800 -0.5379 -0.4828 -0.0836
   92MOL0     C12304   8.999  11.130   7.724 -0.3664  0.3273 -0.8740
   92MOL0     C12305   8.911  11.190   7.621  0.2815  0.0812  0.1285
   92MOL0     C12306   8.768  11.150   7.651 -0.3154 -0.1636  0.4964
   92MOL0     C12307   8.673  11.207   7.546  0.7538 -0.0861  0.4443
   92MOL0     C12308   8.522  11.205   7.585 -0.4021  0.0390 -0.1227
   92MOL0     O12309   8.458  11.334   7.561 -0.0866  0.6706  0.4028
   92MOL0     C12310   8.332  11.323   7.508  0.5405  0.8102  0.0823
   92MOL0     C12311   8.282  11.428   7.422 -0.4031  0.2104  0.6920
   92MOL0     C12312   8.143  11.447   7.401  0.1496  0.3755  0.4568
   92MOL0     C12313   8.113  11.551   7.304 -1.2221 -0.8927  0.6044
   92MOL0     C12314   8.049  11.361   7.468 -0.8068  0.1504 -0.0079
   92MOL0     C12315   7.902  11.371   7.452  0.1364  0.6581  0.4303
   92MOL0     O12316   7.870  11.412   7.323  0.3588  0.3841  0.3646
   92MOL0     C12317   7.742  11.440   7.287 -0.4239  1.2337 -0.1340
   92MOL0     C12318   7.725  11.533   7.188 -0.2101 -1.0263  0.0861
   92MOL0     C12319   7.603  11.549   7.121 -0.6094 -1.1649  0.1709
   92MOL0     C12320   7.488  11.476   7.150  0.0320  0.4209  0.2484
   92MOL0     O12321   7.379  11.500   7.072  0.8449 -0.2162  0.1452
   92MOL0     C12322   7.251  11.445   7.103  0.5841  0.2834 -0.1914
   92MOL0     C12323   7.143  11.519   7.038 -0.1633 -0.1004 -0.1125
   92MOL0     C12324   7.145  11.508   6.888 -0.2145 -0.0121 -0.0069
   92MOL0     C12325   7.045  11.608   6.825 -0.5238  0.4075 -1.1417
   92MOL0     C12326   7.023  11.601   6.670 -0.2000  0.4836  0.0223
   92MOL0     C12327   6.887  11.658   6.628  1.6313 -0.6092 -1.0829
   92MOL0     C12328   6.861  11.656   6.477  0.5279 -0.1212  0.3626
   92MOL0     C12329   6.759  11.539   6.441 -0.0660 -0.6242  0.4282
   92MOL0    Cl12330   6.612  11.544   6.537 -0.2136  0.5319 -0.2169
   92MOL0     C12331   7.508  11.368   7.245 -0.0384 -0.3539  0.0205
   92MOL0     C12332   7.634  11.354   7.315  0.2397  0.3986  0.1538
   92MOL0     O12333   7.822  11.344   7.541  0.3724  0.6833  0.5318
   92MOL0     C12334   8.101  11.263   7.550 -0.8223  0.6819  0.0028
   92MOL0     C12335   8.242  11.238   7.571  0.5694  0.4727  0.6075
   92MOL0     N12336   9.002  10.997   7.761  0.8267  0.2608  0.6331
   92MOL0     N12337   9.087  10.975   7.855 -0.6445  0.1144 -0.3779
   92MOL0     C12338   9.988  10.651   7.943  0.2191 -0.3831 -0.2064
   92MOL0     C12339  10.102  10.703   7.886 -0.9771  1.5309  0.7117
   92MOL0     C12340  10.420  10.746   7.511  1.1521 -0.6438  0.3529
   92MOL0     C12341  10.528  10.744   7.594  0.4399  0.1219  0.0301
   92MOL0     C12342  10.656  10.787   7.545 -0.8329 -0.0355 -0.1731
   92MOL0     C12343  10.675  10.814   7.407  0.4355 -0.8340  0.2533
   92MOL0     O12344  10.810  10.839   7.366 -0.2477 -0.6525 -0.2437
   92MOL0     C12345  10.835  10.834   7.228  0.4208  0.4657 -0.0955
   92MOL0     C12346  10.982  10.818   7.206 -0.4815  0.6408 -0.3944
   92MOL0     C12347  11.083  10.914   7.266 -0.3153  0.9468  0.7165
   92MOL0     C12348  11.041  11.054   7.235 -0.6718  0.1740 -0.6423
   92MOL0     C12349  11.136  11.144   7.291  0.3755 -1.3638 -0.7547
   92MOL0     C12350  11.217  11.223   7.316 -0.1345 -0.0220 -0.0212
   92MOL0     C12351  10.561  10.803   7.322 -0.7372 -0.3923  0.3771
   92MOL0     C12352  10.441  10.769   7.372 -0.5509 -0.6308  0.1108
   92MOL0     H12353  10.105  10.527   7.594 -2.8074  1.7477 -1.6695
   92MOL0     H12354   9.914  10.427   7.693  1.0782  0.1119 -3.1137
   92MOL0     H12355   9.694  10.585   7.776 -0.9462 -1.3982 -1.9834
   92MOL0     H12356   9.703  10.411   7.776  0.6847  0.3001 -0.1020
   92MOL0     H12357   9.488  10.487   7.821 -0.0484  1.2357 -0.5384
   92MOL0     H12358   9.554  10.416   7.973  0.9780 -2.5065 -2.1791
   92MOL0     H12359   9.464  10.643   8.050  1.1251  3.5934  1.3549
   92MOL0     H12360   9.634  10.669   8.032 -2.0828  1.2703  2.9186
   92MOL0     H12361   9.590  10.758   7.807  0.5022 -0.8665  1.2332
   92MOL0     H12362   9.418  10.714   7.816  0.0617 -1.8728  0.8293
   92MOL0     H12363   9.389  10.864   8.018 -0.3838 -0.5657  0.0679
   92MOL0     H12364   9.558  10.928   8.006 -0.2307  1.8872 -1.1499
   92MOL0     H12365   9.507  10.984   7.764  0.7883  0.5239  1.0049
   92MOL0     H12366   9.338  10.942   7.791  0.1071 -1.3863  1.5388
   92MOL0     H12367   9.468  11.141   7.990  0.5761  1.8950 -1.3628
   92MOL0     H12368   9.385  11.191   7.841 -1.2341 -0.5376 -1.1954
   92MOL0     H12369   9.237  11.233   7.999 -2.2913  0.2305 -0.7597
   92MOL0     H12370   9.233  11.077   8.081  0.6740  0.2654 -0.0995
   92MOL0     H12371   9.122  11.298   7.801  0.9642 -0.8389 -2.6241
   92MOL0     H12372   8.924  11.297   7.635  2.5369 -0.0456 -0.6911
   92MOL0     H12373   8.930  11.158   7.518 -0.2747 -1.2262  0.4082
   92MOL0     H12374   8.739  11.182   7.751 -3.0235  0.4004 -0.3810
   92MOL0     H12375   8.753  11.042   7.658  0.7799 -0.6529 -2.7580
   92MOL0     H12376   8.672  11.147   7.455  1.5965 -0.2571  0.5402
   92MOL0     H12377   8.703  11.303   7.504 -1.5249  0.3688 -0.2934
   92MOL0     H12378   8.497  11.191   7.690  1.7085 -3.0878  0.0899
   92MOL0     H12379   8.467  11.128   7.532  0.5968 -2.2691  2.0087
   92MOL0     H12380   8.358  11.495   7.384 -0.2508 -0.0400  0.5515
   92MOL0     H12381   8.063  11.520   7.211 -1.8411  2.7238 -0.4494
   92MOL0     H12382   8.048  11.628   7.346  0.6563 -0.2564  2.4888
   92MOL0     H12383   8.206  11.601   7.275 -1.6707  1.5466  3.0144
   92MOL0     H12384   7.804  11.597   7.152 -2.4498  1.8371 -0.1239
   92MOL0     H12385   7.606  11.624   7.042 -1.4008 -0.0306  1.1834
   92MOL0     H12386   7.249  11.339   7.075  2.8684 -0.1319  0.9544
   92MOL0     H12387   7.244  11.453   7.212  0.5691  2.4539 -0.3007
   92MOL0     H12388   7.044  11.483   7.066 -0.2181 -0.9431 -1.2893
   92MOL0     H12389   7.139  11.622   7.076 -3.3046 -0.1475 -0.0537
   92MOL0     H12390   7.132  11.405   6.853  1.0332 -0.7923  1.7014
   92MOL0     H12391   7.243  11.539   6.850 -0.7439 -0.3430 -1.7589
   92MOL0     H12392   6.949  11.606   6.877 -0.2232  2.1017 -0.4685
   92MOL0     H12393   7.079  11.710   6.846 -0.7216  0.4071 -0.8124
   92MOL0     H12394   7.030  11.494   6.644  0.4914 -0.3070  3.1133
   92MOL0     H12395   7.098  11.662   6.619 -0.3054  0.2102 -0.4675
   92MOL0     H12396   6.814  11.613   6.696  1.3684  2.7344  1.0668
   92MOL0     H12397   6.887  11.763   6.659 -2.7559 -0.1711 -2.0022
   92MOL0     H12398   6.951  11.652   6.415  1.6543  1.5371  1.7974
   92MOL0     H12399   6.813  11.748   6.442 -3.4061 -1.5019  1.6720
   92MOL0     H12400   6.802  11.442   6.469 -2.0982 -1.2108  1.7697
   92MOL0     H12401   6.746  11.539   6.332  1.2496 -2.6718  0.2060
   92MOL0     H12402   7.441  11.282   7.246 -0.7801  0.2213  0.2713
   92MOL0     H12403   7.661  11.271   7.379  1.1303  1.8504  1.7382
   92MOL0     H12404   8.030  11.206   7.609  0.5910 -1.4589 -0.2312
   92MOL0     H12405   8.280  11.167   7.644  0.2364 -2.6946 -2.0572
   92MOL0     H12406   9.932  10.687   8.028 -2.3705 -0.9058 -1.6028
   92MOL0     H12407  10.166  10.777   7.932 -0.4213  1.0726  0.6879
   92MOL0     H12408  10.514  10.726   7.700  0.5389  1.9777  0.3878
   92MOL0     H12409  10.745  10.793   7.606  1.0964 -0.8425 -2.7299
   92MOL0     H12410  10.796  10.745   7.177  0.5737 -1.5868  3.0619
   92MOL0     H12411  10.802  10.924   7.175  1.0722 -0.2848 -1.8570
   92MOL0     H12412  11.006  10.821   7.099 -1.2208 -0.1701 -0.5922
   92MOL0     H12413  11.006  10.717   7.240 -2.4566  1.3428  3.7369
   92MOL0     H12414  11.181  10.881   7.230 -1.3349 -2.5960  0.7898
   92MOL0     H12415  11.083  10.908   7.375  2.4783  1.7900  0.8365
   92MOL0     H12416  10.938  11.072   7.266 -0.7910  1.2036 -1.5753
   92MOL0     H12417  11.044  11.079   7.128  2.7091  1.0679 -0.4508
   92MOL0     H12418  11.303  11.284   7.334 -0.1684  0.7079 -2.0238
   92MOL0     H12419  10.585  10.824   7.218 -0.7503 -0.0475  0.4432
   92MOL0     H12420  10.356  10.763   7.304  0.3292 -0.1653 -1.0717
   93MOL0     O12421  10.675  11.309  10.012 -0.3866  0.3271 -0.1355
   93MOL0     C12422  10.587  11.397   9.988 -0.0179 -0.4111 -0.0473
   93MOL0     O12423  10.620  11.512   9.929  0.2826 -0.1870 -0.1621
   93MOL0     C12424  10.739  11.525   9.870  0.4955  0.6147  0.0418
   93MOL0     C12425  10.779  11.433   9.773  0.4065 -0.1102 -0.0967
   93MOL0     C12426  10.910  11.446   9.721  0.0265 -0.4430  0.9481
   93MOL0     C12427  10.991  11.553   9.755 -0.3199  0.4708 -0.5269
   93MOL0     O12428  11.126  11.551   9.713 -0.0909  0.4774  0.4024
   93MOL0     C12429  11.201  11.440   9.760  0.5601  0.3014  0.9788
   93MOL0     C12430  11.252  11.362   9.629 -0.8553  0.4498  0.9243
   93MOL0     C12431  11.366  11.429   9.552  0.3864  0.2267  0.1192
   93MOL0     C12432  11.398  11.375   9.414  0.3747  0.5022 -0.7328
   93MOL0     C12433  11.515  11.435   9.342  0.8445  0.5382 -0.8369
   93MOL0     C12434  11.529  11.348   9.213  0.1901  0.1190 -0.4648
   93MOL0     C12435  11.584  11.411   9.087  0.7966  0.3975  0.0623
   93MOL0     C12436  11.731  11.425   9.096 -0.4052 -0.3442  0.3261
   93MOL0     N12437  11.777  11.489   8.974 -0.9201  0.6604  0.4868
   93MOL0     C12438  11.831  11.615   8.962  0.7301 -0.1333 -0.0574
   93MOL0     C12439  11.884  11.625   8.836 -0.1448 -0.9389 -1.1862
   93MOL0     C12440  11.980  11.733   8.799 -0.1579 -0.6918  0.4720
   93MOL0     C12441  11.978  11.749   8.644 -0.0535 -0.6075 -0.1248
   93MOL0     C12442  12.082  11.854   8.608  0.5989  0.0439 -0.2791
   93MOL0     C12443  12.060  11.902   8.465  0.3420 -0.1476  0.0927
   93MOL0     O12444  12.183  11.955   8.407  0.7656  0.2037  0.0622
   93MOL0     C12445  12.241  12.079   8.451  0.8074 -0.1266  0.1867
   93MOL0     C12446  12.175  12.160   8.541 -0.2410  0.0052 -0.6406
   93MOL0     C12447  12.234  12.275   8.602  0.3742 -0.3689  0.2120
   93MOL0     C12448  12.145  12.357   8.694 -0.4495 -0.3153 -0.7268
   93MOL0     C12449  12.371  12.306   8.569  0.3994 -0.2542 -0.1790
   93MOL0     C12450  12.441  12.426   8.615  0.7128 -0.1225  0.2129
   93MOL0     O12451  12.383  12.547   8.630 -0.3696  0.1248 -0.7228
   93MOL0     C12452  12.456  12.660   8.671  0.3918  0.3737 -0.5603
   93MOL0     C12453  12.418  12.780   8.609  0.3169 -0.4504  0.2335
   93MOL0     C12454  12.469  12.898   8.646 -0.4488  0.3107  0.4303
   93MOL0     C12455  12.558  12.906   8.760  0.7635 -0.3738  0.1447
   93MOL0     O12456  12.608  13.031   8.790  0.5893 -0.6592 -0.3455
   93MOL0     C12457  12.683  13.063   8.912  0.6809  0.2160  0.5779
   93MOL0     C12458  12.829  13.020   8.904 -0.9785  0.2624  0.0468
   93MOL0     C12459  12.909  13.121   8.814 -0.0810 -0.0176 -0.3285
   93MOL0     C12460  13.061  13.087   8.810  0.5781  0.4797 -0.1086
   93MOL0     C12461  13.095  12.939   8.792 -0.0551 -0.9626  1.0768
   93MOL0     C12462  13.243  12.926   8.787 -0.6508 -0.2403 -0.1280
   93MOL0     C12463  13.281  12.776   8.802  0.0374  0.4548 -0.1569
   93MOL0     C12464  13.425  12.764   8.824 -0.2899 -0.5353  0.1766
   93MOL0    Cl12465  13.457  12.592   8.838  0.4734  0.1234 -0.0970
   93MOL0     C12466  12.571  12.795   8.834 -0.1100  0.6971 -0.3543
   93MOL0     C12467  12.531  12.672   8.787  0.2429  0.1121 -0.2046
   93MOL0     O12468  12.566  12.415   8.625  1.0349 -0.1174  0.0903
   93MOL0     C12469  12.439  12.214   8.482 -0.3607 -0.0842  0.5114
   93MOL0     C12470  12.376  12.098   8.427  0.4850 -0.0542  0.5662
   93MOL0     N12471  11.853  11.503   8.774 -0.2055  0.0834  0.2610
   93MOL0     N12472  11.795  11.421   8.856  0.1009 -0.4651 -0.5431
   93MOL0     C12473  10.942  11.655   9.843 -0.4137 -0.6651 -0.0158
   93MOL0     C12474  10.822  11.635   9.912 -0.4675 -0.0774  0.3670
   93MOL0     C12475  10.448  11.371  10.028 -0.6120 -0.4296 -0.8053
   93MOL0     C12476  10.349  11.423   9.959  0.4164 -0.4869  0.5723
   93MOL0     C12477  10.217  11.404   9.988  0.5629  0.2293 -0.2038
   93MOL0     C12478  10.182  11.320  10.096  0.0846  0.1826 -0.3776
   93MOL0     O12479  10.050  11.278  10.136  0.5474  0.5329  0.2421
   93MOL0     C12480   9.940  11.325  10.063  0.5752 -0.0871  0.1346
   93MOL0     C12481   9.820  11.262  10.135 -0.0621 -0.9981  0.5115
   93MOL0     C12482   9.695  11.326  10.062 -0.1288 -0.0500 -0.8893
   93MOL0     C12483   9.559  11.304  10.137  0.4464 -0.5175  0.2526
   93MOL0     C12484   9.537  11.160  10.153 -0.6821  0.9984 -0.3466
   93MOL0     C12485   9.511  11.039  10.170  0.0612  0.0905  0.5769
   93MOL0     C12486  10.289  11.252  10.154  0.1758  0.1154 -1.2640
   93MOL0     C12487  10.421  11.284  10.132 -0.4932 -0.5006  0.7322
   93MOL0     H12488  10.728  11.343   9.741 -0.0868  0.5898 -1.3752
   93MOL0     H12489  10.946  11.360   9.667  1.7113 -1.0327  2.8774
   93MOL0     H12490  11.277  11.492   9.818  0.7755  2.5002 -1.0993
   93MOL0     H12491  11.141  11.373   9.821  2.4368 -1.5205  0.9256
   93MOL0     H12492  11.284  11.268   9.674 -0.2121  1.1836  2.0395
   93MOL0     H12493  11.181  11.329   9.553 -0.0983 -0.9143  0.7752
   93MOL0     H12494  11.339  11.534   9.534 -2.0699 -0.6146 -1.6144
   93MOL0     H12495  11.455  11.408   9.611  0.6319  0.9983  0.0370
   93MOL0     H12496  11.408  11.267   9.428 -0.3705  0.7247  1.9923
   93MOL0     H12497  11.312  11.394   9.349 -0.2111 -1.4061 -0.5709
   93MOL0     H12498  11.512  11.541   9.315 -1.3972  1.4193  2.2826
   93MOL0     H12499  11.605  11.423   9.404 -0.0561  2.7793  1.0340
   93MOL0     H12500  11.593  11.261   9.233  2.1302  2.0118  2.2637
   93MOL0     H12501  11.430  11.307   9.189  0.2806 -0.4055  0.0272
   93MOL0     H12502  11.553  11.342   9.008 -0.1063  2.6369 -1.6511
   93MOL0     H12503  11.526  11.503   9.070  1.3848  0.3502 -2.4945
   93MOL0     H12504  11.774  11.325   9.107 -2.5445 -1.2768  0.8254
   93MOL0     H12505  11.765  11.493   9.175  0.4629  1.6521 -1.6605
   93MOL0     H12506  11.830  11.695   9.035 -1.4908  0.8912 -1.1129
   93MOL0     H12507  11.951  11.824   8.852 -2.7984 -0.5001 -1.0961
   93MOL0     H12508  12.076  11.703   8.841  1.2957  1.7523 -0.8727
   93MOL0     H12509  11.878  11.771   8.605  0.0655  2.0190  0.8430
   93MOL0     H12510  12.004  11.653   8.599  1.4828  0.3914 -1.4707
   93MOL0     H12511  12.176  11.800   8.623 -1.0142 -2.7797  0.5607
   93MOL0     H12512  12.063  11.937   8.676 -0.2605 -0.8896  0.6675
   93MOL0     H12513  11.982  11.977   8.451  0.3710 -0.5792 -3.0025
   93MOL0     H12514  12.015  11.819   8.410 -0.1488  0.0136  0.2478
   93MOL0     H12515  12.074  12.135   8.570  0.2130  0.6679  1.7099
   93MOL0     H12516  12.098  12.294   8.771 -0.4211  0.2294 -0.2566
   93MOL0     H12517  12.199  12.440   8.740 -2.5709 -0.0761  1.5375
   93MOL0     H12518  12.059  12.402   8.645 -0.6521 -2.0108 -2.0336
   93MOL0     H12519  12.352  12.783   8.523  2.6437  1.6357 -1.6271
   93MOL0     H12520  12.453  12.988   8.588 -0.2391  1.7835  2.5732
   93MOL0     H12521  12.674  13.172   8.915 -2.0065  0.0518  0.6181
   93MOL0     H12522  12.635  13.025   9.003  0.7152 -3.6937 -0.8655
   93MOL0     H12523  12.880  13.022   9.000  2.2137 -0.9667 -1.4674
   93MOL0     H12524  12.835  12.919   8.861 -0.7625  0.5215 -0.5398
   93MOL0     H12525  12.904  13.217   8.866 -0.6753 -1.3083  2.1493
   93MOL0     H12526  12.871  13.127   8.712  1.2920  2.2688 -0.7597
   93MOL0     H12527  13.110  13.149   8.736  2.3783  1.9785  2.1926
   93MOL0     H12528  13.092  13.115   8.911  0.7416  1.1667 -0.3437
   93MOL0     H12529  13.065  12.897   8.695  2.1009 -0.1122 -0.0218
   93MOL0     H12530  13.059  12.872   8.871 -1.6115 -1.0101  0.3680
   93MOL0     H12531  13.277  12.964   8.690 -1.1732 -1.0503 -0.6373
   93MOL0     H12532  13.284  12.990   8.866 -0.8642 -0.4056  0.1155
   93MOL0     H12533  13.270  12.714   8.712  2.9580 -3.3971  1.8115
   93MOL0     H12534  13.223  12.741   8.888 -1.4953 -0.1691 -1.3993
   93MOL0     H12535  13.443  12.820   8.916  1.0236  0.3978 -0.6304
   93MOL0     H12536  13.484  12.815   8.748 -2.0282  0.4036 -0.6202
   93MOL0     H12537  12.625  12.789   8.928 -1.7596  1.7076  0.7033
   93MOL0     H12538  12.538  12.573   8.833 -2.8680 -0.7926 -1.3644
   93MOL0     H12539  12.537  12.239   8.441 -1.9492  1.7582 -2.5511
   93MOL0     H12540  12.409  12.020   8.358 -1.7533  0.0058 -0.6416
   93MOL0     H12541  11.003  11.745   9.850 -0.6539 -0.4406 -0.7422
   93MOL0     H12542  10.791  11.705   9.989 -4.5568  0.5045 -1.5634
   93MOL0     H12543  10.377  11.474   9.867 -1.1739  1.2467  0.9874
   93MOL0     H12544  10.133  11.445   9.931 -0.5720  0.6727  1.6929
   93MOL0     H12545   9.946  11.435  10.064  0.5332 -0.0693  2.2446
   93MOL0     H12546   9.936  11.294   9.958 -0.2114 -0.6217  0.3119
   93MOL0     H12547   9.827  11.280  10.242  0.2922  2.8412 -0.0006
   93MOL0     H12548   9.826  11.153  10.133  0.2435 -0.9976  1.2893
   93MOL0     H12549   9.690  11.282   9.962  0.1333 -2.0404 -0.0826
   93MOL0     H12550   9.705  11.435  10.054 -0.4477  0.0120 -0.4263
   93MOL0     H12551   9.477  11.346  10.079  0.4696  0.0728  0.6375
   93MOL0     H12552   9.557  11.356  10.233  2.5873  1.2727 -0.5870
   93MOL0     H12553   9.486  10.937  10.190 -2.6175  0.0249 -2.2916
   93MOL0     H12554  10.277  11.163  10.215  1.3396  1.8893  1.8025
   93MOL0     H12555  10.496  11.235  10.193  0.8528 -1.0449 -1.2582
   94MOL0     O12556  10.646   7.686   9.483  0.0530  0.4549  0.3796
   94MOL0     C12557  10.548   7.670   9.418 -0.1461  0.4881 -0.7113
   94MOL0     O12558  10.493   7.766   9.329  0.6631  0.7506  0.2275
   94MOL0     C12559  10.551   7.884   9.300  0.5630 -0.2477 -0.5446
   94MOL0     C12560  10.662   7.941   9.360  0.2058 -0.0379 -0.1401
   94MOL0     C12561  10.725   8.059   9.308  0.2166  0.1572 -0.0646
   94MOL0     C12562  10.682   8.112   9.192 -0.2620  0.1168  0.5349
   94MOL0     O12563  10.720   8.226   9.130  1.0582  0.0086  0.3391
   94MOL0     C12564  10.819   8.308   9.194  0.7404  0.7976  0.3260
   94MOL0     C12565  10.886   8.406   9.087 -0.5887 -0.1431 -0.7197
   94MOL0     C12566  10.800   8.529   9.055 -0.4260 -0.2984  0.5084
   94MOL0     C12567  10.811   8.634   9.167  0.0753 -0.9526 -0.0947
   94MOL0     C12568  10.713   8.745   9.149  0.2326 -0.1483 -0.1331
   94MOL0     C12569  10.747   8.844   9.037 -0.3515 -0.9741 -0.4942
   94MOL0     C12570  10.630   8.928   8.985 -0.1122 -0.0366  0.4164
   94MOL0     C12571  10.514   8.848   8.913 -0.0982  0.4126  0.2769
   94MOL0     N12572  10.558   8.814   8.776 -0.4622  0.2948 -0.6152
   94MOL0     C12573  10.471   8.832   8.669  0.1746  0.4330 -0.4101
   94MOL0     C12574  10.538   8.779   8.562 -0.1236 -0.9062  0.0088
   94MOL0     C12575  10.481   8.767   8.422 -0.9437 -1.1682 -0.4658
   94MOL0     C12576  10.483   8.900   8.355  0.7094 -0.7405 -0.3974
   94MOL0     C12577  10.439   8.884   8.210  0.0973 -0.0185  0.3112
   94MOL0     C12578  10.364   9.004   8.149  0.1737 -0.4918 -0.3457
   94MOL0     O12579  10.447   9.121   8.185 -0.3244 -0.5534  0.4629
   94MOL0     C12580  10.560   9.151   8.113 -0.9639  0.0789 -0.0139
   94MOL0     C12581  10.599   9.080   7.996 -1.4438 -0.3479  0.3945
   94MOL0     C12582  10.726   9.116   7.936  0.9619  0.2310 -0.2095
   94MOL0     C12583  10.757   9.032   7.816 -0.7320  0.0376  0.8346
   94MOL0     C12584  10.802   9.230   7.981 -0.3567  0.1190  0.5809
   94MOL0     C12585  10.938   9.267   7.920  0.1699  0.3393  0.9913
   94MOL0     O12586  10.978   9.384   7.961 -0.2893 -0.7294  0.3597
   94MOL0     C12587  11.109   9.408   7.940  0.7165 -0.7027  0.1596
   94MOL0     C12588  11.161   9.437   7.818 -1.0492 -0.4279  0.3474
   94MOL0     C12589  11.302   9.461   7.806 -0.0509  0.0691 -0.3607
   94MOL0     C12590  11.382   9.436   7.919  0.8742  0.2367  0.1098
   94MOL0     O12591  11.513   9.455   7.896  0.2561  0.9057  0.1136
   94MOL0     C12592  11.600   9.394   7.987  0.2403 -0.4942  0.1177
   94MOL0     C12593  11.748   9.381   7.931 -0.9136  0.0217  0.4034
   94MOL0     C12594  11.746   9.334   7.787  0.3768  0.6252 -0.3401
   94MOL0     C12595  11.890   9.316   7.741 -0.4868 -0.5958  0.4754
   94MOL0     C12596  11.902   9.303   7.588 -0.8209 -0.4211 -0.2675
   94MOL0     C12597  11.876   9.158   7.551  0.4725 -0.7441  0.2412
   94MOL0     C12598  11.889   9.141   7.399 -0.3745 -1.3035  0.2540
   94MOL0     C12599  11.879   8.998   7.360  0.4644 -0.4304 -0.0259
   94MOL0    Cl12600  11.891   9.013   7.181 -0.3139  0.0000  0.2513
   94MOL0     C12601  11.327   9.404   8.038  0.4460 -0.3276 -1.2784
   94MOL0     C12602  11.191   9.394   8.048  0.0880  0.3732  0.2338
   94MOL0     O12603  11.008   9.184   7.866 -0.2099  0.2552  0.0478
   94MOL0     C12604  10.756   9.291   8.096  0.4315 -0.1917  0.5703
   94MOL0     C12605  10.643   9.249   8.158  0.0777 -0.2149 -0.3286
   94MOL0     N12606  10.657   8.728   8.599  0.7469  0.4067 -0.1507
   94MOL0     N12607  10.674   8.745   8.729  0.0581 -0.3276  0.1294
   94MOL0     C12608  10.567   8.056   9.130 -0.9311 -0.4156  0.3641
   94MOL0     C12609  10.500   7.947   9.188  0.6801 -0.0366  0.7586
   94MOL0     C12610  10.480   7.540   9.399 -0.4956 -0.0132  0.1879
   94MOL0     C12611  10.535   7.430   9.445  0.4518 -0.2633 -0.0859
   94MOL0     C12612  10.482   7.302   9.416  1.6803 -0.4062 -0.8108
   94MOL0     C12613  10.365   7.286   9.350  0.6385  0.6731 -0.1841
   94MOL0     O12614  10.316   7.155   9.343  0.7668  0.1648  0.4342
   94MOL0     C12615  10.175   7.138   9.350 -0.7259 -0.5278 -1.0014
   94MOL0     C12616  10.126   7.008   9.424  0.0463 -0.9191  0.2853
   94MOL0     C12617  10.187   6.880   9.358  0.3259 -0.3294  1.0717
   94MOL0     C12618  10.133   6.759   9.424 -0.1217  0.5306 -0.1426
   94MOL0     C12619   9.990   6.737   9.389 -0.2480 -0.3662 -0.0283
   94MOL0     C12620   9.870   6.725   9.358  0.0092  0.2595 -0.4284
   94MOL0     C12621  10.300   7.403   9.308  0.5669 -0.1117  0.0427
   94MOL0     C12622  10.359   7.529   9.329  0.5879  0.2619  0.6515
   94MOL0     H12623  10.701   7.902   9.453 -0.4042 -0.1706  0.0666
   94MOL0     H12624  10.808   8.103   9.362 -0.7115  0.0042  1.5328
   94MOL0     H12625  10.775   8.359   9.280  1.6451  2.2087 -0.0025
   94MOL0     H12626  10.904   8.249   9.230  0.0235 -0.2247  0.3697
   94MOL0     H12627  10.983   8.435   9.129 -0.0514 -0.0510 -1.9680
   94MOL0     H12628  10.914   8.344   9.001  2.6117 -2.8987  2.0051
   94MOL0     H12629  10.820   8.576   8.958 -1.7825 -1.2916 -0.2924
   94MOL0     H12630  10.698   8.489   9.056  0.0970 -1.8010 -1.0555
   94MOL0     H12631  10.795   8.589   9.266 -4.6795  0.6882  0.1210
   94MOL0     H12632  10.912   8.673   9.159  0.3098 -1.4905  0.1612
   94MOL0     H12633  10.623   8.689   9.122  1.2180 -1.6843 -0.3771
   94MOL0     H12634  10.684   8.789   9.245 -0.4670 -0.4679 -0.1854
   94MOL0     H12635  10.826   8.907   9.079 -0.4541  0.7016 -2.6665
   94MOL0     H12636  10.787   8.793   8.950  1.5280 -1.9942  0.8857
   94MOL0     H12637  10.587   8.983   9.069 -2.7510  2.0104 -2.0697
   94MOL0     H12638  10.667   9.001   8.913 -1.1480  2.1230  1.9740
   94MOL0     H12639  10.418   8.899   8.900 -1.4071 -2.0619 -0.5462
   94MOL0     H12640  10.508   8.751   8.964  3.1177 -1.1245 -1.9198
   94MOL0     H12641  10.378   8.889   8.674  1.1622  1.9850  2.1810
   94MOL0     H12642  10.554   8.701   8.375  1.2656 -0.2017  1.3695
   94MOL0     H12643  10.384   8.717   8.432 -0.9430 -1.1158 -0.1722
   94MOL0     H12644  10.583   8.942   8.363  0.0671  0.4967  1.7706
   94MOL0     H12645  10.421   8.970   8.411  2.7338  1.5920 -0.9211
   94MOL0     H12646  10.378   8.793   8.214 -1.3807  0.9842  1.4013
   94MOL0     H12647  10.527   8.854   8.152 -0.8930 -1.4931 -0.4803
   94MOL0     H12648  10.259   9.015   8.176  0.6314 -0.9520  1.7980
   94MOL0     H12649  10.359   8.991   8.040 -2.2809 -0.4073 -0.2960
   94MOL0     H12650  10.552   8.991   7.955 -1.6207 -0.8336  1.6108
   94MOL0     H12651  10.816   9.076   7.734 -4.1244 -4.1597 -4.5450
   94MOL0     H12652  10.798   8.931   7.826 -0.8745 -0.0890  0.1802
   94MOL0     H12653  10.662   9.019   7.765  1.4113  0.1587 -3.7384
   94MOL0     H12654  11.104   9.434   7.726 -2.2507  3.0340  0.8332
   94MOL0     H12655  11.362   9.483   7.718  0.1555  0.9271 -0.0155
   94MOL0     H12656  11.600   9.453   8.079 -1.4456 -0.4918  0.1471
   94MOL0     H12657  11.568   9.293   8.014  1.5126 -1.1145 -0.6215
   94MOL0     H12658  11.801   9.476   7.929 -0.8562 -0.0135 -0.6874
   94MOL0     H12659  11.804   9.310   7.992  0.2604  1.0037  0.4991
   94MOL0     H12660  11.694   9.402   7.719  0.8671 -0.1565 -1.5308
   94MOL0     H12661  11.703   9.234   7.784  0.7888  0.4251  0.2069
   94MOL0     H12662  11.948   9.406   7.762  1.8986 -1.2286 -2.7222
   94MOL0     H12663  11.924   9.226   7.794 -1.7677  0.0749  2.5606
   94MOL0     H12664  12.003   9.331   7.559 -0.1488  1.4678  3.3608
   94MOL0     H12665  11.844   9.384   7.543 -0.2746  0.5640  0.7415
   94MOL0     H12666  11.947   9.095   7.605  0.0999 -1.6314 -0.2792
   94MOL0     H12667  11.773   9.133   7.575 -0.2391  2.3385  0.8413
   94MOL0     H12668  11.987   9.186   7.377 -0.8092  0.9532  2.5072
   94MOL0     H12669  11.810   9.207   7.362 -1.9780 -2.7458  0.9921
   94MOL0     H12670  11.786   8.949   7.391  1.4728 -1.9294  0.7747
   94MOL0     H12671  11.960   8.935   7.398  0.9548 -0.3162 -0.8580
   94MOL0     H12672  11.388   9.399   8.127 -3.7090 -1.0205  1.8854
   94MOL0     H12673  11.150   9.369   8.146  1.0184 -0.0062  0.5424
   94MOL0     H12674  10.818   9.371   8.134  2.3203 -1.5361  0.4909
   94MOL0     H12675  10.625   9.293   8.255 -0.4431  1.1458 -1.0215
   94MOL0     H12676  10.527   8.102   9.040  0.3589  0.2806  0.1038
   94MOL0     H12677  10.402   7.930   9.145  0.8208 -1.4056  0.9226
   94MOL0     H12678  10.624   7.437   9.507  0.2009  1.5436  0.1097
   94MOL0     H12679  10.523   7.212   9.459 -2.7631 -2.9242 -1.2386
   94MOL0     H12680  10.132   7.225   9.402  1.6958  1.4273 -2.0466
   94MOL0     H12681  10.138   7.128   9.248  0.6548 -0.1545 -1.5681
   94MOL0     H12682  10.017   7.010   9.413  0.0364 -1.3356  0.2868
   94MOL0     H12683  10.146   6.994   9.531 -0.8093 -1.0139  0.4470
   94MOL0     H12684  10.295   6.874   9.376  0.5675  3.6315  1.8713
   94MOL0     H12685  10.161   6.879   9.252  0.3079  0.5155  1.0576
   94MOL0     H12686  10.139   6.757   9.534  1.4536 -0.2463 -0.2211
   94MOL0     H12687  10.197   6.676   9.394 -0.6170  0.4554 -1.0293
   94MOL0     H12688   9.768   6.706   9.331  0.2605  1.3318 -2.3485
   94MOL0     H12689  10.205   7.400   9.255  1.6218  1.8596 -2.1439
   94MOL0     H12690  10.292   7.613   9.313 -1.5781 -1.6189 -0.6733
   95MOL0     O12691   3.167   0.341   1.305  0.2559  0.0060  0.4784
   95MOL0     C12692   3.174   0.220   1.276  0.2243  0.1246 -0.1628
   95MOL0     O12693   3.114   0.107   1.336 -0.1085 -0.0037  0.2107
   95MOL0     C12694   3.031   0.137   1.447  0.2934 -0.7082  0.5249
   95MOL0     C12695   3.049   0.066   1.560  0.4263 -0.1163  0.2974
   95MOL0     C12696   2.954   0.080   1.673  0.2086  0.2518  0.0787
   95MOL0     C12697   2.844   0.171   1.654 -0.8074 -1.7208 -0.4827
   95MOL0     O12698   2.737   0.199   1.739 -0.7632  0.0244  0.4558
   95MOL0     C12699   2.731   0.132   1.869  0.0211  1.1697  0.3577
   95MOL0     C12700   2.586   0.147   1.924  0.2728 -0.0902 -0.4089
   95MOL0     C12701   2.582   0.088   2.068 -0.0479 -0.3175 -0.4320
   95MOL0     C12702   2.443   0.038   2.105  0.4496  0.2322 -0.4603
   95MOL0     C12703   2.435   0.002   2.258 -0.3318  0.2867  0.0827
   95MOL0     C12704   2.297   0.002   2.319  0.5780 -1.1632  0.2354
   95MOL0     C12705   2.238   0.143   2.322  1.3121 -0.2194  0.6158
   95MOL0     C12706   2.114   0.157   2.405 -0.3557 -0.7144 -0.9813
   95MOL0     N12707   2.018   0.054   2.366  0.2638  0.1296 -0.8700
   95MOL0     C12708   1.918   0.012   2.453  0.8805  0.8010  0.1760
   95MOL0     C12709   1.819  -0.029   2.372 -0.2698 -0.0300 -0.4036
   95MOL0     C12710   1.687  -0.080   2.420  0.5304 -0.2356 -0.2008
   95MOL0     C12711   1.577   0.032   2.431  0.5084 -0.2801 -0.1758
   95MOL0     C12712   1.506   0.048   2.303  0.3226  0.4685  0.5032
   95MOL0     C12713   1.398   0.152   2.292 -0.5526 -0.3619 -0.7965
   95MOL0     O12714   1.312   0.094   2.189  0.5757  0.3753 -0.8217
   95MOL0     C12715   1.185   0.076   2.237  0.0596 -0.0970 -1.0844
   95MOL0     C12716   1.084   0.127   2.152 -0.0408  0.5231  0.4260
   95MOL0     C12717   0.952   0.120   2.189  0.9988 -0.3316 -0.6499
   95MOL0     C12718   0.850   0.190   2.104  0.1077 -0.0069  0.3420
   95MOL0     C12719   0.918   0.076   2.318 -0.0861  0.3685 -0.8847
   95MOL0     C12720   0.785   0.089   2.369 -0.3379 -0.0666 -0.0215
   95MOL0     O12721   0.769   0.096   2.503 -0.4648  0.1537  0.1938
   95MOL0     C12722   0.685   0.188   2.547  0.6322 -0.4729 -0.8082
   95MOL0     C12723   0.635   0.175   2.676  0.6377  0.1740 -0.8607
   95MOL0     C12724   0.533   0.261   2.731 -0.9549  0.1418 -0.1445
   95MOL0     C12725   0.489   0.373   2.659 -0.8740 -1.7543  0.6847
   95MOL0     O12726   0.397   0.464   2.712 -0.0634  0.3415  0.3845
   95MOL0     C12727   0.287   0.490   2.614 -0.1149 -0.7868 -0.2104
   95MOL0     C12728   0.150   0.536   2.675 -0.0596  0.2003  0.1459
   95MOL0     C12729   0.087   0.415   2.744 -0.1135  1.0718  0.2089
   95MOL0     C12730   0.007   0.332   2.654 -0.3251 -0.0541  0.4952
   95MOL0     C12731  -0.041   0.209   2.729 -0.5229  1.3330  0.7752
   95MOL0     C12732  -0.110   0.101   2.635 -0.3758 -1.4850  0.3316
   95MOL0     C12733  -0.152  -0.020   2.722 -0.3638 -0.1278  0.8982
   95MOL0     C12734  -0.261  -0.089   2.650  0.0867 -0.0070 -0.5984
   95MOL0    Cl12735  -0.412   0.003   2.651 -0.5226 -0.3096  0.3839
   95MOL0     C12736   0.543   0.382   2.529  0.1078  0.1284 -0.0972
   95MOL0     C12737   0.630   0.292   2.475 -0.2291  0.7705 -0.0138
   95MOL0     O12738   0.688   0.101   2.286  0.2636  0.5360  1.2402
   95MOL0     C12739   1.017   0.015   2.399  0.0722  0.5238  0.2654
   95MOL0     C12740   1.148   0.019   2.360 -0.4547 -1.2729 -0.5254
   95MOL0     N12741   1.870  -0.035   2.245  0.2858 -0.1457 -0.0235
   95MOL0     N12742   1.978   0.034   2.240 -0.6133 -0.7982  0.5715
   95MOL0     C12743   2.834   0.257   1.547  0.8153  1.3726 -0.1729
   95MOL0     C12744   2.924   0.233   1.441 -0.1930 -1.0508  0.4493
   95MOL0     C12745   3.256   0.182   1.162  0.1338 -0.2374 -0.1714
   95MOL0     C12746   3.268   0.049   1.106  1.1316 -0.4689 -0.3615
   95MOL0     C12747   3.343   0.033   0.994 -0.7918  0.0065 -0.7781
   95MOL0     C12748   3.422   0.128   0.929 -0.2843 -0.1421 -1.1354
   95MOL0     O12749   3.489   0.086   0.815 -0.6484 -0.1474  0.1691
   95MOL0     C12750   3.592   0.170   0.762  0.7866 -0.4774  0.1276
   95MOL0     C12751   3.722   0.171   0.832 -0.0269  0.9657 -0.0655
   95MOL0     C12752   3.800   0.037   0.821 -0.3331  0.5702  0.6736
   95MOL0     C12753   3.861   0.015   0.684 -0.4418 -0.4812 -0.3849
   95MOL0     C12754   3.947   0.125   0.640 -0.0524 -0.1202 -0.6882
   95MOL0     C12755   4.012   0.209   0.591  0.4416  0.7719  0.8722
   95MOL0     C12756   3.416   0.259   0.990  0.2721  0.0614 -0.3003
   95MOL0     C12757   3.332   0.288   1.104 -0.3595  0.0260  0.5417
   95MOL0     H12758   3.122  -0.014   1.571 -1.6683 -2.0958  0.6291
   95MOL0     H12759   2.942   0.022   1.764 -1.2338 -0.0056 -0.2412
   95MOL0     H12760   2.754   0.025   1.868 -2.6095  0.5168 -2.1001
   95MOL0     H12761   2.806   0.175   1.937  1.9136 -1.3538 -0.0125
   95MOL0     H12762   2.548   0.249   1.930  1.8740  0.4516  1.6150
   95MOL0     H12763   2.518   0.086   1.863 -4.0861  1.6282  2.2654
   95MOL0     H12764   2.654   0.008   2.084 -1.5303 -1.5416  0.3835
   95MOL0     H12765   2.610   0.170   2.135 -0.9195  0.3543 -0.8630
   95MOL0     H12766   2.359   0.104   2.080 -2.2588 -2.3988  1.0938
   95MOL0     H12767   2.422  -0.045   2.037 -0.0214  2.1959 -2.8764
   95MOL0     H12768   2.458  -0.104   2.277  0.3342  0.4342  0.1093
   95MOL0     H12769   2.500   0.063   2.321 -1.7733  1.0405  0.8981
   95MOL0     H12770   2.226  -0.070   2.279 -3.6765  1.7333  1.9114
   95MOL0     H12771   2.310  -0.032   2.422 -1.0362 -0.1025  0.8151
   95MOL0     H12772   2.311   0.224   2.336 -0.6507  2.2885 -2.3447
   95MOL0     H12773   2.203   0.157   2.219  0.4009 -2.4697  0.5867
   95MOL0     H12774   2.066   0.255   2.400 -2.0284 -1.5394 -2.1627
   95MOL0     H12775   2.131   0.131   2.510 -0.8787  2.9363  0.1381
   95MOL0     H12776   1.919   0.015   2.562  1.4663 -1.8388  0.3065
   95MOL0     H12777   1.654  -0.145   2.338  3.5106  0.5065 -2.1101
   95MOL0     H12778   1.695  -0.145   2.507  1.5786 -0.5189 -0.4978
   95MOL0     H12779   1.618   0.130   2.454 -1.9836  0.4660  1.5505
   95MOL0     H12780   1.516   0.012   2.520  3.5691 -1.7631  1.7485
   95MOL0     H12781   1.469  -0.048   2.265 -0.4518  0.6184  0.8581
   95MOL0     H12782   1.583   0.078   2.231 -0.2457 -2.7248 -1.6681
   95MOL0     H12783   1.431   0.254   2.271  1.3206 -1.0134 -1.2275
   95MOL0     H12784   1.355   0.162   2.392  1.3212 -1.5504  0.1893
   95MOL0     H12785   1.116   0.163   2.055  1.1199 -0.7891  0.2929
   95MOL0     H12786   0.891   0.238   2.015 -2.1164  0.5106 -0.4712
   95MOL0     H12787   0.775   0.121   2.064  1.5535 -2.2575  1.2732
   95MOL0     H12788   0.805   0.268   2.166 -1.1844 -0.1116 -0.4256
   95MOL0     H12789   0.660   0.081   2.724 -3.3649 -0.3759  0.5901
   95MOL0     H12790   0.493   0.244   2.830  0.0799 -0.9624  0.1037
   95MOL0     H12791   0.317   0.578   2.557 -2.1656  1.0792  1.4185
   95MOL0     H12792   0.261   0.403   2.552 -0.4040 -0.7678 -0.1187
   95MOL0     H12793   0.168   0.623   2.739  3.2397 -0.0292 -0.2776
   95MOL0     H12794   0.095   0.570   2.587  0.3164 -0.6859 -0.4535
   95MOL0     H12795   0.026   0.447   2.829  0.8539 -1.4794  1.9924
   95MOL0     H12796   0.159   0.347   2.790 -1.2466  0.1203  0.6177
   95MOL0     H12797  -0.072   0.400   2.623  0.8536  1.1855  0.1157
   95MOL0     H12798   0.069   0.306   2.567 -0.9903 -2.4996  0.6627
   95MOL0     H12799  -0.109   0.235   2.811  0.3468  0.6108  1.7457
   95MOL0     H12800   0.047   0.164   2.775  0.1642 -0.9081 -2.4131
   95MOL0     H12801  -0.179   0.147   2.565  0.4546  0.5284  0.7799
   95MOL0     H12802  -0.032   0.059   2.571  2.8920  3.8239  0.2333
   95MOL0     H12803  -0.174   0.019   2.822 -1.7658  1.0962  0.1431
   95MOL0     H12804  -0.071  -0.092   2.740 -1.1347 -1.3646 -0.3357
   95MOL0     H12805  -0.286  -0.181   2.704 -0.5232  1.5257  1.9139
   95MOL0     H12806  -0.247  -0.115   2.545 -4.4286 -0.0856 -1.3872
   95MOL0     H12807   0.523   0.465   2.461 -0.8220 -0.6494 -0.8156
   95MOL0     H12808   0.657   0.301   2.371  0.4570 -0.8301  0.0071
   95MOL0     H12809   0.999  -0.025   2.498 -2.3618  0.1847 -0.2278
   95MOL0     H12810   1.238  -0.013   2.411 -0.0797  1.9075  1.0813
   95MOL0     H12811   2.736   0.297   1.525 -0.0040 -1.2626 -1.8554
   95MOL0     H12812   2.909   0.293   1.351 -1.1869  0.2425  1.4378
   95MOL0     H12813   3.200  -0.027   1.144 -1.1499  2.5731  2.0748
   95MOL0     H12814   3.357  -0.064   0.946  0.9305 -0.4868  0.6373
   95MOL0     H12815   3.604   0.140   0.657  1.9650  1.4079 -0.3398
   95MOL0     H12816   3.555   0.273   0.754  1.1407 -0.1508  2.1911
   95MOL0     H12817   3.710   0.194   0.939  1.7286  0.6281  0.2374
   95MOL0     H12818   3.782   0.254   0.793  1.8896  0.8470  2.3452
   95MOL0     H12819   3.743  -0.049   0.856  0.4912  0.0560  0.7632
   95MOL0     H12820   3.878   0.041   0.898 -0.6313  2.6444  0.9359
   95MOL0     H12821   3.779  -0.001   0.614  0.3361 -1.1887 -1.1565
   95MOL0     H12822   3.921  -0.075   0.700  2.2909  1.5975  1.9958
   95MOL0     H12823   4.082   0.274   0.543  1.3481  2.2508  3.8908
   95MOL0     H12824   3.484   0.338   0.959 -0.2489  0.9156  0.6636
   95MOL0     H12825   3.346   0.386   1.148  1.1354 -0.3106  0.9086
   96MOL0     O12826   4.732   8.877   8.044  0.0668  0.5367  0.2604
   96MOL0     C12827   4.752   8.836   8.156 -0.6528 -0.3204  0.2961
   96MOL0     O12828   4.664   8.836   8.253 -0.3571  0.3102 -0.2145
   96MOL0     C12829   4.536   8.877   8.217  0.1565  0.3716 -0.1023
   96MOL0     C12830   4.516   9.016   8.198  1.0701  0.6016 -0.4882
   96MOL0     C12831   4.384   9.057   8.173  0.2254 -0.5437 -0.1245
   96MOL0     C12832   4.278   8.956   8.147  0.1594 -0.1092  0.8305
   96MOL0     O12833   4.152   8.995   8.104 -0.2690 -0.5806 -0.6135
   96MOL0     C12834   4.135   9.135   8.077  0.1780  0.1495 -1.6389
   96MOL0     C12835   3.979   9.147   8.061 -0.7183  0.5613 -0.0912
   96MOL0     C12836   3.915   9.289   8.070  0.0069  0.7815 -0.5399
   96MOL0     C12837   3.761   9.279   8.037  1.2649 -0.7072 -0.9578
   96MOL0     C12838   3.677   9.412   8.035 -0.6362  0.7440  1.2616
   96MOL0     C12839   3.524   9.383   8.036  0.3544 -0.5481  0.0424
   96MOL0     C12840   3.415   9.486   8.003  0.3309  0.1623  0.1111
   96MOL0     C12841   3.400   9.594   8.104 -0.5668 -0.2171  0.2373
   96MOL0     N12842   3.330   9.702   8.047 -0.3305 -0.1968  0.4345
   96MOL0     C12843   3.206   9.731   8.086  0.9289  0.0468 -0.6194
   96MOL0     C12844   3.166   9.837   8.012  0.8458  0.6683 -0.4985
   96MOL0     C12845   3.036   9.919   8.014 -0.0239 -0.3373 -0.3818
   96MOL0     C12846   2.991   9.952   8.151 -1.3611 -0.9695 -0.1653
   96MOL0     C12847   2.846  10.008   8.154  0.0153  0.4270  0.0579
   96MOL0     C12848   2.832  10.075   8.287  0.4372  0.5396 -0.2378
   96MOL0     O12849   2.716  10.164   8.309  0.8943  0.0847 -0.4956
   96MOL0     C12850   2.597  10.105   8.346 -1.1767 -0.7459  0.3730
   96MOL0     C12851   2.568   9.975   8.378 -1.1555  0.0297  0.3493
   96MOL0     C12852   2.451   9.929   8.422  0.2070 -0.7567  0.2104
   96MOL0     C12853   2.430   9.778   8.452  0.7755  0.1847  1.0179
   96MOL0     C12854   2.343  10.020   8.442 -0.3306 -0.0663  0.4512
   96MOL0     C12855   2.215   9.988   8.518  0.2936  0.0596 -0.1585
   96MOL0     O12856   2.108  10.073   8.504 -0.8123 -0.2005 -0.3131
   96MOL0     C12857   2.003  10.062   8.590  0.5754 -0.5351  0.2342
   96MOL0     C12858   1.986  10.138   8.704 -0.5165 -0.3106  0.2180
   96MOL0     C12859   1.867  10.134   8.777  0.1027  0.3127 -0.9595
   96MOL0     C12860   1.755  10.053   8.742  0.1896  1.6089  0.5284
   96MOL0     O12861   1.651  10.041   8.835  0.2447  0.1077 -0.6345
   96MOL0     C12862   1.525  10.012   8.778 -0.0739  0.5911 -0.3675
   96MOL0     C12863   1.437  10.048   8.907 -0.6539  1.0437  1.0949
   96MOL0     C12864   1.288  10.073   8.871  0.0304 -0.3144 -0.4550
   96MOL0     C12865   1.205   9.948   8.866 -0.1757 -0.0925  0.3329
   96MOL0     C12866   1.083   9.973   8.779  0.7363 -0.4527  0.0025
   96MOL0     C12867   0.976  10.039   8.878  1.2959 -0.6812  0.3450
   96MOL0     C12868   0.842  10.066   8.799 -0.6576 -0.5770  0.2729
   96MOL0     C12869   0.711  10.054   8.880  0.1474 -0.4254 -0.4436
   96MOL0    Cl12870   0.699  10.193   8.993 -0.4885 -0.1162 -0.4545
   96MOL0     C12871   1.768   9.968   8.622 -0.3533  0.7657 -0.7412
   96MOL0     C12872   1.897   9.973   8.551  0.1134 -0.3430  0.1153
   96MOL0     O12873   2.225   9.896   8.603 -0.0687  0.1379  0.0837
   96MOL0     C12874   2.368  10.152   8.403  0.2713  0.2974 -0.3000
   96MOL0     C12875   2.491  10.196   8.346  0.1430  0.4070  0.9564
   96MOL0     N12876   3.280   9.873   7.937 -0.4817 -0.5717 -0.0083
   96MOL0     N12877   3.374   9.790   7.960  0.7689  0.0508 -0.6027
   96MOL0     C12878   4.313   8.822   8.152  0.4120 -0.4415 -0.1327
   96MOL0     C12879   4.439   8.783   8.189  1.1385  0.0329  0.1089
   96MOL0     C12880   4.888   8.778   8.182  0.8759  0.2669 -0.3248
   96MOL0     C12881   4.976   8.750   8.079  1.5149 -0.2739 -0.1416
   96MOL0     C12882   5.101   8.688   8.109  0.4512 -0.2789 -0.2335
   96MOL0     C12883   5.141   8.661   8.236 -0.0229 -0.2611  1.1365
   96MOL0     O12884   5.262   8.609   8.262  0.4850 -0.1606 -0.1734
   96MOL0     C12885   5.375   8.647   8.182  0.3401  1.1376  0.4898
   96MOL0     C12886   5.499   8.617   8.256  0.2362 -0.2007 -0.7773
   96MOL0     C12887   5.503   8.463   8.288  0.4698  0.4937 -0.4373
   96MOL0     C12888   5.623   8.406   8.353  0.1619 -0.6138  0.4021
   96MOL0     C12889   5.668   8.484   8.467  0.2499  0.0260  0.2047
   96MOL0     C12890   5.695   8.553   8.562  0.4072 -0.2929 -0.5568
   96MOL0     C12891   5.053   8.688   8.341 -0.8143 -0.3549  0.6597
   96MOL0     C12892   4.929   8.742   8.313 -0.1668 -0.4024  0.2425
   96MOL0     H12893   4.588   9.097   8.195  2.7139 -0.7735 -4.5766
   96MOL0     H12894   4.365   9.162   8.154 -2.5140 -1.0759 -0.7427
   96MOL0     H12895   4.154   9.207   8.157 -0.4183 -0.2635 -1.1135
   96MOL0     H12896   4.196   9.160   7.990 -0.0121  2.0129 -1.2758
   96MOL0     H12897   3.948   9.091   7.972  1.9941 -2.0999  0.4697
   96MOL0     H12898   3.936   9.096   8.147 -1.2003  0.3582 -0.4427
   96MOL0     H12899   3.945   9.320   8.171 -0.2137 -1.9233  0.4437
   96MOL0     H12900   3.972   9.346   7.996  4.2106 -1.9275  0.3041
   96MOL0     H12901   3.743   9.236   7.938  1.9309  2.1961 -2.4471
   96MOL0     H12902   3.718   9.213   8.114 -0.0922 -1.2625 -2.1422
   96MOL0     H12903   3.708   9.473   8.121  1.4835 -1.3146  2.0537
   96MOL0     H12904   3.712   9.468   7.948  2.6120  0.5992  2.3542
   96MOL0     H12905   3.514   9.303   7.962  1.3766  1.5531 -2.4976
   96MOL0     H12906   3.497   9.330   8.128 -4.4712 -2.6969 -2.2736
   96MOL0     H12907   3.436   9.537   7.908  0.7570  1.7410  1.0150
   96MOL0     H12908   3.318   9.436   7.990  1.6194 -2.2110 -0.8863
   96MOL0     H12909   3.502   9.627   8.125 -0.0807 -0.7615 -1.1540
   96MOL0     H12910   3.345   9.570   8.196 -0.5117 -0.8922  0.0990
   96MOL0     H12911   3.137   9.686   8.156 -2.0198  2.5115 -1.7162
   96MOL0     H12912   3.039   9.999   7.939  1.3845 -2.3328 -2.5853
   96MOL0     H12913   2.957   9.862   7.964  0.9251  0.4565 -2.9809
   96MOL0     H12914   3.061  10.021   8.199 -1.7779 -0.5516 -0.1411
   96MOL0     H12915   2.996   9.862   8.211  1.1326  0.4181  1.9236
   96MOL0     H12916   2.778   9.925   8.131  3.3510 -1.5075 -4.3411
   96MOL0     H12917   2.835  10.083   8.075  0.8848 -0.3920 -0.8611
   96MOL0     H12918   2.916  10.144   8.299  1.2133 -0.7135  2.2710
   96MOL0     H12919   2.843  10.007   8.372 -0.7982  0.8795  0.2208
   96MOL0     H12920   2.647   9.901   8.377  1.4618  2.5963 -1.7108
   96MOL0     H12921   2.496   9.723   8.384 -1.9960 -1.4545 -0.5316
   96MOL0     H12922   2.465   9.754   8.552 -0.5570  1.8622  1.9422
   96MOL0     H12923   2.327   9.751   8.426  1.3422  0.6839 -2.2288
   96MOL0     H12924   2.072  10.194   8.740 -1.5497 -1.4025  5.0446
   96MOL0     H12925   1.865  10.191   8.869 -1.5875  0.3740 -1.0073
   96MOL0     H12926   1.493  10.085   8.703  1.2298  2.5662  0.9089
   96MOL0     H12927   1.506   9.908   8.748 -0.1941  0.3035  0.6428
   96MOL0     H12928   1.438   9.963   8.976 -0.0726  2.3086  2.6938
   96MOL0     H12929   1.481  10.135   8.956 -2.6424  3.2969 -0.8526
   96MOL0     H12930   1.272  10.125   8.776 -1.4125  1.1064  0.5223
   96MOL0     H12931   1.251  10.144   8.946 -0.7087 -0.9422 -0.2163
   96MOL0     H12932   1.259   9.859   8.833  1.3233  0.9149 -0.0457
   96MOL0     H12933   1.174   9.930   8.969 -0.0533  0.4953  0.4822
   96MOL0     H12934   1.051   9.875   8.741  2.9187  0.0095 -3.4480
   96MOL0     H12935   1.101  10.031   8.688  0.5142  1.8668  1.3672
   96MOL0     H12936   0.958   9.971   8.962  2.2655 -0.1166  1.0235
   96MOL0     H12937   1.011  10.138   8.909  3.1386 -0.1393 -2.9172
   96MOL0     H12938   0.819   9.995   8.719 -2.0287 -0.6086  0.6586
   96MOL0     H12939   0.846  10.161   8.745  0.3269  0.7376  2.4894
   96MOL0     H12940   0.703   9.958   8.932  1.7214 -2.2547 -3.3302
   96MOL0     H12941   0.627  10.054   8.811 -0.0148 -2.6369 -0.3066
   96MOL0     H12942   1.696   9.895   8.586  2.6596 -1.8224 -2.0308
   96MOL0     H12943   1.910   9.912   8.462  3.0504  0.5123 -0.1291
   96MOL0     H12944   2.295  10.225   8.435 -0.0697 -0.4104  0.5918
   96MOL0     H12945   2.502  10.302   8.324 -0.8735  0.4375  0.5582
   96MOL0     H12946   4.235   8.747   8.140  0.3637 -0.4510  0.2153
   96MOL0     H12947   4.459   8.676   8.180 -2.5220 -0.6288 -2.4556
   96MOL0     H12948   4.962   8.786   7.978 -0.8860  0.5480  0.4387
   96MOL0     H12949   5.167   8.677   8.024  0.5528  1.5271 -0.4369
   96MOL0     H12950   5.372   8.586   8.091 -0.0469  2.4436 -0.4064
   96MOL0     H12951   5.369   8.755   8.162 -3.8369  1.2656  1.5279
   96MOL0     H12952   5.488   8.663   8.355 -0.9378 -0.7761 -0.6171
   96MOL0     H12953   5.588   8.658   8.207  0.1506  1.2214  0.2005
   96MOL0     H12954   5.483   8.406   8.197  0.3361 -0.0169 -0.0899
   96MOL0     H12955   5.412   8.441   8.345  0.3333 -0.5384 -1.0433
   96MOL0     H12956   5.710   8.394   8.287  2.2792  0.2167  2.8546
   96MOL0     H12957   5.585   8.310   8.388 -3.6646  0.7537  0.4150
   96MOL0     H12958   5.714   8.623   8.641 -3.9572  0.6379 -0.0635
   96MOL0     H12959   5.085   8.655   8.439  1.5862 -0.5778 -0.1474
   96MOL0     H12960   4.862   8.762   8.397  3.1945 -1.2344  3.3972
   97MOL0     O12961  10.298   2.801  10.202  0.2551  0.1820  0.3225
   97MOL0     C12962  10.316   2.678  10.220 -0.8437 -0.0487  0.2192
   97MOL0     O12963  10.440   2.622  10.211  0.3241  1.1552 -1.1772
   97MOL0     C12964  10.553   2.684  10.185 -0.7954 -1.0638  0.2214
   97MOL0     C12965  10.634   2.632  10.087 -0.6405  0.0528  0.2493
   97MOL0     C12966  10.758   2.688  10.050 -0.3748 -0.4335  0.0811
   97MOL0     C12967  10.798   2.807  10.123  0.0997  0.2662 -0.7816
   97MOL0     O12968  10.906   2.883  10.100 -0.4525 -0.6556  0.0081
   97MOL0     C12969  10.984   2.837   9.992 -0.4723 -0.1935 -0.1463
   97MOL0     C12970  11.101   2.928   9.996 -0.5417  0.6929  0.6298
   97MOL0     C12971  11.207   2.879   9.901 -0.6389 -0.3034 -0.0534
   97MOL0     C12972  11.162   2.863   9.754 -0.6889 -0.6108  0.7220
   97MOL0     C12973  11.105   2.994   9.699 -0.3141  0.0794  0.7556
   97MOL0     C12974  11.080   2.990   9.547 -0.2811 -0.3297  0.9943
   97MOL0     C12975  11.003   3.120   9.504 -0.0580  0.5352 -0.1998
   97MOL0     C12976  10.945   3.106   9.361  1.3318  0.0515 -0.6161
   97MOL0     N12977  11.053   3.103   9.266  0.7364 -0.8015  0.0256
   97MOL0     C12978  11.106   3.220   9.220 -0.1779  0.5063  0.4125
   97MOL0     C12979  11.158   3.185   9.093  0.0738  0.5140  0.0006
   97MOL0     C12980  11.236   3.259   8.993  0.4823 -0.2302 -0.2532
   97MOL0     C12981  11.338   3.172   8.921 -0.5982 -0.0733  0.7095
   97MOL0     C12982  11.456   3.249   8.864 -0.1680  0.4671  0.6077
   97MOL0     C12983  11.411   3.324   8.732 -0.0889  0.4975  0.5000
   97MOL0     O12984  11.368   3.236   8.622  0.3484 -1.1150 -0.6081
   97MOL0     C12985  11.461   3.204   8.525  0.9647  0.4191  0.8118
   97MOL0     C12986  11.428   3.208   8.398  0.3894  0.6751  0.6436
   97MOL0     C12987  11.518   3.169   8.296  1.0406 -0.2918  0.0896
   97MOL0     C12988  11.454   3.166   8.153 -0.2019  0.3205  1.1036
   97MOL0     C12989  11.649   3.143   8.322 -0.0866  0.6926 -0.2026
   97MOL0     C12990  11.753   3.128   8.211 -0.6244 -0.0725 -0.3521
   97MOL0     O12991  11.865   3.060   8.256  0.0815  0.0853 -1.0160
   97MOL0     C12992  11.967   3.044   8.170 -0.8343  0.3369  0.3492
   97MOL0     C12993  12.082   3.127   8.183  0.4609 -0.5447 -0.5020
   97MOL0     C12994  12.177   3.123   8.085  0.4002 -0.1388  0.4600
   97MOL0     C12995  12.171   3.034   7.978 -0.2738  0.2641 -0.1677
   97MOL0     O12996  12.276   3.012   7.888 -1.5288 -0.1134 -0.4511
   97MOL0     C12997  12.328   3.135   7.823 -0.5705  0.3098 -0.6169
   97MOL0     C12998  12.408   3.092   7.701  0.5516 -0.3100  0.3928
   97MOL0     C12999  12.533   2.994   7.728 -1.4333 -0.6396 -0.2830
   97MOL0     C13000  12.620   2.968   7.605  0.4397 -0.4661  0.7895
   97MOL0     C13001  12.699   3.087   7.542 -0.0839 -0.6254  0.1337
   97MOL0     C13002  12.821   3.135   7.609 -0.2579  0.3800  0.1300
   97MOL0     C13003  12.880   3.262   7.548 -0.9690  0.1137 -0.3133
   97MOL0     C13004  13.001   3.330   7.618 -0.2249  0.5967  0.4018
   97MOL0    Cl13005  13.049   3.464   7.512  0.1515  0.8198  0.5270
   97MOL0     C13006  12.073   2.939   7.973  0.3116  0.7469 -0.3589
   97MOL0     C13007  11.970   2.943   8.072 -0.2461 -0.4852  0.5330
   97MOL0     O13008  11.741   3.174   8.103  0.2612  0.3373  0.1547
   97MOL0     C13009  11.689   3.149   8.456 -0.0155  0.2156 -0.1207
   97MOL0     C13010  11.595   3.186   8.559  0.8562  0.5073  0.2949
   97MOL0     N13011  11.133   3.049   9.074  0.2433  0.2948  0.2455
   97MOL0     N13012  11.081   3.005   9.177  0.0934 -0.2496 -0.2071
   97MOL0     C13013  10.719   2.853  10.231 -0.5012 -0.0010 -0.2050
   97MOL0     C13014  10.596   2.794  10.258 -0.3091  0.2630  0.4449
   97MOL0     C13015  10.184   2.622  10.251 -0.5763 -0.2795  0.5151
   97MOL0     C13016  10.175   2.498  10.307  0.0491  0.2932  0.3830
   97MOL0     C13017  10.053   2.448  10.342  0.3398 -0.4441  0.7148
   97MOL0     C13018   9.935   2.529  10.320  0.1651 -1.2084 -0.3823
   97MOL0     O13019   9.812   2.482  10.348 -0.1786 -0.3891  0.4479
   97MOL0     C13020   9.769   2.385  10.250 -0.6248 -0.6982  0.4612
   97MOL0     C13021   9.627   2.410  10.219 -0.1243  0.1551 -0.0081
   97MOL0     C13022   9.539   2.430  10.336 -0.1185 -0.6908 -0.7082
   97MOL0     C13023   9.394   2.447  10.278 -0.8503 -0.3072  0.0615
   97MOL0     C13024   9.330   2.326  10.226  0.2377 -0.1686  0.1093
   97MOL0     C13025   9.290   2.221  10.182 -0.8767  0.5549  0.9211
   97MOL0     C13026   9.941   2.654  10.260  0.0943 -0.6497  0.1108
   97MOL0     C13027  10.061   2.702  10.230  0.0984  0.4301 -0.1864
   97MOL0     H13028  10.596   2.546  10.033 -2.4554  0.5896  0.6132
   97MOL0     H13029  10.800   2.644   9.959 -1.4430 -1.2259 -0.0488
   97MOL0     H13030  11.002   2.729  10.000 -1.1480 -0.2151  1.3616
   97MOL0     H13031  10.934   2.851   9.896  0.8087 -1.0669 -0.9762
   97MOL0     H13032  11.076   3.027   9.956 -1.5071 -0.5737 -2.1581
   97MOL0     H13033  11.160   2.942  10.087 -0.0522  0.7715  0.3090
   97MOL0     H13034  11.285   2.957   9.897 -2.8263  2.2922  2.9475
   97MOL0     H13035  11.253   2.786   9.935  1.6046  0.4505 -0.8204
   97MOL0     H13036  11.250   2.846   9.690  0.2203 -0.3909  1.8856
   97MOL0     H13037  11.083   2.787   9.753 -1.5927  0.2729  2.2423
   97MOL0     H13038  11.007   3.010   9.745  1.2563  1.6352  3.8356
   97MOL0     H13039  11.177   3.069   9.731  1.6776 -1.2326 -0.3961
   97MOL0     H13040  11.176   2.985   9.495 -1.5949  3.6911 -2.3675
   97MOL0     H13041  11.024   2.903   9.513 -1.6149  1.4141 -1.6427
   97MOL0     H13042  10.918   3.141   9.570 -2.2277 -1.0172 -2.3397
   97MOL0     H13043  11.065   3.208   9.526 -0.4028 -0.1937  4.7319
   97MOL0     H13044  10.888   3.197   9.346 -1.9041 -1.1126  2.9630
   97MOL0     H13045  10.887   3.015   9.343  1.9842  0.0771 -3.1343
   97MOL0     H13046  11.114   3.315   9.271  2.8473  0.9164 -0.5930
   97MOL0     H13047  11.148   3.288   8.935 -0.9687  0.3151  2.1023
   97MOL0     H13048  11.286   3.342   9.044  1.9253 -2.3242  1.9625
   97MOL0     H13049  11.286   3.133   8.832  1.9162  0.0363 -0.8900
   97MOL0     H13050  11.376   3.090   8.983 -1.2472 -1.4169 -0.5758
   97MOL0     H13051  11.538   3.178   8.848 -2.1068 -2.7699  3.7125
   97MOL0     H13052  11.483   3.325   8.938  0.4558  2.6065 -1.6905
   97MOL0     H13053  11.491   3.382   8.686  0.6868 -1.8730 -1.2746
   97MOL0     H13054  11.338   3.401   8.762 -0.3608  0.2453  0.4909
   97MOL0     H13055  11.322   3.228   8.387 -0.0200 -1.8247 -0.8311
   97MOL0     H13056  11.489   3.078   8.099 -1.1436  0.3070  0.5011
   97MOL0     H13057  11.345   3.172   8.149 -0.3340 -1.9457 -1.8226
   97MOL0     H13058  11.483   3.250   8.088  1.0915 -1.4315 -0.6904
   97MOL0     H13059  12.091   3.206   8.257 -1.4909 -1.5208  0.8537
   97MOL0     H13060  12.260   3.191   8.097 -0.3893  0.4896  3.0123
   97MOL0     H13061  12.251   3.200   7.781 -2.5437 -0.3281  1.7870
   97MOL0     H13062  12.389   3.192   7.894  0.2454 -0.5667 -0.6012
   97MOL0     H13063  12.344   3.028   7.639 -0.2452 -0.1732  1.0639
   97MOL0     H13064  12.427   3.186   7.650 -0.3644 -1.0196 -1.3751
   97MOL0     H13065  12.497   2.899   7.768 -1.6348 -0.7487 -0.7153
   97MOL0     H13066  12.600   3.035   7.804 -1.2236 -0.9802 -0.2839
   97MOL0     H13067  12.701   2.902   7.636  1.3387 -0.0182 -0.4944
   97MOL0     H13068  12.558   2.916   7.532 -2.4478  1.0918  1.9987
   97MOL0     H13069  12.634   3.172   7.520  0.5943  0.3888  1.7990
   97MOL0     H13070  12.737   3.044   7.449 -2.6249 -2.4708 -0.1370
   97MOL0     H13071  12.775   3.155   7.706 -0.0387  0.7374  0.1625
   97MOL0     H13072  12.903   3.062   7.616  0.1795  0.7130 -1.2044
   97MOL0     H13073  12.806   3.342   7.538 -0.1697  0.9191  0.0976
   97MOL0     H13074  12.911   3.243   7.445  1.8286  5.3845 -0.7678
   97MOL0     H13075  13.073   3.248   7.625  0.9409  1.4554 -0.9362
   97MOL0     H13076  12.964   3.364   7.715 -1.0403 -0.1110  0.3504
   97MOL0     H13077  12.078   2.848   7.914  3.4441  0.0655  0.7617
   97MOL0     H13078  11.883   2.879   8.065 -1.4977  1.3432 -4.2406
   97MOL0     H13079  11.795   3.142   8.478 -0.4844  1.0087  2.7069
   97MOL0     H13080  11.636   3.177   8.659  3.0889 -1.0690 -0.6539
   97MOL0     H13081  10.765   2.934  10.285  0.2100 -1.1093  0.8996
   97MOL0     H13082  10.538   2.821  10.345 -0.7860  1.6035 -0.2681
   97MOL0     H13083  10.266   2.440  10.317 -0.6194 -0.9388 -0.4472
   97MOL0     H13084  10.044   2.347  10.379  1.8849 -0.4555  1.1120
   97MOL0     H13085   9.830   2.395  10.160  0.0558  1.6589  1.1105
   97MOL0     H13086   9.788   2.289  10.301  1.0398  0.2058  1.6457
   97MOL0     H13087   9.583   2.338  10.150 -4.3690  1.1491  1.3358
   97MOL0     H13088   9.615   2.501  10.160 -0.1669  0.3401  0.2786
   97MOL0     H13089   9.551   2.520  10.396 -1.5429  0.3046 -1.8315
   97MOL0     H13090   9.545   2.340  10.398 -1.0914 -1.3116 -1.4694
   97MOL0     H13091   9.407   2.527  10.204  1.7816  0.0769  0.8234
   97MOL0     H13092   9.336   2.502  10.353 -0.9842 -0.2886 -0.0537
   97MOL0     H13093   9.246   2.131  10.142 -2.5271  2.1205 -1.0160
   97MOL0     H13094   9.856   2.709  10.222  3.7529  2.6089 -4.4125
   97MOL0     H13095  10.049   2.798  10.181 -1.6047 -0.5665 -1.8697
   98MOL0     O13096   5.411   3.643   8.232  0.1450 -0.5485 -0.3991
   98MOL0     C13097   5.498   3.649   8.315  0.9435  0.6459  0.4918
   98MOL0     O13098   5.491   3.712   8.439 -0.4587  0.2688 -0.0550
   98MOL0     C13099   5.378   3.752   8.490 -0.4393  0.5722 -1.3228
   98MOL0     C13100   5.256   3.686   8.484  0.3037 -0.0779 -0.2526
   98MOL0     C13101   5.150   3.730   8.555 -0.0508  0.6092 -0.4162
   98MOL0     C13102   5.149   3.848   8.632 -0.3130 -0.2768  0.5126
   98MOL0     O13103   5.035   3.890   8.699  0.0072  0.4011  0.0786
   98MOL0     C13104   5.007   4.011   8.772 -0.1378 -0.0382 -1.5110
   98MOL0     C13105   4.912   4.115   8.701  0.3765 -0.2762  0.1081
   98MOL0     C13106   4.791   4.045   8.645  0.3784  1.1698  0.6122
   98MOL0     C13107   4.684   4.154   8.600  0.7430 -0.4806  0.8101
   98MOL0     C13108   4.564   4.082   8.546  0.6739 -0.6896  0.4810
   98MOL0     C13109   4.453   4.186   8.505  0.1741 -0.8485  0.2146
   98MOL0     C13110   4.341   4.158   8.411 -0.1783  0.2454  0.0041
   98MOL0     C13111   4.242   4.270   8.389  0.2920  0.3381  0.4798
   98MOL0     N13112   4.128   4.257   8.482 -0.4395  0.9328  0.0670
   98MOL0     C13113   4.025   4.169   8.477 -0.7545  0.1368 -0.1722
   98MOL0     C13114   3.929   4.207   8.569  0.4319 -0.7906  1.4594
   98MOL0     C13115   3.798   4.140   8.598  0.0881 -0.3118  0.6889
   98MOL0     C13116   3.698   4.125   8.483 -0.7785  0.3103 -0.1477
   98MOL0     C13117   3.651   4.253   8.421 -0.2156  0.0522 -0.5716
   98MOL0     C13118   3.525   4.224   8.337  0.9195 -0.2251 -0.2024
   98MOL0     O13119   3.414   4.227   8.429  0.2900 -0.3186  0.1642
   98MOL0     C13120   3.284   4.231   8.394 -0.4157  0.1995  0.6258
   98MOL0     C13121   3.196   4.219   8.497  0.2041 -0.0700 -0.6659
   98MOL0     C13122   3.054   4.230   8.473 -0.5084  0.2552 -0.5261
   98MOL0     C13123   2.970   4.226   8.596  0.6343 -0.2155 -0.8589
   98MOL0     C13124   3.008   4.250   8.336  0.2892 -0.1533 -0.0490
   98MOL0     C13125   2.863   4.264   8.296  0.8008  0.2812 -0.9428
   98MOL0     O13126   2.836   4.284   8.160 -0.5233  0.0147  0.3541
   98MOL0     C13127   2.709   4.265   8.108 -0.6409 -1.0113 -0.1421
   98MOL0     C13128   2.642   4.360   8.024 -0.4046  0.6399 -0.8122
   98MOL0     C13129   2.523   4.334   7.971 -0.1768 -0.0458 -0.2146
   98MOL0     C13130   2.452   4.223   8.011  0.0634 -0.0957 -0.5038
   98MOL0     O13131   2.320   4.215   7.971 -0.7291 -0.3402  0.0724
   98MOL0     C13132   2.238   4.110   8.022 -0.4615  0.3247 -0.5438
   98MOL0     C13133   2.188   4.126   8.176  0.1462 -0.5968  0.5318
   98MOL0     C13134   2.089   4.021   8.240 -0.8549  0.2246 -0.1361
   98MOL0     C13135   2.060   4.017   8.388  0.5838 -0.1469  0.3926
   98MOL0     C13136   1.981   4.147   8.443  0.0290  0.7459  0.3790
   98MOL0     C13137   1.878   4.112   8.554  0.0477  0.2878  1.2694
   98MOL0     C13138   1.921   4.011   8.668  0.3464 -0.1017  0.3675
   98MOL0     C13139   1.804   3.994   8.769 -0.2327  0.4399 -0.3003
   98MOL0    Cl13140   1.826   3.842   8.862  0.1194 -0.0243 -0.4257
   98MOL0     C13141   2.514   4.124   8.092 -0.2087  0.5988 -0.0305
   98MOL0     C13142   2.645   4.150   8.137  0.3582  0.8663 -0.4214
   98MOL0     O13143   2.774   4.249   8.379 -0.1807 -0.0256 -1.0583
   98MOL0     C13144   3.104   4.244   8.245  0.8053  0.2279 -0.0637
   98MOL0     C13145   3.244   4.229   8.263  0.1277 -0.7160  0.5640
   98MOL0     N13146   3.980   4.332   8.620  0.1174  0.3665 -0.4291
   98MOL0     N13147   4.096   4.359   8.571  1.1977  0.8230 -0.4160
   98MOL0     C13148   5.274   3.926   8.633  1.3955  0.1987 -0.8447
   98MOL0     C13149   5.392   3.871   8.573 -0.1194 -1.5502  0.4618
   98MOL0     C13150   5.622   3.580   8.276  1.2281 -0.0010  0.4584
   98MOL0     C13151   5.754   3.622   8.315 -0.5590  0.5833  0.7968
   98MOL0     C13152   5.863   3.542   8.280 -0.3920  0.1616  0.1890
   98MOL0     C13153   5.856   3.425   8.216  0.3103  0.1289 -0.6507
   98MOL0     O13154   5.969   3.361   8.187 -0.2873 -0.2333 -0.7965
   98MOL0     C13155   6.002   3.395   8.050 -0.8144  0.1103  0.0828
   98MOL0     C13156   6.122   3.312   8.019 -0.0110 -0.3537  0.4067
   98MOL0     C13157   6.243   3.344   8.094  0.6326 -0.4487 -0.7643
   98MOL0     C13158   6.374   3.283   8.042  0.3030 -0.2317  0.0171
   98MOL0     C13159   6.448   3.351   7.933  0.6989 -0.4468 -1.1245
   98MOL0     C13160   6.514   3.403   7.843 -0.0533 -0.6119 -0.6701
   98MOL0     C13161   5.730   3.374   8.176  0.1196 -0.2113 -0.6779
   98MOL0     C13162   5.616   3.456   8.198  0.5342  0.0378 -0.6561
   98MOL0     H13163   5.256   3.592   8.429  1.7995 -0.5881  0.5667
   98MOL0     H13164   5.060   3.670   8.548  0.0825  0.6122 -2.9539
   98MOL0     H13165   4.959   3.980   8.866  1.8467  3.5214  0.9339
   98MOL0     H13166   5.095   4.070   8.800  0.0712 -2.0059  2.9078
   98MOL0     H13167   4.896   4.196   8.773 -1.3029  0.0395 -0.5695
   98MOL0     H13168   4.961   4.162   8.615  1.8464 -0.4436  0.8248
   98MOL0     H13169   4.807   3.980   8.559 -3.9943  1.9263 -1.0101
   98MOL0     H13170   4.755   3.985   8.729 -1.1052  1.3220  0.1195
   98MOL0     H13171   4.647   4.198   8.693  0.8719 -2.2842  1.7511
   98MOL0     H13172   4.730   4.221   8.526 -2.5266  1.1314  0.0183
   98MOL0     H13173   4.603   4.042   8.452 -1.9962 -4.0275  0.6231
   98MOL0     H13174   4.534   4.004   8.617 -0.8070  0.6253  1.3723
   98MOL0     H13175   4.410   4.235   8.593  1.5871  0.6598  0.1230
   98MOL0     H13176   4.511   4.271   8.468 -1.8090  1.2441  1.6434
   98MOL0     H13177   4.382   4.127   8.314  0.9664 -2.4372  1.2450
   98MOL0     H13178   4.287   4.068   8.440  0.0918 -0.0275 -0.3229
   98MOL0     H13179   4.208   4.274   8.285  4.6138  0.5163 -1.1263
   98MOL0     H13180   4.291   4.363   8.421  1.9277 -0.3385  0.0202
   98MOL0     H13181   4.013   4.082   8.413  0.5887 -0.4751  0.3899
   98MOL0     H13182   3.813   4.037   8.633  2.9208 -0.1697  0.1665
   98MOL0     H13183   3.751   4.201   8.675  0.7708 -0.1537  0.9930
   98MOL0     H13184   3.610   4.079   8.529  0.3176 -1.6587  0.0765
   98MOL0     H13185   3.746   4.062   8.407 -1.6139 -0.4989 -0.0274
   98MOL0     H13186   3.738   4.293   8.369  0.9463  2.5988  2.9058
   98MOL0     H13187   3.632   4.332   8.494 -1.1135  2.6282 -3.3837
   98MOL0     H13188   3.533   4.130   8.282  1.4531  0.2161 -0.8962
   98MOL0     H13189   3.512   4.305   8.264  1.6255 -0.7695 -0.9530
   98MOL0     H13190   3.238   4.195   8.594  0.8991 -1.3773 -1.2618
   98MOL0     H13191   2.922   4.321   8.621 -3.7309 -2.8721  2.2904
   98MOL0     H13192   2.891   4.156   8.568 -0.3062  0.1349  0.7643
   98MOL0     H13193   3.029   4.181   8.677 -1.6622 -1.3762  0.2592
   98MOL0     H13194   2.687   4.451   7.986 -0.6834  0.8770 -0.5800
   98MOL0     H13195   2.477   4.397   7.896  0.4145  0.6726  0.0149
   98MOL0     H13196   2.155   4.100   7.950  0.0715  5.8158 -2.4414
   98MOL0     H13197   2.275   4.007   8.018 -0.2548  0.3958 -0.4850
   98MOL0     H13198   2.280   4.122   8.237  0.7931  1.3290 -0.2297
   98MOL0     H13199   2.135   4.221   8.186 -1.0711 -1.0936 -0.9269
   98MOL0     H13200   2.142   3.928   8.220 -0.1324  1.3361 -4.4671
   98MOL0     H13201   1.997   4.016   8.182 -1.9416  1.0897  1.4409
   98MOL0     H13202   1.990   3.932   8.393  0.0724  0.2624  0.3079
   98MOL0     H13203   2.160   4.006   8.431  0.3302  3.2381  2.1940
   98MOL0     H13204   1.935   4.201   8.360 -1.4592  3.4846  2.8074
   98MOL0     H13205   2.065   4.208   8.478  0.2833 -0.4114  1.8965
   98MOL0     H13206   1.846   4.202   8.607  0.4671  1.3118 -0.1343
   98MOL0     H13207   1.786   4.075   8.508  0.3106  2.5415 -1.3515
   98MOL0     H13208   2.014   4.042   8.717  0.7970 -0.9671  0.0772
   98MOL0     H13209   1.940   3.915   8.619 -0.7351 -0.0267 -0.2213
   98MOL0     H13210   1.708   3.995   8.717 -1.3629 -1.0816  1.6227
   98MOL0     H13211   1.806   4.076   8.842  2.4788  0.9957 -0.8923
   98MOL0     H13212   2.469   4.033   8.130 -0.3547  1.1610  1.2114
   98MOL0     H13213   2.699   4.075   8.193  1.1191  0.8226 -1.1929
   98MOL0     H13214   3.075   4.257   8.142 -0.5019 -1.9751 -0.0395
   98MOL0     H13215   3.311   4.227   8.178  2.4798  1.8117  2.1880
   98MOL0     H13216   5.287   4.024   8.679 -1.1796 -0.0320  0.5682
   98MOL0     H13217   5.488   3.920   8.583 -0.9359  0.3037 -0.3932
   98MOL0     H13218   5.764   3.713   8.373  0.7633  0.7625  0.3130
   98MOL0     H13219   5.957   3.572   8.326 -0.3100 -1.6819  1.3069
   98MOL0     H13220   5.914   3.370   7.989 -0.5663  0.3008 -0.3563
   98MOL0     H13221   6.025   3.502   8.046  0.3495 -0.0904  0.8901
   98MOL0     H13222   6.138   3.318   7.911  1.5236  1.7350  0.6928
   98MOL0     H13223   6.098   3.206   8.035  0.7446 -0.6040 -0.0921
   98MOL0     H13224   6.226   3.308   8.196 -0.2399  2.2026  0.1123
   98MOL0     H13225   6.249   3.453   8.105  1.7323 -0.7325  2.2599
   98MOL0     H13226   6.356   3.177   8.019  0.3164 -1.2487  3.8776
   98MOL0     H13227   6.445   3.281   8.126 -0.1909  0.0320  0.4458
   98MOL0     H13228   6.584   3.426   7.764  1.1755 -1.6796  0.0709
   98MOL0     H13229   5.726   3.271   8.143 -2.8827 -0.1158 -0.9131
   98MOL0     H13230   5.515   3.427   8.171 -0.0671 -0.0346  1.4734
   99MOL0     O13231   9.017   7.667  10.314 -0.3716  0.0695  0.2619
   99MOL0     C13232   8.910   7.614  10.332  0.6979  0.0605 -0.2685
   99MOL0     O13233   8.860   7.575  10.449  0.3410  0.5576 -0.2926
   99MOL0     C13234   8.910   7.633  10.561  0.2811 -0.2130 -0.2718
   99MOL0     C13235   9.026   7.581  10.613  0.1074 -0.3509 -0.1148
   99MOL0     C13236   9.100   7.631  10.719 -0.4160  0.5542 -0.1409
   99MOL0     C13237   9.043   7.735  10.791  0.1949  0.0123 -0.7606
   99MOL0     O13238   9.087   7.786  10.909 -0.3846 -0.5754  0.4157
   99MOL0     C13239   9.212   7.862  10.889  0.0405  0.2538  0.0630
   99MOL0     C13240   9.333   7.776  10.905  0.3642 -0.6575 -0.1606
   99MOL0     C13241   9.318   7.681  11.022  0.3407  0.5390  0.9009
   99MOL0     C13242   9.434   7.573  11.014  0.2242  0.4399 -0.0202
   99MOL0     C13243   9.399   7.449  11.096 -0.1666 -0.0549 -0.1728
   99MOL0     C13244   9.385   7.478  11.247 -0.9085 -0.0212  0.1227
   99MOL0     C13245   9.409   7.356  11.339 -0.4261  1.0877  0.4781
   99MOL0     C13246   9.403   7.379  11.494 -0.0090 -0.2188  0.0315
   99MOL0     N13247   9.537   7.444  11.529 -0.1704  0.8932  0.0689
   99MOL0     C13248   9.667   7.393  11.516  0.7897 -0.1559  0.0866
   99MOL0     C13249   9.740   7.474  11.595  0.3331 -0.9759 -0.3785
   99MOL0     C13250   9.885   7.444  11.637  0.4169  1.0540  0.7665
   99MOL0     C13251   9.984   7.458  11.521  1.2751 -0.2197 -0.0333
   99MOL0     C13252  10.006   7.605  11.463 -0.7280  0.8057 -0.1445
   99MOL0     C13253   9.896   7.669  11.373 -0.3547 -0.0071  0.0419
   99MOL0     O13254   9.874   7.605  11.258 -0.1679  0.0831 -0.2520
   99MOL0     C13255   9.825   7.679  11.156 -0.2011 -0.0741  0.6218
   99MOL0     C13256   9.763   7.806  11.174  0.1300 -0.4616  0.4254
   99MOL0     C13257   9.706   7.872  11.062 -0.7523  0.3567 -0.1862
   99MOL0     C13258   9.645   8.000  11.077 -0.9258  0.7880  0.3340
   99MOL0     C13259   9.723   7.807  10.937 -0.0895 -0.0692 -0.0314
   99MOL0     C13260   9.684   7.871  10.809  0.1333 -0.7295 -0.1833
   99MOL0     O13261   9.631   7.792  10.715 -0.7570 -0.2701 -0.0829
   99MOL0     C13262   9.588   7.819  10.583 -0.0544 -0.4163 -0.1485
   99MOL0     C13263   9.485   7.735  10.533  0.1152  0.0152 -0.0232
   99MOL0     C13264   9.441   7.758  10.394 -0.0016 -0.2809  0.7015
   99MOL0     C13265   9.494   7.860  10.316 -0.1216  0.2082  0.1297
   99MOL0     O13266   9.433   7.896  10.201  1.3179  0.0740 -0.0981
   99MOL0     C13267   9.399   8.036  10.172 -0.5516 -0.1383  0.7412
   99MOL0     C13268   9.447   8.081  10.030  0.1245 -0.0699 -0.3967
   99MOL0     C13269   9.326   8.093   9.938  0.1075 -0.0963  0.1253
   99MOL0     C13270   9.234   7.972   9.916  0.4142 -0.1634 -0.7390
   99MOL0     C13271   9.163   7.985   9.787 -0.5201 -0.0685 -0.9362
   99MOL0     C13272   9.071   7.858   9.766  0.0608 -0.7842 -0.5822
   99MOL0     C13273   9.015   7.860   9.620  0.4447 -0.0240 -0.2802
   99MOL0     C13274   8.888   7.773   9.595  0.1687  0.1165  0.2014
   99MOL0    Cl13275   8.917   7.602   9.630  0.2363  0.4216  0.0221
   99MOL0     C13276   9.598   7.932  10.379  0.1838 -0.7491  0.8991
   99MOL0     C13277   9.642   7.920  10.505  0.3691 -0.9365 -0.1367
   99MOL0     O13278   9.695   7.990  10.795 -0.2917 -0.2649  0.1346
   99MOL0     C13279   9.779   7.683  10.930 -0.0508  1.3450  0.7451
   99MOL0     C13280   9.830   7.614  11.033  0.1655 -0.2642  0.3489
   99MOL0     N13281   9.651   7.571  11.645  0.0872  0.5205 -0.2526
   99MOL0     N13282   9.533   7.553  11.594 -0.0739 -0.7198 -0.5540
   99MOL0     C13283   8.913   7.787  10.751 -0.9475 -0.0348 -0.6983
   99MOL0     C13284   8.853   7.739  10.631 -0.0908 -0.1821 -0.5838
   99MOL0     C13285   8.823   7.602  10.211  0.1017 -0.0813  0.1321
   99MOL0     C13286   8.880   7.623  10.086 -0.1807 -0.3566  0.1701
   99MOL0     C13287   8.804   7.613   9.971  0.5731  0.1421 -0.3217
   99MOL0     C13288   8.663   7.581   9.974 -0.7797  0.9186 -0.2303
   99MOL0     O13289   8.602   7.568   9.852  0.9829 -0.2234  0.5774
   99MOL0     C13290   8.471   7.501   9.835 -0.2255 -0.5167 -0.1029
   99MOL0     C13291   8.517   7.352   9.833  0.1180  0.5374  0.1269
   99MOL0     C13292   8.618   7.319   9.726  0.3078  0.3858  0.3535
   99MOL0     C13293   8.662   7.174   9.731 -0.9070  0.7584 -0.2434
   99MOL0     C13294   8.560   7.066   9.700 -0.8524  0.6817  0.5185
   99MOL0     C13295   8.500   6.965   9.671 -1.2554  0.6163 -0.4873
   99MOL0     C13296   8.608   7.572  10.102 -0.0726  0.1098 -0.8418
   99MOL0     C13297   8.686   7.581  10.223 -0.0498 -0.6440  0.3220
   99MOL0     H13298   9.065   7.488  10.572 -0.8623 -2.4203  3.2794
   99MOL0     H13299   9.195   7.588  10.748 -0.3735  1.2416  0.7870
   99MOL0     H13300   9.206   7.910  10.791 -0.5067  0.7006  0.3086
   99MOL0     H13301   9.223   7.941  10.964 -0.5577 -0.6710  1.1567
   99MOL0     H13302   9.347   7.712  10.818 -3.5840  1.9421 -3.0616
   99MOL0     H13303   9.415   7.845  10.926 -2.4067  3.0107 -0.4310
   99MOL0     H13304   9.319   7.739  11.114  0.3644  1.1982  0.4883
   99MOL0     H13305   9.223   7.628  11.012  1.4299 -1.3495 -0.1190
   99MOL0     H13306   9.458   7.542  10.911  2.1992 -2.3308  1.1326
   99MOL0     H13307   9.522   7.616  11.063  1.3124 -1.1503 -0.4668
   99MOL0     H13308   9.306   7.396  11.075  0.9589 -2.8532  1.4030
   99MOL0     H13309   9.482   7.378  11.092 -1.5294 -1.6521 -1.2749
   99MOL0     H13310   9.473   7.540  11.264 -0.6810  0.0096 -1.0805
   99MOL0     H13311   9.291   7.520  11.283 -0.8766  0.3300 -0.1955
   99MOL0     H13312   9.332   7.284  11.310  0.8958 -1.0067  1.9157
   99MOL0     H13313   9.500   7.302  11.314 -1.2727 -0.1008 -0.1153
   99MOL0     H13314   9.396   7.292  11.559  2.4763 -1.3192 -1.0413
   99MOL0     H13315   9.318   7.443  11.520 -1.0804 -0.7844 -1.8462
   99MOL0     H13316   9.699   7.306  11.460  0.5580 -1.7144  2.2099
   99MOL0     H13317   9.909   7.529  11.701 -1.6565  2.6204 -0.4071
   99MOL0     H13318   9.893   7.341  11.675  0.7522  0.3263 -1.1451
   99MOL0     H13319   9.957   7.388  11.442  2.7611 -2.5055  1.3573
   99MOL0     H13320  10.078   7.421  11.565  2.1362  2.8399  0.9596
   99MOL0     H13321  10.098   7.592  11.406 -2.2007  1.0921 -2.7590
   99MOL0     H13322  10.033   7.662  11.552  4.6339 -0.7295 -0.4619
   99MOL0     H13323   9.941   7.767  11.352  0.3325  0.7299  4.1143
   99MOL0     H13324   9.801   7.680  11.427 -0.1074  2.1364  0.1558
   99MOL0     H13325   9.757   7.849  11.273 -0.6749 -1.3202  0.7587
   99MOL0     H13326   9.643   8.017  11.185 -1.9567 -0.5319  0.5619
   99MOL0     H13327   9.699   8.067  11.010  0.2833 -3.7977 -3.8217
   99MOL0     H13328   9.542   8.003  11.039 -0.2393  2.5455 -1.5873
   99MOL0     H13329   9.459   7.646  10.589  1.4762  0.3848  1.2547
   99MOL0     H13330   9.364   7.690  10.361  0.9713 -0.9868 -0.1791
   99MOL0     H13331   9.292   8.061  10.178 -0.1284  2.8815 -1.5608
   99MOL0     H13332   9.446   8.111  10.237 -0.6019  2.7715 -2.2785
   99MOL0     H13333   9.495   8.180  10.035 -4.3383  2.2921  1.3631
   99MOL0     H13334   9.503   8.005   9.976  2.5927  1.6617 -0.4493
   99MOL0     H13335   9.367   8.118   9.840 -0.9761  1.4453  0.0254
   99MOL0     H13336   9.262   8.177   9.969 -0.5933 -0.7639  0.5096
   99MOL0     H13337   9.283   7.875   9.924  0.9914  0.2126  0.5033
   99MOL0     H13338   9.168   7.973  10.003  2.0040 -0.8446  0.5195
   99MOL0     H13339   9.240   7.982   9.709  0.8972  0.5061  0.4055
   99MOL0     H13340   9.099   8.074   9.785 -0.4769  0.0858  1.6208
   99MOL0     H13341   9.123   7.763   9.781 -1.0513 -0.9479  3.6425
   99MOL0     H13342   8.994   7.864   9.844  2.4138  3.9668  1.8192
   99MOL0     H13343   9.092   7.821   9.554  0.4828 -1.3765  0.5114
   99MOL0     H13344   8.995   7.965   9.597  2.4120  0.3056 -0.6490
   99MOL0     H13345   8.862   7.797   9.492  0.5361 -0.1330  0.0473
   99MOL0     H13346   8.815   7.821   9.661 -0.9770 -0.9498 -0.2492
   99MOL0     H13347   9.631   8.010  10.312 -0.5798 -1.9735 -0.9711
   99MOL0     H13348   9.718   7.987  10.546  0.5315 -0.3439 -1.3527
   99MOL0     H13349   9.756   7.636  10.834  0.2860  2.2611  0.2019
   99MOL0     H13350   9.870   7.514  11.018 -0.5606 -0.5315  0.1270
   99MOL0     H13351   8.877   7.856  10.827  2.5888 -1.4164  2.5817
   99MOL0     H13352   8.763   7.799  10.616 -0.2636 -0.3537 -0.2649
   99MOL0     H13353   8.982   7.656  10.068 -0.8590  2.6122  1.1372
   99MOL0     H13354   8.851   7.613   9.873  0.4547 -1.6728 -0.4200
   99MOL0     H13355   8.401   7.529   9.915  0.1778  1.1948 -0.3027
   99MOL0     H13356   8.434   7.524   9.735  3.3505 -1.5555 -1.8394
   99MOL0     H13357   8.436   7.281   9.815  1.4669 -0.2982 -3.8702
   99MOL0     H13358   8.563   7.338   9.931 -1.4983  0.3056  0.8756
   99MOL0     H13359   8.703   7.384   9.744 -0.0359  0.4373  1.9194
   99MOL0     H13360   8.576   7.347   9.629  1.6980 -0.4272 -0.5067
   99MOL0     H13361   8.705   7.142   9.827  3.7064 -0.4723 -2.4506
   99MOL0     H13362   8.736   7.166   9.652 -0.2768  1.2404  0.2869
   99MOL0     H13363   8.467   6.863   9.661  1.0245 -0.3003  0.6538
   99MOL0     H13364   8.502   7.557  10.118  0.5020 -3.9807  0.2369
   99MOL0     H13365   8.638   7.570  10.319 -3.2212  0.1033 -1.0596
  100MOL0     O13366   8.352   2.258   9.852 -0.2631 -0.4859 -0.3258
  100MOL0     C13367   8.244   2.211   9.882  0.0392 -0.5180 -0.6967
  100MOL0     O13368   8.116   2.264   9.846 -0.1970 -0.3824 -0.0321
  100MOL0     C13369   8.096   2.382   9.771  0.9548  0.6742 -0.3641
  100MOL0     C13370   7.969   2.389   9.706 -0.6249  0.1051 -0.0331
  100MOL0     C13371   7.938   2.504   9.636  0.5366  0.4017  0.0589
  100MOL0     C13372   8.032   2.607   9.628  0.2275 -0.8994  0.8400
  100MOL0     O13373   8.003   2.714   9.546 -0.3254 -0.2460 -0.3744
  100MOL0     C13374   7.871   2.723   9.483 -0.3233  0.0029  0.0204
  100MOL0     C13375   7.849   2.852   9.404  0.4356 -0.3995  0.2036
  100MOL0     C13376   7.934   2.868   9.284  0.0964  0.6827 -0.1651
  100MOL0     C13377   7.918   3.000   9.224 -0.6684  0.2777 -0.1805
  100MOL0     C13378   7.780   3.044   9.183  0.7078  0.1252  0.4513
  100MOL0     C13379   7.713   2.967   9.068 -0.0430  0.3167  1.1511
  100MOL0     C13380   7.570   3.015   9.034  0.0661 -0.1840  0.0114
  100MOL0     C13381   7.513   2.925   8.931  0.5750  0.6330  0.1010
  100MOL0     N13382   7.370   2.920   8.940  0.4557  0.1994  0.7410
  100MOL0     C13383   7.280   2.997   8.866 -1.1469 -0.9570 -1.2835
  100MOL0     C13384   7.159   2.954   8.904  0.0687  0.4243 -0.0768
  100MOL0     C13385   7.024   3.008   8.879  0.9529 -0.4219 -0.2607
  100MOL0     C13386   6.968   2.979   8.739  0.8069 -0.0496 -0.2679
  100MOL0     C13387   6.864   3.081   8.700 -0.3430 -0.4783 -0.8431
  100MOL0     C13388   6.740   3.069   8.789  0.9292 -0.0048  0.2393
  100MOL0     O13389   6.648   3.168   8.749 -1.0401 -0.2498  0.1649
  100MOL0     C13390   6.527   3.181   8.822 -0.1515 -0.1862 -0.4583
  100MOL0     C13391   6.490   3.292   8.896 -0.5531  0.7411 -0.3416
  100MOL0     C13392   6.360   3.302   8.957 -0.4015 -1.2531 -0.2483
  100MOL0     C13393   6.334   3.424   9.041  0.1751  0.0723 -0.5681
  100MOL0     C13394   6.263   3.199   8.949 -0.0978  0.2471  0.2913
  100MOL0     C13395   6.134   3.198   9.022  0.3416  0.5156 -0.3628
  100MOL0     O13396   6.049   3.096   8.972 -0.3460  0.4622  0.3473
  100MOL0     C13397   5.975   3.040   9.066  0.0717 -0.4887 -1.2048
  100MOL0     C13398   5.839   3.064   9.072  0.1404 -1.0338 -0.2347
  100MOL0     C13399   5.753   2.990   9.156  0.4490  0.5637 -0.6740
  100MOL0     C13400   5.805   2.890   9.246 -0.6683 -0.0242 -0.6313
  100MOL0     O13401   5.715   2.824   9.322  0.0591  0.1303 -0.1719
  100MOL0     C13402   5.759   2.725   9.414 -0.2623 -0.5340 -0.2930
  100MOL0     C13403   5.825   2.770   9.548  0.6444  0.0109  0.3986
  100MOL0     C13404   5.704   2.847   9.623 -0.2003  0.4012  0.2055
  100MOL0     C13405   5.734   2.854   9.773 -0.0894  0.6468 -1.2053
  100MOL0     C13406   5.605   2.898   9.854 -0.8462  0.2304 -0.7698
  100MOL0     C13407   5.611   2.881  10.004 -0.5157 -0.7084 -0.8230
  100MOL0     C13408   5.493   2.944  10.077 -0.6242  0.2320  0.3893
  100MOL0     C13409   5.541   3.076  10.130  1.0592 -0.0228  0.2190
  100MOL0    Cl13410   5.408   3.179  10.176 -0.1599 -0.0471  0.5412
  100MOL0     C13411   5.950   2.866   9.234  1.0944  0.7481 -1.3430
  100MOL0     C13412   6.029   2.935   9.148 -0.4059 -0.4115 -0.3901
  100MOL0     O13413   6.114   3.268   9.116 -0.2195 -0.9713  0.0333
  100MOL0     C13414   6.308   3.081   8.873  0.0715  0.5279  0.0006
  100MOL0     C13415   6.434   3.074   8.810 -0.5806 -0.5173  0.2099
  100MOL0     N13416   7.179   2.850   8.987  0.7288 -0.8241 -0.7723
  100MOL0     N13417   7.302   2.842   9.022 -0.0329  0.0429 -0.5851
  100MOL0     C13418   8.154   2.595   9.686 -0.5345 -0.4604  0.9701
  100MOL0     C13419   8.188   2.486   9.761  0.2729  0.3871  0.0945
  100MOL0     C13420   8.228   2.085   9.966 -0.2556 -0.2800 -0.6485
  100MOL0     C13421   8.348   2.019  10.012 -1.0233 -0.5717  0.0684
  100MOL0     C13422   8.341   1.916  10.109  0.3892  0.0356  0.3270
  100MOL0     C13423   8.214   1.882  10.170  0.1819 -0.4502  0.9360
  100MOL0     O13424   8.197   1.788  10.267  0.2340  0.3067 -0.7886
  100MOL0     C13425   8.311   1.767  10.348 -0.4237 -0.2878 -0.0266
  100MOL0     C13426   8.251   1.723  10.484 -0.1059 -0.1709  0.9598
  100MOL0     C13427   8.204   1.580  10.465 -0.8264 -0.4731 -0.5457
  100MOL0     C13428   8.160   1.528  10.603 -0.7696  0.0398  0.0779
  100MOL0     C13429   8.113   1.385  10.587  0.9461 -0.0066  0.4310
  100MOL0     C13430   8.062   1.279  10.591  0.3248 -0.7186  0.1785
  100MOL0     C13431   8.098   1.954  10.121  0.7738  0.9952  0.3540
  100MOL0     C13432   8.108   2.047  10.023  0.1588  0.8606 -0.2579
  100MOL0     H13433   7.902   2.304   9.711 -0.1936 -0.4837 -2.8629
  100MOL0     H13434   7.836   2.499   9.599  0.3007 -0.7737  0.8163
  100MOL0     H13435   7.860   2.630   9.426 -3.8251  1.0466 -1.3173
  100MOL0     H13436   7.796   2.726   9.563  1.0098  5.6975  1.5143
  100MOL0     H13437   7.743   2.875   9.386  0.9680 -0.1031 -3.1639
  100MOL0     H13438   7.883   2.928   9.475  0.1433  0.4709 -0.5651
  100MOL0     H13439   8.040   2.864   9.311 -0.5832  0.6339  2.8781
  100MOL0     H13440   7.914   2.790   9.210  1.3338 -0.5093  0.6983
  100MOL0     H13441   7.956   3.068   9.300 -1.7512 -0.3791  0.9952
  100MOL0     H13442   7.971   2.998   9.128  2.5912 -5.2066  1.3033
  100MOL0     H13443   7.715   3.037   9.271 -0.2198 -5.7381 -0.3234
  100MOL0     H13444   7.790   3.150   9.158  2.8641 -0.7897 -3.3620
  100MOL0     H13445   7.776   2.978   8.980  0.3336  2.5731  1.6308
  100MOL0     H13446   7.720   2.864   9.104 -0.1907 -0.4306 -0.8752
  100MOL0     H13447   7.511   2.993   9.123 -2.9569  1.0147 -1.5358
  100MOL0     H13448   7.561   3.121   9.007  0.1703 -0.7181 -2.4245
  100MOL0     H13449   7.553   2.825   8.950  0.4576  0.2478 -1.4885
  100MOL0     H13450   7.546   2.955   8.830 -0.8809  0.7627 -0.3505
  100MOL0     H13451   7.296   3.090   8.811 -1.6376 -0.6893 -0.9784
  100MOL0     H13452   6.959   2.974   8.960  0.8326 -1.1609 -0.6635
  100MOL0     H13453   7.030   3.117   8.892 -1.6628 -0.2621  0.2480
  100MOL0     H13454   6.928   2.877   8.731 -3.2957  1.3028  0.7569
  100MOL0     H13455   7.046   2.984   8.662 -0.3914  0.6904 -1.4982
  100MOL0     H13456   6.825   3.071   8.598  0.4712 -1.5640 -1.0676
  100MOL0     H13457   6.915   3.178   8.708  1.5725 -1.4739 -0.3853
  100MOL0     H13458   6.759   3.092   8.894 -1.7018 -0.6287  0.9219
  100MOL0     H13459   6.704   2.967   8.775  1.8545 -0.6018  1.8702
  100MOL0     H13460   6.570   3.366   8.896 -0.0585  0.2155 -0.1848
  100MOL0     H13461   6.244   3.476   9.007  0.7590 -0.2870 -2.8372
  100MOL0     H13462   6.307   3.401   9.145 -3.6242  4.8074 -0.1428
  100MOL0     H13463   6.422   3.488   9.047  3.8813 -4.5719  0.9108
  100MOL0     H13464   5.786   3.134   9.008  1.6970 -0.4082 -0.8756
  100MOL0     H13465   5.646   3.007   9.156  0.4876  0.8162 -0.7088
  100MOL0     H13466   5.674   2.664   9.447  0.4634 -1.9726 -0.9808
  100MOL0     H13467   5.829   2.656   9.366 -2.9949 -2.6126 -1.5705
  100MOL0     H13468   5.864   2.693   9.615  1.6798  0.2667  0.1035
  100MOL0     H13469   5.902   2.845   9.528  0.8542 -0.4150 -0.4151
  100MOL0     H13470   5.605   2.807   9.597 -0.8451  2.5465 -0.8524
  100MOL0     H13471   5.703   2.949   9.583  1.5789  0.7991  1.0811
  100MOL0     H13472   5.761   2.755   9.809 -2.0071  0.5621  0.1640
  100MOL0     H13473   5.819   2.920   9.794 -0.3412  0.2944  1.1915
  100MOL0     H13474   5.511   2.852   9.821 -1.3233  0.7346 -0.1575
  100MOL0     H13475   5.597   3.005   9.829 -0.4248 -0.0874 -2.4207
  100MOL0     H13476   5.611   2.772  10.014  4.9134 -1.4736 -4.6793
  100MOL0     H13477   5.703   2.910  10.056 -0.5318  0.4053 -1.3738
  100MOL0     H13478   5.471   2.880  10.162  1.7366 -2.6444 -0.9863
  100MOL0     H13479   5.405   2.960  10.014  0.4839 -1.2993 -1.6593
  100MOL0     H13480   5.607   3.130  10.061  4.1223 -1.1986  2.0251
  100MOL0     H13481   5.600   3.059  10.221  0.2196  1.1617  1.0247
  100MOL0     H13482   5.997   2.779   9.278  2.3125  1.8077 -0.4304
  100MOL0     H13483   6.128   2.899   9.123 -0.3900 -0.7145  0.1150
  100MOL0     H13484   6.252   2.988   8.868 -3.2243  2.3283  0.2102
  100MOL0     H13485   6.464   2.998   8.738 -1.1956 -1.8139  1.2871
  100MOL0     H13486   8.234   2.665   9.666  0.9867 -2.3867  0.0752
  100MOL0     H13487   8.289   2.478   9.801  1.0237  0.6781 -1.6334
  100MOL0     H13488   8.440   2.054   9.966 -1.1653 -0.4221 -0.1019
  100MOL0     H13489   8.421   1.859  10.154 -0.4176  1.1940  3.5620
  100MOL0     H13490   8.382   1.695  10.307  1.3688  0.6560  1.2987
  100MOL0     H13491   8.364   1.863  10.350 -0.3359 -0.3397  0.0990
  100MOL0     H13492   8.161   1.778  10.514  0.7742  0.1688  3.2506
  100MOL0     H13493   8.325   1.730  10.565 -0.6823  1.0024  1.4138
  100MOL0     H13494   8.283   1.516  10.424  0.1373 -0.5487  1.3211
  100MOL0     H13495   8.118   1.566  10.399 -1.5489 -0.0912  0.2946
  100MOL0     H13496   8.071   1.579  10.641 -1.0103 -0.7083  0.5261
  100MOL0     H13497   8.243   1.532  10.673 -1.1572  0.8423  0.5125
  100MOL0     H13498   8.030   1.180  10.614 -0.1175 -0.6496 -0.1050
  100MOL0     H13499   7.999   1.929  10.159 -1.4816  2.1186 -4.1212
  100MOL0     H13500   8.016   2.104  10.012 -0.9474 -0.4351  1.7654
  101MOL0     O13501   4.374   1.237  10.740 -0.4312 -0.8168 -0.8418
  101MOL0     C13502   4.389   1.180  10.852 -0.0739 -1.0609  1.0590
  101MOL0     O13503   4.293   1.116  10.918 -0.5193  0.4000 -1.0856
  101MOL0     C13504   4.166   1.111  10.870 -0.2667  0.2934 -0.0261
  101MOL0     C13505   4.097   0.999  10.922 -0.4050 -0.7108  0.7348
  101MOL0     C13506   3.957   0.985  10.912 -0.7164  0.0516  0.6791
  101MOL0     C13507   3.884   1.085  10.859 -0.6461 -0.1671  0.4523
  101MOL0     O13508   3.744   1.080  10.874 -0.4953 -1.2311 -0.5202
  101MOL0     C13509   3.663   1.158  10.784  0.8467  0.1351 -0.0895
  101MOL0     C13510   3.518   1.107  10.786 -0.4733 -0.0285 -0.0164
  101MOL0     C13511   3.430   1.209  10.716  0.1289  0.0591  0.5615
  101MOL0     C13512   3.301   1.144  10.671 -0.5262 -0.5463  0.4531
  101MOL0     C13513   3.209   1.229  10.594  0.5764  0.4697  0.6452
  101MOL0     C13514   3.144   1.338  10.687  0.5146 -0.1358 -0.4139
  101MOL0     C13515   3.036   1.406  10.600  0.9456  0.1907 -0.1388
  101MOL0     C13516   2.982   1.555  10.635  0.3411 -0.4076  0.2163
  101MOL0     N13517   2.874   1.598  10.542  0.3178  0.6580  0.0662
  101MOL0     C13518   2.742   1.633  10.563  0.2649 -1.2844 -0.7674
  101MOL0     C13519   2.701   1.668  10.443  0.0148 -0.6513 -0.8938
  101MOL0     C13520   2.568   1.720  10.411  0.1600  0.5090 -0.4132
  101MOL0     C13521   2.451   1.628  10.435 -0.2600  1.2533 -0.1818
  101MOL0     C13522   2.420   1.532  10.313 -1.3008 -0.0779 -0.2443
  101MOL0     C13523   2.532   1.424  10.293  0.3592 -0.3786 -0.0265
  101MOL0     O13524   2.537   1.351  10.418  0.1396 -0.6383 -0.3810
  101MOL0     C13525   2.607   1.225  10.417  1.0127 -0.7329  0.8023
  101MOL0     C13526   2.558   1.109  10.480 -0.0166  0.3362 -0.2140
  101MOL0     C13527   2.630   0.985  10.477 -0.6193  0.0605 -0.1275
  101MOL0     C13528   2.573   0.869  10.557  0.2137  0.1005 -0.2301
  101MOL0     C13529   2.754   0.975  10.404 -0.2587  0.0677 -0.8768
  101MOL0     C13530   2.830   0.856  10.398  0.0173  0.5294  1.1951
  101MOL0     O13531   2.976   0.857  10.393 -0.4476 -0.5590 -0.1803
  101MOL0     C13532   3.053   0.749  10.355 -1.4630  0.4184  0.4060
  101MOL0     C13533   3.030   0.683  10.234  0.9250 -0.1014 -0.3463
  101MOL0     C13534   3.121   0.590  10.190 -0.0116 -0.7910  0.0812
  101MOL0     C13535   3.230   0.548  10.269 -0.0295 -0.0947  0.4317
  101MOL0     O13536   3.294   0.438  10.215 -0.1564 -1.1568  0.2995
  101MOL0     C13537   3.420   0.407  10.263 -0.2734 -0.4163  0.2457
  101MOL0     C13538   3.528   0.511  10.239 -0.2713 -0.3631  0.3596
  101MOL0     C13539   3.641   0.487  10.338  0.3999 -0.0261  0.2122
  101MOL0     C13540   3.705   0.341  10.329  0.2198  0.4575 -0.2553
  101MOL0     C13541   3.813   0.313  10.435 -0.1972 -0.2211 -0.6202
  101MOL0     C13542   3.910   0.207  10.402  0.4945 -0.1798 -0.0716
  101MOL0     C13543   4.023   0.206  10.506  1.0375 -0.0640  0.5001
  101MOL0     C13544   4.156   0.141  10.470  0.5546 -0.4857  0.1351
  101MOL0    Cl13545   4.133  -0.023  10.421 -0.0188 -0.5348  0.0810
  101MOL0     C13546   3.242   0.606  10.399 -0.9492 -0.5958  0.0970
  101MOL0     C13547   3.163   0.714  10.433  0.3950 -0.4667 -0.4294
  101MOL0     O13548   2.766   0.751  10.378 -0.3293  0.2052 -1.0772
  101MOL0     C13549   2.802   1.091  10.338 -0.5228  0.2043 -0.6754
  101MOL0     C13550   2.725   1.209  10.342  0.0463  0.1636  0.4408
  101MOL0     N13551   2.802   1.666  10.350 -0.4958 -0.2076  0.2146
  101MOL0     N13552   2.907   1.621  10.413  0.4200  1.0343 -0.2226
  101MOL0     C13553   3.948   1.203  10.816 -1.1090  0.1811 -0.8464
  101MOL0     C13554   4.088   1.222  10.828 -0.2061  0.2949 -0.3986
  101MOL0     C13555   4.534   1.176  10.891  0.0348 -0.1569 -0.2960
  101MOL0     C13556   4.552   1.115  11.019  0.2544 -0.9947  0.3788
  101MOL0     C13557   4.685   1.117  11.071  0.5188  0.1642 -0.1034
  101MOL0     C13558   4.785   1.171  11.005 -0.6791 -0.4008  0.5087
  101MOL0     O13559   4.911   1.169  11.069  0.1354  0.1184 -0.3378
  101MOL0     C13560   4.991   1.285  11.063  0.2640  0.3312  0.2579
  101MOL0     C13561   5.025   1.333  11.200 -0.5645 -0.3566 -0.1890
  101MOL0     C13562   5.149   1.427  11.177  0.4546 -0.3526  0.1556
  101MOL0     C13563   5.280   1.353  11.158 -0.6699 -0.5530  0.9749
  101MOL0     C13564   5.402   1.438  11.163  0.5159 -0.6168  0.0746
  101MOL0     C13565   5.494   1.513  11.164 -0.6585  0.0973  0.5893
  101MOL0     C13566   4.776   1.221  10.875 -0.1813  0.2306 -0.0493
  101MOL0     C13567   4.646   1.237  10.823  0.2002  0.8907 -0.0067
  101MOL0     H13568   4.151   0.924  10.979  0.2401 -0.3163  0.6504
  101MOL0     H13569   3.905   0.897  10.949  1.8899 -4.1311 -4.2287
  101MOL0     H13570   3.668   1.262  10.817  1.1743 -0.5065  2.0341
  101MOL0     H13571   3.691   1.153  10.678  1.7567  4.0539 -0.1854
  101MOL0     H13572   3.501   1.004  10.751  0.7127 -0.4287  0.5220
  101MOL0     H13573   3.496   1.109  10.893  0.7103  0.4730  0.2359
  101MOL0     H13574   3.417   1.293  10.786  0.0979  0.2570  0.3217
  101MOL0     H13575   3.474   1.252  10.625  2.1957 -3.1357 -0.0991
  101MOL0     H13576   3.333   1.062  10.607  2.8134  0.3038  0.8596
  101MOL0     H13577   3.257   1.106  10.763 -1.3032 -1.7905 -0.4039
  101MOL0     H13578   3.262   1.277  10.512  0.1657  0.2271  0.2355
  101MOL0     H13579   3.134   1.155  10.565  1.3854 -1.1432  2.4175
  101MOL0     H13580   3.095   1.299  10.777  3.5403 -0.2276  1.3335
  101MOL0     H13581   3.224   1.409  10.712 -0.4549  0.7572  0.2391
  101MOL0     H13582   3.061   1.401  10.494  2.9966  0.2311  0.2931
  101MOL0     H13583   2.954   1.333  10.601  1.4737 -0.4211  0.8700
  101MOL0     H13584   3.062   1.629  10.634 -2.0418  2.4114  1.9836
  101MOL0     H13585   2.945   1.565  10.738  1.7472 -0.8677  0.7816
  101MOL0     H13586   2.680   1.623  10.652  0.9576  0.3192 -0.0600
  101MOL0     H13587   2.542   1.806  10.475  3.3620  0.5083  1.0771
  101MOL0     H13588   2.561   1.746  10.305 -3.4213  1.4462 -0.0843
  101MOL0     H13589   2.361   1.686  10.458 -0.6568  0.8296 -0.6346
  101MOL0     H13590   2.470   1.566  10.523 -1.5220  1.8691  0.5561
  101MOL0     H13591   2.398   1.601  10.230 -0.2964  2.9615  1.8286
  101MOL0     H13592   2.323   1.487  10.337 -1.7697  2.6551  3.9492
  101MOL0     H13593   2.632   1.468  10.287  0.4911 -0.2999  2.1010
  101MOL0     H13594   2.502   1.369  10.203 -0.4556  0.7504 -0.4568
  101MOL0     H13595   2.464   1.119  10.535 -0.6318 -0.3854 -1.1000
  101MOL0     H13596   2.643   0.819  10.624 -3.7240 -1.0305  3.4635
  101MOL0     H13597   2.500   0.915  10.624  1.0303  1.1728 -0.0528
  101MOL0     H13598   2.511   0.801  10.497 -1.8346  1.8541 -0.2258
  101MOL0     H13599   2.955   0.726  10.167  1.2676 -1.0252 -1.3530
  101MOL0     H13600   3.110   0.549  10.090  3.3545  0.5196 -0.9575
  101MOL0     H13601   3.418   0.365  10.364  0.2128 -1.1842 -0.0593
  101MOL0     H13602   3.449   0.325  10.197  0.3093 -0.9138  1.0991
  101MOL0     H13603   3.565   0.501  10.136  0.7774  0.1783  0.6653
  101MOL0     H13604   3.493   0.615  10.243  1.3600  0.5007 -3.3374
  101MOL0     H13605   3.582   0.510  10.427 -2.3452  0.2091 -1.5147
  101MOL0     H13606   3.711   0.569  10.319 -0.8049  1.3904  1.6493
  101MOL0     H13607   3.627   0.268  10.352 -1.5547  1.9940 -1.0782
  101MOL0     H13608   3.748   0.306  10.234  0.3949 -0.3654  0.1254
  101MOL0     H13609   3.778   0.300  10.538  3.8550 -2.1798  0.7354
  101MOL0     H13610   3.872   0.405  10.446 -0.6362 -0.0772  0.7001
  101MOL0     H13611   3.858   0.111  10.401 -1.7223  0.9125  1.6981
  101MOL0     H13612   3.953   0.232  10.304  1.2539 -2.0036 -0.2582
  101MOL0     H13613   3.982   0.165  10.599 -2.4669  3.3277  0.7138
  101MOL0     H13614   4.043   0.313  10.515  2.4165  0.2375 -3.8156
  101MOL0     H13615   4.216   0.150  10.560  1.2838 -0.8790 -0.3057
  101MOL0     H13616   4.193   0.205  10.390 -1.0121 -0.5715 -0.7110
  101MOL0     H13617   3.319   0.574  10.468  0.6756 -0.9992 -1.7855
  101MOL0     H13618   3.187   0.769  10.524 -2.6232 -2.2841  1.6667
  101MOL0     H13619   2.890   1.095  10.274  0.7755 -1.4494  0.9178
  101MOL0     H13620   2.764   1.296  10.289 -2.1381  1.0404  0.1706
  101MOL0     H13621   3.896   1.297  10.797  1.3178  2.0382  1.0488
  101MOL0     H13622   4.120   1.325  10.811 -5.3266  1.7516 -3.3203
  101MOL0     H13623   4.467   1.063  11.061  0.0448 -1.7160 -0.8862
  101MOL0     H13624   4.715   1.063  11.160  2.2104 -1.2947 -1.4604
  101MOL0     H13625   5.076   1.279  10.994 -0.9927 -0.6054 -1.2956
  101MOL0     H13626   4.929   1.360  11.013  0.1519  0.0442 -0.0371
  101MOL0     H13627   5.041   1.255  11.275 -3.7544 -1.6320 -0.6614
  101MOL0     H13628   4.941   1.394  11.233  0.4549  1.1952 -0.3616
  101MOL0     H13629   5.155   1.485  11.269 -2.1794 -1.8209  1.3420
  101MOL0     H13630   5.129   1.494  11.092 -2.5748 -1.5219 -0.1495
  101MOL0     H13631   5.268   1.310  11.058 -1.4411  2.3455 -0.2671
  101MOL0     H13632   5.294   1.280  11.239  1.9838 -0.6043  0.5617
  101MOL0     H13633   5.579   1.578  11.161  0.8162 -1.7375  0.6512
  101MOL0     H13634   4.865   1.255  10.825 -1.0188  1.7682 -0.5615
  101MOL0     H13635   4.638   1.280  10.724 -2.0708  1.7506  0.4995
  102MOL0     O13636   4.708   6.904   3.469  0.0192 -0.0502  0.1401
  102MOL0     C13637   4.747   7.017   3.482  0.2060  0.0824  0.1883
  102MOL0     O13638   4.689   7.118   3.565  0.0978  0.7656  0.6761
  102MOL0     C13639   4.587   7.086   3.653  0.4074  0.3415  0.0969
  102MOL0     C13640   4.452   7.082   3.619 -0.2642  0.0509  0.0571
  102MOL0     C13641   4.348   7.057   3.700  1.2677 -0.6829  0.3594
  102MOL0     C13642   4.383   7.028   3.833 -0.1172  0.2078 -0.1957
  102MOL0     O13643   4.294   6.995   3.939  0.4147 -0.1525 -0.0236
  102MOL0     C13644   4.174   7.068   3.945 -0.7344  0.6342 -0.4630
  102MOL0     C13645   4.089   7.026   4.052  0.5563  0.3523  0.2206
  102MOL0     C13646   3.958   7.116   4.072 -1.0141  0.5688 -0.1013
  102MOL0     C13647   3.965   7.169   4.216  1.3972 -0.4452 -0.9493
  102MOL0     C13648   3.818   7.208   4.250  0.0274  0.7039 -0.2461
  102MOL0     C13649   3.755   7.324   4.183  0.1823 -0.6139  0.1896
  102MOL0     C13650   3.622   7.376   4.243  0.1494 -0.2790  0.7303
  102MOL0     C13651   3.602   7.520   4.183 -0.8389 -0.3225  0.1670
  102MOL0     N13652   3.459   7.552   4.201 -0.3274 -0.2132  0.1717
  102MOL0     C13653   3.398   7.606   4.306  0.0503 -0.2014 -0.3305
  102MOL0     C13654   3.272   7.570   4.313 -0.6175  0.0479  0.2224
  102MOL0     C13655   3.179   7.605   4.425 -0.4583 -1.5259  0.0877
  102MOL0     C13656   3.052   7.516   4.424 -0.1008  1.3119  0.2197
  102MOL0     C13657   3.068   7.366   4.462 -1.0317 -0.0006  0.3758
  102MOL0     C13658   2.941   7.301   4.511 -0.1396 -0.7548 -0.6049
  102MOL0     O13659   2.851   7.273   4.403  0.7724 -0.6093 -0.0535
  102MOL0     C13660   2.748   7.186   4.403  0.3466 -0.6691 -0.4660
  102MOL0     C13661   2.710   7.133   4.279  0.3125 -0.3407 -0.3727
  102MOL0     C13662   2.609   7.042   4.259  1.6939  0.1425  0.5084
  102MOL0     C13663   2.562   7.015   4.110 -0.0039  0.3828 -1.4247
  102MOL0     C13664   2.546   6.982   4.377 -0.8002  0.0229  0.9787
  102MOL0     C13665   2.429   6.889   4.378  0.5538 -0.6717 -0.4161
  102MOL0     O13666   2.401   6.817   4.487  1.2539 -0.0636  0.5634
  102MOL0     C13667   2.314   6.708   4.476 -0.5396  0.0417  0.5084
  102MOL0     C13668   2.183   6.710   4.423  0.9963  0.4973  0.3965
  102MOL0     C13669   2.094   6.598   4.429 -0.9990 -0.3920  0.1118
  102MOL0     C13670   2.139   6.481   4.485 -0.2332  0.0307  0.0424
  102MOL0     O13671   2.062   6.366   4.504 -0.4393 -0.6965  0.0260
  102MOL0     C13672   1.944   6.345   4.423  0.2887  0.0739 -0.2464
  102MOL0     C13673   1.906   6.202   4.431 -0.0187  0.3860  0.0728
  102MOL0     C13674   1.768   6.178   4.356  0.0158 -0.2955 -1.0693
  102MOL0     C13675   1.752   6.231   4.219  0.1088  1.0230 -0.3158
  102MOL0     C13676   1.631   6.187   4.153 -0.1584 -0.7001 -0.2371
  102MOL0     C13677   1.634   6.245   4.010  1.4122  0.0971 -0.0584
  102MOL0     C13678   1.496   6.207   3.959 -0.8790  1.0131 -0.0457
  102MOL0     C13679   1.482   6.233   3.809 -1.1255 -0.8945 -0.1003
  102MOL0    Cl13680   1.313   6.233   3.743  0.3711 -0.4615  0.0040
  102MOL0     C13681   2.263   6.480   4.538 -0.2183  0.6605 -0.3924
  102MOL0     C13682   2.357   6.593   4.532  0.5686  0.5238  0.0791
  102MOL0     O13683   2.365   6.884   4.272  0.0382  0.1225 -0.1710
  102MOL0     C13684   2.592   7.027   4.505 -0.5288  0.1600  0.6518
  102MOL0     C13685   2.693   7.125   4.518 -0.1289  0.2006 -0.4304
  102MOL0     N13686   3.250   7.492   4.201  0.1770 -0.3785 -0.5949
  102MOL0     N13687   3.357   7.495   4.129 -0.7148  0.1626 -0.7306
  102MOL0     C13688   4.524   7.018   3.873  0.5543 -0.0263  0.5358
  102MOL0     C13689   4.627   7.048   3.779 -0.3281 -0.5270 -0.3456
  102MOL0     C13690   4.877   7.054   3.420  0.1355 -0.0778  0.5788
  102MOL0     C13691   4.922   7.187   3.406 -0.5671  0.9109 -0.0026
  102MOL0     C13692   5.042   7.221   3.342 -0.4007 -0.4456 -1.3552
  102MOL0     C13693   5.120   7.121   3.286 -0.5454  0.0465 -0.0526
  102MOL0     O13694   5.230   7.161   3.217  0.1430 -0.6188  0.6074
  102MOL0     C13695   5.307   7.067   3.139 -0.2305 -0.2256  1.1322
  102MOL0     C13696   5.413   7.154   3.076  0.1438 -0.0058 -0.5294
  102MOL0     C13697   5.540   7.085   3.045 -1.2187 -0.0358 -0.1054
  102MOL0     C13698   5.626   7.151   2.935 -0.7150 -0.0611 -0.1663
  102MOL0     C13699   5.695   7.273   2.984 -0.1689  0.1221 -0.0325
  102MOL0     C13700   5.740   7.380   3.025  0.0494 -1.2702  0.0048
  102MOL0     C13701   5.073   6.983   3.287  0.5108 -0.0374 -0.5461
  102MOL0     C13702   4.957   6.956   3.358 -0.4596 -0.5439 -0.5733
  102MOL0     H13703   4.437   7.091   3.512  1.2236  1.7392 -0.0571
  102MOL0     H13704   4.244   7.067   3.669  1.1071 -2.1524  0.3111
  102MOL0     H13705   4.199   7.174   3.956 -0.5496  0.5521 -0.0765
  102MOL0     H13706   4.115   7.053   3.854  1.2726 -1.4910 -1.5034
  102MOL0     H13707   4.064   6.922   4.030 -0.2000  0.3733  0.9611
  102MOL0     H13708   4.155   7.023   4.140  2.5773 -1.0893 -1.2334
  102MOL0     H13709   3.951   7.204   4.007  0.7108 -1.3912 -3.1414
  102MOL0     H13710   3.879   7.046   4.044 -1.1437  0.9156 -0.6103
  102MOL0     H13711   3.997   7.090   4.284 -0.5755  1.2072  2.1784
  102MOL0     H13712   4.045   7.243   4.215  0.9390  0.0525 -2.1298
  102MOL0     H13713   3.750   7.124   4.230  1.5437 -0.1411 -2.1963
  102MOL0     H13714   3.824   7.227   4.357  0.1226 -1.3650  0.1560
  102MOL0     H13715   3.831   7.402   4.196  2.4374 -2.9376  2.0050
  102MOL0     H13716   3.737   7.291   4.081 -1.9718  1.5189 -0.2085
  102MOL0     H13717   3.542   7.308   4.212 -1.6607  1.2942  1.7094
  102MOL0     H13718   3.617   7.383   4.352  1.1087 -2.0442  0.9143
  102MOL0     H13719   3.630   7.514   4.078  2.8611 -1.8898  1.0643
  102MOL0     H13720   3.668   7.596   4.227 -1.2559 -0.1648  0.5307
  102MOL0     H13721   3.435   7.664   4.391 -0.0361 -1.3666  0.5345
  102MOL0     H13722   3.218   7.614   4.527 -1.0203 -2.2479  0.3813
  102MOL0     H13723   3.137   7.703   4.401 -3.6538 -2.6210  0.6304
  102MOL0     H13724   3.002   7.520   4.327  1.8889 -1.5223 -1.0616
  102MOL0     H13725   2.996   7.553   4.510  0.5836 -2.0935  2.3246
  102MOL0     H13726   3.134   7.362   4.549  0.9297 -0.8187 -1.0726
  102MOL0     H13727   3.110   7.305   4.382 -0.7042  2.0774 -1.1073
  102MOL0     H13728   2.882   7.365   4.578 -0.8428 -1.8164 -0.1776
  102MOL0     H13729   2.961   7.207   4.563  0.5874  0.5170  1.5294
  102MOL0     H13730   2.754   7.196   4.202 -0.5659 -0.1154 -0.6982
  102MOL0     H13731   2.459   7.048   4.100 -0.0586  0.9400  0.5776
  102MOL0     H13732   2.625   7.076   4.044  0.8165 -1.2810 -2.2483
  102MOL0     H13733   2.577   6.909   4.086  2.0012 -0.1634  1.5963
  102MOL0     H13734   2.151   6.806   4.385 -0.9078 -0.0660  0.4446
  102MOL0     H13735   1.993   6.614   4.391 -1.4098  1.7757  1.8959
  102MOL0     H13736   1.867   6.413   4.461  1.2149 -0.6039  3.1577
  102MOL0     H13737   1.957   6.372   4.318  1.7220  1.6368  0.2854
  102MOL0     H13738   1.989   6.143   4.393 -0.3810  0.6986 -1.2568
  102MOL0     H13739   1.890   6.170   4.534 -2.8466 -4.2884 -1.5148
  102MOL0     H13740   1.688   6.208   4.424 -1.1390 -0.3136 -2.3855
  102MOL0     H13741   1.749   6.070   4.349 -1.4044 -0.0281 -1.7659
  102MOL0     H13742   1.739   6.338   4.234  2.4311  1.0742  1.8173
  102MOL0     H13743   1.836   6.193   4.160  0.0250  0.0441  0.1832
  102MOL0     H13744   1.542   6.217   4.208 -0.0076 -1.1363  0.2595
  102MOL0     H13745   1.625   6.079   4.138 -0.3184 -0.6545 -0.5046
  102MOL0     H13746   1.655   6.352   4.020 -0.3690  0.3058  2.4474
  102MOL0     H13747   1.710   6.192   3.951 -0.7765 -2.1169 -1.0262
  102MOL0     H13748   1.419   6.268   4.008 -3.4634 -0.2636 -2.2664
  102MOL0     H13749   1.474   6.102   3.978 -1.6023  0.8030 -1.8028
  102MOL0     H13750   1.526   6.147   3.758 -1.9060 -1.2180 -0.2523
  102MOL0     H13751   1.520   6.332   3.783  0.4191 -1.7324 -1.1773
  102MOL0     H13752   2.270   6.392   4.601 -0.9782  0.9652  0.1375
  102MOL0     H13753   2.453   6.595   4.583 -0.3638  0.2898  1.9196
  102MOL0     H13754   2.564   6.970   4.593 -2.4946  0.6607  0.4087
  102MOL0     H13755   2.733   7.144   4.617  2.3223 -1.8512 -0.9246
  102MOL0     H13756   4.547   6.986   3.975  1.3358 -0.0730  0.3493
  102MOL0     H13757   4.731   7.053   3.809 -0.4669  0.9558 -0.0123
  102MOL0     H13758   4.854   7.262   3.446  1.2018  1.6441  1.7511
  102MOL0     H13759   5.066   7.325   3.327 -1.1719  0.5796  3.0229
  102MOL0     H13760   5.368   6.994   3.192  1.2652  0.2189  0.0967
  102MOL0     H13761   5.241   7.025   3.063 -0.4947  0.3034  1.0625
  102MOL0     H13762   5.433   7.228   3.154  0.0019 -0.8903  0.3730
  102MOL0     H13763   5.380   7.214   2.991  0.6633 -1.6793 -1.9671
  102MOL0     H13764   5.532   6.980   3.016 -2.7183  0.2289 -0.7797
  102MOL0     H13765   5.597   7.077   3.138  0.3438  0.2883 -0.9982
  102MOL0     H13766   5.561   7.171   2.850 -1.3556  0.9727  0.5427
  102MOL0     H13767   5.699   7.077   2.901 -0.8306  0.2060 -1.0201
  102MOL0     H13768   5.782   7.476   3.050  2.6145 -2.1609 -0.6328
  102MOL0     H13769   5.125   6.905   3.233  0.3522 -0.0681 -0.6540
  102MOL0     H13770   4.924   6.853   3.364 -1.0247 -0.4751 -1.9694
  103MOL0     O13771   1.646   6.941   6.913 -0.7080 -0.0246  0.3783
  103MOL0     C13772   1.630   6.851   6.826  0.3276 -0.6015 -0.3433
  103MOL0     O13773   1.531   6.847   6.731  0.7545 -0.2398 -0.0233
  103MOL0     C13774   1.428   6.937   6.739 -0.6501  0.6045 -0.7298
  103MOL0     C13775   1.306   6.883   6.712 -0.7246  0.2323  1.0291
  103MOL0     C13776   1.194   6.964   6.719 -0.0682  0.2378 -0.5276
  103MOL0     C13777   1.204   7.102   6.734 -0.2792  0.5866 -0.8557
  103MOL0     O13778   1.084   7.164   6.724  0.4599  0.1333  0.0104
  103MOL0     C13779   1.081   7.280   6.809  0.2959 -0.3020  0.8964
  103MOL0     C13780   0.950   7.370   6.787  0.6324 -0.8085  1.1294
  103MOL0     C13781   0.951   7.506   6.856 -0.2301 -0.8041  0.7196
  103MOL0     C13782   0.819   7.569   6.852  0.1400  0.5383 -0.8327
  103MOL0     C13783   0.818   7.689   6.942 -1.2363  0.1647  0.6271
  103MOL0     C13784   0.711   7.781   6.890  1.1061 -0.0099 -0.0665
  103MOL0     C13785   0.691   7.901   6.984  0.5238  1.0135 -0.2370
  103MOL0     C13786   0.557   7.976   6.955  0.4039 -0.5392 -0.0331
  103MOL0     N13787   0.559   8.039   6.824  0.3416  0.7638  0.2023
  103MOL0     C13788   0.577   8.172   6.788  1.3505 -0.3910 -0.4427
  103MOL0     C13789   0.564   8.178   6.651  0.0228  0.3646 -0.1227
  103MOL0     C13790   0.534   8.303   6.554 -0.5263  0.8813  0.5369
  103MOL0     C13791   0.619   8.425   6.588 -0.6640  0.0145 -0.6343
  103MOL0     C13792   0.613   8.547   6.484 -0.6464  0.3139 -0.6194
  103MOL0     C13793   0.701   8.671   6.537 -0.8535  0.2739  0.2068
  103MOL0     O13794   0.835   8.648   6.501 -0.3842  0.0513 -0.4159
  103MOL0     C13795   0.929   8.615   6.597  0.6918 -0.9552 -0.0677
  103MOL0     C13796   1.021   8.526   6.571 -0.5553  0.6883  0.1756
  103MOL0     C13797   1.125   8.497   6.670 -0.1236 -0.1793  0.4855
  103MOL0     C13798   1.257   8.408   6.633 -0.1378 -0.1925  0.0601
  103MOL0     C13799   1.119   8.560   6.795 -0.0221  0.3432 -0.1086
  103MOL0     C13800   1.215   8.536   6.914  0.2107  0.2188 -0.1686
  103MOL0     O13801   1.268   8.411   6.917 -0.6836 -0.1450  0.7756
  103MOL0     C13802   1.380   8.369   6.988 -0.2701 -0.0823  0.9829
  103MOL0     C13803   1.456   8.449   7.079  0.5572  0.0692 -1.2142
  103MOL0     C13804   1.568   8.397   7.148 -0.2697 -0.3624  0.1220
  103MOL0     C13805   1.603   8.263   7.131  0.0438 -0.0629 -0.4213
  103MOL0     O13806   1.702   8.204   7.202  0.3377  0.3476 -0.7815
  103MOL0     C13807   1.824   8.187   7.130 -0.9696 -0.1507  0.7370
  103MOL0     C13808   1.939   8.151   7.221 -0.1819 -0.4153 -0.7161
  103MOL0     C13809   2.044   8.264   7.229 -0.4058 -0.2481 -0.1474
  103MOL0     C13810   2.126   8.294   7.105 -0.4082 -0.6833  1.3364
  103MOL0     C13811   2.266   8.359   7.139 -1.1746 -0.8752 -0.3216
  103MOL0     C13812   2.352   8.276   7.236 -0.2616 -0.5709 -0.6565
  103MOL0     C13813   2.485   8.349   7.279 -0.3643 -0.4495  0.4890
  103MOL0     C13814   2.578   8.251   7.356 -0.0765 -0.4878  1.0523
  103MOL0    Cl13815   2.735   8.342   7.384  0.1900  0.4266  0.1838
  103MOL0     C13816   1.535   8.183   7.034 -0.3456 -0.5038 -0.0236
  103MOL0     C13817   1.422   8.234   6.961  0.3169 -0.4793  0.8153
  103MOL0     O13818   1.228   8.619   7.002  0.2610 -0.7107 -0.5581
  103MOL0     C13819   1.028   8.668   6.813 -0.4721 -0.0333 -0.4662
  103MOL0     C13820   0.938   8.698   6.716 -0.8616 -0.1445  1.0255
  103MOL0     N13821   0.551   8.038   6.611 -0.0905 -0.3958  0.0162
  103MOL0     N13822   0.544   7.963   6.710 -0.1972 -0.3780  0.8211
  103MOL0     C13823   1.334   7.162   6.759 -0.0726 -0.1480  0.6535
  103MOL0     C13824   1.443   7.076   6.766  0.2652 -0.0142  0.0201
  103MOL0     C13825   1.736   6.744   6.805 -0.5544 -0.2017  0.2572
  103MOL0     C13826   1.713   6.618   6.739 -0.8816  0.5384 -0.1214
  103MOL0     C13827   1.828   6.538   6.703 -0.1074 -0.8135 -0.1820
  103MOL0     C13828   1.953   6.563   6.758  0.9130 -0.6999 -0.2501
  103MOL0     O13829   2.052   6.480   6.724  0.7693  0.1119 -0.1281
  103MOL0     C13830   2.187   6.503   6.784  0.3078  1.0872  0.1952
  103MOL0     C13831   2.307   6.431   6.729  0.6865  1.4021  0.4339
  103MOL0     C13832   2.439   6.453   6.809 -0.1831  0.1893 -0.2702
  103MOL0     C13833   2.556   6.375   6.730  0.4691 -0.5488 -0.0000
  103MOL0     C13834   2.578   6.414   6.593 -0.6218  0.3135  1.0903
  103MOL0     C13835   2.610   6.448   6.483 -0.3506 -0.0823 -0.0235
  103MOL0     C13836   1.960   6.678   6.840 -0.3889  0.0467 -0.8695
  103MOL0     C13837   1.855   6.766   6.864  0.3957 -0.1287 -0.0764
  103MOL0     H13838   1.288   6.776   6.708 -0.1222  0.1138  1.4120
  103MOL0     H13839   1.093   6.928   6.701 -1.1170  2.7135 -0.0746
  103MOL0     H13840   1.061   7.244   6.910  1.5739 -1.8300  0.6397
  103MOL0     H13841   1.169   7.345   6.810  0.5949 -0.6740  2.8528
  103MOL0     H13842   0.938   7.383   6.679  1.6835  2.1949  1.2962
  103MOL0     H13843   0.866   7.310   6.823  1.5548 -2.6543  0.3962
  103MOL0     H13844   0.969   7.491   6.963 -0.3596 -0.1750  0.8287
  103MOL0     H13845   1.033   7.572   6.825  1.0856 -1.4312  2.7177
  103MOL0     H13846   0.782   7.594   6.752 -0.5911 -0.7723 -0.9144
  103MOL0     H13847   0.745   7.496   6.886  2.8714 -1.4465  1.3878
  103MOL0     H13848   0.782   7.659   7.041  0.6030 -1.3510  0.8884
  103MOL0     H13849   0.905   7.754   6.948 -0.8365 -0.4623  1.9917
  103MOL0     H13850   0.739   7.823   6.793  2.4499  0.4394  0.4902
  103MOL0     H13851   0.615   7.729   6.879  1.0256 -0.1135  1.0056
  103MOL0     H13852   0.687   7.858   7.084  0.2818 -1.2035 -1.1430
  103MOL0     H13853   0.774   7.971   6.982  0.9257  0.6741  2.1301
  103MOL0     H13854   0.533   8.051   7.031 -1.1738 -0.1911 -0.8384
  103MOL0     H13855   0.472   7.909   6.942 -0.5198  0.8483 -1.4711
  103MOL0     H13856   0.567   8.259   6.853 -2.5427 -0.4966 -0.6724
  103MOL0     H13857   0.554   8.266   6.453  3.4098  5.9104 -0.9407
  103MOL0     H13858   0.430   8.330   6.576 -0.3400  1.5036  0.6757
  103MOL0     H13859   0.726   8.403   6.598 -0.3978  1.1088 -1.0025
  103MOL0     H13860   0.594   8.458   6.689 -2.6971  2.9495 -1.9717
  103MOL0     H13861   0.511   8.583   6.466 -1.2734  0.5176  2.8027
  103MOL0     H13862   0.653   8.516   6.387 -0.1935 -1.9951  0.2539
  103MOL0     H13863   0.684   8.688   6.644 -0.9278  0.8448  0.1019
  103MOL0     H13864   0.677   8.757   6.475  0.0185 -0.4628 -1.2148
  103MOL0     H13865   1.031   8.478   6.474  0.5490  1.6693 -0.2235
  103MOL0     H13866   1.347   8.450   6.678 -0.9388  1.6696 -0.0039
  103MOL0     H13867   1.243   8.307   6.673 -2.1424 -0.1960 -0.4972
  103MOL0     H13868   1.261   8.400   6.524  2.1025  0.2874  0.0672
  103MOL0     H13869   1.430   8.546   7.119  5.5016  1.2294 -0.0349
  103MOL0     H13870   1.627   8.449   7.223 -2.6654  0.2957  1.6669
  103MOL0     H13871   1.818   8.101   7.062 -0.7323 -0.5530  1.2105
  103MOL0     H13872   1.844   8.282   7.080  1.2771  0.6533  2.9552
  103MOL0     H13873   1.904   8.125   7.322  0.4489 -1.1207 -0.6760
  103MOL0     H13874   1.978   8.061   7.174 -2.4021 -0.3971 -2.7704
  103MOL0     H13875   2.108   8.241   7.315 -0.7579  0.1397  0.2202
  103MOL0     H13876   1.993   8.357   7.252 -1.1920 -0.4316 -1.0800
  103MOL0     H13877   2.150   8.212   7.038  2.0741 -0.3928  1.7891
  103MOL0     H13878   2.073   8.363   7.039  2.6510  0.2951 -0.2867
  103MOL0     H13879   2.246   8.455   7.188  0.5174  1.2697 -3.4310
  103MOL0     H13880   2.328   8.386   7.053  2.7129 -1.1895  2.1548
  103MOL0     H13881   2.299   8.251   7.329  0.7003  0.4776  0.2037
  103MOL0     H13882   2.390   8.185   7.188  5.2262  0.4245  1.1285
  103MOL0     H13883   2.472   8.444   7.332 -2.8877 -0.9949  0.9823
  103MOL0     H13884   2.530   8.356   7.180  1.8228 -5.4838  0.8057
  103MOL0     H13885   2.600   8.151   7.318  4.4035  0.3290  0.9771
  103MOL0     H13886   2.530   8.235   7.453 -0.1785 -1.2696  0.8778
  103MOL0     H13887   1.578   8.086   7.009  1.1044  0.7820 -3.0837
  103MOL0     H13888   1.364   8.170   6.895 -1.1840  1.4996  0.1171
  103MOL0     H13889   1.021   8.728   6.903  0.1384  1.5313 -1.4202
  103MOL0     H13890   0.868   8.780   6.724  0.9227  1.5915 -0.1516
  103MOL0     H13891   1.352   7.269   6.761 -0.0046 -0.1354 -0.1686
  103MOL0     H13892   1.541   7.120   6.785 -0.7564  3.0948 -1.2735
  103MOL0     H13893   1.613   6.587   6.710  0.6590 -4.3661 -1.1719
  103MOL0     H13894   1.820   6.452   6.638  1.5898 -0.8350 -0.3997
  103MOL0     H13895   2.207   6.608   6.759 -0.5707  1.0962 -0.5145
  103MOL0     H13896   2.185   6.487   6.893 -0.1900  0.1655  0.0625
  103MOL0     H13897   2.317   6.472   6.628 -1.1388 -0.1692 -0.4539
  103MOL0     H13898   2.286   6.324   6.729 -0.8098  1.6325  2.5875
  103MOL0     H13899   2.433   6.411   6.910 -1.0808 -0.6823 -0.6636
  103MOL0     H13900   2.466   6.559   6.806 -0.4237  0.2391 -1.6573
  103MOL0     H13901   2.528   6.269   6.733  0.2089 -0.4855 -0.1540
  103MOL0     H13902   2.647   6.389   6.790  1.2520 -2.3496 -0.6844
  103MOL0     H13903   2.647   6.487   6.390  1.5279 -1.6498  0.0295
  103MOL0     H13904   2.054   6.694   6.891 -1.2653 -0.5084  0.9958
  103MOL0     H13905   1.880   6.836   6.944 -1.0397 -0.2872  0.5337
  104MOL0     O13906   4.897   2.243   7.547 -0.1501  0.8570  0.1047
  104MOL0     C13907   4.970   2.271   7.638  0.8687  0.3469 -0.7598
  104MOL0     O13908   4.938   2.341   7.750  0.1777  0.1630  0.0823
  104MOL0     C13909   4.816   2.398   7.764  0.9087 -0.3616 -0.0424
  104MOL0     C13910   4.779   2.416   7.897  0.2615  0.3166 -0.0868
  104MOL0     C13911   4.657   2.476   7.940  0.1571  0.3540 -1.1257
  104MOL0     C13912   4.580   2.542   7.839  0.1825  0.5471  0.4713
  104MOL0     O13913   4.459   2.601   7.847 -0.0659  0.5541  0.4922
  104MOL0     C13914   4.435   2.664   7.967  0.2014 -0.0842 -0.5377
  104MOL0     C13915   4.338   2.781   7.948 -0.8338  0.1942 -0.6109
  104MOL0     C13916   4.195   2.737   7.964 -0.7629 -0.0789  0.1319
  104MOL0     C13917   4.086   2.849   7.985 -0.7111 -0.0536 -0.7341
  104MOL0     C13918   3.948   2.784   7.971 -0.8390  0.3956  0.0123
  104MOL0     C13919   3.834   2.872   8.021 -0.7099 -0.3550 -0.6719
  104MOL0     C13920   3.703   2.826   7.971 -0.0423 -0.2946 -0.0991
  104MOL0     C13921   3.601   2.944   7.997  0.4674  0.8383  0.5139
  104MOL0     N13922   3.465   2.913   7.959 -0.2240 -0.9470  0.1164
  104MOL0     C13923   3.369   3.010   7.938 -0.0984 -0.2104 -0.5177
  104MOL0     C13924   3.258   2.946   7.902  0.2378 -0.3763  0.8809
  104MOL0     C13925   3.120   2.995   7.872 -0.0494  0.8612 -1.2587
  104MOL0     C13926   3.074   2.995   7.729 -0.0639 -0.1993  0.2621
  104MOL0     C13927   2.973   2.877   7.697  0.4462 -0.2412  1.0994
  104MOL0     C13928   2.826   2.910   7.721  0.4068 -0.6406  0.7824
  104MOL0     O13929   2.757   2.797   7.673  0.4164 -0.1827  0.3328
  104MOL0     C13930   2.626   2.791   7.685  0.0125  0.8053  0.0497
  104MOL0     C13931   2.568   2.670   7.666 -0.3899 -0.0678 -0.3489
  104MOL0     C13932   2.437   2.639   7.680  0.5392 -0.1895 -0.1598
  104MOL0     C13933   2.379   2.498   7.642 -0.6179 -0.4844  0.1285
  104MOL0     C13934   2.351   2.743   7.727  0.8038 -0.7102  0.3468
  104MOL0     C13935   2.202   2.719   7.730  0.7707 -0.0794  0.1674
  104MOL0     O13936   2.122   2.774   7.829  0.8641 -0.3607  0.4868
  104MOL0     C13937   1.990   2.727   7.817  0.4659  0.0703 -0.1685
  104MOL0     C13938   1.954   2.590   7.828 -0.0002  0.3555  0.6037
  104MOL0     C13939   1.817   2.548   7.830 -0.4770  0.2160 -0.1652
  104MOL0     C13940   1.718   2.643   7.817  0.7885 -0.1959  0.2691
  104MOL0     O13941   1.583   2.609   7.810 -0.1474  0.4763 -0.2148
  104MOL0     C13942   1.524   2.563   7.925  0.1824  0.1696  0.4599
  104MOL0     C13943   1.457   2.676   7.996  0.4103 -0.0357 -0.3607
  104MOL0     C13944   1.405   2.628   8.128 -0.1356  0.1652 -0.1539
  104MOL0     C13945   1.348   2.744   8.207 -0.4998  0.6416  0.3012
  104MOL0     C13946   1.331   2.703   8.354  1.0869 -1.1980 -0.2546
  104MOL0     C13947   1.199   2.615   8.381  0.2171  0.3034 -1.1893
  104MOL0     C13948   1.149   2.628   8.527  0.7683 -0.3980  0.5258
  104MOL0     C13949   1.050   2.529   8.573  0.0469 -0.0350 -0.5647
  104MOL0    Cl13950   0.989   2.554   8.736  0.0826  0.2085 -0.0316
  104MOL0     C13951   1.753   2.774   7.803 -0.0394  0.4648 -0.1151
  104MOL0     C13952   1.888   2.815   7.812  0.9925 -0.2547 -0.3874
  104MOL0     O13953   2.160   2.683   7.619  0.0123  0.1410 -0.2495
  104MOL0     C13954   2.405   2.868   7.752 -0.2702  0.2211  0.0785
  104MOL0     C13955   2.539   2.897   7.722 -0.3569 -0.0839 -0.2296
  104MOL0     N13956   3.287   2.810   7.903  0.4069 -0.4368 -0.3515
  104MOL0     N13957   3.415   2.797   7.924 -0.3893  0.7596  0.1656
  104MOL0     C13958   4.619   2.520   7.706 -0.2035 -0.1389 -0.7086
  104MOL0     C13959   4.736   2.448   7.669  0.1754  0.1347 -0.2004
  104MOL0     C13960   5.105   2.219   7.641 -0.3591 -0.0169 -0.4596
  104MOL0     C13961   5.154   2.140   7.534 -1.2584 -0.8276 -0.7880
  104MOL0     C13962   5.283   2.095   7.532 -0.4545 -0.5152  1.0663
  104MOL0     C13963   5.374   2.124   7.638 -0.5758  0.7162 -0.1457
  104MOL0     O13964   5.498   2.072   7.640 -0.3508  0.4235 -0.5858
  104MOL0     C13965   5.591   2.139   7.547  0.1035  0.0719 -0.2622
  104MOL0     C13966   5.731   2.093   7.581 -0.5123  0.6537  0.2267
  104MOL0     C13967   5.831   2.168   7.489  0.5020 -0.0049  0.8868
  104MOL0     C13968   5.974   2.144   7.532 -0.8660 -0.2691 -0.1546
  104MOL0     C13969   6.039   2.018   7.486  0.3092 -0.5556  0.0512
  104MOL0     C13970   6.079   1.909   7.472  0.1817  0.6538  0.3808
  104MOL0     C13971   5.326   2.202   7.742  1.0107 -0.4496  0.4951
  104MOL0     C13972   5.197   2.248   7.749 -0.9151 -0.0879  0.0416
  104MOL0     H13973   4.852   2.383   7.971 -0.4548 -2.3714 -0.4771
  104MOL0     H13974   4.627   2.489   8.044 -0.9908  2.4799 -1.6433
  104MOL0     H13975   4.402   2.590   8.041 -0.2210 -0.1673 -0.8038
  104MOL0     H13976   4.526   2.714   8.000  0.7323  0.1729 -2.2784
  104MOL0     H13977   4.379   2.852   8.021  0.9142 -4.0990  3.0400
  104MOL0     H13978   4.350   2.825   7.848 -0.9890 -1.3656 -1.3487
  104MOL0     H13979   4.168   2.682   7.874 -2.3479 -1.1756  1.2184
  104MOL0     H13980   4.184   2.658   8.040 -0.2118 -1.5630 -1.2692
  104MOL0     H13981   4.097   2.903   8.079  3.8526 -0.4311 -0.8259
  104MOL0     H13982   4.101   2.927   7.911 -1.4937 -0.0996 -0.9557
  104MOL0     H13983   3.935   2.750   7.867  0.0265 -1.2254  0.4005
  104MOL0     H13984   3.942   2.684   8.014  1.4900 -1.3706 -3.2884
  104MOL0     H13985   3.836   2.883   8.130 -0.4978  0.1089 -0.7202
  104MOL0     H13986   3.851   2.977   7.995  0.0301  0.0680  1.2814
  104MOL0     H13987   3.713   2.816   7.862  4.2995  0.4778  0.0729
  104MOL0     H13988   3.667   2.733   8.017 -1.3062 -1.2000 -2.7096
  104MOL0     H13989   3.623   3.034   7.939  1.0305 -0.0418 -0.6857
  104MOL0     H13990   3.599   2.967   8.104 -0.7006 -1.2118  0.9878
  104MOL0     H13991   3.385   3.118   7.934 -0.5747 -0.1757 -3.2223
  104MOL0     H13992   3.053   2.938   7.937  0.7413 -0.4352 -1.5381
  104MOL0     H13993   3.099   3.099   7.899 -2.7539  0.9338 -3.2049
  104MOL0     H13994   3.165   2.980   7.671  2.1201 -0.2309  3.4492
  104MOL0     H13995   3.025   3.091   7.710 -1.3915 -0.7334  0.8085
  104MOL0     H13996   2.990   2.779   7.744 -1.1842 -0.8640  0.4885
  104MOL0     H13997   2.985   2.871   7.589 -1.8777  1.0365  0.7039
  104MOL0     H13998   2.804   3.005   7.673  0.7375 -0.5872  0.7295
  104MOL0     H13999   2.819   2.910   7.831  0.3686 -2.2229  0.7979
  104MOL0     H14000   2.636   2.593   7.631  1.3083  0.6103  1.3029
  104MOL0     H14001   2.272   2.478   7.635 -0.9514  0.8315  1.0571
  104MOL0     H14002   2.415   2.483   7.540 -0.4414  3.9913 -0.6831
  104MOL0     H14003   2.425   2.421   7.705 -3.8488 -2.9110 -0.2373
  104MOL0     H14004   2.031   2.513   7.834  1.9772  2.3347  2.6374
  104MOL0     H14005   1.796   2.442   7.834  1.2259 -0.1756 -1.0183
  104MOL0     H14006   1.452   2.488   7.888  0.1362  0.0509  0.7898
  104MOL0     H14007   1.589   2.514   7.998 -0.8480 -0.2473  1.1192
  104MOL0     H14008   1.533   2.753   8.007 -0.5206  0.9937 -0.9093
  104MOL0     H14009   1.372   2.717   7.940 -1.2315  1.0359  2.6786
  104MOL0     H14010   1.484   2.587   8.192 -2.0099 -1.1574  1.4402
  104MOL0     H14011   1.331   2.549   8.113 -1.2643  0.8051  1.7644
  104MOL0     H14012   1.428   2.816   8.225  1.2890 -0.8039 -1.4970
  104MOL0     H14013   1.271   2.803   8.156  1.9795  1.0256 -3.3787
  104MOL0     H14014   1.321   2.790   8.421  0.7884 -2.7203  1.7729
  104MOL0     H14015   1.420   2.649   8.385  0.4554 -2.9701 -1.3990
  104MOL0     H14016   1.124   2.652   8.311  0.0349 -0.1027 -1.2115
  104MOL0     H14017   1.209   2.508   8.360 -0.0762 -0.5079  2.1386
  104MOL0     H14018   1.123   2.733   8.543 -0.3173 -0.5018 -0.4481
  104MOL0     H14019   1.235   2.617   8.594 -0.2562  1.3730  2.2008
  104MOL0     H14020   1.097   2.431   8.559  1.8971  0.8975 -1.2892
  104MOL0     H14021   0.960   2.545   8.512  0.6057 -1.0656 -1.7134
  104MOL0     H14022   1.673   2.847   7.801 -1.9230 -1.5245 -0.3779
  104MOL0     H14023   1.918   2.920   7.807 -0.8514  0.3583  0.3694
  104MOL0     H14024   2.343   2.945   7.797  0.1206  0.0946  0.8594
  104MOL0     H14025   2.585   2.993   7.741  0.4854  0.7195 -4.9975
  104MOL0     H14026   4.558   2.567   7.630  0.4504 -0.0419 -1.1758
  104MOL0     H14027   4.753   2.418   7.566 -2.4064  0.3864 -0.7593
  104MOL0     H14028   5.080   2.112   7.460 -2.4128 -0.4793  0.1954
  104MOL0     H14029   5.311   2.043   7.441 -0.0504  1.1698  0.1848
  104MOL0     H14030   5.573   2.126   7.440  1.4234 -1.7375 -0.3103
  104MOL0     H14031   5.588   2.245   7.572 -1.8504 -0.1164  0.5140
  104MOL0     H14032   5.735   1.985   7.567 -0.8750  0.4039  1.7887
  104MOL0     H14033   5.741   2.111   7.689 -1.9919 -0.6514  0.6169
  104MOL0     H14034   5.797   2.269   7.512  0.3985 -0.1202  1.2487
  104MOL0     H14035   5.827   2.148   7.382  1.2397  0.7325  0.7097
  104MOL0     H14036   5.972   2.157   7.641 -0.5973  1.1529 -0.3072
  104MOL0     H14037   6.026   2.228   7.486 -0.6295 -0.1609  0.3006
  104MOL0     H14038   6.119   1.813   7.448 -2.3345  0.3247 -3.1562
  104MOL0     H14039   5.412   2.214   7.806  0.3925 -1.7442  1.6305
  104MOL0     H14040   5.157   2.306   7.831 -0.4314 -1.6289  1.4142
  105MOL0     O14041   1.756   2.622   6.997 -0.5156  0.2734  0.4154
  105MOL0     C14042   1.761   2.633   7.118 -0.0282  0.2228 -0.1727
  105MOL0     O14043   1.875   2.633   7.201 -1.3400 -0.2079  0.3953
  105MOL0     C14044   1.997   2.605   7.135  1.1254 -0.0341  0.0555
  105MOL0     C14045   2.077   2.711   7.097  0.9927 -0.2320  0.7627
  105MOL0     C14046   2.206   2.680   7.052 -0.2866  0.5305 -0.1640
  105MOL0     C14047   2.248   2.542   7.034 -0.2256 -0.4128  0.1501
  105MOL0     O14048   2.377   2.530   6.992 -0.5491  0.4066 -0.4320
  105MOL0     C14049   2.419   2.416   6.917 -0.8363  0.4679  0.6002
  105MOL0     C14050   2.566   2.431   6.860 -0.9968  0.0796 -0.5242
  105MOL0     C14051   2.573   2.576   6.802 -1.4453 -0.8400  0.6745
  105MOL0     C14052   2.706   2.601   6.714  0.3937  0.0037 -0.8862
  105MOL0     C14053   2.693   2.540   6.575  0.2057  0.0895 -0.5547
  105MOL0     C14054   2.815   2.565   6.490 -0.5378  0.2595  0.4684
  105MOL0     C14055   2.807   2.514   6.349 -0.1683 -0.1392  0.0554
  105MOL0     C14056   2.870   2.378   6.343  0.0595 -0.3994 -0.0146
  105MOL0     N14057   2.798   2.263   6.394 -1.3694  0.6082 -0.3933
  105MOL0     C14058   2.815   2.205   6.523  0.0115 -0.6272 -0.6172
  105MOL0     C14059   2.776   2.077   6.503 -0.0697  0.8549 -1.4321
  105MOL0     C14060   2.768   1.982   6.616  0.1905 -0.6229 -0.8682
  105MOL0     C14061   2.658   1.996   6.724  0.0524 -0.1063 -0.0751
  105MOL0     C14062   2.518   2.015   6.660 -0.3236  0.9201 -0.1647
  105MOL0     C14063   2.408   2.018   6.774  0.8261 -0.0603  0.5861
  105MOL0     O14064   2.372   1.887   6.825 -0.9671 -0.3841  0.5009
  105MOL0     C14065   2.246   1.844   6.826  0.1735 -0.1324 -0.8459
  105MOL0     C14066   2.199   1.758   6.726  0.4995  0.2628 -0.1831
  105MOL0     C14067   2.065   1.713   6.721  0.0524 -0.6191 -0.8194
  105MOL0     C14068   2.024   1.618   6.614 -0.2887 -0.4490  1.3084
  105MOL0     C14069   1.976   1.769   6.814 -0.2859  0.3469 -0.7599
  105MOL0     C14070   1.829   1.740   6.827  0.2820 -0.5123 -0.2312
  105MOL0     O14071   1.767   1.692   6.718 -0.2543  0.2086  0.0651
  105MOL0     C14072   1.635   1.692   6.714 -0.0877  0.1367 -0.4573
  105MOL0     C14073   1.557   1.805   6.742  0.5161 -0.4309  0.0737
  105MOL0     C14074   1.414   1.795   6.720  0.4466  0.0020  0.6284
  105MOL0     C14075   1.356   1.683   6.655  0.0688 -0.0851 -0.3929
  105MOL0     O14076   1.223   1.694   6.623 -0.0819  0.1379 -0.3338
  105MOL0     C14077   1.167   1.586   6.557 -0.0985  0.2376 -0.0437
  105MOL0     C14078   1.023   1.604   6.535  0.1732 -0.3040 -0.1478
  105MOL0     C14079   0.954   1.641   6.670  1.0553 -0.0066 -0.4034
  105MOL0     C14080   0.805   1.595   6.668 -0.9007 -0.5081  0.0499
  105MOL0     C14081   0.709   1.649   6.766  0.6762 -0.2605 -0.0091
  105MOL0     C14082   0.755   1.670   6.913 -0.4467 -0.1438  0.6175
  105MOL0     C14083   0.663   1.771   6.985 -1.5079 -0.8546 -0.4160
  105MOL0     C14084   0.673   1.766   7.145 -0.7820  0.0470  0.0856
  105MOL0    Cl14085   0.633   1.591   7.204 -0.0549  0.2570  0.2955
  105MOL0     C14086   1.440   1.575   6.623  0.1642 -0.3833 -0.8268
  105MOL0     C14087   1.582   1.573   6.651  0.3588 -0.0771 -0.2159
  105MOL0     O14088   1.769   1.752   6.938  0.4109  0.6618 -0.0469
  105MOL0     C14089   2.027   1.864   6.912 -0.2197  0.0615 -0.4191
  105MOL0     C14090   2.164   1.885   6.929  0.0674  0.1520  0.9212
  105MOL0     N14091   2.733   2.057   6.376 -0.4815 -0.6819  0.1347
  105MOL0     N14092   2.738   2.171   6.318  0.0145  0.2277 -0.2928
  105MOL0     C14093   2.163   2.437   7.066  0.2039 -0.1904  0.1318
  105MOL0     C14094   2.038   2.469   7.119 -0.3728 -1.2218 -0.4282
  105MOL0     C14095   1.630   2.641   7.196  0.4575 -0.6162 -0.1475
  105MOL0     C14096   1.630   2.619   7.335  0.3978 -0.1639  0.1663
  105MOL0     C14097   1.512   2.616   7.417  0.2029  0.3813 -0.1192
  105MOL0     C14098   1.391   2.654   7.354 -0.2682  0.5959  0.6609
  105MOL0     O14099   1.277   2.655   7.436  0.1121  0.1246 -0.9392
  105MOL0     C14100   1.149   2.677   7.379 -0.8611  0.3260  0.1801
  105MOL0     C14101   1.034   2.637   7.462  0.7096  0.7676 -0.2979
  105MOL0     C14102   1.027   2.488   7.491  0.3790  0.0573  0.2869
  105MOL0     C14103   0.938   2.448   7.598  0.1769 -0.0384  0.5085
  105MOL0     C14104   0.805   2.489   7.574  0.0843 -0.0037 -1.1159
  105MOL0     C14105   0.696   2.541   7.549  0.1740  1.2188 -0.0302
  105MOL0     C14106   1.390   2.684   7.215  0.5198  0.0430  1.1955
  105MOL0     C14107   1.508   2.680   7.140 -0.6960  0.2105  0.7969
  105MOL0     H14108   2.038   2.813   7.096 -1.7623 -1.1528 -1.8872
  105MOL0     H14109   2.275   2.749   7.004  2.2272 -1.5653  0.1841
  105MOL0     H14110   2.417   2.328   6.982 -0.3517 -0.5577 -0.7334
  105MOL0     H14111   2.352   2.407   6.831  0.9318 -0.7959 -0.7152
  105MOL0     H14112   2.640   2.416   6.940 -2.0016 -3.1399 -0.0536
  105MOL0     H14113   2.579   2.353   6.785  0.2112 -0.3606  0.1232
  105MOL0     H14114   2.489   2.591   6.734  0.9962  0.6364 -2.2359
  105MOL0     H14115   2.573   2.651   6.881  2.4813  1.1075 -0.9256
  105MOL0     H14116   2.730   2.707   6.712 -0.5350  0.3085  1.0364
  105MOL0     H14117   2.788   2.550   6.766 -0.2659  0.7847  1.0147
  105MOL0     H14118   2.683   2.431   6.574  3.9631 -0.4211 -3.0347
  105MOL0     H14119   2.605   2.576   6.520  0.7552  3.5142  0.5460
  105MOL0     H14120   2.815   2.673   6.476 -0.8823  0.5700  2.5189
  105MOL0     H14121   2.912   2.551   6.539  0.2413  1.0001 -0.8100
  105MOL0     H14122   2.702   2.512   6.318 -0.1226 -0.5167 -0.0743
  105MOL0     H14123   2.861   2.585   6.285 -1.3112  2.2448  1.5718
  105MOL0     H14124   2.967   2.383   6.395  1.2141 -0.4617 -2.0382
  105MOL0     H14125   2.892   2.350   6.239 -0.3262 -2.7461  0.4653
  105MOL0     H14126   2.830   2.256   6.618 -1.3221  0.8732 -1.1665
  105MOL0     H14127   2.741   1.887   6.569 -3.9040 -0.2745  0.3951
  105MOL0     H14128   2.857   1.979   6.679 -1.4818  1.9175  1.8245
  105MOL0     H14129   2.675   2.073   6.800  0.2763  1.2889 -1.5037
  105MOL0     H14130   2.644   1.900   6.774 -1.4817 -0.1317 -0.5086
  105MOL0     H14131   2.505   1.933   6.589  2.5084  1.9014 -1.9768
  105MOL0     H14132   2.519   2.105   6.597 -1.2672  1.1132  0.0719
  105MOL0     H14133   2.315   2.065   6.740  0.6621 -1.1655 -0.5868
  105MOL0     H14134   2.438   2.084   6.856  0.9101 -0.1121  0.5960
  105MOL0     H14135   2.275   1.737   6.651 -0.1540  1.5329 -1.2210
  105MOL0     H14136   1.967   1.529   6.643 -3.4047  0.5161 -1.2089
  105MOL0     H14137   1.966   1.666   6.535  2.9615  1.6563 -0.0076
  105MOL0     H14138   2.120   1.597   6.565 -0.9983  2.1892 -1.5466
  105MOL0     H14139   1.615   1.891   6.775  0.1458 -0.7404  1.6112
  105MOL0     H14140   1.356   1.883   6.745 -2.3357  0.0917 -4.8574
  105MOL0     H14141   1.207   1.566   6.457  3.5668  0.6499  1.2007
  105MOL0     H14142   1.170   1.496   6.618 -0.1720 -0.5819 -1.2159
  105MOL0     H14143   1.008   1.689   6.468  1.2362  2.5835  2.9687
  105MOL0     H14144   0.983   1.513   6.490  0.6939 -0.1655 -0.9145
  105MOL0     H14145   0.964   1.749   6.681  3.5941 -0.0140 -1.9809
  105MOL0     H14146   1.009   1.596   6.754  3.3567  3.0648 -0.1018
  105MOL0     H14147   0.770   1.625   6.569 -0.3028 -0.9673 -0.3074
  105MOL0     H14148   0.801   1.487   6.680  0.0326 -0.6858 -1.0823
  105MOL0     H14149   0.620   1.587   6.755 -0.7599  1.9411 -1.5491
  105MOL0     H14150   0.677   1.747   6.727 -0.9121 -1.2173 -1.2177
  105MOL0     H14151   0.733   1.570   6.952  3.0605 -1.5722 -0.6475
  105MOL0     H14152   0.864   1.681   6.921 -0.3762 -1.2881  1.4824
  105MOL0     H14153   0.560   1.738   6.971 -2.3802  0.7549  1.6565
  105MOL0     H14154   0.674   1.871   6.942  0.8870 -0.9845 -0.2475
  105MOL0     H14155   0.594   1.829   7.186 -2.4652 -1.7581 -0.2206
  105MOL0     H14156   0.774   1.792   7.180 -1.0197  1.3671 -0.1646
  105MOL0     H14157   1.396   1.490   6.572  2.8476 -3.2295  1.1523
  105MOL0     H14158   1.644   1.490   6.621  3.7666  2.0074  0.5523
  105MOL0     H14159   1.965   1.894   6.996  0.8241  0.3263  0.2749
  105MOL0     H14160   2.195   1.950   7.010 -1.3611  0.8895  0.9185
  105MOL0     H14161   2.194   2.335   7.046  0.6403  0.2778 -1.8290
  105MOL0     H14162   1.974   2.389   7.155 -0.7168 -0.7993 -0.0978
  105MOL0     H14163   1.731   2.599   7.369  1.2605  1.8866 -1.0091
  105MOL0     H14164   1.525   2.584   7.520  1.1870 -0.4589 -0.4878
  105MOL0     H14165   1.150   2.782   7.346  0.0961  0.1788 -0.2872
  105MOL0     H14166   1.150   2.602   7.300  0.8279  1.1255 -0.6071
  105MOL0     H14167   0.941   2.652   7.405 -1.7311 -1.6091  2.7113
  105MOL0     H14168   1.038   2.690   7.558 -0.0126 -3.2434  2.1625
  105MOL0     H14169   1.128   2.463   7.525  0.5913  1.3388  0.6900
  105MOL0     H14170   0.997   2.437   7.399  4.0464  0.3042 -1.2166
  105MOL0     H14171   0.970   2.486   7.696  2.9912 -1.1853  0.1082
  105MOL0     H14172   0.951   2.339   7.606 -0.2677 -0.0939  0.4911
  105MOL0     H14173   0.606   2.599   7.538  1.1151  2.5908 -0.8547
  105MOL0     H14174   1.297   2.700   7.162  0.4633 -1.0073  0.9514
  105MOL0     H14175   1.511   2.700   7.033 -0.0170  1.5278  1.0477
  106MOL0     O14176   2.154  10.671   9.758 -0.2544 -0.8074  0.6430
  106MOL0     C14177   2.208  10.571   9.811 -1.6095  0.4085 -0.7008
  106MOL0     O14178   2.176  10.515   9.932  0.1911  0.2870 -0.2577
  106MOL0     C14179   2.068  10.545  10.001  0.6385 -0.6664  0.3373
  106MOL0     C14180   1.986  10.451  10.048  0.1389 -0.0035 -0.6622
  106MOL0     C14181   1.862  10.483  10.114 -0.7613  0.9711  0.5008
  106MOL0     C14182   1.823  10.616  10.124 -0.2160 -0.2472  0.6233
  106MOL0     O14183   1.700  10.641  10.182  0.2090  0.8482 -0.4390
  106MOL0     C14184   1.668  10.771  10.240  1.1102 -0.2465  0.3902
  106MOL0     C14185   1.557  10.728  10.333  0.7474  0.6797 -0.6230
  106MOL0     C14186   1.502  10.850  10.415 -0.0300  0.9990  0.2166
  106MOL0     C14187   1.386  10.809  10.506  0.4919 -0.8895 -0.0912
  106MOL0     C14188   1.325  10.931  10.569  0.5456  0.5280  1.0480
  106MOL0     C14189   1.409  10.997  10.671 -0.3625 -0.7585 -0.6554
  106MOL0     C14190   1.339  11.114  10.728  1.4313  0.0947 -0.1432
  106MOL0     C14191   1.403  11.221  10.815  0.9227  0.0832 -0.5164
  106MOL0     N14192   1.505  11.158  10.902 -0.4699 -0.0789  0.6943
  106MOL0     C14193   1.462  11.075  11.009 -0.4854  0.3457 -0.5890
  106MOL0     C14194   1.575  11.059  11.085  0.0229  0.6957 -0.3930
  106MOL0     C14195   1.592  10.996  11.215 -0.1300  0.5232 -0.3517
  106MOL0     C14196   1.660  10.870  11.214  0.2259  0.0737  0.0398
  106MOL0     C14197   1.574  10.764  11.140  0.2804 -0.5106  0.0343
  106MOL0     C14198   1.650  10.626  11.128 -0.0219 -0.1830 -0.0035
  106MOL0     O14199   1.564  10.542  11.190 -0.0731 -0.4090  0.5678
  106MOL0     C14200   1.539  10.541  11.326  0.1350  0.2432 -0.3915
  106MOL0     C14201   1.413  10.512  11.365  0.0128 -0.3852 -0.0638
  106MOL0     C14202   1.362  10.546  11.494 -1.0729 -0.3858  0.3000
  106MOL0     C14203   1.214  10.515  11.518  0.7333  0.4416  0.1124
  106MOL0     C14204   1.451  10.615  11.583  0.9221  0.5343  0.4420
  106MOL0     C14205   1.403  10.664  11.713 -0.6464 -0.6994 -0.5677
  106MOL0     O14206   1.497  10.667  11.805  0.3356 -0.1237  0.1718
  106MOL0     C14207   1.468  10.727  11.928 -0.6070  0.3364 -0.6018
  106MOL0     C14208   1.516  10.848  11.968  0.0554  0.0242 -0.1148
  106MOL0     C14209   1.481  10.886  12.096 -0.4984  0.3485 -0.5684
  106MOL0     C14210   1.384  10.823  12.174 -1.0343 -0.3631  0.7849
  106MOL0     O14211   1.341  10.869  12.301  0.0276  0.2703  0.0168
  106MOL0     C14212   1.453  10.903  12.389  0.3989  1.0814  0.0081
  106MOL0     C14213   1.427  10.862  12.531  0.5624  0.1979 -0.5234
  106MOL0     C14214   1.389  10.708  12.534  0.2768  0.6856 -0.9261
  106MOL0     C14215   1.231  10.669  12.534  0.6114  1.3433  0.3846
  106MOL0     C14216   1.199  10.515  12.552  0.3915  0.2459 -0.5681
  106MOL0     C14217   1.250  10.428  12.441  1.1135 -0.5577 -0.7667
  106MOL0     C14218   1.218  10.282  12.462 -0.4471 -0.2362 -0.5070
  106MOL0     C14219   1.204  10.219  12.321  0.9411  0.1376  0.3508
  106MOL0    Cl14220   1.160  10.045  12.361 -0.3125  0.4250 -0.0863
  106MOL0     C14221   1.328  10.711  12.127  0.4436 -0.4345 -0.1289
  106MOL0     C14222   1.374  10.659  12.007 -0.1247 -0.4684 -0.2945
  106MOL0     O14223   1.283  10.712  11.733  0.0507 -0.5456  0.2471
  106MOL0     C14224   1.586  10.630  11.545  0.0877 -1.1398 -0.0718
  106MOL0     C14225   1.631  10.596  11.413 -0.3807  0.5448 -0.3780
  106MOL0     N14226   1.684  11.117  11.017 -0.4054  0.1142  0.4011
  106MOL0     N14227   1.641  11.172  10.907  0.5961 -0.4083 -0.0976
  106MOL0     C14228   1.909  10.712  10.071 -0.1069 -0.7221 -0.0293
  106MOL0     C14229   2.034  10.679  10.011  0.3601 -0.8794  0.5857
  106MOL0     C14230   2.321  10.511   9.742 -0.0269 -0.0103 -0.4232
  106MOL0     C14231   2.387  10.587   9.641  0.8357  0.3083  0.2209
  106MOL0     C14232   2.492  10.529   9.583  0.4968  0.0888 -0.0071
  106MOL0     C14233   2.541  10.400   9.617 -0.1858  1.3979 -0.6237
  106MOL0     O14234   2.642  10.339   9.546 -0.6036  0.6774 -0.1772
  106MOL0     C14235   2.676  10.204   9.574  0.8211  0.0855 -0.1945
  106MOL0     C14236   2.769  10.152   9.464 -0.0371 -0.8662 -0.2832
  106MOL0     C14237   2.803  10.005   9.473  0.7237  0.0237  0.1978
  106MOL0     C14238   2.903   9.959   9.361  0.5031 -0.5524 -0.5988
  106MOL0     C14239   3.037   9.992   9.387  1.1042 -0.8933  0.0215
  106MOL0     C14240   3.154  10.018   9.401  0.9351 -0.5947  0.1873
  106MOL0     C14241   2.479  10.321   9.719 -0.5210 -1.1542  0.8744
  106MOL0     C14242   2.369  10.378   9.782  0.6492  0.8460  0.1851
  106MOL0     H14243   2.022  10.351  10.026 -0.1961  0.0985 -1.7364
  106MOL0     H14244   1.803  10.401  10.152 -2.5232  1.9039 -0.1393
  106MOL0     H14245   1.744  10.815  10.305  0.9802  0.4026  0.1130
  106MOL0     H14246   1.641  10.836  10.156  0.3422  0.1275  0.9189
  106MOL0     H14247   1.479  10.675  10.277  1.0611 -0.4115 -0.0405
  106MOL0     H14248   1.609  10.659  10.399 -0.8672  0.8410  0.8880
  106MOL0     H14249   1.589  10.885  10.471  0.6479  0.6236 -0.5666
  106MOL0     H14250   1.473  10.927  10.343 -0.0584  0.7340 -0.0583
  106MOL0     H14251   1.314  10.761  10.437  0.8365  1.5944 -2.3284
  106MOL0     H14252   1.412  10.740  10.587  1.4128  2.1011  2.3325
  106MOL0     H14253   1.292  11.009  10.500 -0.2310  2.3437  3.3453
  106MOL0     H14254   1.240  10.881  10.618  1.1300 -0.1508  1.3894
  106MOL0     H14255   1.422  10.926  10.753 -1.9369 -1.2298 -0.7648
  106MOL0     H14256   1.503  11.033  10.628 -0.6407 -1.3345 -1.8061
  106MOL0     H14257   1.306  11.173  10.642  0.4400 -1.2155 -0.7071
  106MOL0     H14258   1.251  11.072  10.777  1.7539  1.4949  1.7306
  106MOL0     H14259   1.329  11.259  10.886  1.6906 -0.3653  0.5710
  106MOL0     H14260   1.462  11.294  10.758 -0.9446  4.7266  2.8516
  106MOL0     H14261   1.362  11.044  11.039  0.1915 -2.4839 -0.9616
  106MOL0     H14262   1.653  11.067  11.272 -0.1651 -0.3867  0.8586
  106MOL0     H14263   1.491  10.997  11.257 -1.7531  1.8834 -3.8795
  106MOL0     H14264   1.690  10.839  11.315  0.6327  1.9163  0.5236
  106MOL0     H14265   1.756  10.875  11.161  1.2000  3.3884  1.8202
  106MOL0     H14266   1.567  10.803  11.038  0.8178  0.1902  0.2474
  106MOL0     H14267   1.476  10.762  11.187  0.3126  1.0444  0.2240
  106MOL0     H14268   1.750  10.619  11.170 -0.2273 -1.6515  0.2942
  106MOL0     H14269   1.668  10.607  11.022 -0.6698  0.5332 -0.2599
  106MOL0     H14270   1.341  10.499  11.285  1.9189  3.5263 -2.7897
  106MOL0     H14271   1.198  10.426  11.581  0.0479 -1.6865 -2.8505
  106MOL0     H14272   1.158  10.603  11.550 -0.1346  0.2450 -0.8016
  106MOL0     H14273   1.156  10.482  11.431 -2.9776 -0.1951  2.5561
  106MOL0     H14274   1.582  10.910  11.907 -3.0170  1.7851 -1.9339
  106MOL0     H14275   1.528  10.975  12.138  2.3966 -0.4266 -1.9029
  106MOL0     H14276   1.542  10.850  12.353 -0.2189 -0.2218  0.3331
  106MOL0     H14277   1.464  11.011  12.398  0.5157  1.0221  0.6143
  106MOL0     H14278   1.515  10.873  12.595  0.9928 -1.5766 -0.7540
  106MOL0     H14279   1.343  10.912  12.579 -0.5988 -4.0858  2.5394
  106MOL0     H14280   1.427  10.666  12.627  1.5100  1.0595 -1.2486
  106MOL0     H14281   1.430  10.657  12.446  0.7866 -0.1114 -0.2333
  106MOL0     H14282   1.176  10.726  12.609  1.9981  2.8489  0.3163
  106MOL0     H14283   1.183  10.709  12.444  0.0127  0.3325  0.2496
  106MOL0     H14284   1.093  10.493  12.565  0.7626 -0.2520  2.0206
  106MOL0     H14285   1.244  10.492  12.649 -0.9546 -1.6961 -0.3435
  106MOL0     H14286   1.204  10.462  12.347  0.6548  0.6951 -0.1051
  106MOL0     H14287   1.359  10.434  12.431  1.3737 -0.5324  1.5998
  106MOL0     H14288   1.122  10.279  12.514 -1.5943  2.5663 -2.2155
  106MOL0     H14289   1.295  10.228  12.519  1.6593  0.3974 -2.5671
  106MOL0     H14290   1.285  10.221  12.248 -0.3993 -2.7598 -1.4206
  106MOL0     H14291   1.123  10.266  12.266  0.6580 -1.4182 -0.6452
  106MOL0     H14292   1.255  10.654  12.184  2.4633 -1.0144  2.0333
  106MOL0     H14293   1.332  10.563  11.980  3.0980 -2.1465  0.0672
  106MOL0     H14294   1.658  10.660  11.620 -1.0485 -0.1353  0.6476
  106MOL0     H14295   1.735  10.615  11.387  0.1144  1.4287  1.9731
  106MOL0     H14296   1.886  10.816  10.092  1.1598  0.4665 -3.6753
  106MOL0     H14297   2.096  10.760   9.974 -1.2550 -0.4069 -1.2460
  106MOL0     H14298   2.368  10.687   9.604  0.4976 -0.0959 -0.7214
  106MOL0     H14299   2.544  10.582   9.504  1.0204 -2.1215 -1.2177
  106MOL0     H14300   2.721  10.202   9.674  1.5270  0.8664 -0.4785
  106MOL0     H14301   2.587  10.142   9.563 -0.1352  1.4057 -0.1817
  106MOL0     H14302   2.859  10.212   9.479 -1.0375  1.4479 -2.7355
  106MOL0     H14303   2.728  10.182   9.368  0.2543 -0.9712 -0.4410
  106MOL0     H14304   2.710   9.954   9.444  1.0851  0.5617 -2.1168
  106MOL0     H14305   2.832   9.972   9.573  0.2692 -1.7489 -0.2087
  106MOL0     H14306   2.882   9.990   9.259  0.1118 -2.0067 -0.9837
  106MOL0     H14307   2.903   9.849   9.367  0.6781 -0.5400 -0.3072
  106MOL0     H14308   3.254  10.051   9.420  0.6195 -0.6262  2.0750
  106MOL0     H14309   2.498  10.216   9.735 -1.8704 -1.4644  0.5708
  106MOL0     H14310   2.329  10.319   9.865  0.0445 -0.2233 -0.8188
  107MOL0     O14311   0.565   8.857   7.680  0.4578 -0.4254  0.5683
  107MOL0     C14312   0.648   8.840   7.765 -0.2871 -0.5675 -0.3632
  107MOL0     O14313   0.636   8.881   7.893  1.0127  0.1699  0.3767
  107MOL0     C14314   0.504   8.895   7.942  0.3866  0.6284 -0.7657
  107MOL0     C14315   0.388   8.816   7.919  0.5404 -0.2979  0.4168
  107MOL0     C14316   0.269   8.837   7.995  0.0802 -0.0572 -0.7649
  107MOL0     C14317   0.264   8.931   8.097 -0.1203  0.3219  1.1628
  107MOL0     O14318   0.150   8.945   8.168 -0.1180  0.2600 -0.2201
  107MOL0     C14319   0.103   9.081   8.172 -0.0663  0.7210 -1.0838
  107MOL0     C14320  -0.024   9.102   8.253 -0.0199  0.8688 -0.8246
  107MOL0     C14321  -0.150   9.017   8.202 -0.0422 -0.2874 -0.2035
  107MOL0     C14322  -0.275   9.046   8.287 -0.0100 -0.1710 -1.4855
  107MOL0     C14323  -0.398   8.962   8.241 -0.3846 -0.2308 -0.0371
  107MOL0     C14324  -0.434   8.834   8.326 -0.0617  0.2933 -0.9017
  107MOL0     C14325  -0.567   8.761   8.289 -0.4217 -0.5908  0.4417
  107MOL0     C14326  -0.581   8.724   8.140  0.0592 -0.2071  0.1091
  107MOL0     N14327  -0.684   8.619   8.110 -0.5871 -0.4973  0.1588
  107MOL0     C14328  -0.653   8.482   8.116  0.9015  0.0736 -0.3663
  107MOL0     C14329  -0.745   8.432   8.019 -0.4953 -0.6115 -0.0329
  107MOL0     C14330  -0.770   8.290   7.966 -0.2950 -0.9058 -0.7848
  107MOL0     C14331  -0.638   8.224   7.903 -0.1470 -0.0261 -0.2142
  107MOL0     C14332  -0.657   8.074   7.864 -0.1639 -0.6948 -0.6286
  107MOL0     C14333  -0.664   7.983   7.981 -0.1218 -0.0825 -0.3058
  107MOL0     O14334  -0.788   7.974   8.058 -0.2840  0.1738 -0.4702
  107MOL0     C14335  -0.913   7.969   7.994 -0.2891 -0.0751 -0.6853
  107MOL0     C14336  -1.016   8.038   8.052 -0.4178  0.3413  1.0401
  107MOL0     C14337  -1.147   8.019   8.004 -0.8919 -0.3723  0.0304
  107MOL0     C14338  -1.247   8.103   8.081  0.9507 -0.2372  0.1794
  107MOL0     C14339  -1.167   7.936   7.895 -0.6093  1.1630  0.2659
  107MOL0     C14340  -1.300   7.914   7.842 -0.3753 -0.3272 -0.1950
  107MOL0     O14341  -1.394   8.007   7.864 -0.3477 -0.5474 -0.0234
  107MOL0     C14342  -1.525   7.991   7.845  0.1129  0.0138  0.0563
  107MOL0     C14343  -1.608   8.107   7.865  0.0501  0.1473 -0.0586
  107MOL0     C14344  -1.751   8.106   7.846 -0.7310  0.1517 -0.3797
  107MOL0     C14345  -1.815   7.989   7.825 -0.1462 -0.3594  1.1120
  107MOL0     O14346  -1.952   8.002   7.824  0.2607 -0.3393 -0.1051
  107MOL0     C14347  -2.030   7.886   7.786 -0.3220 -0.1952  0.9487
  107MOL0     C14348  -2.173   7.952   7.799 -0.1103  0.2412  0.6539
  107MOL0     C14349  -2.286   7.846   7.744  0.0658  0.1888 -0.0959
  107MOL0     C14350  -2.416   7.914   7.736 -0.1515  0.2323 -0.4497
  107MOL0     C14351  -2.528   7.810   7.709  0.0569 -0.0463  0.2815
  107MOL0     C14352  -2.662   7.875   7.705 -0.1901 -1.3214  0.6195
  107MOL0     C14353  -2.782   7.771   7.711  0.0158 -0.0083 -0.6066
  107MOL0     C14354  -2.822   7.715   7.574 -0.6566 -0.1336 -0.0201
  107MOL0    Cl14355  -2.949   7.578   7.582 -0.0007 -0.0034 -0.0475
  107MOL0     C14356  -1.742   7.871   7.815 -0.6285  0.4028 -0.3558
  107MOL0     C14357  -1.603   7.872   7.818  0.1326 -1.1515  0.3728
  107MOL0     O14358  -1.321   7.811   7.778 -0.2253  0.4106  0.5767
  107MOL0     C14359  -1.058   7.873   7.832 -0.7733  0.2224 -0.4271
  107MOL0     C14360  -0.938   7.890   7.889 -0.0679  0.8531 -0.3173
  107MOL0     N14361  -0.811   8.539   7.967  0.1346  0.1601  0.9334
  107MOL0     N14362  -0.786   8.649   8.023  0.7285 -0.1811 -0.5447
  107MOL0     C14363   0.385   8.995   8.126  0.6827 -0.7887  0.7031
  107MOL0     C14364   0.500   8.990   8.041  0.0727 -0.3625  0.3032
  107MOL0     C14365   0.777   8.779   7.717 -0.5542 -0.2646 -0.7291
  107MOL0     C14366   0.783   8.724   7.587 -0.9279 -0.0540  0.6253
  107MOL0     C14367   0.904   8.657   7.544  0.1394  0.4203 -0.2583
  107MOL0     C14368   1.007   8.642   7.632 -0.9669 -0.0756  1.5202
  107MOL0     O14369   1.115   8.563   7.592 -0.5127  0.1965  0.1504
  107MOL0     C14370   1.239   8.631   7.598 -0.7668 -0.2209  0.0873
  107MOL0     C14371   1.327   8.603   7.479  0.2060  0.5293  0.5171
  107MOL0     C14372   1.445   8.705   7.458  0.5827 -0.6115  0.1905
  107MOL0     C14373   1.403   8.839   7.396 -0.2158  0.2534  0.0196
  107MOL0     C14374   1.517   8.926   7.355 -0.0834  0.7524 -0.5265
  107MOL0     C14375   1.622   8.995   7.332  0.4198  0.2436  0.3567
  107MOL0     C14376   1.006   8.709   7.752 -0.0078 -0.3613  0.0962
  107MOL0     C14377   0.890   8.773   7.799 -0.4803 -0.5083  0.2934
  107MOL0     H14378   0.390   8.735   7.847  2.5694  0.0181  0.0552
  107MOL0     H14379   0.177   8.780   7.981  0.5975 -1.0679 -0.1458
  107MOL0     H14380   0.182   9.146   8.209 -0.4281  0.1182  0.8449
  107MOL0     H14381   0.061   9.107   8.074 -4.6984  0.2275  0.5143
  107MOL0     H14382  -0.004   9.059   8.352 -0.8810 -3.4291 -2.3088
  107MOL0     H14383  -0.052   9.208   8.253 -0.5584  0.7410  0.3883
  107MOL0     H14384  -0.180   9.053   8.103 -0.6353  1.1647  0.4759
  107MOL0     H14385  -0.124   8.911   8.193  1.3043 -0.1979  1.9318
  107MOL0     H14386  -0.247   9.033   8.392  0.9715 -1.3173 -1.8568
  107MOL0     H14387  -0.303   9.151   8.273 -2.9246 -0.9522 -2.4324
  107MOL0     H14388  -0.490   9.020   8.254  1.0268  2.0463  0.4961
  107MOL0     H14389  -0.400   8.939   8.134 -0.1787  0.7111 -0.2514
  107MOL0     H14390  -0.352   8.763   8.333  0.7669  1.3112  0.0464
  107MOL0     H14391  -0.450   8.859   8.431 -0.6013  0.0467 -0.9192
  107MOL0     H14392  -0.581   8.669   8.346  0.4182 -0.5981  0.6392
  107MOL0     H14393  -0.653   8.819   8.324  0.3097  0.3093  0.7942
  107MOL0     H14394  -0.483   8.696   8.101 -0.0704  0.6664 -0.8834
  107MOL0     H14395  -0.597   8.816   8.083  1.4761  0.6138  0.9820
  107MOL0     H14396  -0.585   8.427   8.181 -1.4629  0.2990  2.5040
  107MOL0     H14397  -0.800   8.226   8.049  2.9428 -2.2269 -0.4900
  107MOL0     H14398  -0.838   8.299   7.881  2.6795  0.7547 -3.2179
  107MOL0     H14399  -0.566   8.242   7.983 -0.8564  1.5411  0.1105
  107MOL0     H14400  -0.598   8.275   7.815  1.4174 -1.5396 -0.4401
  107MOL0     H14401  -0.577   8.041   7.798 -0.1394 -0.1017 -0.9002
  107MOL0     H14402  -0.752   8.078   7.812  0.4565 -4.5745 -2.3534
  107MOL0     H14403  -0.584   8.019   8.046 -0.7958  3.7975 -1.3478
  107MOL0     H14404  -0.638   7.884   7.942 -0.1958 -0.4981  0.6669
  107MOL0     H14405  -0.994   8.088   8.146 -0.7253  0.4492  1.0584
  107MOL0     H14406  -1.219   8.121   8.185 -0.3257  1.0542  0.3314
  107MOL0     H14407  -1.256   8.199   8.028  1.4503 -0.6254 -0.6188
  107MOL0     H14408  -1.345   8.055   8.083  1.4267 -1.2399 -0.0825
  107MOL0     H14409  -1.560   8.202   7.889  1.5491 -1.0097  1.8209
  107MOL0     H14410  -1.799   8.202   7.836 -1.0224  0.0856  0.3116
  107MOL0     H14411  -2.004   7.849   7.687 -3.6715 -4.0659  1.2688
  107MOL0     H14412  -2.008   7.810   7.861 -0.0507 -0.3932  0.6650
  107MOL0     H14413  -2.191   7.983   7.902  0.3978 -0.0192  0.8288
  107MOL0     H14414  -2.182   8.038   7.734 -0.8928 -0.8386 -0.7189
  107MOL0     H14415  -2.289   7.763   7.814 -1.4389 -2.4774 -3.0607
  107MOL0     H14416  -2.245   7.820   7.646 -0.0062  0.3739 -0.1754
  107MOL0     H14417  -2.444   7.953   7.835 -0.7670  0.0543 -0.5505
  107MOL0     H14418  -2.408   7.985   7.654  2.2592 -0.5913 -1.0157
  107MOL0     H14419  -2.521   7.728   7.781 -0.1839  0.9465  1.4841
  107MOL0     H14420  -2.525   7.777   7.605 -3.6960 -0.1014  0.0498
  107MOL0     H14421  -2.676   7.930   7.799 -0.8395  2.1933 -1.3695
  107MOL0     H14422  -2.685   7.941   7.621 -0.1865 -3.9677 -1.5773
  107MOL0     H14423  -2.872   7.822   7.747  1.5455  1.9983  0.5360
  107MOL0     H14424  -2.746   7.688   7.772  3.7415 -0.6246 -3.3032
  107MOL0     H14425  -2.736   7.677   7.519 -0.1396 -2.7532  2.3958
  107MOL0     H14426  -2.861   7.803   7.521  0.5658  0.6163  0.2832
  107MOL0     H14427  -1.790   7.774   7.812  1.2066 -0.5255 -1.8763
  107MOL0     H14428  -1.563   7.772   7.804  0.0332 -0.7348 -4.4065
  107MOL0     H14429  -1.070   7.813   7.742  0.8001 -0.2361 -0.3548
  107MOL0     H14430  -0.853   7.842   7.841 -0.8805 -0.3800 -0.5524
  107MOL0     H14431   0.396   9.053   8.217 -2.1005 -1.8065  1.7870
  107MOL0     H14432   0.592   9.044   8.063  1.0477 -1.2736 -1.3534
  107MOL0     H14433   0.699   8.728   7.519 -1.2734  0.7869  1.0862
  107MOL0     H14434   0.914   8.605   7.449  2.1242  1.6204 -0.7569
  107MOL0     H14435   1.224   8.740   7.591  0.4466 -0.1084 -1.1753
  107MOL0     H14436   1.287   8.617   7.695  0.5875 -2.5999 -0.8491
  107MOL0     H14437   1.280   8.597   7.380 -0.7032  2.1920  0.8252
  107MOL0     H14438   1.375   8.505   7.493  3.9393  2.0673 -0.3157
  107MOL0     H14439   1.517   8.666   7.385  0.9458  0.0828  0.1749
  107MOL0     H14440   1.499   8.714   7.552  2.9775  0.7331 -1.2247
  107MOL0     H14441   1.324   8.880   7.460  0.6991 -0.9378  2.0242
  107MOL0     H14442   1.346   8.813   7.307  0.1686  0.4481 -0.2859
  107MOL0     H14443   1.707   9.056   7.311 -0.4557  0.7346 -2.1355
  107MOL0     H14444   1.090   8.702   7.820  1.7243 -2.5473 -2.1004
  107MOL0     H14445   0.887   8.823   7.895  3.0701 -1.6664  1.1598
  108MOL0     O14446   2.927   8.078   8.599  0.1536 -0.4516  0.5425
  108MOL0     C14447   2.919   8.054   8.480  0.3832  0.8790  0.7419
  108MOL0     O14448   2.807   8.085   8.407  0.4920 -0.1932 -0.2580
  108MOL0     C14449   2.689   8.111   8.478 -0.0571 -0.8600  0.2763
  108MOL0     C14450   2.639   8.026   8.576 -0.0670  0.5956 -0.1055
  108MOL0     C14451   2.527   8.060   8.646  0.8813 -0.0849  0.0109
  108MOL0     C14452   2.461   8.178   8.626  0.2921 -0.1486  0.2381
  108MOL0     O14453   2.356   8.219   8.704  0.0689  0.0148 -0.4678
  108MOL0     C14454   2.372   8.203   8.849  0.0853 -0.0084  0.4848
  108MOL0     C14455   2.265   8.279   8.930 -0.6207  0.1725  0.4227
  108MOL0     C14456   2.199   8.205   9.049  0.2063  0.3573  0.9284
  108MOL0     C14457   2.092   8.297   9.103 -0.1477 -0.5407 -0.1314
  108MOL0     C14458   1.977   8.323   9.010  0.0422  0.3091  0.2195
  108MOL0     C14459   1.837   8.349   9.087 -0.9605 -0.1386 -0.1093
  108MOL0     C14460   1.841   8.494   9.150  0.3047  0.0290  0.8442
  108MOL0     C14461   1.706   8.562   9.168 -0.5153 -0.3844  0.2016
  108MOL0     N14462   1.612   8.465   9.236 -0.8770 -0.3403  0.1522
  108MOL0     C14463   1.614   8.420   9.368 -0.4953 -0.0252  1.7808
  108MOL0     C14464   1.524   8.318   9.371 -0.2757 -0.4927 -0.2386
  108MOL0     C14465   1.491   8.231   9.491  0.2864  0.3211  0.0022
  108MOL0     C14466   1.335   8.209   9.497  0.4295 -0.0701 -0.4066
  108MOL0     C14467   1.268   8.343   9.533  0.4516  0.7264 -0.1031
  108MOL0     C14468   1.133   8.314   9.602 -0.2134  0.3279 -0.1245
  108MOL0     O14469   1.081   8.435   9.630  0.3309 -0.3117  0.3093
  108MOL0     C14470   0.999   8.443   9.738  0.5461 -0.7080 -0.0111
  108MOL0     C14471   1.012   8.532   9.841 -0.4354 -1.4601  0.3136
  108MOL0     C14472   0.928   8.542   9.952  0.8113  0.6219  0.3589
  108MOL0     C14473   0.967   8.654  10.045 -0.1578  0.1016 -0.6579
  108MOL0     C14474   0.824   8.446   9.968  0.5733  0.7750  0.0429
  108MOL0     C14475   0.718   8.444  10.084 -0.6386  0.1104 -0.2735
  108MOL0     O14476   0.594   8.382  10.062  0.3099  0.1706 -0.4384
  108MOL0     C14477   0.522   8.341  10.170  0.3881  1.2833 -0.3783
  108MOL0     C14478   0.384   8.352  10.158  0.5178 -0.8314 -0.4412
  108MOL0     C14479   0.301   8.324  10.269 -0.1013 -0.5955 -0.1377
  108MOL0     C14480   0.357   8.297  10.401  0.3068  0.7348  0.3158
  108MOL0     O14481   0.270   8.261  10.499  0.8455  0.6237 -0.1390
  108MOL0     C14482   0.317   8.193  10.611 -0.2145 -0.0230  0.2616
  108MOL0     C14483   0.205   8.171  10.709 -0.6415 -0.2049 -0.0636
  108MOL0     C14484   0.128   8.051  10.660 -0.5107  0.9422 -0.2429
  108MOL0     C14485   0.028   7.996  10.768  0.9172  0.0688  0.2634
  108MOL0     C14486  -0.058   7.880  10.707 -0.0143 -0.4834 -0.7087
  108MOL0     C14487  -0.158   7.943  10.604 -0.4881  0.7736 -0.1735
  108MOL0     C14488  -0.274   7.846  10.583 -0.2649  0.1425 -0.8743
  108MOL0     C14489  -0.366   7.897  10.470 -0.3339  0.4777  0.0767
  108MOL0    Cl14490  -0.267   7.905  10.322  0.1622 -0.2569  0.4524
  108MOL0     C14491   0.495   8.284  10.405  0.5569 -0.1797 -0.0729
  108MOL0     C14492   0.574   8.316  10.300 -0.7309 -0.5059  0.3295
  108MOL0     O14493   0.742   8.513  10.182 -0.4328 -0.0329 -0.3618
  108MOL0     C14494   0.799   8.363   9.862  0.8996 -0.1161 -0.1552
  108MOL0     C14495   0.893   8.351   9.753  0.4737 -0.6195 -0.1590
  108MOL0     N14496   1.467   8.304   9.251 -0.0247 -1.1358  0.0122
  108MOL0     N14497   1.509   8.402   9.172  0.0493 -0.6251 -1.0317
  108MOL0     C14498   2.510   8.271   8.533 -0.3604  0.4155 -0.3522
  108MOL0     C14499   2.629   8.239   8.459 -0.7672 -0.1065 -0.1858
  108MOL0     C14500   3.052   8.043   8.411  1.1719 -0.2378 -0.3191
  108MOL0     C14501   3.066   8.097   8.288  0.2776 -0.3834  0.0365
  108MOL0     C14502   3.193   8.093   8.216 -1.1691 -0.0875 -0.0803
  108MOL0     C14503   3.300   8.028   8.269  0.0472  0.0040 -0.7191
  108MOL0     O14504   3.424   8.032   8.215  0.7031  0.2661 -0.2467
  108MOL0     C14505   3.505   7.902   8.228  0.2619  0.2208  0.1553
  108MOL0     C14506   3.628   7.947   8.149 -0.7951  0.0480  0.6552
  108MOL0     C14507   3.589   7.954   8.005 -0.1136 -0.3216  0.5313
  108MOL0     C14508   3.677   8.059   7.924 -0.9326  0.1508 -0.2637
  108MOL0     C14509   3.820   8.058   7.944 -0.1535 -0.8555  1.3023
  108MOL0     C14510   3.934   8.062   7.981  0.3173  0.2139  0.2643
  108MOL0     C14511   3.275   7.964   8.392  0.1892  1.0929 -0.2853
  108MOL0     C14512   3.155   7.978   8.464 -0.8943 -0.3475 -0.6098
  108MOL0     H14513   2.697   7.945   8.618 -1.8659 -0.0347  1.2837
  108MOL0     H14514   2.500   7.998   8.731  1.8129 -1.8418 -0.9169
  108MOL0     H14515   2.367   8.099   8.883  1.1109  0.6421  2.7991
  108MOL0     H14516   2.465   8.252   8.879 -1.1619  1.4704  2.1150
  108MOL0     H14517   2.316   8.368   8.967  3.2848 -0.5273 -2.6285
  108MOL0     H14518   2.178   8.299   8.867  0.1966 -1.7280 -1.4622
  108MOL0     H14519   2.158   8.114   9.006  0.8592  1.3590 -2.0775
  108MOL0     H14520   2.277   8.188   9.124  0.5577  3.0602  1.2823
  108MOL0     H14521   2.057   8.246   9.194 -1.4511 -1.3808 -1.0756
  108MOL0     H14522   2.147   8.388   9.131  0.3524 -0.9450  0.2121
  108MOL0     H14523   1.996   8.413   8.952  0.1817 -0.1649 -0.4829
  108MOL0     H14524   1.960   8.237   8.945 -0.6389 -0.0207  0.8162
  108MOL0     H14525   1.754   8.354   9.016 -1.1778  4.0727  0.1882
  108MOL0     H14526   1.819   8.271   9.162  0.2481 -0.2525  0.0779
  108MOL0     H14527   1.880   8.504   9.252  2.2755  0.0910  0.1287
  108MOL0     H14528   1.898   8.560   9.084 -1.9690  0.1206 -1.1465
  108MOL0     H14529   1.670   8.598   9.071 -0.3481  3.1093  1.3165
  108MOL0     H14530   1.721   8.651   9.230 -3.2924 -0.1037  0.5858
  108MOL0     H14531   1.670   8.459   9.452  1.1119  0.0194  0.7435
  108MOL0     H14532   1.541   8.135   9.477  0.5830 -0.0055  2.7427
  108MOL0     H14533   1.525   8.279   9.583 -1.7398  1.3041  0.3047
  108MOL0     H14534   1.298   8.131   9.564 -2.4672  1.0964 -0.4987
  108MOL0     H14535   1.304   8.188   9.394  3.5004  1.3728 -1.7505
  108MOL0     H14536   1.241   8.396   9.440 -0.3449 -1.5298 -1.2331
  108MOL0     H14537   1.325   8.407   9.601 -0.4144  2.6870 -1.1255
  108MOL0     H14538   1.154   8.242   9.682 -1.0717 -1.2073 -1.2268
  108MOL0     H14539   1.071   8.254   9.535  0.8437  0.7335 -1.5032
  108MOL0     H14540   1.086   8.609   9.828 -2.7784  0.6924 -1.2715
  108MOL0     H14541   0.886   8.727  10.047 -0.6040 -0.3026  2.5160
  108MOL0     H14542   0.986   8.622  10.148  0.6050 -0.4603 -0.9707
  108MOL0     H14543   1.060   8.705  10.021 -0.6159  0.6461 -1.3217
  108MOL0     H14544   0.332   8.377  10.066 -0.9102  1.2031  0.8411
  108MOL0     H14545   0.194   8.340  10.260 -0.0651 -1.0003 -1.6170
  108MOL0     H14546   0.376   8.102  10.598 -1.4189 -1.3938  3.4280
  108MOL0     H14547   0.383   8.268  10.656 -0.1357 -0.1319  0.3270
  108MOL0     H14548   0.251   8.153  10.807  1.5449  0.1197 -0.9848
  108MOL0     H14549   0.144   8.261  10.715 -1.9366 -1.0607  0.0870
  108MOL0     H14550   0.197   7.970  10.637 -1.2595  0.0644  0.5195
  108MOL0     H14551   0.074   8.074  10.568 -1.4354  0.8646  0.2614
  108MOL0     H14552   0.095   7.965  10.849  1.1890 -1.4277 -0.5117
  108MOL0     H14553  -0.047   8.069  10.800 -0.6537 -2.1359  1.9221
  108MOL0     H14554  -0.105   7.828  10.791  3.5626 -2.0807  0.5143
  108MOL0     H14555   0.004   7.810  10.650 -1.8296  0.3380 -3.9753
  108MOL0     H14556  -0.200   8.035  10.646 -0.4762  0.2856  0.9587
  108MOL0     H14557  -0.101   7.961  10.513  0.9057  1.4035  0.7861
  108MOL0     H14558  -0.326   7.842  10.679 -1.0275 -3.0499 -1.3221
  108MOL0     H14559  -0.242   7.744  10.562 -3.9244 -1.5533  1.0491
  108MOL0     H14560  -0.405   7.995  10.500 -0.7837  0.0887  0.7796
  108MOL0     H14561  -0.456   7.836  10.453 -2.3891  2.5429  2.6966
  108MOL0     H14562   0.543   8.260  10.500 -1.5949  0.5242  1.2768
  108MOL0     H14563   0.680   8.317  10.324 -0.8725 -1.8050  1.1241
  108MOL0     H14564   0.709   8.301   9.861  1.1803 -0.5365  0.1658
  108MOL0     H14565   0.882   8.275   9.676 -1.2558 -2.7315  1.9687
  108MOL0     H14566   2.470   8.371   8.525 -0.4509  0.5497  1.3294
  108MOL0     H14567   2.675   8.304   8.386  1.5966 -0.9460  0.4638
  108MOL0     H14568   2.986   8.157   8.246  0.2988  0.2338  0.8451
  108MOL0     H14569   3.204   8.149   8.123  0.6569  1.6856  1.1005
  108MOL0     H14570   3.522   7.889   8.335 -1.8558  1.1040  0.6507
  108MOL0     H14571   3.452   7.820   8.178 -0.1311  2.3404 -3.1678
  108MOL0     H14572   3.711   7.876   8.160  0.8151  2.0609  2.4413
  108MOL0     H14573   3.673   8.040   8.186 -0.3359 -0.5009  1.5135
  108MOL0     H14574   3.484   7.985   7.996  0.3722  1.4394  0.7334
  108MOL0     H14575   3.607   7.860   7.952  0.2685 -0.6115  1.1617
  108MOL0     H14576   3.648   8.163   7.944 -3.4587 -0.6069  0.4967
  108MOL0     H14577   3.670   8.047   7.816  3.5686 -0.5352 -0.6503
  108MOL0     H14578   4.035   8.080   8.013 -0.0141 -0.0059  1.5108
  108MOL0     H14579   3.348   7.903   8.444  0.3702  0.0883 -1.6786
  108MOL0     H14580   3.147   7.937   8.565  0.3240 -0.8054 -0.6806
  109MOL0     O14581   5.612  10.572   1.662 -0.0591 -0.6193 -0.0719
  109MOL0     C14582   5.536  10.497   1.601  0.6662 -0.1939 -0.6785
  109MOL0     O14583   5.399  10.489   1.616 -0.3490 -0.2974  0.1351
  109MOL0     C14584   5.340  10.544   1.728  0.0657 -0.3549  0.1152
  109MOL0     C14585   5.249  10.648   1.719  0.2116 -0.2379  0.8021
  109MOL0     C14586   5.199  10.712   1.830 -0.2766 -0.3186  0.2687
  109MOL0     C14587   5.261  10.696   1.959 -0.5223  0.4079 -0.0628
  109MOL0     O14588   5.226  10.756   2.075  0.3605 -0.0518 -0.0432
  109MOL0     C14589   5.159  10.885   2.074  0.1868  0.1105  0.1784
  109MOL0     C14590   5.210  10.969   2.191 -0.5734  0.5593 -0.0637
  109MOL0     C14591   5.145  10.934   2.330 -0.1772  0.3967 -0.1549
  109MOL0     C14592   5.216  11.007   2.440  0.0667 -0.1561 -0.6938
  109MOL0     C14593   5.153  10.959   2.573 -0.9437  0.1263  1.0406
  109MOL0     C14594   5.217  11.016   2.688 -0.3304 -0.7459  0.6783
  109MOL0     C14595   5.190  10.960   2.828 -0.5741 -0.1535 -0.5071
  109MOL0     C14596   5.044  10.956   2.868  0.1533  0.3802 -0.8673
  109MOL0     N14597   4.985  11.087   2.859 -0.2848  0.0826 -0.3131
  109MOL0     C14598   5.014  11.205   2.934 -0.2971 -0.1919  0.2068
  109MOL0     C14599   4.939  11.301   2.869  0.5053 -0.6102 -0.2477
  109MOL0     C14600   4.934  11.445   2.906 -0.5291  0.3528 -0.0228
  109MOL0     C14601   5.072  11.507   2.870  1.1287 -1.5280 -0.3276
  109MOL0     C14602   5.092  11.639   2.946  1.0367  0.2709  0.1337
  109MOL0     C14603   5.009  11.765   2.897 -0.0773  0.4364  0.0126
  109MOL0     O14604   5.040  11.806   2.762 -0.2138  0.1217  0.9690
  109MOL0     C14605   4.980  11.910   2.694  0.6745 -0.8830 -0.3318
  109MOL0     C14606   5.016  11.930   2.558 -0.6069 -0.9390 -0.9010
  109MOL0     C14607   4.975  12.033   2.483 -0.0709 -0.0888 -0.3091
  109MOL0     C14608   5.011  12.032   2.333 -0.1596 -0.0796 -0.1761
  109MOL0     C14609   4.899  12.139   2.551  0.4347 -0.3204  0.9318
  109MOL0     C14610   4.850  12.259   2.483 -0.0667  0.2173 -0.1060
  109MOL0     O14611   4.726  12.317   2.520 -0.3087 -0.1985  0.0929
  109MOL0     C14612   4.701  12.434   2.460  0.1149  0.4899 -0.5312
  109MOL0     C14613   4.786  12.543   2.465 -0.3759 -1.1705  0.4910
  109MOL0     C14614   4.754  12.662   2.396 -0.2397  0.0823  0.2544
  109MOL0     C14615   4.627  12.686   2.345  0.5755 -0.0586  0.6228
  109MOL0     O14616   4.588  12.797   2.277 -0.5137 -0.4072 -0.1949
  109MOL0     C14617   4.640  12.923   2.319  0.0789  0.5455 -0.3490
  109MOL0     C14618   4.572  13.013   2.218  0.3991  1.0237 -0.3773
  109MOL0     C14619   4.615  13.162   2.238 -0.0538  0.8733 -0.5660
  109MOL0     C14620   4.594  13.223   2.100  0.5866  0.1182  0.2965
  109MOL0     C14621   4.603  13.378   2.099  0.4101 -1.1851 -0.8524
  109MOL0     C14622   4.488  13.446   2.025 -0.3134 -0.5556  1.1812
  109MOL0     C14623   4.515  13.602   2.023  0.4290 -0.3706 -0.6442
  109MOL0     C14624   4.427  13.681   1.931 -0.1237 -0.2177 -0.0564
  109MOL0    Cl14625   4.255  13.648   1.971  0.2386 -0.2211 -0.0924
  109MOL0     C14626   4.536  12.581   2.358  0.6239  0.2587  0.3231
  109MOL0     C14627   4.568  12.456   2.419  0.2184 -0.0241  1.0820
  109MOL0     O14628   4.925  12.299   2.402  0.0040 -0.0354 -0.3693
  109MOL0     C14629   4.863  12.115   2.691 -0.4627  0.2950 -0.1582
  109MOL0     C14630   4.894  12.001   2.759 -0.1730  0.3050 -0.7740
  109MOL0     N14631   4.857  11.243   2.780 -0.6954 -0.1663 -0.0441
  109MOL0     N14632   4.883  11.117   2.780  1.0095  0.4760 -0.4561
  109MOL0     C14633   5.363  10.598   1.976  0.2250 -0.5737  0.7663
  109MOL0     C14634   5.387  10.516   1.857 -0.2609 -0.2443 -0.3129
  109MOL0     C14635   5.605  10.423   1.489  0.0305  0.4559  0.1415
  109MOL0     C14636   5.709  10.465   1.403  0.4914 -0.3447 -0.0206
  109MOL0     C14637   5.779  10.376   1.321 -0.4438 -0.0743 -0.0489
  109MOL0     C14638   5.736  10.241   1.317 -0.1464 -0.1015  0.8917
  109MOL0     O14639   5.813  10.161   1.243  0.5356 -0.1423 -0.1275
  109MOL0     C14640   5.821  10.019   1.257  0.4401  0.3177  0.4114
  109MOL0     C14641   5.926   9.961   1.164  0.2167  0.5991  1.0482
  109MOL0     C14642   6.066  10.024   1.189  0.5683 -0.5986  0.5882
  109MOL0     C14643   6.186   9.941   1.135  0.1140  0.0375  0.0996
  109MOL0     C14644   6.311  10.019   1.155 -0.5512  0.4115 -0.3346
  109MOL0     C14645   6.405  10.093   1.180  0.6331  0.2321 -0.1067
  109MOL0     C14646   5.617  10.206   1.378  0.7552  0.9956  0.0110
  109MOL0     C14647   5.560  10.288   1.474 -0.3973 -0.8381 -0.2555
  109MOL0     H14648   5.215  10.658   1.616 -0.9202 -0.5824  1.1340
  109MOL0     H14649   5.118  10.783   1.814  1.4478  1.7999  0.6013
  109MOL0     H14650   5.168  10.940   1.980 -2.3833  0.3567 -0.0139
  109MOL0     H14651   5.051  10.866   2.086  0.2995 -0.0588  0.9810
  109MOL0     H14652   5.318  10.960   2.197 -0.3902  1.7454 -1.1330
  109MOL0     H14653   5.193  11.076   2.176  0.1191  0.8297  0.9721
  109MOL0     H14654   5.041  10.966   2.332 -0.5159 -0.6204  3.0902
  109MOL0     H14655   5.149  10.826   2.349  1.4191  0.5429  0.5324
  109MOL0     H14656   5.323  10.984   2.432  0.4608  1.9843 -2.9535
  109MOL0     H14657   5.210  11.115   2.422  0.9194  0.3496  1.6906
  109MOL0     H14658   5.046  10.982   2.565 -0.6768  0.8842 -1.2680
  109MOL0     H14659   5.157  10.850   2.580  0.8953  0.0537 -0.3859
  109MOL0     H14660   5.326  11.009   2.686  0.1698  3.3983 -3.5137
  109MOL0     H14661   5.187  11.121   2.690 -0.6081 -0.7914 -0.4153
  109MOL0     H14662   5.242  10.865   2.841 -1.0341 -0.5490 -1.4573
  109MOL0     H14663   5.243  11.027   2.896  2.9884 -2.9594 -0.2138
  109MOL0     H14664   5.041  10.923   2.972  0.4364  1.3687 -0.5263
  109MOL0     H14665   5.004  10.871   2.813 -0.0458 -0.0679 -0.0440
  109MOL0     H14666   5.069  11.216   3.026 -1.0036 -0.7440  0.7028
  109MOL0     H14667   4.853  11.481   2.842 -1.1528 -0.1690  0.4577
  109MOL0     H14668   4.899  11.455   3.009 -4.5564  0.1522 -1.1905
  109MOL0     H14669   5.091  11.506   2.762  2.2790 -1.2422 -0.1410
  109MOL0     H14670   5.146  11.439   2.913  1.0054 -0.4915  1.6447
  109MOL0     H14671   5.199  11.657   2.937  0.7877  0.7785 -2.7005
  109MOL0     H14672   5.067  11.621   3.051 -1.2993  1.1204 -0.2294
  109MOL0     H14673   5.026  11.852   2.960 -1.3205 -0.1801  1.2581
  109MOL0     H14674   4.901  11.752   2.910  0.1030 -2.9399 -0.7220
  109MOL0     H14675   5.073  11.857   2.503  1.0715  1.3625 -2.3912
  109MOL0     H14676   5.040  12.128   2.287  0.9932 -1.3432 -2.2501
  109MOL0     H14677   5.098  11.969   2.312  0.2462  0.8962 -1.5980
  109MOL0     H14678   4.921  12.005   2.278 -2.8649  2.1427  2.8038
  109MOL0     H14679   4.886  12.545   2.508  0.3384  0.4770 -1.1004
  109MOL0     H14680   4.831  12.736   2.379  1.6586 -1.8966 -0.1533
  109MOL0     H14681   4.612  12.953   2.420  0.6322  1.1897 -0.3750
  109MOL0     H14682   4.746  12.927   2.289 -0.3468  2.1929 -1.8254
  109MOL0     H14683   4.594  12.979   2.116  0.1766 -0.1549 -0.0391
  109MOL0     H14684   4.465  12.996   2.234  0.2209  1.9829 -0.4548
  109MOL0     H14685   4.721  13.174   2.260  0.4285 -1.2808 -1.5090
  109MOL0     H14686   4.553  13.213   2.313  1.1290 -0.9758  1.8107
  109MOL0     H14687   4.662  13.179   2.026 -0.2015  2.7746 -2.1650
  109MOL0     H14688   4.491  13.202   2.070 -0.6219  1.4448  3.1484
  109MOL0     H14689   4.697  13.411   2.055  0.3186 -1.6957 -1.4558
  109MOL0     H14690   4.609  13.415   2.202  1.5853 -0.8995 -1.0057
  109MOL0     H14691   4.485  13.402   1.925  0.8049 -1.2882  1.4496
  109MOL0     H14692   4.390  13.436   2.072 -0.0946  1.5814  2.1980
  109MOL0     H14693   4.615  13.607   1.979 -0.6570  1.1751 -3.1607
  109MOL0     H14694   4.521  13.648   2.122  3.5480  4.4981 -2.7204
  109MOL0     H14695   4.429  13.644   1.828  0.9165  1.1924 -0.5881
  109MOL0     H14696   4.444  13.789   1.929  1.2526 -0.4107  0.1764
  109MOL0     H14697   4.439  12.606   2.316  1.3646  1.1164 -0.9354
  109MOL0     H14698   4.487  12.385   2.409 -0.5512  1.1404 -5.0467
  109MOL0     H14699   4.797  12.188   2.736 -0.6616 -0.8633  1.5237
  109MOL0     H14700   4.861  11.984   2.861  0.3996 -0.0620 -0.6442
  109MOL0     H14701   5.416  10.563   2.064  2.0089  0.1458  0.0238
  109MOL0     H14702   5.458  10.434   1.862 -1.3248 -1.2003 -0.4602
  109MOL0     H14703   5.741  10.569   1.395 -1.7791  0.2952 -1.6691
  109MOL0     H14704   5.870  10.403   1.268  0.7820 -2.6142  0.5524
  109MOL0     H14705   5.856   9.995   1.358  5.3884 -0.8515 -1.2907
  109MOL0     H14706   5.722   9.980   1.231  0.7494  1.0111 -2.0843
  109MOL0     H14707   5.891   9.977   1.061  1.6748  1.3529  0.6499
  109MOL0     H14708   5.922   9.852   1.167 -0.4406  0.3737 -2.6612
  109MOL0     H14709   6.080  10.037   1.297 -0.0327 -1.1471  0.7397
  109MOL0     H14710   6.078  10.117   1.133  1.5735 -2.0510 -1.7653
  109MOL0     H14711   6.162   9.912   1.032  0.9800 -1.2512  0.2397
  109MOL0     H14712   6.200   9.846   1.187 -2.8210 -0.1827  0.6523
  109MOL0     H14713   6.488  10.158   1.200  0.7967  0.6703 -2.0312
  109MOL0     H14714   5.569  10.111   1.359  3.9481 -0.2119 -3.1720
  109MOL0     H14715   5.475  10.246   1.527 -2.0640  1.8850 -0.5657
  110MOL0     O14716   6.921   8.938   8.232 -0.1338 -0.3658  0.1224
  110MOL0     C14717   6.910   9.065   8.235 -1.0685  0.2712 -0.1979
  110MOL0     O14718   6.798   9.138   8.268 -0.0929 -0.7867 -0.2095
  110MOL0     C14719   6.681   9.070   8.308 -0.1595  0.8438  0.3771
  110MOL0     C14720   6.563   9.123   8.276  0.7069  0.2757  0.0234
  110MOL0     C14721   6.435   9.070   8.317 -0.4515 -1.4474 -0.3535
  110MOL0     C14722   6.428   8.971   8.406  0.6974  0.0839 -1.0334
  110MOL0     O14723   6.307   8.922   8.464  0.0187  0.5965 -0.5135
  110MOL0     C14724   6.295   8.782   8.464  0.4727 -0.2342 -0.2018
  110MOL0     C14725   6.171   8.748   8.547 -0.0445 -0.3825  0.3688
  110MOL0     C14726   6.166   8.608   8.604 -0.8161 -0.4652  0.0800
  110MOL0     C14727   6.100   8.507   8.515  0.1234  0.0518  0.9592
  110MOL0     C14728   6.138   8.363   8.548  0.6546  0.3110 -0.1161
  110MOL0     C14729   6.102   8.310   8.687  0.0848  0.1602 -0.3172
  110MOL0     C14730   5.957   8.347   8.740  0.0759 -0.5956  0.1816
  110MOL0     C14731   5.941   8.247   8.854  0.8855  0.3317  0.2253
  110MOL0     N14732   5.791   8.246   8.877 -0.8745  0.6024 -0.6164
  110MOL0     C14733   5.694   8.196   8.796  0.1006 -0.4109  0.0968
  110MOL0     C14734   5.577   8.244   8.851  0.2821  0.4835  0.2530
  110MOL0     C14735   5.435   8.210   8.796 -0.3745  0.5236  0.1908
  110MOL0     C14736   5.375   8.310   8.692 -0.1673  1.4189 -0.3877
  110MOL0     C14737   5.343   8.447   8.759  0.4042 -0.2485 -0.9489
  110MOL0     C14738   5.227   8.438   8.857  0.8001 -0.3545  0.6457
  110MOL0     O14739   5.112   8.487   8.782  0.3890  0.3401  0.3728
  110MOL0     C14740   4.995   8.510   8.850  0.2052 -0.8432 -0.0610
  110MOL0     C14741   4.900   8.585   8.783  0.1787 -0.3540  0.1008
  110MOL0     C14742   4.775   8.620   8.832  0.0790  1.7252 -0.2568
  110MOL0     C14743   4.690   8.694   8.731  0.1836 -0.0411 -0.8670
  110MOL0     C14744   4.741   8.573   8.962  0.0572  0.7782  0.4325
  110MOL0     C14745   4.614   8.584   9.024 -1.2958 -0.9993  0.1944
  110MOL0     O14746   4.528   8.656   8.953  0.9582 -0.6208  0.2441
  110MOL0     C14747   4.397   8.666   8.981 -0.7701  0.6415 -0.5178
  110MOL0     C14748   4.313   8.655   8.880  0.1676 -0.4261  0.1783
  110MOL0     C14749   4.176   8.638   8.907 -0.2325  0.0846 -0.5624
  110MOL0     C14750   4.123   8.628   9.042  0.4843 -0.0500  0.6694
  110MOL0     O14751   3.995   8.591   9.089 -0.3290 -0.5933 -0.8325
  110MOL0     C14752   3.907   8.514   9.002  0.1475  0.7425  0.0647
  110MOL0     C14753   3.792   8.459   9.086 -0.3659  0.2019 -0.2277
  110MOL0     C14754   3.681   8.560   9.124  0.0656  0.0589 -0.9419
  110MOL0     C14755   3.546   8.519   9.047  0.2594 -0.8127  0.3120
  110MOL0     C14756   3.437   8.612   9.094  1.4197 -0.1683  0.4132
  110MOL0     C14757   3.289   8.572   9.060  0.6971 -0.5617 -0.3195
  110MOL0     C14758   3.188   8.674   9.107  0.1006  0.6417 -0.4442
  110MOL0     C14759   3.159   8.661   9.253 -1.3089 -0.1827  0.3221
  110MOL0    Cl14760   3.066   8.788   9.304  0.0438  0.6926  0.4142
  110MOL0     C14761   4.215   8.654   9.140  0.1751  0.1915 -0.4068
  110MOL0     C14762   4.347   8.673   9.113 -0.6849 -0.7030  0.6065
  110MOL0     O14763   4.586   8.520   9.123 -0.1659  0.2881 -0.7141
  110MOL0     C14764   4.836   8.496   9.031 -0.1947 -1.1667 -0.6408
  110MOL0     C14765   4.962   8.476   8.984 -0.5325  0.2603  0.0506
  110MOL0     N14766   5.597   8.315   8.967  0.5142  0.7726 -1.1399
  110MOL0     N14767   5.729   8.311   8.978  0.1938 -0.2255  0.2241
  110MOL0     C14768   6.548   8.922   8.460 -0.4424 -0.7522 -0.4007
  110MOL0     C14769   6.677   8.972   8.409  0.2926  0.1078 -0.7960
  110MOL0     C14770   7.028   9.141   8.198 -1.0920 -1.3091 -0.0126
  110MOL0     C14771   7.017   9.277   8.163  0.3545  0.2180  0.6074
  110MOL0     C14772   7.124   9.355   8.127 -0.6787 -0.9220  0.0155
  110MOL0     C14773   7.254   9.305   8.139  0.5012 -0.3443 -0.0717
  110MOL0     O14774   7.347   9.389   8.100  0.6062 -0.4144  0.8719
  110MOL0     C14775   7.386   9.491   8.194  0.1240  0.9465  0.1466
  110MOL0     C14776   7.497   9.460   8.294 -0.4423  0.9790 -0.3821
  110MOL0     C14777   7.642   9.456   8.231  0.1327  0.9173 -0.2185
  110MOL0     C14778   7.681   9.328   8.165 -0.9245  0.1700 -0.5758
  110MOL0     C14779   7.826   9.328   8.120  0.4510 -0.0377 -0.1044
  110MOL0     C14780   7.934   9.311   8.068 -0.4527 -0.3440  0.0105
  110MOL0     C14781   7.273   9.171   8.181  0.1311 -0.7263  1.3079
  110MOL0     C14782   7.161   9.089   8.210 -1.5643 -0.0771  0.2726
  110MOL0     H14783   6.571   9.211   8.214 -1.4026 -0.0484 -0.8035
  110MOL0     H14784   6.337   9.106   8.285  0.2025 -0.7812 -1.6822
  110MOL0     H14785   6.284   8.752   8.359 -2.0878  1.6880 -0.5883
  110MOL0     H14786   6.378   8.725   8.507 -0.4469 -0.0523  1.8925
  110MOL0     H14787   6.166   8.819   8.630  1.3416  0.4380 -0.2028
  110MOL0     H14788   6.084   8.754   8.480  1.1943  3.1798 -1.2177
  110MOL0     H14789   6.268   8.590   8.639 -0.3987  2.7735  0.8611
  110MOL0     H14790   6.104   8.621   8.693 -0.0434  3.0927  0.2413
  110MOL0     H14791   5.992   8.518   8.526  0.0166 -0.9479  1.0355
  110MOL0     H14792   6.130   8.515   8.410  2.1226  2.0510  1.5998
  110MOL0     H14793   6.096   8.300   8.468 -1.2158 -0.8884  1.7035
  110MOL0     H14794   6.244   8.345   8.531  0.4995 -0.0171 -0.7782
  110MOL0     H14795   6.112   8.201   8.689  0.0854  0.1612  1.5226
  110MOL0     H14796   6.168   8.357   8.760 -1.6577  0.3753  1.2252
  110MOL0     H14797   5.956   8.453   8.767  0.7133 -0.6008  0.2429
  110MOL0     H14798   5.894   8.334   8.652 -0.4049 -0.8368  0.5617
  110MOL0     H14799   5.996   8.291   8.938  1.4549 -1.6642  0.9388
  110MOL0     H14800   5.963   8.143   8.832 -2.6841 -0.2437 -1.4583
  110MOL0     H14801   5.692   8.146   8.699  0.1774 -1.2459  0.5179
  110MOL0     H14802   5.446   8.110   8.754  0.4098  0.8681 -0.4572
  110MOL0     H14803   5.371   8.203   8.884 -1.3779  0.0911 -0.5530
  110MOL0     H14804   5.284   8.267   8.650 -0.1678  1.3086 -0.2753
  110MOL0     H14805   5.449   8.326   8.614  0.0908  0.2088 -0.4025
  110MOL0     H14806   5.326   8.519   8.679 -2.5058  0.1604 -0.0662
  110MOL0     H14807   5.430   8.469   8.822 -0.8572  1.7904  0.1756
  110MOL0     H14808   5.245   8.512   8.935 -1.4371  0.5692  0.3554
  110MOL0     H14809   5.203   8.343   8.906 -0.3530 -0.2166  0.3785
  110MOL0     H14810   4.933   8.619   8.685  0.3054  3.9778  1.4633
  110MOL0     H14811   4.592   8.650   8.712 -2.2556  4.9020 -1.4386
  110MOL0     H14812   4.677   8.793   8.778 -2.9647 -1.6829  2.2432
  110MOL0     H14813   4.736   8.712   8.634 -0.8773  1.8686 -1.0793
  110MOL0     H14814   4.348   8.660   8.778 -2.5803  2.4125 -0.8020
  110MOL0     H14815   4.108   8.642   8.823  1.0414  3.8233 -1.6465
  110MOL0     H14816   3.867   8.561   8.911 -0.6481 -0.1123 -0.0428
  110MOL0     H14817   3.967   8.425   8.979  0.5630  0.9509  0.3334
  110MOL0     H14818   3.744   8.384   9.023 -0.0143  0.6261 -1.0022
  110MOL0     H14819   3.835   8.408   9.173  0.7877 -1.0054 -1.4713
  110MOL0     H14820   3.702   8.666   9.110 -1.5329  1.1943  3.5241
  110MOL0     H14821   3.657   8.554   9.231  2.3507  1.3457 -0.3005
  110MOL0     H14822   3.565   8.524   8.939 -2.0099  0.9665 -0.0927
  110MOL0     H14823   3.523   8.416   9.075  1.7271 -1.3852 -0.4883
  110MOL0     H14824   3.453   8.708   9.044 -1.4887  0.8863  1.3015
  110MOL0     H14825   3.442   8.634   9.201  2.1120  0.6925  0.2163
  110MOL0     H14826   3.282   8.554   8.952 -0.5072  2.8507 -0.9353
  110MOL0     H14827   3.265   8.488   9.127 -3.1511  1.1656  0.7539
  110MOL0     H14828   3.092   8.677   9.054 -1.9323  1.4448  2.9840
  110MOL0     H14829   3.241   8.767   9.085  0.8042  0.3646  0.0447
  110MOL0     H14830   3.256   8.661   9.304 -0.3562  4.2458 -1.0114
  110MOL0     H14831   3.106   8.567   9.268 -2.5787  0.0422 -2.2026
  110MOL0     H14832   4.184   8.669   9.243  1.5015 -0.5705  0.1166
  110MOL0     H14833   4.417   8.691   9.193  0.3212 -1.8101  0.0039
  110MOL0     H14834   4.815   8.461   9.132 -1.3140  3.1129  0.8262
  110MOL0     H14835   5.030   8.414   9.042 -0.9080  0.8456  1.1389
  110MOL0     H14836   6.556   8.874   8.557  0.4807  1.7193  0.8286
  110MOL0     H14837   6.770   8.932   8.448 -0.7446  1.5719  3.7163
  110MOL0     H14838   6.919   9.323   8.176 -1.6927 -3.9005  1.2085
  110MOL0     H14839   7.119   9.457   8.089 -1.0986 -0.5242  1.1148
  110MOL0     H14840   7.404   9.582   8.137  2.9650  0.7012  0.5436
  110MOL0     H14841   7.297   9.502   8.257  0.0652 -2.5174  0.8665
  110MOL0     H14842   7.473   9.362   8.337 -1.6200  1.9852  1.3669
  110MOL0     H14843   7.485   9.540   8.367 -1.8915  2.9537 -2.6062
  110MOL0     H14844   7.720   9.485   8.302  0.1642 -0.0979  0.1726
  110MOL0     H14845   7.633   9.533   8.154 -2.2234  2.0031  1.0280
  110MOL0     H14846   7.619   9.315   8.076  1.2490 -0.9932 -2.0163
  110MOL0     H14847   7.667   9.247   8.237  2.5033 -1.1997 -1.2548
  110MOL0     H14848   8.032   9.307   8.024 -0.1816 -1.0366  0.6548
  110MOL0     H14849   7.376   9.138   8.185  0.3439 -0.3106 -0.3910
  110MOL0     H14850   7.173   8.988   8.249 -3.7113 -1.5910 -2.6281
  111MOL0     O14851   7.763   5.694   0.410 -0.0093 -0.7507  0.0638
  111MOL0     C14852   7.747   5.775   0.499  0.0146 -0.0561  0.2367
  111MOL0     O14853   7.633   5.844   0.517 -0.8150 -0.0965  0.3058
  111MOL0     C14854   7.527   5.832   0.437 -0.6258 -0.7679 -0.0323
  111MOL0     C14855   7.392   5.856   0.484  0.3315 -0.2075 -0.4351
  111MOL0     C14856   7.278   5.847   0.396  0.9087 -0.5785 -0.8306
  111MOL0     C14857   7.301   5.835   0.265  0.7801 -0.1447  0.4380
  111MOL0     O14858   7.191   5.819   0.190 -0.2412  0.1220 -0.0810
  111MOL0     C14859   7.209   5.714   0.099  0.1594 -0.5191  0.5865
  111MOL0     C14860   7.077   5.635   0.114  1.5521 -0.2481 -0.1807
  111MOL0     C14861   7.071   5.501   0.025 -0.0271 -0.4768 -0.1137
  111MOL0     C14862   7.015   5.525  -0.116  0.6428 -0.1566 -0.2219
  111MOL0     C14863   7.002   5.394  -0.190 -0.3474 -0.1232  0.3000
  111MOL0     C14864   6.973   5.417  -0.336  0.0181 -0.7953 -0.2559
  111MOL0     C14865   6.991   5.268  -0.390  0.2237  0.1831 -0.8970
  111MOL0     C14866   6.968   5.251  -0.543 -0.0564 -0.3837 -0.0046
  111MOL0     N14867   6.824   5.275  -0.573  0.3224  0.4820 -0.6351
  111MOL0     C14868   6.725   5.185  -0.532  0.4794  0.6587 -0.1373
  111MOL0     C14869   6.613   5.230  -0.601 -0.1541  0.5709  0.4006
  111MOL0     C14870   6.474   5.185  -0.593 -0.2762 -0.6744 -0.0125
  111MOL0     C14871   6.406   5.179  -0.461 -0.4378 -0.4870  0.3690
  111MOL0     C14872   6.289   5.091  -0.476 -0.6035 -0.0813 -0.6494
  111MOL0     C14873   6.182   5.157  -0.570  0.1161 -0.3188 -0.0303
  111MOL0     O14874   6.195   5.106  -0.706 -0.0430  0.1499  0.8871
  111MOL0     C14875   6.146   4.976  -0.730 -0.5696 -0.6283  0.3773
  111MOL0     C14876   6.090   4.897  -0.637  0.9206 -0.0999 -0.6033
  111MOL0     C14877   6.068   4.764  -0.646  0.2641  0.1088  0.3552
  111MOL0     C14878   6.029   4.691  -0.522  0.0242  0.1415  0.6024
  111MOL0     C14879   6.069   4.711  -0.780 -1.0583  0.3862  0.3025
  111MOL0     C14880   6.040   4.569  -0.814  0.2364 -0.8748  0.5062
  111MOL0     O14881   6.034   4.549  -0.945  0.6191  0.3934 -0.3018
  111MOL0     C14882   5.978   4.439  -1.003 -0.6137  0.7429  0.1945
  111MOL0     C14883   5.890   4.344  -0.940 -0.5758 -0.2066  0.8353
  111MOL0     C14884   5.841   4.243  -1.012  0.7736 -0.1242 -0.1226
  111MOL0     C14885   5.864   4.220  -1.141 -0.7359 -0.1385 -0.0222
  111MOL0     O14886   5.785   4.118  -1.194 -0.0180  0.5345  0.7764
  111MOL0     C14887   5.816   4.099  -1.331 -0.0623  0.2309  0.2054
  111MOL0     C14888   5.743   3.984  -1.389 -0.5842 -0.4880 -0.2785
  111MOL0     C14889   5.615   4.030  -1.452 -0.1348 -1.1767 -0.3006
  111MOL0     C14890   5.547   3.917  -1.520 -0.5439  0.1918 -0.2465
  111MOL0     C14891   5.411   3.949  -1.551 -0.6432 -0.1665 -0.0100
  111MOL0     C14892   5.347   3.858  -1.656 -0.3537 -0.4446  0.5566
  111MOL0     C14893   5.340   3.703  -1.625 -0.2000 -0.3167 -0.0132
  111MOL0     C14894   5.282   3.624  -1.745 -0.4087  0.3077  0.3659
  111MOL0    Cl14895   5.371   3.632  -1.894  0.1645  0.4763  0.5610
  111MOL0     C14896   5.941   4.318  -1.208 -0.0135  0.1284  0.6117
  111MOL0     C14897   6.014   4.412  -1.141 -0.1701 -0.4639  0.5227
  111MOL0     O14898   6.024   4.486  -0.721  0.7686 -0.1354  0.8653
  111MOL0     C14899   6.141   4.787  -0.882 -0.0709 -0.0126  0.1401
  111MOL0     C14900   6.169   4.921  -0.857  0.2051 -0.3952  0.2590
  111MOL0     N14901   6.651   5.341  -0.672 -0.2756 -0.4539  0.2669
  111MOL0     N14902   6.772   5.372  -0.654 -0.3406 -0.6585 -0.4639
  111MOL0     C14903   7.440   5.826   0.217 -0.1560 -0.0630 -0.5466
  111MOL0     C14904   7.545   5.839   0.301 -0.6402  0.8724 -0.4696
  111MOL0     C14905   7.854   5.791   0.591 -0.2680  0.1233 -0.5300
  111MOL0     C14906   7.985   5.735   0.580  0.8266  0.2155 -0.0086
  111MOL0     C14907   8.081   5.757   0.668  0.3329 -0.7336  0.8167
  111MOL0     C14908   8.061   5.835   0.781  0.4283  0.2733 -0.5341
  111MOL0     O14909   8.174   5.855   0.863 -0.4593  0.2067  0.0523
  111MOL0     C14910   8.145   5.919   0.986  0.4018 -1.0678 -0.7278
  111MOL0     C14911   8.276   5.922   1.070  0.1024 -0.4649 -0.4771
  111MOL0     C14912   8.286   5.786   1.145 -0.0290 -0.3943 -0.4538
  111MOL0     C14913   8.425   5.775   1.203 -0.9213  0.1203  0.3324
  111MOL0     C14914   8.447   5.625   1.226  0.1485 -0.6487  0.2165
  111MOL0     C14915   8.466   5.508   1.245 -0.2080  0.3883 -0.2828
  111MOL0     C14916   7.934   5.887   0.802 -0.2530 -0.5341 -0.0532
  111MOL0     C14917   7.825   5.866   0.705 -0.5923  0.0669  0.4649
  111MOL0     H14918   7.365   5.876   0.587 -0.7113 -1.9081 -0.3493
  111MOL0     H14919   7.180   5.870   0.435  0.5549  1.2623 -2.6527
  111MOL0     H14920   7.218   5.753  -0.002  0.2610 -0.7330  0.5116
  111MOL0     H14921   7.298   5.651   0.113  1.6248  1.1376 -0.8071
  111MOL0     H14922   7.060   5.610   0.219 -3.0638 -0.4743 -0.7931
  111MOL0     H14923   6.994   5.702   0.091  1.7068  0.6571  1.7383
  111MOL0     H14924   7.179   5.481   0.023  0.9038  3.6635 -0.3829
  111MOL0     H14925   7.003   5.438   0.083 -1.3435 -1.9624 -3.0487
  111MOL0     H14926   6.920   5.580  -0.112  0.1676 -1.0363  1.3836
  111MOL0     H14927   7.084   5.593  -0.166  0.6114  0.5134  0.6147
  111MOL0     H14928   7.102   5.352  -0.175 -0.2927 -0.0957  0.0152
  111MOL0     H14929   6.932   5.323  -0.144  1.8604 -2.7239 -0.1279
  111MOL0     H14930   6.865   5.431  -0.344 -0.2345 -3.0242 -1.5735
  111MOL0     H14931   7.036   5.488  -0.391 -2.7461  1.0183 -1.2760
  111MOL0     H14932   7.089   5.233  -0.356 -0.2997 -0.4709 -0.0150
  111MOL0     H14933   6.919   5.198  -0.347  1.5576 -0.4169  0.4352
  111MOL0     H14934   6.997   5.153  -0.583 -2.1564 -0.8167 -0.5799
  111MOL0     H14935   7.028   5.326  -0.596  0.5687 -0.2560  0.8721
  111MOL0     H14936   6.734   5.094  -0.473  1.8491  0.1697 -1.0325
  111MOL0     H14937   6.417   5.263  -0.645 -3.3951 -2.9709 -0.2786
  111MOL0     H14938   6.456   5.092  -0.648 -1.2061 -1.1289  1.0276
  111MOL0     H14939   6.367   5.279  -0.435 -1.9747 -0.6653 -1.0485
  111MOL0     H14940   6.483   5.150  -0.389  3.3296  2.0609 -2.2348
  111MOL0     H14941   6.245   5.070  -0.377  1.9758  0.9480  0.8129
  111MOL0     H14942   6.305   4.994  -0.524 -0.8449 -0.1914 -0.5094
  111MOL0     H14943   6.196   5.265  -0.579  2.1957 -0.7183 -2.9523
  111MOL0     H14944   6.087   5.144  -0.518 -0.0132 -0.7900 -0.3702
  111MOL0     H14945   6.062   4.941  -0.542  2.1164  1.5534 -0.9773
  111MOL0     H14946   5.939   4.631  -0.538 -0.2575  0.5992  0.4802
  111MOL0     H14947   6.115   4.630  -0.490 -0.4839 -0.5971  0.5860
  111MOL0     H14948   6.012   4.760  -0.440  0.1651  2.2783 -1.0810
  111MOL0     H14949   5.882   4.344  -0.831 -0.8202  3.2721  0.9328
  111MOL0     H14950   5.777   4.172  -0.959  1.7416  0.6517  2.2214
  111MOL0     H14951   5.803   4.188  -1.393 -0.5535 -0.4719 -0.7242
  111MOL0     H14952   5.923   4.078  -1.328  0.3090  1.9098  3.1060
  111MOL0     H14953   5.798   3.937  -1.472 -0.6582  1.2151 -1.3355
  111MOL0     H14954   5.722   3.905  -1.316  0.9084 -0.7985 -0.1553
  111MOL0     H14955   5.638   4.105  -1.528  0.3237 -0.9307  0.0735
  111MOL0     H14956   5.563   4.072  -1.365 -1.7482 -1.3203 -1.1724
  111MOL0     H14957   5.601   3.890  -1.611  2.1353 -1.7712  1.7667
  111MOL0     H14958   5.547   3.825  -1.461 -1.8795  0.1371 -0.2893
  111MOL0     H14959   5.399   4.051  -1.588 -0.6765  1.0927  3.1558
  111MOL0     H14960   5.353   3.935  -1.459  0.0715  0.3047  0.5196
  111MOL0     H14961   5.249   3.904  -1.671  0.4188  1.2095  0.3282
  111MOL0     H14962   5.407   3.862  -1.746 -0.6951  0.0442  0.3490
  111MOL0     H14963   5.285   3.682  -1.532 -0.9220 -1.1246 -0.6128
  111MOL0     H14964   5.438   3.660  -1.604 -0.1375  0.0965  0.5979
  111MOL0     H14965   5.176   3.647  -1.753 -0.7971 -1.4597  0.0521
  111MOL0     H14966   5.288   3.518  -1.719 -0.0162  0.7399  2.2065
  111MOL0     H14967   5.949   4.335  -1.315 -2.6141  1.4897  0.5545
  111MOL0     H14968   6.080   4.484  -1.189 -1.4089  0.3710  0.0207
  111MOL0     H14969   6.168   4.745  -0.979  2.8476 -1.2702  1.4082
  111MOL0     H14970   6.219   4.973  -0.938 -1.0427 -0.5104 -0.6021
  111MOL0     H14971   7.455   5.824   0.110  2.7159 -1.2802 -0.2324
  111MOL0     H14972   7.643   5.858   0.259 -0.4911  4.3181  1.1106
  111MOL0     H14973   8.021   5.686   0.490  1.6948  0.5597  0.1467
  111MOL0     H14974   8.174   5.706   0.645  0.7696  0.2301  0.4244
  111MOL0     H14975   8.122   6.024   0.962  0.8043 -1.1496 -1.4887
  111MOL0     H14976   8.069   5.869   1.046  3.2878 -2.7831  1.7800
  111MOL0     H14977   8.284   6.013   1.130 -1.8011  1.1828 -2.5605
  111MOL0     H14978   8.352   5.917   0.991 -1.3231 -2.6579 -1.8172
  111MOL0     H14979   8.278   5.695   1.084  2.2227 -4.2679  4.2656
  111MOL0     H14980   8.203   5.781   1.217 -1.4237 -0.7736 -2.0112
  111MOL0     H14981   8.448   5.828   1.296  2.1367  1.2405 -0.9103
  111MOL0     H14982   8.501   5.808   1.131  0.9209 -1.3363  1.4844
  111MOL0     H14983   8.474   5.406   1.278 -2.2146  0.9035  2.0673
  111MOL0     H14984   7.900   5.944   0.888  0.9344  0.1445 -0.0132
  111MOL0     H14985   7.727   5.903   0.733 -1.6739 -1.5227 -0.9858
  112MOL0     O14986   1.421   4.553   5.526 -0.1415 -0.1808 -0.1374
  112MOL0     C14987   1.348   4.627   5.458  0.3007  0.0735 -0.8440
  112MOL0     O14988   1.379   4.680   5.341 -0.5714 -0.2975  0.5960
  112MOL0     C14989   1.480   4.611   5.270 -0.1490 -0.8675  0.4677
  112MOL0     C14990   1.458   4.501   5.190  0.0384 -0.1373  1.0793
  112MOL0     C14991   1.551   4.444   5.103 -0.5954 -0.4681  0.8889
  112MOL0     C14992   1.665   4.516   5.084  0.1241 -0.0720 -0.7949
  112MOL0     O14993   1.752   4.474   4.984  0.6980 -0.5298  0.3964
  112MOL0     C14994   1.702   4.530   4.855  0.0938 -1.2957 -0.9107
  112MOL0     C14995   1.760   4.457   4.733 -0.4490 -0.3444  0.1910
  112MOL0     C14996   1.912   4.494   4.711 -0.1558 -0.8641  0.8605
  112MOL0     C14997   2.005   4.378   4.677  0.7421 -0.2249  0.1488
  112MOL0     C14998   2.144   4.432   4.645  0.5332 -0.0663 -0.0462
  112MOL0     C14999   2.158   4.514   4.519  0.6129 -0.3676  0.6696
  112MOL0     C15000   2.302   4.552   4.512 -0.0341  0.5958  0.1168
  112MOL0     C15001   2.335   4.681   4.439 -0.2888 -0.1749  0.0343
  112MOL0     N15002   2.478   4.696   4.426  0.1684 -0.2118 -1.2417
  112MOL0     C15003   2.561   4.781   4.500 -0.1682  0.3929 -0.0119
  112MOL0     C15004   2.675   4.782   4.432 -1.0185 -0.8374 -0.0260
  112MOL0     C15005   2.797   4.853   4.477  0.6753 -0.4776 -0.0303
  112MOL0     C15006   2.813   4.979   4.378  0.9122  0.3141 -1.0612
  112MOL0     C15007   2.723   5.095   4.429 -0.3914 -1.0928 -0.6837
  112MOL0     C15008   2.753   5.213   4.334  0.7142 -0.0941 -0.1793
  112MOL0     O15009   2.720   5.162   4.207  0.6233  0.6450  0.5169
  112MOL0     C15010   2.584   5.188   4.171 -0.6184  0.6316 -0.7252
  112MOL0     C15011   2.545   5.320   4.143  0.7276  0.5907 -0.1596
  112MOL0     C15012   2.407   5.359   4.110  0.6034  0.7957  0.0337
  112MOL0     C15013   2.388   5.499   4.065  0.3626  0.5500 -0.2397
  112MOL0     C15014   2.314   5.257   4.092  0.2592 -1.7433 -0.3187
  112MOL0     C15015   2.166   5.294   4.063 -0.3195 -0.1524  0.4490
  112MOL0     O15016   2.089   5.193   4.010  0.5633 -0.4857 -0.6016
  112MOL0     C15017   1.957   5.219   3.988  1.1329 -0.3632 -1.0334
  112MOL0     C15018   1.902   5.210   3.859 -0.0622  0.0529  0.0074
  112MOL0     C15019   1.765   5.232   3.837  0.1612 -0.1790  0.7486
  112MOL0     C15020   1.681   5.241   3.942 -0.4881 -1.1500 -0.8478
  112MOL0     O15021   1.545   5.266   3.926  0.1996  0.4694 -0.2107
  112MOL0     C15022   1.504   5.396   3.888  0.1581 -0.2237 -0.7887
  112MOL0     C15023   1.350   5.405   3.897  0.2483 -0.2709  0.2810
  112MOL0     C15024   1.306   5.553   3.887  0.3349  0.1945  0.2984
  112MOL0     C15025   1.160   5.563   3.827  0.0176  0.6212  0.3073
  112MOL0     C15026   1.177   5.540   3.669  1.0210 -0.3790 -0.7395
  112MOL0     C15027   1.049   5.549   3.599 -0.3130 -0.2488  0.2292
  112MOL0     C15028   0.947   5.442   3.613 -0.8077  0.3471  0.2361
  112MOL0     C15029   1.015   5.295   3.592 -0.3372 -0.6794 -0.1826
  112MOL0    Cl15030   1.103   5.284   3.428  0.2253  0.0856 -0.1764
  112MOL0     C15031   1.730   5.256   4.068 -0.7522 -0.2874  0.1005
  112MOL0     C15032   1.869   5.247   4.090 -0.1211 -0.1958  0.5298
  112MOL0     O15033   2.128   5.403   4.096 -0.9874 -0.3430  0.1530
  112MOL0     C15034   2.356   5.128   4.117 -0.5378 -0.0269 -0.5346
  112MOL0     C15035   2.496   5.089   4.134 -0.1706 -0.2855  0.6334
  112MOL0     N15036   2.662   4.720   4.313 -0.2918  0.4038 -0.5709
  112MOL0     N15037   2.543   4.668   4.304  0.3392 -0.3401  0.3853
  112MOL0     C15038   1.683   4.635   5.151 -0.4698 -0.5307  0.6644
  112MOL0     C15039   1.599   4.677   5.250  0.1865 -0.8838 -0.5830
  112MOL0     C15040   1.233   4.681   5.532  0.2958  0.6317  0.2561
  112MOL0     C15041   1.185   4.623   5.653 -0.2913 -0.2036  0.4311
  112MOL0     C15042   1.085   4.684   5.725  0.2533 -0.1606  1.0258
  112MOL0     C15043   1.028   4.803   5.686  0.9608 -0.4879 -0.1275
  112MOL0     O15044   0.922   4.853   5.771 -0.3730  0.6049  0.6430
  112MOL0     C15045   0.846   4.961   5.726  0.0968 -0.2546 -0.5734
  112MOL0     C15046   0.911   5.094   5.779  1.0181  0.1497  0.4652
  112MOL0     C15047   0.844   5.222   5.712 -0.4781  0.7489  0.2028
  112MOL0     C15048   0.923   5.347   5.753  0.5193 -0.0705  0.6831
  112MOL0     C15049   0.869   5.472   5.693  0.0157 -0.0904  0.2376
  112MOL0     C15050   0.825   5.576   5.644  0.7498  0.6128  0.4141
  112MOL0     C15051   1.074   4.863   5.570 -0.2786  0.6281 -0.0977
  112MOL0     C15052   1.173   4.799   5.494 -0.0825  0.0113 -0.2701
  112MOL0     H15053   1.364   4.448   5.197  0.1505 -0.4465  0.3194
  112MOL0     H15054   1.530   4.351   5.050  1.3033  0.3063 -1.4042
  112MOL0     H15055   1.594   4.520   4.862 -0.0778  0.7639  0.5110
  112MOL0     H15056   1.731   4.636   4.852  5.0067 -2.3340  0.8337
  112MOL0     H15057   1.746   4.351   4.753 -1.2945 -0.1294  0.7722
  112MOL0     H15058   1.716   4.486   4.637  4.2289  1.1770 -1.8068
  112MOL0     H15059   1.916   4.568   4.631 -1.1212 -1.9936 -0.2582
  112MOL0     H15060   1.949   4.530   4.808  2.8482  0.3390 -0.6237
  112MOL0     H15061   2.001   4.311   4.764  1.2377  0.4597  0.7109
  112MOL0     H15062   1.970   4.321   4.591 -1.0192  1.7771 -0.5429
  112MOL0     H15063   2.171   4.486   4.737 -0.6334  0.3737  0.0473
  112MOL0     H15064   2.217   4.352   4.632 -1.6974 -1.9679 -1.4939
  112MOL0     H15065   2.128   4.447   4.438 -0.4157 -1.5333  1.9711
  112MOL0     H15066   2.094   4.603   4.516  1.7807  0.5773  2.0686
  112MOL0     H15067   2.339   4.574   4.612  2.0167  3.5983 -1.1274
  112MOL0     H15068   2.359   4.470   4.467 -1.1229  1.2857 -2.7483
  112MOL0     H15069   2.287   4.761   4.497 -3.7600 -2.6089  0.8437
  112MOL0     H15070   2.298   4.680   4.336 -0.8040  2.2228  0.1393
  112MOL0     H15071   2.540   4.832   4.594 -0.5944  1.0110 -0.4396
  112MOL0     H15072   2.779   4.887   4.579 -1.5207  0.1937 -0.6023
  112MOL0     H15073   2.884   4.786   4.476  1.2415  0.0496 -3.9804
  112MOL0     H15074   2.781   4.944   4.279  1.6312  0.6432 -1.4131
  112MOL0     H15075   2.921   4.996   4.383  1.5197 -2.9399  3.9786
  112MOL0     H15076   2.752   5.118   4.532 -1.1033  0.9134 -0.8777
  112MOL0     H15077   2.615   5.079   4.427 -0.7566  0.9628 -0.0759
  112MOL0     H15078   2.860   5.237   4.335  0.5495  1.3844  4.4816
  112MOL0     H15079   2.693   5.300   4.362 -0.0205 -1.7179  3.9379
  112MOL0     H15080   2.627   5.391   4.136  0.7356  0.4893 -1.4072
  112MOL0     H15081   2.355   5.556   4.152  2.3532  0.3950  0.6623
  112MOL0     H15082   2.474   5.550   4.020  0.6045 -0.3014 -0.7669
  112MOL0     H15083   2.308   5.510   3.991 -1.8458 -0.3767  1.8624
  112MOL0     H15084   1.975   5.192   3.781  0.5439  3.7477 -0.4688
  112MOL0     H15085   1.719   5.245   3.740 -1.1571  2.2911  1.6232
  112MOL0     H15086   1.556   5.461   3.959 -1.8837 -1.2062  1.7776
  112MOL0     H15087   1.546   5.420   3.790  0.0411  0.8038 -0.6007
  112MOL0     H15088   1.311   5.352   3.809  2.4304 -0.7792 -0.4461
  112MOL0     H15089   1.323   5.359   3.992 -0.7321 -1.0383 -0.3480
  112MOL0     H15090   1.372   5.607   3.819  0.9439 -2.0404 -0.9658
  112MOL0     H15091   1.322   5.599   3.985 -1.8477  0.4673  0.5643
  112MOL0     H15092   1.093   5.487   3.870 -0.4636 -0.4679 -2.1970
  112MOL0     H15093   1.120   5.664   3.839  0.3824  1.2306 -2.9305
  112MOL0     H15094   1.213   5.442   3.639 -3.1553 -1.5614 -2.5513
  112MOL0     H15095   1.248   5.617   3.637  0.2263  0.3065 -0.8832
  112MOL0     H15096   1.008   5.648   3.621 -0.5246 -0.2368 -0.2025
  112MOL0     H15097   1.069   5.540   3.491  0.5510 -1.6829  0.4795
  112MOL0     H15098   0.866   5.462   3.542  0.9414 -1.7233 -2.5975
  112MOL0     H15099   0.903   5.438   3.712  1.0361  2.5785  1.2303
  112MOL0     H15100   0.936   5.220   3.598  1.8689 -3.0278  2.0634
  112MOL0     H15101   1.089   5.285   3.672 -0.6444 -0.6070  0.1146
  112MOL0     H15102   1.666   5.272   4.154 -0.6584  1.3624 -0.1040
  112MOL0     H15103   1.920   5.273   4.182  0.9661 -1.8046  0.4149
  112MOL0     H15104   2.282   5.050   4.099 -2.0456  1.3653 -0.5796
  112MOL0     H15105   2.530   4.986   4.149  1.0289  0.1169  0.7827
  112MOL0     H15106   1.767   4.699   5.124 -2.0110  1.0976 -0.5232
  112MOL0     H15107   1.622   4.766   5.309  2.3951 -0.7795 -1.5063
  112MOL0     H15108   1.232   4.532   5.688  5.1175  1.4810 -1.4191
  112MOL0     H15109   1.062   4.652   5.826  2.1721  1.6876  2.1072
  112MOL0     H15110   0.837   4.964   5.617 -0.8275 -2.4148 -0.5932
  112MOL0     H15111   0.745   4.951   5.766 -0.4490 -0.2127 -1.8807
  112MOL0     H15112   1.017   5.110   5.758  0.9670  2.5411  1.8029
  112MOL0     H15113   0.910   5.090   5.888 -1.7242  1.9301  0.5982
  112MOL0     H15114   0.739   5.219   5.742 -0.7362 -1.7524 -0.7361
  112MOL0     H15115   0.839   5.214   5.603  1.8872 -1.0976  0.1284
  112MOL0     H15116   1.027   5.338   5.722 -0.5434 -0.4254 -3.4022
  112MOL0     H15117   0.923   5.361   5.861 -0.7138  0.7507  0.6035
  112MOL0     H15118   0.785   5.664   5.598 -1.0319 -1.9673 -3.4800
  112MOL0     H15119   1.043   4.960   5.533 -4.0021 -0.0288  0.9092
  112MOL0     H15120   1.188   4.826   5.390  4.3492  0.2359  0.2212
  113MOL0     O15121   4.299   2.573   4.547  0.8972 -0.8283 -0.4420
  113MOL0     C15122   4.261   2.625   4.649  0.0017  0.5797 -0.0252
  113MOL0     O15123   4.188   2.558   4.743 -0.0498  0.0533  0.4559
  113MOL0     C15124   4.181   2.419   4.734  0.0053 -1.0693  0.2550
  113MOL0     C15125   4.270   2.333   4.801  0.9595  0.3469 -0.2281
  113MOL0     C15126   4.234   2.202   4.818 -0.2928 -0.0462 -0.0250
  113MOL0     C15127   4.124   2.139   4.762  0.4598 -0.2930  0.3609
  113MOL0     O15128   4.116   2.003   4.772  0.6936  0.8479  0.6700
  113MOL0     C15129   4.023   1.925   4.705 -0.3396  0.4329 -0.7406
  113MOL0     C15130   4.088   1.787   4.705 -0.4329  0.5216 -0.1579
  113MOL0     C15131   4.003   1.701   4.620  0.2985  0.9586  0.3940
  113MOL0     C15132   4.066   1.572   4.569 -0.4407 -0.2106 -0.5250
  113MOL0     C15133   4.174   1.580   4.458 -0.0890 -0.0577 -0.7127
  113MOL0     C15134   4.214   1.432   4.394  0.1396  0.0308  1.4733
  113MOL0     C15135   4.348   1.453   4.317  0.0790  0.2499 -1.1467
  113MOL0     C15136   4.370   1.311   4.255 -0.1807  0.0492  0.6792
  113MOL0     N15137   4.279   1.279   4.150 -0.4972  0.1055  0.7836
  113MOL0     C15138   4.257   1.355   4.034 -0.8378 -1.2412  0.0939
  113MOL0     C15139   4.158   1.284   3.975 -0.8076  0.1986 -0.0777
  113MOL0     C15140   4.075   1.319   3.863 -0.1150 -0.4524  0.5333
  113MOL0     C15141   3.930   1.259   3.851  0.2060  0.2831 -0.1785
  113MOL0     C15142   3.842   1.262   3.975  0.2130 -0.3986  0.3829
  113MOL0     C15143   3.710   1.194   3.946  0.6105  0.5072 -0.3896
  113MOL0     O15144   3.636   1.260   3.836 -0.5580 -0.0416 -1.2555
  113MOL0     C15145   3.514   1.215   3.816  0.5417 -0.0331 -0.1165
  113MOL0     C15146   3.491   1.120   3.715  0.5685 -0.3502 -0.8483
  113MOL0     C15147   3.359   1.090   3.674 -0.4002  0.6185 -0.3855
  113MOL0     C15148   3.348   1.018   3.545  0.4501 -0.0243 -0.5125
  113MOL0     C15149   3.248   1.144   3.749  0.1750 -0.8534  0.2954
  113MOL0     C15150   3.102   1.119   3.723  0.4383 -0.5153  0.0464
  113MOL0     O15151   3.015   1.204   3.783  0.2747 -0.4842 -0.0105
  113MOL0     C15152   2.879   1.168   3.780  0.3026 -0.7673 -0.3802
  113MOL0     C15153   2.812   1.161   3.908  0.0477 -0.1002 -0.2117
  113MOL0     C15154   2.681   1.117   3.924  0.7925  0.4318 -0.4250
  113MOL0     C15155   2.607   1.107   3.802  0.1059  0.4551 -1.0760
  113MOL0     O15156   2.478   1.063   3.807  0.0867 -0.2114  0.2077
  113MOL0     C15157   2.384   1.140   3.879  0.6562 -0.3294  0.8462
  113MOL0     C15158   2.253   1.071   3.847  0.1644  0.8593 -0.1238
  113MOL0     C15159   2.137   1.151   3.905 -1.6670  0.1187 -0.2833
  113MOL0     C15160   2.001   1.096   3.870 -0.0659 -0.0596 -0.3703
  113MOL0     C15161   1.891   1.134   3.967  0.7639  0.1955  0.1968
  113MOL0     C15162   1.762   1.059   3.943  0.6275  0.6706  0.2220
  113MOL0     C15163   1.696   1.118   3.816  0.7445 -0.1613 -0.1819
  113MOL0     C15164   1.540   1.095   3.826 -0.3644 -0.6578  0.5458
  113MOL0    Cl15165   1.493   0.925   3.825  0.3077  0.4462  0.1364
  113MOL0     C15166   2.668   1.108   3.679  0.2559 -1.1773  0.3189
  113MOL0     C15167   2.804   1.141   3.670 -1.0938 -0.2139  0.5958
  113MOL0     O15168   3.074   1.015   3.664 -0.0277 -0.7947  0.0935
  113MOL0     C15169   3.275   1.217   3.861 -0.1392 -0.3677  0.6087
  113MOL0     C15170   3.407   1.257   3.894  0.4760  0.5847  0.2246
  113MOL0     N15171   4.134   1.161   4.041 -0.0504  0.5788 -0.3491
  113MOL0     N15172   4.206   1.166   4.150 -0.4513 -0.4291  0.1044
  113MOL0     C15173   4.038   2.223   4.691  0.0598  0.4835  0.2755
  113MOL0     C15174   4.063   2.361   4.677 -0.0935 -0.2882 -0.5673
  113MOL0     C15175   4.314   2.764   4.681 -0.2417 -0.9734 -0.2437
  113MOL0     C15176   4.293   2.829   4.810 -0.0766 -0.2749  0.0685
  113MOL0     C15177   4.345   2.957   4.839 -0.3818  0.7368 -1.0673
  113MOL0     C15178   4.400   3.040   4.737  1.0573 -0.6547 -0.2353
  113MOL0     O15179   4.461   3.163   4.746  0.4260 -0.1296 -0.7158
  113MOL0     C15180   4.396   3.243   4.853 -0.5184  0.4482  0.0279
  113MOL0     C15181   4.365   3.386   4.792 -0.7976 -1.6088 -0.4855
  113MOL0     C15182   4.253   3.380   4.693 -0.1520  0.3034 -0.3747
  113MOL0     C15183   4.195   3.516   4.660 -0.9604  1.1887 -0.2405
  113MOL0     C15184   4.175   3.616   4.760  0.6407 -0.8314 -0.2078
  113MOL0     C15185   4.152   3.709   4.835 -0.2318  0.1912  0.3031
  113MOL0     C15186   4.413   2.980   4.610  0.0349 -0.2988  0.2676
  113MOL0     C15187   4.381   2.847   4.582  0.4406 -0.3613  0.2360
  113MOL0     H15188   4.353   2.383   4.850 -0.9574  2.2585  1.3168
  113MOL0     H15189   4.314   2.150   4.870 -1.5310 -0.3275  1.7085
  113MOL0     H15190   3.932   1.912   4.765 -0.8365 -1.6548 -1.8508
  113MOL0     H15191   4.000   1.960   4.604  0.8197 -0.7148 -1.4232
  113MOL0     H15192   4.192   1.793   4.670 -0.2724 -0.2270  0.1613
  113MOL0     H15193   4.089   1.750   4.808  1.4464 -0.7252 -0.5783
  113MOL0     H15194   3.913   1.664   4.670  1.3138 -3.5796 -0.6266
  113MOL0     H15195   3.984   1.749   4.523  0.0345 -0.4943 -0.3122
  113MOL0     H15196   4.101   1.498   4.641 -1.8968 -1.8853 -1.4654
  113MOL0     H15197   3.984   1.516   4.524 -0.9795  1.0313 -1.1309
  113MOL0     H15198   4.128   1.644   4.383 -2.6942  1.0004  1.6284
  113MOL0     H15199   4.256   1.644   4.493 -0.0639 -0.8538  0.7879
  113MOL0     H15200   4.242   1.365   4.476 -0.9441  0.9289  2.6262
  113MOL0     H15201   4.136   1.388   4.331 -1.3716  0.5317  2.9036
  113MOL0     H15202   4.353   1.541   4.253  0.1774 -1.0044 -2.9271
  113MOL0     H15203   4.429   1.466   4.390  2.4906 -3.3442 -2.8514
  113MOL0     H15204   4.364   1.221   4.318  1.0824 -2.1914 -2.1437
  113MOL0     H15205   4.471   1.307   4.213  0.4945 -2.5275  2.2995
  113MOL0     H15206   4.307   1.449   4.015 -0.6134 -0.9620  1.8673
  113MOL0     H15207   4.058   1.426   3.881 -0.7076 -0.4728  0.1254
  113MOL0     H15208   4.134   1.297   3.774  2.8381  0.0787  2.2197
  113MOL0     H15209   3.935   1.155   3.819 -1.2785 -0.4290  1.7190
  113MOL0     H15210   3.871   1.307   3.772 -0.5615 -2.1381 -1.1666
  113MOL0     H15211   3.833   1.366   4.009  2.2961 -0.0469  0.0268
  113MOL0     H15212   3.885   1.210   4.062  1.4728 -0.1412 -0.0679
  113MOL0     H15213   3.654   1.196   4.040 -0.0510 -1.0560 -0.7199
  113MOL0     H15214   3.730   1.092   3.912 -1.9304 -0.1162 -0.2462
  113MOL0     H15215   3.581   1.089   3.663  2.4268  1.5875  1.0395
  113MOL0     H15216   3.247   1.025   3.503 -0.9207  0.9106  2.5932
  113MOL0     H15217   3.427   1.048   3.476  0.3987 -0.7483 -0.8959
  113MOL0     H15218   3.354   0.911   3.568  0.0384  0.0447 -0.0554
  113MOL0     H15219   2.865   1.171   4.002  0.6011 -1.9483 -0.2843
  113MOL0     H15220   2.632   1.104   4.019  1.1233  0.3061 -0.2695
  113MOL0     H15221   2.409   1.124   3.984  1.3715 -0.6815  0.6290
  113MOL0     H15222   2.383   1.244   3.843  2.1094 -0.5359  0.1017
  113MOL0     H15223   2.238   1.059   3.739  2.0714 -0.2271 -0.3068
  113MOL0     H15224   2.261   0.966   3.878 -1.6163  0.6856 -0.1361
  113MOL0     H15225   2.154   1.255   3.878  1.6021  0.1183  1.1946
  113MOL0     H15226   2.146   1.141   4.014 -0.2815  1.5534 -0.2265
  113MOL0     H15227   1.989   1.116   3.763  2.0184 -0.4876 -0.7211
  113MOL0     H15228   2.018   0.988   3.883  0.6482  0.2992  2.3586
  113MOL0     H15229   1.877   1.243   3.966 -0.7864  0.0289  0.2057
  113MOL0     H15230   1.932   1.107   4.065 -4.8696 -0.8421  2.6544
  113MOL0     H15231   1.778   0.951   3.929  1.5757  0.8863 -0.4407
  113MOL0     H15232   1.692   1.063   4.027  0.7628 -0.7856  0.4409
  113MOL0     H15233   1.723   1.064   3.724  1.0234 -1.1551  0.4643
  113MOL0     H15234   1.704   1.227   3.808 -0.5144 -0.0875 -0.6665
  113MOL0     H15235   1.489   1.139   3.740 -1.2203  0.2290  1.4667
  113MOL0     H15236   1.494   1.157   3.905  1.4992  1.2262  0.2411
  113MOL0     H15237   2.614   1.086   3.587 -1.6553  0.3859  0.9942
  113MOL0     H15238   2.850   1.138   3.571  2.8384  0.6568  2.1898
  113MOL0     H15239   3.192   1.251   3.921 -0.0796 -1.1275  1.1366
  113MOL0     H15240   3.419   1.327   3.976  2.1321 -0.9701  1.3871
  113MOL0     H15241   3.943   2.181   4.658 -1.1028  1.1636  2.6023
  113MOL0     H15242   3.990   2.427   4.632 -0.0263  2.9117  3.4115
  113MOL0     H15243   4.239   2.773   4.886  0.5981 -3.0938 -1.3904
  113MOL0     H15244   4.345   2.993   4.942 -1.2594 -2.5581  0.2071
  113MOL0     H15245   4.302   3.204   4.893 -1.3023 -0.1815 -2.2423
  113MOL0     H15246   4.464   3.251   4.938  0.3335 -2.5677 -0.2652
  113MOL0     H15247   4.455   3.428   4.747 -0.4430 -0.8838  0.8530
  113MOL0     H15248   4.344   3.452   4.877  0.0076 -0.6352 -1.0358
  113MOL0     H15249   4.172   3.319   4.732 -0.2571  1.1736  0.8042
  113MOL0     H15250   4.279   3.335   4.597  0.1939 -4.1675  1.5816
  113MOL0     H15251   4.101   3.508   4.604 -0.9369 -1.6731 -0.0056
  113MOL0     H15252   4.259   3.562   4.583 -0.4895  0.1972 -0.4575
  113MOL0     H15253   4.137   3.803   4.884 -1.6630  0.4684 -0.5876
  113MOL0     H15254   4.473   3.034   4.538  1.4123 -2.1074 -0.0433
  113MOL0     H15255   4.378   2.801   4.484  1.6017  0.7761 -0.3599
  114MOL0     O15256   9.810   6.753   6.502 -0.0119  0.4545  0.4246
  114MOL0     C15257   9.920   6.762   6.553 -0.0717 -0.4652 -0.4475
  114MOL0     O15258   9.991   6.884   6.586 -0.5781  0.2360  0.2760
  114MOL0     C15259   9.929   6.996   6.561 -0.2738  0.4907  0.0419
  114MOL0     C15260   9.817   7.035   6.626 -0.6588 -0.4001 -0.6008
  114MOL0     C15261   9.749   7.160   6.605 -0.1996 -0.8596 -0.4246
  114MOL0     C15262   9.795   7.251   6.507  0.1903  0.1749 -0.2944
  114MOL0     O15263   9.752   7.377   6.485 -0.3632 -0.8916 -0.5611
  114MOL0     C15264   9.613   7.395   6.506 -0.2579  0.2775  0.2799
  114MOL0     C15265   9.580   7.542   6.476  0.5296 -0.6243 -0.9644
  114MOL0     C15266   9.425   7.558   6.475 -0.3378 -0.0941 -0.3918
  114MOL0     C15267   9.398   7.705   6.452 -0.0811  0.1898 -0.1656
  114MOL0     C15268   9.258   7.734   6.420  0.0420 -0.7900  1.0707
  114MOL0     C15269   9.226   7.885   6.465 -0.5984  0.0294 -0.3137
  114MOL0     C15270   9.080   7.911   6.445  1.2297 -0.3056 -0.3950
  114MOL0     C15271   9.049   8.048   6.510 -0.2762  0.5138 -0.0194
  114MOL0     N15272   9.139   8.155   6.459 -0.2297 -0.1977 -0.5445
  114MOL0     C15273   9.254   8.202   6.522 -0.5096 -0.3802  0.2137
  114MOL0     C15274   9.293   8.308   6.452  0.1202 -0.2639  0.0534
  114MOL0     C15275   9.403   8.400   6.493  0.6751  0.5070 -0.3721
  114MOL0     C15276   9.356   8.514   6.593 -0.1871  0.5766  0.5934
  114MOL0     C15277   9.405   8.644   6.536  0.4440 -0.1053  0.3736
  114MOL0     C15278   9.384   8.755   6.629 -0.5571  0.7405 -0.2414
  114MOL0     O15279   9.473   8.862   6.596 -0.0417 -0.3004 -0.5076
  114MOL0     C15280   9.421   8.982   6.546  0.0520 -0.0140 -1.0494
  114MOL0     C15281   9.312   8.975   6.459  0.1335 -0.6178  1.0037
  114MOL0     C15282   9.274   9.096   6.396 -0.5210  0.1716  0.1082
  114MOL0     C15283   9.151   9.079   6.308 -0.3936 -0.1178  0.0744
  114MOL0     C15284   9.332   9.215   6.424  0.2255 -0.5698 -0.0595
  114MOL0     C15285   9.288   9.339   6.363  0.3292 -0.7938 -0.5916
  114MOL0     O15286   9.387   9.408   6.300  0.1280 -0.0902 -0.9131
  114MOL0     C15287   9.357   9.523   6.233  0.1814  0.4579  0.3428
  114MOL0     C15288   9.245   9.546   6.148 -0.3566  0.7558 -0.0785
  114MOL0     C15289   9.235   9.661   6.082  0.6812  0.0859 -0.0321
  114MOL0     C15290   9.337   9.763   6.097  0.8526  0.0725 -0.1810
  114MOL0     O15291   9.326   9.881   6.029  0.0781  0.4756  0.6700
  114MOL0     C15292   9.201   9.914   5.969 -0.6863 -0.4095 -0.0171
  114MOL0     C15293   9.209  10.063   5.915  0.9651  0.5093  0.4835
  114MOL0     C15294   9.178  10.156   6.025 -0.4691  0.1569  0.0509
  114MOL0     C15295   9.025  10.158   6.044 -0.4064 -0.3202  1.1278
  114MOL0     C15296   8.986  10.234   6.167  0.4241 -0.1747 -0.1790
  114MOL0     C15297   9.017  10.385   6.165 -0.3950  0.7509  1.2569
  114MOL0     C15298   8.963  10.468   6.262 -0.4566 -0.4230  0.1512
  114MOL0     C15299   8.844  10.555   6.210 -0.1950 -0.2009 -0.2609
  114MOL0    Cl15300   8.686  10.469   6.167  0.2926 -0.4111  0.5338
  114MOL0     C15301   9.441   9.741   6.182 -0.1387 -0.4622  0.0093
  114MOL0     C15302   9.454   9.615   6.249  1.1318 -0.9981 -0.6469
  114MOL0     O15303   9.171   9.374   6.362 -0.3817 -0.6995  0.2732
  114MOL0     C15304   9.436   9.219   6.509  0.3460  0.4473 -0.7353
  114MOL0     C15305   9.482   9.110   6.569  0.6284  0.2684 -0.2988
  114MOL0     N15306   9.193   8.322   6.352 -0.1879  0.0959  0.3697
  114MOL0     N15307   9.099   8.233   6.359  0.0584 -0.7059  0.7383
  114MOL0     C15308   9.908   7.206   6.443 -0.2868 -0.0046 -0.4898
  114MOL0     C15309   9.979   7.084   6.468 -0.2262 -0.1106  0.3591
  114MOL0     C15310   9.985   6.628   6.574 -0.2942  0.1358 -0.1523
  114MOL0     C15311  10.124   6.627   6.579 -0.4949  0.2216  0.4122
  114MOL0     C15312  10.195   6.508   6.596  0.5244 -0.5014  0.6064
  114MOL0     C15313  10.129   6.390   6.633  0.8586  0.1368 -0.0003
  114MOL0     O15314  10.207   6.285   6.669  0.2147 -0.0357 -0.4091
  114MOL0     C15315  10.137   6.177   6.735 -0.7845  0.3647  0.3786
  114MOL0     C15316  10.221   6.081   6.814  0.2482  0.5361 -0.4502
  114MOL0     C15317  10.357   6.123   6.837 -0.5824 -0.7038  0.2522
  114MOL0     C15318  10.441   6.035   6.923 -0.3434  1.1229 -0.4120
  114MOL0     C15319  10.394   6.024   7.053 -0.0220 -0.0827 -1.0642
  114MOL0     C15320  10.367   6.035   7.172  0.7281  0.4535 -0.0702
  114MOL0     C15321   9.990   6.393   6.624  0.1548 -1.0850 -0.8978
  114MOL0     C15322   9.922   6.509   6.590 -0.3598  0.6901  0.0876
  114MOL0     H15323   9.776   6.972   6.705  1.3541 -0.9882  0.0365
  114MOL0     H15324   9.663   7.191   6.663  1.6009  3.3804  0.3369
  114MOL0     H15325   9.563   7.325   6.440 -1.2835  1.4209 -0.1854
  114MOL0     H15326   9.586   7.372   6.610 -0.9434  0.2742  0.1007
  114MOL0     H15327   9.634   7.596   6.554  0.5750  0.4823 -1.7421
  114MOL0     H15328   9.626   7.564   6.379  2.0709 -1.5254 -0.4758
  114MOL0     H15329   9.393   7.496   6.391 -0.1350 -2.6985  1.3314
  114MOL0     H15330   9.383   7.522   6.570 -2.0351 -0.7339 -1.3433
  114MOL0     H15331   9.419   7.756   6.546 -0.1226  0.5266 -0.3351
  114MOL0     H15332   9.463   7.745   6.373 -0.0251 -0.4242 -0.4378
  114MOL0     H15333   9.238   7.719   6.313  4.1555  1.3981 -0.2619
  114MOL0     H15334   9.201   7.668   6.485 -0.4835 -2.5281 -1.0197
  114MOL0     H15335   9.247   7.896   6.572 -2.2202  0.5142 -0.0111
  114MOL0     H15336   9.282   7.955   6.403  0.4709 -2.2596 -2.0533
  114MOL0     H15337   9.054   7.908   6.339  1.0573 -1.0649 -0.3379
  114MOL0     H15338   9.021   7.832   6.494  2.2159 -0.9044 -0.1590
  114MOL0     H15339   9.071   8.037   6.617 -0.2092 -0.9599 -0.1685
  114MOL0     H15340   8.945   8.072   6.490 -0.0139  0.6535 -1.3356
  114MOL0     H15341   9.301   8.170   6.614  0.3343 -0.4451 -0.2327
  114MOL0     H15342   9.466   8.330   6.548  1.4205  1.0302 -0.5415
  114MOL0     H15343   9.463   8.441   6.412  0.9753 -1.2776 -1.0892
  114MOL0     H15344   9.399   8.493   6.691  0.4828  1.1522  0.4298
  114MOL0     H15345   9.247   8.517   6.605 -0.2397  1.6896 -0.0317
  114MOL0     H15346   9.341   8.661   6.449 -1.6554 -5.6659  0.4397
  114MOL0     H15347   9.509   8.632   6.504  0.5381  1.3048  0.1058
  114MOL0     H15348   9.410   8.731   6.732 -2.8015 -1.9592 -0.1640
  114MOL0     H15349   9.279   8.785   6.636  0.1192  3.4690 -0.6341
  114MOL0     H15350   9.276   8.877   6.431 -1.2595  0.0982  0.1514
  114MOL0     H15351   9.160   9.127   6.210 -0.5381 -1.2383 -0.5073
  114MOL0     H15352   9.135   8.975   6.278 -0.3464 -0.1489  0.1573
  114MOL0     H15353   9.070   9.123   6.367  0.0901  0.1910  0.5178
  114MOL0     H15354   9.169   9.470   6.132 -0.6735  0.9945  0.2788
  114MOL0     H15355   9.154   9.665   6.010  0.0004 -1.8157  0.5796
  114MOL0     H15356   9.169   9.843   5.892  3.1181 -0.4953 -1.7621
  114MOL0     H15357   9.120   9.905   6.042 -0.1352 -0.4494  0.6012
  114MOL0     H15358   9.303  10.077   5.860  2.2943 -2.6704  1.6965
  114MOL0     H15359   9.136  10.071   5.833 -2.0818 -2.5107  2.5766
  114MOL0     H15360   9.222  10.254   6.006 -0.4929 -0.0194 -0.9456
  114MOL0     H15361   9.227  10.108   6.110  0.3478 -0.9506 -1.0191
  114MOL0     H15362   8.966  10.204   5.964  1.6355  1.9748  0.8061
  114MOL0     H15363   8.988  10.055   6.051  0.6123 -0.9735 -1.6707
  114MOL0     H15364   9.029  10.189   6.257 -3.4390  1.0134  2.5495
  114MOL0     H15365   8.877  10.230   6.179  0.4246 -3.4805 -0.4519
  114MOL0     H15366   9.126  10.390   6.173  0.7751 -3.6880 -4.6716
  114MOL0     H15367   9.002  10.433   6.068  0.4191  0.4760  0.9853
  114MOL0     H15368   9.045  10.540   6.278 -1.4405  1.0191 -1.0240
  114MOL0     H15369   8.952  10.415   6.357 -0.0425 -0.4331  0.1945
  114MOL0     H15370   8.875  10.595   6.113  0.3977  0.6001  0.2445
  114MOL0     H15371   8.829  10.637   6.281  1.5971 -0.5933  0.6261
  114MOL0     H15372   9.524   9.808   6.199  2.2716 -3.6193  1.9340
  114MOL0     H15373   9.544   9.598   6.307  3.1013  2.4227 -2.4267
  114MOL0     H15374   9.478   9.317   6.530 -0.8461  1.2128 -1.7972
  114MOL0     H15375   9.572   9.109   6.629  0.2844  2.8368  0.3444
  114MOL0     H15376   9.946   7.273   6.366  1.8749  0.4339  0.8546
  114MOL0     H15377  10.075   7.055   6.428 -0.3411 -3.5054  2.1329
  114MOL0     H15378  10.188   6.715   6.571  0.9878 -0.9753 -1.9431
  114MOL0     H15379  10.304   6.517   6.596  0.6602 -0.8866  4.0433
  114MOL0     H15380  10.065   6.219   6.806 -1.8961  0.0225 -0.5131
  114MOL0     H15381  10.102   6.120   6.648 -1.4107  2.1749 -0.6226
  114MOL0     H15382  10.212   5.983   6.765  0.0220 -0.3884  1.3629
  114MOL0     H15383  10.165   6.080   6.908 -1.5697  1.4715 -1.4681
  114MOL0     H15384  10.354   6.225   6.875 -0.1319 -0.4623 -0.3372
  114MOL0     H15385  10.416   6.135   6.745 -0.2482  0.9261  0.6501
  114MOL0     H15386  10.546   6.066   6.924  1.3071 -3.4981  3.0432
  114MOL0     H15387  10.446   5.932   6.888 -0.9444  1.2931 -1.0317
  114MOL0     H15388  10.351   6.022   7.277  2.5260 -2.8839 -0.0935
  114MOL0     H15389   9.937   6.299   6.632 -3.9807  1.1515  1.1141
  114MOL0     H15390   9.816   6.501   6.565  0.1469  2.9373 -3.3548
  115MOL0     O15391   9.605   8.379   2.423  0.2392 -0.3194 -0.2044
  115MOL0     C15392   9.639   8.419   2.538  0.4692 -1.0557  0.7465
  115MOL0     O15393   9.768   8.456   2.577 -0.2898 -0.3291  0.3882
  115MOL0     C15394   9.873   8.425   2.500 -0.4976  0.2264 -0.9613
  115MOL0     C15395   9.992   8.490   2.527  0.3439  0.2481  0.1723
  115MOL0     C15396  10.111   8.463   2.464 -0.6518 -0.0016 -0.4320
  115MOL0     C15397  10.127   8.364   2.367 -0.0493 -0.1932 -0.2608
  115MOL0     O15398  10.251   8.342   2.310 -0.7681 -0.2815  0.2013
  115MOL0     C15399  10.290   8.234   2.220  0.6862 -0.1512 -0.8047
  115MOL0     C15400  10.299   8.108   2.299 -0.4939  1.5736 -0.2138
  115MOL0     C15401  10.208   7.987   2.258 -0.6699 -0.5153  1.2661
  115MOL0     C15402  10.161   7.905   2.382  0.5048 -0.3735  0.4113
  115MOL0     C15403  10.123   7.768   2.345 -0.2093  0.9569  0.6085
  115MOL0     C15404  10.059   7.708   2.464 -0.1586 -0.7229 -0.5689
  115MOL0     C15405  10.011   7.569   2.455  0.0039  0.4699  0.1498
  115MOL0     C15406  10.010   7.507   2.311 -0.3499 -1.2226 -0.0612
  115MOL0     N15407   9.955   7.372   2.314 -0.1895 -0.3262 -0.1660
  115MOL0     C15408  10.021   7.264   2.281 -0.5026 -0.0223  0.3351
  115MOL0     C15409   9.931   7.167   2.260 -0.4730 -0.3211 -0.2810
  115MOL0     C15410   9.961   7.027   2.214 -0.7924  0.7575 -0.6952
  115MOL0     C15411   9.984   7.014   2.060 -1.0273  0.3592 -0.5542
  115MOL0     C15412   9.998   6.869   2.016  0.2473  1.3774  0.8326
  115MOL0     C15413  10.132   6.803   2.040  0.6301  0.3252 -0.2933
  115MOL0     O15414  10.245   6.862   1.975 -0.2018 -0.2030  0.0150
  115MOL0     C15415  10.342   6.910   2.054  1.0545  0.1660  0.5023
  115MOL0     C15416  10.451   6.826   2.071 -0.7411  0.3416  0.0359
  115MOL0     C15417  10.554   6.871   2.154 -0.0563 -0.3323  0.4086
  115MOL0     C15418  10.679   6.788   2.149  0.1173 -0.2606  0.0707
  115MOL0     C15419  10.559   7.004   2.220  0.5192  0.8967 -0.2999
  115MOL0     C15420  10.678   7.068   2.294  0.5469  1.0358 -0.0734
  115MOL0     O15421  10.665   7.181   2.367  0.0088 -0.8722  0.0085
  115MOL0     C15422  10.726   7.296   2.320 -0.1898 -0.0229  0.5192
  115MOL0     C15423  10.752   7.318   2.187  0.3916  0.6970 -0.6741
  115MOL0     C15424  10.795   7.439   2.145  0.0115  0.6175 -0.1275
  115MOL0     C15425  10.820   7.546   2.229  0.6286 -0.3912  0.0743
  115MOL0     O15426  10.867   7.665   2.179 -0.1787 -0.0945  0.0930
  115MOL0     C15427  10.970   7.744   2.249 -0.3755  0.5507 -0.3574
  115MOL0     C15428  10.918   7.861   2.332 -0.4056  0.1416  0.6718
  115MOL0     C15429  11.033   7.925   2.408 -0.2339 -0.0920  0.3432
  115MOL0     C15430  10.972   8.036   2.490 -0.1900  0.7317  0.1447
  115MOL0     C15431  11.080   8.126   2.557 -1.0109 -0.9828  0.0311
  115MOL0     C15432  11.006   8.227   2.643 -0.5540  0.6531 -0.1003
  115MOL0     C15433  11.105   8.306   2.718 -0.4536  0.6641  0.5203
  115MOL0     C15434  11.036   8.378   2.827  0.6762  0.0360 -0.1525
  115MOL0    Cl15435  11.151   8.461   2.920  0.2791  0.4521  0.5920
  115MOL0     C15436  10.806   7.521   2.367 -0.1618 -0.3721 -0.2681
  115MOL0     C15437  10.754   7.402   2.407  0.4284  0.2152  0.3829
  115MOL0     O15438  10.780   7.009   2.283  0.0935 -0.6300 -0.6788
  115MOL0     C15439  10.451   7.084   2.190  0.9936 -0.5002  0.0316
  115MOL0     C15440  10.340   7.037   2.119  0.9138 -0.4349  0.1112
  115MOL0     N15441   9.805   7.229   2.277  1.5532 -0.4142  0.2168
  115MOL0     N15442   9.826   7.348   2.321  0.2481 -0.3482 -0.4434
  115MOL0     C15443  10.002   8.298   2.329 -0.1604 -0.4498  0.9558
  115MOL0     C15444   9.878   8.326   2.393 -0.3312 -0.1269 -0.0404
  115MOL0     C15445   9.536   8.411   2.641  0.3376 -0.9669  0.1589
  115MOL0     C15446   9.581   8.375   2.768 -1.0469  0.2994  0.4064
  115MOL0     C15447   9.507   8.362   2.884  0.4743 -0.5916 -0.1114
  115MOL0     C15448   9.372   8.407   2.869 -0.2226 -0.3959 -0.0812
  115MOL0     O15449   9.302   8.421   2.984 -0.1639 -0.7829  0.2479
  115MOL0     C15450   9.267   8.561   2.998  0.7509  0.6199  0.3223
  115MOL0     C15451   9.197   8.567   3.139 -0.0952  0.5862  0.5171
  115MOL0     C15452   9.069   8.479   3.145 -0.6299  0.1879  0.0123
  115MOL0     C15453   8.971   8.517   3.256 -1.1800  0.4738  0.1414
  115MOL0     C15454   8.845   8.442   3.239  0.3598  1.1894  0.2182
  115MOL0     C15455   8.730   8.397   3.207  0.5610  0.5923  0.6166
  115MOL0     C15456   9.327   8.457   2.747  0.2269  0.3821 -0.7052
  115MOL0     C15457   9.399   8.459   2.630  0.5338  0.1243 -0.7456
  115MOL0     H15458   9.997   8.558   2.612 -0.0220  1.1416 -0.5074
  115MOL0     H15459  10.193   8.523   2.500 -0.3615 -0.7616  0.1981
  115MOL0     H15460  10.235   8.229   2.125  0.5939  1.7820 -0.8956
  115MOL0     H15461  10.389   8.251   2.176 -0.0877  3.3099 -1.5163
  115MOL0     H15462  10.406   8.086   2.312 -0.7195  1.4464  1.8974
  115MOL0     H15463  10.284   8.135   2.404  0.7863  2.6064 -0.2649
  115MOL0     H15464  10.117   8.038   2.223 -1.7524 -0.6300  3.7097
  115MOL0     H15465  10.241   7.939   2.166 -3.2434  1.8288 -1.0733
  115MOL0     H15466  10.240   7.903   2.459  0.7437  3.6004  0.4770
  115MOL0     H15467  10.081   7.965   2.426 -0.2452  2.5975 -4.3410
  115MOL0     H15468  10.050   7.771   2.264  0.0002 -1.1736  0.2722
  115MOL0     H15469  10.201   7.701   2.309 -0.9277 -1.1054  2.6302
  115MOL0     H15470  10.122   7.713   2.553 -1.7681 -2.4967  0.7353
  115MOL0     H15471   9.974   7.774   2.487  1.2890  1.5068 -1.2416
  115MOL0     H15472  10.067   7.505   2.525 -1.7711  0.0973  1.2863
  115MOL0     H15473   9.912   7.560   2.500  0.2204 -4.2546  0.1953
  115MOL0     H15474  10.113   7.504   2.275 -0.1823  1.3527 -0.0043
  115MOL0     H15475   9.948   7.570   2.246  1.5275  0.0595 -0.6821
  115MOL0     H15476  10.128   7.250   2.273 -0.3670 -0.3584  2.3626
  115MOL0     H15477  10.044   6.988   2.274 -3.6095 -3.5148  0.9064
  115MOL0     H15478   9.870   6.970   2.235 -2.4411  3.4246 -0.0673
  115MOL0     H15479  10.076   7.060   2.023 -0.4724 -0.8090 -0.6770
  115MOL0     H15480   9.904   7.068   2.008 -2.3483 -0.7306  0.2489
  115MOL0     H15481   9.970   6.863   1.911  2.3942  0.5907  0.2631
  115MOL0     H15482   9.935   6.805   2.079  0.5175  0.9618  0.6810
  115MOL0     H15483  10.115   6.698   2.015 -1.1882  0.2228  1.1450
  115MOL0     H15484  10.144   6.798   2.148 -3.1701  0.0599  0.2631
  115MOL0     H15485  10.456   6.724   2.034  2.2612  0.0122  1.0911
  115MOL0     H15486  10.701   6.763   2.253  1.1525 -1.0909 -0.3290
  115MOL0     H15487  10.653   6.694   2.099 -2.4976  0.0223  0.7587
  115MOL0     H15488  10.764   6.835   2.100 -0.5035  3.0425  1.8441
  115MOL0     H15489  10.738   7.236   2.117 -1.1613 -0.2457  0.6474
  115MOL0     H15490  10.798   7.450   2.037 -1.3191 -3.9658 -0.8264
  115MOL0     H15491  11.030   7.686   2.319  3.2718  2.4721 -1.6422
  115MOL0     H15492  11.032   7.791   2.172 -2.3842  4.3050  0.0858
  115MOL0     H15493  10.876   7.922   2.251  0.2353 -3.1919 -2.4443
  115MOL0     H15494  10.839   7.832   2.402  0.0442 -0.1122  1.0725
  115MOL0     H15495  11.109   7.955   2.335  0.4622  0.1940  1.1806
  115MOL0     H15496  11.076   7.850   2.475 -0.6903 -1.6211 -0.9932
  115MOL0     H15497  10.900   8.086   2.424  0.6641 -1.0129 -2.2794
  115MOL0     H15498  10.912   7.997   2.573  0.2709 -1.0359 -0.3024
  115MOL0     H15499  11.136   8.179   2.479  0.1812 -1.1052  0.7755
  115MOL0     H15500  11.140   8.052   2.611 -0.3230  0.8437  1.8721
  115MOL0     H15501  10.945   8.300   2.589  0.2614  1.9861  0.7231
  115MOL0     H15502  10.939   8.180   2.716 -0.3591 -1.5141 -1.2552
  115MOL0     H15503  11.164   8.374   2.655  1.2439 -1.0668  0.1384
  115MOL0     H15504  11.182   8.237   2.755 -1.3643 -1.1590 -0.8161
  115MOL0     H15505  10.989   8.301   2.889 -0.2233 -0.3079 -1.2184
  115MOL0     H15506  10.951   8.445   2.810  2.4797  2.7104  0.7106
  115MOL0     H15507  10.839   7.595   2.440 -1.2728  0.2728 -0.3871
  115MOL0     H15508  10.740   7.385   2.513  2.7090  1.7561  1.0083
  115MOL0     H15509  10.443   7.176   2.245  0.3040 -1.8118  2.2518
  115MOL0     H15510  10.255   7.104   2.112  1.6169  0.6721  1.6508
  115MOL0     H15511  10.013   8.243   2.236 -1.7083 -2.6925  2.0211
  115MOL0     H15512   9.790   8.271   2.361  1.1308 -1.9600 -1.1037
  115MOL0     H15513   9.685   8.350   2.785 -0.1577  3.3010 -0.0404
  115MOL0     H15514   9.541   8.346   2.986  0.1143 -0.1973  0.0777
  115MOL0     H15515   9.356   8.622   3.009  1.0469 -0.0325  1.7514
  115MOL0     H15516   9.204   8.613   2.925  1.0650  2.4421  1.3067
  115MOL0     H15517   9.156   8.668   3.149 -0.3379  0.2824  3.3918
  115MOL0     H15518   9.270   8.542   3.217  1.0233 -1.3255 -1.0635
  115MOL0     H15519   9.085   8.371   3.152  2.3467  0.4973 -0.6674
  115MOL0     H15520   9.011   8.488   3.053 -2.9878  0.1112  1.4069
  115MOL0     H15521   8.964   8.626   3.266 -2.9531  0.7533 -3.0245
  115MOL0     H15522   9.020   8.470   3.342 -0.9070 -1.7068 -1.1204
  115MOL0     H15523   8.632   8.355   3.199  2.0435 -2.9286 -1.3640
  115MOL0     H15524   9.232   8.508   2.741  0.4661  1.0338  0.7315
  115MOL0     H15525   9.363   8.498   2.536 -1.4057  3.1288  1.0572
  116MOL0     O15526   6.680  10.100   1.891  0.4985 -0.0435 -0.1024
  116MOL0     C15527   6.624  10.209   1.868 -0.2524  0.4367 -0.4496
  116MOL0     O15528   6.672  10.305   1.788  0.9501  0.7032 -0.2713
  116MOL0     C15529   6.789  10.266   1.717  0.4399 -0.2845  0.8128
  116MOL0     C15530   6.895  10.351   1.733 -0.0064  0.1532  0.0478
  116MOL0     C15531   7.020  10.325   1.678  0.5457 -0.5078 -0.3067
  116MOL0     C15532   7.049  10.214   1.603 -0.0079  0.0837  0.8267
  116MOL0     O15533   7.173  10.191   1.552 -0.1785 -0.9557  0.2438
  116MOL0     C15534   7.230  10.059   1.542 -0.5777  0.0003 -0.6833
  116MOL0     C15535   7.372  10.070   1.496  0.2315  0.3267  0.2567
  116MOL0     C15536   7.472  10.084   1.617  0.0668  0.2391  0.6650
  116MOL0     C15537   7.438  10.175   1.729 -0.4443 -0.1647  0.4198
  116MOL0     C15538   7.560  10.195   1.814  0.1932 -0.0233 -0.5923
  116MOL0     C15539   7.544  10.303   1.919 -0.3009 -0.4872 -0.1129
  116MOL0     C15540   7.515  10.442   1.872 -0.3651 -0.0799  0.6628
  116MOL0     C15541   7.496  10.540   1.985 -0.4294  0.0005 -0.0553
  116MOL0     N15542   7.375  10.505   2.073 -1.0862 -0.5245 -0.1869
  116MOL0     C15543   7.256  10.541   2.030  0.1840  0.4548 -0.2785
  116MOL0     C15544   7.172  10.498   2.132  0.5658  0.2884  0.3895
  116MOL0     C15545   7.030  10.512   2.154  0.7935  0.6605  0.8902
  116MOL0     C15546   6.945  10.385   2.120 -0.2831  0.2071  0.4003
  116MOL0     C15547   6.797  10.415   2.099  0.5807  0.0270  0.3467
  116MOL0     C15548   6.730  10.494   2.210  0.5733 -0.0386  0.0764
  116MOL0     O15549   6.772  10.457   2.344 -0.3504 -0.1279  0.2183
  116MOL0     C15550   6.713  10.528   2.444  0.3310  0.0843 -0.3852
  116MOL0     C15551   6.726  10.478   2.574 -0.9888 -0.1393 -1.0421
  116MOL0     C15552   6.702  10.559   2.683  0.2482  0.0903 -0.5045
  116MOL0     C15553   6.735  10.513   2.821 -0.1074  1.1076  0.8029
  116MOL0     C15554   6.640  10.685   2.674 -1.2861  0.3568  1.0952
  116MOL0     C15555   6.604  10.769   2.796  0.0225  0.7933  0.0845
  116MOL0     O15556   6.501  10.860   2.773 -0.0841  0.3283 -0.3240
  116MOL0     C15557   6.438  10.941   2.856  0.7637 -0.0390 -0.3000
  116MOL0     C15558   6.466  10.960   2.991 -0.4583  0.3343 -0.3271
  116MOL0     C15559   6.384  11.050   3.066 -0.8638  0.5755 -0.4945
  116MOL0     C15560   6.277  11.116   3.013  0.1980 -1.0380  0.5217
  116MOL0     O15561   6.187  11.196   3.076 -0.3199 -0.2878  0.6604
  116MOL0     C15562   6.154  11.158   3.213  0.9609  0.2186 -0.5030
  116MOL0     C15563   6.032  11.246   3.261  0.1805 -0.3106  0.3013
  116MOL0     C15564   5.983  11.208   3.407 -0.2530 -0.9737  0.9387
  116MOL0     C15565   5.848  11.288   3.444 -0.6999  0.8427 -0.6132
  116MOL0     C15566   5.790  11.252   3.581  0.1930  0.5882  0.1468
  116MOL0     C15567   5.696  11.355   3.657 -1.1137  0.8949 -0.0839
  116MOL0     C15568   5.585  11.393   3.564 -0.2336  0.4432 -0.6015
  116MOL0     C15569   5.476  11.473   3.642  0.4056  0.7079 -0.7287
  116MOL0    Cl15570   5.548  11.635   3.680 -0.4406  0.3426  0.5332
  116MOL0     C15571   6.249  11.090   2.882 -1.2136  0.0618 -0.0437
  116MOL0     C15572   6.331  11.019   2.808 -0.5184  0.7389 -0.0614
  116MOL0     O15573   6.684  10.768   2.893 -0.8470 -0.1803 -0.3036
  116MOL0     C15574   6.622  10.733   2.543  0.4470  0.2024  0.6265
  116MOL0     C15575   6.651  10.653   2.432 -0.2484  0.4625 -0.6987
  116MOL0     N15576   7.247  10.425   2.215 -0.1628 -0.5719  0.0183
  116MOL0     N15577   7.371  10.430   2.184 -0.3930  0.4125 -0.5427
  116MOL0     C15578   6.940  10.128   1.581  0.3786 -0.2301  0.2492
  116MOL0     C15579   6.812  10.149   1.636  1.2301 -0.3197  0.6132
  116MOL0     C15580   6.493  10.229   1.929 -0.5978 -1.1036 -0.6275
  116MOL0     C15581   6.427  10.360   1.935 -0.0649  1.1051  0.1065
  116MOL0     C15582   6.306  10.373   2.002 -0.2156 -0.8563 -0.0036
  116MOL0     C15583   6.249  10.272   2.079 -0.0372  0.5015 -0.2229
  116MOL0     O15584   6.145  10.282   2.162  0.2883 -0.3296 -0.0988
  116MOL0     C15585   6.029  10.355   2.111 -0.4836  1.0340 -0.4807
  116MOL0     C15586   5.896  10.310   2.178  0.0434 -0.1575 -0.0551
  116MOL0     C15587   5.903  10.307   2.334  0.5504 -1.0122  0.5231
  116MOL0     C15588   5.748  10.275   2.367 -0.4270  0.8066  0.2991
  116MOL0     C15589   5.699  10.145   2.326 -0.0109 -0.4531 -0.2755
  116MOL0     C15590   5.660  10.031   2.303  1.4759 -0.0443 -0.3874
  116MOL0     C15591   6.324  10.151   2.091 -0.0218 -0.6228  0.2700
  116MOL0     C15592   6.435  10.129   2.007  0.1730  0.3156  0.3517
  116MOL0     H15593   6.888  10.431   1.807  1.6587  0.4532 -0.0852
  116MOL0     H15594   7.102  10.394   1.689 -1.1761  1.8198 -1.1849
  116MOL0     H15595   7.230   9.998   1.633  1.4810 -0.2003 -0.7591
  116MOL0     H15596   7.174  10.003   1.467  2.5020 -1.2592 -2.2508
  116MOL0     H15597   7.397   9.977   1.445  1.0001  0.3424  0.5938
  116MOL0     H15598   7.384  10.148   1.420  3.0715 -1.5383 -1.3705
  116MOL0     H15599   7.490   9.985   1.660 -3.0052 -0.2596  1.0603
  116MOL0     H15600   7.566  10.115   1.572  1.9776 -2.0514  2.7942
  116MOL0     H15601   7.406  10.276   1.700 -0.7754  0.1301  1.7173
  116MOL0     H15602   7.360  10.139   1.797  0.4506 -1.9334  0.5785
  116MOL0     H15603   7.582  10.097   1.859  1.3504 -0.1722 -1.4236
  116MOL0     H15604   7.642  10.232   1.752  0.1372 -1.0217 -1.2862
  116MOL0     H15605   7.468  10.264   1.988  2.9392 -1.7870  3.0082
  116MOL0     H15606   7.634  10.323   1.978 -1.4080 -1.6768  2.1150
  116MOL0     H15607   7.600  10.486   1.819 -0.5328  2.0185  1.9974
  116MOL0     H15608   7.426  10.453   1.810  0.8486  0.4780 -1.0584
  116MOL0     H15609   7.497  10.643   1.948  1.5901  0.3806  0.9083
  116MOL0     H15610   7.586  10.529   2.046  1.3228 -2.6956 -2.8335
  116MOL0     H15611   7.227  10.608   1.950  3.5224  2.0119 -0.3595
  116MOL0     H15612   7.012  10.559   2.251 -0.9941  0.7994  0.5357
  116MOL0     H15613   6.996  10.586   2.081  1.5863 -0.2928 -0.4961
  116MOL0     H15614   6.969  10.311   2.198  2.9488  1.1461  0.4245
  116MOL0     H15615   6.988  10.334   2.033 -0.1478  0.7670  0.1396
  116MOL0     H15616   6.747  10.319   2.080  1.1760  0.0489 -1.5374
  116MOL0     H15617   6.790  10.476   2.009 -0.3902 -0.1978  0.2587
  116MOL0     H15618   6.621  10.489   2.204  0.3555  2.0632  1.3690
  116MOL0     H15619   6.747  10.598   2.181  0.2648  0.0044  0.0477
  116MOL0     H15620   6.761  10.376   2.587  1.7665  0.8122 -0.3043
  116MOL0     H15621   6.651  10.521   2.890  0.5261  0.4184  1.6816
  116MOL0     H15622   6.764  10.407   2.817 -0.0549  1.1016  1.2436
  116MOL0     H15623   6.825  10.564   2.858  1.2845  0.4145 -1.3980
  116MOL0     H15624   6.540  10.904   3.048 -0.6651 -1.2963 -1.5943
  116MOL0     H15625   6.412  11.076   3.167  1.8908  4.0926 -1.9332
  116MOL0     H15626   6.127  11.054   3.234 -0.7601  0.7123 -0.0928
  116MOL0     H15627   6.240  11.178   3.278  1.5574 -0.1409 -1.1561
  116MOL0     H15628   6.073  11.347   3.254 -2.1251  0.6520 -0.0653
  116MOL0     H15629   5.941  11.237   3.202  0.8738  0.5765 -0.9414
  116MOL0     H15630   6.059  11.245   3.477  0.2845 -1.3630  0.5723
  116MOL0     H15631   5.965  11.101   3.421 -1.5511 -0.6029  2.4673
  116MOL0     H15632   5.885  11.391   3.447 -0.6781  0.8185  0.2414
  116MOL0     H15633   5.772  11.271   3.367 -2.5940 -0.2350  1.3779
  116MOL0     H15634   5.876  11.227   3.643  0.3179 -0.4249 -0.4141
  116MOL0     H15635   5.727  11.163   3.585  0.2674  0.5758  1.2592
  116MOL0     H15636   5.660  11.323   3.755 -0.9130  4.0760  1.1415
  116MOL0     H15637   5.760  11.437   3.692 -0.5942 -0.0709  1.3375
  116MOL0     H15638   5.540  11.309   3.510  1.9647 -1.5499  0.5288
  116MOL0     H15639   5.627  11.455   3.484  0.7617  0.7780  0.1659
  116MOL0     H15640   5.434  11.433   3.735 -0.4053  0.2679 -1.2707
  116MOL0     H15641   5.396  11.491   3.570  0.2879 -1.1264 -1.1041
  116MOL0     H15642   6.163  11.136   2.834  0.8375  3.0213 -1.2617
  116MOL0     H15643   6.295  11.020   2.705 -2.4201 -0.3631  0.5306
  116MOL0     H15644   6.563  10.819   2.512 -0.8936 -1.4530 -1.7742
  116MOL0     H15645   6.638  10.692   2.331  2.5063 -0.4505 -1.5195
  116MOL0     H15646   6.963  10.047   1.512  1.5556 -0.0826  0.4338
  116MOL0     H15647   6.735  10.072   1.629  2.3548 -1.6088  1.7817
  116MOL0     H15648   6.456  10.449   1.881 -0.0276  1.5733  0.8998
  116MOL0     H15649   6.254  10.466   1.981 -0.8518 -1.2269 -0.0909
  116MOL0     H15650   6.058  10.460   2.118  0.6307  0.6518  1.1013
  116MOL0     H15651   6.024  10.340   2.003  2.2619 -0.1463 -0.5445
  116MOL0     H15652   5.870  10.213   2.133  1.0354 -0.1407 -0.7045
  116MOL0     H15653   5.813  10.369   2.140 -0.2788 -1.1780 -1.0047
  116MOL0     H15654   5.932  10.410   2.359 -2.7944  1.2529 -3.6442
  116MOL0     H15655   5.979  10.236   2.367  2.8104  0.6732 -0.7177
  116MOL0     H15656   5.681  10.341   2.312 -0.0083 -0.3107 -1.6339
  116MOL0     H15657   5.730  10.293   2.474  1.1703 -1.3127  0.9981
  116MOL0     H15658   5.630   9.929   2.289  1.3790 -0.3526  1.7513
  116MOL0     H15659   6.273  10.077   2.151 -1.1265 -0.0440  0.0768
  116MOL0     H15660   6.476  10.029   2.013 -2.9573 -1.2458 -1.6275
  117MOL0     O15661   2.041   8.835   5.492  0.5385 -0.6940  0.1776
  117MOL0     C15662   1.989   8.811   5.603 -1.3081  0.2823 -0.0113
  117MOL0     O15663   1.862   8.846   5.649 -0.2096 -0.2669  0.5268
  117MOL0     C15664   1.773   8.917   5.574 -0.2078  0.3774 -0.5179
  117MOL0     C15665   1.664   8.975   5.647  0.5486  0.9790 -0.7387
  117MOL0     C15666   1.568   9.055   5.587 -0.4853 -0.0940 -0.7399
  117MOL0     C15667   1.561   9.058   5.454 -0.3057 -1.1503 -0.1114
  117MOL0     O15668   1.449   9.116   5.408  0.7837 -0.4738 -0.0609
  117MOL0     C15669   1.428   9.190   5.288  1.0269 -0.7612  0.1511
  117MOL0     C15670   1.301   9.150   5.213 -0.8609  0.6763 -1.2156
  117MOL0     C15671   1.178   9.134   5.299  0.0444 -0.0902 -0.6886
  117MOL0     C15672   1.054   9.153   5.205 -0.3183 -0.3715 -0.0788
  117MOL0     C15673   0.919   9.150   5.279  0.1158 -0.7278  0.3549
  117MOL0     C15674   0.804   9.155   5.186 -0.6385 -0.4354 -0.5741
  117MOL0     C15675   0.668   9.116   5.255 -0.4062  0.8933  0.6868
  117MOL0     C15676   0.635   9.225   5.364  0.5583  0.3652  0.5493
  117MOL0     N15677   0.519   9.185   5.443 -0.9585 -0.9329 -0.4637
  117MOL0     C15678   0.401   9.217   5.391  1.1084  0.3095  0.3983
  117MOL0     C15679   0.308   9.161   5.478  0.2510  0.1636  0.1770
  117MOL0     C15680   0.167   9.125   5.449  0.4635  0.4523  0.7698
  117MOL0     C15681   0.071   9.209   5.536  1.3273 -0.7952  1.3760
  117MOL0     C15682   0.074   9.354   5.478  0.3808 -0.3797 -0.3289
  117MOL0     C15683   0.028   9.445   5.592  0.5783  1.0474 -0.2914
  117MOL0     O15684  -0.107   9.413   5.631 -0.1341 -0.4416  0.2306
  117MOL0     C15685  -0.175   9.502   5.722 -0.1762  0.8158  0.2372
  117MOL0     C15686  -0.129   9.620   5.784  0.3001  0.2278 -0.0323
  117MOL0     C15687  -0.218   9.698   5.875 -0.2947 -0.0817  0.9336
  117MOL0     C15688  -0.165   9.826   5.931 -0.2193 -0.7637  0.5509
  117MOL0     C15689  -0.355   9.656   5.893 -0.5030  0.2892  0.2002
  117MOL0     C15690  -0.461   9.735   5.953 -0.0080 -0.0360  0.2827
  117MOL0     O15691  -0.424   9.863   5.981 -0.9686 -0.0912  0.6481
  117MOL0     C15692  -0.518   9.940   6.041 -0.7071  0.4344  0.1333
  117MOL0     C15693  -0.536   9.945   6.182 -0.5147  0.2456 -0.0809
  117MOL0     C15694  -0.651  10.017   6.230  0.9440 -0.3076 -0.1805
  117MOL0     C15695  -0.742  10.091   6.151 -0.9389 -0.1781 -0.9234
  117MOL0     O15696  -0.852  10.154   6.200  0.4372 -1.6263  0.6230
  117MOL0     C15697  -0.955  10.187   6.099  0.7344 -0.0563 -0.0301
  117MOL0     C15698  -0.937  10.322   6.024  0.0339 -1.2402 -0.0921
  117MOL0     C15699  -0.996  10.426   6.123 -0.5496  0.0079 -0.8295
  117MOL0     C15700  -0.961  10.577   6.096 -1.5320 -1.2498 -0.2544
  117MOL0     C15701  -1.027  10.619   5.963  0.1505 -1.0838  0.7519
  117MOL0     C15702  -1.034  10.770   5.958 -0.4943 -0.0766 -0.0153
  117MOL0     C15703  -1.090  10.817   5.814 -0.3693 -0.2816  0.3640
  117MOL0     C15704  -1.106  10.973   5.811  0.3625  0.7440 -0.4038
  117MOL0    Cl15705  -1.149  11.022   5.641  0.1421 -0.1529 -0.0718
  117MOL0     C15706  -0.708  10.097   6.010 -0.2641  0.1249 -0.5660
  117MOL0     C15707  -0.602  10.018   5.961 -0.0103 -0.9470 -0.3079
  117MOL0     O15708  -0.571   9.690   5.960  0.0447 -0.2158 -0.0577
  117MOL0     C15709  -0.397   9.532   5.836 -0.0413  0.4172  0.7623
  117MOL0     C15710  -0.306   9.461   5.752  0.6704 -0.1373 -0.0756
  117MOL0     N15711   0.381   9.120   5.586 -0.0048  0.3546  1.2563
  117MOL0     N15712   0.508   9.132   5.572 -0.4093 -0.4970  0.1610
  117MOL0     C15713   1.658   8.998   5.375  0.9104  0.1905  0.3110
  117MOL0     C15714   1.762   8.925   5.432 -0.0630  0.0655  0.0400
  117MOL0     C15715   2.056   8.698   5.681 -0.1753 -0.3842 -1.0038
  117MOL0     C15716   2.171   8.645   5.621  0.6289  0.1158 -0.0099
  117MOL0     C15717   2.248   8.559   5.690 -0.3288  0.4515 -0.3889
  117MOL0     C15718   2.211   8.514   5.810  0.2336  0.4221  0.3429
  117MOL0     O15719   2.290   8.439   5.893  0.3964  0.1639  0.3996
  117MOL0     C15720   2.401   8.503   5.958  0.4861 -0.9763  0.1315
  117MOL0     C15721   2.465   8.399   6.047  0.0531 -0.6339 -0.6510
  117MOL0     C15722   2.593   8.455   6.107  0.2484 -0.4102 -0.2151
  117MOL0     C15723   2.668   8.353   6.188 -0.1290  1.2236 -0.1285
  117MOL0     C15724   2.735   8.240   6.120  0.2237  0.3621 -0.2144
  117MOL0     C15725   2.797   8.152   6.061 -0.2204 -1.1945  0.8436
  117MOL0     C15726   2.084   8.537   5.859 -0.1936 -0.6196  0.7753
  117MOL0     C15727   2.008   8.644   5.801 -0.9041  0.0227  0.3459
  117MOL0     H15728   1.657   8.959   5.754  2.1435 -0.6761 -0.8450
  117MOL0     H15729   1.487   9.111   5.634 -2.6717 -3.6371  0.0736
  117MOL0     H15730   1.415   9.292   5.326  0.3122 -0.4533 -0.8516
  117MOL0     H15731   1.507   9.186   5.212  1.8732 -2.4897  1.0646
  117MOL0     H15732   1.283   9.220   5.132  0.1893 -1.3063 -3.2890
  117MOL0     H15733   1.316   9.051   5.170  0.2289  0.3894 -0.2484
  117MOL0     H15734   1.173   9.034   5.344  0.7584  0.5286  0.8110
  117MOL0     H15735   1.162   9.207   5.378  1.4560  1.0631 -1.4158
  117MOL0     H15736   1.056   9.244   5.143 -0.4166 -1.2073 -1.3414
  117MOL0     H15737   1.065   9.072   5.133  3.7732  0.5275 -0.6958
  117MOL0     H15738   0.917   9.055   5.333  1.0737 -0.9426  0.0367
  117MOL0     H15739   0.923   9.231   5.351  4.0433  1.9169 -2.4393
  117MOL0     H15740   0.794   9.259   5.151  0.1092 -0.5063 -1.0132
  117MOL0     H15741   0.820   9.095   5.096 -0.6790 -0.0611 -0.8344
  117MOL0     H15742   0.597   9.131   5.173  1.5760  3.8396 -0.6390
  117MOL0     H15743   0.673   9.013   5.291  1.9170  0.4530 -0.7232
  117MOL0     H15744   0.616   9.325   5.324 -1.7576 -0.1231  0.2676
  117MOL0     H15745   0.727   9.222   5.422 -0.1955 -1.1470  1.7174
  117MOL0     H15746   0.377   9.259   5.294 -2.1281 -4.2945 -1.1336
  117MOL0     H15747   0.146   9.148   5.344  1.3678 -2.0192 -0.0024
  117MOL0     H15748   0.170   9.017   5.458 -0.4788  0.3344 -0.0849
  117MOL0     H15749   0.103   9.199   5.640  3.2149 -0.8482  0.8313
  117MOL0     H15750  -0.032   9.176   5.519  1.5600  0.0427 -2.9057
  117MOL0     H15751   0.002   9.356   5.395 -0.0779 -2.0949 -0.0213
  117MOL0     H15752   0.171   9.379   5.434  1.6801  1.1503  3.0961
  117MOL0     H15753   0.031   9.546   5.550 -1.1231  0.5310 -1.7713
  117MOL0     H15754   0.089   9.425   5.680 -3.0880 -3.7157  1.6039
  117MOL0     H15755  -0.022   9.635   5.772  0.4102  0.5919  1.2956
  117MOL0     H15756  -0.214   9.911   5.883 -0.8296 -1.1102  0.5529
  117MOL0     H15757  -0.173   9.838   6.039  1.7524 -3.1460  1.0698
  117MOL0     H15758  -0.057   9.822   5.913 -0.5104 -1.6480 -1.3263
  117MOL0     H15759  -0.475   9.886   6.250 -0.6116  0.2868  0.0411
  117MOL0     H15760  -0.663  10.022   6.338  2.3378  1.4005 -0.0535
  117MOL0     H15761  -0.969  10.112   6.021 -1.0947 -0.3580  0.5315
  117MOL0     H15762  -1.055  10.176   6.142  0.4305 -3.8421 -1.3371
  117MOL0     H15763  -0.832  10.343   6.004 -1.1551  1.8421 -4.4847
  117MOL0     H15764  -1.001  10.323   5.935 -0.7872 -2.4994  0.4489
  117MOL0     H15765  -0.952  10.402   6.220  0.9061 -0.1983 -1.5101
  117MOL0     H15766  -1.103  10.413   6.142 -0.1333  0.7044  2.6394
  117MOL0     H15767  -0.991  10.643   6.178  0.6665  0.0890 -0.4481
  117MOL0     H15768  -0.854  10.596   6.083 -2.1259  1.2324 -2.5604
  117MOL0     H15769  -1.129  10.580   5.951  0.0307 -0.7980  0.8210
  117MOL0     H15770  -0.971  10.575   5.880  2.1114 -2.5573  2.7390
  117MOL0     H15771  -1.112  10.796   6.031 -0.1762  0.0809  0.2702
  117MOL0     H15772  -0.944  10.828   5.978 -0.4700  1.3655 -3.5343
  117MOL0     H15773  -1.184  10.766   5.788  0.6102 -0.7573 -2.6488
  117MOL0     H15774  -1.013  10.789   5.742  0.4203 -1.4795  1.6246
  117MOL0     H15775  -1.024  11.037   5.846  0.2111  0.4583  0.4835
  117MOL0     H15776  -1.189  11.009   5.872 -0.2768 -0.1552 -0.7182
  117MOL0     H15777  -0.758  10.154   5.932 -1.9883 -1.5353 -0.7622
  117MOL0     H15778  -0.568  10.024   5.858  3.7390  1.2461  0.8567
  117MOL0     H15779  -0.498   9.494   5.852 -0.3468 -0.9667 -3.3662
  117MOL0     H15780  -0.348   9.374   5.702  0.0530  0.1514 -0.0748
  117MOL0     H15781   1.630   9.013   5.271 -0.0727  2.2801  0.8397
  117MOL0     H15782   1.830   8.864   5.373 -0.7490  0.2045 -0.9317
  117MOL0     H15783   2.198   8.673   5.520 -1.9208  1.1164 -0.4911
  117MOL0     H15784   2.345   8.527   5.651 -0.7800 -0.2316 -0.9628
  117MOL0     H15785   2.477   8.523   5.883 -0.3832  0.4538 -0.4060
  117MOL0     H15786   2.375   8.597   6.007 -0.6587 -1.2758  0.1249
  117MOL0     H15787   2.486   8.312   5.984  4.4903 -0.6413  0.4748
  117MOL0     H15788   2.391   8.380   6.125  1.1713  0.7743  0.8240
  117MOL0     H15789   2.565   8.541   6.168 -0.6051  1.7127 -3.3574
  117MOL0     H15790   2.667   8.487   6.033 -0.0164  3.3467  0.9451
  117MOL0     H15791   2.600   8.310   6.261 -0.1609  0.5340 -0.5499
  117MOL0     H15792   2.745   8.409   6.241  0.5721  0.8253 -0.7068
  117MOL0     H15793   2.862   8.083   6.012 -1.5835 -0.6297 -1.9823
  117MOL0     H15794   2.045   8.486   5.947 -0.8318 -0.0414  0.8389
  117MOL0     H15795   1.918   8.673   5.854 -0.3508 -0.2618  1.4879
  118MOL0     O15796   7.057   8.600   9.898 -0.5047 -0.5101  0.5204
  118MOL0     C15797   6.999   8.492   9.891 -0.5847  0.7463 -0.1036
  118MOL0     O15798   7.063   8.369   9.889  0.4480  0.2716 -0.2874
  118MOL0     C15799   7.196   8.347   9.915  0.1178  0.1376  0.4442
  118MOL0     C15800   7.247   8.222   9.918  0.7319  0.4080  0.2032
  118MOL0     C15801   7.383   8.198   9.964  0.4761 -0.6978  0.5322
  118MOL0     C15802   7.475   8.303   9.993  0.3957 -0.2464  0.5148
  118MOL0     O15803   7.609   8.285  10.029 -0.0252  0.3852  0.2059
  118MOL0     C15804   7.649   8.340  10.160  0.1140 -0.1076  0.0719
  118MOL0     C15805   7.794   8.305  10.195 -0.0086 -0.5502  0.0081
  118MOL0     C15806   7.893   8.350  10.090 -0.1249 -0.1557 -0.4403
  118MOL0     C15807   8.038   8.359  10.145  0.1593  0.8092 -0.5621
  118MOL0     C15808   8.158   8.360  10.049  0.0870  0.2990 -0.1603
  118MOL0     C15809   8.170   8.500   9.979  0.5674  0.7179 -0.0842
  118MOL0     C15810   8.309   8.516   9.923  0.4042 -0.8709 -0.4983
  118MOL0     C15811   8.298   8.636   9.835 -0.0187 -0.0587 -0.1889
  118MOL0     N15812   8.418   8.662   9.757  0.0145  0.7794 -0.1166
  118MOL0     C15813   8.431   8.627   9.627  0.5855 -0.6368  0.1488
  118MOL0     C15814   8.545   8.686   9.580  0.0839 -1.0737 -0.7391
  118MOL0     C15815   8.609   8.679   9.440  0.4700 -0.3552  0.1721
  118MOL0     C15816   8.711   8.575   9.416 -0.1540 -0.5199  0.0626
  118MOL0     C15817   8.660   8.429   9.438  0.8134  0.4563 -0.3128
  118MOL0     C15818   8.608   8.360   9.303 -0.5907 -0.0920 -0.2470
  118MOL0     O15819   8.493   8.423   9.256  0.6106  0.0882  0.4067
  118MOL0     C15820   8.365   8.406   9.316 -0.1626 -0.0816 -0.0361
  118MOL0     C15821   8.330   8.306   9.410 -0.0086  0.4531  0.2129
  118MOL0     C15822   8.206   8.286   9.462 -0.4668  0.5018  0.3315
  118MOL0     C15823   8.188   8.190   9.581  0.4875 -0.1561  0.5983
  118MOL0     C15824   8.102   8.363   9.410 -0.0220  0.0741  0.1904
  118MOL0     C15825   7.956   8.341   9.441  0.3366  0.0203  0.9627
  118MOL0     O15826   7.885   8.459   9.464  0.2845  0.7192 -0.4082
  118MOL0     C15827   7.754   8.440   9.483  1.1503  0.0360 -0.7627
  118MOL0     C15828   7.670   8.511   9.389 -0.4621  0.7395 -0.5775
  118MOL0     C15829   7.528   8.483   9.382  1.1334  0.1403  0.2858
  118MOL0     C15830   7.467   8.396   9.480 -0.4185 -0.7241  0.0329
  118MOL0     O15831   7.336   8.359   9.469  0.9119 -0.3305 -0.5406
  118MOL0     C15832   7.271   8.267   9.560 -0.0453 -0.2965  0.1549
  118MOL0     C15833   7.143   8.247   9.486  0.5207  0.2998  0.1765
  118MOL0     C15834   7.054   8.156   9.570 -0.3146 -0.5143  1.0194
  118MOL0     C15835   6.914   8.155   9.503  0.3658 -0.3091 -0.5822
  118MOL0     C15836   6.916   8.059   9.381  0.0474 -0.1639 -0.3610
  118MOL0     C15837   6.908   7.912   9.422 -0.8225 -0.2456  0.2620
  118MOL0     C15838   6.936   7.814   9.306 -0.4065  0.5173  0.4477
  118MOL0     C15839   6.892   7.674   9.351  0.0013  0.2230 -0.3140
  118MOL0    Cl15840   6.717   7.651   9.352 -0.1324  0.1995 -0.2616
  118MOL0     C15841   7.546   8.348   9.587 -0.6045 -0.1059  0.6312
  118MOL0     C15842   7.690   8.371   9.591 -0.3006  0.3493 -0.9486
  118MOL0     O15843   7.915   8.229   9.460 -0.3686 -0.1911 -0.1877
  118MOL0     C15844   8.127   8.455   9.311 -1.2284  0.2859  0.2075
  118MOL0     C15845   8.258   8.475   9.265 -0.2034  0.8740 -0.4306
  118MOL0     N15846   8.612   8.739   9.694  0.1207  0.2397  0.0424
  118MOL0     N15847   8.533   8.725   9.798  0.9738 -0.2499  0.6665
  118MOL0     C15848   7.421   8.431   9.978 -0.2063 -0.4945 -0.2916
  118MOL0     C15849   7.282   8.450   9.953  0.0144 -0.4275  0.8353
  118MOL0     C15850   6.852   8.492   9.886 -0.0807  0.2096  0.4374
  118MOL0     C15851   6.788   8.611   9.844 -1.3478 -0.4712 -0.1175
  118MOL0     C15852   6.649   8.610   9.846  0.0733 -0.4723 -0.4328
  118MOL0     C15853   6.564   8.502   9.874 -0.6330  0.3580  0.0390
  118MOL0     O15854   6.427   8.495   9.863 -0.3020 -0.8561 -0.7363
  118MOL0     C15855   6.349   8.598   9.796 -0.1513  0.1965 -0.0121
  118MOL0     C15856   6.204   8.575   9.840  0.9228  0.1623 -0.2811
  118MOL0     C15857   6.181   8.602   9.990  0.2428 -0.1134 -0.5217
  118MOL0     C15858   6.181   8.748  10.027  0.1084 -0.8089  1.0457
  118MOL0     C15859   6.300   8.809  10.081  0.0210  0.1028  1.2834
  118MOL0     C15860   6.394   8.874  10.112  0.7257  0.4573  0.0043
  118MOL0     C15861   6.638   8.382   9.886 -0.6471  0.4624 -0.8603
  118MOL0     C15862   6.777   8.376   9.903  0.1843  0.6342 -0.5480
  118MOL0     H15863   7.186   8.134   9.902 -2.4596  2.7404 -1.7427
  118MOL0     H15864   7.422   8.098   9.979  3.2512  0.2869  0.4758
  118MOL0     H15865   7.646   8.449  10.147  1.3818 -0.2255 -1.5129
  118MOL0     H15866   7.591   8.304  10.245 -1.4265  0.0320 -0.8944
  118MOL0     H15867   7.818   8.349  10.292  1.1488 -1.8973  0.3708
  118MOL0     H15868   7.806   8.196  10.194 -2.1881 -0.8360 -0.3524
  118MOL0     H15869   7.909   8.271  10.016  1.3663 -1.0958  0.8340
  118MOL0     H15870   7.858   8.440  10.039  2.8294  0.5532 -1.4228
  118MOL0     H15871   8.034   8.446  10.212 -3.2873  2.6015 -2.8078
  118MOL0     H15872   8.046   8.270  10.207 -3.7298  0.7951  0.2070
  118MOL0     H15873   8.244   8.320  10.104  0.1747 -1.8830 -1.7341
  118MOL0     H15874   8.144   8.288   9.967 -0.5542 -2.5596  2.2592
  118MOL0     H15875   8.104   8.489   9.893  0.1130  1.1028  0.2097
  118MOL0     H15876   8.140   8.583  10.044 -3.6098  1.0210 -2.0512
  118MOL0     H15877   8.376   8.540  10.007 -0.0119 -0.6341 -0.2306
  118MOL0     H15878   8.344   8.428   9.868 -0.7613 -0.3839 -2.0723
  118MOL0     H15879   8.273   8.726   9.892 -2.2675 -1.0331  0.4576
  118MOL0     H15880   8.213   8.621   9.767  1.5782  0.0351 -2.3238
  118MOL0     H15881   8.361   8.575   9.564  0.5448 -0.7655  0.2985
  118MOL0     H15882   8.531   8.671   9.363  0.6113  1.2534 -0.1805
  118MOL0     H15883   8.652   8.778   9.425 -1.3368  0.5151  0.4051
  118MOL0     H15884   8.798   8.590   9.480  2.5177 -2.1205 -2.8931
  118MOL0     H15885   8.742   8.579   9.311  1.9859  1.7759  0.6867
  118MOL0     H15886   8.597   8.406   9.525  2.3860  0.7132  0.9279
  118MOL0     H15887   8.757   8.381   9.452  1.8665  1.7246 -2.7042
  118MOL0     H15888   8.598   8.252   9.311 -0.3259 -0.0588  0.6706
  118MOL0     H15889   8.688   8.381   9.231 -1.9196  0.9026 -1.4754
  118MOL0     H15890   8.406   8.235   9.442 -1.2131 -1.9874 -1.9584
  118MOL0     H15891   8.122   8.232   9.657  0.0047 -0.7735  0.5338
  118MOL0     H15892   8.146   8.092   9.554  1.4416 -0.4456  0.1045
  118MOL0     H15893   8.280   8.163   9.634 -0.6265 -2.0407  1.7093
  118MOL0     H15894   7.723   8.570   9.315  2.4158  1.8701  2.1541
  118MOL0     H15895   7.466   8.529   9.305 -0.7791 -0.6586  1.2843
  118MOL0     H15896   7.332   8.178   9.576  0.2249 -0.1531 -0.0723
  118MOL0     H15897   7.263   8.310   9.661 -0.6593 -0.5508  0.2150
  118MOL0     H15898   7.104   8.346   9.461 -0.6733  0.0867  1.1009
  118MOL0     H15899   7.164   8.199   9.390  4.6687 -1.6802  1.8088
  118MOL0     H15900   7.044   8.204   9.668 -2.1883  0.5153  0.3936
  118MOL0     H15901   7.088   8.053   9.580 -0.8894 -0.9448 -0.9960
  118MOL0     H15902   6.847   8.120   9.581  1.3809  0.4412  0.6696
  118MOL0     H15903   6.874   8.250   9.465  0.7491 -0.1217 -0.5248
  118MOL0     H15904   7.002   8.073   9.316  0.3717 -2.3823 -0.4745
  118MOL0     H15905   6.827   8.088   9.324 -1.7883 -2.6599  1.0344
  118MOL0     H15906   6.982   7.886   9.498 -0.5947 -4.4371 -1.1160
  118MOL0     H15907   6.811   7.889   9.466 -1.6877 -1.1132 -1.9139
  118MOL0     H15908   7.045   7.824   9.303 -0.3332  0.1342  1.4771
  118MOL0     H15909   6.899   7.846   9.208 -2.0867  0.8236  1.1592
  118MOL0     H15910   6.933   7.650   9.450  1.7131 -0.7438 -1.2086
  118MOL0     H15911   6.936   7.595   9.290 -1.7492 -1.9999  1.1655
  118MOL0     H15912   7.503   8.287   9.665 -0.7924 -0.8564 -0.0474
  118MOL0     H15913   7.751   8.322   9.667 -0.1623  2.5826  0.4638
  118MOL0     H15914   8.053   8.516   9.261  0.3117  0.3107 -2.2368
  118MOL0     H15915   8.275   8.543   9.182  0.7852 -3.2820 -4.0842
  118MOL0     H15916   7.484   8.514  10.008  3.1011 -2.4307 -1.3156
  118MOL0     H15917   7.240   8.547   9.974  0.2242 -0.5378  1.8194
  118MOL0     H15918   6.837   8.703   9.812  0.3489 -1.4869 -0.5383
  118MOL0     H15919   6.605   8.709   9.844  1.2918  0.1552  1.4073
  118MOL0     H15920   6.375   8.701   9.823  1.5553 -0.5848  1.4759
  118MOL0     H15921   6.349   8.579   9.688 -0.9764 -0.7669  0.1450
  118MOL0     H15922   6.191   8.467   9.828  0.3248  0.0697  0.9857
  118MOL0     H15923   6.128   8.626   9.780 -2.2820  0.1279  3.3735
  118MOL0     H15924   6.263   8.558  10.046  0.7065  1.2960 -0.0427
  118MOL0     H15925   6.086   8.557  10.022  1.3915 -2.0011  0.3926
  118MOL0     H15926   6.105   8.776  10.100  1.1388 -0.7356  2.1302
  118MOL0     H15927   6.152   8.806   9.939  1.3301 -2.5769 -0.5691
  118MOL0     H15928   6.482   8.921  10.151  1.6090 -2.7524  2.2208
  118MOL0     H15929   6.578   8.292   9.889  0.4359 -0.2594  0.4770
  118MOL0     H15930   6.822   8.281   9.930 -0.9839  1.1234  3.9745
  119MOL0     O15931   0.971   4.270   1.257 -0.3186 -0.2630  0.9230
  119MOL0     C15932   0.934   4.236   1.149 -0.8064 -0.6970  0.0296
  119MOL0     O15933   0.831   4.289   1.078  0.4657  0.0399 -0.1698
  119MOL0     C15934   0.759   4.380   1.151 -0.3222 -0.3374 -0.7943
  119MOL0     C15935   0.804   4.511   1.152 -0.5459 -0.2987 -0.2404
  119MOL0     C15936   0.739   4.602   1.230 -0.2369  0.0247 -0.5183
  119MOL0     C15937   0.619   4.568   1.307  0.2619  0.5350 -0.4059
  119MOL0     O15938   0.559   4.666   1.387  0.1670 -0.3259 -0.5574
  119MOL0     C15939   0.458   4.628   1.486 -0.7202  0.0491  1.1568
  119MOL0     C15940   0.459   4.729   1.596  0.9451 -0.3406 -0.5456
  119MOL0     C15941   0.337   4.711   1.696  0.5805 -0.7830 -0.0475
  119MOL0     C15942   0.388   4.782   1.824  0.4170  0.4159 -1.4114
  119MOL0     C15943   0.274   4.792   1.927  1.5365 -0.2136  0.9409
  119MOL0     C15944   0.184   4.916   1.911  0.1595  0.6385  0.0822
  119MOL0     C15945   0.086   4.926   2.021  0.2282 -0.2876  0.4641
  119MOL0     C15946   0.023   5.064   2.010  0.2472  0.0782 -0.6443
  119MOL0     N15947  -0.045   5.108   2.135  0.2018 -0.4395  0.1915
  119MOL0     C15948  -0.008   5.107   2.264 -0.7935 -0.7900  0.5247
  119MOL0     C15949  -0.099   5.167   2.338 -0.5468  0.0927  0.1053
  119MOL0     C15950  -0.091   5.192   2.490  0.4859  1.0666  0.3565
  119MOL0     C15951  -0.194   5.290   2.553 -0.2556 -0.3913 -0.1920
  119MOL0     C15952  -0.156   5.322   2.697  0.0815 -0.2121 -0.4431
  119MOL0     C15953  -0.263   5.426   2.753 -0.8745  0.9990  0.0596
  119MOL0     O15954  -0.246   5.444   2.900  0.4365  0.5802  0.7328
  119MOL0     C15955  -0.327   5.543   2.963 -0.1482 -0.0430 -0.0911
  119MOL0     C15956  -0.344   5.668   2.899 -0.5362 -0.6613  0.2339
  119MOL0     C15957  -0.437   5.761   2.952  0.6377  0.7454 -0.0505
  119MOL0     C15958  -0.444   5.902   2.896  0.5112 -0.4145  0.0617
  119MOL0     C15959  -0.513   5.730   3.066 -0.3929  0.5830  0.2966
  119MOL0     C15960  -0.600   5.827   3.136 -0.8092  0.5151  1.1306
  119MOL0     O15961  -0.578   5.825   3.270  0.6696  0.2041  0.7182
  119MOL0     C15962  -0.646   5.914   3.348  0.5202 -0.5641  0.2117
  119MOL0     C15963  -0.641   6.054   3.329  0.4177 -0.5777 -1.0276
  119MOL0     C15964  -0.730   6.138   3.396 -0.3266 -0.7636 -0.2758
  119MOL0     C15965  -0.818   6.086   3.491  0.0523 -0.0714 -0.4190
  119MOL0     O15966  -0.897   6.175   3.564 -1.1261  1.1203 -1.0267
  119MOL0     C15967  -1.024   6.135   3.601  0.0354  0.7108  0.0710
  119MOL0     C15968  -1.053   6.189   3.741 -0.1702 -0.1378  0.3423
  119MOL0     C15969  -0.993   6.112   3.853  0.2021  0.0086 -0.2136
  119MOL0     C15970  -1.034   6.184   3.983 -1.0569  0.3988 -0.3838
  119MOL0     C15971  -0.943   6.134   4.100  0.2883  0.9116  0.4245
  119MOL0     C15972  -1.002   6.020   4.182  0.7424  0.1256 -1.2060
  119MOL0     C15973  -1.107   6.070   4.278  0.3995 -0.2064  0.6786
  119MOL0     C15974  -1.171   5.968   4.369  0.6879 -0.7587 -0.3271
  119MOL0    Cl15975  -1.262   6.050   4.487 -0.0126 -0.0276  0.2949
  119MOL0     C15976  -0.817   5.946   3.526  0.0754  0.2778 -0.1020
  119MOL0     C15977  -0.734   5.862   3.456 -0.9687 -0.1464  0.5069
  119MOL0     O15978  -0.696   5.881   3.075  0.2038  0.0433 -0.2407
  119MOL0     C15979  -0.485   5.610   3.132 -0.5110 -0.7227 -0.5757
  119MOL0     C15980  -0.384   5.528   3.091 -0.5852 -0.1613  0.4516
  119MOL0     N15981  -0.199   5.201   2.252  1.4205 -0.7414  0.6939
  119MOL0     N15982  -0.167   5.168   2.131  0.5659  1.1848  0.8728
  119MOL0     C15983   0.570   4.433   1.290  0.0868  0.2142  0.4801
  119MOL0     C15984   0.646   4.334   1.228  0.1745 -0.3318  0.8975
  119MOL0     C15985   0.989   4.113   1.098 -0.0299  0.0548 -0.3369
  119MOL0     C15986   1.076   4.038   1.177 -0.4406  0.0617  0.1682
  119MOL0     C15987   1.121   3.918   1.138  0.1885  0.6994 -0.9321
  119MOL0     C15988   1.077   3.854   1.025  0.7751 -1.1491 -0.4340
  119MOL0     O15989   1.108   3.726   0.992  0.3482  0.5004  0.0017
  119MOL0     C15990   1.144   3.701   0.856 -0.4321  0.4839  0.2025
  119MOL0     C15991   1.260   3.594   0.858  0.6545  0.2083  0.3490
  119MOL0     C15992   1.219   3.460   0.924 -0.0769  0.0993  0.2139
  119MOL0     C15993   1.337   3.358   0.904 -0.6929 -0.5014 -0.4021
  119MOL0     C15994   1.312   3.222   0.949 -0.3118  0.0141 -0.0710
  119MOL0     C15995   1.302   3.105   0.991 -0.2843  0.2233  0.1295
  119MOL0     C15996   0.992   3.931   0.943  0.1083  0.1404  0.1596
  119MOL0     C15997   0.948   4.059   0.976 -0.0425  0.3122  0.3735
  119MOL0     H15998   0.885   4.544   1.088  1.1286  0.2420  2.0371
  119MOL0     H15999   0.785   4.700   1.234  1.6762 -0.7920 -0.9755
  119MOL0     H16000   0.371   4.624   1.421  0.5910  1.5669 -0.8222
  119MOL0     H16001   0.487   4.529   1.523  3.3578  0.9066  0.7380
  119MOL0     H16002   0.549   4.723   1.659 -0.3908 -3.3412  1.2818
  119MOL0     H16003   0.445   4.825   1.545 -2.4531 -1.5926 -2.2840
  119MOL0     H16004   0.247   4.758   1.656  1.8491 -0.0731 -2.2068
  119MOL0     H16005   0.306   4.610   1.726  0.1617 -0.5495  0.3234
  119MOL0     H16006   0.466   4.724   1.875 -1.2262  2.3431  3.9966
  119MOL0     H16007   0.432   4.881   1.810  1.8438 -0.0559 -0.5737
  119MOL0     H16008   0.213   4.702   1.914  0.3543  0.9719 -3.1420
  119MOL0     H16009   0.316   4.800   2.028  0.6826  0.8223  1.2280
  119MOL0     H16010   0.253   5.001   1.919 -0.4273  0.9107  4.1813
  119MOL0     H16011   0.146   4.923   1.808  2.2416 -2.0687 -1.0017
  119MOL0     H16012  -0.001   4.862   2.005  2.3302 -2.7778 -1.9803
  119MOL0     H16013   0.134   4.910   2.117 -0.1247  0.7027  0.8232
  119MOL0     H16014  -0.042   5.055   1.923  2.8094  0.1875 -2.7053
  119MOL0     H16015   0.098   5.140   1.985  0.6289 -1.3808 -4.7278
  119MOL0     H16016   0.083   5.061   2.302 -0.2114  0.8739  1.2120
  119MOL0     H16017  -0.100   5.100   2.549 -0.9779  0.1105 -1.2602
  119MOL0     H16018   0.009   5.234   2.502 -0.4190  2.8931  2.1589
  119MOL0     H16019  -0.292   5.242   2.562 -0.4107  0.2877  2.4390
  119MOL0     H16020  -0.195   5.384   2.497  1.3996  1.4519  2.6564
  119MOL0     H16021  -0.052   5.353   2.711  0.4635 -1.9374  0.7942
  119MOL0     H16022  -0.159   5.235   2.763  2.3782 -0.8248 -1.0325
  119MOL0     H16023  -0.363   5.384   2.737 -1.0347  1.5581 -0.4260
  119MOL0     H16024  -0.259   5.516   2.692 -2.0488  0.3321 -1.0620
  119MOL0     H16025  -0.286   5.706   2.815 -2.6232  1.4125 -0.4006
  119MOL0     H16026  -0.422   5.973   2.977 -0.0078 -0.1432 -0.0297
  119MOL0     H16027  -0.369   5.911   2.817  2.6236 -0.7663  1.9020
  119MOL0     H16028  -0.547   5.921   2.865  0.4243 -0.7583  0.1480
  119MOL0     H16029  -0.585   6.093   3.245  0.9495  1.3175  0.1621
  119MOL0     H16030  -0.722   6.241   3.362 -0.3735 -0.8901 -0.6766
  119MOL0     H16031  -1.099   6.171   3.530  0.6711  0.0197 -0.9799
  119MOL0     H16032  -1.047   6.028   3.594  0.1879  0.6708  0.1889
  119MOL0     H16033  -1.016   6.292   3.748 -3.0077  0.8641  3.6674
  119MOL0     H16034  -1.163   6.191   3.747 -0.2785 -1.4808 -0.7209
  119MOL0     H16035  -0.885   6.097   3.843  0.2453 -0.8657  1.2338
  119MOL0     H16036  -1.033   6.010   3.858  2.4850 -0.9392 -0.1883
  119MOL0     H16037  -1.024   6.292   3.966  0.1706 -0.1590 -4.0974
  119MOL0     H16038  -1.141   6.169   3.995 -1.0454 -0.0661 -0.8259
  119MOL0     H16039  -0.921   6.216   4.169  1.7316  1.0390 -0.1606
  119MOL0     H16040  -0.852   6.094   4.057 -0.7876  0.4666 -1.5426
  119MOL0     H16041  -1.047   5.945   4.117  1.1956 -0.1752 -1.1777
  119MOL0     H16042  -0.935   5.967   4.251 -3.0481  0.9138  3.6204
  119MOL0     H16043  -1.187   6.117   4.222 -0.3377 -1.5772  0.5416
  119MOL0     H16044  -1.059   6.152   4.332  0.4729 -0.8675  1.6534
  119MOL0     H16045  -1.090   5.909   4.411 -0.0918 -1.9626 -0.4628
  119MOL0     H16046  -1.225   5.891   4.313 -0.2855  1.1223 -2.1128
  119MOL0     H16047  -0.870   5.906   3.612  3.9824 -2.4422  1.3290
  119MOL0     H16048  -0.735   5.757   3.482  1.7031  0.0516  1.7866
  119MOL0     H16049  -0.516   5.586   3.233 -3.0025 -0.7708 -1.2797
  119MOL0     H16050  -0.344   5.442   3.145 -1.4318 -2.6124 -2.5467
  119MOL0     H16051   0.488   4.399   1.352  0.9792 -0.0490  1.5574
  119MOL0     H16052   0.617   4.230   1.236  2.2011 -1.0491 -0.1826
  119MOL0     H16053   1.116   4.081   1.268  0.7078  1.9861 -1.1717
  119MOL0     H16054   1.195   3.867   1.200 -2.1443  0.4045  1.8102
  119MOL0     H16055   1.064   3.643   0.809  0.0318 -3.6237  3.7704
  119MOL0     H16056   1.175   3.795   0.810 -0.4957  2.5462  3.9387
  119MOL0     H16057   1.345   3.639   0.910  1.5094 -1.0253  0.0766
  119MOL0     H16058   1.291   3.576   0.755  2.7935 -2.5569  1.3344
  119MOL0     H16059   1.122   3.434   0.881 -1.1882  1.4641  1.7550
  119MOL0     H16060   1.215   3.474   1.033  1.2232 -0.6055  0.3716
  119MOL0     H16061   1.415   3.403   0.966 -0.7312 -2.6155  1.3383
  119MOL0     H16062   1.371   3.351   0.801  1.1321  0.6345  0.0608
  119MOL0     H16063   1.300   3.000   1.010 -0.0681  0.1376 -0.3108
  119MOL0     H16064   0.934   3.887   0.863  1.3346  1.2823 -1.4204
  119MOL0     H16065   0.864   4.091   0.915 -0.8773  0.9089  1.7914
  120MOL0     O16066  10.991   9.858   8.659 -0.3164 -0.0054  0.0157
  120MOL0     C16067  10.997   9.976   8.612 -0.6001  0.4457 -0.3231
  120MOL0     O16068  10.907  10.072   8.632  1.2202 -0.2521  0.5041
  120MOL0     C16069  10.783  10.043   8.687 -0.7460  0.0858  0.3132
  120MOL0     C16070  10.695   9.943   8.642 -0.4259 -0.3122  0.1044
  120MOL0     C16071  10.559   9.942   8.681  0.5731 -0.7044 -0.4978
  120MOL0     C16072  10.515  10.044   8.771 -0.1029 -0.5082  0.1390
  120MOL0     O16073  10.381  10.058   8.801  0.9553 -0.1831 -0.2768
  120MOL0     C16074  10.296   9.943   8.778  0.0216 -0.3811  0.4666
  120MOL0     C16075  10.155   9.969   8.826  0.1252 -0.4101  0.6202
  120MOL0     C16076  10.082  10.079   8.768  0.8271 -1.6377  0.8792
  120MOL0     C16077   9.951  10.109   8.843 -0.2665 -0.2685  0.0050
  120MOL0     C16078   9.918  10.252   8.827 -0.0873 -1.0097 -0.9255
  120MOL0     C16079   9.839  10.279   8.703 -1.2106  0.7274  0.1438
  120MOL0     C16080   9.685  10.282   8.717 -0.1986 -0.1107 -0.3825
  120MOL0     C16081   9.633  10.394   8.820  0.3690 -0.8499  0.0534
  120MOL0     N16082   9.487  10.423   8.799 -0.7998  0.2177 -0.0964
  120MOL0     C16083   9.383  10.328   8.784  0.1333 -0.8987  0.9704
  120MOL0     C16084   9.278  10.409   8.773  0.9477 -0.4550 -0.4201
  120MOL0     C16085   9.124  10.385   8.761  0.1331  0.2445  0.3223
  120MOL0     C16086   9.088  10.264   8.849  0.3426  0.8033  0.3885
  120MOL0     C16087   8.936  10.246   8.840  0.7017 -0.3113 -0.5446
  120MOL0     C16088   8.865  10.118   8.892  0.2861 -0.0190 -0.0788
  120MOL0     O16089   8.969  10.019   8.924  0.6400  0.1336  0.8375
  120MOL0     C16090   8.918   9.897   8.953 -0.5937  0.0143 -0.1562
  120MOL0     C16091   8.782   9.867   8.966 -0.3142  0.9252  0.1812
  120MOL0     C16092   8.742   9.731   8.995 -0.3137  0.7762  0.4135
  120MOL0     C16093   8.592   9.706   8.989  0.0709  0.7641 -0.0403
  120MOL0     C16094   8.833   9.631   9.026 -0.0964  0.0185 -0.1260
  120MOL0     C16095   8.790   9.488   9.068 -0.0286 -1.2528  0.3599
  120MOL0     O16096   8.669   9.477   9.116 -0.3908  0.3817 -0.2692
  120MOL0     C16097   8.610   9.365   9.178  0.8610 -0.4231  0.1653
  120MOL0     C16098   8.472   9.375   9.221 -0.6076 -0.5495  0.3951
  120MOL0     C16099   8.398   9.268   9.274 -0.1608  0.0916 -0.5330
  120MOL0     C16100   8.463   9.137   9.281  0.1949 -0.3013  1.0531
  120MOL0     O16101   8.407   9.011   9.321 -0.3209 -1.0653 -0.5168
  120MOL0     C16102   8.265   9.009   9.335  0.3554  0.4707 -0.0961
  120MOL0     C16103   8.225   8.865   9.398 -0.4384  0.1116 -0.4277
  120MOL0     C16104   8.070   8.874   9.406  0.8180 -0.0234 -0.2905
  120MOL0     C16105   7.998   8.789   9.515  0.5243 -0.4839 -0.1734
  120MOL0     C16106   7.853   8.831   9.519  0.1379  0.0523  0.2956
  120MOL0     C16107   7.785   8.763   9.640  0.2089 -0.5056  0.2773
  120MOL0     C16108   7.633   8.784   9.639  0.0132 -0.1347 -0.3936
  120MOL0     C16109   7.578   8.719   9.766 -0.5386  0.1058  0.0050
  120MOL0    Cl16110   7.630   8.800   9.918 -0.1352  0.0630 -0.3199
  120MOL0     C16111   8.595   9.129   9.233  0.4301 -0.2333 -1.1956
  120MOL0     C16112   8.665   9.240   9.186 -0.4366 -0.4687 -0.9302
  120MOL0     O16113   8.871   9.405   9.046  0.0921 -0.2166 -0.2953
  120MOL0     C16114   8.966   9.667   9.010 -0.9365  0.0641 -0.2597
  120MOL0     C16115   9.009   9.793   8.978  0.0850  0.2426  0.1079
  120MOL0     N16116   9.312  10.545   8.783  0.1595 -0.0877  0.0982
  120MOL0     N16117   9.437  10.553   8.802  0.6402  1.0245  0.2830
  120MOL0     C16118  10.612  10.131   8.828  0.0708 -0.7621  0.1757
  120MOL0     C16119  10.745  10.127   8.790  0.4205 -0.2428  0.5386
  120MOL0     C16120  11.123  10.010   8.541  0.4662  0.3879 -0.5177
  120MOL0     C16121  11.236   9.936   8.576  0.2438 -0.3677  0.0414
  120MOL0     C16122  11.364   9.974   8.540 -0.6824  0.2620 -0.4962
  120MOL0     C16123  11.393  10.089   8.463  0.6382  1.1504  0.6703
  120MOL0     O16124  11.517  10.140   8.436 -0.2774  0.4005 -0.2937
  120MOL0     C16125  11.641  10.056   8.443  1.1085  0.2132 -1.5124
  120MOL0     C16126  11.766  10.111   8.394 -0.1697  0.2889 -0.3959
  120MOL0     C16127  11.900  10.025   8.410  0.3021  0.3583  0.0285
  120MOL0     C16128  11.949  10.019   8.553 -0.4177  0.4339  0.1626
  120MOL0     C16129  11.887   9.909   8.624  0.4663  0.2747  0.6251
  120MOL0     C16130  11.828   9.827   8.683  0.0759  0.0267  0.0997
  120MOL0     C16131  11.276  10.155   8.422 -0.4761  0.2564  1.0893
  120MOL0     C16132  11.147  10.123   8.458 -0.7483 -0.6038 -0.2326
  120MOL0     H16133  10.726   9.871   8.567  2.4158 -0.1445  1.0081
  120MOL0     H16134  10.506   9.860   8.634  1.6872 -1.7168 -0.0388
  120MOL0     H16135  10.286   9.934   8.670 -0.4021 -0.8085  0.5356
  120MOL0     H16136  10.328   9.853   8.831  0.9324 -0.1830  0.2725
  120MOL0     H16137  10.098   9.877   8.808  0.0781 -0.3118  0.2673
  120MOL0     H16138  10.152   9.987   8.934  2.5977 -1.1796  0.8746
  120MOL0     H16139  10.143  10.169   8.773  2.0084 -2.4574  1.8447
  120MOL0     H16140  10.066  10.055   8.662  1.8812  2.2482 -0.3363
  120MOL0     H16141   9.878  10.031   8.821  1.5855 -1.7791 -1.1789
  120MOL0     H16142   9.978  10.099   8.948 -2.8593 -1.2816  0.6361
  120MOL0     H16143   9.859  10.268   8.918 -0.1394 -1.8965 -0.7911
  120MOL0     H16144  10.000  10.323   8.827  2.0347 -3.3000 -1.6429
  120MOL0     H16145   9.882  10.370   8.660  2.5064  0.5476  2.9632
  120MOL0     H16146   9.869  10.201   8.632  1.2677  2.7262 -1.1724
  120MOL0     H16147   9.643  10.298   8.618 -0.3234  0.5415 -0.2311
  120MOL0     H16148   9.655  10.183   8.751 -0.6998  0.2686  0.3064
  120MOL0     H16149   9.685  10.484   8.786 -0.5839 -0.6394 -0.8592
  120MOL0     H16150   9.663  10.381   8.925  0.8979  1.7829  0.2969
  120MOL0     H16151   9.384  10.222   8.804  2.7832 -0.6221  2.8615
  120MOL0     H16152   9.074  10.476   8.792  0.8415  0.8126 -0.1553
  120MOL0     H16153   9.112  10.360   8.655  1.1946  0.8718  0.0378
  120MOL0     H16154   9.124  10.266   8.952  0.7947 -2.6692  0.4129
  120MOL0     H16155   9.131  10.170   8.813 -0.6143  1.4085 -2.6068
  120MOL0     H16156   8.903  10.252   8.736  3.3522  1.4401 -1.3730
  120MOL0     H16157   8.892  10.321   8.905 -0.6321  0.6805 -2.4872
  120MOL0     H16158   8.795  10.089   8.813  1.2534 -1.1111 -0.5635
  120MOL0     H16159   8.804  10.138   8.981  1.5088 -0.2196  0.8221
  120MOL0     H16160   8.701   9.939   8.957  0.6383  1.7857 -2.5739
  120MOL0     H16161   8.542   9.785   8.932 -1.4622 -1.6589 -2.3005
  120MOL0     H16162   8.570   9.606   8.950  0.3893 -0.0824  1.8809
  120MOL0     H16163   8.550   9.691   9.089 -0.3948 -0.0995 -0.3514
  120MOL0     H16164   8.416   9.468   9.218  2.2957  1.3207 -2.4830
  120MOL0     H16165   8.297   9.290   9.306  0.5995  0.8303  1.5244
  120MOL0     H16166   8.223   9.095   9.387  0.3166  1.0823 -1.1136
  120MOL0     H16167   8.212   9.009   9.239  2.0122 -0.7344 -1.0816
  120MOL0     H16168   8.260   8.786   9.331  1.9729  2.4538 -2.2128
  120MOL0     H16169   8.270   8.858   9.498 -3.2066 -1.9982  0.7782
  120MOL0     H16170   8.026   8.847   9.310 -2.0200  1.5068  0.4749
  120MOL0     H16171   8.043   8.978   9.425 -2.2341 -0.3092 -2.4612
  120MOL0     H16172   8.003   8.680   9.513 -0.4169 -0.5350 -0.4035
  120MOL0     H16173   8.037   8.820   9.612 -3.0777  2.1714  0.6452
  120MOL0     H16174   7.799   8.803   9.428 -0.9287 -1.9625  1.4787
  120MOL0     H16175   7.840   8.939   9.529 -0.0632  0.3159 -2.2072
  120MOL0     H16176   7.807   8.656   9.646  1.4277 -0.2209  1.1420
  120MOL0     H16177   7.828   8.816   9.725  0.0688  0.5478 -0.2776
  120MOL0     H16178   7.595   8.739   9.547  2.1267 -3.7383  0.2886
  120MOL0     H16179   7.603   8.889   9.640 -1.8545 -0.5929 -1.9791
  120MOL0     H16180   7.620   8.618   9.765 -1.2640 -0.2953 -3.5222
  120MOL0     H16181   7.470   8.708   9.757 -0.6445  2.1888 -2.6450
  120MOL0     H16182   8.634   9.029   9.221 -0.9886 -1.0086  0.2883
  120MOL0     H16183   8.768   9.224   9.158  0.4324  0.3555  1.5513
  120MOL0     H16184   9.053   9.602   9.001 -1.3789 -0.4201 -1.1045
  120MOL0     H16185   9.113   9.810   8.953 -0.0037  1.9533  0.7750
  120MOL0     H16186  10.569  10.213   8.884 -0.0564  0.5403 -1.7249
  120MOL0     H16187  10.815  10.206   8.817  2.1017 -1.6766  0.5122
  120MOL0     H16188  11.237   9.849   8.641  1.0904 -0.9710 -0.7438
  120MOL0     H16189  11.444   9.920   8.590 -0.8339 -1.5111 -2.0713
  120MOL0     H16190  11.652  10.021   8.546  1.6978 -0.0370 -1.6521
  120MOL0     H16191  11.618   9.970   8.379 -0.4582 -0.3158 -0.2950
  120MOL0     H16192  11.783  10.202   8.452  2.3059 -1.4871  1.9092
  120MOL0     H16193  11.738  10.127   8.289 -3.1958 -1.8399 -0.0646
  120MOL0     H16194  11.973  10.086   8.356  0.3454  0.0124 -0.3101
  120MOL0     H16195  11.879   9.932   8.356 -0.5345  2.2926 -3.2807
  120MOL0     H16196  11.924  10.113   8.603  0.9048  0.0427  1.6401
  120MOL0     H16197  12.056  10.006   8.573 -0.7644  1.8433  3.6289
  120MOL0     H16198  11.775   9.744   8.724 -0.5475 -0.6885 -1.9943
  120MOL0     H16199  11.297  10.235   8.353  0.5459  0.2990  1.4361
  120MOL0     H16200  11.067  10.194   8.438 -0.5017 -0.0189  0.7503
  121MOL0     O16201   3.429   2.158   9.298 -1.0464  0.3376  0.8398
  121MOL0     C16202   3.419   2.114   9.413  0.5075  0.4071 -0.0528
  121MOL0     O16203   3.522   2.096   9.502 -0.3616  0.3880  0.9288
  121MOL0     C16204   3.649   2.142   9.484  0.2099 -0.3552  0.0414
  121MOL0     C16205   3.695   2.252   9.408 -0.5296 -0.9708 -0.6003
  121MOL0     C16206   3.825   2.280   9.388 -0.3616 -0.4271 -0.9492
  121MOL0     C16207   3.930   2.188   9.419 -0.3147  0.2970  0.1837
  121MOL0     O16208   4.064   2.192   9.380 -0.4202 -0.5266 -0.3726
  121MOL0     C16209   4.123   2.313   9.331  0.7378 -0.1012 -0.1959
  121MOL0     C16210   4.252   2.296   9.259 -0.2455 -0.1486  0.9727
  121MOL0     C16211   4.368   2.259   9.355  0.0566 -0.0763 -0.0591
  121MOL0     C16212   4.444   2.382   9.411 -0.8928 -0.4938 -0.3270
  121MOL0     C16213   4.537   2.365   9.535 -0.0751  0.5907 -0.3044
  121MOL0     C16214   4.636   2.253   9.510  0.5666  0.6666  0.0498
  121MOL0     C16215   4.744   2.227   9.628  0.5044 -0.3646 -0.5754
  121MOL0     C16216   4.793   2.359   9.684 -0.2137  0.9673  0.1799
  121MOL0     N16217   4.717   2.415   9.798  0.1626  0.7659  0.0673
  121MOL0     C16218   4.702   2.550   9.828 -0.0699 -0.1160 -0.6458
  121MOL0     C16219   4.623   2.544   9.935  0.1791  0.5434  0.7514
  121MOL0     C16220   4.612   2.659  10.027  0.8595  0.0068 -0.0665
  121MOL0     C16221   4.470   2.698  10.039 -0.2391  0.2743  0.1170
  121MOL0     C16222   4.451   2.826  10.125  0.3047  0.4397  0.9703
  121MOL0     C16223   4.301   2.864  10.134  0.0575  0.1301 -1.0821
  121MOL0     O16224   4.235   2.858  10.007  0.8058 -0.4133 -0.4897
  121MOL0     C16225   4.102   2.890   9.991 -0.0518  0.6382 -0.0841
  121MOL0     C16226   4.038   2.886   9.866  0.3714 -0.2026  0.1968
  121MOL0     C16227   3.906   2.916   9.849  0.0336  0.3968 -0.2910
  121MOL0     C16228   3.850   2.911   9.715 -0.0733 -0.4459  0.8760
  121MOL0     C16229   3.831   2.964   9.953 -1.0612  0.2229  0.8107
  121MOL0     C16230   3.690   3.006   9.944  0.2789  0.4646 -0.1200
  121MOL0     O16231   3.611   2.900   9.918 -0.1949 -0.3448  0.1103
  121MOL0     C16232   3.469   2.932   9.923 -1.3646 -0.5466  0.2380
  121MOL0     C16233   3.388   2.940   9.809 -0.4129  0.4552  1.1702
  121MOL0     C16234   3.250   2.961   9.811  0.2332  0.4706 -0.6374
  121MOL0     C16235   3.184   2.984   9.930 -0.6390 -0.3718 -0.5528
  121MOL0     O16236   3.045   2.989   9.942  0.1127  0.4335  0.5849
  121MOL0     C16237   2.962   2.980   9.824  1.0794 -0.8236 -0.9297
  121MOL0     C16238   2.820   3.013   9.864  0.0654 -0.0764  0.4128
  121MOL0     C16239   2.795   3.133   9.954 -0.5736 -0.1931  0.1014
  121MOL0     C16240   2.802   3.264   9.877  0.2680 -0.0189  0.0127
  121MOL0     C16241   2.811   3.392   9.967  0.5024  0.6295  0.5921
  121MOL0     C16242   2.924   3.380  10.066 -0.0053  0.0923  0.6216
  121MOL0     C16243   2.965   3.493  10.158 -0.3246  0.8116  0.4311
  121MOL0     C16244   3.098   3.548  10.129  0.2538  0.2090  0.6484
  121MOL0    Cl16245   3.236   3.473  10.229  0.1152 -0.4943  0.3272
  121MOL0     C16246   3.263   2.986  10.043 -0.0897 -0.3068 -0.4241
  121MOL0     C16247   3.403   2.965  10.039 -0.1495 -0.6615 -0.3452
  121MOL0     O16248   3.658   3.123   9.963  0.2732 -0.1393 -0.7092
  121MOL0     C16249   3.891   2.968  10.083 -0.5679  0.1054 -0.2249
  121MOL0     C16250   4.024   2.931  10.105 -0.3413 -0.0333 -0.1211
  121MOL0     N16251   4.599   2.410   9.969  0.3174 -0.8399  0.3582
  121MOL0     N16252   4.661   2.328   9.886 -0.6200 -0.3989  0.1684
  121MOL0     C16253   3.884   2.091   9.512 -0.7722  0.1499 -0.0649
  121MOL0     C16254   3.755   2.073   9.540  0.2226  0.7755  0.0546
  121MOL0     C16255   3.283   2.070   9.460  0.7422 -0.2448 -0.0561
  121MOL0     C16256   3.191   2.003   9.377 -0.3213  0.4202  0.1576
  121MOL0     C16257   3.066   1.957   9.430 -0.1037  0.6648  0.0468
  121MOL0     C16258   3.040   1.982   9.570 -0.2850  0.7264 -0.3697
  121MOL0     O16259   2.931   1.939   9.648  0.4232 -0.1273  0.1416
  121MOL0     C16260   2.825   1.887   9.566 -0.0234 -0.9902  0.4108
  121MOL0     C16261   2.698   1.866   9.650  1.0405  0.5379  0.8011
  121MOL0     C16262   2.564   1.854   9.574  0.3625 -0.4057  0.4042
  121MOL0     C16263   2.530   1.990   9.510  0.1287  0.1223  0.4607
  121MOL0     C16264   2.538   2.098   9.606  0.3940 -0.2662  0.3768
  121MOL0     C16265   2.549   2.195   9.679 -0.7086  0.6156 -0.4641
  121MOL0     C16266   3.125   2.050   9.651  0.1467 -0.3236  0.1243
  121MOL0     C16267   3.248   2.096   9.600  0.4815 -0.1614  0.1995
  121MOL0     H16268   3.614   2.323   9.391 -1.0406 -1.1894  0.7769
  121MOL0     H16269   3.849   2.377   9.347 -1.5515  0.0286 -0.6066
  121MOL0     H16270   4.048   2.350   9.261 -0.3316 -2.0716 -0.1811
  121MOL0     H16271   4.133   2.396   9.401  0.0302 -0.2804  0.1313
  121MOL0     H16272   4.239   2.228   9.174 -1.4968  0.5877  0.5481
  121MOL0     H16273   4.276   2.388   9.205 -1.1876 -2.0053 -3.0249
  121MOL0     H16274   4.333   2.203   9.442 -0.8541  0.9516  0.2591
  121MOL0     H16275   4.439   2.195   9.302 -1.3999 -1.5805 -0.2739
  121MOL0     H16276   4.505   2.412   9.326  3.3599 -1.0510  2.2261
  121MOL0     H16277   4.374   2.464   9.433 -0.2516  0.2008 -0.8167
  121MOL0     H16278   4.588   2.462   9.533  0.0223  0.5438 -0.1050
  121MOL0     H16279   4.490   2.347   9.632 -1.3182 -2.1851 -1.3019
  121MOL0     H16280   4.586   2.157   9.492 -0.5011  1.3135 -0.5015
  121MOL0     H16281   4.686   2.269   9.414  1.6803  3.0677  0.9548
  121MOL0     H16282   4.696   2.174   9.710 -1.7836  0.7854 -1.0813
  121MOL0     H16283   4.828   2.170   9.587  2.6023 -1.0389  4.0342
  121MOL0     H16284   4.792   2.428   9.599  0.9602  0.7731 -0.0109
  121MOL0     H16285   4.894   2.353   9.725 -0.2729  2.7745  0.6688
  121MOL0     H16286   4.756   2.637   9.791  1.5639 -1.7069 -2.1953
  121MOL0     H16287   4.658   2.632  10.122 -1.6682 -2.5416  0.5672
  121MOL0     H16288   4.669   2.742   9.984 -0.9140  0.0778 -2.4888
  121MOL0     H16289   4.410   2.620  10.085  0.2557 -0.2864 -0.1778
  121MOL0     H16290   4.429   2.712   9.938  1.7440 -1.9862 -1.0948
  121MOL0     H16291   4.505   2.904  10.070  1.6638 -0.4657  0.9843
  121MOL0     H16292   4.486   2.800  10.225 -1.1680  1.6619  1.8419
  121MOL0     H16293   4.301   2.967  10.169 -1.4830 -0.7065  1.6662
  121MOL0     H16294   4.252   2.803  10.211 -1.2870  2.1931 -0.2133
  121MOL0     H16295   4.101   2.848   9.787 -0.4023  0.4110 -0.7343
  121MOL0     H16296   3.813   3.012   9.695  1.3371  0.5199  2.7419
  121MOL0     H16297   3.914   2.863   9.641  1.0340  0.5887  1.1220
  121MOL0     H16298   3.758   2.852   9.711  0.2839 -0.9472 -1.7546
  121MOL0     H16299   3.435   2.935   9.711  0.0098 -1.4779  1.4392
  121MOL0     H16300   3.198   2.959   9.716  0.6684  1.2410 -0.9063
  121MOL0     H16301   2.986   3.059   9.752 -0.3315 -1.0621 -1.7038
  121MOL0     H16302   2.985   2.887   9.773  2.5968 -2.0947  1.8362
  121MOL0     H16303   2.768   3.029   9.769  0.6819  0.1490  0.1112
  121MOL0     H16304   2.771   2.922   9.901  1.6432 -0.3003  2.0788
  121MOL0     H16305   2.870   3.141  10.032 -1.8984  0.8471  1.3302
  121MOL0     H16306   2.695   3.112   9.992 -1.3250  0.3347 -1.4843
  121MOL0     H16307   2.886   3.260   9.807 -1.2369  1.2822 -1.9853
  121MOL0     H16308   2.711   3.271   9.817  0.1268  1.5556  0.3716
  121MOL0     H16309   2.717   3.410  10.019  1.2260 -0.9947  2.6445
  121MOL0     H16310   2.839   3.473   9.899 -1.4899  0.2482 -0.7723
  121MOL0     H16311   2.896   3.307  10.142  1.6427 -0.6012  0.6111
  121MOL0     H16312   3.013   3.341  10.015  0.3726  0.5903  0.8976
  121MOL0     H16313   2.955   3.456  10.261 -0.3112  1.4839  0.6810
  121MOL0     H16314   2.895   3.571  10.128 -0.5438 -0.6424 -3.4767
  121MOL0     H16315   3.106   3.655  10.150  4.0057  0.4582 -1.3170
  121MOL0     H16316   3.131   3.539  10.025 -1.7956  0.7266 -0.1049
  121MOL0     H16317   3.231   3.005  10.144  2.8975  3.2694  0.0326
  121MOL0     H16318   3.461   2.962  10.131 -3.2294 -4.4218  1.7747
  121MOL0     H16319   3.833   3.005  10.167  0.5551 -0.1553  0.6832
  121MOL0     H16320   4.069   2.922  10.203  2.6822 -1.1184 -1.4934
  121MOL0     H16321   3.954   2.022   9.558 -0.7683  0.8036  0.9410
  121MOL0     H16322   3.743   1.990   9.609  1.8321 -0.5998 -1.2386
  121MOL0     H16323   3.205   1.996   9.270 -0.5674  0.5293  0.1169
  121MOL0     H16324   3.008   1.906   9.353  0.0936  1.2923 -0.5349
  121MOL0     H16325   2.804   1.968   9.495  0.7144  0.0755  1.3661
  121MOL0     H16326   2.845   1.796   9.510 -0.5492 -0.0030 -1.4715
  121MOL0     H16327   2.686   1.938   9.731  1.6334  1.1044  0.3974
  121MOL0     H16328   2.717   1.777   9.710  2.4304 -0.2483 -0.7445
  121MOL0     H16329   2.483   1.807   9.631 -0.9165 -0.8407 -1.6833
  121MOL0     H16330   2.567   1.781   9.493  0.3226  1.8967 -1.7867
  121MOL0     H16331   2.440   1.999   9.450  0.3095 -1.7069 -0.1455
  121MOL0     H16332   2.603   2.021   9.434 -0.7367  2.2252  0.4242
  121MOL0     H16333   2.575   2.280   9.738  2.9462 -0.1954 -0.6954
  121MOL0     H16334   3.099   2.067   9.755 -0.2695 -1.8051  0.2894
  121MOL0     H16335   3.306   2.156   9.669 -1.0852 -0.9823  2.3272
  122MOL0     O16336   0.574   1.301   0.059 -0.0665 -0.5208  1.5397
  122MOL0     C16337   0.621   1.261   0.171 -0.3755 -0.2229  0.1347
  122MOL0     O16338   0.749   1.218   0.192  0.4625  0.0529 -0.0559
  122MOL0     C16339   0.834   1.202   0.092 -0.7328 -0.2606  1.0697
  122MOL0     C16340   0.875   1.077   0.033  0.5102 -0.7203 -0.1687
  122MOL0     C16341   0.947   1.063  -0.081 -0.6956 -0.3469  0.0843
  122MOL0     C16342   1.001   1.179  -0.137 -0.3478  0.1583  0.7321
  122MOL0     O16343   1.096   1.183  -0.238  0.1670  0.8281 -0.6058
  122MOL0     C16344   1.101   1.065  -0.332 -1.2433 -0.1660 -1.6200
  122MOL0     C16345   1.227   1.082  -0.420  0.4799 -0.0663  0.7484
  122MOL0     C16346   1.221   0.984  -0.543  0.0162 -0.5507  0.4439
  122MOL0     C16347   1.322   1.034  -0.656  0.9419  0.0428  0.4759
  122MOL0     C16348   1.287   0.950  -0.779 -1.0529 -0.1453 -0.3975
  122MOL0     C16349   1.359   0.994  -0.908  0.4023 -0.3787 -0.2174
  122MOL0     C16350   1.510   0.955  -0.922  0.4606 -0.4190 -1.0793
  122MOL0     C16351   1.588   1.014  -1.038 -0.8871  0.4199 -0.1709
  122MOL0     N16352   1.611   1.158  -1.032  0.9010  0.0640 -0.0668
  122MOL0     C16353   1.643   1.240  -0.924 -0.3038 -0.2733  0.1564
  122MOL0     C16354   1.659   1.366  -0.978 -1.3667  0.7297 -1.0120
  122MOL0     C16355   1.710   1.487  -0.896  1.0624 -0.6097  0.2759
  122MOL0     C16356   1.789   1.447  -0.773 -0.1431 -0.2967 -0.4582
  122MOL0     C16357   1.858   1.566  -0.711 -0.1625  0.0942  0.6229
  122MOL0     C16358   1.962   1.621  -0.810  0.1406 -0.3520  0.3554
  122MOL0     O16359   2.081   1.672  -0.744 -0.4859 -0.0864  0.5272
  122MOL0     C16360   2.180   1.592  -0.704 -0.7389  0.6860 -0.0902
  122MOL0     C16361   2.278   1.649  -0.624 -0.5513 -0.4205 -0.9521
  122MOL0     C16362   2.393   1.580  -0.579 -0.5052 -0.0368 -0.2970
  122MOL0     C16363   2.483   1.664  -0.478  0.5911  0.6270  0.4958
  122MOL0     C16364   2.411   1.443  -0.603  0.6107 -0.5817  0.1294
  122MOL0     C16365   2.520   1.364  -0.550  0.1128  0.8980 -0.0295
  122MOL0     O16366   2.486   1.241  -0.521 -0.4442  0.5117 -0.3105
  122MOL0     C16367   2.590   1.147  -0.527 -0.9743 -0.8479  0.3718
  122MOL0     C16368   2.703   1.159  -0.619 -0.2849 -0.1876  0.1609
  122MOL0     C16369   2.804   1.063  -0.612 -0.0711  0.1026 -0.4672
  122MOL0     C16370   2.792   0.954  -0.528 -0.1268 -0.5937  0.3381
  122MOL0     O16371   2.884   0.850  -0.522 -0.5049  0.4472  0.5107
  122MOL0     C16372   3.010   0.868  -0.592 -0.6538 -0.2159  0.0752
  122MOL0     C16373   3.122   0.766  -0.560 -0.1303  0.2794 -1.1265
  122MOL0     C16374   3.071   0.620  -0.580  0.4519  0.4437  0.6074
  122MOL0     C16375   3.191   0.523  -0.549 -1.1057 -0.5618  0.3273
  122MOL0     C16376   3.204   0.411  -0.659  0.4535 -0.2063 -0.1204
  122MOL0     C16377   3.305   0.296  -0.616  0.3707  0.3664 -0.8820
  122MOL0     C16378   3.310   0.190  -0.720 -0.3908  0.4016  0.5911
  122MOL0     C16379   3.267   0.059  -0.660 -0.2805 -0.1737 -0.2112
  122MOL0    Cl16380   3.274  -0.086  -0.777 -0.2561 -0.1636  0.2764
  122MOL0     C16381   2.682   0.936  -0.447  0.4703  0.4743 -0.1380
  122MOL0     C16382   2.587   1.039  -0.438 -0.0065 -0.8262 -0.2115
  122MOL0     O16383   2.623   1.419  -0.533 -0.0780 -0.2076 -0.0082
  122MOL0     C16384   2.308   1.380  -0.678  0.5827 -0.1942  0.3955
  122MOL0     C16385   2.199   1.453  -0.729 -0.1351 -0.0964  0.5413
  122MOL0     N16386   1.651   1.363  -1.121  0.5523 -0.3631 -0.0235
  122MOL0     N16387   1.599   1.249  -1.142  0.5439 -0.0355  0.4961
  122MOL0     C16388   0.985   1.300  -0.081  0.3342  0.1114  0.2695
  122MOL0     C16389   0.903   1.316   0.029  1.1040  0.0065 -0.4681
  122MOL0     C16390   0.519   1.242   0.273 -0.3018  0.3992  0.2107
  122MOL0     C16391   0.394   1.307   0.261 -0.6857  0.2608 -0.0716
  122MOL0     C16392   0.311   1.311   0.370  0.4981 -0.1550  0.2123
  122MOL0     C16393   0.343   1.239   0.490  0.4838 -0.2002 -0.0166
  122MOL0     O16394   0.275   1.245   0.614  0.0005 -0.8462  1.0699
  122MOL0     C16395   0.165   1.346   0.622  0.0617  1.1199  0.6099
  122MOL0     C16396   0.218   1.483   0.640 -0.2219 -0.8755 -0.1756
  122MOL0     C16397   0.292   1.504   0.778 -0.1088  0.1995  0.7171
  122MOL0     C16398   0.315   1.655   0.812  0.4527 -0.0469  0.1344
  122MOL0     C16399   0.200   1.725   0.868 -0.2089 -0.0299  0.5265
  122MOL0     C16400   0.103   1.785   0.911  0.1594 -0.0724  0.8043
  122MOL0     C16401   0.454   1.152   0.484  0.8442 -0.6708 -1.1874
  122MOL0     C16402   0.544   1.154   0.383  1.3208  0.0066  0.2368
  122MOL0     H16403   0.830   0.992   0.083  0.1956 -0.2866  0.2930
  122MOL0     H16404   0.958   0.967  -0.130 -0.0070  0.1572 -0.7784
  122MOL0     H16405   1.104   0.971  -0.275 -1.1433  1.4426  1.2430
  122MOL0     H16406   1.013   1.055  -0.396 -2.0304 -1.7261 -0.3919
  122MOL0     H16407   1.226   1.183  -0.463 -1.5981  1.3303  3.7031
  122MOL0     H16408   1.319   1.081  -0.361  1.9854  2.4220 -1.3704
  122MOL0     H16409   1.253   0.882  -0.519 -0.6797 -1.1978 -1.2429
  122MOL0     H16410   1.122   0.970  -0.588  1.9837 -1.9624 -4.0045
  122MOL0     H16411   1.313   1.140  -0.680  0.0410 -0.4161 -1.3540
  122MOL0     H16412   1.426   1.012  -0.630  0.6834  0.2863  1.7905
  122MOL0     H16413   1.302   0.844  -0.759 -0.1089 -0.5797 -2.9445
  122MOL0     H16414   1.184   0.967  -0.813 -1.0576 -1.8413 -1.3504
  122MOL0     H16415   1.301   0.962  -0.996 -3.8485  1.3166  1.6875
  122MOL0     H16416   1.366   1.103  -0.907 -0.8996 -0.2747 -0.3580
  122MOL0     H16417   1.549   0.978  -0.822 -2.0032 -0.3700 -0.0581
  122MOL0     H16418   1.515   0.846  -0.922 -2.3069 -0.6861  1.2076
  122MOL0     H16419   1.537   0.993  -1.132  1.3713 -0.4095 -1.2932
  122MOL0     H16420   1.679   0.954  -1.042 -3.7492 -4.8679  3.3739
  122MOL0     H16421   1.652   1.202  -0.822 -0.8630 -0.0813  0.2801
  122MOL0     H16422   1.761   1.557  -0.962  1.0584 -0.7444  0.1292
  122MOL0     H16423   1.620   1.542  -0.867  0.6926  0.2253 -2.2186
  122MOL0     H16424   1.857   1.363  -0.787 -0.3623 -0.4943 -0.3419
  122MOL0     H16425   1.723   1.413  -0.693  2.3081  1.0169  2.3139
  122MOL0     H16426   1.917   1.529  -0.626  0.9103  1.4220  0.4928
  122MOL0     H16427   1.794   1.645  -0.672  0.7737  0.1166  2.2097
  122MOL0     H16428   1.910   1.702  -0.861 -0.6828 -0.1343  1.5036
  122MOL0     H16429   1.990   1.540  -0.877 -0.2295 -0.0777 -0.1320
  122MOL0     H16430   2.273   1.754  -0.595  0.0644 -1.2500  2.7401
  122MOL0     H16431   2.465   1.645  -0.372  2.4335  0.2766  0.7795
  122MOL0     H16432   2.591   1.652  -0.487  0.4826 -0.0281  0.0361
  122MOL0     H16433   2.467   1.770  -0.501  0.8234  0.5069 -0.2549
  122MOL0     H16434   2.719   1.233  -0.697  0.3847  0.4987  0.9407
  122MOL0     H16435   2.885   1.073  -0.684  1.2656  1.0250  1.1048
  122MOL0     H16436   2.983   0.856  -0.698  2.3084 -0.8673 -0.6787
  122MOL0     H16437   3.044   0.971  -0.579  1.4826 -0.7699 -0.7248
  122MOL0     H16438   3.204   0.780  -0.631 -1.7303  0.3598 -3.0320
  122MOL0     H16439   3.164   0.764  -0.459  1.4837 -2.2345 -1.7644
  122MOL0     H16440   3.038   0.606  -0.683 -0.3214 -0.2518  0.9441
  122MOL0     H16441   2.981   0.609  -0.519 -0.0862 -3.9854 -0.6501
  122MOL0     H16442   3.288   0.572  -0.545 -0.0244 -2.6857  2.3649
  122MOL0     H16443   3.171   0.474  -0.453 -1.0965 -0.8934  0.1606
  122MOL0     H16444   3.231   0.457  -0.755  0.3293 -1.1253 -0.6065
  122MOL0     H16445   3.101   0.376  -0.659  0.4868 -0.4975  2.5749
  122MOL0     H16446   3.404   0.339  -0.596 -0.4658  1.6853  0.7510
  122MOL0     H16447   3.260   0.252  -0.526  1.1286  0.3661 -0.4972
  122MOL0     H16448   3.408   0.173  -0.767 -0.6295 -1.2773  0.6697
  122MOL0     H16449   3.241   0.216  -0.801 -1.0722  3.4590  2.0125
  122MOL0     H16450   3.162   0.061  -0.633 -0.6828 -0.3240 -1.6791
  122MOL0     H16451   3.324   0.047  -0.567  1.7271  1.1239 -1.1820
  122MOL0     H16452   2.678   0.844  -0.389  0.2250 -0.0605 -0.9820
  122MOL0     H16453   2.502   1.030  -0.370 -1.6194 -1.5138 -2.2057
  122MOL0     H16454   2.311   1.272  -0.688 -0.4264 -0.3268  1.2837
  122MOL0     H16455   2.122   1.397  -0.781 -2.2796  3.4497 -0.4009
  122MOL0     H16456   1.044   1.376  -0.132 -1.3047  0.4156 -1.3157
  122MOL0     H16457   0.867   1.405   0.080 -2.5152 -2.8311  2.5219
  122MOL0     H16458   0.362   1.360   0.171 -0.5409  0.3590 -0.0661
  122MOL0     H16459   0.220   1.370   0.363  0.2383 -0.3908  1.3882
  122MOL0     H16460   0.100   1.338   0.535 -1.2029  1.8270  1.4665
  122MOL0     H16461   0.102   1.325   0.709 -2.7599  2.9430 -0.8524
  122MOL0     H16462   0.141   1.560   0.645  1.5651  0.9458  1.5949
  122MOL0     H16463   0.286   1.499   0.556 -0.5846  2.1662 -0.0052
  122MOL0     H16464   0.388   1.453   0.764 -1.4751 -1.8229 -2.5016
  122MOL0     H16465   0.233   1.444   0.847 -1.0282 -1.9438 -1.7523
  122MOL0     H16466   0.346   1.700   0.718 -0.2554 -3.0269 -1.6566
  122MOL0     H16467   0.400   1.671   0.879 -1.7698 -0.0047  3.1753
  122MOL0     H16468   0.022   1.821   0.970 -0.8941 -0.8619 -0.1265
  122MOL0     H16469   0.477   1.102   0.577 -2.1302  1.2398  0.7716
  122MOL0     H16470   0.637   1.098   0.387  0.8588 -0.7109  1.7440
  123MOL0     O16471  10.944   1.621   6.465  0.4498  0.0229  0.0677
  123MOL0     C16472  10.956   1.717   6.531  0.6408  0.3843  0.0516
  123MOL0     O16473  10.902   1.844   6.499  0.4010 -0.7178 -0.1016
  123MOL0     C16474  10.803   1.851   6.404  0.6098  0.3779 -0.7281
  123MOL0     C16475  10.701   1.758   6.406 -0.5866  0.2775 -0.6545
  123MOL0     C16476  10.589   1.766   6.329  0.8416  0.1928  0.2109
  123MOL0     C16477  10.558   1.883   6.261  0.1335 -0.4845  0.9285
  123MOL0     O16478  10.449   1.901   6.184  0.1055  0.6722  0.4196
  123MOL0     C16479  10.323   1.899   6.254  0.5706 -0.1479  0.1021
  123MOL0     C16480  10.292   2.038   6.301  0.8126 -0.1623  1.4860
  123MOL0     C16481  10.192   2.062   6.418 -0.1367  0.9742  0.1912
  123MOL0     C16482  10.047   2.070   6.386  0.2305  0.1957  1.0537
  123MOL0     C16483   9.959   2.096   6.506 -0.0232  0.2954  0.5899
  123MOL0     C16484   9.947   1.982   6.610 -0.3682 -0.0921 -0.0170
  123MOL0     C16485   9.870   2.017   6.731 -0.7316 -0.3110 -0.0613
  123MOL0     C16486   9.720   2.021   6.694 -0.6051  0.2355 -0.2337
  123MOL0     N16487   9.630   2.017   6.820 -0.2013 -0.4674  0.1933
  123MOL0     C16488   9.630   2.112   6.918  0.2935 -0.0342  0.0175
  123MOL0     C16489   9.549   2.065   7.008  0.2332 -0.7155 -0.7609
  123MOL0     C16490   9.513   2.128   7.145 -0.0969 -0.6531 -0.2674
  123MOL0     C16491   9.368   2.095   7.191 -0.1056 -0.3241 -0.4283
  123MOL0     C16492   9.324   2.178   7.315 -0.1539  0.0641 -1.0633
  123MOL0     C16493   9.194   2.131   7.377 -0.5747  0.1162 -0.2888
  123MOL0     O16494   9.167   2.233   7.474  0.6795 -0.9043  1.0171
  123MOL0     C16495   9.061   2.224   7.558  0.6964  0.6701  0.3800
  123MOL0     C16496   9.016   2.333   7.626 -0.1576 -0.4920 -0.5210
  123MOL0     C16497   8.906   2.333   7.706  0.4743 -0.0627  1.0049
  123MOL0     C16498   8.871   2.466   7.773 -0.2974  0.5095 -0.8862
  123MOL0     C16499   8.815   2.226   7.702 -0.3433  0.0274  0.2980
  123MOL0     C16500   8.682   2.226   7.764  1.0395 -0.0722  0.2566
  123MOL0     O16501   8.602   2.333   7.735  0.3333 -0.0459 -0.1430
  123MOL0     C16502   8.484   2.338   7.801 -0.6188  0.0840  0.6295
  123MOL0     C16503   8.369   2.297   7.738  0.3185 -0.2395 -0.7490
  123MOL0     C16504   8.240   2.318   7.791 -0.5225 -0.4587 -0.7186
  123MOL0     C16505   8.233   2.357   7.925 -0.2156 -1.1838  0.5500
  123MOL0     O16506   8.106   2.364   7.982  0.2994 -0.6373  1.2142
  123MOL0     C16507   8.082   2.493   8.039 -0.9871  0.3989  0.8711
  123MOL0     C16508   7.950   2.551   8.006 -0.0510 -0.2192 -0.1725
  123MOL0     C16509   7.958   2.627   7.874 -0.1290  0.0460  0.8433
  123MOL0     C16510   7.822   2.698   7.860 -0.2756  0.0145  0.3321
  123MOL0     C16511   7.813   2.779   7.728  0.1826 -0.3508  0.7475
  123MOL0     C16512   7.693   2.878   7.714 -0.2386  0.0569 -0.0864
  123MOL0     C16513   7.688   2.969   7.583 -1.0805  1.1639  0.1942
  123MOL0     C16514   7.575   3.068   7.587  0.6978 -0.4627 -0.3509
  123MOL0    Cl16515   7.589   3.201   7.460 -0.0834 -0.2792 -0.1362
  123MOL0     C16516   8.353   2.408   7.990  0.2786 -0.6765  0.4167
  123MOL0     C16517   8.480   2.396   7.922 -0.2283  0.0333 -1.2803
  123MOL0     O16518   8.660   2.127   7.824  0.7638  0.3542 -0.6628
  123MOL0     C16519   8.860   2.106   7.646 -0.2550 -0.3002  0.2924
  123MOL0     C16520   8.977   2.107   7.566 -1.0801  0.3957 -0.2318
  123MOL0     N16521   9.513   1.940   6.968 -0.7105  0.3363 -0.0060
  123MOL0     N16522   9.561   1.904   6.852  0.9564 -0.7043  0.1249
  123MOL0     C16523  10.656   1.986   6.269  0.1188  1.3693 -0.3108
  123MOL0     C16524  10.781   1.967   6.333 -0.2010 -0.0653  0.3577
  123MOL0     C16525  11.049   1.712   6.641 -0.4273  0.1401 -0.2151
  123MOL0     C16526  11.101   1.595   6.685  0.2242  0.5506 -0.5304
  123MOL0     C16527  11.183   1.589   6.801 -0.2565 -0.0559  0.3347
  123MOL0     C16528  11.236   1.713   6.855 -0.0542 -0.2777  0.7298
  123MOL0     O16529  11.331   1.723   6.950  0.1092  0.4899  0.6925
  123MOL0     C16530  11.372   1.605   7.020  0.1442 -0.0732  0.8153
  123MOL0     C16531  11.488   1.629   7.100  0.5990  0.3416  0.4617
  123MOL0     C16532  11.540   1.497   7.152  0.0487  0.0421 -0.7388
  123MOL0     C16533  11.666   1.528   7.230 -0.6423  0.1611  0.2242
  123MOL0     C16534  11.704   1.397   7.292 -0.2848  0.0192  0.2595
  123MOL0     C16535  11.722   1.283   7.334 -0.6123  0.8253 -0.4143
  123MOL0     C16536  11.184   1.838   6.802 -0.1032  0.2685  0.9987
  123MOL0     C16537  11.087   1.829   6.696  0.3302  0.3816  0.3528
  123MOL0     H16538  10.710   1.671   6.471  0.3345 -0.1659 -1.3641
  123MOL0     H16539  10.513   1.691   6.309 -1.5528  2.4040  0.4300
  123MOL0     H16540  10.239   1.865   6.194  2.4175 -1.6106 -1.8070
  123MOL0     H16541  10.319   1.829   6.338 -0.1226  1.1725  1.2229
  123MOL0     H16542  10.378   2.086   6.349  0.2523  1.5930  0.8118
  123MOL0     H16543  10.258   2.089   6.211 -1.1243 -0.8099  1.8006
  123MOL0     H16544  10.217   1.985   6.492  1.6368  1.5698  0.2660
  123MOL0     H16545  10.223   2.146   6.480 -0.3137 -0.1354  1.8328
  123MOL0     H16546  10.031   2.157   6.321  1.6057  0.2595  0.7831
  123MOL0     H16547  10.031   1.977   6.332 -0.2459  0.3788  0.8691
  123MOL0     H16548  10.000   2.181   6.561  3.0206 -0.1870 -0.7300
  123MOL0     H16549   9.856   2.124   6.482 -0.8961 -1.5315  1.9198
  123MOL0     H16550   9.894   1.898   6.564 -1.1046  0.4755 -0.2213
  123MOL0     H16551  10.052   1.965   6.635  0.6575  3.4306 -1.2801
  123MOL0     H16552   9.895   1.941   6.805  0.2046 -0.6915 -0.7426
  123MOL0     H16553   9.912   2.109   6.773  0.7796 -0.7325 -0.5868
  123MOL0     H16554   9.685   1.937   6.632 -1.5957  0.9509 -0.6674
  123MOL0     H16555   9.693   2.112   6.640 -0.3748  0.6184  0.2953
  123MOL0     H16556   9.699   2.196   6.920 -0.8342  0.9218  1.4636
  123MOL0     H16557   9.588   2.090   7.215 -0.9393 -1.9974 -0.0466
  123MOL0     H16558   9.521   2.234   7.122  2.2712 -0.9150 -0.8659
  123MOL0     H16559   9.365   1.987   7.210  1.8927 -0.5695 -1.2515
  123MOL0     H16560   9.308   2.116   7.102  2.0938 -2.2869 -2.5066
  123MOL0     H16561   9.307   2.276   7.271  1.3995  0.3377 -1.1072
  123MOL0     H16562   9.397   2.182   7.396  2.5054 -0.9084 -3.2458
  123MOL0     H16563   9.206   2.029   7.415  3.5660  0.7094  0.5034
  123MOL0     H16564   9.116   2.130   7.301  1.0711 -1.4413 -2.0441
  123MOL0     H16565   9.074   2.421   7.604 -1.8524  0.5556 -0.9964
  123MOL0     H16566   8.807   2.539   7.723 -4.1874 -2.9004 -1.4397
  123MOL0     H16567   8.807   2.443   7.859  1.7719 -0.7215  0.4273
  123MOL0     H16568   8.962   2.510   7.813  0.6401 -0.2809 -2.0634
  123MOL0     H16569   8.374   2.266   7.634  0.4623  1.7609 -1.3789
  123MOL0     H16570   8.155   2.297   7.726  0.0017  0.2517 -1.6539
  123MOL0     H16571   8.065   2.466   8.144  3.0267 -3.3538  0.8713
  123MOL0     H16572   8.162   2.567   8.030  0.2539 -1.0273 -0.3315
  123MOL0     H16573   7.875   2.471   8.009 -0.0938 -0.2234 -1.1403
  123MOL0     H16574   7.927   2.629   8.080  2.9335  2.2142 -1.5935
  123MOL0     H16575   7.983   2.552   7.799 -4.8168 -0.7114 -0.2823
  123MOL0     H16576   8.035   2.704   7.880 -0.8374  0.7440  1.3425
  123MOL0     H16577   7.745   2.620   7.863  1.3384 -1.7106 -1.0347
  123MOL0     H16578   7.805   2.770   7.941  3.7864  1.3973  0.1468
  123MOL0     H16579   7.798   2.690   7.667 -1.4577 -0.3107  1.0332
  123MOL0     H16580   7.905   2.835   7.707 -1.3102  3.5086  3.2764
  123MOL0     H16581   7.598   2.825   7.722 -0.5445  0.8422  3.6999
  123MOL0     H16582   7.686   2.940   7.804 -0.2152 -0.7086  0.4560
  123MOL0     H16583   7.681   2.904   7.495  2.0165  0.9114  0.0385
  123MOL0     H16584   7.775   3.035   7.580 -0.9760  0.9932 -0.6452
  123MOL0     H16585   7.571   3.134   7.675 -1.2467  1.6931 -1.9003
  123MOL0     H16586   7.476   3.025   7.567  0.3708  0.4902 -0.8956
  123MOL0     H16587   8.337   2.460   8.084 -0.1144  3.0341 -1.4871
  123MOL0     H16588   8.573   2.430   7.967  0.8380 -0.6868 -2.8584
  123MOL0     H16589   8.799   2.016   7.652  1.2177 -1.2382  3.2515
  123MOL0     H16590   9.006   2.016   7.515 -0.6587  0.7582 -0.6518
  123MOL0     H16591  10.635   2.085   6.229  2.0870  2.2004  0.5584
  123MOL0     H16592  10.847   2.053   6.330  1.0508 -0.7751  3.4503
  123MOL0     H16593  11.063   1.504   6.640 -0.3201  0.8806 -0.7416
  123MOL0     H16594  11.212   1.491   6.838 -0.7764 -0.3796 -0.0965
  123MOL0     H16595  11.292   1.557   7.078  0.0155 -3.4764 -1.8814
  123MOL0     H16596  11.402   1.526   6.952 -0.4531  0.2737  0.1355
  123MOL0     H16597  11.469   1.703   7.179  1.3506  3.2219 -1.8572
  123MOL0     H16598  11.562   1.681   7.038  1.2852 -1.1172  0.0331
  123MOL0     H16599  11.551   1.429   7.067 -2.5975  3.3749 -4.1313
  123MOL0     H16600  11.464   1.464   7.223 -2.6033  4.2629 -1.2522
  123MOL0     H16601  11.663   1.601   7.311  0.7925 -2.3081  2.6650
  123MOL0     H16602  11.736   1.557   7.151 -1.2554 -2.1201 -1.2746
  123MOL0     H16603  11.735   1.182   7.367 -0.6838  0.4440 -1.4963
  123MOL0     H16604  11.229   1.931   6.834  0.2622 -0.0199  1.3355
  123MOL0     H16605  11.041   1.919   6.657 -0.8171 -0.7839 -1.1289
  124MOL0     O16606   5.600   4.662   0.729  0.2658  0.6632  0.7270
  124MOL0     C16607   5.492   4.601   0.746 -0.0781 -0.6712  0.3199
  124MOL0     O16608   5.461   4.462   0.733 -0.5324  0.4178  0.4635
  124MOL0     C16609   5.550   4.374   0.674  1.0684 -0.1283  0.1399
  124MOL0     C16610   5.502   4.316   0.560 -0.1721  0.8004 -0.0380
  124MOL0     C16611   5.588   4.244   0.471 -0.8626  0.5309 -0.4345
  124MOL0     C16612   5.730   4.240   0.497  0.1192  0.5076 -0.4899
  124MOL0     O16613   5.824   4.189   0.409  0.0161  0.2635 -0.8119
  124MOL0     C16614   5.811   4.109   0.285  0.9079 -0.9258 -0.2041
  124MOL0     C16615   5.940   4.107   0.208 -0.5188  0.1099  0.2950
  124MOL0     C16616   5.922   4.068   0.059 -0.7897  0.1107  0.6494
  124MOL0     C16617   5.829   4.149  -0.025 -0.2100  0.4111  0.4474
  124MOL0     C16618   5.872   4.288  -0.067  0.1036  1.4104  0.0294
  124MOL0     C16619   5.968   4.277  -0.182  0.6587  0.2702  0.1876
  124MOL0     C16620   6.026   4.420  -0.211 -0.2563 -0.0854  0.1876
  124MOL0     C16621   6.101   4.483  -0.091  0.4329  0.2325  0.4138
  124MOL0     N16622   6.118   4.626  -0.104  0.4493 -0.7011 -0.2915
  124MOL0     C16623   6.018   4.725  -0.069 -1.3029 -0.3929  0.1635
  124MOL0     C16624   6.079   4.841  -0.102  0.3429  0.5976  0.5541
  124MOL0     C16625   6.020   4.977  -0.081 -0.7190  0.4406 -0.8715
  124MOL0     C16626   6.019   5.013   0.073  0.1376  0.6204  0.9122
  124MOL0     C16627   5.884   4.990   0.141  0.2403 -0.6878  0.1638
  124MOL0     C16628   5.770   5.092   0.107  0.6933 -0.7153 -0.5032
  124MOL0     O16629   5.646   5.050   0.175  0.5845 -0.2031 -0.7811
  124MOL0     C16630   5.540   5.148   0.158 -0.8098  0.4618  0.6738
  124MOL0     C16631   5.562   5.269   0.214  0.5744  0.6691  0.1612
  124MOL0     C16632   5.460   5.375   0.215  0.0348  0.2892  0.0352
  124MOL0     C16633   5.489   5.497   0.289 -0.7174  0.1632  0.4023
  124MOL0     C16634   5.335   5.345   0.148  0.1765  0.1957  0.1041
  124MOL0     C16635   5.220   5.433   0.138  0.1851  0.1405  0.0423
  124MOL0     O16636   5.104   5.382   0.097  0.1462  0.2602 -0.2377
  124MOL0     C16637   4.997   5.471   0.059  0.2487 -0.8425 -0.3580
  124MOL0     C16638   4.879   5.471   0.136  0.9814  0.8744 -0.1110
  124MOL0     C16639   4.774   5.550   0.091 -0.3368  0.3760 -0.4737
  124MOL0     C16640   4.773   5.603  -0.036 -0.0710 -0.2587  0.3475
  124MOL0     O16641   4.655   5.667  -0.070 -0.7546  0.3004 -0.6483
  124MOL0     C16642   4.658   5.787  -0.147 -0.2624 -0.7562 -0.0133
  124MOL0     C16643   4.527   5.865  -0.136 -0.2227  0.1516  0.6227
  124MOL0     C16644   4.444   5.854  -0.265  0.2372  0.5633  0.2881
  124MOL0     C16645   4.296   5.860  -0.234 -1.6743  0.2915 -0.2480
  124MOL0     C16646   4.223   5.785  -0.353 -0.1975  0.5346 -0.4211
  124MOL0     C16647   4.267   5.842  -0.491 -0.1301  0.4984 -0.8030
  124MOL0     C16648   4.177   5.792  -0.603  0.1436  0.0691  0.1325
  124MOL0     C16649   4.228   5.831  -0.736 -0.5230 -0.2532  0.2699
  124MOL0    Cl16650   4.140   5.744  -0.860  0.0677 -0.4919 -0.2409
  124MOL0     C16651   4.878   5.587  -0.123 -1.2284  0.4616 -0.4490
  124MOL0     C16652   4.995   5.522  -0.076  0.8794  0.2307  0.7002
  124MOL0     O16653   5.229   5.549   0.170 -0.5493  0.4841 -0.3584
  124MOL0     C16654   5.317   5.218   0.094 -0.3753  0.1090  0.0588
  124MOL0     C16655   5.421   5.125   0.100 -0.1697 -0.0204 -0.4501
  124MOL0     N16656   6.202   4.818  -0.160 -0.0594  0.7110 -0.5509
  124MOL0     N16657   6.216   4.691  -0.168 -0.0729  0.9985 -0.0514
  124MOL0     C16658   5.775   4.293   0.620  0.7991 -0.3279  0.4985
  124MOL0     C16659   5.684   4.362   0.704  0.8322 -0.0619  0.5143
  124MOL0     C16660   5.380   4.685   0.793 -0.4830 -0.0211  0.5651
  124MOL0     C16661   5.252   4.651   0.760 -0.0858  0.7479 -0.0230
  124MOL0     C16662   5.147   4.738   0.789  0.5901 -0.2173 -0.6282
  124MOL0     C16663   5.173   4.869   0.838  0.9281  0.1013  0.6303
  124MOL0     O16664   5.081   4.954   0.885  0.0978 -0.9497 -0.4654
  124MOL0     C16665   4.950   4.895   0.894  0.4536 -1.0531  0.6398
  124MOL0     C16666   4.841   4.996   0.920 -0.4074  0.9641 -0.9372
  124MOL0     C16667   4.870   5.095   1.036 -0.0315 -0.5720 -0.0106
  124MOL0     C16668   4.772   5.205   1.021  0.8542  0.2039 -0.0513
  124MOL0     C16669   4.632   5.157   1.039  0.1456 -0.0470  0.0390
  124MOL0     C16670   4.516   5.125   1.043 -0.0854 -0.0267  0.8800
  124MOL0     C16671   5.306   4.900   0.869 -0.2615 -0.5941  0.1561
  124MOL0     C16672   5.412   4.810   0.846  0.3262 -0.3802  0.3783
  124MOL0     H16673   5.401   4.317   0.521 -0.0844 -3.4288 -0.8488
  124MOL0     H16674   5.554   4.207   0.374  0.7596 -1.1556 -0.4116
  124MOL0     H16675   5.773   4.011   0.315 -1.7620  0.1596  0.2513
  124MOL0     H16676   5.729   4.156   0.230 -0.3593  1.1937  3.1857
  124MOL0     H16677   5.979   4.208   0.223  2.0335 -1.0011  1.8882
  124MOL0     H16678   6.009   4.034   0.253 -2.3524 -1.1833  1.1718
  124MOL0     H16679   6.023   4.086   0.021 -0.8856 -0.5929  0.0365
  124MOL0     H16680   5.903   3.961   0.046  0.5769 -0.1573  0.7199
  124MOL0     H16681   5.816   4.093  -0.118  0.7337 -0.3734  0.7820
  124MOL0     H16682   5.732   4.154   0.026 -0.2954 -1.5259  0.5385
  124MOL0     H16683   5.782   4.334  -0.109 -2.3798 -4.8690 -2.8169
  124MOL0     H16684   5.920   4.326   0.023 -1.0736 -2.3985  2.4964
  124MOL0     H16685   6.052   4.213  -0.158 -0.3389 -1.4413 -0.7155
  124MOL0     H16686   5.909   4.231  -0.261  1.5803 -1.0881  0.2644
  124MOL0     H16687   6.094   4.418  -0.297 -1.2137 -0.9176 -0.5836
  124MOL0     H16688   5.945   4.491  -0.228 -0.4113  0.0291  1.3666
  124MOL0     H16689   6.202   4.441  -0.091  0.9105  1.3231 -0.4899
  124MOL0     H16690   6.053   4.470   0.006  0.8066  0.4327  0.6307
  124MOL0     H16691   5.922   4.709  -0.021 -0.5683 -1.9891  1.1440
  124MOL0     H16692   6.076   5.052  -0.137  1.8162 -1.9845 -1.8555
  124MOL0     H16693   5.915   4.983  -0.109 -0.5433  3.2278 -1.2082
  124MOL0     H16694   6.032   5.122   0.067 -0.4329  0.6927  0.8685
  124MOL0     H16695   6.091   4.950   0.126 -1.5648  0.9045  3.7909
  124MOL0     H16696   5.898   4.990   0.250  2.2851  1.0396 -0.0227
  124MOL0     H16697   5.856   4.888   0.114  2.9038 -1.5315  0.3061
  124MOL0     H16698   5.750   5.097  -0.000  0.6357  1.0533 -0.4365
  124MOL0     H16699   5.802   5.192   0.140 -1.0278 -0.5627  0.8786
  124MOL0     H16700   5.655   5.294   0.264  0.4960 -0.8927  1.1284
  124MOL0     H16701   5.400   5.541   0.337 -2.0010  3.1355 -4.0692
  124MOL0     H16702   5.563   5.487   0.369  1.9465  1.3948 -1.7362
  124MOL0     H16703   5.528   5.570   0.218  0.2267  2.9423  3.4712
  124MOL0     H16704   4.894   5.427   0.234 -2.0234 -0.9624 -0.3786
  124MOL0     H16705   4.685   5.569   0.150 -1.0723 -3.2556 -0.1672
  124MOL0     H16706   4.747   5.846  -0.123 -0.7419  0.4289 -1.0368
  124MOL0     H16707   4.676   5.756  -0.250 -0.9130 -0.0797 -0.3359
  124MOL0     H16708   4.471   5.830  -0.049 -1.3945  1.5494  0.4593
  124MOL0     H16709   4.549   5.970  -0.117 -0.9352  0.0584  2.0748
  124MOL0     H16710   4.466   5.764  -0.322 -1.3097 -1.4974  2.7376
  124MOL0     H16711   4.488   5.936  -0.323  3.3313  0.6450  2.4574
  124MOL0     H16712   4.279   5.801  -0.143  3.9458 -3.1268 -0.9100
  124MOL0     H16713   4.260   5.963  -0.231 -0.5204  0.7246  3.5051
  124MOL0     H16714   4.119   5.802  -0.325  0.0768 -0.1524  1.1617
  124MOL0     H16715   4.233   5.676  -0.348 -4.2180 -0.0299 -1.0054
  124MOL0     H16716   4.265   5.952  -0.486 -0.8735  0.5790 -2.3303
  124MOL0     H16717   4.368   5.807  -0.512 -0.1479 -0.2405  0.2383
  124MOL0     H16718   4.081   5.841  -0.590 -0.6320 -1.0399 -1.0953
  124MOL0     H16719   4.177   5.682  -0.599  3.0217 -0.0989 -1.4129
  124MOL0     H16720   4.335   5.813  -0.747 -0.7334 -4.6333  2.7607
  124MOL0     H16721   4.207   5.936  -0.755 -1.1559 -0.3416  0.4429
  124MOL0     H16722   4.867   5.617  -0.226  1.0355 -1.1764 -1.2393
  124MOL0     H16723   5.086   5.505  -0.133 -0.1121 -1.2494 -0.4871
  124MOL0     H16724   5.222   5.194   0.047 -0.0164 -0.8604 -0.2055
  124MOL0     H16725   5.408   5.021   0.070 -1.9335 -0.2522  1.0023
  124MOL0     H16726   5.881   4.282   0.639  0.9955 -0.0590 -0.3722
  124MOL0     H16727   5.723   4.398   0.799 -3.5462  1.3197  2.0304
  124MOL0     H16728   5.238   4.550   0.724  1.7375  0.2437  0.5818
  124MOL0     H16729   5.045   4.707   0.766 -0.4739  1.7852  1.0353
  124MOL0     H16730   4.929   4.848   0.798 -0.8561 -3.7351  2.1305
  124MOL0     H16731   4.952   4.819   0.973  0.4601 -0.2340  1.4586
  124MOL0     H16732   4.753   4.935   0.945  0.3362  1.0070  2.2063
  124MOL0     H16733   4.825   5.048   0.826 -1.5500  0.3761 -1.0970
  124MOL0     H16734   4.972   5.134   1.033 -0.0610 -0.5173 -3.4176
  124MOL0     H16735   4.843   5.050   1.132 -2.4449  2.1940  0.7899
  124MOL0     H16736   4.779   5.250   0.922  0.9564  1.5639  0.5584
  124MOL0     H16737   4.803   5.269   1.104  2.9199 -1.7018  0.7697
  124MOL0     H16738   4.411   5.110   1.058 -0.7342  1.2889 -1.6770
  124MOL0     H16739   5.325   5.006   0.886 -1.7129 -0.6770  2.7762
  124MOL0     H16740   5.515   4.843   0.854 -0.0673  0.9369  0.2488
  125MOL0     O16741   3.688   2.519   0.520  0.0442 -0.4200  0.8867
  125MOL0     C16742   3.801   2.461   0.492 -0.4723 -0.3262  0.7300
  125MOL0     O16743   3.821   2.336   0.425  0.7835  0.5417 -0.5443
  125MOL0     C16744   3.729   2.240   0.382 -0.6244  0.9167  0.9000
  125MOL0     C16745   3.769   2.104   0.372  0.2270  0.0283  0.6487
  125MOL0     C16746   3.680   2.011   0.306  0.1170  0.4227 -0.2974
  125MOL0     C16747   3.549   2.044   0.270  0.1693 -0.3444 -0.3475
  125MOL0     O16748   3.453   1.952   0.226  0.3070  0.4378  0.3299
  125MOL0     C16749   3.452   1.824   0.290  0.0668 -0.3107 -0.4623
  125MOL0     C16750   3.336   1.735   0.242  0.1075 -0.1833 -0.4055
  125MOL0     C16751   3.215   1.745   0.326 -1.0723  0.2922  1.0167
  125MOL0     C16752   3.086   1.664   0.289 -0.2172 -0.0278  0.3310
  125MOL0     C16753   2.996   1.663   0.414  1.1919  0.8505 -0.6598
  125MOL0     C16754   2.851   1.639   0.382  0.9391  0.5276 -1.0649
  125MOL0     C16755   2.743   1.690   0.488 -0.7308 -0.1611  0.2337
  125MOL0     C16756   2.753   1.845   0.505  0.9762  0.0618 -0.2826
  125MOL0     N16757   2.626   1.899   0.541  0.3592 -0.6161 -0.1759
  125MOL0     C16758   2.567   1.894   0.661 -0.1389  0.7256  0.1202
  125MOL0     C16759   2.453   1.959   0.647  0.1942  0.3719  0.5194
  125MOL0     C16760   2.343   2.006   0.749 -0.1888 -0.3719  0.7245
  125MOL0     C16761   2.238   1.899   0.752 -0.2590 -0.3819  1.2731
  125MOL0     C16762   2.126   1.953   0.846  0.6980 -0.3684 -0.4799
  125MOL0     C16763   2.018   1.847   0.875  0.1769 -0.5676  0.8979
  125MOL0     O16764   1.899   1.891   0.955  0.0925 -0.0721  0.1107
  125MOL0     C16765   1.918   1.935   1.076  0.3352 -0.1336 -0.3643
  125MOL0     C16766   2.005   1.882   1.168 -0.1750 -0.6716  0.5028
  125MOL0     C16767   1.998   1.930   1.302  0.2663  0.3672 -0.0372
  125MOL0     C16768   2.100   1.884   1.406  0.4553  0.0601  0.3652
  125MOL0     C16769   1.894   2.018   1.340 -0.0906 -0.0977 -0.2458
  125MOL0     C16770   1.864   2.051   1.480 -0.2554 -0.5554 -0.4554
  125MOL0     O16771   1.735   2.087   1.494  0.8394 -0.3662  0.4316
  125MOL0     C16772   1.683   2.140   1.610 -0.2897 -0.0069  0.1752
  125MOL0     C16773   1.734   2.150   1.744 -0.0431 -0.4335  0.7749
  125MOL0     C16774   1.662   2.223   1.847  0.1272  0.3522 -0.1023
  125MOL0     C16775   1.540   2.284   1.812 -0.4694  0.4226  0.3759
  125MOL0     O16776   1.474   2.357   1.910  0.4846  0.0718  0.3401
  125MOL0     C16777   1.384   2.269   1.978 -0.1942  0.9608  0.1155
  125MOL0     C16778   1.352   2.330   2.118  0.1802  0.1453 -0.3202
  125MOL0     C16779   1.298   2.476   2.113  0.2642 -0.1946  0.0136
  125MOL0     C16780   1.166   2.467   2.026  0.2795  0.1780 -1.7460
  125MOL0     C16781   1.059   2.580   2.064  0.4290 -0.5025 -0.7283
  125MOL0     C16782   0.932   2.564   1.980  0.3084 -0.3697 -0.3011
  125MOL0     C16783   0.853   2.689   1.952 -0.0423 -0.2742 -0.7816
  125MOL0     C16784   0.766   2.672   1.833 -0.1550 -0.5880 -0.0327
  125MOL0    Cl16785   0.677   2.828   1.805 -0.0191  0.3102 -0.2843
  125MOL0     C16786   1.497   2.275   1.678  0.0678  0.4063  1.2917
  125MOL0     C16787   1.562   2.199   1.580 -0.1208 -0.2694 -0.7347
  125MOL0     O16788   1.941   2.033   1.571 -0.1378 -0.0676  0.4468
  125MOL0     C16789   1.801   2.070   1.243 -0.1116 -0.2144 -0.0502
  125MOL0     C16790   1.819   2.031   1.109  0.5171 -0.5283 -1.1118
  125MOL0     N16791   2.450   2.001   0.514  0.7928  0.3128  0.1891
  125MOL0     N16792   2.558   1.974   0.456  0.3278 -0.0688  0.4865
  125MOL0     C16793   3.504   2.177   0.283  0.1361 -0.1627  0.5676
  125MOL0     C16794   3.594   2.274   0.334 -0.1050 -0.3778  0.2891
  125MOL0     C16795   3.925   2.511   0.567 -0.4029  0.3978 -0.3323
  125MOL0     C16796   4.014   2.419   0.611 -0.2162 -0.9066 -0.4455
  125MOL0     C16797   4.112   2.458   0.703 -0.3255 -0.1475  0.1529
  125MOL0     C16798   4.126   2.588   0.756  0.0649  2.2848 -0.5210
  125MOL0     O16799   4.220   2.638   0.841 -0.5558  0.4228  0.1423
  125MOL0     C16800   4.346   2.572   0.833  0.7900  0.6211  0.0865
  125MOL0     C16801   4.454   2.654   0.906 -0.1214 -0.0522  0.6538
  125MOL0     C16802   4.596   2.588   0.891 -0.0488 -0.4420  0.1012
  125MOL0     C16803   4.601   2.441   0.909 -0.7622 -0.7631 -0.7303
  125MOL0     C16804   4.739   2.402   0.911 -0.1485  0.0036 -0.5132
  125MOL0     C16805   4.861   2.372   0.920  0.4846 -0.4239  0.5083
  125MOL0     C16806   4.032   2.680   0.704 -0.0837  0.4891  0.0672
  125MOL0     C16807   3.930   2.636   0.620 -0.1144 -0.7719  0.4435
  125MOL0     H16808   3.875   2.086   0.390  0.5422  1.6669  0.6240
  125MOL0     H16809   3.724   1.915   0.283  1.5479  0.9196  0.2634
  125MOL0     H16810   3.547   1.775   0.268 -0.9334 -3.9765  2.3547
  125MOL0     H16811   3.433   1.846   0.396  1.7875  0.7709 -0.3319
  125MOL0     H16812   3.320   1.741   0.134  3.3592 -1.6599 -1.1162
  125MOL0     H16813   3.385   1.638   0.252  1.0890  0.2601 -0.6773
  125MOL0     H16814   3.246   1.704   0.422  0.2735 -3.6715 -0.8652
  125MOL0     H16815   3.184   1.849   0.336 -3.1692 -0.1870  0.0574
  125MOL0     H16816   3.047   1.720   0.204  1.4063 -0.6028 -0.8445
  125MOL0     H16817   3.104   1.560   0.261 -0.7313 -0.3474  1.1587
  125MOL0     H16818   3.015   1.581   0.484 -2.3092  2.1706  2.1632
  125MOL0     H16819   3.006   1.757   0.469 -0.0180  0.3432  0.4999
  125MOL0     H16820   2.833   1.692   0.288 -1.4036  0.5145 -0.6829
  125MOL0     H16821   2.842   1.533   0.359  0.2511 -0.1215  1.7892
  125MOL0     H16822   2.640   1.670   0.457 -0.5320 -0.6247 -0.1571
  125MOL0     H16823   2.761   1.656   0.590  3.0453  0.1197 -0.1969
  125MOL0     H16824   2.771   1.877   0.402  0.0538 -3.4601 -1.6903
  125MOL0     H16825   2.827   1.880   0.578  0.5031 -1.4779  1.0016
  125MOL0     H16826   2.597   1.855   0.758  1.2611  0.9861 -0.1785
  125MOL0     H16827   2.390   2.022   0.847  2.7899  1.7280 -0.9168
  125MOL0     H16828   2.295   2.097   0.713  0.3479 -0.2822  0.2249
  125MOL0     H16829   2.271   1.799   0.779 -1.7432 -1.9008 -2.0028
  125MOL0     H16830   2.203   1.893   0.649  0.1003  4.7013  0.5821
  125MOL0     H16831   2.081   2.044   0.805  0.4883  0.4470  1.4650
  125MOL0     H16832   2.160   1.974   0.948 -0.0262  2.2989 -0.7226
  125MOL0     H16833   2.061   1.776   0.946 -0.9217 -1.8285  0.3429
  125MOL0     H16834   1.984   1.801   0.782 -2.9440 -0.2903  1.7883
  125MOL0     H16835   2.084   1.813   1.140  1.1261  1.4357 -1.3880
  125MOL0     H16836   2.163   1.804   1.366 -0.9617 -0.8514 -0.0757
  125MOL0     H16837   2.166   1.966   1.435 -1.9887  1.8428  1.1702
  125MOL0     H16838   2.055   1.825   1.487  2.6249  0.2947  1.8445
  125MOL0     H16839   1.829   2.101   1.764 -0.8545 -4.0697 -2.8933
  125MOL0     H16840   1.702   2.244   1.945 -1.4853  4.2491 -0.1122
  125MOL0     H16841   1.286   2.270   1.928 -1.9185  2.7936  3.2223
  125MOL0     H16842   1.420   2.168   1.996  0.2162  1.0582 -0.1579
  125MOL0     H16843   1.280   2.272   2.177  0.4295  1.7012  1.6347
  125MOL0     H16844   1.440   2.333   2.182  0.4056 -0.0910 -0.6187
  125MOL0     H16845   1.371   2.546   2.073 -1.4731  1.0212 -1.1801
  125MOL0     H16846   1.263   2.512   2.210  0.5240  0.9134 -0.2886
  125MOL0     H16847   1.191   2.476   1.920  0.7637 -1.5905 -1.8039
  125MOL0     H16848   1.104   2.378   2.041 -1.3292  1.8037  3.3345
  125MOL0     H16849   1.103   2.679   2.052 -0.8145  0.3276  1.0146
  125MOL0     H16850   1.018   2.571   2.165  1.8844 -2.2703 -0.2456
  125MOL0     H16851   0.963   2.526   1.882  1.1988 -0.6113  0.0662
  125MOL0     H16852   0.864   2.493   2.027 -2.0462 -0.5014 -3.5828
  125MOL0     H16853   0.927   2.767   1.937  0.7171 -1.2677 -2.4429
  125MOL0     H16854   0.792   2.707   2.042 -0.6122 -1.3362 -0.9329
  125MOL0     H16855   0.701   2.585   1.844 -1.6543  0.7474  2.4334
  125MOL0     H16856   0.828   2.661   1.743  1.1525  0.5551  0.6963
  125MOL0     H16857   1.417   2.338   1.641 -0.1911 -0.6257 -0.0077
  125MOL0     H16858   1.536   2.198   1.475  1.4721 -1.7000 -1.1667
  125MOL0     H16859   1.720   2.138   1.262 -0.1489 -0.6150  1.3123
  125MOL0     H16860   1.748   2.058   1.031  2.0336  1.2666 -1.9652
  125MOL0     H16861   3.404   2.210   0.255  1.0149  0.4708 -2.0797
  125MOL0     H16862   3.558   2.376   0.333  1.3652  0.1845 -1.3071
  125MOL0     H16863   4.023   2.314   0.585 -1.0933 -1.2936  0.7159
  125MOL0     H16864   4.176   2.376   0.733  0.7467  0.9245  0.8556
  125MOL0     H16865   4.334   2.476   0.883 -0.5959  0.5129 -0.4226
  125MOL0     H16866   4.385   2.544   0.735 -0.0638 -0.4340  0.0317
  125MOL0     H16867   4.435   2.657   1.014 -0.4407  1.7915  0.5730
  125MOL0     H16868   4.451   2.758   0.874 -0.5042 -0.8577 -2.1800
  125MOL0     H16869   4.665   2.643   0.955 -1.3307 -0.3606  1.4856
  125MOL0     H16870   4.641   2.596   0.792  0.4274 -2.6092  0.0968
  125MOL0     H16871   4.555   2.384   0.828  0.7879  1.1607 -3.0765
  125MOL0     H16872   4.552   2.407   1.001  0.2101  0.0709  0.1122
  125MOL0     H16873   4.964   2.343   0.924  0.4915 -0.4130  0.3882
  125MOL0     H16874   4.043   2.787   0.719 -3.2826  1.1677 -1.5123
  125MOL0     H16875   3.873   2.720   0.582  1.4825  0.0544 -0.2662
  126MOL0     O16876   2.904   3.115   2.638 -0.2318  0.2650  0.3653
  126MOL0     C16877   2.945   3.211   2.698 -0.1865 -0.9944  0.4507
  126MOL0     O16878   2.887   3.270   2.812 -0.2169  0.1559 -0.1258
  126MOL0     C16879   2.770   3.206   2.853 -0.1385  0.8545  0.1983
  126MOL0     C16880   2.782   3.120   2.970  0.0367 -0.6103  1.5725
  126MOL0     C16881   2.667   3.049   3.011 -0.2453  0.2668  0.0376
  126MOL0     C16882   2.545   3.054   2.933  0.1174 -0.1208  0.2225
  126MOL0     O16883   2.423   2.988   2.947 -0.6376 -0.7511  0.6325
  126MOL0     C16884   2.379   2.958   3.073  0.2262  0.1667 -0.8133
  126MOL0     C16885   2.221   2.998   3.082  0.1681 -0.0503 -0.0068
  126MOL0     C16886   2.142   2.971   3.214  1.0077  0.5929  0.8986
  126MOL0     C16887   1.986   2.999   3.186 -0.4037  0.5170  0.0046
  126MOL0     C16888   1.899   2.986   3.300 -0.6772 -0.1385 -0.1802
  126MOL0     C16889   1.884   2.833   3.353 -0.6500  0.2113  0.0056
  126MOL0     C16890   1.785   2.752   3.273 -0.4512 -0.1619 -0.2175
  126MOL0     C16891   1.825   2.610   3.252  0.3044 -0.3325  0.5999
  126MOL0     N16892   1.944   2.601   3.174 -0.0057  0.0146 -0.0111
  126MOL0     C16893   1.932   2.583   3.038  0.1572 -0.0523  0.4728
  126MOL0     C16894   2.059   2.561   3.004  0.2097 -0.3308  0.5480
  126MOL0     C16895   2.115   2.542   2.859 -0.0977 -0.0239 -0.5439
  126MOL0     C16896   2.244   2.612   2.835 -0.5263  0.7876  0.8875
  126MOL0     C16897   2.307   2.591   2.696 -0.0389  0.3006  0.1262
  126MOL0     C16898   2.388   2.713   2.663 -0.5884  0.0744  0.0473
  126MOL0     O16899   2.462   2.698   2.536  0.2756  0.5328 -0.5328
  126MOL0     C16900   2.546   2.796   2.489 -0.1394  0.8452 -0.5248
  126MOL0     C16901   2.509   2.927   2.474 -0.1773 -0.1311 -0.5208
  126MOL0     C16902   2.598   3.019   2.411 -0.8925  0.3639 -0.5075
  126MOL0     C16903   2.549   3.155   2.423 -0.5343  0.0863  0.2606
  126MOL0     C16904   2.719   2.981   2.353  0.5538  0.6856  0.4237
  126MOL0     C16905   2.819   3.069   2.278  0.0762 -0.7167  0.6610
  126MOL0     O16906   2.948   3.011   2.256 -0.2913  0.3590  0.7121
  126MOL0     C16907   3.047   3.078   2.188  0.0779 -0.4968 -0.1960
  126MOL0     C16908   3.179   3.060   2.219 -1.2438  0.1556 -0.0860
  126MOL0     C16909   3.287   3.127   2.159 -1.0576  0.3776 -0.2244
  126MOL0     C16910   3.263   3.215   2.045 -0.1013 -0.4135 -0.7241
  126MOL0     O16911   3.370   3.263   1.975  0.3550  0.3271  0.2125
  126MOL0     C16912   3.484   3.310   2.039 -0.4791 -0.0000  0.6138
  126MOL0     C16913   3.601   3.312   1.936  0.2096  0.7173 -0.2897
  126MOL0     C16914   3.734   3.299   1.991  0.2072 -0.8635 -0.1208
  126MOL0     C16915   3.832   3.336   1.877  0.0723 -0.0261 -0.5208
  126MOL0     C16916   3.975   3.295   1.935 -0.0180 -0.7724  0.3091
  126MOL0     C16917   4.022   3.399   2.037 -0.5731  0.4582  0.2101
  126MOL0     C16918   4.164   3.365   2.099  0.8596  0.2116 -0.0366
  126MOL0     C16919   4.178   3.399   2.247 -0.1362  0.1125  0.2837
  126MOL0    Cl16920   4.193   3.587   2.288 -0.4045  0.0145 -0.1724
  126MOL0     C16921   3.132   3.223   1.994  0.8381  0.7233 -0.0622
  126MOL0     C16922   3.026   3.153   2.064  0.0925 -0.4880 -0.6832
  126MOL0     O16923   2.778   3.176   2.243 -0.2946 -0.4876  0.3818
  126MOL0     C16924   2.750   2.841   2.362  0.8118  0.3449 -0.4544
  126MOL0     C16925   2.665   2.754   2.433 -0.3179  0.2357 -0.5277
  126MOL0     N16926   2.140   2.558   3.122 -0.3746  1.3118  0.3247
  126MOL0     N16927   2.065   2.570   3.223  0.1118 -0.1881 -0.4418
  126MOL0     C16928   2.540   3.134   2.819 -0.4921 -0.7270  0.1759
  126MOL0     C16929   2.656   3.211   2.773 -0.1946  0.6798  0.7406
  126MOL0     C16930   3.069   3.267   2.652  0.1044 -0.0865 -0.3360
  126MOL0     C16931   3.095   3.257   2.519  0.1572  0.1155 -0.3895
  126MOL0     C16932   3.207   3.302   2.471 -0.2665  0.5736 -0.8825
  126MOL0     C16933   3.301   3.382   2.553 -1.0865  0.8147 -0.3860
  126MOL0     O16934   3.427   3.417   2.512  0.0951 -0.5495 -0.0982
  126MOL0     C16935   3.464   3.381   2.376  0.5343  0.3150 -0.0455
  126MOL0     C16936   3.609   3.418   2.360 -0.1187 -0.8993 -0.2754
  126MOL0     C16937   3.693   3.321   2.441 -0.4323 -0.0877 -0.9838
  126MOL0     C16938   3.847   3.348   2.433  0.7892  0.0667  0.4039
  126MOL0     C16939   3.896   3.445   2.531  0.2075  0.0784 -1.0075
  126MOL0     C16940   3.919   3.539   2.604 -0.0558  0.1655 -0.7736
  126MOL0     C16941   3.267   3.406   2.684  0.1857  0.7566 -0.1155
  126MOL0     C16942   3.151   3.352   2.731  1.1191  0.2706 -0.3422
  126MOL0     H16943   2.880   3.116   3.015 -0.4680  4.8219  3.9007
  126MOL0     H16944   2.678   2.982   3.096 -1.7243  1.9060  1.6179
  126MOL0     H16945   2.381   2.850   3.086 -0.3044  0.3795  1.5191
  126MOL0     H16946   2.437   3.002   3.155 -1.3976  0.5981  0.1626
  126MOL0     H16947   2.231   3.106   3.093 -0.8510  0.0076  0.4951
  126MOL0     H16948   2.180   2.967   2.986  0.6821 -0.8118  0.0041
  126MOL0     H16949   2.164   2.871   3.251 -0.5353  0.3892  1.3171
  126MOL0     H16950   2.180   3.045   3.285 -0.0587  0.6417  1.4283
  126MOL0     H16951   1.979   3.100   3.145 -2.6891  1.1647  1.7357
  126MOL0     H16952   1.953   2.920   3.118 -2.4304  0.0638  1.4000
  126MOL0     H16953   1.954   3.035   3.381 -1.6624 -0.3614  0.6426
  126MOL0     H16954   1.805   3.036   3.273  1.2166  1.9935 -3.6245
  126MOL0     H16955   1.980   2.783   3.363 -0.1562  1.0583 -0.4185
  126MOL0     H16956   1.833   2.851   3.449 -3.5845  1.7952 -1.7094
  126MOL0     H16957   1.685   2.740   3.318  0.5923 -0.5932  2.1352
  126MOL0     H16958   1.780   2.789   3.171  1.6286 -2.2860 -1.1613
  126MOL0     H16959   1.745   2.562   3.197  0.3875  3.3702 -3.3020
  126MOL0     H16960   1.850   2.563   3.348  0.6821 -0.0776  0.6328
  126MOL0     H16961   1.850   2.593   2.968  1.8566 -0.0297 -1.6213
  126MOL0     H16962   2.122   2.435   2.838  1.3400 -0.0697  0.0320
  126MOL0     H16963   2.042   2.590   2.794  0.5322  3.3347  0.9563
  126MOL0     H16964   2.322   2.587   2.907 -1.3276 -1.5946  0.9977
  126MOL0     H16965   2.228   2.719   2.854  3.2887  1.2734  2.2651
  126MOL0     H16966   2.233   2.567   2.619 -0.7440 -1.4075  1.2743
  126MOL0     H16967   2.378   2.507   2.693  0.4015  0.6353 -3.5979
  126MOL0     H16968   2.459   2.740   2.741 -0.6674 -0.5486  0.3383
  126MOL0     H16969   2.320   2.796   2.643 -0.4451  0.2687  0.3602
  126MOL0     H16970   2.425   2.947   2.539  0.4932  0.6647  0.1195
  126MOL0     H16971   2.634   3.220   2.444  0.9188 -1.2105 -1.2675
  126MOL0     H16972   2.505   3.188   2.328  0.6927 -0.9796 -0.7292
  126MOL0     H16973   2.471   3.161   2.498 -0.6342 -0.3513  0.1979
  126MOL0     H16974   3.199   2.977   2.286 -4.3691 -1.7440 -1.3057
  126MOL0     H16975   3.389   3.114   2.194 -2.3027 -2.6734  2.7360
  126MOL0     H16976   3.475   3.417   2.063  0.2624  0.8944 -2.5907
  126MOL0     H16977   3.511   3.257   2.131 -0.8229  1.9737  1.9185
  126MOL0     H16978   3.591   3.220   1.878  1.5725 -0.5482  1.3796
  126MOL0     H16979   3.580   3.395   1.868 -2.1820 -1.1009 -1.9324
  126MOL0     H16980   3.751   3.210   2.052 -0.9807 -1.4225 -0.5568
  126MOL0     H16981   3.735   3.382   2.063 -0.8753  2.2794 -3.3900
  126MOL0     H16982   3.807   3.270   1.793 -3.5813 -1.0800  1.1843
  126MOL0     H16983   3.828   3.444   1.860 -1.3721  0.7837  3.8112
  126MOL0     H16984   4.046   3.302   1.852 -2.3342  1.2171 -1.6913
  126MOL0     H16985   3.975   3.196   1.982 -1.5763 -0.8092  0.2778
  126MOL0     H16986   4.034   3.496   1.988  0.0508  0.6294  0.6948
  126MOL0     H16987   3.951   3.413   2.120  0.2658 -3.6143  1.8449
  126MOL0     H16988   4.242   3.414   2.040 -1.2308  0.5125 -2.7670
  126MOL0     H16989   4.178   3.257   2.094 -1.0419 -0.3369  3.2791
  126MOL0     H16990   4.271   3.350   2.277  0.1594 -2.0708 -3.5707
  126MOL0     H16991   4.093   3.358   2.302 -0.2790 -1.4946 -1.0534
  126MOL0     H16992   3.113   3.277   1.901  0.6473 -0.1465 -0.5350
  126MOL0     H16993   2.923   3.148   2.030 -1.2613 -1.9370  3.0329
  126MOL0     H16994   2.844   2.806   2.318  2.1983  1.9273  1.1109
  126MOL0     H16995   2.708   2.654   2.441  0.9366  0.7301 -0.8082
  126MOL0     H16996   2.459   3.131   2.747  1.1756 -0.2265 -1.8225
  126MOL0     H16997   2.657   3.274   2.685  0.0593  0.8523  0.8652
  126MOL0     H16998   3.036   3.193   2.455  0.8022 -1.0685  0.1632
  126MOL0     H16999   3.223   3.280   2.366 -0.0954 -3.0229 -0.2274
  126MOL0     H17000   3.459   3.273   2.358 -1.6456 -0.2422  3.1977
  126MOL0     H17001   3.403   3.440   2.307 -0.3234  1.1758  1.4181
  126MOL0     H17002   3.626   3.521   2.394  0.9671 -0.7375 -1.2597
  126MOL0     H17003   3.649   3.402   2.260  0.9940 -4.5041  0.6192
  126MOL0     H17004   3.676   3.220   2.402 -3.3727 -0.9634  2.0578
  126MOL0     H17005   3.659   3.313   2.544  1.0337  0.2417 -0.4474
  126MOL0     H17006   3.881   3.378   2.333 -0.8553 -1.4802 -0.6973
  126MOL0     H17007   3.902   3.257   2.461  0.3216 -1.0555 -2.0183
  126MOL0     H17008   3.942   3.629   2.656  3.6906 -0.5017 -0.9613
  126MOL0     H17009   3.329   3.465   2.751 -0.0623  0.1056  0.7135
  126MOL0     H17010   3.117   3.362   2.833  2.5533 -1.6517  0.3750
  127MOL0     O17011   1.728   7.948   3.923 -0.7077  0.2328 -0.7143
  127MOL0     C17012   1.641   7.875   3.895  0.2417 -0.0755 -0.7872
  127MOL0     O17013   1.541   7.895   3.794 -0.5338 -0.6306  0.2371
  127MOL0     C17014   1.557   8.007   3.717 -0.2566  0.8496  0.1334
  127MOL0     C17015   1.658   8.008   3.620 -0.8730  0.2672 -0.6482
  127MOL0     C17016   1.673   8.109   3.533 -1.4919 -0.5082 -0.2459
  127MOL0     C17017   1.588   8.217   3.545 -1.1651  0.5837 -1.0482
  127MOL0     O17018   1.598   8.323   3.463  0.3997 -0.2482 -0.9980
  127MOL0     C17019   1.657   8.301   3.329  0.0563  0.0717 -0.2007
  127MOL0     C17020   1.620   8.414   3.239  0.5728 -1.2008 -0.3505
  127MOL0     C17021   1.714   8.536   3.250  0.3801  0.3544  0.2605
  127MOL0     C17022   1.854   8.521   3.172  0.8868 -0.1696 -0.3620
  127MOL0     C17023   1.919   8.656   3.137 -0.4062 -0.8795  0.2216
  127MOL0     C17024   2.060   8.655   3.093 -0.2601 -0.1469 -0.1125
  127MOL0     C17025   2.111   8.780   3.022 -0.5104 -0.4821 -0.1835
  127MOL0     C17026   2.027   8.807   2.900 -0.2705 -0.1453  0.6489
  127MOL0     N17027   2.054   8.937   2.832 -0.1042  0.5708  0.2097
  127MOL0     C17028   2.083   8.951   2.701 -0.2841  1.2311 -0.1770
  127MOL0     C17029   2.086   9.078   2.670 -0.6844  0.7250 -0.2194
  127MOL0     C17030   2.121   9.126   2.538 -0.4122  0.1799 -0.4297
  127MOL0     C17031   2.271   9.104   2.516  0.4337 -0.0079  0.0293
  127MOL0     C17032   2.372   9.198   2.589  0.5975  0.0831  0.4194
  127MOL0     C17033   2.370   9.343   2.531 -0.0354  0.9595 -0.3279
  127MOL0     O17034   2.456   9.364   2.411 -0.1229  0.7227 -0.0956
  127MOL0     C17035   2.592   9.352   2.422  0.0323  0.5667 -0.8890
  127MOL0     C17036   2.669   9.458   2.460 -0.1692 -0.2060  0.0299
  127MOL0     C17037   2.815   9.464   2.447  1.0548  0.3944  0.1357
  127MOL0     C17038   2.878   9.594   2.487 -0.8084 -0.0980  0.2010
  127MOL0     C17039   2.881   9.351   2.400 -0.0021  0.3135 -0.2457
  127MOL0     C17040   3.024   9.335   2.369 -0.0379 -0.7854 -0.9507
  127MOL0     O17041   3.074   9.208   2.374  0.1177  0.2358  0.5149
  127MOL0     C17042   3.212   9.191   2.352  0.0256  0.0135  0.2169
  127MOL0     C17043   3.311   9.262   2.431  0.4433  0.2669  0.7611
  127MOL0     C17044   3.448   9.234   2.420  0.1579  0.2384 -0.1939
  127MOL0     C17045   3.496   9.161   2.316  0.3692  0.1523  0.5107
  127MOL0     O17046   3.626   9.133   2.291  0.4603  0.1965 -0.9521
  127MOL0     C17047   3.735   9.181   2.379  0.4126 -0.4867 -0.2267
  127MOL0     C17048   3.869   9.195   2.303  0.6170 -0.3811 -0.9199
  127MOL0     C17049   3.916   9.068   2.241 -0.3030 -0.6737 -0.4345
  127MOL0     C17050   4.067   9.054   2.237 -0.3331 -1.1330 -0.0372
  127MOL0     C17051   4.123   8.920   2.178  0.4498  0.2377 -0.4441
  127MOL0     C17052   4.261   8.901   2.217  0.0326  0.6436 -0.2900
  127MOL0     C17053   4.369   9.007   2.165  0.5637  0.3797  0.6516
  127MOL0     C17054   4.511   8.983   2.205  0.4573 -0.7298 -0.3593
  127MOL0    Cl17055   4.572   8.846   2.108  0.2449 -0.4214  0.9025
  127MOL0     C17056   3.407   9.097   2.231  0.6033  0.1441  0.8483
  127MOL0     C17057   3.263   9.111   2.255  0.2850  0.2338  0.1998
  127MOL0     O17058   3.092   9.444   2.365  0.2451 -0.1579 -0.2045
  127MOL0     C17059   2.800   9.238   2.371 -0.0885 -0.3709 -0.4831
  127MOL0     C17060   2.662   9.234   2.372  0.5792 -0.6236  0.4199
  127MOL0     N17061   2.069   9.146   2.791 -0.0038 -0.3756 -0.4784
  127MOL0     N17062   2.038   9.063   2.886 -0.7868 -0.1504  0.5755
  127MOL0     C17063   1.492   8.220   3.644 -0.1807  0.4167 -0.8007
  127MOL0     C17064   1.472   8.110   3.729  0.3642 -0.7897 -0.7791
  127MOL0     C17065   1.618   7.749   3.967 -0.3401  0.3471 -1.2315
  127MOL0     C17066   1.507   7.666   3.926 -0.3064 -0.2541  0.0606
  127MOL0     C17067   1.483   7.546   3.991  0.0215  0.3121  0.9750
  127MOL0     C17068   1.566   7.491   4.087 -0.8861  0.1422 -0.3732
  127MOL0     O17069   1.532   7.369   4.139 -0.4733 -0.0675 -0.2345
  127MOL0     C17070   1.632   7.269   4.186 -0.2249 -0.3458 -0.5378
  127MOL0     C17071   1.579   7.158   4.284 -0.2675  0.3670 -0.3576
  127MOL0     C17072   1.497   7.213   4.394  1.0895 -0.0352 -0.6915
  127MOL0     C17073   1.342   7.218   4.357 -0.7573 -0.2482 -0.2375
  127MOL0     C17074   1.275   7.090   4.366  0.0081  1.0759 -0.4209
  127MOL0     C17075   1.234   6.974   4.381  0.2737  0.2510  0.3900
  127MOL0     C17076   1.679   7.569   4.121 -0.3289  0.5097 -0.0209
  127MOL0     C17077   1.697   7.698   4.075 -0.2050 -0.8714 -0.0347
  127MOL0     H17078   1.722   7.921   3.611  0.2959  1.2201 -1.9642
  127MOL0     H17079   1.769   8.111   3.481 -0.6943  1.4901  1.1769
  127MOL0     H17080   1.765   8.280   3.327 -0.1047 -0.7881 -0.4539
  127MOL0     H17081   1.613   8.211   3.286 -1.7678  0.8976 -0.1146
  127MOL0     H17082   1.603   8.396   3.133  0.0295 -1.4465 -0.2291
  127MOL0     H17083   1.520   8.446   3.269  0.8514  1.0191 -1.5841
  127MOL0     H17084   1.655   8.612   3.199  2.2279  1.5700 -0.1896
  127MOL0     H17085   1.729   8.564   3.355 -0.4842 -0.5844  0.6538
  127MOL0     H17086   1.926   8.459   3.226  0.5874 -1.4758 -1.4110
  127MOL0     H17087   1.832   8.481   3.073 -1.0818  1.9345 -0.8531
  127MOL0     H17088   1.852   8.713   3.072 -0.4309  3.3270  3.5307
  127MOL0     H17089   1.920   8.713   3.230  3.4047 -0.7926  0.2623
  127MOL0     H17090   2.126   8.645   3.180 -1.2063 -2.1576  0.4293
  127MOL0     H17091   2.091   8.569   3.033  1.1081 -2.0702  3.0630
  127MOL0     H17092   2.107   8.866   3.090  0.0185  0.2950 -1.1254
  127MOL0     H17093   2.218   8.766   3.005 -0.0958  3.6017 -1.9505
  127MOL0     H17094   1.918   8.798   2.909 -0.4408  0.0184 -0.9563
  127MOL0     H17095   2.042   8.721   2.834  1.0656  1.8979 -1.8686
  127MOL0     H17096   2.088   8.878   2.621  1.8581  2.5382 -1.3540
  127MOL0     H17097   2.066   9.059   2.471 -1.0904 -2.4165  2.4836
  127MOL0     H17098   2.097   9.231   2.519  0.9895  0.2213 -2.3375
  127MOL0     H17099   2.279   9.100   2.407 -2.1400  1.1845 -0.2822
  127MOL0     H17100   2.294   9.005   2.558 -1.2407 -1.5916 -2.5208
  127MOL0     H17101   2.472   9.155   2.590 -0.5596 -2.8877 -0.4632
  127MOL0     H17102   2.332   9.192   2.691  2.2524 -0.8371  1.0619
  127MOL0     H17103   2.397   9.414   2.610 -1.3361  1.5494 -0.3969
  127MOL0     H17104   2.271   9.381   2.506 -0.0554  0.5361 -0.9265
  127MOL0     H17105   2.615   9.543   2.500 -0.6023  0.7837 -2.5018
  127MOL0     H17106   2.809   9.678   2.504 -0.4419  0.2375  0.0503
  127MOL0     H17107   2.918   9.581   2.588  1.3494  2.2379 -0.2212
  127MOL0     H17108   2.952   9.625   2.412 -0.4355  0.5772  0.8324
  127MOL0     H17109   3.271   9.328   2.507  0.6343  0.2064  0.9159
  127MOL0     H17110   3.524   9.268   2.490  0.6483 -4.0023  1.5919
  127MOL0     H17111   3.713   9.287   2.399 -1.2424 -1.4587  4.0942
  127MOL0     H17112   3.748   9.140   2.479  2.0320 -0.3477 -0.3441
  127MOL0     H17113   3.853   9.264   2.220  1.9841  0.7974 -0.2539
  127MOL0     H17114   3.932   9.257   2.367 -0.9073  1.6377 -1.2895
  127MOL0     H17115   3.853   9.046   2.155 -0.7787 -2.4007  0.3090
  127MOL0     H17116   3.887   8.990   2.313 -2.6376  0.3177 -0.2157
  127MOL0     H17117   4.112   9.142   2.189 -0.3473  0.4262  2.6034
  127MOL0     H17118   4.099   9.063   2.341 -1.4496  0.7236  0.1983
  127MOL0     H17119   4.124   8.930   2.069  0.0662 -0.5114 -0.5242
  127MOL0     H17120   4.050   8.842   2.203 -1.2946  1.6778 -0.8189
  127MOL0     H17121   4.268   8.912   2.326  0.0080 -0.1225 -0.2039
  127MOL0     H17122   4.294   8.802   2.186 -0.6381 -0.2360  1.6646
  127MOL0     H17123   4.338   9.104   2.205 -1.3583  0.8106 -1.6802
  127MOL0     H17124   4.361   9.021   2.057  2.0583 -1.3609  0.2628
  127MOL0     H17125   4.525   8.963   2.312  1.0481 -0.8218 -0.4462
  127MOL0     H17126   4.572   9.069   2.176  1.3400 -1.3732 -0.4644
  127MOL0     H17127   3.429   9.033   2.146 -0.3990 -1.2687  1.6039
  127MOL0     H17128   3.205   9.062   2.177  0.9561  0.6446 -0.5842
  127MOL0     H17129   2.853   9.153   2.329  0.0630 -0.1458 -0.7502
  127MOL0     H17130   2.595   9.150   2.356 -1.6876  1.2643 -0.5599
  127MOL0     H17131   1.439   8.314   3.654  0.3156  0.8247 -1.8961
  127MOL0     H17132   1.390   8.112   3.801 -0.1930 -1.4805 -1.3709
  127MOL0     H17133   1.443   7.689   3.842  0.4274  2.4225  0.1430
  127MOL0     H17134   1.402   7.490   3.946  2.1709 -1.1003 -1.3677
  127MOL0     H17135   1.677   7.218   4.101 -2.2989 -3.3480 -0.0191
  127MOL0     H17136   1.706   7.326   4.242 -0.1386 -1.1604  0.2032
  127MOL0     H17137   1.658   7.099   4.332 -1.2412 -0.3529  0.3972
  127MOL0     H17138   1.519   7.093   4.220 -0.4785  0.0402  0.1624
  127MOL0     H17139   1.520   7.317   4.419 -1.6918  0.4164  0.4242
  127MOL0     H17140   1.497   7.157   4.488  0.0139 -0.9000 -1.1722
  127MOL0     H17141   1.341   7.244   4.250  2.6093 -2.6960 -1.0423
  127MOL0     H17142   1.281   7.283   4.419 -1.5098  0.5333 -1.7365
  127MOL0     H17143   1.198   6.877   4.409 -0.5505  1.0746  2.3539
  127MOL0     H17144   1.749   7.511   4.180 -1.6744 -0.0615  1.0866
  127MOL0     H17145   1.775   7.750   4.129 -0.7870 -0.1607  0.1389
  128MOL0     O17146   6.812   8.116   2.669 -0.8643  0.4450  0.2053
  128MOL0     C17147   6.874   8.117   2.775 -0.2777  0.0272 -0.8741
  128MOL0     O17148   6.849   8.207   2.881 -0.1197 -0.7326 -0.2100
  128MOL0     C17149   6.767   8.321   2.885 -0.9036  0.0558 -1.0105
  128MOL0     C17150   6.699   8.382   2.780  0.8209 -0.9730 -0.2728
  128MOL0     C17151   6.606   8.491   2.802  0.0210  1.0796  1.5182
  128MOL0     C17152   6.590   8.539   2.929  0.2652 -0.7654 -0.0202
  128MOL0     O17153   6.500   8.644   2.964 -0.6127  0.0293  0.0846
  128MOL0     C17154   6.364   8.603   2.936  0.2416 -0.4695  0.3834
  128MOL0     C17155   6.260   8.677   3.019 -0.0325  0.9071 -0.6413
  128MOL0     C17156   6.232   8.830   2.989  0.5446 -0.0867 -0.7009
  128MOL0     C17157   6.175   8.855   2.842 -0.1128 -0.4630 -0.4613
  128MOL0     C17158   6.127   9.008   2.848 -0.2512  0.0144  0.7770
  128MOL0     C17159   6.039   9.050   2.732  0.5217  1.1326  0.0880
  128MOL0     C17160   5.918   8.952   2.709  0.1524 -0.6520  0.2483
  128MOL0     C17161   5.828   9.001   2.602 -0.1882  0.0604 -0.0750
  128MOL0     N17162   5.744   8.884   2.563  0.5197  0.1418  0.1246
  128MOL0     C17163   5.667   8.810   2.656 -0.3594  0.7578  0.2180
  128MOL0     C17164   5.574   8.737   2.571 -0.6796 -0.0533 -0.4571
  128MOL0     C17165   5.480   8.646   2.625 -0.4625  0.1148 -0.5582
  128MOL0     C17166   5.344   8.643   2.547 -1.1147 -0.3027  0.3670
  128MOL0     C17167   5.236   8.577   2.632  0.5587  0.5371  0.1616
  128MOL0     C17168   5.095   8.617   2.582  0.4161 -0.8523 -0.0328
  128MOL0     O17169   5.001   8.515   2.626  0.1611 -0.5069 -0.5510
  128MOL0     C17170   4.875   8.556   2.646  0.2569 -0.5794 -0.1372
  128MOL0     C17171   4.811   8.658   2.573 -0.0394 -0.0790 -0.0330
  128MOL0     C17172   4.673   8.690   2.580  0.3872 -0.6723 -0.9540
  128MOL0     C17173   4.616   8.801   2.502  0.4983 -0.0835 -0.0507
  128MOL0     C17174   4.594   8.609   2.666  0.1362 -0.3425  0.2040
  128MOL0     C17175   4.452   8.620   2.682 -0.3519  0.0294 -0.3253
  128MOL0     O17176   4.379   8.658   2.570  0.3312  1.0023 -1.0829
  128MOL0     C17177   4.244   8.677   2.583 -0.1582  0.3677  0.3893
  128MOL0     C17178   4.161   8.570   2.588  0.0451 -0.1545  0.3676
  128MOL0     C17179   4.025   8.600   2.586 -0.2882 -0.3003 -0.1953
  128MOL0     C17180   3.974   8.727   2.567 -0.0379 -0.0182  0.6906
  128MOL0     O17181   3.833   8.725   2.570 -0.8616  0.2096 -0.2066
  128MOL0     C17182   3.783   8.816   2.669 -0.6295  0.2147  0.5021
  128MOL0     C17183   3.645   8.846   2.632 -0.1807  0.0122  0.8075
  128MOL0     C17184   3.580   8.934   2.735  0.3589 -0.1952 -0.0510
  128MOL0     C17185   3.423   8.939   2.720 -0.4943 -0.0384  1.0340
  128MOL0     C17186   3.388   9.050   2.830  0.0519  0.4357  0.1193
  128MOL0     C17187   3.237   9.072   2.823 -0.0443 -0.2395 -0.1084
  128MOL0     C17188   3.202   9.151   2.948 -0.8382 -0.1721  0.5222
  128MOL0     C17189   3.097   9.261   2.931  0.4577 -1.6089  0.3861
  128MOL0    Cl17190   2.929   9.211   2.890  0.0557 -0.3218 -0.2243
  128MOL0     C17191   4.065   8.834   2.560  0.1345  0.4342  1.2142
  128MOL0     C17192   4.197   8.809   2.580 -0.0268 -1.0598  0.6880
  128MOL0     O17193   4.401   8.597   2.790  0.1823  0.6470 -0.2379
  128MOL0     C17194   4.661   8.513   2.745  1.0542 -0.2414 -0.2132
  128MOL0     C17195   4.800   8.485   2.735  0.8649  0.2726 -0.0754
  128MOL0     N17196   5.611   8.755   2.443 -0.1804  0.4706  0.6955
  128MOL0     N17197   5.708   8.843   2.439  0.9786  0.4909 -0.6729
  128MOL0     C17198   6.666   8.487   3.037  0.4223  0.4015  1.3140
  128MOL0     C17199   6.758   8.380   3.011  0.0424  0.9513  0.0193
  128MOL0     C17200   6.954   8.004   2.819 -0.4753  0.8380  0.8237
  128MOL0     C17201   7.003   7.912   2.722 -0.3781 -0.7810 -0.0778
  128MOL0     C17202   7.072   7.796   2.771 -0.1980  0.8745  0.0390
  128MOL0     C17203   7.112   7.765   2.899  0.2125  0.0618 -0.2395
  128MOL0     O17204   7.191   7.665   2.943  0.1836  0.3037 -1.3103
  128MOL0     C17205   7.286   7.608   2.850 -0.4641  0.1722  0.4909
  128MOL0     C17206   7.396   7.538   2.932 -0.6854  0.0480 -0.8600
  128MOL0     C17207   7.515   7.487   2.843  0.2170 -0.5237  0.2444
  128MOL0     C17208   7.651   7.470   2.924  0.0552  0.0621 -0.4770
  128MOL0     C17209   7.715   7.345   2.896 -0.0421 -0.0456 -0.3363
  128MOL0     C17210   7.756   7.235   2.869  0.5691 -0.1955 -0.2873
  128MOL0     C17211   7.060   7.859   2.989 -0.4495  0.3818  1.1209
  128MOL0     C17212   6.992   7.979   2.953 -0.0920 -0.0554 -0.1811
  128MOL0     H17213   6.697   8.342   2.679  1.1151 -0.3854 -0.5154
  128MOL0     H17214   6.548   8.520   2.714  2.0593 -1.0008 -0.6792
  128MOL0     H17215   6.336   8.607   2.831  0.5199 -1.4096  0.2561
  128MOL0     H17216   6.347   8.499   2.967 -0.5891 -0.9896 -1.6862
  128MOL0     H17217   6.169   8.619   3.003  0.7229 -1.0649  1.5514
  128MOL0     H17218   6.295   8.669   3.122  2.1495  1.4737 -1.2972
  128MOL0     H17219   6.165   8.870   3.066  2.2724  1.0816  0.2552
  128MOL0     H17220   6.319   8.895   3.005  0.6671 -0.9624  2.8591
  128MOL0     H17221   6.251   8.841   2.764 -0.4119  1.4103 -1.1532
  128MOL0     H17222   6.091   8.788   2.824  0.8960 -1.8946 -0.0627
  128MOL0     H17223   6.061   9.017   2.934 -1.5282 -2.1652  0.1146
  128MOL0     H17224   6.204   9.085   2.861 -1.2557  1.7836 -2.4713
  128MOL0     H17225   6.002   9.153   2.740 -1.3108  0.8484 -3.0523
  128MOL0     H17226   6.099   9.051   2.641  3.6280  0.8299  1.9965
  128MOL0     H17227   5.950   8.855   2.670  1.3749  0.8647 -2.8718
  128MOL0     H17228   5.863   8.948   2.804  0.8130  2.5192  0.8713
  128MOL0     H17229   5.895   9.029   2.519  1.6086 -0.6879  1.0635
  128MOL0     H17230   5.777   9.090   2.640  2.2869  1.3859  0.3717
  128MOL0     H17231   5.675   8.833   2.762 -1.0217  2.4824 -0.0679
  128MOL0     H17232   5.526   8.547   2.616 -3.3173 -1.1368 -5.4081
  128MOL0     H17233   5.461   8.674   2.729  0.1671  0.6121 -0.5715
  128MOL0     H17234   5.364   8.591   2.453  1.6237  1.0949  0.0372
  128MOL0     H17235   5.326   8.748   2.522  1.3640  0.1211  0.0829
  128MOL0     H17236   5.239   8.622   2.732  0.8564 -0.0860  0.4328
  128MOL0     H17237   5.251   8.470   2.645  0.8781  0.5481 -0.1219
  128MOL0     H17238   5.084   8.641   2.476 -1.2279 -4.0493 -0.7184
  128MOL0     H17239   5.067   8.710   2.632  2.0958  1.5989 -3.2616
  128MOL0     H17240   4.867   8.700   2.490  0.5876 -0.5817  0.1281
  128MOL0     H17241   4.543   8.770   2.427 -1.3471  2.0375  0.7333
  128MOL0     H17242   4.571   8.870   2.573  1.8523 -0.2757  1.0480
  128MOL0     H17243   4.689   8.864   2.451 -2.7224  1.7627 -2.7351
  128MOL0     H17244   4.199   8.468   2.584  0.4667 -0.0059  0.5261
  128MOL0     H17245   3.958   8.516   2.601 -0.7506  0.2077  0.6689
  128MOL0     H17246   3.793   8.759   2.762  3.4309 -0.1577  0.0111
  128MOL0     H17247   3.842   8.908   2.675  0.5418 -0.4138 -0.8629
  128MOL0     H17248   3.667   8.890   2.534  1.5706 -2.8994 -0.2231
  128MOL0     H17249   3.587   8.754   2.623  1.3345 -0.8334 -1.7806
  128MOL0     H17250   3.616   9.036   2.720  1.1795 -0.6825 -1.6947
  128MOL0     H17251   3.593   8.888   2.833 -0.2730  1.1337  0.6876
  128MOL0     H17252   3.395   8.971   2.619  0.8151 -1.3265  0.2290
  128MOL0     H17253   3.385   8.839   2.743 -2.5977  1.2443  3.7283
  128MOL0     H17254   3.435   9.146   2.809 -3.3840  1.4809 -4.0500
  128MOL0     H17255   3.424   9.022   2.930 -2.4987 -0.7951  0.7864
  128MOL0     H17256   3.201   9.115   2.729  1.0741 -0.1140 -0.4953
  128MOL0     H17257   3.191   8.973   2.837  1.2483 -0.5478  2.8045
  128MOL0     H17258   3.291   9.210   2.972 -0.9983  0.2782  0.0211
  128MOL0     H17259   3.178   9.094   3.038 -1.3988 -1.3756 -0.3577
  128MOL0     H17260   3.125   9.332   2.853  0.8005 -5.1008 -2.9985
  128MOL0     H17261   3.077   9.311   3.026 -1.4509 -2.4048  0.4464
  128MOL0     H17262   4.032   8.935   2.536 -0.9428 -0.5566 -1.8942
  128MOL0     H17263   4.277   8.882   2.584 -1.6290  1.0038 -1.8350
  128MOL0     H17264   4.603   8.448   2.810  0.1992  0.2035 -0.5145
  128MOL0     H17265   4.842   8.396   2.781  0.6212  0.0141 -0.3508
  128MOL0     H17266   6.652   8.524   3.138 -1.3704 -0.0381  1.2495
  128MOL0     H17267   6.805   8.330   3.094 -0.2484 -1.5216 -1.2150
  128MOL0     H17268   6.975   7.915   2.617  1.3862 -0.9042 -0.5845
  128MOL0     H17269   7.118   7.729   2.698  2.3660  0.9145  1.4859
  128MOL0     H17270   7.247   7.538   2.776  0.2330 -1.1553  1.3377
  128MOL0     H17271   7.327   7.691   2.792  0.4637  0.1671  1.1142
  128MOL0     H17272   7.343   7.467   2.995  1.6551  2.5301  4.5596
  128MOL0     H17273   7.428   7.607   3.011  0.0624 -1.4312  0.1717
  128MOL0     H17274   7.542   7.558   2.765  5.1498 -0.9649  1.2263
  128MOL0     H17275   7.488   7.399   2.785  0.8644 -1.0645  0.7496
  128MOL0     H17276   7.632   7.467   3.032 -1.0698 -2.0991 -0.6878
  128MOL0     H17277   7.719   7.554   2.908 -0.5515  1.2071  2.3130
  128MOL0     H17278   7.794   7.138   2.841  0.9750 -0.9999  2.6837
  128MOL0     H17279   7.081   7.839   3.093  1.1627 -0.7653  0.6121
  128MOL0     H17280   6.950   8.031   3.039 -0.2629 -0.5528  0.0430
  129MOL0     O17281  10.428   4.122  11.136  0.4980 -0.0388  0.5565
  129MOL0     C17282  10.478   4.045  11.054 -0.1994  0.4228 -0.5735
  129MOL0     O17283  10.403   3.952  10.987 -0.3531  0.5753 -0.3278
  129MOL0     C17284  10.296   3.887  11.043 -0.0592  0.2880  0.0452
  129MOL0     C17285  10.303   3.850  11.175 -0.4511 -0.3203 -0.9302
  129MOL0     C17286  10.198   3.771  11.228  0.3082 -0.1298 -0.9466
  129MOL0     C17287  10.080   3.727  11.163 -0.8422 -0.6205  0.5391
  129MOL0     O17288   9.983   3.651  11.223 -0.1917  0.5709  0.4419
  129MOL0     C17289  10.022   3.571  11.334  0.5564 -0.7243  0.2564
  129MOL0     C17290   9.903   3.492  11.377  0.1367 -0.0421  0.4632
  129MOL0     C17291   9.785   3.587  11.437 -0.1113 -1.0578 -0.2742
  129MOL0     C17292   9.667   3.513  11.494 -0.5864  0.5433 -0.8126
  129MOL0     C17293   9.616   3.594  11.612 -0.0305  0.9073  0.6955
  129MOL0     C17294   9.463   3.561  11.634 -0.5429  0.7862 -0.3759
  129MOL0     C17295   9.455   3.416  11.674  0.2665  0.5830 -0.0009
  129MOL0     C17296   9.314   3.377  11.719 -0.3539  1.0915  0.3882
  129MOL0     N17297   9.210   3.419  11.625 -0.1073 -0.4286 -0.0926
  129MOL0     C17298   9.221   3.395  11.491 -0.0914  0.1688  0.2614
  129MOL0     C17299   9.130   3.466  11.422 -0.2462  0.2633 -0.5630
  129MOL0     C17300   9.103   3.471  11.271 -0.2970  0.2153  0.4100
  129MOL0     C17301   8.962   3.410  11.251  0.4723 -0.0936 -0.0276
  129MOL0     C17302   8.859   3.520  11.233 -0.3409  0.6302 -0.3764
  129MOL0     C17303   8.717   3.472  11.249 -0.5980 -0.2359  0.2105
  129MOL0     O17304   8.637   3.577  11.200  0.1141  0.4898 -0.3292
  129MOL0     C17305   8.501   3.560  11.214  0.3063 -0.7445  0.6548
  129MOL0     C17306   8.428   3.657  11.156  0.2014 -0.9079 -0.1509
  129MOL0     C17307   8.289   3.662  11.173  0.1229 -0.2561  0.6271
  129MOL0     C17308   8.221   3.767  11.090  0.3327 -0.3787  0.9207
  129MOL0     C17309   8.221   3.550  11.229 -0.6020 -0.0188 -1.2000
  129MOL0     C17310   8.068   3.536  11.234 -0.9245 -0.2048 -0.2849
  129MOL0     O17311   8.021   3.425  11.296 -0.7721 -0.1450 -0.3655
  129MOL0     C17312   7.887   3.400  11.313  0.4933  0.6123 -0.0616
  129MOL0     C17313   7.819   3.440  11.429 -0.4151 -0.0778 -0.3474
  129MOL0     C17314   7.687   3.411  11.445 -0.2780  0.2975  0.0590
  129MOL0     C17315   7.611   3.346  11.345  0.3390 -0.4270  0.4250
  129MOL0     O17316   7.475   3.317  11.355  0.0444 -0.1953 -0.1412
  129MOL0     C17317   7.398   3.270  11.238  0.2021 -0.1384  0.0044
  129MOL0     C17318   7.250   3.243  11.268  0.7600 -0.2272 -0.6732
  129MOL0     C17319   7.194   3.145  11.166  0.4384 -0.2647  0.6215
  129MOL0     C17320   7.041   3.128  11.187 -0.2607  0.2928 -0.6848
  129MOL0     C17321   6.979   3.014  11.101 -0.3845  0.1876 -0.4270
  129MOL0     C17322   6.832   2.993  11.144 -0.3263 -0.2614 -0.1838
  129MOL0     C17323   6.746   3.114  11.116  0.0990 -0.3149  0.1651
  129MOL0     C17324   6.599   3.068  11.112  0.1158  0.1604 -0.0029
  129MOL0    Cl17325   6.490   3.210  11.088 -0.1069  0.3058  0.0704
  129MOL0     C17326   7.677   3.318  11.218  0.1204  0.3634  0.3448
  129MOL0     C17327   7.817   3.352  11.210  0.6347 -0.3046 -0.5162
  129MOL0     O17328   7.996   3.626  11.184  0.2029  0.9535 -0.8531
  129MOL0     C17329   8.298   3.449  11.282 -0.4976 -1.0929 -0.6444
  129MOL0     C17330   8.439   3.455  11.279  0.1071  0.3439 -0.6048
  129MOL0     N17331   9.062   3.532  11.524  0.8809 -0.2661  0.4845
  129MOL0     N17332   9.110   3.512  11.638  0.3769 -0.3598 -0.8086
  129MOL0     C17333  10.077   3.771  11.027  0.9025  0.0309 -0.0874
  129MOL0     C17334  10.187   3.844  10.966  0.7594 -0.8998  0.3181
  129MOL0     C17335  10.614   4.068  11.021 -0.6107  1.0907 -0.2623
  129MOL0     C17336  10.683   3.983  10.932 -0.6806  0.6876  0.0047
  129MOL0     C17337  10.820   4.001  10.908  0.5247  0.5963 -0.5113
  129MOL0     C17338  10.897   4.104  10.961  0.0206 -0.5454 -0.6025
  129MOL0     O17339  11.032   4.132  10.940  0.1755 -0.3323 -1.0925
  129MOL0     C17340  11.115   4.046  10.859  0.3684 -0.2869 -0.0798
  129MOL0     C17341  11.229   3.989  10.948 -0.1616 -0.4589 -0.0868
  129MOL0     C17342  11.175   3.924  11.076 -0.6319 -0.3248 -0.2451
  129MOL0     C17343  11.298   3.879  11.161  0.5110  0.5530 -0.8680
  129MOL0     C17344  11.376   3.983  11.223  0.6171  0.0607  0.7976
  129MOL0     C17345  11.447   4.071  11.281  0.6382  0.2749  0.5545
  129MOL0     C17346  10.834   4.182  11.059  0.0691 -0.4488 -0.7304
  129MOL0     C17347  10.698   4.163  11.087  0.6763  0.0191  1.0038
  129MOL0     H17348  10.373   3.908  11.235 -1.5909  0.6752 -0.5305
  129MOL0     H17349  10.194   3.760  11.336  2.6216 -0.7123 -0.8783
  129MOL0     H17350  10.092   3.496  11.296 -0.7362 -0.4383 -3.0371
  129MOL0     H17351  10.045   3.634  11.420  2.1859  2.1419 -2.1020
  129MOL0     H17352   9.855   3.418  11.312 -0.6683  0.6467  0.2485
  129MOL0     H17353   9.944   3.440  11.464  2.3218 -2.0403 -1.6267
  129MOL0     H17354   9.824   3.652  11.516 -2.4911 -0.6311  0.6222
  129MOL0     H17355   9.753   3.661  11.362  1.0328  1.4439  1.5760
  129MOL0     H17356   9.594   3.497  11.414 -0.8287  2.2291 -0.9769
  129MOL0     H17357   9.680   3.409  11.526 -4.6984  0.3122  0.7871
  129MOL0     H17358   9.667   3.570  11.706  2.2894 -0.4951 -0.8229
  129MOL0     H17359   9.626   3.703  11.604 -0.7608  0.8946 -0.7224
  129MOL0     H17360   9.430   3.607  11.727  3.6103 -0.6923  2.1029
  129MOL0     H17361   9.402   3.585  11.547  3.2225  0.7313 -3.2891
  129MOL0     H17362   9.480   3.344  11.595  1.7334 -0.7534  1.5855
  129MOL0     H17363   9.527   3.394  11.755 -1.8948 -1.6045  1.4682
  129MOL0     H17364   9.296   3.414  11.821  0.1392 -1.3147  1.4224
  129MOL0     H17365   9.319   3.268  11.717  0.6695  1.1082  1.0531
  129MOL0     H17366   9.288   3.328  11.439  1.5876  2.9258 -1.3259
  129MOL0     H17367   9.107   3.579  11.256  0.4463  0.0733 -0.5232
  129MOL0     H17368   9.181   3.432  11.205 -0.0601  0.8855  0.2932
  129MOL0     H17369   8.927   3.365  11.345 -1.0934 -2.0099 -1.4520
  129MOL0     H17370   8.954   3.341  11.167 -0.4822 -1.5387  1.1991
  129MOL0     H17371   8.874   3.578  11.141 -0.4605  0.4690 -0.4977
  129MOL0     H17372   8.875   3.586  11.319  1.8173  0.7572 -0.8250
  129MOL0     H17373   8.709   3.455  11.356  1.3605 -0.5143  0.3418
  129MOL0     H17374   8.709   3.377  11.194  1.1597 -1.4005  1.8496
  129MOL0     H17375   8.473   3.737  11.098  1.5492 -0.2662  1.6759
  129MOL0     H17376   8.168   3.732  11.001  1.8387  2.0857 -1.0471
  129MOL0     H17377   8.140   3.810  11.149 -1.1079  1.0621 -1.9262
  129MOL0     H17378   8.284   3.848  11.053  0.1969  0.2689  2.0559
  129MOL0     H17379   7.873   3.473  11.517  1.6880 -1.5236 -1.0266
  129MOL0     H17380   7.656   3.437  11.546  1.4377  2.6493  0.0664
  129MOL0     H17381   7.409   3.338  11.153  0.6096  0.3680  0.4600
  129MOL0     H17382   7.442   3.171  11.223  0.9858  0.6314 -4.3600
  129MOL0     H17383   7.239   3.217  11.374  0.6482 -0.6368 -0.7834
  129MOL0     H17384   7.195   3.336  11.254 -1.0061 -1.3405 -1.4106
  129MOL0     H17385   7.240   3.047  11.177  1.8557  0.4915  1.7920
  129MOL0     H17386   7.217   3.194  11.070  0.4272  1.6842  1.5649
  129MOL0     H17387   7.024   3.098  11.291 -0.1657  2.1908 -0.0905
  129MOL0     H17388   6.993   3.226  11.178 -0.6891  0.7399  3.8331
  129MOL0     H17389   7.037   2.921  11.095 -1.8295 -0.7253 -0.6223
  129MOL0     H17390   6.985   3.044  10.996 -1.5209 -0.9726 -0.8506
  129MOL0     H17391   6.803   2.904  11.088 -0.1826 -0.9687  0.8414
  129MOL0     H17392   6.814   2.977  11.251 -0.9713 -0.7522 -0.3632
  129MOL0     H17393   6.764   3.150  11.014  0.0357 -2.0805 -0.4943
  129MOL0     H17394   6.767   3.193  11.190  0.4645  0.5144 -0.7947
  129MOL0     H17395   6.570   3.015  11.204 -2.9634 -0.1919 -1.0758
  129MOL0     H17396   6.580   3.004  11.026 -2.7230  3.9756 -2.5191
  129MOL0     H17397   7.637   3.260  11.137  1.9625 -1.5015  0.6755
  129MOL0     H17398   7.863   3.324  11.115  1.4622  0.6726 -0.4266
  129MOL0     H17399   8.251   3.360  11.323 -0.0498 -1.9652 -1.9578
  129MOL0     H17400   8.509   3.376  11.305  2.2880  2.2114 -0.4129
  129MOL0     H17401   9.993   3.751  10.961 -2.0252  4.3728  1.8170
  129MOL0     H17402  10.180   3.868  10.861  1.0194 -2.2991 -0.0332
  129MOL0     H17403  10.624   3.904  10.888  0.8733 -0.7281  0.3392
  129MOL0     H17404  10.868   3.933  10.839 -0.0317  0.6826 -0.9888
  129MOL0     H17405  11.060   3.963  10.815 -0.2526 -1.0182  1.9628
  129MOL0     H17406  11.170   4.091  10.776 -1.1794  1.8987  0.0118
  129MOL0     H17407  11.298   4.067  10.981 -1.9242  0.1747  2.3238
  129MOL0     H17408  11.292   3.923  10.886  0.2843 -0.1482  0.0318
  129MOL0     H17409  11.119   3.832  11.053 -2.5656  0.4750  0.9877
  129MOL0     H17410  11.116   3.995  11.134 -0.6501 -0.7371  0.2501
  129MOL0     H17411  11.382   3.833  11.108  2.2988  1.2893  1.1540
  129MOL0     H17412  11.270   3.811  11.242  1.4655  1.2787  0.1128
  129MOL0     H17413  11.492   4.153  11.334 -0.8267  1.6092 -0.1659
  129MOL0     H17414  10.897   4.255  11.108  1.9321 -3.1519  1.1608
  129MOL0     H17415  10.655   4.221  11.168 -3.7048 -1.8464  0.3125
  130MOL0     O17416   2.817   0.411   5.266  0.2400  0.5449 -0.3244
  130MOL0     C17417   2.877   0.415   5.161  0.2378  0.4596  0.3920
  130MOL0     O17418   2.812   0.423   5.041  0.6200 -0.8013  0.8135
  130MOL0     C17419   2.675   0.440   5.026 -0.4241  0.0887  0.7692
  130MOL0     C17420   2.602   0.394   4.910 -0.0087  0.2859 -0.4551
  130MOL0     C17421   2.458   0.396   4.894  0.1704  0.1077 -0.2643
  130MOL0     C17422   2.390   0.451   5.000 -0.9467 -0.7820 -0.9230
  130MOL0     O17423   2.258   0.455   4.979 -0.2630  0.7203 -0.1718
  130MOL0     C17424   2.177   0.371   5.059 -0.4856  0.2863  1.1329
  130MOL0     C17425   2.056   0.455   5.091  0.1574  0.5591  0.1009
  130MOL0     C17426   1.960   0.384   5.193  0.1848 -0.3511  0.2456
  130MOL0     C17427   1.830   0.349   5.118 -0.4530  0.0848 -0.1147
  130MOL0     C17428   1.737   0.293   5.230  0.5949 -0.2878  0.0125
  130MOL0     C17429   1.600   0.266   5.171 -0.5365  0.0977  0.6311
  130MOL0     C17430   1.486   0.234   5.274 -0.3887 -0.3807  0.2097
  130MOL0     C17431   1.339   0.242   5.212  0.2081 -0.1617 -0.5257
  130MOL0     N17432   1.295   0.148   5.102  0.1291 -0.2740 -0.5420
  130MOL0     C17433   1.351   0.146   4.976  0.1425  0.9308  0.0625
  130MOL0     C17434   1.290   0.042   4.919  0.3078 -0.1645  1.2657
  130MOL0     C17435   1.298   0.010   4.775 -0.9544  1.2316 -0.4348
  130MOL0     C17436   1.410  -0.103   4.754 -0.4820 -0.1459 -0.0940
  130MOL0     C17437   1.546  -0.031   4.760 -0.1228 -0.2267  0.8313
  130MOL0     C17438   1.672  -0.113   4.760  0.2555  0.1312 -0.0780
  130MOL0     O17439   1.775  -0.012   4.779 -0.4339  0.4131 -0.9543
  130MOL0     C17440   1.902  -0.055   4.768 -0.7642  0.0148 -0.1594
  130MOL0     C17441   2.009   0.037   4.761  0.1607 -0.2670 -0.7661
  130MOL0     C17442   2.145   0.002   4.746 -0.6550 -0.4417 -0.5020
  130MOL0     C17443   2.251   0.112   4.747 -0.6556 -0.0259  0.6038
  130MOL0     C17444   2.192  -0.127   4.764 -0.2243  0.8151 -0.1842
  130MOL0     C17445   2.326  -0.178   4.790 -1.0950  1.0990 -0.1641
  130MOL0     O17446   2.396  -0.138   4.900  0.1462  0.5232 -0.4704
  130MOL0     C17447   2.525  -0.178   4.917  0.2353  0.1206  0.0406
  130MOL0     C17448   2.570  -0.313   4.906 -0.4814  0.1744  0.5751
  130MOL0     C17449   2.707  -0.345   4.940 -0.3967  0.3364 -0.2036
  130MOL0     C17450   2.793  -0.254   4.986 -0.2024 -1.3396 -0.9719
  130MOL0     O17451   2.937  -0.272   5.019  0.6253  0.4380 -0.4443
  130MOL0     C17452   2.971  -0.408   5.069  0.2165 -0.1212  0.3153
  130MOL0     C17453   3.106  -0.415   5.136 -0.8926  0.5975  0.4544
  130MOL0     C17454   3.104  -0.531   5.229 -0.0491 -0.1205 -0.5571
  130MOL0     C17455   3.228  -0.542   5.321  0.2365  0.0442  0.2583
  130MOL0     C17456   3.371  -0.553   5.254  0.5276  0.0223  0.8619
  130MOL0     C17457   3.488  -0.558   5.346 -0.8990  0.5527  0.6523
  130MOL0     C17458   3.612  -0.582   5.263 -0.4804  0.5645 -0.9564
  130MOL0     C17459   3.737  -0.583   5.360 -0.1295 -0.4376  0.3157
  130MOL0    Cl17460   3.868  -0.641   5.253  1.1100 -0.0138  0.0921
  130MOL0     C17461   2.751  -0.122   4.994  0.8398 -0.0766 -1.3874
  130MOL0     C17462   2.613  -0.086   4.972 -0.3284 -1.0348  0.1267
  130MOL0     O17463   2.377  -0.239   4.695 -0.1969  0.0530 -0.0313
  130MOL0     C17464   2.089  -0.231   4.764  0.8297  0.1482 -0.2466
  130MOL0     C17465   1.949  -0.194   4.768 -0.2923  0.2868 -0.3408
  130MOL0     N17466   1.199  -0.019   5.012  0.0466 -0.3855  0.0365
  130MOL0     N17467   1.202   0.054   5.120  0.2420 -0.6515 -0.2458
  130MOL0     C17468   2.459   0.518   5.104  0.4318  0.0834 -0.5437
  130MOL0     C17469   2.598   0.506   5.123  0.1574 -0.1665 -0.1130
  130MOL0     C17470   3.027   0.411   5.162 -0.8994  0.3652  0.1446
  130MOL0     C17471   3.099   0.398   5.044 -0.0851 -1.0749  0.0102
  130MOL0     C17472   3.234   0.383   5.043  0.2411 -0.7344  0.5869
  130MOL0     C17473   3.309   0.370   5.161  0.8933  0.2310 -0.0586
  130MOL0     O17474   3.436   0.335   5.143 -0.0977  0.1235  0.3565
  130MOL0     C17475   3.507   0.301   5.257  0.2930  0.7527 -0.5228
  130MOL0     C17476   3.636   0.229   5.224  0.0780 -0.1574  0.1718
  130MOL0     C17477   3.733   0.320   5.157 -0.1184  1.0989  0.4039
  130MOL0     C17478   3.783   0.414   5.264  0.5675 -0.7862 -0.0196
  130MOL0     C17479   3.868   0.513   5.200 -0.1816 -0.2161  1.3519
  130MOL0     C17480   3.932   0.606   5.159 -0.1637  0.2489  0.2558
  130MOL0     C17481   3.241   0.381   5.281 -0.9297  0.3785  0.1760
  130MOL0     C17482   3.105   0.406   5.286 -0.9034  1.6602 -0.1881
  130MOL0     H17483   2.662   0.352   4.830  1.8981  2.8860 -0.4978
  130MOL0     H17484   2.413   0.359   4.802 -1.2355  0.5047  0.2445
  130MOL0     H17485   2.147   0.284   4.999 -1.0579  1.7176 -0.7564
  130MOL0     H17486   2.226   0.336   5.150 -3.1964  0.3016  2.6940
  130MOL0     H17487   2.093   0.541   5.147 -0.7733  0.5681  0.7350
  130MOL0     H17488   2.009   0.489   4.998  1.0849 -0.5476 -0.7965
  130MOL0     H17489   1.996   0.286   5.227 -1.0429 -1.2935 -1.0319
  130MOL0     H17490   1.930   0.446   5.278 -1.1122 -2.3254  1.3025
  130MOL0     H17491   1.787   0.427   5.055 -1.8245 -1.7326 -1.5669
  130MOL0     H17492   1.845   0.271   5.042 -3.4633 -2.3522  1.5120
  130MOL0     H17493   1.784   0.204   5.275 -2.2567 -0.5996  2.7378
  130MOL0     H17494   1.720   0.371   5.305  0.6119  1.8188 -2.0707
  130MOL0     H17495   1.581   0.366   5.130  1.4833  0.2977  0.0250
  130MOL0     H17496   1.594   0.196   5.087  0.2413 -0.1554  0.7752
  130MOL0     H17497   1.497   0.131   5.310 -1.6155  0.3459  2.9144
  130MOL0     H17498   1.485   0.304   5.358  1.8488 -0.2418  0.1675
  130MOL0     H17499   1.321   0.341   5.169  2.8307  1.0991  1.0378
  130MOL0     H17500   1.273   0.228   5.299 -0.2424  0.7845 -0.7051
  130MOL0     H17501   1.419   0.212   4.922  1.0409 -0.8642 -1.1036
  130MOL0     H17502   1.203  -0.030   4.738 -1.9133 -0.7754  3.6130
  130MOL0     H17503   1.321   0.104   4.723  0.6510  1.2687  0.2847
  130MOL0     H17504   1.393  -0.138   4.652 -0.2775 -2.2480  0.5407
  130MOL0     H17505   1.399  -0.183   4.828 -2.7186 -0.5992 -0.8398
  130MOL0     H17506   1.548   0.025   4.854 -3.7479  0.0557  0.9061
  130MOL0     H17507   1.556   0.041   4.679  0.6534 -0.8607  0.3530
  130MOL0     H17508   1.686  -0.169   4.666  1.6279 -2.5709  1.6004
  130MOL0     H17509   1.665  -0.193   4.833 -1.4435 -1.1994 -1.5963
  130MOL0     H17510   1.990   0.143   4.746  1.5734  0.0350 -0.5661
  130MOL0     H17511   2.318   0.112   4.834  2.1282  0.2035 -1.4110
  130MOL0     H17512   2.311   0.108   4.656  0.1077  1.6099  1.0076
  130MOL0     H17513   2.203   0.210   4.750  0.9080  0.7807  0.1086
  130MOL0     H17514   2.492  -0.378   4.870  0.8925 -1.4806  0.4516
  130MOL0     H17515   2.747  -0.446   4.932 -1.5684 -0.3144  1.5467
  130MOL0     H17516   2.904  -0.419   5.155 -1.9585  2.7257 -0.8294
  130MOL0     H17517   2.954  -0.480   4.988 -1.9122 -0.0022  0.5954
  130MOL0     H17518   3.189  -0.423   5.065 -1.6055  0.2005 -0.3672
  130MOL0     H17519   3.117  -0.325   5.196 -0.3588  2.0172 -1.6372
  130MOL0     H17520   3.093  -0.624   5.172  0.3306 -1.9924  2.2084
  130MOL0     H17521   3.022  -0.525   5.301  0.3994  2.1255 -0.1709
  130MOL0     H17522   3.236  -0.450   5.379 -2.3022  1.5347 -1.5456
  130MOL0     H17523   3.223  -0.635   5.377  1.1658 -1.3829 -1.8734
  130MOL0     H17524   3.390  -0.476   5.179  0.3874  1.7877  2.5790
  130MOL0     H17525   3.363  -0.650   5.203  2.5266  0.4283 -0.3471
  130MOL0     H17526   3.497  -0.466   5.405 -2.3154  0.3417  1.2269
  130MOL0     H17527   3.478  -0.638   5.419 -1.6932 -0.2855 -0.3560
  130MOL0     H17528   3.619  -0.502   5.189 -1.0803  0.1476 -1.4787
  130MOL0     H17529   3.599  -0.676   5.208 -2.2512  1.9744 -3.1655
  130MOL0     H17530   3.704  -0.634   5.451  1.1546  2.7469  2.7505
  130MOL0     H17531   3.762  -0.482   5.395  2.4991 -0.9829  0.2303
  130MOL0     H17532   2.817  -0.045   5.034 -1.6935  0.8364  1.3975
  130MOL0     H17533   2.589   0.017   4.996 -1.7056 -1.1635 -0.5682
  130MOL0     H17534   2.098  -0.338   4.780 -1.6238  0.3220  3.3455
  130MOL0     H17535   1.878  -0.276   4.772 -1.0655  0.9683  0.5089
  130MOL0     H17536   2.384   0.565   5.166 -1.5483 -0.7196 -2.1942
  130MOL0     H17537   2.638   0.545   5.216  1.1929  0.3722 -0.7635
  130MOL0     H17538   3.046   0.406   4.950 -0.8215 -0.5703  0.4660
  130MOL0     H17539   3.285   0.358   4.950  1.0381 -2.5547  1.4535
  130MOL0     H17540   3.526   0.384   5.326  1.3583  0.7304 -0.7634
  130MOL0     H17541   3.448   0.232   5.318  0.6054  0.3409 -0.6852
  130MOL0     H17542   3.612   0.143   5.161 -0.7599 -0.1196  0.4327
  130MOL0     H17543   3.683   0.194   5.316 -0.8728  1.4099  1.2838
  130MOL0     H17544   3.684   0.378   5.078  2.0142  1.7719 -0.5055
  130MOL0     H17545   3.808   0.247   5.123 -3.5554 -1.5527 -2.2835
  130MOL0     H17546   3.831   0.355   5.342  0.1529 -0.2600  0.6415
  130MOL0     H17547   3.700   0.470   5.309  0.7093 -0.8373  0.3084
  130MOL0     H17548   3.986   0.692   5.125  0.7038 -0.0672  0.7912
  130MOL0     H17549   3.290   0.361   5.376 -2.8550  1.3259  1.4530
  130MOL0     H17550   3.055   0.390   5.382 -2.2313 -1.1741 -1.2380
  131MOL0     O17551  10.535   3.023  10.543  0.5371  0.3904  0.0142
  131MOL0     C17552  10.500   3.131  10.578 -0.6025  0.0103 -1.0062
  131MOL0     O17553  10.587   3.221  10.634  0.1243  0.8795  0.2089
  131MOL0     C17554  10.722   3.198  10.669 -0.5325  0.1206 -0.6854
  131MOL0     C17555  10.781   3.298  10.749  0.2408 -0.3472 -0.4522
  131MOL0     C17556  10.916   3.285  10.794 -0.1962 -0.2140  0.2827
  131MOL0     C17557  10.983   3.168  10.757 -0.1949  0.4872 -0.4226
  131MOL0     O17558  11.099   3.133  10.825 -0.5747 -0.1434 -0.0193
  131MOL0     C17559  11.206   3.225  10.811 -0.4347 -0.3115 -0.3197
  131MOL0     C17560  11.308   3.221  10.918 -0.6468  0.2609 -1.0673
  131MOL0     C17561  11.245   3.254  11.060  0.6921  0.3560  0.3908
  131MOL0     C17562  11.241   3.399  11.099  0.5062  0.5056 -1.0972
  131MOL0     C17563  11.380   3.458  11.127 -0.1004 -0.1139 -0.4064
  131MOL0     C17564  11.474   3.376  11.214 -1.0362 -0.2931  0.1850
  131MOL0     C17565  11.596   3.458  11.250  0.1777  0.1206 -1.1642
  131MOL0     C17566  11.689   3.372  11.343  0.2138 -0.2416 -0.5882
  131MOL0     N17567  11.624   3.334  11.473 -0.3374 -0.0303  0.5170
  131MOL0     C17568  11.585   3.428  11.568 -0.1857  0.2642 -1.1809
  131MOL0     C17569  11.541   3.351  11.678 -0.0443 -0.0244  0.4099
  131MOL0     C17570  11.491   3.392  11.815 -0.5593  0.0697  0.0233
  131MOL0     C17571  11.402   3.511  11.818 -0.1411 -0.2375 -0.8828
  131MOL0     C17572  11.252   3.488  11.827 -0.5375  0.7295 -0.2012
  131MOL0     C17573  11.172   3.614  11.836 -0.3084 -1.1598  0.2964
  131MOL0     O17574  11.207   3.724  11.743  0.9089 -0.1590  0.2011
  131MOL0     C17575  11.143   3.843  11.768 -0.0029  0.3135  0.0066
  131MOL0     C17576  11.187   3.939  11.680  0.4102 -0.2898  0.6275
  131MOL0     C17577  11.140   4.076  11.685 -0.1501  0.0909 -0.2991
  131MOL0     C17578  11.207   4.171  11.597 -0.2904  0.5461 -1.1187
  131MOL0     C17579  11.026   4.103  11.771 -0.0397  0.4818 -0.5825
  131MOL0     C17580  10.947   4.230  11.781  0.4493 -0.1072 -0.4123
  131MOL0     O17581  10.835   4.229  11.864  0.5077  0.3063 -0.9618
  131MOL0     C17582  10.748   4.333  11.858  0.6806  0.0610 -0.5043
  131MOL0     C17583  10.622   4.323  11.795  0.5527 -0.2163 -1.1808
  131MOL0     C17584  10.524   4.418  11.811  0.2249  0.2264 -0.5959
  131MOL0     C17585  10.543   4.536  11.895 -0.0441  0.5543  0.1084
  131MOL0     O17586  10.440   4.616  11.906  0.4812  0.3599 -0.2238
  131MOL0     C17587  10.442   4.725  12.005  0.1372  0.2499  0.2989
  131MOL0     C17588  10.330   4.826  11.988  0.7576 -0.3859 -0.1725
  131MOL0     C17589  10.197   4.778  12.050  0.4462 -0.7653  1.0252
  131MOL0     C17590  10.078   4.870  12.037  0.4103  0.1014  0.4911
  131MOL0     C17591   9.951   4.839  12.124  0.0942  0.4886 -0.9076
  131MOL0     C17592   9.858   4.750  12.047 -0.1010 -0.5835  0.1337
  131MOL0     C17593   9.748   4.680  12.129 -1.0213  0.7686 -0.0872
  131MOL0     C17594   9.672   4.570  12.058  1.2475 -0.3112 -0.3406
  131MOL0    Cl17595   9.556   4.503  12.182 -0.2498 -0.2424 -0.1176
  131MOL0     C17596  10.671   4.541  11.958 -0.4406 -0.0917  0.1821
  131MOL0     C17597  10.777   4.444  11.946  0.3578  0.4305  0.5533
  131MOL0     O17598  10.981   4.324  11.710 -0.0577 -0.0946  0.2923
  131MOL0     C17599  10.999   4.001  11.861 -0.8085  0.0020 -1.2819
  131MOL0     C17600  11.062   3.879  11.875  0.1538  0.4772 -0.7973
  131MOL0     N17601  11.549   3.216  11.637  0.5780  0.0841  0.1384
  131MOL0     N17602  11.593   3.207  11.516 -0.5957 -0.1157 -0.9399
  131MOL0     C17603  10.938   3.071  10.675  0.1755  0.3895 -0.0558
  131MOL0     C17604  10.804   3.094  10.620  0.7601  0.6668  0.0316
  131MOL0     C17605  10.357   3.167  10.543 -0.2957  0.6292 -0.0454
  131MOL0     C17606  10.274   3.087  10.452 -0.6457  0.5810 -0.6026
  131MOL0     C17607  10.139   3.112  10.429 -0.7066  0.3538  0.1587
  131MOL0     C17608  10.077   3.219  10.496  0.6943  0.5980 -0.6666
  131MOL0     O17609   9.942   3.234  10.474  0.1658 -0.0668  0.1706
  131MOL0     C17610   9.876   3.341  10.530 -0.0205 -0.8885 -0.4300
  131MOL0     C17611   9.736   3.334  10.486  1.0896  0.0734 -0.1792
  131MOL0     C17612   9.675   3.197  10.534  0.7277  0.1042 -0.5402
  131MOL0     C17613   9.552   3.207  10.617  0.4732  0.4199  1.0116
  131MOL0     C17614   9.444   3.245  10.527 -0.0824  0.6125  0.4888
  131MOL0     C17615   9.358   3.294  10.459  1.1570  0.7665  0.0852
  131MOL0     C17616  10.153   3.303  10.578 -0.2949 -0.6080  0.0500
  131MOL0     C17617  10.297   3.282  10.592  0.9547 -0.3490 -0.1982
  131MOL0     H17618  10.719   3.386  10.756  2.1189  1.2979 -2.8042
  131MOL0     H17619  10.952   3.363  10.860 -2.4696  2.0697 -0.9886
  131MOL0     H17620  11.251   3.201  10.714  2.8342  0.3152  0.9121
  131MOL0     H17621  11.164   3.326  10.801 -0.5616 -0.3655 -0.3407
  131MOL0     H17622  11.349   3.120  10.930  2.3021  1.4414 -0.2298
  131MOL0     H17623  11.388   3.293  10.896  1.6613 -1.1945  1.9015
  131MOL0     H17624  11.145   3.211  11.055  0.4995  0.9127 -1.5757
  131MOL0     H17625  11.282   3.186  11.137 -1.0457  1.2187  2.0545
  131MOL0     H17626  11.189   3.451  11.018 -0.0743 -2.6828 -2.9239
  131MOL0     H17627  11.180   3.404  11.190 -2.6279 -0.5061 -2.9778
  131MOL0     H17628  11.423   3.482  11.029 -1.4830 -3.3011 -1.9307
  131MOL0     H17629  11.358   3.553  11.177 -1.0463  0.5052 -1.9485
  131MOL0     H17630  11.422   3.340  11.303  2.5230  0.3234  2.7630
  131MOL0     H17631  11.495   3.290  11.151 -3.5064 -1.8989  1.3816
  131MOL0     H17632  11.646   3.478  11.154  0.4086 -1.1023 -1.3175
  131MOL0     H17633  11.571   3.540  11.318 -1.7510 -2.5837  1.6504
  131MOL0     H17634  11.777   3.433  11.368 -2.7563  3.2322  2.7241
  131MOL0     H17635  11.720   3.282  11.289 -0.4243 -0.3699 -0.7385
  131MOL0     H17636  11.582   3.536  11.557 -0.2598  0.2083 -1.7476
  131MOL0     H17637  11.462   3.299  11.865  1.5169 -0.1977  0.8179
  131MOL0     H17638  11.573   3.421  11.880  0.2615  2.0071 -1.7540
  131MOL0     H17639  11.416   3.588  11.742  1.2897  1.5592  1.0808
  131MOL0     H17640  11.434   3.577  11.899  2.1461  1.2578 -2.8664
  131MOL0     H17641  11.230   3.400  11.888 -0.1798 -1.3907 -2.9386
  131MOL0     H17642  11.231   3.455  11.725 -0.1343 -2.7995  0.7322
  131MOL0     H17643  11.199   3.655  11.934  3.1253 -0.0816 -0.9603
  131MOL0     H17644  11.064   3.594  11.838 -1.0090  1.7941 -1.5503
  131MOL0     H17645  11.267   3.912  11.612 -0.1697 -3.3959  1.0383
  131MOL0     H17646  11.152   4.184  11.504  0.2013  1.7256 -1.2576
  131MOL0     H17647  11.217   4.260  11.660  4.3987 -0.3965 -0.1663
  131MOL0     H17648  11.301   4.125  11.564 -0.5073 -1.3526  0.6737
  131MOL0     H17649  10.585   4.225  11.765  0.1294 -0.7257  0.8265
  131MOL0     H17650  10.431   4.395  11.761 -1.6681  1.8170  1.9723
  131MOL0     H17651  10.457   4.690  12.108  1.7668  0.9932  0.3478
  131MOL0     H17652  10.534   4.780  11.981  1.0012  0.3269  3.3623
  131MOL0     H17653  10.359   4.918  12.038 -0.6938 -0.9010  1.7219
  131MOL0     H17654  10.316   4.837  11.880  2.9367 -3.3590 -0.9005
  131MOL0     H17655  10.208   4.764  12.158  2.3333 -3.6891  0.5619
  131MOL0     H17656  10.179   4.675  12.018 -1.5144  0.3996 -2.1051
  131MOL0     H17657  10.115   4.971  12.059  0.6114 -0.2775  1.9888
  131MOL0     H17658  10.045   4.873  11.933  0.6996  0.8338  0.4148
  131MOL0     H17659   9.894   4.927  12.153 -2.2086 -1.0472 -0.5572
  131MOL0     H17660   9.983   4.799  12.220  0.7630  0.7938 -0.9976
  131MOL0     H17661   9.804   4.797  11.965 -0.7898 -0.2217  0.7739
  131MOL0     H17662   9.926   4.675  12.007 -0.1281 -2.9853  4.0260
  131MOL0     H17663   9.677   4.757  12.159 -2.0973  0.2001 -1.1014
  131MOL0     H17664   9.794   4.646  12.222 -3.0853  2.5956  1.7099
  131MOL0     H17665   9.740   4.491  12.026  2.1631  0.4355 -0.2821
  131MOL0     H17666   9.619   4.617  11.974  3.2699  0.7355 -1.1163
  131MOL0     H17667  10.704   4.626  12.017  3.8842 -2.3696  1.4743
  131MOL0     H17668  10.866   4.440  12.009  1.7567  0.3956 -1.3511
  131MOL0     H17669  10.923   4.004  11.939  3.8783 -1.2892  3.9541
  131MOL0     H17670  11.029   3.806  11.948  0.0444  0.7813 -0.5412
  131MOL0     H17671  11.001   2.987  10.653 -1.3926  0.0086 -3.8269
  131MOL0     H17672  10.761   3.019  10.555 -0.6939  1.4753  0.0331
  131MOL0     H17673  10.320   3.010  10.391  2.8729  2.0695 -0.0810
  131MOL0     H17674  10.096   3.047  10.353  1.3679 -1.4901  0.4542
  131MOL0     H17675   9.871   3.334  10.639 -1.1538 -1.1304 -0.4913
  131MOL0     H17676   9.915   3.440  10.502 -0.2827 -1.1124 -1.6587
  131MOL0     H17677   9.740   3.336  10.377  1.7488  1.2228 -0.1492
  131MOL0     H17678   9.687   3.420  10.534 -1.9343 -2.3461  1.4096
  131MOL0     H17679   9.737   3.139  10.602  1.5425  3.0940  1.4590
  131MOL0     H17680   9.659   3.129  10.449 -0.0400 -1.8953  1.1241
  131MOL0     H17681   9.558   3.277  10.701  1.1303  1.4164  0.1639
  131MOL0     H17682   9.530   3.105  10.648  1.0930 -0.3262 -0.8236
  131MOL0     H17683   9.280   3.336  10.399 -0.0667  0.3950  1.3803
  131MOL0     H17684  10.129   3.396  10.628  1.9675 -0.2486  0.5617
  131MOL0     H17685  10.358   3.353  10.647  1.3109 -1.4331  0.8801
  132MOL0     O17686   3.185   0.228   4.235 -0.1451 -0.3665 -1.0778
  132MOL0     C17687   3.087   0.176   4.283  0.4052  1.5506 -0.0705
  132MOL0     O17688   3.088   0.096   4.388  0.1613 -0.0980 -0.2301
  132MOL0     C17689   3.188   0.123   4.477  0.4038  0.1196 -1.0102
  132MOL0     C17690   3.196   0.242   4.554 -0.8120  0.0777  1.7153
  132MOL0     C17691   3.295   0.265   4.654  0.3277  0.6830 -0.9643
  132MOL0     C17692   3.408   0.184   4.658  0.6980  0.2345  0.8575
  132MOL0     O17693   3.520   0.229   4.724  0.3069  0.5079 -0.6169
  132MOL0     C17694   3.629   0.138   4.752  0.9572 -0.5368  0.4520
  132MOL0     C17695   3.749   0.199   4.827 -0.0301  0.6012 -1.4339
  132MOL0     C17696   3.836   0.313   4.757 -0.3706 -0.3647  0.9021
  132MOL0     C17697   3.979   0.311   4.806  0.7117  0.7767  0.4530
  132MOL0     C17698   4.067   0.409   4.734  0.2959  0.5627 -0.5729
  132MOL0     C17699   4.037   0.559   4.762 -0.1220  0.4103  0.0962
  132MOL0     C17700   4.143   0.661   4.733 -0.3372 -0.5859 -0.5411
  132MOL0     C17701   4.079   0.797   4.707  0.0374  0.2506  0.5243
  132MOL0     N17702   4.001   0.848   4.824 -0.6798  0.4863  0.3314
  132MOL0     C17703   3.889   0.929   4.814  0.1587 -0.1498 -0.7109
  132MOL0     C17704   3.896   1.010   4.925 -1.1526 -0.2745  0.3288
  132MOL0     C17705   3.815   1.131   4.966 -0.1216 -0.3087  0.2300
  132MOL0     C17706   3.866   1.202   5.096  0.9948 -0.4689 -0.3823
  132MOL0     C17707   3.773   1.316   5.131 -0.1506 -0.4097  0.1742
  132MOL0     C17708   3.821   1.414   5.236 -0.5294 -0.3810 -0.7592
  132MOL0     O17709   3.736   1.531   5.249 -0.9595  0.2895  0.5876
  132MOL0     C17710   3.608   1.512   5.298  0.0546 -0.1731  0.4533
  132MOL0     C17711   3.510   1.585   5.235 -0.1163  0.0600  0.1613
  132MOL0     C17712   3.376   1.577   5.271 -0.1815  0.5889 -1.0029
  132MOL0     C17713   3.268   1.666   5.202  0.4118  0.1596  0.4103
  132MOL0     C17714   3.336   1.476   5.364  0.5131  0.6128  0.5233
  132MOL0     C17715   3.198   1.460   5.400  0.4669 -0.7837  0.4584
  132MOL0     O17716   3.176   1.438   5.530  0.1182 -0.5259  1.2633
  132MOL0     C17717   3.044   1.442   5.569  0.5086 -0.5741 -0.0275
  132MOL0     C17718   2.939   1.351   5.553 -0.1667 -0.2444 -0.2431
  132MOL0     C17719   2.813   1.383   5.574 -0.1785  0.5448 -0.2406
  132MOL0     C17720   2.775   1.512   5.625 -0.2117  0.6893 -0.5874
  132MOL0     O17721   2.641   1.547   5.646  0.2996 -0.3785  0.8382
  132MOL0     C17722   2.547   1.443   5.677 -0.4936  0.3679 -0.2450
  132MOL0     C17723   2.406   1.515   5.691  0.1449  0.2525 -0.7114
  132MOL0     C17724   2.344   1.562   5.559  0.4291  0.2770 -0.5503
  132MOL0     C17725   2.191   1.588   5.571  0.0916 -0.7355 -0.4283
  132MOL0     C17726   2.092   1.471   5.561  0.6390 -0.3373  0.9342
  132MOL0     C17727   1.941   1.506   5.569  0.3345  0.1536 -0.6068
  132MOL0     C17728   1.864   1.372   5.582 -0.2782 -0.1462 -0.2734
  132MOL0     C17729   1.714   1.396   5.570  0.5585  0.2669 -0.6443
  132MOL0    Cl17730   1.658   1.494   5.717 -0.2505 -0.1971  0.5567
  132MOL0     C17731   2.878   1.594   5.663 -0.9025  0.0628 -0.0702
  132MOL0     C17732   3.010   1.555   5.636 -0.4247 -0.4885 -0.4813
  132MOL0     O17733   3.111   1.470   5.313  0.4044  0.5336 -0.1695
  132MOL0     C17734   3.438   1.401   5.432  0.0596 -0.6988 -0.6311
  132MOL0     C17735   3.567   1.410   5.390 -0.1071  0.9602  0.4999
  132MOL0     N17736   4.012   0.973   5.003  1.4240 -0.0688 -0.7955
  132MOL0     N17737   4.068   0.873   4.938 -0.1921  1.0530  0.0521
  132MOL0     C17738   3.407   0.057   4.582 -0.4663 -0.8019  0.9433
  132MOL0     C17739   3.298   0.038   4.499 -0.1081  0.1667  0.2387
  132MOL0     C17740   2.970   0.178   4.199  0.3401 -0.1149  1.1290
  132MOL0     C17741   2.965   0.263   4.079 -0.8079 -0.5172  0.0704
  132MOL0     C17742   2.844   0.282   4.015  0.8607 -0.4573 -0.6163
  132MOL0     C17743   2.726   0.211   4.056 -0.5632  0.2548 -0.2821
  132MOL0     O17744   2.610   0.227   3.982  0.3239  0.6083 -0.0306
  132MOL0     C17745   2.507   0.135   4.006  0.9647 -0.1892  1.2909
  132MOL0     C17746   2.407   0.127   3.880  0.4960 -0.2029  0.4354
  132MOL0     C17747   2.317   0.257   3.872 -0.2827 -0.8464 -0.1896
  132MOL0     C17748   2.213   0.245   3.760  0.6819  1.0642  0.4944
  132MOL0     C17749   2.106   0.163   3.811 -0.4843  0.0186  0.3197
  132MOL0     C17750   2.011   0.092   3.848  0.0775 -0.0075  1.0487
  132MOL0     C17751   2.741   0.120   4.155  0.4620 -0.7950  0.1370
  132MOL0     C17752   2.858   0.101   4.228  0.5063  0.3400 -1.0642
  132MOL0     H17753   3.119   0.317   4.544  0.6438  1.2887 -2.2602
  132MOL0     H17754   3.296   0.354   4.716  2.9519 -0.2929  0.5448
  132MOL0     H17755   3.601   0.053   4.815  2.1877  0.2468  2.1506
  132MOL0     H17756   3.675   0.099   4.661 -1.4783  0.8274 -1.4721
  132MOL0     H17757   3.704   0.244   4.916  3.1151 -2.9374  2.3513
  132MOL0     H17758   3.813   0.117   4.859 -0.2746  1.5458  1.8302
  132MOL0     H17759   3.820   0.297   4.650 -2.2670  2.8896  0.5702
  132MOL0     H17760   3.806   0.416   4.778  2.5281  0.1943  2.9450
  132MOL0     H17761   3.976   0.340   4.911 -1.4614  0.6601  0.4704
  132MOL0     H17762   4.018   0.211   4.784 -0.1155  1.0249 -2.5838
  132MOL0     H17763   4.171   0.400   4.767  0.4540  0.6436 -1.0474
  132MOL0     H17764   4.063   0.389   4.627  0.2366 -0.2153 -0.4351
  132MOL0     H17765   3.948   0.578   4.701 -0.9987  0.8012  1.4602
  132MOL0     H17766   4.009   0.576   4.866  1.4118 -0.1028  0.6261
  132MOL0     H17767   4.209   0.658   4.820  0.3546 -3.0103 -1.0756
  132MOL0     H17768   4.189   0.641   4.635  2.9910  2.3621  0.2011
  132MOL0     H17769   4.017   0.793   4.617 -0.6478 -2.7725  1.0288
  132MOL0     H17770   4.152   0.877   4.696  1.8797 -1.0655  2.4232
  132MOL0     H17771   3.822   0.934   4.729 -1.0299  1.8333  0.2839
  132MOL0     H17772   3.812   1.211   4.892 -2.3911  0.0198  0.6062
  132MOL0     H17773   3.714   1.093   4.986  0.1871 -0.3288  1.9334
  132MOL0     H17774   3.971   1.222   5.071  1.5965 -0.9422  1.6216
  132MOL0     H17775   3.862   1.137   5.184  1.3201 -2.3328 -1.6748
  132MOL0     H17776   3.671   1.283   5.151 -1.6933  4.1179  0.8338
  132MOL0     H17777   3.768   1.373   5.038 -0.7481 -0.8044 -0.0452
  132MOL0     H17778   3.915   1.463   5.207 -0.8288  2.2567  2.1503
  132MOL0     H17779   3.825   1.366   5.334 -2.1697  2.5045  0.8706
  132MOL0     H17780   3.534   1.654   5.154 -0.3083  0.1011  0.1371
  132MOL0     H17781   3.200   1.604   5.141  0.9423 -1.4764  1.4121
  132MOL0     H17782   3.206   1.721   5.272 -1.4500 -3.1927  1.6341
  132MOL0     H17783   3.312   1.744   5.139  1.1366 -0.8115 -0.3192
  132MOL0     H17784   2.958   1.248   5.524 -0.2420 -0.6572  1.1022
  132MOL0     H17785   2.740   1.308   5.546  0.1623  0.1853 -0.1739
  132MOL0     H17786   2.534   1.368   5.598  0.3170  1.2378 -1.2226
  132MOL0     H17787   2.574   1.393   5.771 -0.7185 -1.5464 -1.1557
  132MOL0     H17788   2.336   1.443   5.734  1.1916  1.1542  2.7667
  132MOL0     H17789   2.409   1.603   5.756 -0.2605  0.6238 -1.1811
  132MOL0     H17790   2.366   1.485   5.485  0.1930 -0.2681 -0.0647
  132MOL0     H17791   2.395   1.656   5.537 -1.2142  1.4241  0.3215
  132MOL0     H17792   2.179   1.629   5.672 -2.9130  1.0937 -1.3839
  132MOL0     H17793   2.163   1.664   5.497  1.1166 -1.9268 -2.0899
  132MOL0     H17794   2.121   1.392   5.632  0.1900 -2.8069 -1.4706
  132MOL0     H17795   2.113   1.427   5.463 -1.6892 -1.8778  1.0575
  132MOL0     H17796   1.929   1.567   5.659  2.1972  1.7045 -1.3468
  132MOL0     H17797   1.906   1.573   5.491 -1.0632  1.0215  0.7036
  132MOL0     H17798   1.896   1.329   5.677  2.3269  0.0506 -0.9561
  132MOL0     H17799   1.873   1.295   5.505  1.0985 -1.3797  1.0523
  132MOL0     H17800   1.654   1.305   5.583  1.6018 -0.2739  0.6775
  132MOL0     H17801   1.676   1.449   5.482  0.5858  0.5498 -0.4870
  132MOL0     H17802   2.857   1.692   5.703 -1.9090 -0.0212 -0.3624
  132MOL0     H17803   3.086   1.625   5.670 -2.5202  0.7578  2.0494
  132MOL0     H17804   3.405   1.329   5.507 -1.8577 -0.9534 -1.6602
  132MOL0     H17805   3.638   1.347   5.442 -0.2897  1.5676  1.5148
  132MOL0     H17806   3.499  -0.000   4.581  0.1498  0.1548  1.2776
  132MOL0     H17807   3.312  -0.050   4.437 -1.7691  0.4461 -0.6008
  132MOL0     H17808   3.055   0.319   4.055 -0.9331  0.5365  1.8459
  132MOL0     H17809   2.834   0.345   3.927  1.6669  0.2552 -0.2099
  132MOL0     H17810   2.542   0.033   4.022 -0.0220 -0.5088  1.4951
  132MOL0     H17811   2.459   0.154   4.103 -1.4665 -0.7421  0.2623
  132MOL0     H17812   2.344   0.040   3.896  0.8728 -0.0403  3.1924
  132MOL0     H17813   2.470   0.116   3.791  0.8637 -1.8384  0.8798
  132MOL0     H17814   2.380   0.342   3.845  1.0617 -1.4465  0.9524
  132MOL0     H17815   2.278   0.265   3.973 -1.3152  1.2527 -0.7152
  132MOL0     H17816   2.253   0.211   3.664 -1.6542  1.4259 -0.6747
  132MOL0     H17817   2.173   0.343   3.732  2.1360  1.9028  1.2292
  132MOL0     H17818   1.917   0.051   3.880 -0.8137  1.0290 -0.1128
  132MOL0     H17819   2.651   0.064   4.181 -3.2149  3.7281 -1.4863
  132MOL0     H17820   2.856   0.032   4.312 -0.9998  1.9036  0.2572
  133MOL0     O17821  10.667   0.671   9.669 -0.0392  0.1639 -0.1359
  133MOL0     C17822  10.733   0.597   9.589 -0.7278 -0.2338  0.3863
  133MOL0     O17823  10.687   0.489   9.516 -0.3462 -0.1288 -0.4777
  133MOL0     C17824  10.554   0.459   9.531 -0.0756 -0.4413  0.8128
  133MOL0     C17825  10.516   0.377   9.631 -0.7124  0.9133  0.1971
  133MOL0     C17826  10.380   0.356   9.653  0.1928  0.0031 -0.1187
  133MOL0     C17827  10.281   0.426   9.585  0.1548  0.2666  1.3241
  133MOL0     O17828  10.149   0.418   9.623  0.0941  0.2730 -0.5629
  133MOL0     C17829  10.079   0.534   9.597  1.0116  0.2202  0.0133
  133MOL0     C17830   9.948   0.567   9.660  0.2189 -0.0620 -0.6375
  133MOL0     C17831   9.834   0.462   9.637  0.7551 -0.2676 -0.4222
  133MOL0     C17832   9.751   0.479   9.510  0.1509  0.6471 -0.1109
  133MOL0     C17833   9.628   0.379   9.507  0.9645 -0.5325 -0.3782
  133MOL0     C17834   9.597   0.321   9.364 -0.4509 -0.7968 -0.4510
  133MOL0     C17835   9.683   0.195   9.346  0.2550  0.2152  0.2692
  133MOL0     C17836   9.694   0.163   9.192 -0.4072  0.9842  0.3125
  133MOL0     N17837   9.571   0.127   9.121 -0.3528  0.1815 -0.0458
  133MOL0     C17838   9.536   0.162   8.995 -0.1000 -0.6057  0.2754
  133MOL0     C17839   9.406   0.108   8.978 -1.1632  0.6659 -0.0773
  133MOL0     C17840   9.312   0.126   8.861  0.4099 -0.0227 -0.9970
  133MOL0     C17841   9.163   0.141   8.913 -0.1415 -0.1517  0.0094
  133MOL0     C17842   9.094   0.006   8.938 -0.8918 -0.0464  0.3978
  133MOL0     C17843   8.937   0.004   8.967 -0.1245 -0.3689  0.4701
  133MOL0     O17844   8.896  -0.131   9.002 -0.1598  0.0893 -0.5181
  133MOL0     C17845   8.762  -0.160   8.994  0.4617 -0.4046  0.3372
  133MOL0     C17846   8.726  -0.286   8.958 -0.3543 -0.7010  1.1871
  133MOL0     C17847   8.594  -0.322   8.921 -0.1547 -0.3219 -0.6040
  133MOL0     C17848   8.570  -0.463   8.883 -0.4722 -0.0379 -0.5935
  133MOL0     C17849   8.499  -0.215   8.923 -0.3288 -1.3020 -0.3515
  133MOL0     C17850   8.363  -0.231   8.864  0.7697  0.3367 -0.1957
  133MOL0     O17851   8.342  -0.331   8.779 -0.6952  0.1081  0.1544
  133MOL0     C17852   8.221  -0.353   8.722 -0.6688  0.9808 -0.3876
  133MOL0     C17853   8.161  -0.466   8.764 -0.7305 -0.6719 -1.0017
  133MOL0     C17854   8.036  -0.499   8.715  0.1701  0.5780 -0.7736
  133MOL0     C17855   7.974  -0.417   8.618 -0.1986 -0.9908  0.0017
  133MOL0     O17856   7.858  -0.467   8.560  0.2362 -0.3759 -0.9479
  133MOL0     C17857   7.749  -0.433   8.656 -0.3204 -0.1961  0.7185
  133MOL0     C17858   7.633  -0.516   8.622  0.7406  0.6247  0.8371
  133MOL0     C17859   7.572  -0.481   8.479  0.9552  0.1162  0.0904
  133MOL0     C17860   7.472  -0.586   8.438  0.4233 -0.2660 -0.6730
  133MOL0     C17861   7.404  -0.541   8.305  0.7732  0.1816  0.1226
  133MOL0     C17862   7.278  -0.625   8.292  0.3057  0.0940  0.1391
  133MOL0     C17863   7.166  -0.579   8.383  0.6110 -0.8247 -0.0762
  133MOL0     C17864   7.031  -0.648   8.351  0.0427  0.6551 -0.1348
  133MOL0    Cl17865   6.955  -0.543   8.226 -0.8295 -0.0657  0.0681
  133MOL0     C17866   8.034  -0.300   8.575  0.3746 -0.2505  0.1632
  133MOL0     C17867   8.155  -0.261   8.633  0.0311 -0.4758 -0.0428
  133MOL0     O17868   8.280  -0.143   8.890  0.2416 -0.2538  0.2914
  133MOL0     C17869   8.533  -0.087   8.977  0.5185 -0.4884  1.0888
  133MOL0     C17870   8.669  -0.066   9.024  0.3859 -0.3279 -0.6603
  133MOL0     N17871   9.385   0.027   9.083 -0.8538 -0.6583 -0.4696
  133MOL0     N17872   9.483   0.039   9.168  0.0219  0.2239 -0.5146
  133MOL0     C17873  10.331   0.502   9.478 -0.3601  0.1485 -0.7871
  133MOL0     C17874  10.469   0.515   9.446  1.1881  0.0417 -0.0133
  133MOL0     C17875  10.877   0.636   9.555 -0.2110 -0.3208  0.5678
  133MOL0     C17876  10.912   0.769   9.547  0.5949 -0.5162 -0.3650
  133MOL0     C17877  11.036   0.811   9.498 -0.3781 -0.4954  0.0602
  133MOL0     C17878  11.137   0.716   9.467  0.2111 -0.1665  0.4690
  133MOL0     O17879  11.259   0.753   9.410  0.9683 -0.2388 -0.2175
  133MOL0     C17880  11.312   0.884   9.404 -0.1956 -0.3275 -0.1066
  133MOL0     C17881  11.441   0.904   9.489  0.6329 -0.4877 -0.4511
  133MOL0     C17882  11.442   0.875   9.639 -0.5998  0.8283  0.9866
  133MOL0     C17883  11.579   0.804   9.691  0.0021 -0.5441  0.0848
  133MOL0     C17884  11.682   0.899   9.712 -0.2155 -0.3437 -0.2240
  133MOL0     C17885  11.776   0.977   9.734 -0.4349 -0.1158 -0.0725
  133MOL0     C17886  11.109   0.581   9.478  0.1528 -0.5852 -0.6763
  133MOL0     C17887  10.979   0.548   9.527 -0.2201  0.6535  0.7195
  133MOL0     H17888  10.598   0.330   9.685 -0.5370 -1.2078 -1.7787
  133MOL0     H17889  10.369   0.282   9.732 -0.3406  0.2724  0.0654
  133MOL0     H17890  10.148   0.616   9.618 -1.2102  1.7973  1.5587
  133MOL0     H17891  10.059   0.529   9.489 -2.2682  3.2681  0.3057
  133MOL0     H17892   9.958   0.592   9.766  1.4122 -0.1627 -0.7135
  133MOL0     H17893   9.922   0.662   9.613  0.1506  0.9758  1.3699
  133MOL0     H17894   9.877   0.361   9.645 -0.3642 -0.6132  4.7493
  133MOL0     H17895   9.769   0.465   9.725  1.3563  4.7206  0.1051
  133MOL0     H17896   9.705   0.578   9.499 -2.0010 -0.4437 -1.4662
  133MOL0     H17897   9.805   0.459   9.417 -2.7346  2.5078 -2.3888
  133MOL0     H17898   9.633   0.307   9.589  1.5814  2.2265  2.1925
  133MOL0     H17899   9.540   0.443   9.518  2.5210  1.7156 -0.2849
  133MOL0     H17900   9.495   0.295   9.337 -0.0464  0.8756 -4.0491
  133MOL0     H17901   9.618   0.394   9.286 -1.7258  1.3431  1.1042
  133MOL0     H17902   9.780   0.217   9.391  2.1545 -2.8280 -1.9548
  133MOL0     H17903   9.647   0.104   9.395  2.1316 -1.3930 -1.1749
  133MOL0     H17904   9.759   0.075   9.190  2.0202  2.6881 -1.8172
  133MOL0     H17905   9.743   0.246   9.141  0.6722  0.2844  0.1892
  133MOL0     H17906   9.601   0.208   8.922  1.7352 -0.7856  1.7256
  133MOL0     H17907   9.339   0.215   8.804  0.1448  1.2602  0.7981
  133MOL0     H17908   9.321   0.040   8.795 -1.1856 -0.7480 -0.3143
  133MOL0     H17909   9.109   0.185   8.828 -1.7600  0.8972  1.5147
  133MOL0     H17910   9.158   0.204   9.002 -0.2386 -0.7676  0.4418
  133MOL0     H17911   9.141  -0.036   9.028  2.2104 -1.0728 -1.5399
  133MOL0     H17912   9.116  -0.057   8.851 -2.2403  0.7108 -0.5275
  133MOL0     H17913   8.898   0.047   8.874  0.0391 -1.7334 -0.2565
  133MOL0     H17914   8.908   0.085   9.035 -2.0443  1.3961 -2.2283
  133MOL0     H17915   8.800  -0.364   8.968 -1.7655 -1.8856  3.3396
  133MOL0     H17916   8.664  -0.519   8.876 -0.2128  0.5042 -1.6887
  133MOL0     H17917   8.509  -0.524   8.950  3.4726 -2.9441  0.7833
  133MOL0     H17918   8.530  -0.464   8.782 -1.3602  0.8663 -0.2619
  133MOL0     H17919   8.217  -0.537   8.824  0.4191 -0.0181 -1.2739
  133MOL0     H17920   7.997  -0.592   8.755 -3.3249  2.2950  0.2042
  133MOL0     H17921   7.772  -0.428   8.763  1.7409  2.8101  0.2455
  133MOL0     H17922   7.712  -0.334   8.630 -1.7935 -0.4288  1.7650
  133MOL0     H17923   7.660  -0.622   8.623 -1.6128 -0.0409  1.1902
  133MOL0     H17924   7.551  -0.496   8.692 -0.1768  0.4927 -0.1580
  133MOL0     H17925   7.649  -0.482   8.401 -0.0575 -0.7421 -0.9172
  133MOL0     H17926   7.521  -0.384   8.479 -0.6831 -0.6627  2.2031
  133MOL0     H17927   7.523  -0.683   8.434  0.1222 -0.3944 -2.9768
  133MOL0     H17928   7.401  -0.594   8.520  0.9143 -2.0214 -0.3835
  133MOL0     H17929   7.475  -0.563   8.225 -0.5304  1.2397 -1.3655
  133MOL0     H17930   7.382  -0.434   8.303  0.5762  0.1768  1.2386
  133MOL0     H17931   7.246  -0.631   8.187 -2.6817 -0.2061  0.9615
  133MOL0     H17932   7.311  -0.727   8.313 -0.8583 -0.4797 -0.6940
  133MOL0     H17933   7.148  -0.472   8.374 -3.2208 -1.4508 -1.5213
  133MOL0     H17934   7.195  -0.609   8.484 -1.8504 -0.7262  0.7169
  133MOL0     H17935   6.984  -0.641   8.450  2.8765  4.5835  1.1870
  133MOL0     H17936   7.050  -0.750   8.317  2.1030  1.3542 -1.2356
  133MOL0     H17937   7.983  -0.236   8.504  2.9887  0.2132 -1.4172
  133MOL0     H17938   8.210  -0.172   8.604 -0.0583 -0.9044 -1.5854
  133MOL0     H17939   8.456  -0.011   8.973  1.8921  0.9283 -2.6360
  133MOL0     H17940   8.686   0.036   9.055 -2.9077  0.3858 -0.7578
  133MOL0     H17941  10.248   0.539   9.418  1.0414  1.3340 -2.0854
  133MOL0     H17942  10.499   0.584   9.368  2.5027  2.7424  2.6544
  133MOL0     H17943  10.837   0.846   9.567  1.1971 -0.1370  0.4806
  133MOL0     H17944  11.044   0.919   9.498 -3.4548 -0.1783 -0.6199
  133MOL0     H17945  11.345   0.910   9.303  2.0014 -0.7667  0.4341
  133MOL0     H17946  11.249   0.971   9.424 -0.4539 -0.8782  1.6540
  133MOL0     H17947  11.471   1.008   9.474  1.0187 -0.3024  1.3283
  133MOL0     H17948  11.510   0.835   9.438 -1.9250 -1.4853 -2.8020
  133MOL0     H17949  11.368   0.795   9.654 -0.3529  0.5173  0.5523
  133MOL0     H17950  11.425   0.966   9.697 -0.5032  1.2059  0.4229
  133MOL0     H17951  11.601   0.737   9.608  0.5133 -0.3234  0.0390
  133MOL0     H17952  11.575   0.755   9.789  1.9942  2.1595  1.6704
  133MOL0     H17953  11.844   1.056   9.757  0.8749 -0.3009 -2.8285
  133MOL0     H17954  11.176   0.499   9.456 -0.3875 -0.6772 -2.0387
  133MOL0     H17955  10.953   0.443   9.532 -1.4766  0.9678  1.0544
  134MOL0     O17956   3.888   8.870   8.358  0.1462  0.4132  0.6263
  134MOL0     C17957   3.990   8.807   8.373 -1.0736 -1.2689 -0.2720
  134MOL0     O17958   4.012   8.679   8.335 -0.3345 -0.1227  0.5037
  134MOL0     C17959   3.920   8.623   8.253  0.0745 -0.3550  0.1497
  134MOL0     C17960   3.824   8.539   8.313  1.1032  0.0205 -0.7065
  134MOL0     C17961   3.737   8.468   8.233  0.1988  1.2084 -1.0716
  134MOL0     C17962   3.718   8.496   8.104 -0.5636  0.2272 -0.3093
  134MOL0     O17963   3.642   8.413   8.018  0.0168  0.1106  0.4205
  134MOL0     C17964   3.497   8.418   8.044  0.2710  0.2253 -0.8088
  134MOL0     C17965   3.415   8.510   7.948  0.4208  0.2559  0.7793
  134MOL0     C17966   3.260   8.501   7.952  0.5733 -0.0137  0.4957
  134MOL0     C17967   3.203   8.388   7.864 -0.0665 -0.1312 -1.0995
  134MOL0     C17968   3.082   8.443   7.791 -0.3360 -0.2610 -0.1727
  134MOL0     C17969   2.974   8.341   7.775 -0.3060  0.4252  0.7043
  134MOL0     C17970   3.011   8.216   7.688 -0.2001  0.8510  0.9504
  134MOL0     C17971   3.076   8.242   7.550  0.3659  0.0892  0.9387
  134MOL0     N17972   3.094   8.119   7.473  0.1950  1.0047 -0.0818
  134MOL0     C17973   3.181   8.016   7.492 -0.7063 -0.1378 -0.7988
  134MOL0     C17974   3.146   7.912   7.405 -0.6862  0.4559  0.1588
  134MOL0     C17975   3.212   7.773   7.398 -0.0655 -1.5446  0.9714
  134MOL0     C17976   3.367   7.767   7.386  0.0232 -0.5522 -0.0151
  134MOL0     C17977   3.423   7.808   7.250  0.0785 -1.0951 -0.6648
  134MOL0     C17978   3.573   7.778   7.248 -0.1340 -0.0817 -0.7276
  134MOL0     O17979   3.603   7.639   7.243  0.3840 -0.1780 -0.5355
  134MOL0     C17980   3.729   7.592   7.262 -1.3187 -0.1460 -0.5267
  134MOL0     C17981   3.742   7.458   7.289  0.1490 -0.0692  0.5953
  134MOL0     C17982   3.863   7.395   7.321 -0.6022  0.8384 -0.1603
  134MOL0     C17983   3.856   7.249   7.346 -0.0167  0.1699 -0.5897
  134MOL0     C17984   3.981   7.476   7.309  0.4434 -0.3847 -0.2375
  134MOL0     C17985   4.116   7.422   7.338 -0.6399 -0.4380  0.3537
  134MOL0     O17986   4.219   7.516   7.324  0.0448 -0.3231 -0.5555
  134MOL0     C17987   4.352   7.468   7.317  0.1748  0.2838  0.6187
  134MOL0     C17988   4.459   7.539   7.366 -0.1537  1.1909  0.5208
  134MOL0     C17989   4.591   7.499   7.334  0.4374 -0.4833  0.5219
  134MOL0     C17990   4.609   7.380   7.262 -0.1777  0.9424  0.1201
  134MOL0     O17991   4.741   7.339   7.242  0.3159 -0.0162  0.0159
  134MOL0     C17992   4.755   7.193   7.216 -0.1337  0.2547 -0.3146
  134MOL0     C17993   4.901   7.162   7.191  0.1518 -0.3724 -1.4250
  134MOL0     C17994   4.978   7.182   7.322  0.2192  0.6760  0.1897
  134MOL0     C17995   5.119   7.143   7.303 -0.6792 -0.1151 -0.2706
  134MOL0     C17996   5.222   7.182   7.408 -0.7370 -0.8706 -0.1505
  134MOL0     C17997   5.186   7.132   7.557 -0.5520  0.6364  0.0036
  134MOL0     C17998   5.306   7.173   7.654 -0.0847 -0.4335  1.3968
  134MOL0     C17999   5.335   7.321   7.668  0.1025  0.3834  0.4109
  134MOL0    Cl18000   5.476   7.319   7.761 -0.1263  0.1981 -0.8506
  134MOL0     C18001   4.496   7.315   7.208  0.2533  1.0124  0.2744
  134MOL0     C18002   4.370   7.358   7.230  0.7230 -1.1567  1.0678
  134MOL0     O18003   4.130   7.304   7.373 -0.3059  0.3483  0.4001
  134MOL0     C18004   3.974   7.609   7.276 -0.0732  0.7065  0.4826
  134MOL0     C18005   3.850   7.669   7.259  0.2629 -0.8219 -0.0456
  134MOL0     N18006   3.031   7.952   7.335 -0.0993  0.4326 -0.0227
  134MOL0     N18007   3.006   8.071   7.374  0.7895 -0.0181 -0.7317
  134MOL0     C18008   3.807   8.596   8.044 -0.8870 -0.0144  0.0025
  134MOL0     C18009   3.914   8.656   8.118  0.3488  0.0682 -0.4355
  134MOL0     C18010   4.112   8.878   8.427  0.2598  0.5454 -0.0570
  134MOL0     C18011   4.228   8.817   8.446 -0.3063 -0.2129  0.6882
  134MOL0     C18012   4.345   8.871   8.506 -1.4502 -0.5360  0.0978
  134MOL0     C18013   4.338   9.005   8.539 -0.7031 -0.0769  0.2291
  134MOL0     O18014   4.451   9.072   8.599  0.2727 -0.2028  0.1662
  134MOL0     C18015   4.491   9.201   8.557  0.4140 -0.0777 -0.1485
  134MOL0     C18016   4.642   9.219   8.589  0.4077  0.0803  0.0587
  134MOL0     C18017   4.716   9.097   8.525 -0.5331 -0.3192  0.0159
  134MOL0     C18018   4.859   9.116   8.533  0.0193  0.9050 -0.1425
  134MOL0     C18019   4.922   9.179   8.414  0.0080  0.6295 -0.4760
  134MOL0     C18020   4.958   9.230   8.312  0.5182  0.3438 -0.0433
  134MOL0     C18021   4.217   9.074   8.524 -0.5283  0.2799 -0.1739
  134MOL0     C18022   4.103   9.010   8.477  0.2614  0.6853 -0.1578
  134MOL0     H18023   3.820   8.518   8.420 -0.5600  0.4967 -0.6450
  134MOL0     H18024   3.668   8.397   8.278 -0.3907  1.9404 -0.7795
  134MOL0     H18025   3.464   8.315   8.025 -0.0308 -0.2650  1.9324
  134MOL0     H18026   3.474   8.450   8.146  0.0508  1.9292 -1.3574
  134MOL0     H18027   3.448   8.612   7.973  0.3881  0.5968 -0.5119
  134MOL0     H18028   3.448   8.487   7.847  2.3500 -1.0283  1.6575
  134MOL0     H18029   3.232   8.476   8.055  0.4858  1.3300  0.8163
  134MOL0     H18030   3.219   8.601   7.933  1.1578  0.2675  0.6928
  134MOL0     H18031   3.279   8.355   7.792  0.4161  2.6715 -2.0023
  134MOL0     H18032   3.169   8.307   7.929  1.6969 -0.6101 -0.7297
  134MOL0     H18033   3.034   8.526   7.844 -2.8374 -1.5616 -0.2490
  134MOL0     H18034   3.114   8.474   7.691  0.3582 -2.2827 -0.6259
  134MOL0     H18035   2.940   8.297   7.869 -0.5162 -1.1771 -0.0854
  134MOL0     H18036   2.894   8.395   7.723 -0.2806  0.3117  0.5463
  134MOL0     H18037   3.087   8.158   7.742 -0.2326  0.2602  0.3807
  134MOL0     H18038   2.921   8.156   7.673 -0.4533  0.9050  2.1397
  134MOL0     H18039   3.174   8.291   7.544 -1.3651  3.8419 -0.3330
  134MOL0     H18040   3.012   8.315   7.499  0.2315 -1.2908 -0.9764
  134MOL0     H18041   3.265   8.017   7.561 -0.3550 -0.3429 -1.2086
  134MOL0     H18042   3.183   7.707   7.480 -1.6576 -2.9371 -0.6242
  134MOL0     H18043   3.174   7.714   7.314  0.2626 -2.5983  1.5472
  134MOL0     H18044   3.403   7.665   7.403  0.9244 -0.5726 -1.7484
  134MOL0     H18045   3.415   7.834   7.458 -2.3744  2.9155 -1.3551
  134MOL0     H18046   3.417   7.917   7.241  1.5838 -0.9710 -0.4659
  134MOL0     H18047   3.374   7.765   7.162  0.7993 -0.1105 -1.5744
  134MOL0     H18048   3.610   7.802   7.348 -1.9219 -0.2960  0.0240
  134MOL0     H18049   3.628   7.836   7.174 -0.3691  0.0703 -0.7814
  134MOL0     H18050   3.654   7.395   7.295  0.8098 -1.0251  0.4416
  134MOL0     H18051   3.912   7.181   7.281 -0.1875 -2.9880  2.2701
  134MOL0     H18052   3.885   7.223   7.449 -2.9503  2.5551  0.9804
  134MOL0     H18053   3.757   7.204   7.338  1.1100 -3.3947  2.4062
  134MOL0     H18054   4.450   7.629   7.427  2.2028  2.2182 -0.5251
  134MOL0     H18055   4.682   7.549   7.367  0.4025 -0.4306  0.5395
  134MOL0     H18056   4.712   7.128   7.292 -1.2560  0.6213 -0.6209
  134MOL0     H18057   4.708   7.159   7.123  1.2181  1.2587 -1.4315
  134MOL0     H18058   4.905   7.060   7.151  1.6305 -0.5538 -0.8636
  134MOL0     H18059   4.938   7.225   7.109 -0.3994 -0.3667 -1.6815
  134MOL0     H18060   4.938   7.119   7.402 -0.2576 -3.0292 -2.6970
  134MOL0     H18061   4.978   7.286   7.355 -0.1648  0.8419 -0.3199
  134MOL0     H18062   5.125   7.034   7.311  0.3066 -0.1894 -1.5602
  134MOL0     H18063   5.152   7.179   7.205  1.2252 -0.2458  0.3027
  134MOL0     H18064   5.229   7.291   7.404  0.6124 -0.9607 -3.3339
  134MOL0     H18065   5.319   7.144   7.376  1.3910  4.5122 -1.2163
  134MOL0     H18066   5.095   7.184   7.590  0.4003  1.3144  1.6399
  134MOL0     H18067   5.174   7.025   7.571 -1.2716  0.6478 -0.4722
  134MOL0     H18068   5.390   7.118   7.611 -1.3219 -0.4187 -1.2292
  134MOL0     H18069   5.293   7.128   7.753  1.6434 -0.6064  1.5753
  134MOL0     H18070   5.254   7.366   7.726 -0.6791 -0.3990 -0.0528
  134MOL0     H18071   5.357   7.371   7.573  0.2596  0.0802  0.2842
  134MOL0     H18072   4.509   7.216   7.166  0.8936  0.5983  1.4057
  134MOL0     H18073   4.281   7.308   7.193 -1.2286 -0.3899  4.3652
  134MOL0     H18074   4.063   7.668   7.260 -0.5907  1.3468 -0.0617
  134MOL0     H18075   3.858   7.770   7.221 -1.9466 -0.7055 -0.3285
  134MOL0     H18076   3.805   8.625   7.939  2.8734 -0.0379 -0.2236
  134MOL0     H18077   3.991   8.722   8.081  0.3986 -0.3205 -1.0275
  134MOL0     H18078   4.238   8.712   8.420 -0.4125 -0.2765  0.9076
  134MOL0     H18079   4.430   8.809   8.531 -1.0255 -0.1377 -0.3574
  134MOL0     H18080   4.476   9.212   8.449 -1.3286 -1.7358 -0.1289
  134MOL0     H18081   4.430   9.277   8.605  4.7709  2.7698  1.5161
  134MOL0     H18082   4.644   9.224   8.698 -0.2151  0.3920  0.0608
  134MOL0     H18083   4.687   9.311   8.551  0.9804 -0.8634 -1.6623
  134MOL0     H18084   4.688   9.087   8.420 -0.9496  0.4989  0.0472
  134MOL0     H18085   4.681   9.012   8.585  0.2488 -0.0753  0.8545
  134MOL0     H18086   4.908   9.018   8.536  3.7648  2.6272  1.8873
  134MOL0     H18087   4.879   9.160   8.631 -1.7365  2.0617 -0.2520
  134MOL0     H18088   4.977   9.270   8.214  0.4043 -1.6277 -0.9096
  134MOL0     H18089   4.205   9.174   8.563  0.4357  0.8529 -1.2984
  134MOL0     H18090   4.009   9.063   8.490  0.0595 -0.0206  1.5531
  135MOL0     O18091   1.788   6.887   3.185 -0.0347  0.2223 -0.7619
  135MOL0     C18092   1.735   6.950   3.280  0.2382  0.5908  0.3153
  135MOL0     O18093   1.605   6.987   3.296  0.0075  0.2736 -0.2253
  135MOL0     C18094   1.495   6.970   3.207 -0.4826 -0.3119 -0.9291
  135MOL0     C18095   1.369   6.971   3.272  0.2819 -0.8796  0.7010
  135MOL0     C18096   1.254   6.950   3.195  0.1668 -0.0413 -0.7858
  135MOL0     C18097   1.266   6.927   3.054  0.6137 -1.4122  0.4800
  135MOL0     O18098   1.169   6.912   2.970  0.2765  0.5711  0.7369
  135MOL0     C18099   1.044   6.845   3.002  0.5405 -0.5322 -1.2032
  135MOL0     C18100   0.931   6.882   2.913  0.2384  0.1960  0.0797
  135MOL0     C18101   0.949   6.852   2.762  0.3320 -0.0748  0.5754
  135MOL0     C18102   0.810   6.821   2.717  0.4094  0.0737 -0.7082
  135MOL0     C18103   0.809   6.768   2.573 -0.5945 -0.3035 -0.0822
  135MOL0     C18104   0.664   6.728   2.533 -0.1765  0.7889  0.4716
  135MOL0     C18105   0.560   6.848   2.511 -0.4418  0.2455  0.5556
  135MOL0     C18106   0.570   6.917   2.372  0.5870  0.0592  0.1857
  135MOL0     N18107   0.437   6.951   2.313 -0.2802  0.4099 -0.1654
  135MOL0     C18108   0.356   6.860   2.261  0.4765 -0.4382  0.3195
  135MOL0     C18109   0.250   6.935   2.214 -0.3113  0.0185  0.8979
  135MOL0     C18110   0.141   6.876   2.130  0.3323 -0.0487 -0.3011
  135MOL0     C18111   0.003   6.886   2.204  0.8034  0.7754 -0.1616
  135MOL0     C18112  -0.120   6.831   2.138  0.9095  0.4179  0.6506
  135MOL0     C18113  -0.092   6.693   2.079  0.1635  0.3178 -0.3326
  135MOL0     O18114  -0.215   6.643   2.028  0.0825 -0.4509  0.5281
  135MOL0     C18115  -0.274   6.542   2.099  0.5142  1.2627 -0.1238
  135MOL0     C18116  -0.217   6.429   2.148  0.2614 -0.1810  0.4920
  135MOL0     C18117  -0.289   6.324   2.212 -0.1233  0.0962  0.1158
  135MOL0     C18118  -0.219   6.205   2.271 -0.2042 -0.0752 -1.0918
  135MOL0     C18119  -0.419   6.355   2.252  0.8688 -1.0696  0.1341
  135MOL0     C18120  -0.523   6.276   2.340  0.5584  0.8564 -0.2162
  135MOL0     O18121  -0.498   6.153   2.371  0.2310  0.5213 -0.1147
  135MOL0     C18122  -0.598   6.083   2.441 -1.0368  0.6085 -0.3520
  135MOL0     C18123  -0.605   6.088   2.581 -0.5261 -1.5519 -0.1450
  135MOL0     C18124  -0.701   6.026   2.651  0.1040 -0.1720  0.4374
  135MOL0     C18125  -0.796   5.953   2.589  0.7207  0.5776  0.0296
  135MOL0     O18126  -0.906   5.880   2.649 -1.1612 -0.0796  0.0366
  135MOL0     C18127  -0.900   5.905   2.790 -0.4610 -0.2317 -1.1586
  135MOL0     C18128  -1.029   5.845   2.853 -0.4949 -0.8010 -0.0058
  135MOL0     C18129  -1.013   5.693   2.891 -1.0490  0.3322 -0.0206
  135MOL0     C18130  -1.126   5.656   2.990  0.5446 -0.0721  0.7189
  135MOL0     C18131  -1.087   5.506   3.021  0.5623 -0.0976 -0.2434
  135MOL0     C18132  -1.183   5.453   3.122 -0.5947 -0.2141  0.0714
  135MOL0     C18133  -1.150   5.303   3.152 -0.1854 -0.1600  0.4556
  135MOL0     C18134  -1.254   5.242   3.243  0.1496  0.0305  1.6959
  135MOL0    Cl18135  -1.253   5.312   3.402  0.4775  0.0410 -0.1574
  135MOL0     C18136  -0.803   5.945   2.451 -0.4691 -0.7780 -0.4131
  135MOL0     C18137  -0.693   6.005   2.376  0.7111 -0.4867 -0.0131
  135MOL0     O18138  -0.634   6.331   2.361 -0.0199 -0.0404  1.1037
  135MOL0     C18139  -0.480   6.475   2.200  0.6034 -0.1928  0.5134
  135MOL0     C18140  -0.409   6.566   2.121 -0.4486  0.0236  0.3345
  135MOL0     N18141   0.275   7.066   2.228 -0.3763  0.4705  0.5145
  135MOL0     N18142   0.389   7.077   2.286 -0.3752  0.2662 -0.1900
  135MOL0     C18143   1.392   6.925   2.993 -0.0899 -0.5471  0.4741
  135MOL0     C18144   1.505   6.952   3.071 -1.3832  0.5040 -0.0521
  135MOL0     C18145   1.822   6.957   3.403 -0.1089 -0.3322 -0.5102
  135MOL0     C18146   1.765   6.976   3.531 -0.4650 -0.4954  0.3859
  135MOL0     C18147   1.851   6.997   3.643 -0.1268  0.1075 -0.2107
  135MOL0     C18148   1.988   7.010   3.623  0.5047  0.3367 -0.7658
  135MOL0     O18149   2.058   7.051   3.733  0.0383 -0.1440  0.7095
  135MOL0     C18150   2.179   6.982   3.762  0.3858 -0.6127  0.3430
  135MOL0     C18151   2.247   7.021   3.896 -0.3273 -0.3151  0.3368
  135MOL0     C18152   2.162   7.026   4.021 -0.0411 -0.9426 -0.4458
  135MOL0     C18153   2.100   6.890   4.058 -0.8412 -0.6726  0.1599
  135MOL0     C18154   2.015   6.904   4.177 -0.2184  0.6447 -0.0744
  135MOL0     C18155   1.940   6.903   4.282  0.6285  0.2441  0.0842
  135MOL0     C18156   2.043   7.006   3.496 -0.4875 -0.0464  0.3132
  135MOL0     C18157   1.960   6.972   3.388  0.2776 -0.0181  0.2772
  135MOL0     H18158   1.352   6.997   3.376 -2.5203  1.6167 -0.2535
  135MOL0     H18159   1.164   6.980   3.247  2.6638  3.5358  1.9315
  135MOL0     H18160   1.044   6.736   2.997 -1.9398 -0.5402 -2.9047
  135MOL0     H18161   1.003   6.873   3.099 -1.3139 -1.1985 -1.7503
  135MOL0     H18162   0.841   6.830   2.945 -0.7200  0.4911 -1.9884
  135MOL0     H18163   0.918   6.990   2.922  0.1176  0.3650 -1.6577
  135MOL0     H18164   0.994   6.934   2.707 -1.8615  0.3139 -0.7512
  135MOL0     H18165   1.008   6.760   2.760 -2.5438 -2.0369 -0.0887
  135MOL0     H18166   0.761   6.750   2.783  0.0042  3.1355  2.6417
  135MOL0     H18167   0.760   6.918   2.728 -1.5102 -0.7159 -1.9724
  135MOL0     H18168   0.845   6.837   2.496 -0.9108 -1.1124 -0.9737
  135MOL0     H18169   0.882   6.686   2.579  0.6048  0.6979 -0.5841
  135MOL0     H18170   0.671   6.666   2.443 -1.1814  0.0850  0.8659
  135MOL0     H18171   0.628   6.658   2.609 -0.6752 -1.2048 -1.4912
  135MOL0     H18172   0.467   6.795   2.534  0.9578 -3.8831 -2.2301
  135MOL0     H18173   0.578   6.924   2.588  3.2688 -0.3983  0.4764
  135MOL0     H18174   0.628   6.860   2.299  2.0368  2.3701 -0.5926
  135MOL0     H18175   0.639   7.002   2.371 -0.5767  1.0423  0.7276
  135MOL0     H18176   0.372   6.753   2.250  2.3890 -0.1610  0.1324
  135MOL0     H18177   0.126   6.930   2.035  1.7339 -0.9780 -1.0981
  135MOL0     H18178   0.181   6.778   2.102 -1.4208 -0.7103 -0.5787
  135MOL0     H18179  -0.022   6.985   2.242  0.7963  0.3478  0.9972
  135MOL0     H18180   0.013   6.827   2.296 -1.2204  2.5516  1.3177
  135MOL0     H18181  -0.159   6.892   2.056 -0.4289 -0.2881  0.7360
  135MOL0     H18182  -0.194   6.843   2.217  0.2083  3.4093 -0.3156
  135MOL0     H18183  -0.044   6.634   2.157  1.8862 -0.7347 -2.1130
  135MOL0     H18184  -0.014   6.690   2.003  3.2233 -2.6768  2.5741
  135MOL0     H18185  -0.114   6.414   2.116  1.0526  1.7232  1.9655
  135MOL0     H18186  -0.260   6.167   2.365  0.1768 -2.1500 -1.7216
  135MOL0     H18187  -0.227   6.127   2.194 -0.8206 -0.1712 -0.9349
  135MOL0     H18188  -0.116   6.235   2.293 -0.1069 -0.0977 -1.5080
  135MOL0     H18189  -0.527   6.127   2.645  3.4086 -4.7063 -2.5789
  135MOL0     H18190  -0.682   6.034   2.758  1.0662 -1.1488  0.3518
  135MOL0     H18191  -0.826   5.847   2.846 -0.2665  0.4418 -0.7058
  135MOL0     H18192  -0.887   6.011   2.811 -2.9118 -0.0720 -0.1668
  135MOL0     H18193  -1.051   5.896   2.948 -1.2772  1.9813 -1.5587
  135MOL0     H18194  -1.107   5.879   2.784  3.5320  0.3671 -4.5225
  135MOL0     H18195  -0.923   5.677   2.951 -1.0589  3.2344  0.9557
  135MOL0     H18196  -1.010   5.639   2.797 -0.9066  3.3289 -1.8728
  135MOL0     H18197  -1.109   5.723   3.075  2.4787 -0.0019  0.3352
  135MOL0     H18198  -1.224   5.669   2.945  1.7680  1.1299 -1.7929
  135MOL0     H18199  -0.991   5.492   3.070  1.7190 -1.3793 -2.7121
  135MOL0     H18200  -1.097   5.437   2.937 -5.1725 -1.5096  1.1588
  135MOL0     H18201  -1.175   5.516   3.211 -2.8748  1.1920 -0.6372
  135MOL0     H18202  -1.288   5.449   3.091 -0.1560 -1.1840 -1.4252
  135MOL0     H18203  -1.057   5.299   3.208  0.8812  2.7062 -0.9398
  135MOL0     H18204  -1.145   5.232   3.068  0.2338  0.4172 -0.0143
  135MOL0     H18205  -1.245   5.133   3.249 -0.2655 -0.1237 -0.0060
  135MOL0     H18206  -1.347   5.272   3.194 -0.2104 -1.4765  1.4149
  135MOL0     H18207  -0.865   5.872   2.400  1.3764  0.0988 -4.2720
  135MOL0     H18208  -0.701   5.991   2.269  2.3327  0.0848 -0.2436
  135MOL0     H18209  -0.581   6.505   2.224  0.4266  1.0906 -1.5445
  135MOL0     H18210  -0.442   6.665   2.090  3.6854  1.1926 -1.0265
  135MOL0     H18211   1.397   6.922   2.885  0.7333 -1.1536  0.5213
  135MOL0     H18212   1.599   6.967   3.018 -2.4333  0.0149 -2.1606
  135MOL0     H18213   1.659   6.959   3.548 -0.4597 -2.4205 -1.0885
  135MOL0     H18214   1.809   6.996   3.743 -0.1461 -3.4663 -0.1491
  135MOL0     H18215   2.165   6.874   3.766  0.7965 -0.6262  2.0167
  135MOL0     H18216   2.251   6.997   3.681 -0.1316 -3.2471 -0.7003
  135MOL0     H18217   2.289   7.118   3.870  0.7978 -1.2590 -1.6490
  135MOL0     H18218   2.333   6.955   3.908  1.0168  1.6193  1.9374
  135MOL0     H18219   2.075   7.092   4.006  2.5427  2.7732 -0.4315
  135MOL0     H18220   2.220   7.052   4.109 -2.2287 -0.4930  0.9417
  135MOL0     H18221   2.179   6.816   4.072 -0.4856 -1.1340 -3.3467
  135MOL0     H18222   2.038   6.866   3.971 -2.1216  1.7610  0.3049
  135MOL0     H18223   1.876   6.907   4.368  0.7407 -0.4827  0.2119
  135MOL0     H18224   2.145   7.043   3.485 -1.5635  2.5568 -2.3605
  135MOL0     H18225   2.006   6.958   3.291  0.9574 -3.0682  0.9395
  136MOL0     O18226   2.291   7.289   3.249 -0.8975  0.4465 -0.2857
  136MOL0     C18227   2.383   7.357   3.300  0.3504  0.5159 -0.4389
  136MOL0     O18228   2.365   7.457   3.389 -0.0893  0.1389  0.4209
  136MOL0     C18229   2.239   7.477   3.440 -0.3320 -0.8868  0.3440
  136MOL0     C18230   2.185   7.603   3.422 -0.3755 -0.1576 -0.2667
  136MOL0     C18231   2.052   7.623   3.468  0.4729  0.2118 -0.6310
  136MOL0     C18232   1.978   7.526   3.527  0.7044 -0.2125  0.5210
  136MOL0     O18233   1.845   7.559   3.560 -0.1318  0.3900 -0.1141
  136MOL0     C18234   1.760   7.487   3.476  0.4015  0.1960  1.0493
  136MOL0     C18235   1.626   7.554   3.473 -0.1139 -0.2514 -0.2503
  136MOL0     C18236   1.631   7.694   3.416 -0.2881  0.6831 -0.2652
  136MOL0     C18237   1.485   7.755   3.428 -0.0628 -0.4466 -0.2450
  136MOL0     C18238   1.470   7.875   3.345 -1.3051  0.1558  0.4363
  136MOL0     C18239   1.326   7.933   3.342 -0.0186  0.6100 -0.2575
  136MOL0     C18240   1.327   8.062   3.267  0.1169  0.6723 -0.2747
  136MOL0     C18241   1.182   8.125   3.233 -0.0041  0.3447 -0.0272
  136MOL0     N18242   1.196   8.261   3.218  0.1968 -0.1749  0.4972
  136MOL0     C18243   1.167   8.362   3.304 -0.2420  0.5243  0.8937
  136MOL0     C18244   1.195   8.477   3.233  0.3736  0.1932  0.2746
  136MOL0     C18245   1.169   8.604   3.307  0.1102 -1.0362  0.9640
  136MOL0     C18246   1.096   8.688   3.208  0.9304 -0.2676 -0.3391
  136MOL0     C18247   1.043   8.811   3.273  0.1891  0.1028  0.2674
  136MOL0     C18248   0.967   8.899   3.178 -0.5699  0.2189  0.2268
  136MOL0     O18249   1.061   8.969   3.090 -0.5044  0.3106  0.4316
  136MOL0     C18250   1.021   8.966   2.959  0.7426  0.7432  0.2398
  136MOL0     C18251   1.014   8.843   2.887 -0.1050 -0.9060 -0.4443
  136MOL0     C18252   0.981   8.840   2.749  0.2022  0.0236 -0.1811
  136MOL0     C18253   0.969   8.697   2.691 -0.9784  0.2209 -0.3007
  136MOL0     C18254   0.959   8.959   2.678  0.4341 -1.2226  0.6814
  136MOL0     C18255   0.901   8.970   2.538 -0.7265 -0.0818  0.3107
  136MOL0     O18256   0.887   8.856   2.478 -0.5757 -0.1191  0.3817
  136MOL0     C18257   0.856   8.850   2.351 -0.0981 -1.3185 -0.1085
  136MOL0     C18258   0.944   8.918   2.263  0.1918 -0.5601  0.1902
  136MOL0     C18259   0.918   8.909   2.129  0.7686 -1.3171  0.4544
  136MOL0     C18260   0.812   8.837   2.073 -0.4286  0.4928 -0.5573
  136MOL0     O18261   0.792   8.831   1.938 -0.5837  0.2903  0.0115
  136MOL0     C18262   0.804   8.696   1.890  0.1129  0.3721  0.3163
  136MOL0     C18263   0.812   8.706   1.740  0.6520  0.0646 -1.0857
  136MOL0     C18264   0.948   8.752   1.692  0.3495 -1.2437 -0.7007
  136MOL0     C18265   0.936   8.888   1.624  0.9239  0.0021 -0.3207
  136MOL0     C18266   1.068   8.971   1.602  0.1544 -0.3665  0.4965
  136MOL0     C18267   1.175   8.891   1.523 -0.5901 -0.6753  0.2513
  136MOL0     C18268   1.318   8.940   1.542  0.1579 -0.7144 -0.6151
  136MOL0     C18269   1.331   9.071   1.471 -0.2901 -0.3364  1.1555
  136MOL0    Cl18270   1.486   9.096   1.375  0.1199 -0.1787 -0.0995
  136MOL0     C18271   0.721   8.773   2.164 -0.3670  0.6059 -0.0293
  136MOL0     C18272   0.741   8.786   2.301 -0.1198  0.0584 -0.2079
  136MOL0     O18273   0.865   9.083   2.497 -0.8346  0.5054  0.1210
  136MOL0     C18274   0.983   9.083   2.749  0.3136  0.0272  0.3076
  136MOL0     C18275   1.007   9.084   2.890 -1.2796  0.3526  0.3674
  136MOL0     N18276   1.245   8.439   3.111 -0.5805  0.1043  0.4325
  136MOL0     N18277   1.247   8.316   3.100 -0.0404  0.5627 -0.5490
  136MOL0     C18278   2.032   7.398   3.541 -0.0162  1.0256 -0.8212
  136MOL0     C18279   2.164   7.377   3.501 -0.2509 -0.6119 -1.1453
  136MOL0     C18280   2.519   7.331   3.237  0.2290  0.3562 -0.2128
  136MOL0     C18281   2.628   7.368   3.315 -0.7214  0.6468  0.6329
  136MOL0     C18282   2.757   7.376   3.266 -0.5524 -0.6558  0.1001
  136MOL0     C18283   2.790   7.320   3.143  0.2260 -1.1475 -0.0318
  136MOL0     O18284   2.915   7.292   3.089  0.2900 -0.1014 -0.8733
  136MOL0     C18285   3.023   7.289   3.189 -0.3224 -0.1466 -0.2139
  136MOL0     C18286   3.105   7.163   3.177  0.5264  0.7955  0.7057
  136MOL0     C18287   3.233   7.150   3.261  0.0608  0.5631 -0.8334
  136MOL0     C18288   3.209   7.155   3.415  0.5446 -0.1831  0.1576
  136MOL0     C18289   3.113   7.055   3.459  0.3994 -0.1870  0.6368
  136MOL0     C18290   3.030   6.974   3.488 -0.3200  0.0852  0.9047
  136MOL0     C18291   2.683   7.291   3.062 -1.2082  0.9282 -0.1495
  136MOL0     C18292   2.551   7.290   3.108 -0.0707  0.2418 -0.2830
  136MOL0     H18293   2.244   7.674   3.365 -3.0016 -0.3220 -3.4853
  136MOL0     H18294   2.011   7.724   3.467 -3.0726 -1.0718 -2.2250
  136MOL0     H18295   1.804   7.488   3.376 -0.1653  0.3879  0.7998
  136MOL0     H18296   1.753   7.383   3.509 -0.7124  0.7736  2.8118
  136MOL0     H18297   1.572   7.485   3.408 -3.6539  0.1324  2.0056
  136MOL0     H18298   1.577   7.559   3.571  1.2602 -0.4110  0.4692
  136MOL0     H18299   1.703   7.749   3.478 -0.0677  0.6193 -0.4633
  136MOL0     H18300   1.671   7.696   3.314  0.6148  0.9436  0.0823
  136MOL0     H18301   1.413   7.685   3.384 -1.3649  0.3208  0.6090
  136MOL0     H18302   1.457   7.765   3.533 -0.3255 -0.0230 -0.3513
  136MOL0     H18303   1.547   7.941   3.388 -1.3900 -0.9633  2.4435
  136MOL0     H18304   1.505   7.860   3.242 -2.0032  1.0028  0.0655
  136MOL0     H18305   1.272   7.862   3.279  2.2369  0.4884 -2.2008
  136MOL0     H18306   1.277   7.937   3.440  2.6137 -2.4123  1.3869
  136MOL0     H18307   1.375   8.143   3.324 -3.3268  2.6626  0.0712
  136MOL0     H18308   1.378   8.049   3.171 -2.8969 -2.7351 -1.6111
  136MOL0     H18309   1.112   8.103   3.314  0.9686 -0.7959  0.5409
  136MOL0     H18310   1.134   8.091   3.141 -0.9557  0.4442  0.4272
  136MOL0     H18311   1.113   8.353   3.398  0.4045  0.4072  1.2586
  136MOL0     H18312   1.108   8.588   3.397 -1.4721 -0.4208  0.0353
  136MOL0     H18313   1.267   8.645   3.330 -0.2131  0.0621  0.4507
  136MOL0     H18314   1.014   8.633   3.161  0.2745  0.5191 -0.1253
  136MOL0     H18315   1.162   8.709   3.124 -0.5635 -0.6813 -1.6678
  136MOL0     H18316   1.127   8.868   3.315 -0.4074  0.7102  0.6592
  136MOL0     H18317   0.972   8.777   3.350 -2.1936  0.3214 -1.7038
  136MOL0     H18318   0.909   8.968   3.240 -0.2301 -0.4507  1.3100
  136MOL0     H18319   0.888   8.840   3.132 -0.2722 -0.3380  0.4220
  136MOL0     H18320   1.040   8.749   2.936 -0.7727 -1.3363 -0.8990
  136MOL0     H18321   0.868   8.682   2.653 -0.9938 -0.7950  0.1313
  136MOL0     H18322   1.045   8.695   2.612 -2.1166  3.8839 -1.7399
  136MOL0     H18323   1.004   8.627   2.767  0.7503  1.1204 -0.2240
  136MOL0     H18324   1.035   8.972   2.288  0.1926  1.5449 -3.7002
  136MOL0     H18325   1.003   8.953   2.078 -1.1220  3.1040  0.6805
  136MOL0     H18326   0.894   8.648   1.929  0.7121  0.2880 -1.1134
  136MOL0     H18327   0.721   8.632   1.922  0.5764 -0.9670 -1.0750
  136MOL0     H18328   0.798   8.610   1.689  1.6331 -0.9822  0.5363
  136MOL0     H18329   0.726   8.766   1.708  1.4886  1.7300 -0.2970
  136MOL0     H18330   0.982   8.682   1.615  2.2152 -0.6194 -0.4994
  136MOL0     H18331   1.021   8.757   1.773  0.8532 -2.5798 -1.0410
  136MOL0     H18332   0.893   8.868   1.525 -1.0825  2.8655 -0.1433
  136MOL0     H18333   0.877   8.953   1.690  0.3022 -0.7429 -0.1254
  136MOL0     H18334   1.108   9.009   1.697 -0.2926 -0.8466  0.8882
  136MOL0     H18335   1.039   9.055   1.538 -0.9275  0.3617  1.8501
  136MOL0     H18336   1.170   8.792   1.570  0.4143 -1.6318 -1.5557
  136MOL0     H18337   1.142   8.875   1.420  0.0544 -2.8550  0.3347
  136MOL0     H18338   1.392   8.876   1.492  1.9060  1.3444 -0.8220
  136MOL0     H18339   1.350   8.947   1.646  1.0902  1.9478 -0.9892
  136MOL0     H18340   1.323   9.161   1.533 -1.6528  0.2820  0.1534
  136MOL0     H18341   1.247   9.078   1.400 -0.1472  0.7878  1.0809
  136MOL0     H18342   0.624   8.730   2.143 -1.2855  1.7823  1.5340
  136MOL0     H18343   0.677   8.731   2.370  1.1671 -1.2512 -0.0162
  136MOL0     H18344   0.985   9.177   2.695  1.8430 -0.0173  0.2295
  136MOL0     H18345   1.019   9.179   2.941 -0.9956 -1.6194  4.3673
  136MOL0     H18346   1.971   7.327   3.596  0.0573  0.2693 -1.6942
  136MOL0     H18347   2.202   7.277   3.516  2.1526  0.5003  0.8289
  136MOL0     H18348   2.622   7.390   3.421 -0.2404 -0.0705  0.8153
  136MOL0     H18349   2.827   7.421   3.335  1.1026  0.0153 -1.9064
  136MOL0     H18350   3.085   7.379   3.183  1.8827 -1.3660  2.3770
  136MOL0     H18351   2.980   7.292   3.289 -1.5441 -3.0634 -0.5252
  136MOL0     H18352   3.147   7.159   3.076  0.5315  0.5420  0.7179
  136MOL0     H18353   3.050   7.069   3.191  1.9294 -0.3043 -0.8364
  136MOL0     H18354   3.295   7.234   3.228 -1.4674  1.1041 -2.5041
  136MOL0     H18355   3.287   7.056   3.245 -2.1308 -0.7922 -0.6693
  136MOL0     H18356   3.161   7.251   3.436 -3.2859 -0.5558 -4.9740
  136MOL0     H18357   3.303   7.145   3.471 -1.6231 -0.2584  4.0887
  136MOL0     H18358   2.951   6.909   3.521 -0.5817 -0.6461 -1.0531
  136MOL0     H18359   2.693   7.261   2.958  1.8283  0.3216  0.2219
  136MOL0     H18360   2.477   7.275   3.031  2.0937 -0.3723 -2.3718
  137MOL0     O18361  11.307   2.234   8.041 -1.0621  0.5702 -0.4273
  137MOL0     C18362  11.346   2.344   8.004 -0.1040 -1.1507  0.3392
  137MOL0     O18363  11.268   2.448   7.973  0.3924  0.2339 -0.4396
  137MOL0     C18364  11.136   2.443   7.989 -0.2519 -0.1349 -0.1221
  137MOL0     C18365  11.064   2.375   7.889 -0.2408 -0.4058 -0.1394
  137MOL0     C18366  10.922   2.386   7.884  0.6564  0.7129 -0.1142
  137MOL0     C18367  10.848   2.452   7.988 -0.7586 -0.0577 -0.6723
  137MOL0     O18368  10.713   2.475   7.986  0.5043 -0.0969  0.1046
  137MOL0     C18369  10.628   2.366   7.952  0.1396  0.0203  0.3524
  137MOL0     C18370  10.477   2.380   8.003  0.1062  0.7182  0.1493
  137MOL0     C18371  10.480   2.437   8.148 -0.8932  0.0092  0.2035
  137MOL0     C18372  10.349   2.406   8.221  0.5327 -0.6731 -0.3928
  137MOL0     C18373  10.214   2.463   8.150 -0.9062 -0.0696 -0.0082
  137MOL0     C18374  10.088   2.407   8.212  0.3434  0.7676 -0.7351
  137MOL0     C18375  10.081   2.431   8.371 -0.1559 -0.7271 -0.0168
  137MOL0     C18376   9.953   2.363   8.429 -0.8447 -0.5098 -0.2886
  137MOL0     N18377   9.921   2.413   8.561  0.1670  0.2826  0.8466
  137MOL0     C18378   9.898   2.547   8.601 -0.2783 -0.2883  0.1567
  137MOL0     C18379   9.877   2.545   8.734  0.0532 -0.2917 -0.4880
  137MOL0     C18380   9.858   2.664   8.824  0.0297  0.0209  0.1806
  137MOL0     C18381   9.704   2.700   8.820  0.3020 -0.3559  0.3867
  137MOL0     C18382   9.618   2.599   8.909 -0.0788 -0.2738 -0.4239
  137MOL0     C18383   9.466   2.626   8.913 -0.1506 -0.1563 -0.9258
  137MOL0     O18384   9.408   2.601   8.784 -0.6621 -0.3357  0.4279
  137MOL0     C18385   9.273   2.606   8.770 -0.0063 -0.1575 -0.2961
  137MOL0     C18386   9.181   2.651   8.872  0.1673  0.2077 -0.0951
  137MOL0     C18387   9.045   2.636   8.858 -0.0609 -0.2890 -0.2032
  137MOL0     C18388   8.954   2.691   8.966  0.0691 -0.1873 -0.6364
  137MOL0     C18389   8.995   2.565   8.744 -0.4437 -0.2919  0.6695
  137MOL0     C18390   8.853   2.540   8.710  1.0486 -0.8514  0.8226
  137MOL0     O18391   8.824   2.449   8.603 -0.5400 -0.0366 -0.1058
  137MOL0     C18392   8.694   2.413   8.575  0.5314 -0.6271 -0.5459
  137MOL0     C18393   8.626   2.477   8.470 -0.2092 -0.1943 -0.0989
  137MOL0     C18394   8.495   2.443   8.424  0.2323  0.0765  0.6859
  137MOL0     C18395   8.440   2.327   8.483 -0.4329  0.1662 -0.1264
  137MOL0     O18396   8.314   2.277   8.460  0.8150 -0.0918  0.2648
  137MOL0     C18397   8.265   2.272   8.320 -0.1206 -0.0575  0.3882
  137MOL0     C18398   8.127   2.203   8.327  0.1154  0.0022  0.0151
  137MOL0     C18399   8.150   2.060   8.389  0.3240 -0.2443  0.6086
  137MOL0     C18400   8.036   1.965   8.340 -1.1513  0.7618 -0.7570
  137MOL0     C18401   8.067   1.905   8.208  0.5194 -0.5992 -0.8428
  137MOL0     C18402   8.184   1.801   8.201 -0.8396 -0.0966 -0.3761
  137MOL0     C18403   8.167   1.702   8.085  0.4433  0.3036 -0.2708
  137MOL0     C18404   8.285   1.613   8.068  0.4904 -0.7461 -0.1919
  137MOL0    Cl18405   8.254   1.492   7.940  0.2781 -0.6814 -0.4430
  137MOL0     C18406   8.515   2.269   8.590 -0.1541 -0.0502  0.0959
  137MOL0     C18407   8.636   2.314   8.636 -0.1551  0.5020 -0.6579
  137MOL0     O18408   8.765   2.619   8.752 -0.1307  0.2253 -0.5350
  137MOL0     C18409   9.080   2.518   8.645 -0.2560  0.0371 -0.8363
  137MOL0     C18410   9.220   2.542   8.659 -0.1373  0.1525  0.6830
  137MOL0     N18411   9.881   2.416   8.773  0.7587  0.0853 -0.9799
  137MOL0     N18412   9.915   2.342   8.675 -0.1138  0.4790  0.6214
  137MOL0     C18413  10.926   2.527   8.086  0.5824 -0.2390 -0.6818
  137MOL0     C18414  11.064   2.514   8.091 -0.0418 -0.2562 -0.1938
  137MOL0     C18415  11.497   2.363   8.005 -0.3990 -0.1245 -0.3967
  137MOL0     C18416  11.559   2.468   7.925 -0.6436 -0.1351 -0.3070
  137MOL0     C18417  11.696   2.501   7.943 -0.1257 -0.0009  0.2637
  137MOL0     C18418  11.780   2.423   8.023 -0.8827  0.1643 -0.1933
  137MOL0     O18419  11.909   2.473   8.044  0.4675  0.6746  0.1476
  137MOL0     C18420  11.986   2.521   7.933 -0.0140  0.6446  0.5519
  137MOL0     C18421  12.136   2.490   7.942 -0.3481  0.2731  0.2834
  137MOL0     C18422  12.199   2.554   8.073  0.4617 -0.2416  0.2612
  137MOL0     C18423  12.353   2.511   8.081  0.2257  0.3391 -0.4028
  137MOL0     C18424  12.439   2.584   7.984 -0.4875  0.7188  0.5752
  137MOL0     C18425  12.513   2.640   7.909  0.2646  0.5833  0.7464
  137MOL0     C18426  11.714   2.325   8.104 -0.3021 -0.1708 -0.7007
  137MOL0     C18427  11.580   2.296   8.098  0.6217  0.4145 -0.2625
  137MOL0     H18428  11.107   2.316   7.809 -1.4324  1.0292 -1.9244
  137MOL0     H18429  10.869   2.347   7.797  1.3122 -0.9759  0.1935
  137MOL0     H18430  10.623   2.346   7.845 -0.7975 -0.2945  0.4425
  137MOL0     H18431  10.673   2.275   7.993  3.6056  1.3109 -0.3255
  137MOL0     H18432  10.419   2.446   7.938 -1.4269  0.0851  0.8249
  137MOL0     H18433  10.424   2.285   7.990  0.3880  0.6916 -0.9330
  137MOL0     H18434  10.557   2.383   8.203 -0.2778 -0.2100 -0.8374
  137MOL0     H18435  10.499   2.545   8.144 -0.2679 -0.1326 -2.3704
  137MOL0     H18436  10.357   2.299   8.243 -1.2715 -1.1682 -1.9144
  137MOL0     H18437  10.346   2.450   8.321 -2.4541  0.1377 -0.7467
  137MOL0     H18438  10.212   2.573   8.152 -1.5681 -0.0896  0.5182
  137MOL0     H18439  10.212   2.430   8.046  0.1374  1.7279 -0.6616
  137MOL0     H18440   9.994   2.440   8.166  0.8061  1.2854 -1.3381
  137MOL0     H18441  10.094   2.298   8.216 -2.4159  0.5596 -0.0121
  137MOL0     H18442  10.166   2.378   8.414  0.4415 -1.5055 -2.0269
  137MOL0     H18443  10.088   2.538   8.393  1.0088 -1.0780  1.4809
  137MOL0     H18444   9.955   2.254   8.433 -1.3217 -0.5028  0.2914
  137MOL0     H18445   9.867   2.388   8.366  1.4827  1.5768 -2.8448
  137MOL0     H18446   9.895   2.641   8.546 -0.4428 -0.1196  0.4508
  137MOL0     H18447   9.886   2.643   8.928  2.7080 -0.9653 -0.6789
  137MOL0     H18448   9.923   2.748   8.799 -0.3406  0.6091  1.1368
  137MOL0     H18449   9.665   2.706   8.718 -0.3276  3.1523  0.7140
  137MOL0     H18450   9.696   2.803   8.854 -2.0589  0.8686 -3.2641
  137MOL0     H18451   9.657   2.599   9.011  1.6641 -1.3898 -1.0470
  137MOL0     H18452   9.630   2.495   8.877  1.0593 -0.4029  0.3484
  137MOL0     H18453   9.457   2.728   8.949  0.2615 -0.1825 -0.7382
  137MOL0     H18454   9.424   2.563   8.992  1.3027 -0.5253 -0.4085
  137MOL0     H18455   9.229   2.697   8.957 -1.9276 -0.4518  1.5515
  137MOL0     H18456   8.896   2.612   9.016  0.6122 -1.0981 -1.4212
  137MOL0     H18457   9.018   2.750   9.032  0.9248  0.8816 -2.3633
  137MOL0     H18458   8.888   2.766   8.923 -2.2693  0.5257  3.5730
  137MOL0     H18459   8.682   2.562   8.432 -0.5093  0.4475  0.8271
  137MOL0     H18460   8.424   2.496   8.362  2.3512  3.2873  0.7848
  137MOL0     H18461   8.250   2.374   8.283 -2.3348 -0.5458 -0.1534
  137MOL0     H18462   8.328   2.215   8.251 -0.3676  0.3015 -0.1478
  137MOL0     H18463   8.067   2.261   8.398 -1.1784  0.7448 -1.6219
  137MOL0     H18464   8.080   2.203   8.229  0.5982  2.5249 -0.2903
  137MOL0     H18465   8.149   2.067   8.498 -2.0032 -2.3738  0.8259
  137MOL0     H18466   8.246   2.015   8.362  0.0372 -0.3857 -0.2179
  137MOL0     H18467   8.017   1.884   8.412 -1.2910 -0.9139 -2.5850
  137MOL0     H18468   7.942   2.017   8.323 -0.4603  1.4857 -2.5608
  137MOL0     H18469   8.092   1.978   8.130 -1.4015 -1.2865 -2.1813
  137MOL0     H18470   7.976   1.850   8.183  0.7608 -1.6308  0.4543
  137MOL0     H18471   8.271   1.866   8.195 -1.5556  1.1550  1.4922
  137MOL0     H18472   8.180   1.738   8.291  3.2386  0.0842  0.0843
  137MOL0     H18473   8.137   1.760   7.997  0.6076  2.2731  0.9255
  137MOL0     H18474   8.085   1.639   8.119  0.4766  1.0031  1.1558
  137MOL0     H18475   8.306   1.569   8.166 -0.2959  2.6431  1.6741
  137MOL0     H18476   8.378   1.665   8.039  0.6901 -0.0769  1.5305
  137MOL0     H18477   8.468   2.181   8.632 -0.9645 -0.5793 -1.8135
  137MOL0     H18478   8.676   2.264   8.724  1.8674  0.5794 -1.4734
  137MOL0     H18479   9.042   2.467   8.558  1.1130 -0.0809 -1.3843
  137MOL0     H18480   9.275   2.511   8.570  0.6662 -0.4573  1.3813
  137MOL0     H18481  10.878   2.595   8.156  1.1288  1.5105 -1.9348
  137MOL0     H18482  11.116   2.572   8.167  0.2149 -0.5596 -0.1357
  137MOL0     H18483  11.513   2.520   7.842 -0.0931  2.1611  0.7119
  137MOL0     H18484  11.742   2.577   7.880 -2.5297 -1.5504 -3.7156
  137MOL0     H18485  11.949   2.474   7.842  1.0869  1.3507 -0.2909
  137MOL0     H18486  11.972   2.630   7.927  0.5224  0.6756 -0.2964
  137MOL0     H18487  12.180   2.522   7.848  1.1485 -1.4215  0.3637
  137MOL0     H18488  12.153   2.382   7.947  2.0313  0.5610 -0.5112
  137MOL0     H18489  12.166   2.523   8.173  2.3752 -1.1633  0.6542
  137MOL0     H18490  12.198   2.663   8.081  4.6733 -0.0498  0.4936
  137MOL0     H18491  12.365   2.405   8.058 -0.4542  0.2892 -0.5409
  137MOL0     H18492  12.381   2.519   8.187  0.7590  0.6850 -0.5681
  137MOL0     H18493  12.592   2.689   7.855  0.0401  0.3000  0.1530
  137MOL0     H18494  11.775   2.273   8.177 -0.2725 -1.9099 -1.9135
  137MOL0     H18495  11.543   2.222   8.167  2.3201  0.1612  0.4367
  138MOL0     O18496   4.205   3.902   3.373 -0.3338 -0.7241  0.3806
  138MOL0     C18497   4.211   3.926   3.493 -0.7815 -0.2897 -0.0999
  138MOL0     O18498   4.123   3.899   3.587  0.7341  0.7308 -0.3841
  138MOL0     C18499   3.993   3.843   3.559 -0.2999  0.6305 -1.2084
  138MOL0     C18500   3.924   3.817   3.438 -0.3609  0.6851  0.4246
  138MOL0     C18501   3.799   3.762   3.435 -0.4339  0.2336  0.6884
  138MOL0     C18502   3.736   3.736   3.553  0.8494  0.6597  0.4304
  138MOL0     O18503   3.605   3.685   3.560  0.8096 -0.0593  0.3762
  138MOL0     C18504   3.521   3.689   3.441 -0.3730  0.7968 -0.1092
  138MOL0     C18505   3.391   3.623   3.483  0.1408 -0.4769 -0.3667
  138MOL0     C18506   3.321   3.687   3.596 -0.3680  1.1701  0.5428
  138MOL0     C18507   3.236   3.586   3.677 -0.2055 -0.5297 -0.9472
  138MOL0     C18508   3.139   3.649   3.769 -0.1200  0.1212  0.6495
  138MOL0     C18509   3.043   3.548   3.827 -0.3405  1.0621 -0.6587
  138MOL0     C18510   2.967   3.616   3.941 -0.0094 -0.0113 -0.3817
  138MOL0     C18511   2.845   3.531   3.982 -0.8493 -0.0448 -0.2887
  138MOL0     N18512   2.721   3.544   3.903 -0.3121  0.3410  0.6339
  138MOL0     C18513   2.590   3.569   3.948  0.6723 -0.6224 -0.5107
  138MOL0     C18514   2.514   3.568   3.841  0.0044 -0.8961 -0.7816
  138MOL0     C18515   2.363   3.594   3.837  0.2915 -0.5731  1.1481
  138MOL0     C18516   2.295   3.513   3.950  0.2728  0.9738  0.7317
  138MOL0     C18517   2.329   3.362   3.970  0.4940 -0.3261  0.1246
  138MOL0     C18518   2.249   3.317   4.098  0.0154  0.1608  0.3595
  138MOL0     O18519   2.109   3.348   4.080 -0.0708  0.1713  0.7089
  138MOL0     C18520   2.018   3.277   4.154 -0.2114  0.5998  0.4083
  138MOL0     C18521   1.890   3.270   4.107  0.8055 -0.1754  0.6298
  138MOL0     C18522   1.788   3.198   4.179  0.1570 -0.6775 -0.8866
  138MOL0     C18523   1.654   3.194   4.106 -0.1829 -0.8297  0.1957
  138MOL0     C18524   1.825   3.120   4.287  0.1252 -0.0507 -0.5308
  138MOL0     C18525   1.729   3.049   4.366  0.6403 -0.2530 -0.2607
  138MOL0     O18526   1.594   3.081   4.348  0.1644  0.0758 -0.3755
  138MOL0     C18527   1.503   3.017   4.430  0.3303 -0.4921  0.7294
  138MOL0     C18528   1.442   3.094   4.524  0.6134 -0.1703  0.4442
  138MOL0     C18529   1.363   3.025   4.611  1.6487  0.2316  0.2949
  138MOL0     C18530   1.328   2.883   4.592  0.0205 -0.4798 -0.0615
  138MOL0     O18531   1.238   2.819   4.679 -0.0845 -0.2943 -0.1634
  138MOL0     C18532   1.266   2.695   4.743  0.4503  0.4106  0.5163
  138MOL0     C18533   1.155   2.600   4.696 -0.3766  0.1635  0.6296
  138MOL0     C18534   1.183   2.454   4.742  0.8305 -0.0709 -0.3218
  138MOL0     C18535   1.155   2.349   4.630 -0.0356  0.6356 -0.5364
  138MOL0     C18536   1.132   2.208   4.677  0.4211 -0.6100  0.5086
  138MOL0     C18537   0.988   2.174   4.712 -0.1583 -0.3255  0.6412
  138MOL0     C18538   0.968   2.023   4.742 -0.4757 -0.8005  0.3799
  138MOL0     C18539   0.820   1.994   4.788  0.0559 -1.0185 -0.0464
  138MOL0    Cl18540   0.779   2.062   4.954 -0.3595  0.2024 -0.1457
  138MOL0     C18541   1.387   2.812   4.490  0.2189  0.3982  0.1118
  138MOL0     C18542   1.466   2.887   4.401 -1.1444  0.4145 -0.2090
  138MOL0     O18543   1.769   2.972   4.455  0.0761 -0.0122  0.5089
  138MOL0     C18544   1.957   3.132   4.330 -0.0206 -1.3261  0.3813
  138MOL0     C18545   2.047   3.213   4.268 -0.7564  0.0576  0.1150
  138MOL0     N18546   2.597   3.558   3.732 -0.0914  0.2325 -0.3579
  138MOL0     N18547   2.717   3.554   3.769  0.6639  0.3175  0.2480
  138MOL0     C18548   3.793   3.753   3.674  0.0853 -0.1439  0.1881
  138MOL0     C18549   3.929   3.804   3.675  0.4840  0.4482 -0.7281
  138MOL0     C18550   4.339   3.992   3.534  0.2061  0.3705 -0.6434
  138MOL0     C18551   4.353   4.058   3.661 -0.0812 -0.0397  0.1016
  138MOL0     C18552   4.464   4.132   3.703  0.4172 -0.5121  0.9130
  138MOL0     C18553   4.582   4.127   3.621  0.1473  0.5305 -0.0272
  138MOL0     O18554   4.698   4.192   3.646  1.0318  0.4949 -0.2478
  138MOL0     C18555   4.710   4.262   3.766  1.0396 -0.1844 -0.7770
  138MOL0     C18556   4.853   4.319   3.765 -0.0768  0.0666 -0.2083
  138MOL0     C18557   4.880   4.398   3.636 -0.1128 -0.9069 -0.6570
  138MOL0     C18558   5.001   4.499   3.674  0.2275  0.4858 -0.5411
  138MOL0     C18559   5.140   4.449   3.685 -0.2055  0.8235  0.4662
  138MOL0     C18560   5.242   4.389   3.712 -0.3945  0.3525  0.8263
  138MOL0     C18561   4.580   4.048   3.509  0.9455 -0.7271  0.5647
  138MOL0     C18562   4.455   3.996   3.455  1.2844 -0.4610 -0.3453
  138MOL0     H18563   3.964   3.833   3.339 -1.4378  0.6353 -0.0329
  138MOL0     H18564   3.750   3.755   3.338  2.3634 -1.5499 -0.7255
  138MOL0     H18565   3.499   3.791   3.407  1.2195  1.4321  0.7053
  138MOL0     H18566   3.557   3.623   3.362  1.6203 -0.8764  2.0711
  138MOL0     H18567   3.324   3.625   3.397 -0.8251  3.6950  0.2463
  138MOL0     H18568   3.403   3.515   3.495  0.0324 -0.8837 -3.1815
  138MOL0     H18569   3.397   3.737   3.657  2.3378  0.5324 -2.0735
  138MOL0     H18570   3.253   3.756   3.545  0.3465 -0.8862 -3.5906
  138MOL0     H18571   3.190   3.521   3.602  1.9692 -4.4093  0.7362
  138MOL0     H18572   3.309   3.534   3.740  1.2589  2.4738  0.0325
  138MOL0     H18573   3.185   3.712   3.845  0.8173  0.0518  0.1570
  138MOL0     H18574   3.079   3.726   3.719  1.1519  0.5216 -0.3183
  138MOL0     H18575   2.969   3.514   3.754  0.0012  0.4063 -0.7042
  138MOL0     H18576   3.095   3.457   3.859  0.2044  0.2979 -3.4380
  138MOL0     H18577   3.033   3.637   4.026 -1.5784  2.1787  0.3767
  138MOL0     H18578   2.926   3.711   3.905  0.6899 -0.0180 -1.2077
  138MOL0     H18579   2.819   3.574   4.079 -0.0891 -0.9009  0.3190
  138MOL0     H18580   2.870   3.425   3.995 -1.7553 -0.1634  0.6251
  138MOL0     H18581   2.573   3.589   4.053  0.9813 -1.8045 -0.2269
  138MOL0     H18582   2.342   3.701   3.851 -1.3243 -0.9312  1.6460
  138MOL0     H18583   2.332   3.554   3.739 -1.9254 -1.2597  2.0585
  138MOL0     H18584   2.187   3.527   3.937  0.2359  0.5912  0.6184
  138MOL0     H18585   2.331   3.564   4.040 -3.2757  1.7411  1.9051
  138MOL0     H18586   2.437   3.347   3.977  0.7282 -1.7271 -4.0042
  138MOL0     H18587   2.299   3.306   3.881  1.7812 -0.3026 -0.3462
  138MOL0     H18588   2.303   3.375   4.173  0.9337  0.4437 -0.4887
  138MOL0     H18589   2.263   3.210   4.112 -0.3271  0.3331  2.1242
  138MOL0     H18590   1.862   3.319   4.015  2.1415 -3.1893 -1.5404
  138MOL0     H18591   1.643   3.251   4.014 -2.4638 -2.2011 -0.4734
  138MOL0     H18592   1.630   3.091   4.078 -0.7072  0.0533 -2.9953
  138MOL0     H18593   1.569   3.229   4.166 -0.6961 -1.0764 -0.3721
  138MOL0     H18594   1.464   3.200   4.537  2.3487 -0.6942  2.2801
  138MOL0     H18595   1.332   3.072   4.704  2.2378 -3.6417  2.6699
  138MOL0     H18596   1.361   2.655   4.706 -0.7313 -1.0972 -1.0758
  138MOL0     H18597   1.252   2.690   4.851 -2.2294 -3.7485  0.1923
  138MOL0     H18598   1.064   2.634   4.745 -0.4273 -0.5114  1.0206
  138MOL0     H18599   1.138   2.594   4.588  1.9926 -0.1960  0.1992
  138MOL0     H18600   1.112   2.422   4.819  0.0561 -1.7866 -1.6721
  138MOL0     H18601   1.289   2.440   4.763  0.5608 -0.9955  0.5070
  138MOL0     H18602   1.065   2.382   4.577  1.2328  1.7759 -2.0696
  138MOL0     H18603   1.241   2.344   4.563  0.2004 -3.7968 -0.2072
  138MOL0     H18604   1.204   2.196   4.758  0.3597  1.7088  0.9599
  138MOL0     H18605   1.150   2.143   4.590 -0.0836  0.1735 -0.1940
  138MOL0     H18606   0.955   2.240   4.794  2.1512  1.4894  0.2129
  138MOL0     H18607   0.937   2.207   4.621  0.0444  0.0604  0.6660
  138MOL0     H18608   1.037   1.983   4.818 -2.3204 -1.9963  1.4880
  138MOL0     H18609   1.004   1.963   4.658 -2.1897 -1.1337 -0.1375
  138MOL0     H18610   0.809   1.885   4.787  1.3833 -1.1702 -1.7812
  138MOL0     H18611   0.757   2.038   4.710  3.5595  5.3397  0.0036
  138MOL0     H18612   1.373   2.708   4.460 -2.3658 -0.1275  2.7128
  138MOL0     H18613   1.519   2.847   4.315 -1.7617 -1.6157  0.3065
  138MOL0     H18614   1.995   3.085   4.420  1.0212 -0.0097  0.6624
  138MOL0     H18615   2.136   3.238   4.325 -0.4025 -0.8970  0.0087
  138MOL0     H18616   3.735   3.731   3.763  0.9227  1.9683  1.3337
  138MOL0     H18617   3.970   3.807   3.776  0.9007 -4.3204 -0.5355
  138MOL0     H18618   4.266   4.068   3.726 -1.6932  0.4050 -1.9953
  138MOL0     H18619   4.454   4.185   3.797  0.1092  1.5795 -0.2372
  138MOL0     H18620   4.642   4.347   3.767  1.0799 -0.1300 -1.6454
  138MOL0     H18621   4.694   4.198   3.853  3.0523  0.9013  0.4685
  138MOL0     H18622   4.931   4.243   3.760  1.3635  1.4190  0.7497
  138MOL0     H18623   4.877   4.373   3.857 -0.4077  0.0584 -0.1168
  138MOL0     H18624   4.802   4.471   3.609  0.8846  0.2718 -0.4312
  138MOL0     H18625   4.899   4.332   3.551 -0.1483 -2.2402  0.3410
  138MOL0     H18626   4.973   4.535   3.773  0.8801 -1.3690  0.3591
  138MOL0     H18627   5.011   4.580   3.600  1.1117  0.6988 -0.2011
  138MOL0     H18628   5.333   4.332   3.710 -0.3101  0.4662 -1.3899
  138MOL0     H18629   4.669   4.044   3.447 -0.5157  0.4710 -1.7553
  138MOL0     H18630   4.451   3.944   3.360 -2.9275 -1.6943  0.3225
  139MOL0     O18631  10.670   8.905   4.149  0.7932 -0.4292 -0.5906
  139MOL0     C18632  10.655   8.827   4.247 -0.0304  0.7078  0.0669
  139MOL0     O18633  10.580   8.713   4.250  0.0707 -0.2631  0.4713
  139MOL0     C18634  10.550   8.658   4.125  0.7973  0.5549  0.5188
  139MOL0     C18635  10.423   8.660   4.081 -0.0803 -0.5427 -0.2815
  139MOL0     C18636  10.382   8.593   3.966 -0.6348  0.4764  0.7988
  139MOL0     C18637  10.478   8.529   3.882 -0.3610 -0.2876 -0.7511
  139MOL0     O18638  10.429   8.463   3.776 -0.0499 -0.9436  0.0851
  139MOL0     C18639  10.498   8.350   3.728 -0.0023 -0.1306 -0.2174
  139MOL0     C18640  10.462   8.227   3.804  0.7970  0.3512 -0.2453
  139MOL0     C18641  10.309   8.199   3.803  1.1317 -0.7762 -0.1972
  139MOL0     C18642  10.283   8.070   3.885  0.5560  0.1130 -0.6332
  139MOL0     C18643  10.135   8.022   3.866  0.0340  0.3540 -0.8541
  139MOL0     C18644  10.111   7.867   3.882 -0.4866 -0.5074 -0.2830
  139MOL0     C18645   9.970   7.834   3.906  0.2903  0.0380  0.3409
  139MOL0     C18646   9.901   7.777   3.780 -0.7684  0.3030 -0.2674
  139MOL0     N18647   9.766   7.823   3.749 -0.4388  0.2044 -0.3771
  139MOL0     C18648   9.653   7.781   3.804 -0.3313  0.6324 -0.3370
  139MOL0     C18649   9.565   7.881   3.789  0.0731  0.4029  0.7377
  139MOL0     C18650   9.443   7.892   3.869 -0.3306  0.8214  0.0562
  139MOL0     C18651   9.327   7.823   3.804 -0.5856  1.0428  0.2902
  139MOL0     C18652   9.346   7.675   3.828  0.4719  0.1574  0.4327
  139MOL0     C18653   9.229   7.595   3.771 -0.4938  0.1044 -0.7810
  139MOL0     O18654   9.177   7.648   3.648 -0.1126 -0.9840 -0.9313
  139MOL0     C18655   9.051   7.648   3.610  0.7065  0.3402 -0.0509
  139MOL0     C18656   9.015   7.712   3.490  0.9911 -0.0402 -0.0130
  139MOL0     C18657   8.880   7.711   3.441  0.2344 -0.7893  0.5273
  139MOL0     C18658   8.837   7.778   3.319  0.4560 -0.4566 -0.4460
  139MOL0     C18659   8.786   7.648   3.519  1.0339 -0.7773 -1.3020
  139MOL0     C18660   8.644   7.640   3.486 -0.6557  0.0615  0.8659
  139MOL0     O18661   8.565   7.737   3.538  0.8287  0.0921  0.0367
  139MOL0     C18662   8.433   7.765   3.501  0.5937  0.0307 -0.5098
  139MOL0     C18663   8.377   7.877   3.562 -0.0319 -1.0288 -0.1440
  139MOL0     C18664   8.246   7.912   3.545 -0.0530 -0.9731  0.2388
  139MOL0     C18665   8.167   7.834   3.470 -0.3697  0.7332 -0.2908
  139MOL0     O18666   8.039   7.863   3.436 -0.4840  0.0611  0.4073
  139MOL0     C18667   7.954   7.888   3.542 -0.2037  0.2764  0.0653
  139MOL0     C18668   7.801   7.870   3.502 -0.2878  0.8181  0.5462
  139MOL0     C18669   7.763   7.728   3.448 -0.7077 -0.0693 -0.2472
  139MOL0     C18670   7.643   7.743   3.353 -0.5259 -0.5566  0.0737
  139MOL0     C18671   7.621   7.619   3.270  0.0451 -0.9216  0.5377
  139MOL0     C18672   7.581   7.493   3.345 -0.3174 -0.5267  0.0429
  139MOL0     C18673   7.469   7.523   3.447  1.0627 -0.2389  0.6015
  139MOL0     C18674   7.429   7.375   3.497  0.3366 -0.6517  0.2021
  139MOL0    Cl18675   7.302   7.391   3.619 -0.2078  0.0700  0.0367
  139MOL0     C18676   8.215   7.721   3.410 -0.3239  0.7960  0.1840
  139MOL0     C18677   8.347   7.681   3.430  1.0942 -0.2469  0.0160
  139MOL0     O18678   8.617   7.546   3.410 -0.7773  0.7786  0.4397
  139MOL0     C18679   8.817   7.581   3.643 -0.7948  0.0473  0.4133
  139MOL0     C18680   8.948   7.585   3.689 -0.6166  0.3429  0.3451
  139MOL0     N18681   9.625   7.987   3.718  0.2827  0.2308 -0.5978
  139MOL0     N18682   9.747   7.947   3.696  0.5796  0.8102 -0.2756
  139MOL0     C18683  10.614   8.540   3.920  0.4933  0.4291  0.4585
  139MOL0     C18684  10.652   8.610   4.034  0.5590  0.5482  0.0851
  139MOL0     C18685  10.724   8.870   4.371  0.4746  0.6857  0.0228
  139MOL0     C18686  10.698   8.799   4.491 -1.3595  0.5841  0.7770
  139MOL0     C18687  10.735   8.838   4.623  0.1268  0.4128  0.1545
  139MOL0     C18688  10.819   8.945   4.627  0.2564 -1.2317 -0.5737
  139MOL0     O18689  10.868   8.994   4.750  0.3408 -0.2104 -0.0436
  139MOL0     C18690  10.777   8.969   4.862  0.2544 -0.1268 -0.7761
  139MOL0     C18691  10.646   9.051   4.836 -0.0951  0.3327  0.6055
  139MOL0     C18692  10.549   9.037   4.954  0.4070 -0.1584  0.6367
  139MOL0     C18693  10.405   9.066   4.929  0.3355  0.4291 -0.2433
  139MOL0     C18694  10.335   8.950   4.861  0.5675 -0.4586 -0.5656
  139MOL0     C18695  10.278   8.858   4.815 -0.0337  0.4452  0.1776
  139MOL0     C18696  10.866   9.009   4.517 -0.3077  0.1040  0.2098
  139MOL0     C18697  10.808   8.978   4.390  0.0511 -0.8546  0.0784
  139MOL0     H18698  10.341   8.698   4.142 -1.5298 -2.5588 -0.8614
  139MOL0     H18699  10.273   8.587   3.959 -0.7984  3.7372 -2.7325
  139MOL0     H18700  10.455   8.340   3.628 -3.0681  1.3660  0.8249
  139MOL0     H18701  10.607   8.355   3.734 -0.0240 -1.0053  1.6438
  139MOL0     H18702  10.511   8.141   3.756 -1.7845 -0.7756 -1.0412
  139MOL0     H18703  10.502   8.221   3.906 -0.9630  0.4596  0.4895
  139MOL0     H18704  10.250   8.284   3.840 -1.0701 -2.1603 -0.3159
  139MOL0     H18705  10.278   8.180   3.700 -1.8564 -1.4613  0.7278
  139MOL0     H18706  10.350   7.989   3.854  1.2676  0.8644 -1.0819
  139MOL0     H18707  10.313   8.084   3.989  0.0028  2.2968 -0.7203
  139MOL0     H18708  10.087   8.073   3.950  0.4955  0.5039 -0.6791
  139MOL0     H18709  10.095   8.046   3.768  0.5527 -2.4196 -1.8479
  139MOL0     H18710  10.154   7.812   3.797 -0.2496 -0.9019  0.0818
  139MOL0     H18711  10.167   7.841   3.972  0.1042 -1.9412 -1.0319
  139MOL0     H18712   9.950   7.754   3.978 -1.1092  0.9357  0.9886
  139MOL0     H18713   9.919   7.920   3.951 -0.2706  2.0635 -3.6560
  139MOL0     H18714   9.907   7.667   3.780 -1.7091  0.0706 -4.8153
  139MOL0     H18715   9.960   7.807   3.694 -0.4018  0.5902  0.0810
  139MOL0     H18716   9.660   7.688   3.860  4.3234  1.1061  0.3313
  139MOL0     H18717   9.455   7.856   3.972 -0.7709  1.8535  0.4868
  139MOL0     H18718   9.418   7.997   3.888  2.5023  1.3793  1.2570
  139MOL0     H18719   9.323   7.852   3.699  0.2235  1.3333  0.3293
  139MOL0     H18720   9.233   7.853   3.850 -1.2276 -2.5042  1.6316
  139MOL0     H18721   9.349   7.659   3.936 -2.2977 -4.0461  0.1005
  139MOL0     H18722   9.440   7.637   3.786  1.1819 -0.1591  2.2135
  139MOL0     H18723   9.155   7.584   3.850  1.2028 -1.4614  0.6853
  139MOL0     H18724   9.259   7.492   3.746  0.8365  0.1280  0.5456
  139MOL0     H18725   9.100   7.768   3.453  1.1135 -0.9884 -1.2514
  139MOL0     H18726   8.764   7.716   3.266 -1.1587  1.8734 -1.0999
  139MOL0     H18727   8.773   7.862   3.348 -3.1423 -1.7832 -3.6478
  139MOL0     H18728   8.916   7.808   3.249  1.4106  2.8013  1.7940
  139MOL0     H18729   8.438   7.953   3.610 -2.3601  2.3842 -2.1642
  139MOL0     H18730   8.220   8.009   3.587  1.4140 -1.0179  1.3051
  139MOL0     H18731   7.965   7.818   3.625 -1.0104  0.0266 -0.0293
  139MOL0     H18732   7.962   7.992   3.575  0.7708  1.0305 -2.3004
  139MOL0     H18733   7.736   7.890   3.588 -0.4508  0.6654  0.4584
  139MOL0     H18734   7.779   7.940   3.420 -1.5676 -0.4649 -0.2544
  139MOL0     H18735   7.752   7.652   3.526  0.9199 -1.5557 -1.3756
  139MOL0     H18736   7.846   7.682   3.393 -0.9597  0.1003 -0.7769
  139MOL0     H18737   7.556   7.761   3.415 -0.6825  2.1301 -0.8003
  139MOL0     H18738   7.652   7.829   3.286  0.4115 -0.4811  0.2857
  139MOL0     H18739   7.705   7.606   3.200 -0.1295  1.7557 -0.2715
  139MOL0     H18740   7.529   7.638   3.212  0.4707  0.4240  0.2670
  139MOL0     H18741   7.551   7.404   3.290  2.2002  0.2348 -2.7948
  139MOL0     H18742   7.666   7.460   3.406  2.1495 -2.5003 -4.0620
  139MOL0     H18743   7.392   7.574   3.389  2.4280  1.5206  0.2686
  139MOL0     H18744   7.495   7.586   3.532 -2.1688  1.9100  0.1342
  139MOL0     H18745   7.522   7.328   3.529  0.7562  0.1029  0.1217
  139MOL0     H18746   7.395   7.317   3.410  3.2097 -2.6982  0.3128
  139MOL0     H18747   8.146   7.664   3.348  1.1275 -2.5008  1.4171
  139MOL0     H18748   8.377   7.581   3.401 -0.1747 -0.6442 -0.0026
  139MOL0     H18749   8.738   7.522   3.688 -2.8249  2.0624 -0.3107
  139MOL0     H18750   8.966   7.538   3.785  0.9955  1.5230  0.6585
  139MOL0     H18751  10.686   8.479   3.866 -2.3341 -1.7436 -1.1262
  139MOL0     H18752  10.756   8.605   4.066 -0.2482 -0.9557  2.7482
  139MOL0     H18753  10.644   8.705   4.484  0.7114 -0.7310  1.3940
  139MOL0     H18754  10.709   8.773   4.705  0.3687 -0.9417 -0.8109
  139MOL0     H18755  10.760   8.864   4.888 -1.2939  0.2963  0.0124
  139MOL0     H18756  10.833   9.006   4.949  3.5592  0.7315 -3.0676
  139MOL0     H18757  10.597   9.021   4.743  2.7617 -1.9960 -0.3135
  139MOL0     H18758  10.677   9.156   4.829  3.2100 -0.1770  4.1450
  139MOL0     H18759  10.581   9.104   5.033 -2.3798  2.2181 -0.0657
  139MOL0     H18760  10.549   8.936   4.996  3.0053 -1.3419 -1.8355
  139MOL0     H18761  10.398   9.161   4.873 -3.1046  0.7279  0.4522
  139MOL0     H18762  10.345   9.085   5.018 -0.0060 -1.1264 -0.1275
  139MOL0     H18763  10.205   8.785   4.787 -4.5484  3.7511  2.0012
  139MOL0     H18764  10.923   9.097   4.543 -1.4606  0.3754  1.9849
  139MOL0     H18765  10.837   9.029   4.298 -2.3789 -1.8600 -1.3503
  140MOL0     O18766   7.992   9.448  10.037 -0.0179  0.4267  0.2457
  140MOL0     C18767   8.098   9.421  10.088  0.1105  0.1619 -0.6218
  140MOL0     O18768   8.118   9.358  10.203  0.4890  0.4174 -0.0742
  140MOL0     C18769   8.016   9.299  10.278  0.1523  0.2014  0.1828
  140MOL0     C18770   7.886   9.349  10.290 -0.0672  0.2597  0.2947
  140MOL0     C18771   7.794   9.277  10.368  0.6760  0.8233  0.3038
  140MOL0     C18772   7.833   9.160  10.441  0.4921 -0.3131 -0.6867
  140MOL0     O18773   7.754   9.072  10.517 -0.2274  0.4378  0.1586
  140MOL0     C18774   7.607   9.084  10.507  0.6980 -0.4838  0.8177
  140MOL0     C18775   7.535   9.007  10.608  0.4744  0.2994 -1.0082
  140MOL0     C18776   7.559   9.045  10.758  0.7289 -0.2956  0.7401
  140MOL0     C18777   7.477   9.168  10.796 -0.2934  0.0060  0.4253
  140MOL0     C18778   7.534   9.243  10.910 -0.0506 -0.5294 -0.4999
  140MOL0     C18779   7.542   9.154  11.032  0.7952  0.3817  0.2042
  140MOL0     C18780   7.411   9.080  11.072 -0.6226  0.5139  0.4806
  140MOL0     C18781   7.439   8.987  11.195  0.9518  0.3818  0.4291
  140MOL0     N18782   7.319   8.910  11.242  0.2292 -0.1415 -0.1060
  140MOL0     C18783   7.228   8.954  11.335 -0.0089  0.2516 -0.0845
  140MOL0     C18784   7.136   8.853  11.355 -0.5605 -0.9682  0.6360
  140MOL0     C18785   7.017   8.861  11.448  1.0665 -0.3346  1.4389
  140MOL0     C18786   6.882   8.876  11.372 -0.3037 -0.4539  0.1908
  140MOL0     C18787   6.867   9.001  11.283 -0.0701  0.0754  0.0778
  140MOL0     C18788   6.728   9.048  11.255 -1.1499  0.5712 -0.0136
  140MOL0     O18789   6.645   8.941  11.216  0.6961 -0.0524  0.1681
  140MOL0     C18790   6.526   8.984  11.152 -0.5118 -0.0794 -0.2451
  140MOL0     C18791   6.443   9.092  11.183 -0.9584  0.3555  0.1996
  140MOL0     C18792   6.313   9.104  11.130  0.2823 -0.0790 -0.2156
  140MOL0     C18793   6.235   9.224  11.172 -0.2997 -0.1826  0.4406
  140MOL0     C18794   6.269   9.011  11.033 -0.8860  0.2619 -0.1677
  140MOL0     C18795   6.128   9.008  10.975  0.1087  0.5652 -0.3568
  140MOL0     O18796   6.038   9.090  11.037  0.7506  0.4649 -0.5924
  140MOL0     C18797   5.910   9.107  10.990 -0.6720 -0.6751 -0.5284
  140MOL0     C18798   5.851   9.082  10.863 -0.7372 -0.8967  1.1759
  140MOL0     C18799   5.710   9.113  10.841  0.2633 -0.3670 -0.4898
  140MOL0     C18800   5.633   9.173  10.935 -0.1482 -0.9272 -0.6804
  140MOL0     O18801   5.507   9.218  10.905 -0.0053 -0.3057 -0.5858
  140MOL0     C18802   5.398   9.226  11.010 -1.5532 -0.4675  0.6248
  140MOL0     C18803   5.268   9.264  10.944  0.2898  0.1761 -0.9383
  140MOL0     C18804   5.237   9.408  10.971  1.0994 -0.7148  0.0036
  140MOL0     C18805   5.121   9.476  10.887 -0.6124 -0.7098  0.2425
  140MOL0     C18806   5.155   9.481  10.742  0.9568  0.0291 -0.6313
  140MOL0     C18807   5.031   9.544  10.678 -0.3448  0.0599  0.0231
  140MOL0     C18808   5.053   9.543  10.528  0.3387  0.2479  0.6544
  140MOL0     C18809   4.945   9.601  10.444  0.4297 -0.3045 -0.1248
  140MOL0    Cl18810   4.787   9.547  10.500 -0.3035 -0.3414  0.2575
  140MOL0     C18811   5.691   9.204  11.064 -0.3342  0.3682 -0.1056
  140MOL0     C18812   5.827   9.175  11.090  0.0443  0.0642  0.1369
  140MOL0     O18813   6.097   8.927  10.888  0.1222  0.9266  0.0088
  140MOL0     C18814   6.356   8.906  11.002  0.0103  0.3822 -0.3611
  140MOL0     C18815   6.477   8.885  11.068 -0.0880 -0.6034 -1.0311
  140MOL0     N18816   7.175   8.751  11.281  0.4345  0.1272 -0.3724
  140MOL0     N18817   7.273   8.788  11.208 -0.3837  0.0259 -0.2254
  140MOL0     C18818   7.966   9.130  10.445  0.3792  0.4142 -0.0076
  140MOL0     C18819   8.063   9.196  10.364  0.0779  0.9597 -0.6853
  140MOL0     C18820   8.220   9.465  10.013 -0.2003 -0.1357 -0.0391
  140MOL0     C18821   8.201   9.522   9.888  0.0010  0.0598 -0.3570
  140MOL0     C18822   8.309   9.563   9.810 -0.5732 -0.4573  0.6001
  140MOL0     C18823   8.442   9.545   9.868 -0.0321 -0.3616 -0.1488
  140MOL0     O18824   8.562   9.577   9.811  0.3459 -0.1416 -0.3568
  140MOL0     C18825   8.557   9.627   9.672 -1.0709  0.4248  0.4616
  140MOL0     C18826   8.705   9.629   9.615  0.2804 -0.3245 -0.8594
  140MOL0     C18827   8.700   9.666   9.467  0.4769  0.0842 -0.1947
  140MOL0     C18828   8.828   9.701   9.402 -0.5975  0.6057 -0.0312
  140MOL0     C18829   8.913   9.587   9.401 -0.1092 -1.3453 -0.0132
  140MOL0     C18830   8.976   9.487   9.391 -0.1486  0.0590  0.8374
  140MOL0     C18831   8.455   9.498   9.999  0.1838 -0.0024  0.2967
  140MOL0     C18832   8.343   9.450  10.073 -0.1486 -0.0904 -0.2224
  140MOL0     H18833   7.869   9.441  10.235  2.9891  0.8681  0.2271
  140MOL0     H18834   7.696   9.319  10.386  0.9236  1.4300  0.2533
  140MOL0     H18835   7.580   9.188  10.523 -1.1364 -1.0734  1.8945
  140MOL0     H18836   7.566   9.053  10.410 -0.1933 -0.6592  1.2406
  140MOL0     H18837   7.430   9.028  10.585  0.3682  0.5375 -0.3422
  140MOL0     H18838   7.554   8.899  10.602  2.2539  0.6495 -2.5644
  140MOL0     H18839   7.517   8.959  10.811 -1.2552 -0.9928 -1.7633
  140MOL0     H18840   7.665   9.067  10.777  1.1470  0.5970 -2.1936
  140MOL0     H18841   7.481   9.232  10.708  0.6888 -1.7941 -0.9059
  140MOL0     H18842   7.372   9.136  10.807 -1.2100  1.7054 -2.4682
  140MOL0     H18843   7.635   9.274  10.881  0.2211 -1.1320 -0.2210
  140MOL0     H18844   7.470   9.331  10.911 -0.4631 -0.8287 -0.2275
  140MOL0     H18845   7.620   9.078  11.023  2.1813  1.4079  2.6085
  140MOL0     H18846   7.586   9.217  11.110  4.5439 -0.4749 -0.9861
  140MOL0     H18847   7.324   9.145  11.087  0.1799  1.6597  0.2301
  140MOL0     H18848   7.384   9.009  10.993 -0.1799 -1.9174  2.3747
  140MOL0     H18849   7.469   9.045  11.283  4.2397 -1.2250  0.5412
  140MOL0     H18850   7.520   8.915  11.176  0.4289 -0.5243  1.5179
  140MOL0     H18851   7.217   9.048  11.389 -1.2081 -0.0197  0.1767
  140MOL0     H18852   7.024   8.776  11.517 -4.0828 -0.3620  2.2896
  140MOL0     H18853   7.031   8.948  11.513 -0.7855  0.6573  0.5834
  140MOL0     H18854   6.805   8.887  11.450 -0.6170  1.8802 -0.3886
  140MOL0     H18855   6.862   8.784  11.317 -2.0738  0.5619 -0.9577
  140MOL0     H18856   6.913   8.977  11.186  1.2867  0.0401  0.7065
  140MOL0     H18857   6.937   9.079  11.314 -0.5390  0.4790  0.1209
  140MOL0     H18858   6.721   9.136  11.189  1.3072  1.1578  0.4076
  140MOL0     H18859   6.695   9.078  11.355  2.5376  0.1068  1.4892
  140MOL0     H18860   6.496   9.165  11.244 -0.1056 -0.0609 -0.0388
  140MOL0     H18861   6.304   9.291  11.224 -0.8484  3.0297 -2.5715
  140MOL0     H18862   6.213   9.286  11.085  3.8377  1.2478  0.1834
  140MOL0     H18863   6.147   9.205  11.234 -2.7327  0.5562 -2.5468
  140MOL0     H18864   5.907   9.034  10.783 -3.3409  1.1786 -2.2094
  140MOL0     H18865   5.671   9.098  10.741  1.2099  2.9175 -1.4748
  140MOL0     H18866   5.397   9.129  11.061 -3.1504 -0.9536 -0.2844
  140MOL0     H18867   5.418   9.299  11.089  1.7616  0.1392 -0.6183
  140MOL0     H18868   5.282   9.247  10.837  0.5457  1.4717 -1.1221
  140MOL0     H18869   5.195   9.201  10.997 -1.6663  1.1175 -2.3912
  140MOL0     H18870   5.327   9.469  10.956  0.0937  0.1739 -3.4583
  140MOL0     H18871   5.213   9.409  11.078  1.8733 -0.8154  0.1794
  140MOL0     H18872   5.027   9.423  10.908 -0.7125 -0.3440  0.7475
  140MOL0     H18873   5.105   9.583  10.906  1.1470  0.1579 -2.5943
  140MOL0     H18874   5.165   9.381  10.697  2.0287 -0.3191  0.3358
  140MOL0     H18875   5.247   9.535  10.719  1.7786 -1.7043 -1.6867
  140MOL0     H18876   4.946   9.483  10.710  0.1247 -2.3439 -2.8323
  140MOL0     H18877   5.016   9.646  10.713 -0.9711 -0.0451  0.0851
  140MOL0     H18878   5.047   9.440  10.492 -1.9611  0.8287 -0.8816
  140MOL0     H18879   5.153   9.586  10.517 -0.0325  1.8927  3.0606
  140MOL0     H18880   4.954   9.582  10.337  1.1590 -3.7297  0.4384
  140MOL0     H18881   4.946   9.708  10.468 -2.9509 -0.6897  2.6419
  140MOL0     H18882   5.631   9.257  11.138  0.0342  2.2663 -1.1162
  140MOL0     H18883   5.868   9.214  11.183  0.5056  1.3922 -0.5853
  140MOL0     H18884   6.325   8.825  10.936 -0.6701  1.6591 -1.6551
  140MOL0     H18885   6.545   8.800  11.067  0.6586 -0.0311 -2.4941
  140MOL0     H18886   8.001   9.043  10.498  1.2776  0.1641 -0.9621
  140MOL0     H18887   8.167   9.167  10.369  0.0808  1.0156 -0.3959
  140MOL0     H18888   8.098   9.523   9.854 -0.3197  0.1753  0.5896
  140MOL0     H18889   8.302   9.612   9.713  2.8703  3.1926  1.8728
  140MOL0     H18890   8.488   9.569   9.609 -0.6330  0.2722  0.1159
  140MOL0     H18891   8.519   9.729   9.667 -2.3601  0.0876  2.4222
  140MOL0     H18892   8.761   9.539   9.640  1.2901  1.0288  2.1840
  140MOL0     H18893   8.763   9.709   9.663 -0.5709 -1.2044  1.8158
  140MOL0     H18894   8.635   9.753   9.460  0.3703 -0.1352 -3.5242
  140MOL0     H18895   8.652   9.586   9.410 -1.4398 -0.0640  1.5189
  140MOL0     H18896   8.872   9.792   9.443 -2.0647  1.2990  0.0721
  140MOL0     H18897   8.815   9.723   9.296  1.8563 -0.3548 -0.5845
  140MOL0     H18898   9.034   9.397   9.383 -1.2539 -0.5722 -0.3688
  140MOL0     H18899   8.555   9.477  10.033  0.6758 -0.4837 -1.3249
  140MOL0     H18900   8.360   9.388  10.160  0.5569  1.0920  0.5079
  141MOL0     O18901   5.258   4.418   0.251 -0.5246  0.2492 -0.3452
  141MOL0     C18902   5.193   4.488   0.181 -0.0898 -1.1150  0.1103
  141MOL0     O18903   5.202   4.492   0.047 -0.5165 -0.3016 -0.2293
  141MOL0     C18904   5.291   4.420  -0.020 -0.2425  0.3659 -0.9325
  141MOL0     C18905   5.348   4.295   0.012 -0.5589 -0.7729 -0.2664
  141MOL0     C18906   5.434   4.226  -0.072  0.9264  0.1128  0.2328
  141MOL0     C18907   5.458   4.271  -0.198  0.2506  0.2473 -0.1733
  141MOL0     O18908   5.553   4.193  -0.269  0.7480  0.0638  0.1700
  141MOL0     C18909   5.536   4.188  -0.419  0.0920 -0.5047 -0.5791
  141MOL0     C18910   5.660   4.247  -0.484 -0.6887  0.1531  0.1616
  141MOL0     C18911   5.662   4.406  -0.472  0.3970 -0.2342 -0.4305
  141MOL0     C18912   5.575   4.475  -0.582  0.0223  0.4285 -0.9946
  141MOL0     C18913   5.563   4.620  -0.536  0.2532  0.8818 -0.1664
  141MOL0     C18914   5.446   4.679  -0.612 -0.0388  0.2403  0.0967
  141MOL0     C18915   5.460   4.677  -0.768  0.3428  0.7676 -0.0435
  141MOL0     C18916   5.377   4.774  -0.846 -0.3862 -0.6194  0.3568
  141MOL0     N18917   5.228   4.764  -0.820  0.1523 -0.3350  0.5599
  141MOL0     C18918   5.161   4.646  -0.822  0.2508  0.5610 -0.9746
  141MOL0     C18919   5.031   4.683  -0.787 -0.3841  0.6076  0.6998
  141MOL0     C18920   4.915   4.585  -0.763 -0.1861  0.7441  0.5614
  141MOL0     C18921   4.789   4.625  -0.833 -0.8470 -0.4143 -0.1538
  141MOL0     C18922   4.700   4.509  -0.871 -0.2112 -0.3224  0.7877
  141MOL0     C18923   4.665   4.420  -0.751  0.0013  0.9643 -0.6406
  141MOL0     O18924   4.626   4.496  -0.640 -0.5332  0.7545 -0.3056
  141MOL0     C18925   4.510   4.461  -0.575  0.4924 -0.4130  0.7015
  141MOL0     C18926   4.420   4.361  -0.596 -0.4360 -0.5593 -0.5830
  141MOL0     C18927   4.319   4.323  -0.504  0.4650  0.2553  0.0925
  141MOL0     C18928   4.232   4.199  -0.546  0.8867 -0.5481  0.6225
  141MOL0     C18929   4.304   4.398  -0.380  0.6259  0.1373  0.1001
  141MOL0     C18930   4.204   4.381  -0.283 -0.0374 -0.3425  1.0853
  141MOL0     O18931   4.231   4.429  -0.158  0.5015 -0.4645 -0.3031
  141MOL0     C18932   4.126   4.427  -0.066 -0.0881  1.2517  0.1453
  141MOL0     C18933   4.071   4.310  -0.011 -0.1960 -0.5516  0.1762
  141MOL0     C18934   3.980   4.309   0.102  0.1156  0.3534  0.8015
  141MOL0     C18935   3.922   4.437   0.138  0.1133  0.5741  0.2205
  141MOL0     O18936   3.814   4.442   0.225  0.0062  0.2031 -0.2003
  141MOL0     C18937   3.699   4.519   0.181 -0.0687  0.6446 -0.1529
  141MOL0     C18938   3.570   4.437   0.219 -0.3415  0.3352 -0.3632
  141MOL0     C18939   3.516   4.448   0.367 -0.1325  0.3457 -0.4587
  141MOL0     C18940   3.367   4.415   0.351  0.3140 -0.4586  0.4165
  141MOL0     C18941   3.313   4.400   0.493 -0.7096  0.8533  0.1232
  141MOL0     C18942   3.167   4.369   0.500 -0.5160  0.2772  0.7242
  141MOL0     C18943   3.137   4.373   0.654 -0.1908 -0.1184 -0.2979
  141MOL0     C18944   3.012   4.287   0.698 -0.3801  0.9657  0.0676
  141MOL0    Cl18945   2.878   4.345   0.602 -0.2326 -0.0712  0.4572
  141MOL0     C18946   3.976   4.552   0.076 -0.1296  0.3879  0.5078
  141MOL0     C18947   4.066   4.543  -0.024  0.2911 -0.1694 -0.6043
  141MOL0     O18948   4.107   4.308  -0.317  0.1535 -0.6530 -0.0094
  141MOL0     C18949   4.384   4.509  -0.371  0.4544 -0.0806 -0.5507
  141MOL0     C18950   4.492   4.533  -0.461  0.0151 -0.5598 -0.6242
  141MOL0     N18951   5.028   4.821  -0.781 -0.2178  0.3561 -0.3064
  141MOL0     N18952   5.144   4.865  -0.790 -0.2917 -0.5780  0.2337
  141MOL0     C18953   5.385   4.389  -0.239 -0.0137 -0.0247 -0.2674
  141MOL0     C18954   5.322   4.471  -0.138 -0.3262  0.6694  0.3860
  141MOL0     C18955   5.100   4.574   0.250  0.1689  0.1116  0.4707
  141MOL0     C18956   5.131   4.633   0.378 -0.2976 -0.1076  0.5741
  141MOL0     C18957   5.050   4.724   0.442 -0.9319 -0.2686  0.6772
  141MOL0     C18958   4.925   4.755   0.392  0.1529  0.5838  0.7643
  141MOL0     O18959   4.863   4.848   0.469  0.0528  0.2635  0.1669
  141MOL0     C18960   4.718   4.869   0.441  0.6838 -0.1050  0.2985
  141MOL0     C18961   4.647   4.942   0.560  0.0865  0.5662  1.0451
  141MOL0     C18962   4.572   4.833   0.638 -0.2548  0.2819  0.1320
  141MOL0     C18963   4.495   4.907   0.746  0.7506 -0.3059 -0.5818
  141MOL0     C18964   4.447   4.794   0.833  0.4842  0.0777 -0.8757
  141MOL0     C18965   4.403   4.708   0.910  0.1636  0.6951  0.5475
  141MOL0     C18966   4.884   4.694   0.272 -0.2076  1.3542 -0.6337
  141MOL0     C18967   4.972   4.606   0.197 -1.2459 -0.1643 -0.0067
  141MOL0     H18968   5.311   4.237   0.097 -0.4308 -6.2539 -3.4848
  141MOL0     H18969   5.492   4.139  -0.044  0.3417 -0.5318 -0.4961
  141MOL0     H18970   5.525   4.080  -0.437 -1.3919 -0.3496 -0.6731
  141MOL0     H18971   5.447   4.239  -0.455 -1.3847 -0.9526  2.1642
  141MOL0     H18972   5.753   4.203  -0.447 -1.7787 -0.3071  2.5491
  141MOL0     H18973   5.676   4.228  -0.591  0.4553  1.6896  0.0400
  141MOL0     H18974   5.615   4.431  -0.376 -0.2809 -2.7844  0.0017
  141MOL0     H18975   5.762   4.448  -0.474  0.1292  0.3869 -0.9966
  141MOL0     H18976   5.620   4.464  -0.682 -0.3931 -0.2821 -1.1101
  141MOL0     H18977   5.475   4.432  -0.587  0.7601 -1.5469  0.1774
  141MOL0     H18978   5.537   4.633  -0.431 -1.4963  0.6365 -0.5527
  141MOL0     H18979   5.657   4.673  -0.555  0.3469  1.8114  2.4696
  141MOL0     H18980   5.351   4.638  -0.576 -1.6904  2.2576 -1.6971
  141MOL0     H18981   5.443   4.786  -0.586  2.9857 -0.2170  2.9756
  141MOL0     H18982   5.565   4.694  -0.795  0.0647  1.2339 -0.8957
  141MOL0     H18983   5.423   4.582  -0.807 -4.4822  2.0719  0.6355
  141MOL0     H18984   5.397   4.744  -0.949 -0.5057 -2.4307  0.8235
  141MOL0     H18985   5.414   4.874  -0.824 -2.0876  0.7535 -2.4644
  141MOL0     H18986   5.207   4.548  -0.834  1.0125  0.9026 -0.8683
  141MOL0     H18987   4.945   4.491  -0.811  2.6642  1.4852  0.7519
  141MOL0     H18988   4.890   4.577  -0.657 -3.2480 -0.0566 -0.1037
  141MOL0     H18989   4.828   4.679  -0.920  0.8695  1.0312  1.4226
  141MOL0     H18990   4.732   4.698  -0.776  0.9063  0.8740  0.0487
  141MOL0     H18991   4.753   4.448  -0.945  1.1006 -2.0702  3.0350
  141MOL0     H18992   4.607   4.542  -0.919 -1.8114 -1.5807  2.8431
  141MOL0     H18993   4.749   4.352  -0.733  3.4265  4.6901 -1.1721
  141MOL0     H18994   4.583   4.355  -0.784 -0.1072  0.7019  0.1274
  141MOL0     H18995   4.433   4.294  -0.680  1.2923 -2.4913  1.1120
  141MOL0     H18996   4.227   4.121  -0.470 -0.4668 -1.3405 -0.2351
  141MOL0     H18997   4.127   4.221  -0.567  1.1893  0.8277  0.4672
  141MOL0     H18998   4.271   4.160  -0.640 -2.1024  1.3820 -1.6053
  141MOL0     H18999   4.111   4.217  -0.050 -2.1917 -1.7712  0.9097
  141MOL0     H19000   3.959   4.214   0.150  0.4162  1.3256  2.9574
  141MOL0     H19001   3.688   4.613   0.237 -2.7737  0.8948 -1.0034
  141MOL0     H19002   3.703   4.531   0.073 -0.9052  0.9269 -0.1563
  141MOL0     H19003   3.492   4.477   0.154 -1.5998  1.6617  1.8367
  141MOL0     H19004   3.590   4.333   0.189  2.6882  0.6859  0.0899
  141MOL0     H19005   3.529   4.547   0.410  1.8258  0.4867 -1.2669
  141MOL0     H19006   3.562   4.373   0.432 -0.0207  0.0771 -0.8440
  141MOL0     H19007   3.316   4.499   0.303  0.0929 -0.5456  0.4959
  141MOL0     H19008   3.346   4.326   0.291 -2.2405  0.7511 -0.6622
  141MOL0     H19009   3.324   4.495   0.546  3.9798 -0.7811  2.7260
  141MOL0     H19010   3.378   4.327   0.544 -1.8064 -0.6322 -0.5243
  141MOL0     H19011   3.110   4.441   0.440  0.1311 -1.0643 -1.6596
  141MOL0     H19012   3.143   4.275   0.449 -0.4132 -0.8281  2.6093
  141MOL0     H19013   3.117   4.473   0.694  1.3296 -0.4934  1.5133
  141MOL0     H19014   3.231   4.336   0.695  0.1496  0.2308 -0.7489
  141MOL0     H19015   2.991   4.288   0.805 -1.3092 -3.7664  0.1312
  141MOL0     H19016   3.029   4.180   0.683 -2.8879  0.5886 -0.5031
  141MOL0     H19017   3.947   4.651   0.111  1.0517  0.3127  1.8007
  141MOL0     H19018   4.103   4.636  -0.066 -0.9271  0.9120  0.5904
  141MOL0     H19019   4.384   4.581  -0.290 -0.0818 -3.7916  3.1155
  141MOL0     H19020   4.564   4.610  -0.437 -0.3939 -0.4612  0.3383
  141MOL0     H19021   5.396   4.428  -0.340 -2.9894  5.6459  1.1778
  141MOL0     H19022   5.287   4.570  -0.163 -2.9619  0.0559  1.2575
  141MOL0     H19023   5.223   4.600   0.426  0.2498 -0.5940 -0.7401
  141MOL0     H19024   5.091   4.761   0.536  3.3488  0.0961 -1.1235
  141MOL0     H19025   4.722   4.943   0.360  1.0355 -1.5773 -1.0673
  141MOL0     H19026   4.665   4.784   0.397  0.2535 -0.0884  0.7730
  141MOL0     H19027   4.579   5.022   0.529 -1.1682 -0.4778  0.9900
  141MOL0     H19028   4.733   4.988   0.609  0.5097 -1.4664  2.3673
  141MOL0     H19029   4.629   4.750   0.679  0.0456  0.0281 -0.7932
  141MOL0     H19030   4.504   4.781   0.570 -2.8989  1.4102  1.7026
  141MOL0     H19031   4.420   4.974   0.703  0.0231 -1.7138 -1.5953
  141MOL0     H19032   4.560   4.966   0.812  0.1116 -0.8694  0.5659
  141MOL0     H19033   4.350   4.640   0.973 -0.1578  1.6882  1.3662
  141MOL0     H19034   4.783   4.701   0.232  0.1163 -1.4419 -2.1431
  141MOL0     H19035   4.944   4.581   0.096 -1.1240  2.4226 -0.7595
  142MOL0     O19036   5.376   1.843   0.108 -0.0106  0.0628 -0.1589
  142MOL0     C19037   5.427   1.853   0.001 -0.0557 -1.0288  0.3184
  142MOL0     O19038   5.361   1.870  -0.120 -0.5352 -0.5316 -0.7509
  142MOL0     C19039   5.230   1.881  -0.126  0.1633 -0.2983 -0.6671
  142MOL0     C19040   5.166   1.972  -0.038 -0.1317  0.4611  1.3402
  142MOL0     C19041   5.024   1.966  -0.035  0.3495  0.7641  1.0483
  142MOL0     C19042   4.952   1.887  -0.123  0.3797  0.1209  1.5701
  142MOL0     O19043   4.813   1.907  -0.125  0.0878 -0.0229  1.1036
  142MOL0     C19044   4.736   1.836  -0.226  0.8298  0.4422  0.1035
  142MOL0     C19045   4.583   1.874  -0.228  0.4584  0.4005  0.1795
  142MOL0     C19046   4.511   1.854  -0.092 -0.3820  0.5365 -0.9415
  142MOL0     C19047   4.358   1.898  -0.091 -0.7222 -0.9093  0.4811
  142MOL0     C19048   4.283   1.840   0.023  0.9648 -0.3361  0.4003
  142MOL0     C19049   4.131   1.868   0.008  0.2691 -0.3597 -0.2706
  142MOL0     C19050   4.048   1.797   0.118 -0.2849 -0.4826  0.7517
  142MOL0     C19051   4.012   1.643   0.083 -0.0038  0.2538  0.1299
  142MOL0     N19052   3.907   1.585   0.164  0.0653 -0.6559  0.5414
  142MOL0     C19053   3.899   1.598   0.298 -0.2076 -0.3190 -0.3699
  142MOL0     C19054   3.783   1.540   0.337  0.3967 -0.4007  0.7622
  142MOL0     C19055   3.734   1.527   0.482  0.9578 -0.5327 -0.8109
  142MOL0     C19056   3.606   1.612   0.515 -0.3771  0.1002 -0.6837
  142MOL0     C19057   3.558   1.598   0.657 -0.2842 -0.6304  0.6349
  142MOL0     C19058   3.411   1.628   0.666 -0.9000 -0.9290  0.2931
  142MOL0     O19059   3.387   1.774   0.659 -0.0749 -0.2042  0.4785
  142MOL0     C19060   3.275   1.823   0.728  0.3469 -0.4651 -0.1825
  142MOL0     C19061   3.162   1.748   0.763  0.5625 -0.6824 -0.2508
  142MOL0     C19062   3.041   1.807   0.809 -0.8956 -0.1937  0.0018
  142MOL0     C19063   2.925   1.708   0.845 -0.0754 -0.0262 -0.2793
  142MOL0     C19064   3.034   1.951   0.822 -0.5565  0.3164  0.6868
  142MOL0     C19065   2.912   2.024   0.867 -0.0231 -1.1003  0.3836
  142MOL0     O19066   2.929   2.155   0.907  0.0477  0.4777  0.0346
  142MOL0     C19067   2.820   2.237   0.919  0.4616 -0.4060 -0.4922
  142MOL0     C19068   2.696   2.225   0.861 -0.6133  0.7654  0.8425
  142MOL0     C19069   2.597   2.316   0.887 -0.1280  0.8336  0.5762
  142MOL0     C19070   2.615   2.413   0.978 -0.2222 -0.0587 -0.5256
  142MOL0     O19071   2.510   2.493   1.002 -0.4183 -0.0756 -0.1705
  142MOL0     C19072   2.486   2.507   1.146  0.1584  0.0382  0.0874
  142MOL0     C19073   2.427   2.384   1.221  0.3625 -0.3593  0.3969
  142MOL0     C19074   2.275   2.365   1.197 -0.0132 -0.8005 -0.2364
  142MOL0     C19075   2.189   2.462   1.278  0.7823  0.3130  0.4927
  142MOL0     C19076   2.105   2.377   1.376  0.4560  0.6988  0.2177
  142MOL0     C19077   2.010   2.472   1.442  1.0197 -0.5546 -0.9967
  142MOL0     C19078   1.891   2.407   1.497  0.3338 -0.4690 -0.4894
  142MOL0     C19079   1.802   2.491   1.577  0.2790 -0.1418 -0.4768
  142MOL0    Cl19080   1.692   2.594   1.488 -0.0693 -0.5230 -0.4476
  142MOL0     C19081   2.737   2.419   1.046 -0.1977 -0.5980 -0.1715
  142MOL0     C19082   2.841   2.339   1.009  0.0133 -0.5485  0.4197
  142MOL0     O19083   2.808   1.963   0.878 -0.3712 -0.6089 -0.5789
  142MOL0     C19084   3.147   2.028   0.787  0.1915  0.3553  0.1896
  142MOL0     C19085   3.266   1.965   0.748 -0.1983 -0.8283  0.9067
  142MOL0     N19086   3.722   1.486   0.220 -0.6488 -0.1094 -0.5278
  142MOL0     N19087   3.802   1.516   0.113  0.4518  0.2937 -0.3961
  142MOL0     C19088   5.022   1.808  -0.218 -0.9557  0.4772  0.6650
  142MOL0     C19089   5.157   1.814  -0.222  0.8200  0.7075 -0.7086
  142MOL0     C19090   5.579   1.846   0.007  0.1392 -1.2876  0.0228
  142MOL0     C19091   5.658   1.852   0.119 -0.0496 -0.0641  0.3591
  142MOL0     C19092   5.796   1.852   0.119 -0.3293 -0.9573  0.4231
  142MOL0     C19093   5.872   1.826   0.009 -0.4189 -0.1581  0.4258
  142MOL0     O19094   6.010   1.839  -0.008 -0.3984 -0.5331  0.5010
  142MOL0     C19095   6.087   1.878   0.097 -0.2092 -0.9918 -0.5417
  142MOL0     C19096   6.231   1.798   0.083 -0.2841 -0.4519 -0.7257
  142MOL0     C19097   6.344   1.887   0.139 -0.3321  0.6035  0.3946
  142MOL0     C19098   6.482   1.829   0.118 -0.4950 -1.0843 -0.8548
  142MOL0     C19099   6.564   1.891   0.227  0.1309 -0.7761  0.0903
  142MOL0     C19100   6.640   1.941   0.305  0.0550 -0.1788 -0.2464
  142MOL0     C19101   5.797   1.795  -0.102  0.2477 -0.3560  0.2142
  142MOL0     C19102   5.661   1.808  -0.106  0.2195 -0.1557 -0.4434
  142MOL0     H19103   5.223   2.015   0.043  2.0952 -0.5074  0.3505
  142MOL0     H19104   4.969   2.026   0.037 -0.7301 -0.3215  1.1683
  142MOL0     H19105   4.775   1.854  -0.326  1.0035 -0.6521 -0.0362
  142MOL0     H19106   4.746   1.730  -0.204 -3.2706  0.1286  1.2508
  142MOL0     H19107   4.569   1.979  -0.254 -2.7645  0.4070  1.4343
  142MOL0     H19108   4.534   1.808  -0.300 -0.7057  1.7288 -0.3035
  142MOL0     H19109   4.520   1.751  -0.057 -0.8153  1.2036  1.3647
  142MOL0     H19110   4.562   1.915  -0.017 -2.5871  2.4837 -0.9034
  142MOL0     H19111   4.349   2.007  -0.088  1.2691 -0.7053  3.5875
  142MOL0     H19112   4.325   1.851  -0.184 -1.4940 -0.6385  0.6105
  142MOL0     H19113   4.288   1.730   0.024 -0.2714 -0.4394  2.8643
  142MOL0     H19114   4.322   1.875   0.119  2.1810  0.7429 -0.4420
  142MOL0     H19115   4.127   1.976   0.023  0.3378 -0.3731 -0.1555
  142MOL0     H19116   4.104   1.834  -0.093 -0.0764  1.2015 -0.7298
  142MOL0     H19117   4.111   1.806   0.207  0.3417  2.3479  0.1018
  142MOL0     H19118   3.955   1.853   0.117 -0.6510 -1.0744  1.1376
  142MOL0     H19119   4.100   1.579   0.094 -2.1073 -2.5896  2.0725
  142MOL0     H19120   3.978   1.637  -0.021 -3.3388  1.2558  1.0199
  142MOL0     H19121   3.977   1.632   0.365 -0.5771  1.4720 -0.7877
  142MOL0     H19122   3.722   1.420   0.499  1.2183 -0.2811  1.0865
  142MOL0     H19123   3.813   1.563   0.549 -3.5421  2.2126  3.7268
  142MOL0     H19124   3.523   1.582   0.450 -0.5410 -0.2481 -0.3213
  142MOL0     H19125   3.628   1.718   0.499 -1.5093  0.0665 -2.7722
  142MOL0     H19126   3.617   1.667   0.718  3.1507 -3.1193  0.4435
  142MOL0     H19127   3.584   1.502   0.702  1.0278 -0.8740 -0.5728
  142MOL0     H19128   3.384   1.593   0.766  1.1588  2.3996  2.2240
  142MOL0     H19129   3.355   1.570   0.592 -0.6119  0.0325 -0.7069
  142MOL0     H19130   3.171   1.640   0.769 -0.4409 -0.7039  3.3221
  142MOL0     H19131   2.844   1.737   0.778  1.0697  2.7483 -0.5942
  142MOL0     H19132   2.946   1.601   0.838 -3.3040 -0.7981  0.5487
  142MOL0     H19133   2.898   1.717   0.951 -2.9994 -3.0117 -0.6246
  142MOL0     H19134   2.684   2.161   0.774  0.3434 -1.1576  2.0523
  142MOL0     H19135   2.502   2.319   0.834  0.8772  0.6881 -1.2964
  142MOL0     H19136   2.571   2.543   1.205 -0.2412  0.0644  0.6626
  142MOL0     H19137   2.401   2.575   1.156  1.2836  1.6298 -0.5944
  142MOL0     H19138   2.483   2.295   1.192  1.6028  0.4949  0.0786
  142MOL0     H19139   2.443   2.390   1.329 -0.7479 -1.3324  0.6328
  142MOL0     H19140   2.260   2.269   1.248  0.9730  0.9877  3.9139
  142MOL0     H19141   2.248   2.367   1.091  0.0527  3.9672 -0.3822
  142MOL0     H19142   2.248   2.535   1.335 -1.0157  0.0208  2.9010
  142MOL0     H19143   2.121   2.516   1.212  0.1275 -0.8012  0.2364
  142MOL0     H19144   2.176   2.341   1.451 -0.5666  0.7332  1.2247
  142MOL0     H19145   2.048   2.304   1.317 -0.9941  1.8051  0.2018
  142MOL0     H19146   2.066   2.535   1.512 -0.0793  1.4393 -1.8288
  142MOL0     H19147   1.986   2.544   1.363  2.4138  1.8494  0.6267
  142MOL0     H19148   1.920   2.321   1.559  1.4557 -0.1036 -0.5009
  142MOL0     H19149   1.833   2.378   1.408  0.0633 -0.2909 -0.3749
  142MOL0     H19150   1.864   2.547   1.648 -0.2791  0.2299 -0.2790
  142MOL0     H19151   1.743   2.424   1.640  2.5757 -1.8615 -0.0157
  142MOL0     H19152   2.758   2.501   1.113 -0.7492 -2.1045  1.9535
  142MOL0     H19153   2.933   2.353   1.065  1.4214  1.5783 -2.1947
  142MOL0     H19154   3.140   2.136   0.790 -0.9802  0.2778  2.1682
  142MOL0     H19155   3.346   2.031   0.716  0.2191 -0.3927  2.7402
  142MOL0     H19156   4.984   1.744  -0.297  0.7886  2.0051 -1.5121
  142MOL0     H19157   5.212   1.753  -0.294  3.9261  3.0882 -0.5584
  142MOL0     H19158   5.600   1.851   0.211 -0.4024 -0.6795  0.1362
  142MOL0     H19159   5.846   1.877   0.213 -2.8286 -1.0110  1.8456
  142MOL0     H19160   6.111   1.985   0.092  1.1359 -1.3373 -2.3193
  142MOL0     H19161   6.045   1.850   0.195  1.5343  1.7880  1.1457
  142MOL0     H19162   6.252   1.776  -0.022  0.6421 -0.3960 -0.5622
  142MOL0     H19163   6.226   1.702   0.135  3.3500  0.8132  2.4208
  142MOL0     H19164   6.302   1.908   0.237 -1.3237  1.5658 -0.2166
  142MOL0     H19165   6.335   1.988   0.097  3.7353  2.2335  2.7957
  142MOL0     H19166   6.528   1.848   0.020 -5.1833  0.1579 -3.1096
  142MOL0     H19167   6.485   1.721   0.131  1.4576 -0.8533  1.2655
  142MOL0     H19168   6.715   1.977   0.373  0.0718  1.9566 -1.3375
  142MOL0     H19169   5.844   1.769  -0.196 -2.7060 -2.2082 -0.8748
  142MOL0     H19170   5.609   1.800  -0.201  2.2871  1.5526 -1.8058
  143MOL0     O19171   3.213   7.809   0.556  0.3646 -0.6086 -0.2848
  143MOL0     C19172   3.170   7.813   0.437 -0.8320  0.1042 -1.8289
  143MOL0     O19173   3.045   7.868   0.413 -1.1722 -0.4293  0.2415
  143MOL0     C19174   2.993   7.967   0.496  0.1938 -0.1968 -0.7330
  143MOL0     C19175   3.058   8.082   0.547 -0.3834 -0.5099 -0.0976
  143MOL0     C19176   2.989   8.185   0.609  0.3368  0.6985  1.2159
  143MOL0     C19177   2.852   8.171   0.639  1.4645 -0.0315  0.3141
  143MOL0     O19178   2.785   8.260   0.713 -0.1765 -0.9154 -0.9720
  143MOL0     C19179   2.785   8.405   0.681 -0.0916  0.6969  0.2872
  143MOL0     C19180   2.704   8.485   0.784 -0.0188 -0.2125  0.3906
  143MOL0     C19181   2.565   8.500   0.722  0.0370 -0.3837  0.4213
  143MOL0     C19182   2.479   8.560   0.834 -0.1416 -0.3953 -0.1097
  143MOL0     C19183   2.337   8.589   0.794 -0.1043  0.4576 -0.0756
  143MOL0     C19184   2.322   8.714   0.714 -0.0608  0.1772 -0.4718
  143MOL0     C19185   2.175   8.747   0.680  0.3204  0.2249  0.1856
  143MOL0     C19186   2.120   8.663   0.565  0.3818 -0.0268 -0.3148
  143MOL0     N19187   1.969   8.631   0.585 -0.4219 -0.0630  0.3183
  143MOL0     C19188   1.866   8.730   0.578 -0.2472  1.1049 -0.4191
  143MOL0     C19189   1.752   8.668   0.640 -0.3561 -0.8593  0.0327
  143MOL0     C19190   1.611   8.708   0.675 -0.1216 -0.2678  0.6569
  143MOL0     C19191   1.506   8.600   0.668  0.4322  0.0022  1.0032
  143MOL0     C19192   1.372   8.672   0.681 -0.7689 -1.3414 -0.1228
  143MOL0     C19193   1.259   8.565   0.674 -0.3666  1.1884 -0.2939
  143MOL0     O19194   1.140   8.607   0.740  0.2381 -0.3298  0.1254
  143MOL0     C19195   1.024   8.536   0.729 -0.5548 -0.6718  0.6507
  143MOL0     C19196   0.911   8.597   0.783  0.9828  0.5514 -0.5329
  143MOL0     C19197   0.781   8.536   0.782 -0.5802 -0.4614 -0.4766
  143MOL0     C19198   0.674   8.615   0.845  0.0534  0.5842 -0.4513
  143MOL0     C19199   0.762   8.415   0.723  0.3529  0.2736  0.4818
  143MOL0     C19200   0.630   8.332   0.721 -0.2577  0.3040  0.9056
  143MOL0     O19201   0.529   8.365   0.799  0.0712  0.1539  0.0732
  143MOL0     C19202   0.413   8.281   0.806  0.2664 -0.3180  0.1832
  143MOL0     C19203   0.427   8.151   0.843  0.3512  1.4275 -0.0775
  143MOL0     C19204   0.308   8.074   0.854 -0.1745 -0.2273 -1.1989
  143MOL0     C19205   0.180   8.131   0.837 -0.7232  0.3165 -0.2030
  143MOL0     O19206   0.079   8.045   0.840  0.3431 -0.3590  0.4052
  143MOL0     C19207  -0.002   8.040   0.715  0.3436  0.4698 -0.0738
  143MOL0     C19208  -0.117   7.945   0.740 -0.2325  0.2159  0.0754
  143MOL0     C19209  -0.206   7.983   0.858 -0.8115 -0.0816  0.3767
  143MOL0     C19210  -0.327   7.894   0.856  0.1957  0.3402  0.1739
  143MOL0     C19211  -0.451   7.952   0.905  0.2256 -0.6189 -0.8376
  143MOL0     C19212  -0.551   7.844   0.937 -0.1134  0.2330 -0.6743
  143MOL0     C19213  -0.690   7.898   0.973 -0.6703 -0.6199  0.0128
  143MOL0     C19214  -0.788   7.792   0.964  0.1541  0.7887  0.6224
  143MOL0    Cl19215  -0.771   7.668   1.089  0.1851  0.1980  0.2741
  143MOL0     C19216   0.171   8.264   0.814 -0.0385 -0.5887  0.8703
  143MOL0     C19217   0.289   8.340   0.794  0.2087 -0.0654 -0.6650
  143MOL0     O19218   0.628   8.244   0.635  0.0052  0.8203 -0.0124
  143MOL0     C19219   0.878   8.361   0.653  0.2806 -0.6313  0.4234
  143MOL0     C19220   1.001   8.421   0.655 -0.4185 -0.3954 -1.0885
  143MOL0     N19221   1.802   8.550   0.689 -0.0968  0.0141  0.3852
  143MOL0     N19222   1.923   8.518   0.648 -0.2504  0.6458 -0.2120
  143MOL0     C19223   2.788   8.053   0.602  0.4305 -0.7589 -1.2928
  143MOL0     C19224   2.856   7.951   0.533 -0.1905 -0.2398  0.0798
  143MOL0     C19225   3.230   7.735   0.327  0.6432  0.7095  0.4911
  143MOL0     C19226   3.343   7.644   0.342  0.0397 -0.9337 -1.0123
  143MOL0     C19227   3.414   7.596   0.229  0.2463 -0.0641  1.4155
  143MOL0     C19228   3.357   7.610   0.096 -0.2327 -0.1050 -0.3073
  143MOL0     O19229   3.413   7.556  -0.020 -0.1347 -0.4471  0.4068
  143MOL0     C19230   3.557   7.533  -0.018 -0.5103  0.2239  1.0486
  143MOL0     C19231   3.593   7.501  -0.163 -0.3317  1.1071 -0.1318
  143MOL0     C19232   3.542   7.356  -0.188 -0.0565  1.1131  0.4021
  143MOL0     C19233   3.551   7.316  -0.340  0.2527 -0.1823  0.0098
  143MOL0     C19234   3.692   7.304  -0.384  0.1014 -0.3313 -0.1551
  143MOL0     C19235   3.820   7.301  -0.396  0.0031 -0.1257  0.8947
  143MOL0     C19236   3.239   7.681   0.083 -0.2324 -0.2486  0.1857
  143MOL0     C19237   3.187   7.755   0.190  0.7750 -0.2105 -0.3732
  143MOL0     H19238   3.161   8.101   0.517  0.3253  2.4558  3.4304
  143MOL0     H19239   3.030   8.284   0.627  1.2652 -0.0612  3.6694
  143MOL0     H19240   2.887   8.443   0.676  1.0949 -2.4059 -1.6218
  143MOL0     H19241   2.747   8.415   0.579 -0.0782 -1.2050  0.0668
  143MOL0     H19242   2.696   8.446   0.886  0.2292 -3.2828 -0.6712
  143MOL0     H19243   2.746   8.586   0.786 -0.2335 -0.1072 -0.1446
  143MOL0     H19244   2.571   8.578   0.646 -0.7029  0.9507  1.6770
  143MOL0     H19245   2.528   8.411   0.672 -2.0763  0.1400  0.9351
  143MOL0     H19246   2.471   8.476   0.903 -1.4729 -1.7076 -1.7783
  143MOL0     H19247   2.518   8.650   0.883 -1.9143 -0.5609  1.7203
  143MOL0     H19248   2.309   8.503   0.732  0.4059 -0.2299  0.6199
  143MOL0     H19249   2.281   8.591   0.888 -0.2389 -1.5758 -0.0684
  143MOL0     H19250   2.371   8.792   0.773  1.0294  0.2426 -1.4498
  143MOL0     H19251   2.381   8.712   0.622  0.2905  5.0078 -0.6132
  143MOL0     H19252   2.111   8.733   0.768 -1.4227 -0.8948 -1.1889
  143MOL0     H19253   2.163   8.848   0.642  0.1636 -0.0189 -0.4208
  143MOL0     H19254   2.187   8.576   0.563  1.9449  1.1343 -2.4399
  143MOL0     H19255   2.143   8.718   0.473  2.7034  0.8129  0.6705
  143MOL0     H19256   1.871   8.832   0.541 -0.4743  0.8831 -1.0608
  143MOL0     H19257   1.624   8.747   0.776  2.7888  2.8395 -0.6978
  143MOL0     H19258   1.581   8.795   0.616 -1.6584  0.1313  1.9954
  143MOL0     H19259   1.525   8.539   0.757 -0.9446  1.5495  2.4530
  143MOL0     H19260   1.510   8.546   0.573  1.8638  3.2429 -0.9682
  143MOL0     H19261   1.359   8.747   0.601 -0.0869  0.7750  1.6655
  143MOL0     H19262   1.373   8.722   0.778  1.7487 -3.0540  0.8022
  143MOL0     H19263   1.285   8.469   0.719 -1.1319  1.1980  0.1883
  143MOL0     H19264   1.240   8.548   0.568  1.3195 -2.3470 -0.1785
  143MOL0     H19265   0.916   8.701   0.815 -2.4190  0.8094 -0.4939
  143MOL0     H19266   0.720   8.709   0.878  3.0357 -1.1714  0.8179
  143MOL0     H19267   0.592   8.630   0.774  0.4720 -1.5314 -1.4720
  143MOL0     H19268   0.633   8.565   0.933  0.0935  0.5073 -0.4758
  143MOL0     H19269   0.516   8.091   0.854 -1.1492 -0.8893  0.1315
  143MOL0     H19270   0.315   7.971   0.888 -1.8018 -0.5073 -1.6355
  143MOL0     H19271  -0.040   8.140   0.692  1.8183  1.3341  1.0064
  143MOL0     H19272   0.058   8.000   0.633 -0.4445 -1.1369  0.0907
  143MOL0     H19273  -0.176   7.943   0.647  1.8181 -1.9863 -1.3067
  143MOL0     H19274  -0.062   7.853   0.759  1.9530  1.8796  2.6459
  143MOL0     H19275  -0.240   8.087   0.846  2.2040  1.0616  0.8716
  143MOL0     H19276  -0.152   7.990   0.952 -1.0163  1.0835  0.4230
  143MOL0     H19277  -0.346   7.863   0.752 -2.9364 -3.4830  1.5997
  143MOL0     H19278  -0.289   7.801   0.900  4.3777  1.7832  0.0182
  143MOL0     H19279  -0.486   8.023   0.830  1.1578 -1.4520 -2.1089
  143MOL0     H19280  -0.423   8.010   0.993  2.4919  0.0032 -1.9134
  143MOL0     H19281  -0.561   7.772   0.855 -3.6461 -0.9683  0.6186
  143MOL0     H19282  -0.506   7.784   1.016  0.2805 -2.8951 -3.0733
  143MOL0     H19283  -0.718   7.984   0.912 -0.6452  0.1238  1.0374
  143MOL0     H19284  -0.698   7.930   1.077 -2.0684  0.9615 -0.5292
  143MOL0     H19285  -0.802   7.747   0.865  2.6053 -0.0206  0.5667
  143MOL0     H19286  -0.884   7.832   0.999 -0.9350  0.8588 -2.1663
  143MOL0     H19287   0.077   8.313   0.791  0.2875 -0.1171  0.5013
  143MOL0     H19288   0.288   8.448   0.785  1.5549 -0.1885 -3.4663
  143MOL0     H19289   0.884   8.271   0.591  3.4392  0.7280 -1.4664
  143MOL0     H19290   1.076   8.361   0.604 -0.8710 -1.6394 -0.3363
  143MOL0     H19291   2.687   8.041   0.641  0.7104  2.4538  0.8397
  143MOL0     H19292   2.802   7.859   0.516 -0.6464 -0.1356  0.8985
  143MOL0     H19293   3.375   7.615   0.441 -1.5080  1.1569  0.1797
  143MOL0     H19294   3.502   7.533   0.229 -0.9781 -1.8724  2.2625
  143MOL0     H19295   3.611   7.623   0.012  1.0964 -0.0978 -0.6844
  143MOL0     H19296   3.577   7.443   0.040  0.0313  1.3294  2.6553
  143MOL0     H19297   3.701   7.498  -0.178 -0.3524 -1.2811 -0.1340
  143MOL0     H19298   3.544   7.564  -0.238  2.5505  1.3941 -1.9459
  143MOL0     H19299   3.433   7.357  -0.174 -0.0321  0.9003  0.6049
  143MOL0     H19300   3.588   7.284  -0.120 -0.2667  1.8943  1.3951
  143MOL0     H19301   3.506   7.385  -0.411  0.5454  1.7730  1.6456
  143MOL0     H19302   3.509   7.216  -0.354  1.3807 -0.7709  0.7386
  143MOL0     H19303   3.925   7.287  -0.417 -0.3343 -1.2396 -0.2034
  143MOL0     H19304   3.197   7.689  -0.017 -0.8209 -3.3141  0.0874
  143MOL0     H19305   3.104   7.825   0.177  0.8291 -0.0565  0.1051
  144MOL0     O19306   9.636   6.196   0.606 -0.2281  0.4686  0.0401
  144MOL0     C19307   9.626   6.248   0.715 -0.4310 -0.2078  0.3833
  144MOL0     O19308   9.520   6.225   0.803  0.1177  0.5256 -0.0442
  144MOL0     C19309   9.419   6.155   0.753  0.2616  0.3304 -0.3857
  144MOL0     C19310   9.413   6.016   0.775  0.5934 -0.4783 -0.0056
  144MOL0     C19311   9.324   5.941   0.706 -0.7477  0.0428  0.5575
  144MOL0     C19312   9.236   6.003   0.616  0.5920 -0.6527  0.2483
  144MOL0     O19313   9.142   5.944   0.544 -0.5195  0.5069  0.1881
  144MOL0     C19314   9.076   5.838   0.606  0.0488  0.1946  0.3003
  144MOL0     C19315   8.930   5.855   0.567 -0.3012 -0.1594  0.3256
  144MOL0     C19316   8.902   5.851   0.413 -0.6294  0.1106  0.5095
  144MOL0     C19317   8.753   5.852   0.389 -0.1634  0.8197 -0.5805
  144MOL0     C19318   8.725   5.871   0.244 -0.1167  0.9568  0.1015
  144MOL0     C19319   8.568   5.875   0.234  0.8390 -0.1352  0.0466
  144MOL0     C19320   8.518   5.890   0.094  0.0385 -0.7302 -0.4552
  144MOL0     C19321   8.381   5.830   0.071 -0.0759  0.3653 -0.5572
  144MOL0     N19322   8.268   5.868   0.156 -0.5655  0.6431  0.3103
  144MOL0     C19323   8.161   5.929   0.099 -0.1208  0.1773 -0.1706
  144MOL0     C19324   8.071   5.931   0.200  0.0288 -0.2778 -0.5633
  144MOL0     C19325   7.926   5.968   0.179 -0.0233  0.5227 -0.3999
  144MOL0     C19326   7.869   5.900   0.059 -0.7295  0.2122  0.4694
  144MOL0     C19327   7.890   5.747   0.076  0.3567  0.2129  0.8593
  144MOL0     C19328   7.788   5.672  -0.018  0.1038  0.0457  0.1897
  144MOL0     O19329   7.788   5.722  -0.155  0.1874 -0.9584  0.4144
  144MOL0     C19330   7.684   5.689  -0.234 -0.5679 -0.5236 -0.0537
  144MOL0     C19331   7.589   5.586  -0.203  0.4709  0.0820  0.0347
  144MOL0     C19332   7.484   5.553  -0.282 -0.9469  0.0594  0.1134
  144MOL0     C19333   7.398   5.443  -0.241  1.1019  0.0798  0.4663
  144MOL0     C19334   7.467   5.626  -0.396  0.1886 -0.2276  0.4029
  144MOL0     C19335   7.346   5.631  -0.479 -0.3321  0.6050 -0.2126
  144MOL0     O19336   7.309   5.749  -0.541 -0.2122  0.0522 -1.0339
  144MOL0     C19337   7.222   5.751  -0.652  0.6003  0.0085 -0.7314
  144MOL0     C19338   7.233   5.862  -0.731 -0.0212 -0.3810  0.7761
  144MOL0     C19339   7.165   5.866  -0.856  0.1460 -0.1611 -0.6122
  144MOL0     C19340   7.087   5.760  -0.909 -0.4621  0.1184 -0.3309
  144MOL0     O19341   7.015   5.753  -1.024 -0.1822  0.8396  1.1616
  144MOL0     C19342   6.869   5.734  -1.014 -0.2083  0.2928  0.6442
  144MOL0     C19343   6.802   5.842  -0.931 -0.4727  0.3534  0.4153
  144MOL0     C19344   6.648   5.832  -0.910 -0.1501  0.0188  0.2158
  144MOL0     C19345   6.598   5.689  -0.908  0.3889 -0.0055  0.0742
  144MOL0     C19346   6.459   5.685  -0.843 -0.8955 -0.1860 -0.3085
  144MOL0     C19347   6.398   5.547  -0.847  0.0824 -0.2102  0.5260
  144MOL0     C19348   6.244   5.569  -0.865  0.4874  0.4206  1.4063
  144MOL0     C19349   6.164   5.436  -0.849  0.1855 -0.0350  0.2876
  144MOL0    Cl19350   6.172   5.322  -0.989  0.3765 -0.1416  0.0231
  144MOL0     C19351   7.067   5.660  -0.811 -0.2055  1.3863  0.7657
  144MOL0     C19352   7.130   5.652  -0.682  0.4113  0.0862 -0.0717
  144MOL0     O19353   7.301   5.514  -0.508 -0.2307 -0.4092  0.0269
  144MOL0     C19354   7.567   5.718  -0.439  0.2025 -0.0622 -0.2242
  144MOL0     C19355   7.689   5.738  -0.361 -0.3942  0.1258  0.2636
  144MOL0     N19356   8.137   5.894   0.316 -0.1981  0.5509 -0.5679
  144MOL0     N19357   8.259   5.864   0.291  0.2681 -0.1306 -0.3454
  144MOL0     C19358   9.254   6.138   0.586 -0.0303  0.1802 -0.4679
  144MOL0     C19359   9.337   6.217   0.662 -1.0407 -0.7159 -0.4003
  144MOL0     C19360   9.730   6.344   0.765  0.1008  0.1135 -0.2074
  144MOL0     C19361   9.696   6.425   0.871  0.2964  0.1586 -0.0587
  144MOL0     C19362   9.793   6.512   0.929  0.9700 -0.0433  0.1881
  144MOL0     C19363   9.921   6.526   0.872 -0.2986 -0.6318 -0.0823
  144MOL0     O19364  10.027   6.601   0.923  0.2290 -0.0063  0.2796
  144MOL0     C19365  10.020   6.639   1.062 -0.6708 -0.2602 -0.3563
  144MOL0     C19366  10.137   6.732   1.085  0.1015  0.1205  0.4578
  144MOL0     C19367  10.263   6.643   1.079 -1.1003  0.1213 -0.1563
  144MOL0     C19368  10.385   6.727   1.063  0.2226 -0.3941 -0.1476
  144MOL0     C19369  10.494   6.656   1.132  0.7414  0.0335  0.0161
  144MOL0     C19370  10.569   6.603   1.211  0.7951 -0.2312 -0.6370
  144MOL0     C19371   9.955   6.434   0.775 -0.9080  0.1775  0.0734
  144MOL0     C19372   9.862   6.350   0.719  0.1935  0.0639  0.1018
  144MOL0     H19373   9.487   5.962   0.833 -0.5555  0.5723  2.5810
  144MOL0     H19374   9.327   5.837   0.737  1.6539  0.6648  2.7261
  144MOL0     H19375   9.111   5.740   0.576  0.7517  0.8616 -1.1128
  144MOL0     H19376   9.085   5.849   0.715 -2.4744 -0.0948  0.6077
  144MOL0     H19377   8.877   5.776   0.621 -0.3351 -0.0616  0.4361
  144MOL0     H19378   8.889   5.947   0.609 -0.7299  0.8322 -2.0627
  144MOL0     H19379   8.952   5.934   0.362 -0.7573 -1.3695 -2.2234
  144MOL0     H19380   8.954   5.761   0.379  2.1583 -0.3627  5.1209
  144MOL0     H19381   8.731   5.751   0.423 -0.9653  0.7488 -1.2869
  144MOL0     H19382   8.708   5.927   0.455  1.2983  1.8782 -0.7450
  144MOL0     H19383   8.785   5.954   0.207  1.8805 -0.3718  0.1964
  144MOL0     H19384   8.759   5.777   0.199  0.3411 -0.4600  3.1166
  144MOL0     H19385   8.516   5.794   0.285 -4.0377  2.2831 -0.5186
  144MOL0     H19386   8.534   5.958   0.297  1.0719 -1.9719  2.7877
  144MOL0     H19387   8.536   5.997   0.078  2.6081 -1.1343 -0.7233
  144MOL0     H19388   8.593   5.841   0.031  0.4843 -1.1122  0.3540
  144MOL0     H19389   8.395   5.723   0.087  1.1970  0.7233  0.8759
  144MOL0     H19390   8.356   5.844  -0.035 -0.1900  1.9716 -0.3489
  144MOL0     H19391   8.139   5.948  -0.005  1.8783 -0.2174 -0.7029
  144MOL0     H19392   7.868   5.927   0.263 -0.0828 -2.8603 -1.9126
  144MOL0     H19393   7.922   6.077   0.168  5.0568  1.0384  0.5995
  144MOL0     H19394   7.904   5.934  -0.039  5.3308  1.2337  2.5850
  144MOL0     H19395   7.764   5.932   0.061 -0.4098  1.2691  0.7428
  144MOL0     H19396   7.864   5.722   0.179 -2.4220  3.4080  1.1108
  144MOL0     H19397   7.994   5.723   0.050  0.8250  0.1825  2.6296
  144MOL0     H19398   7.697   5.684   0.042  1.0795 -2.1139  2.2955
  144MOL0     H19399   7.816   5.567  -0.022 -5.1151 -1.7494  2.0530
  144MOL0     H19400   7.599   5.541  -0.105  2.2521  0.1465 -0.0862
  144MOL0     H19401   7.398   5.426  -0.133 -3.0390 -1.2351  0.4238
  144MOL0     H19402   7.297   5.472  -0.272  1.5001 -0.7137 -1.7506
  144MOL0     H19403   7.419   5.348  -0.291 -1.7529 -0.0006 -0.7988
  144MOL0     H19404   7.293   5.950  -0.710 -1.6781  1.4347 -1.5674
  144MOL0     H19405   7.173   5.956  -0.916  0.3653 -1.2447 -2.2827
  144MOL0     H19406   6.840   5.741  -1.120  0.0578 -0.7818  0.4859
  144MOL0     H19407   6.856   5.632  -0.978 -1.8464 -0.1856 -1.1347
  144MOL0     H19408   6.847   5.845  -0.832  0.2565 -1.9628  0.1991
  144MOL0     H19409   6.816   5.938  -0.983 -3.7898  0.1951 -1.0456
  144MOL0     H19410   6.595   5.874  -0.996 -1.1559 -1.2983  0.1695
  144MOL0     H19411   6.626   5.899  -0.826  0.8339  1.0932 -0.3638
  144MOL0     H19412   6.575   5.654  -1.009 -2.0420  2.0433 -0.1672
  144MOL0     H19413   6.658   5.622  -0.846 -1.6741 -1.6221  0.4335
  144MOL0     H19414   6.406   5.762  -0.902  1.5635 -0.0197 -2.4702
  144MOL0     H19415   6.474   5.705  -0.737  3.8537  1.0121 -1.0044
  144MOL0     H19416   6.448   5.498  -0.930 -1.9340  1.0778 -1.5785
  144MOL0     H19417   6.410   5.483  -0.760  1.4636  0.8722  1.1693
  144MOL0     H19418   6.237   5.602  -0.969  0.1402 -0.0606  1.2750
  144MOL0     H19419   6.207   5.649  -0.800 -1.6123  0.8483 -0.2398
  144MOL0     H19420   6.059   5.445  -0.820  0.1698 -0.2766  0.3075
  144MOL0     H19421   6.209   5.389  -0.761  0.9894  4.3989  2.5023
  144MOL0     H19422   6.993   5.585  -0.835 -0.9226  1.9147  1.2524
  144MOL0     H19423   7.125   5.560  -0.624  4.3833 -0.2623 -0.0538
  144MOL0     H19424   7.556   5.761  -0.538  1.4689 -3.6676 -2.1507
  144MOL0     H19425   7.773   5.796  -0.398 -1.5903  0.2891 -2.4683
  144MOL0     H19426   9.192   6.187   0.511 -0.8555  0.0300  0.1000
  144MOL0     H19427   9.343   6.323   0.639  1.1352 -0.9489 -1.0960
  144MOL0     H19428   9.596   6.424   0.913 -0.5952 -0.3231 -2.0467
  144MOL0     H19429   9.752   6.570   1.012 -2.3741  2.0516 -2.6544
  144MOL0     H19430   9.920   6.682   1.073  0.0029  0.7223  2.7447
  144MOL0     H19431  10.023   6.549   1.124  0.7353  0.9026  1.3487
  144MOL0     H19432  10.120   6.786   1.178 -2.2896 -3.0978  2.0838
  144MOL0     H19433  10.131   6.803   1.002 -0.9771  0.4800  0.8420
  144MOL0     H19434  10.252   6.572   0.996  1.8259 -0.8168  0.1325
  144MOL0     H19435  10.258   6.582   1.170 -1.6171 -0.5199 -0.6017
  144MOL0     H19436  10.370   6.824   1.112 -1.3705 -0.7629  0.1504
  144MOL0     H19437  10.414   6.745   0.959  0.3346  1.8993  0.2365
  144MOL0     H19438  10.632   6.566   1.290 -1.0843  2.5882  2.4497
  144MOL0     H19439  10.062   6.426   0.759 -0.8986 -2.1102  0.8493
  144MOL0     H19440   9.890   6.275   0.645  1.0794 -0.7787  1.2629
  145MOL0     O19441   0.591   7.655   4.292 -0.6504  0.0577 -0.2654
  145MOL0     C19442   0.620   7.614   4.181  0.3779 -0.6701  0.6855
  145MOL0     O19443   0.594   7.489   4.128  0.0408 -0.4410  0.6186
  145MOL0     C19444   0.545   7.399   4.219  0.5722  0.5661 -1.1082
  145MOL0     C19445   0.437   7.320   4.178 -0.3417 -0.0813 -0.3883
  145MOL0     C19446   0.378   7.223   4.254 -0.2388  0.3028 -0.3374
  145MOL0     C19447   0.432   7.201   4.382  0.3137 -0.4575  1.2875
  145MOL0     O19448   0.391   7.112   4.473  0.0423  0.7029  0.4877
  145MOL0     C19449   0.277   7.025   4.452 -0.4818  0.0668 -0.3539
  145MOL0     C19450   0.152   7.101   4.461  0.0810  0.1762  0.0645
  145MOL0     C19451   0.016   7.022   4.492 -0.7612  0.1649 -0.4164
  145MOL0     C19452   0.016   6.925   4.613 -0.4438  0.5209  0.6458
  145MOL0     C19453   0.079   6.982   4.737  0.5253  0.1570  0.4304
  145MOL0     C19454  -0.008   7.110   4.775  0.6290  0.5505  0.9462
  145MOL0     C19455   0.058   7.173   4.893 -0.2496 -0.7386  0.5862
  145MOL0     C19456  -0.033   7.255   4.987  0.7201  0.5277 -0.4992
  145MOL0     N19457   0.042   7.301   5.104  0.3159  0.3709 -0.3894
  145MOL0     C19458   0.091   7.220   5.197 -0.5106  0.9725 -0.2771
  145MOL0     C19459   0.107   7.292   5.310 -0.7287  0.4214  0.4631
  145MOL0     C19460   0.178   7.244   5.438  0.0316  0.5112  0.1831
  145MOL0     C19461   0.097   7.289   5.564 -1.1551  0.4190  0.9308
  145MOL0     C19462  -0.043   7.220   5.586 -0.2573 -0.3563  0.0198
  145MOL0     C19463  -0.112   7.271   5.721  0.0760 -0.3840  0.1340
  145MOL0     O19464  -0.232   7.206   5.748 -1.0054 -0.3839 -0.2464
  145MOL0     C19465  -0.326   7.271   5.821 -0.4665 -0.0350  0.2112
  145MOL0     C19466  -0.305   7.392   5.885 -0.6490 -0.9807 -0.4111
  145MOL0     C19467  -0.414   7.458   5.941  0.4857  0.7052  0.2599
  145MOL0     C19468  -0.377   7.559   6.043 -0.3460  0.3036 -0.9403
  145MOL0     C19469  -0.552   7.409   5.928  0.4174  0.5909  0.0473
  145MOL0     C19470  -0.680   7.461   5.988 -0.3404  0.0558 -0.1540
  145MOL0     O19471  -0.787   7.381   6.012  0.2451 -0.0357  0.2816
  145MOL0     C19472  -0.919   7.414   6.007  0.4670 -0.0107 -0.9553
  145MOL0     C19473  -1.006   7.345   6.097 -0.1355 -0.5946  0.2093
  145MOL0     C19474  -1.143   7.374   6.099  0.1955 -0.4015  0.5937
  145MOL0     C19475  -1.196   7.475   6.023  0.7434  0.0067  0.9362
  145MOL0     O19476  -1.333   7.490   6.018 -0.2297  0.7046 -0.4907
  145MOL0     C19477  -1.378   7.618   6.060 -0.4613  0.0099  1.1735
  145MOL0     C19478  -1.473   7.656   5.962  0.8574 -0.4084  0.4861
  145MOL0     C19479  -1.545   7.791   5.972 -1.5157  0.2094 -1.3865
  145MOL0     C19480  -1.629   7.804   5.847 -0.1013  0.7706  0.6581
  145MOL0     C19481  -1.768   7.726   5.855  0.2208  0.7900 -0.2865
  145MOL0     C19482  -1.818   7.701   5.702  0.3529  0.3260 -0.0698
  145MOL0     C19483  -1.957   7.635   5.701  1.4618 -1.5438 -0.0936
  145MOL0     C19484  -2.054   7.745   5.738  0.8825 -0.1623 -1.1180
  145MOL0    Cl19485  -2.061   7.856   5.599 -0.0148 -0.2346 -0.4776
  145MOL0     C19486  -1.116   7.540   5.929 -0.0880  0.4937 -0.0054
  145MOL0     C19487  -0.977   7.508   5.925 -0.4609  0.2207  0.0120
  145MOL0     O19488  -0.689   7.581   5.995 -0.0861 -0.8103  0.1499
  145MOL0     C19489  -0.565   7.289   5.847  0.1610  0.2539  0.5418
  145MOL0     C19490  -0.452   7.225   5.796  0.6500 -0.4641 -1.1725
  145MOL0     N19491   0.072   7.421   5.285  1.0449 -0.6708 -0.0482
  145MOL0     N19492   0.025   7.427   5.161 -0.4619  0.1906 -0.4263
  145MOL0     C19493   0.552   7.271   4.417  0.3260 -0.8146 -0.1642
  145MOL0     C19494   0.608   7.365   4.336 -0.1576 -0.4552 -0.6136
  145MOL0     C19495   0.706   7.705   4.107  1.0642 -0.2008 -0.2725
  145MOL0     C19496   0.791   7.799   4.175  0.7727 -1.0283  1.0512
  145MOL0     C19497   0.864   7.885   4.098 -0.0859 -0.2513 -0.6792
  145MOL0     C19498   0.870   7.878   3.957  0.0075 -0.0484 -0.1410
  145MOL0     O19499   0.944   7.956   3.876 -0.3072  0.3091  0.7411
  145MOL0     C19500   0.996   8.072   3.934 -0.8458  0.6445 -0.7272
  145MOL0     C19501   1.046   8.166   3.818 -0.9277  0.1809 -0.0611
  145MOL0     C19502   0.935   8.196   3.716 -0.2363  0.5718 -0.3514
  145MOL0     C19503   0.980   8.317   3.640  1.2607 -0.1235 -0.0349
  145MOL0     C19504   0.888   8.324   3.531 -0.5339 -0.3887 -0.0594
  145MOL0     C19505   0.803   8.333   3.449  0.5723 -0.0639  0.5475
  145MOL0     C19506   0.790   7.788   3.891  0.9395  0.3615 -0.1668
  145MOL0     C19507   0.708   7.700   3.965 -0.0968  0.3416 -0.0953
  145MOL0     H19508   0.392   7.332   4.079 -0.5412 -3.2857 -0.7880
  145MOL0     H19509   0.311   7.147   4.216 -0.9859  0.3245  0.8755
  145MOL0     H19510   0.291   6.978   4.354  0.5785 -0.2030 -0.0830
  145MOL0     H19511   0.281   6.945   4.526  3.8405 -1.9684 -2.3892
  145MOL0     H19512   0.165   7.178   4.537 -1.8959 -0.5284  1.1741
  145MOL0     H19513   0.140   7.153   4.366  1.6474  1.1988  0.3893
  145MOL0     H19514  -0.068   7.093   4.498 -2.3415 -1.7305  1.8222
  145MOL0     H19515  -0.006   6.960   4.405  3.8596 -0.6036 -1.2806
  145MOL0     H19516  -0.085   6.900   4.645 -0.1483  0.4077  1.5372
  145MOL0     H19517   0.065   6.831   4.587 -1.5854  0.1482 -0.2288
  145MOL0     H19518   0.087   6.911   4.820  0.5456  0.9696  1.1413
  145MOL0     H19519   0.182   7.015   4.722  0.5117  0.5564  1.1736
  145MOL0     H19520  -0.010   7.183   4.693  0.2583  0.9877  1.3351
  145MOL0     H19521  -0.111   7.087   4.804 -0.5336  2.7762 -1.0419
  145MOL0     H19522   0.122   7.098   4.942 -1.6972 -3.0402 -0.8613
  145MOL0     H19523   0.129   7.248   4.857 -0.5318 -0.7402  0.0274
  145MOL0     H19524  -0.112   7.183   5.012  1.6828 -0.6659 -0.8042
  145MOL0     H19525  -0.082   7.344   4.947 -1.4902 -1.2048 -1.9252
  145MOL0     H19526   0.119   7.117   5.182 -2.7674  0.2931 -0.1695
  145MOL0     H19527   0.173   7.135   5.437  0.8103  0.4667 -0.6771
  145MOL0     H19528   0.281   7.280   5.433  1.1772 -2.6227 -1.9763
  145MOL0     H19529   0.088   7.397   5.546 -0.0071  0.3927  0.1313
  145MOL0     H19530   0.164   7.275   5.649  2.2922  3.2573 -1.0394
  145MOL0     H19531  -0.013   7.116   5.599 -0.1986 -0.6943 -2.4183
  145MOL0     H19532  -0.101   7.234   5.494 -0.9853  3.2431  0.8553
  145MOL0     H19533  -0.119   7.379   5.707  5.2609  0.3379  1.1585
  145MOL0     H19534  -0.038   7.245   5.797 -0.4346 -1.5472  0.2576
  145MOL0     H19535  -0.208   7.438   5.898 -1.9364  1.7169  0.5060
  145MOL0     H19536  -0.463   7.608   6.090  0.1183  0.5860 -0.3751
  145MOL0     H19537  -0.324   7.504   6.121 -0.6407 -1.1009 -1.6854
  145MOL0     H19538  -0.318   7.641   6.002  0.9849 -0.3402 -0.3567
  145MOL0     H19539  -0.962   7.275   6.168  0.2198 -1.2789 -0.6674
  145MOL0     H19540  -1.200   7.303   6.158  1.0199 -0.2842  1.5487
  145MOL0     H19541  -1.420   7.617   6.161 -0.6421  1.8000  1.1555
  145MOL0     H19542  -1.293   7.688   6.055  0.1254 -0.7970 -1.1723
  145MOL0     H19543  -1.432   7.643   5.861 -1.9614 -1.9430 -0.5719
  145MOL0     H19544  -1.552   7.582   5.977 -1.3279  1.8929  0.8921
  145MOL0     H19545  -1.472   7.872   5.983 -0.7903 -0.5885 -0.0706
  145MOL0     H19546  -1.601   7.783   6.066  2.0201 -0.8532  0.8672
  145MOL0     H19547  -1.647   7.910   5.828 -0.2962  0.6027 -0.1206
  145MOL0     H19548  -1.578   7.771   5.756 -2.4713 -0.6230 -0.2531
  145MOL0     H19549  -1.843   7.784   5.910  1.8227  1.4784  1.2562
  145MOL0     H19550  -1.749   7.631   5.907  3.8050  0.1924 -2.3754
  145MOL0     H19551  -1.809   7.788   5.637 -1.4680 -0.3460 -1.3005
  145MOL0     H19552  -1.754   7.627   5.654 -1.6190 -0.5065 -1.5520
  145MOL0     H19553  -1.963   7.546   5.765 -3.4321 -1.2732  0.2126
  145MOL0     H19554  -1.987   7.601   5.602  2.0964 -0.1695 -0.7682
  145MOL0     H19555  -2.030   7.805   5.827  0.5738 -2.5504  0.6832
  145MOL0     H19556  -2.157   7.715   5.760  0.2056  0.8212 -2.7697
  145MOL0     H19557  -1.147   7.613   5.855 -0.9677 -0.7139 -0.8768
  145MOL0     H19558  -0.902   7.556   5.863  2.0090 -1.1297  1.7951
  145MOL0     H19559  -0.651   7.226   5.830  0.2131  0.6603 -1.4924
  145MOL0     H19560  -0.460   7.138   5.732  1.5593  1.4450 -4.0663
  145MOL0     H19561   0.580   7.242   4.518 -2.1622  0.0260  0.8417
  145MOL0     H19562   0.684   7.432   4.374 -0.1898  0.4250 -2.0555
  145MOL0     H19563   0.794   7.784   4.282  0.5050 -2.4699  0.8812
  145MOL0     H19564   0.938   7.947   4.148  2.1295 -2.0357 -1.5572
  145MOL0     H19565   0.926   8.137   3.989  0.0596  2.0495 -1.1884
  145MOL0     H19566   1.085   8.056   3.996  0.5287  1.7252 -2.3397
  145MOL0     H19567   1.126   8.115   3.763 -1.8491 -2.7548  1.1282
  145MOL0     H19568   1.088   8.259   3.858  2.2108  0.5185 -3.5468
  145MOL0     H19569   0.839   8.213   3.766 -1.3106 -1.2280 -1.6911
  145MOL0     H19570   0.913   8.110   3.653 -1.3685 -0.3721  1.2435
  145MOL0     H19571   1.079   8.304   3.596  1.0029 -0.4936 -0.5048
  145MOL0     H19572   0.980   8.402   3.709  0.1505 -1.0986  1.2286
  145MOL0     H19573   0.737   8.339   3.365  1.7535  2.6418 -0.3049
  145MOL0     H19574   0.801   7.777   3.784  0.1550  0.8720 -0.3052
  145MOL0     H19575   0.645   7.632   3.909  1.1240 -0.6436 -0.2991
  146MOL0     O19576   6.550   3.910   8.034  0.6039 -0.5997 -0.4339
  146MOL0     C19577   6.552   3.793   8.064  0.1475 -0.2054 -0.1773
  146MOL0     O19578   6.444   3.711   8.091  0.7466 -0.0540  0.6117
  146MOL0     C19579   6.314   3.766   8.093  0.0833  0.1971 -0.5851
  146MOL0     C19580   6.219   3.731   8.190  0.5130 -0.7540  0.7273
  146MOL0     C19581   6.088   3.794   8.189 -0.4805 -0.1316 -0.0990
  146MOL0     C19582   6.058   3.892   8.099  0.6823 -0.9349  0.2301
  146MOL0     O19583   5.939   3.956   8.088 -0.6075  0.4640  0.4317
  146MOL0     C19584   5.826   3.896   8.127 -0.2292  0.0029  0.0114
  146MOL0     C19585   5.703   3.967   8.065  0.3375 -0.2224 -0.9213
  146MOL0     C19586   5.574   3.947   8.141 -0.4131  0.8322 -0.1780
  146MOL0     C19587   5.477   4.060   8.113  0.1481  0.1754 -0.1056
  146MOL0     C19588   5.372   4.060   8.224 -0.3984  0.4818 -0.4663
  146MOL0     C19589   5.242   4.110   8.165  0.2334 -0.1556 -0.0165
  146MOL0     C19590   5.123   4.093   8.268 -0.6298  0.1461 -0.7163
  146MOL0     C19591   4.998   4.154   8.213  0.6609 -0.2671 -0.1393
  146MOL0     N19592   5.005   4.289   8.150 -0.2845  0.8117 -0.0259
  146MOL0     C19593   5.057   4.400   8.213  0.3328  0.0694  0.2383
  146MOL0     C19594   5.027   4.500   8.128  0.4018 -0.8308 -0.2056
  146MOL0     C19595   5.065   4.645   8.158 -0.2435 -0.8227  0.5982
  146MOL0     C19596   4.936   4.718   8.181  0.2152 -0.2617  0.4990
  146MOL0     C19597   4.956   4.868   8.186 -0.6618 -0.1792  0.6793
  146MOL0     C19598   4.830   4.948   8.159  1.1412 -0.2535 -0.0529
  146MOL0     O19599   4.733   4.910   8.255 -0.2071  0.1049  0.5596
  146MOL0     C19600   4.615   4.979   8.253 -0.7423 -0.6602 -0.3356
  146MOL0     C19601   4.580   5.078   8.160 -0.7274  1.0119  0.2425
  146MOL0     C19602   4.452   5.137   8.158 -0.0442  0.0751 -1.0694
  146MOL0     C19603   4.433   5.252   8.054  1.1969  0.0764 -1.2471
  146MOL0     C19604   4.361   5.102   8.257 -0.3421  0.2317  0.2569
  146MOL0     C19605   4.214   5.146   8.262  0.1453 -0.5245 -0.0186
  146MOL0     O19606   4.130   5.080   8.342 -0.1775  0.1283 -0.4541
  146MOL0     C19607   3.996   5.099   8.353  0.2739 -0.2385  0.6033
  146MOL0     C19608   3.921   4.982   8.365  0.6433 -0.0663  0.0142
  146MOL0     C19609   3.782   4.998   8.381 -1.0451 -0.6331  0.0422
  146MOL0     C19610   3.719   5.122   8.371 -0.2084  0.0092  0.5866
  146MOL0     O19611   3.580   5.125   8.395 -0.2144 -0.0805  0.3843
  146MOL0     C19612   3.541   5.225   8.484  0.3008  0.4100 -0.1180
  146MOL0     C19613   3.395   5.218   8.494  0.0169  0.0677 -0.1345
  146MOL0     C19614   3.303   5.260   8.378 -0.0401 -0.4473  0.2853
  146MOL0     C19615   3.267   5.144   8.281  0.9642 -0.7953  0.6153
  146MOL0     C19616   3.190   5.201   8.156 -0.3651  0.9491  0.2796
  146MOL0     C19617   3.047   5.253   8.195  0.6666  0.8713  0.3061
  146MOL0     C19618   2.945   5.268   8.074  0.9705 -0.0956  0.6650
  146MOL0     C19619   2.866   5.140   8.041 -0.1473  0.1136  0.0730
  146MOL0    Cl19620   2.751   5.200   7.922 -0.1459 -0.1928 -0.5359
  146MOL0     C19621   3.804   5.235   8.341  0.6542 -0.2382 -0.1791
  146MOL0     C19622   3.945   5.222   8.348 -0.0084  0.3179  0.2037
  146MOL0     O19623   4.183   5.235   8.187  0.7406 -0.3112 -0.1100
  146MOL0     C19624   4.403   5.020   8.359 -0.0251 -0.7565 -0.2652
  146MOL0     C19625   4.531   4.956   8.353  0.5389 -0.1275 -0.6872
  146MOL0     N19626   4.957   4.450   8.019 -0.5674  0.1884  0.1091
  146MOL0     N19627   4.947   4.321   8.031 -0.2198  0.3661  0.3595
  146MOL0     C19628   6.151   3.919   7.994 -0.1008 -0.1695 -0.5075
  146MOL0     C19629   6.269   3.858   7.996 -0.3297  0.2940 -0.1215
  146MOL0     C19630   6.690   3.734   8.064 -0.3460 -0.2616  0.4787
  146MOL0     C19631   6.797   3.787   7.988  0.5384  0.1415  0.0142
  146MOL0     C19632   6.924   3.733   8.010  0.6055  0.5864 -0.0972
  146MOL0     C19633   6.947   3.625   8.100 -0.7564  0.6925  0.0486
  146MOL0     O19634   7.072   3.567   8.108 -0.1814  0.5661  0.2759
  146MOL0     C19635   7.190   3.633   8.056 -1.1816  0.9766  0.0770
  146MOL0     C19636   7.326   3.581   8.104 -1.0120  0.4576  0.9099
  146MOL0     C19637   7.334   3.429   8.088  0.8081 -1.2306 -0.5993
  146MOL0     C19638   7.473   3.372   8.119 -0.1336 -0.0155  0.7938
  146MOL0     C19639   7.529   3.337   7.987  0.7579 -0.2535  0.0432
  146MOL0     C19640   7.587   3.331   7.879  0.5096  1.3406  0.0761
  146MOL0     C19641   6.841   3.567   8.166  0.0599  0.6331  0.3159
  146MOL0     C19642   6.719   3.626   8.149 -0.2428 -0.2696 -1.2436
  146MOL0     H19643   6.247   3.655   8.263 -2.3147 -4.0061 -1.2436
  146MOL0     H19644   6.010   3.748   8.249  0.2114  0.1464  1.0356
  146MOL0     H19645   5.832   3.788   8.113 -0.1136 -0.0852  0.6823
  146MOL0     H19646   5.831   3.908   8.236  2.8942 -2.4095  0.2721
  146MOL0     H19647   5.730   4.073   8.078  0.3729 -0.4491  1.1984
  146MOL0     H19648   5.703   3.947   7.957  0.7731  1.2104 -1.2175
  146MOL0     H19649   5.532   3.849   8.116 -0.5182  0.9433 -0.4412
  146MOL0     H19650   5.597   3.953   8.248 -4.7401  0.1115  0.9880
  146MOL0     H19651   5.518   4.161   8.115  1.2735 -0.2516 -0.6321
  146MOL0     H19652   5.429   4.043   8.016  0.1481 -2.4970  0.2722
  146MOL0     H19653   5.351   3.962   8.266 -4.4510  1.0897 -0.6755
  146MOL0     H19654   5.409   4.113   8.312  1.5677 -1.7365  0.1443
  146MOL0     H19655   5.252   4.217   8.144 -2.1649  0.2270  0.5084
  146MOL0     H19656   5.229   4.061   8.068 -2.5870  0.3649 -0.0030
  146MOL0     H19657   5.102   3.989   8.296  3.6018 -0.3190  1.7295
  146MOL0     H19658   5.156   4.140   8.361  1.9962 -1.1053 -0.9050
  146MOL0     H19659   4.922   4.177   8.288  0.4981 -1.6003  0.1117
  146MOL0     H19660   4.962   4.087   8.135 -0.1218  2.9389 -2.7892
  146MOL0     H19661   5.113   4.410   8.305 -1.7286  2.1672  1.3788
  146MOL0     H19662   5.128   4.664   8.245  0.0052  4.1077 -0.3478
  146MOL0     H19663   5.126   4.685   8.077 -0.8873 -3.3475 -1.2433
  146MOL0     H19664   4.898   4.684   8.278  2.7589 -1.4470  1.1831
  146MOL0     H19665   4.858   4.698   8.108  2.0570 -1.2955 -1.2867
  146MOL0     H19666   5.031   4.892   8.110 -2.4097 -0.6172 -1.2718
  146MOL0     H19667   4.983   4.894   8.288 -2.0831 -2.6329  1.7733
  146MOL0     H19668   4.799   4.923   8.057  1.7528  0.2196 -0.3628
  146MOL0     H19669   4.857   5.053   8.172  1.0571  0.0127 -1.7673
  146MOL0     H19670   4.658   5.109   8.091 -0.5541  0.2578  0.0887
  146MOL0     H19671   4.350   5.237   7.984  1.2689  2.8609 -2.0743
  146MOL0     H19672   4.407   5.348   8.101 -0.5223  0.5199 -2.9913
  146MOL0     H19673   4.528   5.272   8.005  2.9295 -1.0868  1.4292
  146MOL0     H19674   3.977   4.891   8.382  2.0540  1.1782  2.5265
  146MOL0     H19675   3.707   4.920   8.396 -1.5096 -0.1831  0.0800
  146MOL0     H19676   3.571   5.200   8.586 -4.6140  0.7044  1.6787
  146MOL0     H19677   3.560   5.327   8.448  1.8359  0.6848  1.3758
  146MOL0     H19678   3.367   5.118   8.530  0.0765  0.3944  0.8625
  146MOL0     H19679   3.384   5.295   8.571  2.3716  1.0598 -0.7025
  146MOL0     H19680   3.358   5.330   8.313  0.8628 -2.7539 -1.5879
  146MOL0     H19681   3.211   5.305   8.415  1.4719  0.0836  3.7288
  146MOL0     H19682   3.362   5.103   8.247  0.6269 -1.0947  0.0391
  146MOL0     H19683   3.209   5.071   8.338  2.3052 -1.9727  0.5184
  146MOL0     H19684   3.181   5.120   8.083  0.7892  0.4080  0.7086
  146MOL0     H19685   3.246   5.281   8.106  0.9282 -0.2310 -0.2168
  146MOL0     H19686   2.995   5.198   8.274 -1.5817 -0.0888 -1.6825
  146MOL0     H19687   3.067   5.355   8.231  2.4130  0.6135  0.1189
  146MOL0     H19688   3.007   5.306   7.992 -0.3729  2.3564  0.6882
  146MOL0     H19689   2.874   5.344   8.108  0.4209 -0.9120  1.3867
  146MOL0     H19690   2.821   5.094   8.130  1.7260 -2.5254 -0.2132
  146MOL0     H19691   2.934   5.065   7.999 -1.4382 -0.6894 -0.6811
  146MOL0     H19692   3.750   5.328   8.327 -1.0906 -0.8765  1.7788
  146MOL0     H19693   4.006   5.310   8.333 -3.2029  2.4555 -1.3963
  146MOL0     H19694   4.341   5.012   8.448 -0.4441  0.3345 -0.4483
  146MOL0     H19695   4.537   4.883   8.433  0.5397  0.2153 -0.3717
  146MOL0     H19696   6.137   3.984   7.908  2.2063  2.2018  0.7940
  146MOL0     H19697   6.332   3.884   7.912 -0.6402 -3.8831 -1.8878
  146MOL0     H19698   6.787   3.863   7.912 -1.1728  0.6401  0.6846
  146MOL0     H19699   6.998   3.776   7.944  0.3717 -0.3894 -1.0216
  146MOL0     H19700   7.184   3.625   7.947 -1.4726 -1.0207  0.2019
  146MOL0     H19701   7.182   3.740   8.081 -0.1692  1.5491 -1.8898
  146MOL0     H19702   7.353   3.614   8.204 -0.5400  2.3813  0.1977
  146MOL0     H19703   7.405   3.624   8.041  1.1497 -1.4122  2.2066
  146MOL0     H19704   7.292   3.402   7.991  1.4953  2.8660 -2.2471
  146MOL0     H19705   7.265   3.392   8.165 -0.6271 -2.2721 -2.2985
  146MOL0     H19706   7.477   3.297   8.199  1.0584 -0.3168  0.4746
  146MOL0     H19707   7.540   3.452   8.153  1.4831 -0.2154 -1.7204
  146MOL0     H19708   7.642   3.344   7.788 -0.5778  0.6723 -0.6994
  146MOL0     H19709   6.859   3.481   8.230 -0.6611  0.1320 -0.1487
  146MOL0     H19710   6.641   3.576   8.206 -0.2471 -1.9630 -2.6320
  147MOL0     O19711   2.137   6.717   1.534 -0.4674 -0.0533 -0.0380
  147MOL0     C19712   2.247   6.770   1.552 -0.2114  0.0119  0.2123
  147MOL0     O19713   2.313   6.851   1.472 -0.3364 -0.4841  0.7008
  147MOL0     C19714   2.269   6.866   1.342 -0.3316 -0.3142  0.2504
  147MOL0     C19715   2.370   6.897   1.241  0.3437 -0.3106  0.4610
  147MOL0     C19716   2.345   6.921   1.109  0.0776  0.7513 -0.1040
  147MOL0     C19717   2.213   6.919   1.065  0.7602  0.7128  0.5863
  147MOL0     O19718   2.196   6.951   0.934  0.1338  0.3206 -0.2685
  147MOL0     C19719   2.074   7.016   0.891 -0.2595 -0.0826  0.2489
  147MOL0     C19720   2.098   7.119   0.783  0.1368  0.2257 -0.0028
  147MOL0     C19721   2.191   7.232   0.831 -0.3493 -0.4423 -0.6368
  147MOL0     C19722   2.212   7.352   0.731 -0.5622  0.0897 -0.3384
  147MOL0     C19723   2.297   7.307   0.613 -0.2194  0.2475 -0.4919
  147MOL0     C19724   2.450   7.290   0.646 -0.5498  0.2467 -1.3362
  147MOL0     C19725   2.527   7.264   0.518  0.7189 -0.8106  0.2683
  147MOL0     C19726   2.540   7.389   0.428 -0.3917 -0.1425 -0.0251
  147MOL0     N19727   2.500   7.360   0.289 -0.1349  0.2540 -0.5350
  147MOL0     C19728   2.375   7.327   0.239  0.0496  0.1296 -0.3236
  147MOL0     C19729   2.403   7.331   0.102  0.4073  0.4924 -0.7914
  147MOL0     C19730   2.308   7.293  -0.011 -0.3361 -0.4698  0.4023
  147MOL0     C19731   2.235   7.417  -0.063 -0.4638 -0.8314 -0.0996
  147MOL0     C19732   2.131   7.378  -0.175 -0.0521  1.2370 -0.2270
  147MOL0     C19733   2.041   7.498  -0.206  0.0457 -0.1595  0.1908
  147MOL0     O19734   1.995   7.494  -0.342 -0.3233 -0.3608 -1.2292
  147MOL0     C19735   2.077   7.526  -0.446 -0.5756  0.0026 -0.5223
  147MOL0     C19736   2.018   7.531  -0.569 -0.6003  0.1127 -0.2402
  147MOL0     C19737   2.095   7.566  -0.683  0.0943  0.6032 -0.6924
  147MOL0     C19738   2.027   7.557  -0.819 -0.1831 -0.8090  0.0428
  147MOL0     C19739   2.225   7.607  -0.667 -0.5798  0.0041  0.0564
  147MOL0     C19740   2.321   7.633  -0.779 -0.0177 -0.6078  0.1355
  147MOL0     O19741   2.445   7.586  -0.774  0.0492 -0.3041 -0.6440
  147MOL0     C19742   2.545   7.638  -0.851 -0.1689  0.6827  0.1796
  147MOL0     C19743   2.665   7.681  -0.799  0.0974  1.4872 -0.4619
  147MOL0     C19744   2.768   7.747  -0.870 -0.5395 -0.9681  0.4993
  147MOL0     C19745   2.745   7.762  -1.009  0.3766 -0.3999  1.1952
  147MOL0     O19746   2.842   7.818  -1.100  0.2109  0.4761 -0.5475
  147MOL0     C19747   2.886   7.951  -1.076  1.0645 -0.0033 -0.4057
  147MOL0     C19748   2.985   7.993  -1.182 -0.2522 -0.0557  0.6083
  147MOL0     C19749   3.026   8.134  -1.151 -1.3157  0.6435 -0.1515
  147MOL0     C19750   3.153   8.157  -1.075 -0.0799  0.8644  0.3781
  147MOL0     C19751   3.151   8.307  -1.034  0.2345 -0.0989 -1.2639
  147MOL0     C19752   3.273   8.354  -0.957  0.0693 -0.2452  0.3806
  147MOL0     C19753   3.412   8.319  -1.014  0.0130 -0.6476  0.3247
  147MOL0     C19754   3.434   8.355  -1.168 -0.0912 -0.0773  0.6213
  147MOL0    Cl19755   3.420   8.537  -1.203  0.5443  0.1967 -0.3387
  147MOL0     C19756   2.626   7.725  -1.063 -0.1567 -0.1904  0.1890
  147MOL0     C19757   2.528   7.665  -0.989  0.1860  0.5475 -0.2934
  147MOL0     O19758   2.281   7.723  -0.856  1.1699 -0.2500  0.2134
  147MOL0     C19759   2.276   7.617  -0.540  0.0648 -0.2145 -0.4343
  147MOL0     C19760   2.205   7.562  -0.426 -0.1140 -0.9879 -0.0870
  147MOL0     N19761   2.542   7.339   0.076 -0.3764  1.0943  0.2110
  147MOL0     N19762   2.593   7.348   0.194 -0.1084  0.6053  0.0519
  147MOL0     C19763   2.115   6.894   1.159  0.1844 -0.6162  0.5141
  147MOL0     C19764   2.139   6.871   1.294 -0.0489  0.3775  0.4067
  147MOL0     C19765   2.300   6.760   1.686 -0.7259 -0.9022 -0.0347
  147MOL0     C19766   2.440   6.782   1.711  0.4329 -0.0668 -0.4016
  147MOL0     C19767   2.496   6.755   1.841 -0.9052  0.2843  0.4511
  147MOL0     C19768   2.418   6.691   1.936 -0.2064  0.0705  0.3782
  147MOL0     O19769   2.484   6.664   2.053  0.6822 -0.2132  0.1303
  147MOL0     C19770   2.395   6.646   2.171 -0.7818 -0.0564 -0.1051
  147MOL0     C19771   2.489   6.634   2.286 -0.6944 -0.3754  0.0613
  147MOL0     C19772   2.429   6.627   2.421 -0.6373 -0.1501 -0.3536
  147MOL0     C19773   2.539   6.554   2.509 -0.9868  0.5267 -0.6373
  147MOL0     C19774   2.638   6.644   2.561 -0.2351 -0.4719 -0.3111
  147MOL0     C19775   2.732   6.717   2.608  0.5484  0.2622 -0.1233
  147MOL0     C19776   2.282   6.681   1.919  0.2339  0.9410  0.1577
  147MOL0     C19777   2.226   6.719   1.799 -0.2473  0.6790 -0.0244
  147MOL0     H19778   2.472   6.892   1.277  0.8293  1.3636 -0.5531
  147MOL0     H19779   2.423   6.945   1.038 -0.8781  2.5515 -0.6001
  147MOL0     H19780   2.009   6.940   0.845  1.3419 -1.4118  0.0943
  147MOL0     H19781   2.023   7.053   0.980  2.5199 -1.0430  2.3925
  147MOL0     H19782   2.145   7.065   0.700  0.9022  0.6682  0.1267
  147MOL0     H19783   2.007   7.157   0.736  1.8992  2.6919 -1.7176
  147MOL0     H19784   2.151   7.286   0.917  1.0685 -0.2798 -0.0624
  147MOL0     H19785   2.289   7.193   0.861  0.1773  1.2887 -0.0200
  147MOL0     H19786   2.113   7.381   0.697 -0.0209  2.2145 -0.2268
  147MOL0     H19787   2.268   7.433   0.778  2.2915 -1.5493 -0.6300
  147MOL0     H19788   2.260   7.217   0.563 -2.0892  0.7359 -0.1021
  147MOL0     H19789   2.286   7.392   0.545 -4.2193  1.3159  1.1840
  147MOL0     H19790   2.478   7.378   0.704  1.3439 -0.1193 -1.6268
  147MOL0     H19791   2.469   7.209   0.718 -1.1742  3.0809  2.3521
  147MOL0     H19792   2.634   7.244   0.531  1.1945 -0.6496 -2.6698
  147MOL0     H19793   2.479   7.182   0.464 -2.4210  0.7428  0.4313
  147MOL0     H19794   2.642   7.425   0.415 -0.4659  0.2934  0.5258
  147MOL0     H19795   2.495   7.479   0.472  2.2412  0.1432  2.3506
  147MOL0     H19796   2.281   7.297   0.283  0.1118 -2.1683 -1.6186
  147MOL0     H19797   2.364   7.241  -0.089 -0.5923 -0.6563  0.3432
  147MOL0     H19798   2.235   7.218   0.020  0.3381 -0.3633  2.3919
  147MOL0     H19799   2.295   7.489  -0.121 -4.2231  2.9139  0.1463
  147MOL0     H19800   2.184   7.471   0.018  0.0657  2.7149 -1.9105
  147MOL0     H19801   2.063   7.299  -0.140 -1.1720  2.0681 -0.4658
  147MOL0     H19802   2.184   7.349  -0.267 -1.2687 -2.1557 -0.0191
  147MOL0     H19803   2.097   7.591  -0.192  0.6284 -0.5310  0.4086
  147MOL0     H19804   1.962   7.496  -0.131  2.5432  0.8384  3.0979
  147MOL0     H19805   1.915   7.498  -0.575 -0.3721 -0.4738 -0.9798
  147MOL0     H19806   2.086   7.517  -0.902 -2.0129  0.1954 -1.8102
  147MOL0     H19807   1.946   7.484  -0.811  0.9434 -2.2604 -1.0599
  147MOL0     H19808   1.977   7.650  -0.846  1.8185  0.9584  1.9537
  147MOL0     H19809   2.669   7.665  -0.692 -0.7242  0.7374 -0.5345
  147MOL0     H19810   2.847   7.802  -0.820  0.9275 -2.3958 -0.1706
  147MOL0     H19811   2.804   8.023  -1.068  0.5719 -0.7590  2.5454
  147MOL0     H19812   2.931   7.958  -0.977  2.0669  0.3452 -0.8780
  147MOL0     H19813   3.072   7.927  -1.190 -0.0467 -0.1054  2.7644
  147MOL0     H19814   2.934   7.996  -1.279 -0.0022  0.6760  0.4885
  147MOL0     H19815   2.945   8.184  -1.098 -1.4814  0.4752 -0.2442
  147MOL0     H19816   3.033   8.182  -1.249  0.5722  0.3246 -0.2251
  147MOL0     H19817   3.157   8.101  -0.981 -0.8178 -0.7866 -0.5368
  147MOL0     H19818   3.245   8.140  -1.131 -1.4993  1.1341 -2.1666
  147MOL0     H19819   3.072   8.332  -0.962  0.5991  0.3417 -1.0128
  147MOL0     H19820   3.130   8.371  -1.121 -0.9254 -0.7073 -1.4467
  147MOL0     H19821   3.270   8.464  -0.953  1.1666  0.0885 -3.4733
  147MOL0     H19822   3.269   8.317  -0.854  3.8218  0.0311  0.7671
  147MOL0     H19823   3.428   8.211  -1.008  0.4240 -0.5340  1.8547
  147MOL0     H19824   3.493   8.370  -0.961 -0.3977  0.6632 -0.2926
  147MOL0     H19825   3.363   8.294  -1.224  1.1416  1.3699 -2.8404
  147MOL0     H19826   3.531   8.326  -1.211 -0.1264 -0.4835  0.8098
  147MOL0     H19827   2.600   7.740  -1.167  0.0283 -4.3571 -0.6174
  147MOL0     H19828   2.436   7.640  -1.042  0.2647 -1.6162  0.4814
  147MOL0     H19829   2.378   7.650  -0.523 -0.2229  0.7205 -0.4721
  147MOL0     H19830   2.254   7.575  -0.331  0.4619 -0.6245 -0.4259
  147MOL0     H19831   2.009   6.890   1.134 -0.1168  0.0414  1.6644
  147MOL0     H19832   2.054   6.849   1.358 -1.6649 -0.3461 -1.8485
  147MOL0     H19833   2.507   6.810   1.630  1.3262 -0.0347  0.3337
  147MOL0     H19834   2.603   6.750   1.861 -0.6718  1.5175 -0.3644
  147MOL0     H19835   2.354   6.745   2.193  0.5405  0.4593  0.1446
  147MOL0     H19836   2.330   6.560   2.155  1.5434 -1.3608 -3.5300
  147MOL0     H19837   2.559   6.718   2.290 -2.1660  0.8515  2.2920
  147MOL0     H19838   2.537   6.538   2.266  0.8293  0.0124  1.5702
  147MOL0     H19839   2.337   6.570   2.432 -0.0027 -0.7232  3.5661
  147MOL0     H19840   2.416   6.722   2.474 -1.5395 -0.7330  0.5061
  147MOL0     H19841   2.583   6.468   2.459 -0.4477  0.9535 -0.9148
  147MOL0     H19842   2.482   6.516   2.594 -1.4504  1.7259 -0.3912
  147MOL0     H19843   2.797   6.786   2.659 -0.4128 -0.1890  1.8099
  147MOL0     H19844   2.224   6.629   1.995  0.5115 -0.6797 -0.7047
  147MOL0     H19845   2.119   6.708   1.781  0.0039  1.1971 -2.0782
  148MOL0     O19846   6.088   6.832   4.722  0.2030  0.3891 -0.4643
  148MOL0     C19847   5.972   6.871   4.731  0.0854  0.4445  0.8957
  148MOL0     O19848   5.935   6.980   4.796 -0.5085 -0.9592 -0.6046
  148MOL0     C19849   6.029   7.037   4.881  1.0064 -0.4219  0.5347
  148MOL0     C19850   6.148   7.095   4.828  0.7533  0.2515  0.3583
  148MOL0     C19851   6.230   7.179   4.908  0.0570  0.5765 -0.4689
  148MOL0     C19852   6.191   7.204   5.044 -0.9589 -0.5870  0.2166
  148MOL0     O19853   6.283   7.285   5.110  0.8563  0.2277 -0.8274
  148MOL0     C19854   6.317   7.236   5.235  1.0743  0.4067 -0.6701
  148MOL0     C19855   6.391   7.095   5.227 -0.8339  0.9308 -0.1676
  148MOL0     C19856   6.517   7.103   5.125 -0.4481 -0.0065 -1.1757
  148MOL0     C19857   6.636   7.002   5.167  0.4697 -0.3919  0.1886
  148MOL0     C19858   6.735   7.002   5.042 -0.0576  0.6996 -0.9145
  148MOL0     C19859   6.855   6.908   5.063  0.7926 -0.1434  0.1658
  148MOL0     C19860   6.926   6.899   4.932 -0.4422 -0.3165  0.1079
  148MOL0     C19861   7.052   6.822   4.933  0.6312 -0.7787 -0.1346
  148MOL0     N19862   7.027   6.681   4.976  0.4398 -0.1805  0.5111
  148MOL0     C19863   6.949   6.588   4.906  0.7041 -0.6281  0.3039
  148MOL0     C19864   6.936   6.477   4.982 -0.6319 -1.0156  0.4550
  148MOL0     C19865   6.847   6.354   4.957  1.0920  0.2641 -0.1895
  148MOL0     C19866   6.698   6.387   4.962 -0.2849 -0.4284 -0.6898
  148MOL0     C19867   6.609   6.261   4.953 -0.8061 -0.4193 -0.7147
  148MOL0     C19868   6.461   6.301   4.943 -0.5129 -0.3231  0.2407
  148MOL0     O19869   6.374   6.192   4.973  0.2565 -0.4461 -0.0943
  148MOL0     C19870   6.238   6.210   4.955  0.2830  0.4513  0.7245
  148MOL0     C19871   6.163   6.096   4.958 -0.2424 -0.1765  0.7113
  148MOL0     C19872   6.030   6.088   4.947 -0.1757  0.5188 -0.0392
  148MOL0     C19873   5.960   5.952   4.962  0.1948 -0.8352 -0.7677
  148MOL0     C19874   5.957   6.197   4.893 -0.8004 -0.0970  0.0782
  148MOL0     C19875   5.813   6.205   4.855  0.2209  0.1312 -0.2630
  148MOL0     O19876   5.748   6.321   4.882  0.1452 -0.6473  0.7045
  148MOL0     C19877   5.621   6.349   4.844  0.8558  0.1765 -0.3806
  148MOL0     C19878   5.519   6.249   4.835  0.5714 -0.6029 -0.0436
  148MOL0     C19879   5.393   6.290   4.793 -0.3773  0.0704 -0.4475
  148MOL0     C19880   5.355   6.415   4.756  0.3104 -0.0546 -0.1248
  148MOL0     O19881   5.228   6.446   4.728 -0.2263 -0.2001  0.3488
  148MOL0     C19882   5.182   6.578   4.697 -0.8244 -0.8959 -0.0378
  148MOL0     C19883   5.029   6.578   4.677  0.1335 -0.0511 -0.2214
  148MOL0     C19884   4.949   6.503   4.790  0.8096 -0.2768 -0.6412
  148MOL0     C19885   4.951   6.579   4.927 -0.4416  0.1212 -0.1122
  148MOL0     C19886   4.854   6.494   5.018  0.2136 -0.5903  0.5269
  148MOL0     C19887   4.839   6.563   5.152 -0.2011 -0.9655 -1.3298
  148MOL0     C19888   4.742   6.488   5.246 -0.1820 -0.8008 -0.0334
  148MOL0     C19889   4.674   6.597   5.328  0.5059  0.3199 -0.5028
  148MOL0    Cl19890   4.616   6.537   5.482  0.1497  0.2658  0.2656
  148MOL0     C19891   5.460   6.513   4.780 -0.4316  0.0846 -0.1239
  148MOL0     C19892   5.586   6.479   4.825 -0.0420  0.2588 -0.0127
  148MOL0     O19893   5.773   6.116   4.783 -0.1686  0.8465 -0.3502
  148MOL0     C19894   6.024   6.320   4.894  0.1520 -0.0917  0.2609
  148MOL0     C19895   6.162   6.329   4.933 -0.0581 -0.3382 -0.1550
  148MOL0     N19896   7.021   6.501   5.088 -0.6248 -0.0646 -0.2475
  148MOL0     N19897   7.075   6.618   5.091  0.5930  0.2194  0.5114
  148MOL0     C19898   6.066   7.160   5.084 -0.0926 -0.6010 -0.1387
  148MOL0     C19899   5.989   7.081   5.005 -0.1206 -0.0103  0.1173
  148MOL0     C19900   5.866   6.806   4.659  0.7450 -0.3702 -0.2140
  148MOL0     C19901   5.728   6.857   4.642 -0.6131 -0.1066  0.0987
  148MOL0     C19902   5.636   6.779   4.584  0.3714  0.1553 -0.8428
  148MOL0     C19903   5.661   6.654   4.523  0.2556  0.2333 -0.2832
  148MOL0     O19904   5.551   6.585   4.473 -0.7829 -0.8272  0.2394
  148MOL0     C19905   5.572   6.451   4.427  0.0796  0.3166 -0.5168
  148MOL0     C19906   5.441   6.380   4.391  0.0284  0.1507  0.2686
  148MOL0     C19907   5.493   6.247   4.324 -0.0167 -0.0132  0.1269
  148MOL0     C19908   5.526   6.123   4.424  0.6465  0.1989  0.1272
  148MOL0     C19909   5.396   6.080   4.484 -0.2086  0.1546 -0.5180
  148MOL0     C19910   5.298   6.024   4.537 -0.3787 -0.6649 -0.1549
  148MOL0     C19911   5.788   6.606   4.542 -0.2418  0.7959  1.1210
  148MOL0     C19912   5.886   6.678   4.606 -0.1286 -0.3124 -1.1470
  148MOL0     H19913   6.182   7.068   4.729  1.3361 -1.6062  1.0159
  148MOL0     H19914   6.322   7.212   4.862  0.1807 -1.1786 -1.5591
  148MOL0     H19915   6.378   7.313   5.282 -2.2301  2.4527  0.5916
  148MOL0     H19916   6.222   7.231   5.288  0.6493  2.3128 -1.2026
  148MOL0     H19917   6.424   7.064   5.326  1.6180 -0.7954 -1.4203
  148MOL0     H19918   6.307   7.027   5.209 -3.7862  4.3147 -0.2767
  148MOL0     H19919   6.490   7.097   5.019 -0.9012  0.2738 -1.0808
  148MOL0     H19920   6.561   7.203   5.133 -0.7396  0.0001  3.4135
  148MOL0     H19921   6.684   7.046   5.255 -2.6652  2.1034  0.8662
  148MOL0     H19922   6.602   6.898   5.175 -1.2660  0.1201  0.0227
  148MOL0     H19923   6.687   6.965   4.951  1.8314  1.0607 -2.1138
  148MOL0     H19924   6.778   7.099   5.019  0.0039  1.2431  1.2600
  148MOL0     H19925   6.921   6.960   5.133 -2.1085  1.0757  2.1986
  148MOL0     H19926   6.828   6.806   5.091  1.1240 -0.0598  0.8062
  148MOL0     H19927   6.863   6.862   4.850  1.6715  1.3310 -2.4279
  148MOL0     H19928   6.948   7.003   4.906 -0.0647  0.0950  1.9310
  148MOL0     H19929   7.126   6.860   5.003  1.0804  0.3520 -1.1993
  148MOL0     H19930   7.087   6.817   4.829 -0.4894 -1.1838 -0.5171
  148MOL0     H19931   6.901   6.600   4.809  2.2801  1.7363 -0.2609
  148MOL0     H19932   6.877   6.316   4.859  0.8576 -2.6960  0.8006
  148MOL0     H19933   6.874   6.274   5.026  2.1736  1.9335  1.4381
  148MOL0     H19934   6.686   6.461   4.882 -0.8905 -0.0561 -0.2619
  148MOL0     H19935   6.680   6.448   5.051  3.4900  0.8373 -0.5987
  148MOL0     H19936   6.624   6.196   5.039  0.0868 -0.7499 -1.1169
  148MOL0     H19937   6.644   6.211   4.862 -1.4261  2.1503 -2.5085
  148MOL0     H19938   6.440   6.341   4.844  1.0669  1.4328  0.5563
  148MOL0     H19939   6.428   6.379   5.013 -0.7934 -0.4598  0.2642
  148MOL0     H19940   6.222   6.005   4.965  0.0036 -0.2920 -1.9150
  148MOL0     H19941   5.855   5.953   4.991 -0.6311  0.2948 -3.4606
  148MOL0     H19942   5.975   5.885   4.876 -0.5665 -1.9215 -0.0832
  148MOL0     H19943   6.000   5.905   5.052  0.3867  0.0173 -0.3982
  148MOL0     H19944   5.528   6.142   4.850 -1.2324 -1.1503 -2.2675
  148MOL0     H19945   5.313   6.217   4.784 -1.4419  1.1294  0.1940
  148MOL0     H19946   5.210   6.643   4.781 -0.4929 -0.9629 -0.0945
  148MOL0     H19947   5.232   6.626   4.612  0.9197 -0.1514  1.3306
  148MOL0     H19948   4.986   6.676   4.654 -1.4863 -0.8961 -0.9869
  148MOL0     H19949   5.003   6.517   4.589 -0.2017 -2.1515  1.2443
  148MOL0     H19950   4.970   6.397   4.806 -1.7022 -0.7239  0.0626
  148MOL0     H19951   4.849   6.518   4.750 -0.1073 -0.3543  1.4907
  148MOL0     H19952   5.053   6.602   4.958 -1.7906  1.7746  3.7040
  148MOL0     H19953   4.907   6.679   4.913 -1.0936 -0.2356 -0.7066
  148MOL0     H19954   4.886   6.390   5.028  1.5189 -0.2864 -0.2035
  148MOL0     H19955   4.749   6.494   4.987 -0.2678  0.0393  2.0804
  148MOL0     H19956   4.941   6.577   5.188  0.0203  1.4341 -2.7289
  148MOL0     H19957   4.807   6.666   5.136  1.4145 -0.2358 -0.1741
  148MOL0     H19958   4.800   6.424   5.314  0.7610  0.0276 -0.0431
  148MOL0     H19959   4.676   6.424   5.186 -1.5124  0.2431  0.2970
  148MOL0     H19960   4.589   6.640   5.274  0.0847 -0.7188 -0.7065
  148MOL0     H19961   4.744   6.677   5.351 -0.9723  0.8595  2.5897
  148MOL0     H19962   5.439   6.618   4.760  3.2060  1.4483  2.2946
  148MOL0     H19963   5.665   6.554   4.835  1.9274 -1.9197  2.1462
  148MOL0     H19964   5.964   6.409   4.878 -2.3369 -1.9464 -1.4644
  148MOL0     H19965   6.219   6.421   4.942  1.3320 -1.1978  0.2275
  148MOL0     H19966   6.022   7.200   5.175 -3.0004  0.9701 -2.0872
  148MOL0     H19967   5.889   7.058   5.041  0.0702 -0.7513  0.1900
  148MOL0     H19968   5.705   6.957   4.676  0.5738  0.6238 -1.1598
  148MOL0     H19969   5.542   6.833   4.585  1.8904  3.0805  2.3305
  148MOL0     H19970   5.630   6.446   4.335 -1.4735 -6.5182 -1.6281
  148MOL0     H19971   5.622   6.386   4.501  0.9178 -0.5398 -1.7930
  148MOL0     H19972   5.376   6.448   4.334 -1.1893 -0.1158  1.2977
  148MOL0     H19973   5.387   6.345   4.479  1.9074 -0.3127  1.2981
  148MOL0     H19974   5.587   6.257   4.268  0.1998 -2.3862 -0.0620
  148MOL0     H19975   5.418   6.203   4.258 -1.3776 -1.3718  2.4740
  148MOL0     H19976   5.587   6.153   4.509  2.8945 -0.0099 -1.3157
  148MOL0     H19977   5.573   6.038   4.372 -0.8238 -2.1243  2.3874
  148MOL0     H19978   5.211   5.990   4.590  0.8638  0.2625  2.6317
  148MOL0     H19979   5.817   6.510   4.501 -2.0824  0.5422  0.2835
  148MOL0     H19980   5.983   6.630   4.617 -0.6110 -1.1149 -0.3567
  149MOL0     O19981  10.917   1.982   9.324  0.4450  0.1764  0.0117
  149MOL0     C19982  10.872   1.961   9.213 -1.5600 -0.6673 -0.5894
  149MOL0     O19983  10.751   1.916   9.184  0.6406 -0.2590  0.4221
  149MOL0     C19984  10.664   1.872   9.280 -0.0413 -0.3532 -0.0632
  149MOL0     C19985  10.522   1.900   9.265  0.0722  0.3477 -0.3808
  149MOL0     C19986  10.425   1.859   9.356  0.1172 -0.8949 -0.2547
  149MOL0     C19987  10.472   1.792   9.468  0.1066 -0.0612  0.3223
  149MOL0     O19988  10.382   1.747   9.561  0.2008  0.1627 -0.3467
  149MOL0     C19989  10.240   1.750   9.545  0.7739  0.4796  0.4597
  149MOL0     C19990  10.184   1.893   9.563  0.1629 -0.3079  0.1573
  149MOL0     C19991  10.108   1.908   9.694 -0.4335 -0.0399 -0.2124
  149MOL0     C19992   9.954   1.864   9.689  0.0773 -0.2558 -0.4366
  149MOL0     C19993   9.919   1.719   9.647 -0.7781  0.0205  0.6290
  149MOL0     C19994   9.776   1.676   9.686  0.6441  0.6787 -0.6784
  149MOL0     C19995   9.728   1.529   9.639  1.1782 -0.8623 -0.2183
  149MOL0     C19996   9.790   1.423   9.726  0.8039  0.9159 -0.0699
  149MOL0     N19997   9.740   1.290   9.689  0.7201 -1.2763 -0.5070
  149MOL0     C19998   9.768   1.222   9.571  0.5069  0.0729 -0.1510
  149MOL0     C19999   9.701   1.110   9.574  0.6915  0.3035 -1.1502
  149MOL0     C20000   9.696   1.005   9.470 -1.2764 -0.5877 -0.0825
  149MOL0     C20001   9.561   0.987   9.404  0.3675 -0.3602  0.8860
  149MOL0     C20002   9.469   0.901   9.486 -0.3840  0.1848 -0.6994
  149MOL0     C20003   9.349   0.851   9.396 -0.6009 -0.3607 -0.0137
  149MOL0     O20004   9.252   0.799   9.484  0.3602  0.2845 -0.6749
  149MOL0     C20005   9.147   0.734   9.424  0.0898  0.3908 -0.1859
  149MOL0     C20006   9.078   0.643   9.498 -0.4311  0.9000 -1.1135
  149MOL0     C20007   8.978   0.564   9.449 -0.0150 -0.0019 -0.1878
  149MOL0     C20008   8.927   0.453   9.544 -0.1082  0.3669  0.7346
  149MOL0     C20009   8.934   0.573   9.317 -0.7413  0.1410 -0.1236
  149MOL0     C20010   8.840   0.482   9.251 -0.4564  0.1708  0.9191
  149MOL0     O20011   8.819   0.515   9.124  0.8013  0.2741 -0.0239
  149MOL0     C20012   8.723   0.447   9.054  0.3177 -0.1620  0.1445
  149MOL0     C20013   8.762   0.360   8.950 -0.4611  0.0866  0.7787
  149MOL0     C20014   8.663   0.301   8.865 -0.5022 -0.4953  0.1875
  149MOL0     C20015   8.528   0.320   8.894 -0.5598  0.2615  0.3658
  149MOL0     O20016   8.447   0.243   8.811  0.4356 -0.3443 -0.3734
  149MOL0     C20017   8.304   0.246   8.822  0.3565 -0.2655  0.0668
  149MOL0     C20018   8.239   0.225   8.686 -0.3427  0.1426  0.4461
  149MOL0     C20019   8.084   0.232   8.692 -0.3654  0.5195 -0.1613
  149MOL0     C20020   8.011   0.119   8.775 -0.5272  0.2446  0.8067
  149MOL0     C20021   7.863   0.112   8.755  0.4182 -0.3076  0.7118
  149MOL0     C20022   7.815   0.063   8.623 -0.4584 -1.1042 -0.1865
  149MOL0     C20023   7.677   0.111   8.589  1.3862 -0.8201 -0.2166
  149MOL0     C20024   7.627   0.049   8.453 -1.1754  0.0245 -0.3813
  149MOL0    Cl20025   7.607  -0.126   8.469  0.3576 -0.1959  0.2140
  149MOL0     C20026   8.490   0.397   9.004  0.4059  0.7326 -0.1778
  149MOL0     C20027   8.588   0.465   9.076  1.0060 -0.2165  0.1717
  149MOL0     O20028   8.781   0.389   9.309  0.4833 -0.3205 -0.8225
  149MOL0     C20029   9.006   0.664   9.243 -0.2473  0.7643  0.3897
  149MOL0     C20030   9.107   0.745   9.288  0.7051 -0.2599  0.2819
  149MOL0     N20031   9.631   1.100   9.692  0.3498 -0.0586 -0.9119
  149MOL0     N20032   9.658   1.211   9.754 -0.3678 -0.1263  0.3701
  149MOL0     C20033  10.608   1.752   9.487 -0.9001 -0.4019  0.3095
  149MOL0     C20034  10.703   1.788   9.390 -0.0643  0.2056 -0.8723
  149MOL0     C20035  10.971   1.958   9.093  0.7382  0.3060 -0.4073
  149MOL0     C20036  10.928   1.935   8.963  0.2387 -0.7732  1.0575
  149MOL0     C20037  11.016   1.939   8.857  0.1843 -0.2252  0.2702
  149MOL0     C20038  11.155   1.963   8.876 -1.0640 -0.0428 -1.0120
  149MOL0     O20039  11.242   1.957   8.772  1.3608  0.2912 -0.1186
  149MOL0     C20040  11.212   1.942   8.628 -0.1457 -0.1517  0.3433
  149MOL0     C20041  11.351   1.957   8.549  0.0041 -0.4497  0.2223
  149MOL0     C20042  11.321   1.977   8.392 -0.3668  0.4672  0.0250
  149MOL0     C20043  11.444   1.982   8.308 -0.3572 -0.3813  0.1068
  149MOL0     C20044  11.499   1.849   8.288 -0.2129  0.0566  0.1041
  149MOL0     C20045  11.553   1.744   8.250 -0.1905 -0.5580  0.5849
  149MOL0     C20046  11.199   1.984   9.008  0.2383 -0.2064  0.5637
  149MOL0     C20047  11.115   1.978   9.117  0.4176  0.0583 -0.4354
  149MOL0     H20048  10.482   1.954   9.180 -1.2212 -1.4052 -0.9465
  149MOL0     H20049  10.325   1.900   9.343 -0.2708 -1.6762  0.1937
  149MOL0     H20050  10.225   1.726   9.439 -2.5908 -1.5025  1.2364
  149MOL0     H20051  10.190   1.681   9.613  0.7575  2.1383  2.2407
  149MOL0     H20052  10.268   1.963   9.554 -0.1318 -0.2368 -3.4737
  149MOL0     H20053  10.128   1.918   9.472  0.7410 -0.1448 -0.1551
  149MOL0     H20054  10.165   1.859   9.773  1.2533  0.7007 -0.9173
  149MOL0     H20055  10.117   2.014   9.721 -0.7287 -0.7972  3.2495
  149MOL0     H20056   9.925   1.884   9.793 -0.4957 -1.6297 -0.3089
  149MOL0     H20057   9.899   1.938   9.631 -0.2583  0.5156  0.8359
  149MOL0     H20058   9.926   1.712   9.538 -1.0799 -1.7821  0.6969
  149MOL0     H20059   9.986   1.640   9.682  0.3929 -0.4861 -2.4952
  149MOL0     H20060   9.770   1.666   9.794  3.2074  0.8728 -0.4606
  149MOL0     H20061   9.706   1.755   9.659 -1.7930 -1.9686 -2.8739
  149MOL0     H20062   9.620   1.531   9.657  1.1564 -1.3466 -0.2924
  149MOL0     H20063   9.746   1.518   9.531  0.8582  2.5045 -0.7235
  149MOL0     H20064   9.758   1.452   9.826 -1.5596 -0.3713 -0.3732
  149MOL0     H20065   9.899   1.428   9.720  1.0073  0.7917  2.5768
  149MOL0     H20066   9.839   1.256   9.497 -0.3977  0.2799 -0.9525
  149MOL0     H20067   9.767   1.033   9.392 -0.4250 -1.6840  0.2653
  149MOL0     H20068   9.740   0.916   9.516 -0.3401 -0.0927  0.0037
  149MOL0     H20069   9.580   0.929   9.313 -0.4462  0.9720 -0.1667
  149MOL0     H20070   9.522   1.086   9.380 -1.7502 -1.1289  0.9207
  149MOL0     H20071   9.426   0.962   9.566 -0.3789 -2.7768  1.7504
  149MOL0     H20072   9.514   0.810   9.528  1.9280 -0.6263 -4.5054
  149MOL0     H20073   9.383   0.772   9.329  1.2270 -0.7408  1.2700
  149MOL0     H20074   9.305   0.930   9.335 -1.1871 -1.4300 -1.0060
  149MOL0     H20075   9.110   0.620   9.599 -2.2109 -3.7531 -1.3791
  149MOL0     H20076   8.817   0.453   9.552 -0.4082 -1.0110 -2.1630
  149MOL0     H20077   8.954   0.355   9.504 -1.8345 -1.8556  4.5110
  149MOL0     H20078   8.973   0.460   9.642  0.6407 -3.2933  0.7763
  149MOL0     H20079   8.868   0.343   8.938 -1.0417 -2.3765 -1.8084
  149MOL0     H20080   8.691   0.241   8.779  1.5597 -0.4910  0.8175
  149MOL0     H20081   8.267   0.160   8.879 -1.5141 -1.4789 -2.7707
  149MOL0     H20082   8.271   0.342   8.862  0.1255 -0.1139 -0.4863
  149MOL0     H20083   8.264   0.308   8.620 -0.2574 -1.5376 -1.7553
  149MOL0     H20084   8.265   0.130   8.638 -0.6363  0.5430 -0.5407
  149MOL0     H20085   8.044   0.224   8.590 -0.6295  1.5331 -0.1421
  149MOL0     H20086   8.050   0.320   8.747  0.3036  0.0925  0.9505
  149MOL0     H20087   8.045   0.021   8.741 -2.2427  0.1603 -0.8312
  149MOL0     H20088   8.042   0.132   8.880  0.6926 -2.1204  0.8192
  149MOL0     H20089   7.813   0.210   8.759 -2.8136 -1.4423 -3.5922
  149MOL0     H20090   7.812   0.059   8.836 -3.8492  0.8944 -0.8899
  149MOL0     H20091   7.887   0.097   8.548  0.5837  1.9556  2.0165
  149MOL0     H20092   7.806  -0.046   8.627  1.1690 -1.2152  1.8923
  149MOL0     H20093   7.687   0.220   8.579 -0.9329 -0.3667  1.5306
  149MOL0     H20094   7.605   0.103   8.671  1.3826  1.1666  0.0295
  149MOL0     H20095   7.700   0.067   8.374 -1.5339 -0.8733 -0.9334
  149MOL0     H20096   7.541   0.097   8.404 -0.3073  1.1777 -0.8331
  149MOL0     H20097   8.388   0.408   9.041  0.7946 -1.5063  1.7817
  149MOL0     H20098   8.563   0.519   9.167 -0.5142 -0.2405 -0.2001
  149MOL0     H20099   8.997   0.670   9.135  0.0675 -3.7521 -0.0505
  149MOL0     H20100   9.155   0.800   9.208 -0.3316 -0.0545 -0.2137
  149MOL0     H20101  10.646   1.697   9.572 -0.3296 -2.0666 -0.9736
  149MOL0     H20102  10.805   1.750   9.396 -0.3317 -0.2986  1.7220
  149MOL0     H20103  10.822   1.927   8.938 -0.3740  4.6121  0.7770
  149MOL0     H20104  10.985   1.906   8.759  3.0888  0.5597 -1.0185
  149MOL0     H20105  11.167   1.848   8.595 -0.8343  0.3857 -0.2944
  149MOL0     H20106  11.151   2.023   8.587  0.9587 -0.7755 -2.8171
  149MOL0     H20107  11.407   1.863   8.545 -2.5120 -2.1622  1.7991
  149MOL0     H20108  11.413   2.038   8.588  0.7787 -0.9450  0.0246
  149MOL0     H20109  11.279   2.074   8.364  2.0784  1.6805  0.2833
  149MOL0     H20110  11.249   1.901   8.358 -0.5662  0.1681  1.0899
  149MOL0     H20111  11.516   2.055   8.345  0.7003 -2.4391  2.3767
  149MOL0     H20112  11.416   2.016   8.208  2.6613  1.1322 -0.3351
  149MOL0     H20113  11.601   1.662   8.200 -1.0706 -0.4893 -0.4312
  149MOL0     H20114  11.306   1.998   9.021  0.0520  0.8031  1.1012
  149MOL0     H20115  11.144   1.998   9.219 -2.3626 -0.2384  0.4761
  150MOL0     O20116   4.154   3.307   0.734 -0.2193 -0.6564 -0.1186
  150MOL0     C20117   4.212   3.391   0.806  0.5946  0.7133 -0.2067
  150MOL0     O20118   4.158   3.464   0.905 -0.3666 -0.3389 -0.2721
  150MOL0     C20119   4.026   3.454   0.938 -1.2331 -0.0535  0.3703
  150MOL0     C20120   3.935   3.493   0.846  0.2420  0.1169  0.0211
  150MOL0     C20121   3.797   3.482   0.874 -1.0882  0.6834 -0.1054
  150MOL0     C20122   3.741   3.418   0.985 -0.5582 -0.3520 -0.1215
  150MOL0     O20123   3.609   3.395   1.006  0.0858  0.5613 -0.0190
  150MOL0     C20124   3.503   3.477   0.951  0.1771 -0.2200 -0.7119
  150MOL0     C20125   3.377   3.407   0.989  0.0644 -0.3326 -0.5388
  150MOL0     C20126   3.253   3.495   0.981 -0.3796  0.3696 -0.3452
  150MOL0     C20127   3.200   3.542   1.114  0.8236 -0.0065 -0.8258
  150MOL0     C20128   3.081   3.633   1.116  0.1900 -0.1269  0.2668
  150MOL0     C20129   2.947   3.568   1.071  1.1742  0.8224 -0.5998
  150MOL0     C20130   2.838   3.673   1.059  0.0063 -0.3428 -0.0233
  150MOL0     C20131   2.783   3.736   1.188 -0.6341 -0.3847 -0.5414
  150MOL0     N20132   2.746   3.644   1.296  0.1208  0.4828  0.4356
  150MOL0     C20133   2.635   3.562   1.293  0.6652  0.1804 -0.0662
  150MOL0     C20134   2.641   3.483   1.406  0.4402 -0.9833  0.4296
  150MOL0     C20135   2.535   3.396   1.457  0.0923  0.1051  0.2411
  150MOL0     C20136   2.407   3.472   1.509  0.0530  0.3841 -0.4518
  150MOL0     C20137   2.432   3.562   1.633 -1.5223  0.3446  0.6403
  150MOL0     C20138   2.303   3.625   1.694 -0.8330 -0.2899  0.7693
  150MOL0     O20139   2.347   3.756   1.747  0.2234  0.3060 -0.1449
  150MOL0     C20140   2.289   3.809   1.860 -0.6859 -0.9917  0.0181
  150MOL0     C20141   2.357   3.906   1.938 -0.0550 -0.4829 -0.8829
  150MOL0     C20142   2.303   3.964   2.055  0.6200 -0.9022 -0.2282
  150MOL0     C20143   2.380   4.069   2.126 -0.1699  0.1499  0.1837
  150MOL0     C20144   2.177   3.918   2.106 -0.9339  0.0089  0.6799
  150MOL0     C20145   2.116   3.940   2.240 -0.3671 -0.7869 -0.0401
  150MOL0     O20146   1.980   3.910   2.247 -0.2330 -0.4075 -0.0195
  150MOL0     C20147   1.942   3.892   2.381  0.1876 -0.0901  0.0862
  150MOL0     C20148   2.003   3.799   2.469  0.6881 -0.0065 -0.2958
  150MOL0     C20149   1.945   3.776   2.592 -0.6359  0.4523  0.0253
  150MOL0     C20150   1.838   3.844   2.641 -0.8225  0.2226  0.6975
  150MOL0     O20151   1.788   3.801   2.760  0.2833 -0.1388 -0.2191
  150MOL0     C20152   1.698   3.892   2.838 -0.7302  1.4240  0.5191
  150MOL0     C20153   1.666   3.835   2.981  0.0539  1.3832  1.5328
  150MOL0     C20154   1.603   3.944   3.066  0.6090 -0.1189 -0.1255
  150MOL0     C20155   1.455   3.955   3.029 -0.0274  0.0458  0.4284
  150MOL0     C20156   1.400   4.067   3.124  0.6301 -0.1538 -0.5302
  150MOL0     C20157   1.248   4.042   3.155  0.0127 -1.0527 -1.1766
  150MOL0     C20158   1.193   4.163   3.231  0.2634  0.5728 -0.0922
  150MOL0     C20159   1.042   4.159   3.274  0.7145  0.4853  0.1690
  150MOL0    Cl20160   1.024   4.000   3.344 -0.1704  0.1164  0.0607
  150MOL0     C20161   1.778   3.938   2.559 -0.9947  0.0549 -0.1289
  150MOL0     C20162   1.825   3.956   2.429  0.0708  0.5217 -0.4341
  150MOL0     O20163   2.186   3.979   2.332  0.0650 -0.8662  0.0444
  150MOL0     C20164   2.107   3.819   2.022  1.0186 -0.0941 -0.2887
  150MOL0     C20165   2.164   3.770   1.909  0.3878  0.2140  0.9124
  150MOL0     N20166   2.763   3.512   1.462  0.7388  0.4225  0.5050
  150MOL0     N20167   2.825   3.610   1.398  0.1565  0.4772  0.8156
  150MOL0     C20168   3.841   3.366   1.076 -0.1374  0.4374  0.7939
  150MOL0     C20169   3.981   3.387   1.051 -0.1094 -0.3242 -0.6791
  150MOL0     C20170   4.359   3.397   0.790 -0.0987 -0.2063 -0.0036
  150MOL0     C20171   4.449   3.425   0.894  1.0135 -0.2875  0.7226
  150MOL0     C20172   4.584   3.442   0.874  0.1642 -0.3805 -0.2850
  150MOL0     C20173   4.636   3.447   0.752 -0.1822  1.0048 -0.6115
  150MOL0     O20174   4.768   3.485   0.754  0.1707 -0.1945 -0.1403
  150MOL0     C20175   4.834   3.491   0.629 -0.4131 -0.6149  0.3705
  150MOL0     C20176   4.979   3.559   0.636 -0.4613  0.4139  0.0597
  150MOL0     C20177   5.089   3.468   0.689 -0.0789 -0.0994 -0.1929
  150MOL0     C20178   5.215   3.549   0.720 -1.1647 -0.4177 -0.2853
  150MOL0     C20179   5.331   3.470   0.746 -0.2395  0.1332 -0.4439
  150MOL0     C20180   5.438   3.411   0.769 -0.2715 -0.0037  0.6052
  150MOL0     C20181   4.552   3.419   0.639  0.3771  0.5119 -0.7094
  150MOL0     C20182   4.415   3.389   0.663  0.0938 -0.1724 -0.1291
  150MOL0     H20183   3.966   3.541   0.754 -1.7725  3.6861  1.0441
  150MOL0     H20184   3.720   3.534   0.818 -0.7437  0.5717 -0.6837
  150MOL0     H20185   3.514   3.577   0.994 -0.7914  0.2550 -1.5374
  150MOL0     H20186   3.510   3.482   0.842 -0.7192  0.2589 -0.7568
  150MOL0     H20187   3.353   3.323   0.923 -1.4492  1.4394 -2.3754
  150MOL0     H20188   3.384   3.375   1.094 -0.5932  0.8065 -0.1329
  150MOL0     H20189   3.280   3.582   0.920  1.9729 -1.6637 -2.4423
  150MOL0     H20190   3.178   3.434   0.930  0.0532 -0.3155 -0.1823
  150MOL0     H20191   3.168   3.456   1.173  0.0627  0.3011 -0.7883
  150MOL0     H20192   3.276   3.602   1.166 -0.8262  2.0940 -0.7023
  150MOL0     H20193   3.069   3.689   1.209  0.7401  0.6546 -0.1168
  150MOL0     H20194   3.103   3.710   1.041  0.7927 -0.5567  0.0039
  150MOL0     H20195   2.959   3.498   0.987  0.2808 -1.5485  1.1476
  150MOL0     H20196   2.911   3.495   1.144 -1.5292  3.2528  0.6664
  150MOL0     H20197   2.896   3.754   1.014 -0.3639 -0.0718 -0.0191
  150MOL0     H20198   2.752   3.648   0.997 -1.1224 -0.2612  1.4389
  150MOL0     H20199   2.699   3.803   1.168 -1.3825 -1.0953  0.1871
  150MOL0     H20200   2.858   3.800   1.236 -1.9129 -0.3017  1.4385
  150MOL0     H20201   2.559   3.549   1.216  0.5271  1.2327 -0.1294
  150MOL0     H20202   2.495   3.333   1.377 -1.3187 -0.2903  1.2143
  150MOL0     H20203   2.579   3.338   1.539  0.7553  2.8047  1.9303
  150MOL0     H20204   2.332   3.395   1.530 -0.3995  0.8612 -0.3003
  150MOL0     H20205   2.377   3.529   1.421 -1.6889 -0.9700 -0.8046
  150MOL0     H20206   2.501   3.639   1.599 -0.5868 -0.1189  1.4510
  150MOL0     H20207   2.483   3.500   1.707 -4.5073 -1.0260  1.7023
  150MOL0     H20208   2.266   3.564   1.777 -1.8804 -0.1892  0.3863
  150MOL0     H20209   2.225   3.647   1.620  2.1206  1.4811 -2.0842
  150MOL0     H20210   2.454   3.943   1.908 -0.0881  1.2654  0.9557
  150MOL0     H20211   2.313   4.133   2.183 -0.4783  1.6103 -1.7175
  150MOL0     H20212   2.457   4.025   2.189  1.3674  1.2625 -0.8632
  150MOL0     H20213   2.430   4.122   2.045  1.9484 -3.4295 -1.0780
  150MOL0     H20214   2.097   3.752   2.444  0.0353 -0.7987 -1.3390
  150MOL0     H20215   1.978   3.690   2.649 -3.8634 -0.9446 -0.0162
  150MOL0     H20216   1.749   3.988   2.845 -0.4392  1.6116 -2.7254
  150MOL0     H20217   1.600   3.915   2.794  0.4654  2.5430 -1.7110
  150MOL0     H20218   1.599   3.748   2.979 -0.2488  1.5642  2.8734
  150MOL0     H20219   1.759   3.806   3.031  2.1959 -0.4908 -2.9577
  150MOL0     H20220   1.655   4.038   3.051 -0.6095  1.6658  4.7435
  150MOL0     H20221   1.599   3.924   3.174 -4.9747 -1.2243 -0.2511
  150MOL0     H20222   1.442   3.980   2.923 -2.8381 -0.4570  0.5951
  150MOL0     H20223   1.412   3.857   3.052 -1.8879 -0.0433 -2.7847
  150MOL0     H20224   1.410   4.164   3.076 -0.4235 -1.3435 -3.3920
  150MOL0     H20225   1.451   4.072   3.221 -2.6770 -0.0306  1.3497
  150MOL0     H20226   1.193   4.050   3.061  0.9708  1.6481 -1.6042
  150MOL0     H20227   1.230   3.951   3.213 -2.7260  0.2214  0.2103
  150MOL0     H20228   1.207   4.251   3.167  1.5149  1.4707  1.3572
  150MOL0     H20229   1.252   4.182   3.321  0.3570 -0.8351  0.1547
  150MOL0     H20230   0.970   4.160   3.191  1.7805  0.2120 -0.7858
  150MOL0     H20231   1.024   4.243   3.341 -0.1827 -0.9111  1.7459
  150MOL0     H20232   1.683   3.987   2.577 -1.4782 -0.8580 -0.1277
  150MOL0     H20233   1.762   4.022   2.370  0.8388  0.5167 -1.2969
  150MOL0     H20234   2.008   3.783   2.048  1.0170 -0.1818 -0.4171
  150MOL0     H20235   2.108   3.687   1.867 -1.5770  2.1007 -0.3968
  150MOL0     H20236   3.814   3.308   1.163  0.4072  1.1818  1.4740
  150MOL0     H20237   4.066   3.362   1.115 -2.2447 -0.4533  2.3138
  150MOL0     H20238   4.415   3.426   0.997  0.7679  2.9559  0.7219
  150MOL0     H20239   4.647   3.463   0.960  3.0203 -2.0042 -1.8235
  150MOL0     H20240   4.847   3.393   0.581 -2.0444 -0.0173 -1.4118
  150MOL0     H20241   4.773   3.543   0.555  0.7595  0.4560  0.1253
  150MOL0     H20242   4.968   3.653   0.691  1.9766  0.8734 -0.1380
  150MOL0     H20243   5.008   3.589   0.536 -0.7240 -2.0540 -0.8238
  150MOL0     H20244   5.098   3.391   0.611 -2.4651 -0.6096 -0.0583
  150MOL0     H20245   5.049   3.422   0.779 -2.3270 -0.9839 -1.5585
  150MOL0     H20246   5.196   3.613   0.807 -1.1999 -2.9636  1.7165
  150MOL0     H20247   5.243   3.597   0.626 -2.3603 -0.3413 -0.6187
  150MOL0     H20248   5.515   3.337   0.768  1.1995  1.2098 -4.4146
  150MOL0     H20249   4.583   3.431   0.536 -1.5270  2.2884 -1.1437
  150MOL0     H20250   4.351   3.370   0.577 -0.7987 -1.9631  0.8696
  151MOL0     O20251   5.184   7.719   0.781 -0.8403  0.0472  0.5306
  151MOL0     C20252   5.178   7.721   0.904 -0.6195 -0.1132  0.3887
  151MOL0     O20253   5.279   7.703   0.992 -0.0892 -0.1802 -0.1889
  151MOL0     C20254   5.390   7.625   0.955 -0.5100  0.3152 -0.0079
  151MOL0     C20255   5.398   7.491   0.913  0.2096 -0.2389 -0.4205
  151MOL0     C20256   5.518   7.436   0.879 -0.4511  0.7031  0.1615
  151MOL0     C20257   5.640   7.506   0.910 -0.3479  0.3703  0.4147
  151MOL0     O20258   5.755   7.430   0.886 -0.5543 -0.1482  0.4310
  151MOL0     C20259   5.879   7.494   0.906 -1.0319  0.1139  0.4171
  151MOL0     C20260   6.003   7.400   0.905 -0.4911  0.4104 -0.6422
  151MOL0     C20261   5.967   7.291   0.798 -0.4033  0.6312  0.2124
  151MOL0     C20262   6.076   7.180   0.789  0.2825 -0.5213 -0.6270
  151MOL0     C20263   6.039   7.079   0.679  0.2881  0.9540  0.1519
  151MOL0     C20264   5.920   6.989   0.711 -0.3258 -0.0663 -0.4102
  151MOL0     C20265   5.920   6.872   0.607 -0.0121  0.4719 -0.3439
  151MOL0     C20266   5.848   6.752   0.668  0.2294 -0.2832 -0.1569
  151MOL0     N20267   5.707   6.776   0.660 -0.0405  0.3523 -0.4650
  151MOL0     C20268   5.629   6.837   0.753 -0.5987 -0.2509 -0.4097
  151MOL0     C20269   5.506   6.808   0.714 -0.8134  0.3982  0.8024
  151MOL0     C20270   5.392   6.841   0.804 -0.0727  1.1578 -0.4361
  151MOL0     C20271   5.344   6.982   0.757 -0.1351  0.2452  0.5678
  151MOL0     C20272   5.242   7.026   0.863  0.8856  0.1799  0.1291
  151MOL0     C20273   5.223   7.176   0.864 -0.1506  0.7947  0.7370
  151MOL0     O20274   5.182   7.231   0.739  0.4018  0.2379 -0.1598
  151MOL0     C20275   5.053   7.268   0.738 -0.2074  0.0247  0.1765
  151MOL0     C20276   4.963   7.219   0.647 -0.9696  0.3673  0.5166
  151MOL0     C20277   4.835   7.269   0.637  0.5185 -0.0235  0.7214
  151MOL0     C20278   4.748   7.212   0.526 -0.1252 -0.7962 -0.5065
  151MOL0     C20279   4.792   7.372   0.730  0.2350  0.2304  0.6238
  151MOL0     C20280   4.657   7.435   0.723  0.0022  0.8811  0.0005
  151MOL0     O20281   4.610   7.488   0.846 -0.7820  0.3850  0.3166
  151MOL0     C20282   4.475   7.500   0.880 -0.0862  0.4145  0.5852
  151MOL0     C20283   4.395   7.388   0.870 -0.2412 -0.2180  1.0499
  151MOL0     C20284   4.260   7.406   0.903 -0.2127 -0.0300  0.2744
  151MOL0     C20285   4.209   7.524   0.966  0.6346 -0.1215  0.6730
  151MOL0     O20286   4.079   7.550   0.999 -0.1159  0.5256  0.1107
  151MOL0     C20287   3.993   7.437   0.994  0.4961  0.6999 -0.0235
  151MOL0     C20288   3.856   7.471   1.062 -0.5895  0.3393 -0.4104
  151MOL0     C20289   3.761   7.355   1.043 -0.4519  0.3914 -0.1718
  151MOL0     C20290   3.623   7.378   1.113  0.1393 -0.2774  0.3125
  151MOL0     C20291   3.522   7.256   1.104  0.1954  1.3363  0.1578
  151MOL0     C20292   3.437   7.227   1.228  0.2777 -0.4402 -0.3899
  151MOL0     C20293   3.345   7.100   1.218 -0.0923  0.2366 -0.2089
  151MOL0     C20294   3.242   7.098   1.331  0.5872 -0.4857  0.7724
  151MOL0    Cl20295   3.321   7.064   1.488 -0.4892  0.5367  0.4963
  151MOL0     C20296   4.299   7.635   0.984  0.9827 -0.7581  0.6103
  151MOL0     C20297   4.432   7.620   0.933 -0.1230  0.5654  0.1264
  151MOL0     O20298   4.596   7.443   0.612  0.2586 -0.6544 -0.1055
  151MOL0     C20299   4.881   7.420   0.822 -0.4043  0.7295  0.8981
  151MOL0     C20300   5.010   7.366   0.821  0.5522  0.4551 -0.4898
  151MOL0     N20301   5.505   6.732   0.599  0.6845 -0.1129  0.2456
  151MOL0     N20302   5.628   6.708   0.566 -0.4420  0.0434  0.4460
  151MOL0     C20303   5.630   7.630   0.967 -0.3526 -0.2653 -0.0102
  151MOL0     C20304   5.508   7.693   0.980  0.1448  0.5507 -0.8289
  151MOL0     C20305   5.055   7.760   0.978  0.0419  0.3778 -0.6171
  151MOL0     C20306   5.040   7.707   1.110  0.2602 -0.8281 -0.6329
  151MOL0     C20307   4.917   7.736   1.173 -0.4099  0.5677 -0.3305
  151MOL0     C20308   4.816   7.814   1.117  0.1052 -0.1009 -0.0872
  151MOL0     O20309   4.698   7.847   1.177  0.2664 -0.3711  0.2759
  151MOL0     C20310   4.615   7.735   1.224 -0.3185 -0.0053 -0.6759
  151MOL0     C20311   4.491   7.791   1.279  0.7612  0.4064 -0.3258
  151MOL0     C20312   4.407   7.683   1.347 -0.0159 -0.1597 -0.1310
  151MOL0     C20313   4.303   7.737   1.444 -0.2853  0.1867  1.0500
  151MOL0     C20314   4.176   7.755   1.376  0.5919  0.0601  0.4603
  151MOL0     C20315   4.069   7.788   1.324 -0.1000  0.9952  0.4433
  151MOL0     C20316   4.833   7.867   0.993 -0.6806 -0.2522  0.5559
  151MOL0     C20317   4.951   7.831   0.923 -0.7407 -0.5420  0.0555
  151MOL0     H20318   5.307   7.440   0.883 -1.0323  1.6600 -0.0802
  151MOL0     H20319   5.521   7.341   0.827 -0.8762  1.4556 -1.3178
  151MOL0     H20320   5.901   7.558   0.821 -0.0193  0.5922  1.0191
  151MOL0     H20321   5.880   7.549   1.001 -2.2503 -1.1235  1.1911
  151MOL0     H20322   6.095   7.456   0.889 -0.8475  0.4890 -2.7069
  151MOL0     H20323   6.008   7.339   0.996  2.1263  1.7933  0.2187
  151MOL0     H20324   5.879   7.230   0.822 -0.1256  0.9563  2.2050
  151MOL0     H20325   5.968   7.337   0.699 -1.2574 -1.4328 -0.8178
  151MOL0     H20326   6.174   7.228   0.778  0.0807 -0.4361 -2.3553
  151MOL0     H20327   6.086   7.136   0.889 -0.1449 -0.9292 -0.7638
  151MOL0     H20328   6.030   7.118   0.577 -1.0535  0.4335  0.0571
  151MOL0     H20329   6.122   7.008   0.673 -0.3229  0.2281  0.0389
  151MOL0     H20330   5.925   6.950   0.813 -0.9746 -0.7514 -0.6347
  151MOL0     H20331   5.825   7.044   0.711  1.8568  4.1209 -0.4115
  151MOL0     H20332   5.874   6.909   0.515 -0.3504  2.6177  0.6324
  151MOL0     H20333   6.022   6.840   0.583 -0.4206 -0.4194 -0.9710
  151MOL0     H20334   5.884   6.738   0.771 -1.5529 -1.0329  0.4086
  151MOL0     H20335   5.879   6.668   0.605  1.9037  0.4917 -0.4309
  151MOL0     H20336   5.655   6.893   0.842 -0.4100 -0.2211 -0.4850
  151MOL0     H20337   5.320   6.761   0.783  0.7058  1.0283 -3.0777
  151MOL0     H20338   5.418   6.841   0.910  1.4206 -0.0755 -0.7692
  151MOL0     H20339   5.290   6.984   0.662 -1.2070 -0.1534  1.1462
  151MOL0     H20340   5.428   7.052   0.754 -0.9484  1.2071 -1.2290
  151MOL0     H20341   5.278   7.005   0.964  1.4019 -0.0331 -0.0944
  151MOL0     H20342   5.156   6.962   0.842  1.2961 -0.6450  0.8786
  151MOL0     H20343   5.323   7.209   0.892  0.4984 -2.4602  2.8571
  151MOL0     H20344   5.153   7.201   0.944  0.5231  2.0105  0.9705
  151MOL0     H20345   4.996   7.144   0.576 -1.1809  0.1756  0.6211
  151MOL0     H20346   4.789   7.118   0.489 -2.1882 -1.3340 -1.6216
  151MOL0     H20347   4.652   7.195   0.575 -0.4797 -0.1092 -0.9391
  151MOL0     H20348   4.737   7.290   0.450  0.4255  0.0829  0.2880
  151MOL0     H20349   4.433   7.303   0.814 -0.8324  0.0172  0.2723
  151MOL0     H20350   4.199   7.316   0.895  0.4640 -0.7175  2.2925
  151MOL0     H20351   3.980   7.419   0.887  0.4103 -0.9255  0.2248
  151MOL0     H20352   4.040   7.347   1.036 -0.2789 -0.9383 -2.4631
  151MOL0     H20353   3.867   7.503   1.166 -1.8840  0.0096 -0.1506
  151MOL0     H20354   3.809   7.555   1.011 -2.2743 -1.4409 -1.9581
  151MOL0     H20355   3.810   7.264   1.078  3.3563  1.1870 -2.8128
  151MOL0     H20356   3.754   7.337   0.935 -0.0021  1.6711 -0.4393
  151MOL0     H20357   3.648   7.393   1.218  1.5660  1.5450 -0.2436
  151MOL0     H20358   3.568   7.465   1.075  0.6260  0.0532  0.3594
  151MOL0     H20359   3.570   7.160   1.083 -2.5373 -0.8023  2.7506
  151MOL0     H20360   3.450   7.271   1.024  0.5711  1.4964 -0.1536
  151MOL0     H20361   3.506   7.220   1.313 -0.4503  1.2730  0.4032
  151MOL0     H20362   3.384   7.320   1.252 -0.0122 -0.3390 -1.3794
  151MOL0     H20363   3.406   7.011   1.234 -1.2349 -0.0681  3.3951
  151MOL0     H20364   3.288   7.103   1.125 -0.5097  4.0197  0.0092
  151MOL0     H20365   3.171   7.019   1.308  0.0714  0.4070 -0.8988
  151MOL0     H20366   3.187   7.193   1.327  1.8719  0.2925 -2.8284
  151MOL0     H20367   4.264   7.729   1.026  1.3165  2.2839 -4.9772
  151MOL0     H20368   4.498   7.703   0.953  0.5348 -0.0446  0.5444
  151MOL0     H20369   4.857   7.486   0.904  0.0877  2.5015 -0.3106
  151MOL0     H20370   5.067   7.420   0.896 -1.3933  1.0103  0.6730
  151MOL0     H20371   5.715   7.694   0.988 -0.0850 -0.1702 -1.3307
  151MOL0     H20372   5.500   7.798   1.007 -3.5070  0.5895 -1.6350
  151MOL0     H20373   5.109   7.635   1.153  3.1966  2.7263  1.1054
  151MOL0     H20374   4.902   7.670   1.258  1.3764 -2.2151 -2.0147
  151MOL0     H20375   4.597   7.653   1.154  0.4555  0.3240 -1.2784
  151MOL0     H20376   4.675   7.688   1.302  0.0347 -1.4058 -1.7416
  151MOL0     H20377   4.432   7.835   1.198 -0.7724  1.6957  1.4158
  151MOL0     H20378   4.510   7.870   1.353 -3.2255 -0.4058  1.8576
  151MOL0     H20379   4.479   7.620   1.400  0.5872 -0.5177 -1.3459
  151MOL0     H20380   4.363   7.613   1.275 -1.2170  0.7078 -0.2694
  151MOL0     H20381   4.321   7.827   1.503 -0.6092  0.8662  0.1277
  151MOL0     H20382   4.283   7.648   1.505  0.8250  1.0813  2.8142
  151MOL0     H20383   3.974   7.806   1.278  1.3278  0.6146 -2.8932
  151MOL0     H20384   4.766   7.928   0.933  0.1251 -0.8500 -1.0120
  151MOL0     H20385   4.975   7.876   0.827 -0.3106  1.9984  1.2633
  152MOL0     O20386  10.016   8.366  11.117 -0.3637  0.1170  0.6039
  152MOL0     C20387  10.136   8.389  11.102  0.0948  0.3864 -0.0681
  152MOL0     O20388  10.220   8.322  11.019 -0.5966  0.4119 -0.7298
  152MOL0     C20389  10.180   8.208  10.948 -0.3777 -0.3305  0.1267
  152MOL0     C20390  10.080   8.111  10.978 -0.3358  0.3719 -0.2200
  152MOL0     C20391  10.054   8.001  10.899 -0.7078 -0.7421  0.0672
  152MOL0     C20392  10.144   7.975  10.787  0.9294  0.7331  1.0026
  152MOL0     O20393  10.120   7.864  10.711 -0.6609  0.9241 -0.3408
  152MOL0     C20394  10.100   7.884  10.570 -0.2630  0.7772  0.5891
  152MOL0     C20395   9.987   7.778  10.541 -0.7093  0.5908  0.4226
  152MOL0     C20396  10.029   7.637  10.585 -0.2813  0.0285 -0.3901
  152MOL0     C20397   9.915   7.544  10.548 -0.7329  0.9978 -0.8564
  152MOL0     C20398   9.960   7.393  10.569 -0.2973 -0.0807  0.2958
  152MOL0     C20399   9.840   7.290  10.547  0.0181 -0.4743  1.0800
  152MOL0     C20400   9.905   7.149  10.553 -0.6855 -0.6875 -0.6498
  152MOL0     C20401   9.804   7.041  10.539  0.3194 -0.2503 -0.5923
  152MOL0     N20402   9.765   6.991  10.408  0.1693  0.9551 -0.8947
  152MOL0     C20403   9.693   7.064  10.312 -0.4733 -0.3587  0.3089
  152MOL0     C20404   9.655   6.975  10.217 -0.4569  0.2981 -0.7974
  152MOL0     C20405   9.564   7.007  10.104  0.6443  0.1987  0.0500
  152MOL0     C20406   9.482   6.885  10.069  0.2259 -0.6892 -0.4321
  152MOL0     C20407   9.474   6.882   9.915  0.7679 -0.5146  0.1135
  152MOL0     C20408   9.394   6.772   9.853  0.1010 -0.1249  0.2364
  152MOL0     O20409   9.343   6.794   9.718 -0.6272 -0.2483  0.9037
  152MOL0     C20410   9.210   6.757   9.691 -0.3107 -0.1917  0.9817
  152MOL0     C20411   9.114   6.846   9.643 -0.5630 -0.3427 -0.0171
  152MOL0     C20412   8.986   6.797   9.616 -0.4942  0.1053 -0.6320
  152MOL0     C20413   8.887   6.904   9.578 -0.3510  0.2868  0.2072
  152MOL0     C20414   8.963   6.651   9.621  1.7136 -0.6781 -0.6232
  152MOL0     C20415   8.834   6.584   9.574 -1.2485  0.5015 -1.1679
  152MOL0     O20416   8.726   6.658   9.584 -0.6889  0.2699  0.7503
  152MOL0     C20417   8.617   6.603   9.539  0.4741 -0.5602  0.5999
  152MOL0     C20418   8.519   6.574   9.628  0.4774  0.7516  0.3270
  152MOL0     C20419   8.391   6.542   9.592 -0.2709  0.0221 -0.0285
  152MOL0     C20420   8.358   6.536   9.453 -1.1967 -0.5135  0.2487
  152MOL0     O20421   8.236   6.500   9.393 -0.1958 -0.4479 -0.1195
  152MOL0     C20422   8.122   6.478   9.478 -1.0143 -0.3698 -0.5481
  152MOL0     C20423   7.996   6.444   9.395  0.3885  0.6146 -0.3025
  152MOL0     C20424   7.877   6.463   9.491  0.4232  0.8148  0.0079
  152MOL0     C20425   7.750   6.413   9.424  0.1863  0.7939 -0.4987
  152MOL0     C20426   7.629   6.441   9.516 -0.1050  0.1380  0.1751
  152MOL0     C20427   7.496   6.464   9.444 -0.3950  0.0826 -0.1154
  152MOL0     C20428   7.387   6.475   9.561  0.0916  0.0236 -0.2727
  152MOL0     C20429   7.246   6.455   9.519  0.9557  0.4814 -0.2198
  152MOL0    Cl20430   7.193   6.547   9.379 -0.0446 -0.1784  0.0135
  152MOL0     C20431   8.458   6.565   9.364  0.0135 -0.8224 -0.4732
  152MOL0     C20432   8.588   6.607   9.398  0.3101 -0.3095 -0.5392
  152MOL0     O20433   8.843   6.459   9.535 -0.5630 -0.8814  0.2644
  152MOL0     C20434   9.066   6.568   9.670 -0.4410  0.2381  0.3379
  152MOL0     C20435   9.188   6.618   9.699  0.4337  0.6299  0.5937
  152MOL0     N20436   9.707   6.848  10.256  0.5828  0.1860  0.1275
  152MOL0     N20437   9.764   6.856  10.367  0.4624 -0.7722 -0.0871
  152MOL0     C20438  10.249   8.064  10.758 -0.1792 -0.5469  1.0155
  152MOL0     C20439  10.257   8.188  10.828 -0.7932  0.7836 -0.1315
  152MOL0     C20440  10.191   8.514  11.157 -0.2852 -0.2442 -0.3984
  152MOL0     C20441  10.104   8.612  11.209 -0.1737  0.5776  0.2926
  152MOL0     C20442  10.159   8.734  11.246 -0.8295 -0.4114 -0.3668
  152MOL0     C20443  10.295   8.763  11.238  0.3953  0.4125 -0.8700
  152MOL0     O20444  10.346   8.878  11.275  0.6954 -0.5248 -0.2717
  152MOL0     C20445  10.350   8.981  11.175 -0.4535  0.7662  0.0435
  152MOL0     C20446  10.412   9.107  11.234  0.9972  0.7499 -0.1539
  152MOL0     C20447  10.554   9.088  11.296  0.7554  0.1078  0.6463
  152MOL0     C20448  10.589   9.207  11.393  0.7637 -0.1480  0.4017
  152MOL0     C20449  10.608   9.334  11.322 -0.5218  0.3892 -1.5485
  152MOL0     C20450  10.630   9.444  11.281 -0.3271  0.6155 -0.2682
  152MOL0     C20451  10.380   8.662  11.197  0.2163 -0.0573 -0.6921
  152MOL0     C20452  10.327   8.543  11.153 -0.4400  0.5157  0.0923
  152MOL0     H20453  10.016   8.132  11.064 -0.6034  1.6049 -0.7103
  152MOL0     H20454   9.974   7.936  10.931 -1.4994  0.5933  0.9046
  152MOL0     H20455  10.073   7.987  10.545  0.1034  1.5120  3.0314
  152MOL0     H20456  10.188   7.850  10.515 -1.4048 -2.0559  0.3566
  152MOL0     H20457   9.913   7.805  10.616  0.4927 -2.0587  2.7275
  152MOL0     H20458   9.957   7.779  10.435  3.3117 -3.8827 -1.1244
  152MOL0     H20459  10.129   7.605  10.554  0.4468  0.2824  1.5234
  152MOL0     H20460  10.033   7.636  10.694  2.5865 -0.3423 -0.4207
  152MOL0     H20461   9.824   7.571  10.603 -1.6998  0.7575 -2.3028
  152MOL0     H20462   9.882   7.563  10.446 -1.1890  2.7257 -0.4347
  152MOL0     H20463  10.041   7.372  10.499 -0.6053 -0.2044 -0.0235
  152MOL0     H20464  10.000   7.381  10.670  0.8291 -1.9497 -0.3395
  152MOL0     H20465   9.763   7.302  10.623 -0.2617  1.6879  0.5424
  152MOL0     H20466   9.787   7.303  10.452  1.7209 -1.5546 -0.0652
  152MOL0     H20467   9.986   7.136  10.479 -0.6267  1.1001 -0.9350
  152MOL0     H20468   9.958   7.135  10.648 -0.9405 -0.4796 -0.4799
  152MOL0     H20469   9.713   7.078  10.587 -0.6913  0.6916 -3.0450
  152MOL0     H20470   9.838   6.953  10.594 -1.0635 -0.9191 -0.7625
  152MOL0     H20471   9.651   7.163  10.323  0.1616 -0.0240 -0.2015
  152MOL0     H20472   9.502   7.094  10.129 -2.8965 -0.3657 -5.0584
  152MOL0     H20473   9.630   7.043  10.024 -0.8470  4.9291  0.6487
  152MOL0     H20474   9.386   6.917  10.111  1.1704  1.0070  0.5602
  152MOL0     H20475   9.516   6.790  10.112  1.3721 -0.9087 -1.7803
  152MOL0     H20476   9.579   6.866   9.890  1.9464  4.4500  0.8226
  152MOL0     H20477   9.443   6.982   9.885  2.0780  0.0523  0.5443
  152MOL0     H20478   9.315   6.759   9.928 -0.3665 -4.4287 -0.7307
  152MOL0     H20479   9.438   6.674   9.874  0.3419  0.7584  4.9214
  152MOL0     H20480   9.131   6.953   9.652 -1.0434 -0.0996 -1.6406
  152MOL0     H20481   8.858   6.897   9.472 -0.8564  0.6457  0.3185
  152MOL0     H20482   8.796   6.899   9.638  0.2224 -0.9383  0.9992
  152MOL0     H20483   8.929   7.005   9.583  0.1492  0.1249 -0.5706
  152MOL0     H20484   8.540   6.591   9.733  0.8698 -0.3183  0.4371
  152MOL0     H20485   8.325   6.522   9.676 -0.9609  1.0371 -0.3184
  152MOL0     H20486   8.146   6.401   9.553 -0.0610  3.0146  2.9800
  152MOL0     H20487   8.106   6.568   9.538  0.7956  1.0603 -2.1109
  152MOL0     H20488   7.987   6.518   9.314  0.2369  0.8148 -0.1013
  152MOL0     H20489   7.993   6.339   9.364 -3.3274  0.4446  0.2729
  152MOL0     H20490   7.863   6.570   9.512  1.8397  0.9148  0.5737
  152MOL0     H20491   7.902   6.400   9.576  1.7873  0.3804 -0.6893
  152MOL0     H20492   7.734   6.474   9.334 -0.1955 -1.3029 -1.9225
  152MOL0     H20493   7.756   6.309   9.390 -0.8322  1.2905 -2.3394
  152MOL0     H20494   7.654   6.526   9.580  2.3986 -0.5683  0.2096
  152MOL0     H20495   7.623   6.354   9.581 -0.5197  1.8433  2.5593
  152MOL0     H20496   7.489   6.551   9.379  0.3387  0.1715 -0.0746
  152MOL0     H20497   7.474   6.375   9.385 -0.2834 -0.4132  0.5696
  152MOL0     H20498   7.390   6.578   9.598 -0.4947  0.4246 -1.2963
  152MOL0     H20499   7.413   6.410   9.645 -1.3473  0.2720  0.3893
  152MOL0     H20500   7.173   6.467   9.600 -0.8672 -0.3163 -1.6600
  152MOL0     H20501   7.233   6.351   9.489 -1.8584  0.9753 -1.0491
  152MOL0     H20502   8.433   6.556   9.259 -1.2735 -2.4900 -0.0679
  152MOL0     H20503   8.663   6.632   9.322  1.5683  0.4331  0.8873
  152MOL0     H20504   9.046   6.461   9.675  1.8231 -0.2770 -0.6682
  152MOL0     H20505   9.275   6.560   9.728  2.9004  3.3221 -0.8521
  152MOL0     H20506  10.326   8.045  10.683 -2.8419 -0.5133 -1.9245
  152MOL0     H20507  10.347   8.245  10.805  0.2587 -1.1775 -1.2391
  152MOL0     H20508   9.999   8.598  11.230  0.1086 -2.2420  0.2303
  152MOL0     H20509  10.086   8.794  11.301 -0.1954 -2.1390  2.5369
  152MOL0     H20510  10.411   8.940  11.093 -0.6919 -0.0537  0.2705
  152MOL0     H20511  10.253   9.002  11.129  0.0981 -0.1233 -1.6399
  152MOL0     H20512  10.348   9.152  11.311 -2.9936  1.5708 -3.6232
  152MOL0     H20513  10.411   9.184  11.157 -0.3925 -0.0011 -0.9185
  152MOL0     H20514  10.630   9.072  11.219 -0.4389 -2.6224 -0.0957
  152MOL0     H20515  10.554   8.992  11.350 -2.0746 -1.8934 -2.4741
  152MOL0     H20516  10.682   9.182  11.445  1.5602  2.6287  0.4662
  152MOL0     H20517  10.510   9.220  11.468  1.3492  0.2603  0.9521
  152MOL0     H20518  10.649   9.539  11.236 -1.7690  0.9843 -0.1524
  152MOL0     H20519  10.486   8.687  11.204 -0.0046  1.2325 -1.6075
  152MOL0     H20520  10.396   8.465  11.120 -3.3882 -2.3997  0.2803
  153MOL0     O20521  10.978   8.183   1.648 -0.1516  0.7501  0.0179
  153MOL0     C20522  11.042   8.191   1.544 -0.1316  0.3323  0.8206
  153MOL0     O20523  11.178   8.168   1.534  0.3405  0.4836  0.5910
  153MOL0     C20524  11.263   8.141   1.642 -0.3109 -0.1331 -0.0528
  153MOL0     C20525  11.399   8.187   1.628 -0.0928  0.8886 -0.1261
  153MOL0     C20526  11.490   8.183   1.733  0.6656 -0.5274  0.6071
  153MOL0     C20527  11.454   8.122   1.852 -1.1953 -0.1615 -0.1669
  153MOL0     O20528  11.534   8.106   1.969  0.6014 -0.6358  0.1908
  153MOL0     C20529  11.674   8.155   1.967 -1.2051 -0.7866 -0.3741
  153MOL0     C20530  11.747   8.070   2.076 -0.3657  0.3139 -0.3986
  153MOL0     C20531  11.794   7.928   2.028 -0.2474  0.6397  0.0714
  153MOL0     C20532  11.851   7.848   2.145 -0.6207  0.5215 -0.2504
  153MOL0     C20533  11.935   7.728   2.097 -0.1022 -0.3487 -1.1404
  153MOL0     C20534  12.009   7.658   2.209  0.5503 -0.1097  0.8209
  153MOL0     C20535  12.088   7.537   2.163 -0.2564  0.4010  0.8830
  153MOL0     C20536  12.118   7.434   2.272  0.0328 -0.2614  0.0386
  153MOL0     N20537  12.202   7.322   2.220 -1.0149 -0.5123 -0.7987
  153MOL0     C20538  12.233   7.290   2.091 -0.2296  0.2904  0.7792
  153MOL0     C20539  12.343   7.210   2.096 -0.0410 -0.0062 -1.0292
  153MOL0     C20540  12.408   7.128   1.984  0.6698  0.4481  1.2358
  153MOL0     C20541  12.302   7.101   1.868  0.3026  0.4825  0.0040
  153MOL0     C20542  12.336   6.986   1.765  0.3333 -0.4639 -0.0109
  153MOL0     C20543  12.463   7.018   1.694 -0.6849 -0.1713 -0.4976
  153MOL0     O20544  12.470   7.151   1.643  0.0626 -0.0102  0.4922
  153MOL0     C20545  12.591   7.183   1.586 -0.5315 -0.2487  0.1692
  153MOL0     C20546  12.722   7.149   1.642 -0.1422 -0.5421 -0.8360
  153MOL0     C20547  12.841   7.192   1.583  0.0727 -0.0204  0.6824
  153MOL0     C20548  12.956   7.161   1.665 -0.0559 -0.3135 -0.1445
  153MOL0     C20549  12.837   7.265   1.457  0.1159  0.0514  0.9777
  153MOL0     C20550  12.960   7.316   1.387  0.1580  0.0688 -0.5370
  153MOL0     O20551  13.076   7.249   1.403 -0.1769 -0.3022  0.8377
  153MOL0     C20552  13.187   7.283   1.326 -0.1779  0.0087  0.2019
  153MOL0     C20553  13.280   7.177   1.296 -0.2988 -0.5476 -0.1472
  153MOL0     C20554  13.411   7.205   1.249  0.3179 -0.8836  0.0897
  153MOL0     C20555  13.444   7.343   1.217 -0.8874 -0.3704  0.4435
  153MOL0     O20556  13.570   7.388   1.177  0.5690  0.0427  0.3780
  153MOL0     C20557  13.679   7.296   1.185  0.2463 -0.7263  0.4931
  153MOL0     C20558  13.744   7.267   1.325  0.6228  0.4932  1.2644
  153MOL0     C20559  13.790   7.381   1.411  0.8029  0.0044 -0.5480
  153MOL0     C20560  13.882   7.492   1.359 -0.3972 -0.2851  0.0981
  153MOL0     C20561  13.895   7.614   1.452 -0.0749 -0.1866 -0.4826
  153MOL0     C20562  13.947   7.733   1.368 -0.5203 -0.5178 -0.2796
  153MOL0     C20563  13.990   7.857   1.441 -0.0250 -0.0944 -0.4474
  153MOL0     C20564  13.982   7.976   1.355 -0.4645 -0.5684  0.1319
  153MOL0    Cl20565  14.026   8.125   1.450 -0.0963  0.4860 -0.0626
  153MOL0     C20566  13.350   7.446   1.231 -0.9990  0.1240 -0.4541
  153MOL0     C20567  13.229   7.412   1.297 -1.3564 -0.4345 -0.6409
  153MOL0     O20568  12.945   7.411   1.318  0.2426 -0.5855 -0.5348
  153MOL0     C20569  12.705   7.302   1.407 -0.5123 -0.8231 -0.2700
  153MOL0     C20570  12.593   7.263   1.475  0.6077  0.2696 -0.0433
  153MOL0     N20571  12.367   7.183   2.232 -0.0970 -0.1567  0.3533
  153MOL0     N20572  12.286   7.253   2.298  0.3815 -0.3182 -0.4707
  153MOL0     C20573  11.323   8.085   1.869  0.6247  0.3091 -0.3441
  153MOL0     C20574  11.225   8.093   1.775 -0.5859  0.1563 -0.5571
  153MOL0     C20575  10.973   8.228   1.422 -1.1697 -0.4743  0.6973
  153MOL0     C20576  10.832   8.231   1.418 -0.3410 -0.3837  0.3230
  153MOL0     C20577  10.764   8.249   1.300 -0.2358  0.1640 -0.9014
  153MOL0     C20578  10.827   8.271   1.179  0.0323 -0.4693 -0.3962
  153MOL0     O20579  10.761   8.273   1.060  0.6023 -0.3902  0.4568
  153MOL0     C20580  10.733   8.404   1.014  0.3876  1.1194 -0.3161
  153MOL0     C20581  10.614   8.473   1.092 -0.4187  0.2740  0.2549
  153MOL0     C20582  10.482   8.387   1.093 -0.1673  0.1151  0.9355
  153MOL0     C20583  10.371   8.447   1.179  0.3580 -0.4026  1.3899
  153MOL0     C20584  10.389   8.428   1.321  0.2164 -0.0905  0.5077
  153MOL0     C20585  10.407   8.426   1.443  0.4821  0.3512 -0.9606
  153MOL0     C20586  10.966   8.273   1.183 -0.4927 -0.7656  0.2976
  153MOL0     C20587  11.040   8.248   1.300  0.0137 -0.0992  0.2287
  153MOL0     H20588  11.439   8.242   1.543 -0.9538  2.0168  0.1729
  153MOL0     H20589  11.586   8.228   1.712 -1.9312  3.9508 -4.2083
  153MOL0     H20590  11.714   8.147   1.865 -1.2073 -0.1167 -0.4301
  153MOL0     H20591  11.675   8.258   2.002 -1.5392  0.9380 -4.8040
  153MOL0     H20592  11.833   8.131   2.105 -0.9778  0.8363  0.3712
  153MOL0     H20593  11.681   8.061   2.162  2.2632  1.2188  1.8753
  153MOL0     H20594  11.712   7.863   1.994 -1.5238  1.6700  1.0754
  153MOL0     H20595  11.869   7.932   1.949  1.0491 -0.9236  1.1628
  153MOL0     H20596  11.926   7.909   2.196 -0.0476  1.5348 -2.2241
  153MOL0     H20597  11.771   7.819   2.215 -0.4116  1.8838  0.5814
  153MOL0     H20598  11.879   7.662   2.030  1.6013 -1.4948 -1.4915
  153MOL0     H20599  12.020   7.768   2.041  0.6021 -0.4731 -0.1991
  153MOL0     H20600  12.070   7.739   2.250 -1.9239  2.5378 -0.3433
  153MOL0     H20601  11.935   7.628   2.284 -1.1518 -0.1600 -0.8068
  153MOL0     H20602  12.032   7.489   2.081  3.3646 -0.7991 -1.0985
  153MOL0     H20603  12.181   7.570   2.116  0.5802 -1.0543  1.4594
  153MOL0     H20604  12.025   7.396   2.314 -0.7883  1.8500  0.2215
  153MOL0     H20605  12.180   7.485   2.346  0.0642  1.0090 -0.8401
  153MOL0     H20606  12.182   7.330   2.004  1.2162  1.5786  0.4795
  153MOL0     H20607  12.495   7.181   1.944  0.7856 -1.6544 -1.6419
  153MOL0     H20608  12.438   7.029   2.020  2.8536  0.7931  0.4501
  153MOL0     H20609  12.298   7.198   1.819 -0.2160  0.2151 -0.5023
  153MOL0     H20610  12.206   7.080   1.915  0.0928 -0.7554 -0.9133
  153MOL0     H20611  12.254   6.976   1.693 -0.6134 -0.5119  1.0284
  153MOL0     H20612  12.342   6.892   1.821  2.6772  0.5138  1.5362
  153MOL0     H20613  12.471   6.947   1.611  1.7661  0.6137 -1.0399
  153MOL0     H20614  12.535   6.998   1.774 -0.9703 -1.5611 -0.5691
  153MOL0     H20615  12.719   7.088   1.731 -0.5373 -3.1557 -2.5368
  153MOL0     H20616  12.945   7.151   1.773  3.8180 -0.9592  0.3474
  153MOL0     H20617  12.979   7.060   1.629 -1.0971 -0.9103  0.7976
  153MOL0     H20618  13.034   7.234   1.643  1.1435 -1.0503  1.4950
  153MOL0     H20619  13.250   7.076   1.323  2.2535 -1.3932 -0.2284
  153MOL0     H20620  13.482   7.123   1.240  2.9246  1.1884  0.2849
  153MOL0     H20621  13.653   7.204   1.132 -2.2021  1.3201 -2.1141
  153MOL0     H20622  13.759   7.353   1.137  0.7232  0.3934  2.4778
  153MOL0     H20623  13.664   7.213   1.377 -0.7152 -1.4756 -2.4603
  153MOL0     H20624  13.825   7.194   1.313 -1.5072 -1.8386  0.0132
  153MOL0     H20625  13.835   7.333   1.498 -0.3551 -4.0556 -1.9760
  153MOL0     H20626  13.698   7.431   1.445  1.1482  0.1445  0.2099
  153MOL0     H20627  13.981   7.453   1.337  0.5956  2.6610 -1.2395
  153MOL0     H20628  13.840   7.525   1.264 -1.7301 -3.3486 -0.4855
  153MOL0     H20629  13.970   7.607   1.532  0.5927 -0.9921 -1.1642
  153MOL0     H20630  13.796   7.638   1.492  0.4102 -1.4988  1.6774
  153MOL0     H20631  14.028   7.696   1.303 -0.9865  1.5382 -2.1589
  153MOL0     H20632  13.868   7.748   1.293  2.5229 -1.6064 -4.0519
  153MOL0     H20633  14.096   7.849   1.468  0.3817 -0.2890 -2.0491
  153MOL0     H20634  13.930   7.862   1.533  3.2438  1.2211  1.8117
  153MOL0     H20635  13.886   7.989   1.304 -1.5941  1.5140  2.5653
  153MOL0     H20636  14.058   7.967   1.277  0.6432  3.7653  0.4666
  153MOL0     H20637  13.382   7.549   1.214 -0.9989 -0.1024 -1.9670
  153MOL0     H20638  13.166   7.493   1.330 -1.1300 -0.4474 -0.1713
  153MOL0     H20639  12.693   7.376   1.329  0.3257 -2.5479 -2.1180
  153MOL0     H20640  12.496   7.299   1.444  0.7004 -0.1456 -0.8364
  153MOL0     H20641  11.307   8.036   1.965 -1.4686 -0.9737 -1.2795
  153MOL0     H20642  11.128   8.049   1.800 -1.2095  2.5924  1.8513
  153MOL0     H20643  10.777   8.199   1.506  1.0995  0.5252  1.6037
  153MOL0     H20644  10.657   8.249   1.287 -0.6842 -1.0428  1.9619
  153MOL0     H20645  10.814   8.479   1.012 -0.7557  2.4485  0.8551
  153MOL0     H20646  10.695   8.400   0.911 -0.5445  1.2820  0.0144
  153MOL0     H20647  10.585   8.571   1.054 -4.2675  0.0356  2.1131
  153MOL0     H20648  10.651   8.491   1.193  0.0120  0.6720  0.0273
  153MOL0     H20649  10.505   8.292   1.141  0.4090  1.3614  3.2851
  153MOL0     H20650  10.455   8.377   0.987  3.7100 -2.1310 -0.0457
  153MOL0     H20651  10.272   8.408   1.151  1.5162 -3.3341  1.0607
  153MOL0     H20652  10.363   8.550   1.143  2.6649 -0.3714  0.8363
  153MOL0     H20653  10.415   8.433   1.550 -0.2549 -0.0808 -0.8751
  153MOL0     H20654  11.018   8.272   1.087  0.6227 -1.1038  0.8786
  153MOL0     H20655  11.146   8.239   1.282 -0.1759  3.3212 -4.3033
  154MOL0     O20656   2.204   3.534   0.673 -0.5369 -0.4348 -0.8408
  154MOL0     C20657   2.181   3.510   0.794 -0.2352  0.7166 -0.0652
  154MOL0     O20658   2.058   3.531   0.856 -0.2023  0.4506  0.1096
  154MOL0     C20659   1.954   3.608   0.794 -0.7421  0.8438 -0.8575
  154MOL0     C20660   1.829   3.591   0.854  0.1850  0.4172  1.0869
  154MOL0     C20661   1.716   3.661   0.806 -0.5749 -0.7632  0.7844
  154MOL0     C20662   1.730   3.762   0.701 -0.1782 -0.2453  0.7807
  154MOL0     O20663   1.628   3.835   0.631 -0.2182  0.1831 -0.3795
  154MOL0     C20664   1.491   3.820   0.681 -0.2287  0.0616  0.3871
  154MOL0     C20665   1.394   3.926   0.622 -0.2017  0.4056  0.1284
  154MOL0     C20666   1.436   4.072   0.645 -0.1795  0.2678  0.2924
  154MOL0     C20667   1.365   4.167   0.555 -0.4596  0.3510  0.6130
  154MOL0     C20668   1.219   4.194   0.582 -0.1325 -0.5312 -0.6132
  154MOL0     C20669   1.178   4.186   0.729 -0.5890 -0.3663 -0.2904
  154MOL0     C20670   1.243   4.305   0.804 -0.7459 -0.2793  0.1553
  154MOL0     C20671   1.185   4.445   0.780 -0.9611 -0.5522  0.4372
  154MOL0     N20672   1.260   4.517   0.680 -0.3683  0.0040  0.3663
  154MOL0     C20673   1.357   4.606   0.707  0.6292 -0.3022 -0.0767
  154MOL0     C20674   1.390   4.656   0.593  0.2143 -0.7119  0.3059
  154MOL0     C20675   1.492   4.758   0.548 -0.6530 -0.2789 -0.5759
  154MOL0     C20676   1.462   4.898   0.587 -0.1209  0.2882 -0.3961
  154MOL0     C20677   1.358   4.962   0.501 -0.2164 -0.4594 -0.6240
  154MOL0     C20678   1.342   5.107   0.545 -0.6332  0.3691  0.0212
  154MOL0     O20679   1.294   5.127   0.686 -0.6405 -0.1930  0.1935
  154MOL0     C20680   1.257   5.256   0.722  0.3705  0.3919  0.3204
  154MOL0     C20681   1.198   5.278   0.842  0.1737 -0.0977 -0.3405
  154MOL0     C20682   1.166   5.411   0.889  0.2856  1.0788 -0.8066
  154MOL0     C20683   1.085   5.405   1.015 -0.4116 -0.1747 -0.1150
  154MOL0     C20684   1.184   5.520   0.799 -0.5421  0.8551 -0.6593
  154MOL0     C20685   1.162   5.651   0.838 -0.9539 -0.6583 -0.6168
  154MOL0     O20686   1.109   5.728   0.749 -0.2404 -0.0969  0.4725
  154MOL0     C20687   1.141   5.868   0.741 -0.0394 -0.0404  0.1336
  154MOL0     C20688   1.253   5.940   0.796  0.4124  0.2102 -0.2390
  154MOL0     C20689   1.259   6.075   0.780 -0.1087 -1.2628  0.8813
  154MOL0     C20690   1.176   6.148   0.698 -0.3468 -0.8445  0.1038
  154MOL0     O20691   1.206   6.285   0.678  0.4450  0.7619 -0.4390
  154MOL0     C20692   1.107   6.358   0.604  0.1870 -0.2286 -0.0193
  154MOL0     C20693   1.152   6.500   0.591 -0.4671  0.1751  0.2414
  154MOL0     C20694   1.051   6.576   0.509 -0.3973 -0.1723 -0.7942
  154MOL0     C20695   1.098   6.733   0.531  0.0526  0.2539 -0.0039
  154MOL0     C20696   0.998   6.839   0.511  0.0012 -0.7311 -0.0459
  154MOL0     C20697   0.978   6.860   0.365  0.9117 -0.6174  0.3448
  154MOL0     C20698   0.881   6.980   0.327  0.3265  0.1599 -0.1172
  154MOL0     C20699   0.853   6.987   0.175 -0.1636 -0.3385  1.2655
  154MOL0    Cl20700   0.743   7.118   0.133  0.3656  0.1710 -0.4610
  154MOL0     C20701   1.065   6.079   0.648 -0.7090 -0.2179  1.1434
  154MOL0     C20702   1.054   5.937   0.665 -0.0247  0.5027  0.1579
  154MOL0     O20703   1.233   5.692   0.931 -0.2670  0.2392  0.3191
  154MOL0     C20704   1.242   5.495   0.673 -0.1793  0.0744 -0.3367
  154MOL0     C20705   1.268   5.370   0.638 -0.6348 -0.0098  0.3726
  154MOL0     N20706   1.311   4.608   0.501  0.5267  0.2528  0.0376
  154MOL0     N20707   1.228   4.518   0.549 -0.3836 -0.0758  0.2355
  154MOL0     C20708   1.862   3.788   0.661  0.2754 -0.0458 -0.1210
  154MOL0     C20709   1.963   3.716   0.710 -1.1806 -0.3408  0.6556
  154MOL0     C20710   2.289   3.451   0.876  0.6060  0.3873 -0.1184
  154MOL0     C20711   2.407   3.417   0.828 -0.5286  0.0106  0.9723
  154MOL0     C20712   2.514   3.369   0.911  0.1351  0.3398 -0.4558
  154MOL0     C20713   2.492   3.353   1.050  0.3968  0.0983 -0.4019
  154MOL0     O20714   2.584   3.314   1.143  0.6406 -0.3987 -0.4241
  154MOL0     C20715   2.709   3.269   1.096 -0.2383 -0.5133 -0.4463
  154MOL0     C20716   2.786   3.235   1.230 -0.1547  0.5367  0.1865
  154MOL0     C20717   2.909   3.158   1.180 -0.0092  1.5370  0.0701
  154MOL0     C20718   2.898   3.006   1.141  0.3489  0.9888 -0.5528
  154MOL0     C20719   2.811   2.933   1.240 -0.9395  0.3360 -0.6919
  154MOL0     C20720   2.736   2.877   1.324 -0.8142  0.2231  0.1816
  154MOL0     C20721   2.365   3.380   1.097 -0.0378 -0.7390 -0.3970
  154MOL0     C20722   2.266   3.431   1.010  0.3408  0.4364  1.1089
  154MOL0     H20723   1.806   3.499   0.907  0.1749 -1.4598 -1.9913
  154MOL0     H20724   1.619   3.625   0.838 -0.5212  0.1499  2.0516
  154MOL0     H20725   1.450   3.724   0.648 -0.3513  0.5517 -0.9347
  154MOL0     H20726   1.487   3.831   0.790  0.2560  0.9931  0.3197
  154MOL0     H20727   1.403   3.914   0.514  4.0785  2.0436  0.1098
  154MOL0     H20728   1.293   3.900   0.657 -1.0811 -1.1933 -3.2311
  154MOL0     H20729   1.413   4.097   0.749 -3.5965 -1.8724  0.2114
  154MOL0     H20730   1.543   4.073   0.623  0.1847  0.9312  1.9269
  154MOL0     H20731   1.423   4.260   0.559  0.1239 -0.0132  0.6816
  154MOL0     H20732   1.376   4.137   0.451 -1.7929  0.1659  0.5072
  154MOL0     H20733   1.188   4.293   0.548  2.1143  0.4607  0.0219
  154MOL0     H20734   1.162   4.121   0.525 -0.2257 -0.7753 -0.2128
  154MOL0     H20735   1.071   4.209   0.733 -0.4408  0.1925  3.1479
  154MOL0     H20736   1.196   4.087   0.772  1.8946  0.4602  0.7654
  154MOL0     H20737   1.213   4.293   0.908  0.4066  1.1773  0.6816
  154MOL0     H20738   1.352   4.298   0.797 -0.8719 -2.0916 -0.6220
  154MOL0     H20739   1.190   4.503   0.873  0.4753 -0.3660  0.2584
  154MOL0     H20740   1.082   4.443   0.744 -0.7196  0.3831 -0.3311
  154MOL0     H20741   1.394   4.633   0.806 -0.0370 -2.0095  0.6714
  154MOL0     H20742   1.586   4.727   0.596 -0.5731  0.6481 -0.1120
  154MOL0     H20743   1.507   4.762   0.440  1.0273 -0.8409 -0.3970
  154MOL0     H20744   1.557   4.953   0.585  0.8460 -1.3319 -0.7229
  154MOL0     H20745   1.434   4.892   0.692 -0.9448  1.0538 -0.5590
  154MOL0     H20746   1.264   4.907   0.512  0.0137 -0.9896 -1.2501
  154MOL0     H20747   1.385   4.966   0.395  1.5865  0.1639 -0.1798
  154MOL0     H20748   1.257   5.149   0.490  0.3914 -0.0139 -1.9480
  154MOL0     H20749   1.431   5.166   0.523  0.4603 -1.3540 -0.3807
  154MOL0     H20750   1.178   5.193   0.906  1.0057 -0.8086 -0.9907
  154MOL0     H20751   1.144   5.433   1.103 -2.0748  2.5875  0.2532
  154MOL0     H20752   1.008   5.482   1.006 -0.7024 -0.6281 -1.7232
  154MOL0     H20753   1.031   5.312   1.030 -0.9111  0.5312  3.3097
  154MOL0     H20754   1.341   5.899   0.845 -0.8056 -0.1487  1.7883
  154MOL0     H20755   1.353   6.128   0.794 -0.5610 -0.1976 -0.0095
  154MOL0     H20756   1.086   6.312   0.508 -1.2655  0.0775  0.1249
  154MOL0     H20757   1.016   6.362   0.665  0.6775 -1.7044  0.8850
  154MOL0     H20758   1.163   6.539   0.693  1.6057 -2.4379  1.1400
  154MOL0     H20759   1.252   6.504   0.548 -0.5870 -1.1096 -0.1828
  154MOL0     H20760   0.947   6.565   0.542 -0.2915  0.6228 -0.1478
  154MOL0     H20761   1.056   6.553   0.403  0.2379 -1.6723 -0.4591
  154MOL0     H20762   1.126   6.741   0.636  0.8208  0.9338 -0.2501
  154MOL0     H20763   1.191   6.756   0.478  1.5127  2.0926  3.1104
  154MOL0     H20764   1.021   6.931   0.565 -3.6216  0.2401  0.0774
  154MOL0     H20765   0.903   6.806   0.553  0.0747  0.0835  0.7700
  154MOL0     H20766   1.077   6.881   0.323  0.8260  0.6522  0.7406
  154MOL0     H20767   0.923   6.776   0.323 -1.5868  0.7348  0.6820
  154MOL0     H20768   0.927   7.072   0.364  2.3522 -1.3767  1.4240
  154MOL0     H20769   0.783   6.961   0.370  0.1072 -0.4801 -0.8835
  154MOL0     H20770   0.802   6.896   0.141  2.9023 -1.4260 -0.8578
  154MOL0     H20771   0.946   6.990   0.118 -1.3252 -1.9129 -0.8575
  154MOL0     H20772   0.992   6.135   0.590  2.2076  2.2269 -0.4355
  154MOL0     H20773   0.967   5.887   0.624  0.2031  0.2474 -0.0145
  154MOL0     H20774   1.255   5.580   0.607  1.3260  0.5071  0.4539
  154MOL0     H20775   1.323   5.353   0.546 -1.8213 -2.0700  0.0001
  154MOL0     H20776   1.886   3.874   0.598  1.4004 -0.2006  0.0769
  154MOL0     H20777   2.063   3.753   0.688 -2.5171  2.6895 -0.9606
  154MOL0     H20778   2.410   3.416   0.720 -4.2158 -2.3385  0.7350
  154MOL0     H20779   2.613   3.364   0.867  0.2651  0.6654 -0.2065
  154MOL0     H20780   2.683   3.183   1.033  0.1944 -0.7451 -0.3090
  154MOL0     H20781   2.762   3.342   1.035 -0.6709  1.2022  1.1339
  154MOL0     H20782   2.727   3.170   1.294  0.5866  0.6837  1.0468
  154MOL0     H20783   2.822   3.321   1.289 -0.2825  0.0233  1.0197
  154MOL0     H20784   2.979   3.169   1.263  0.1589 -3.0740  0.7793
  154MOL0     H20785   2.955   3.218   1.101  1.3911  0.5863  0.1305
  154MOL0     H20786   2.998   2.961   1.138  1.9328  4.2446 -3.2896
  154MOL0     H20787   2.861   3.002   1.038  1.4919 -0.4434 -0.9255
  154MOL0     H20788   2.670   2.838   1.399  0.5313 -1.7776  0.3976
  154MOL0     H20789   2.338   3.373   1.202 -1.2093 -1.8045 -0.7431
  154MOL0     H20790   2.169   3.454   1.053 -1.0427  1.5513 -2.2294
  155MOL0     O20791   1.190   8.052   5.868 -0.2347 -0.6521 -0.4362
  155MOL0     C20792   1.183   8.015   5.752  0.3321  0.2479  1.2479
  155MOL0     O20793   1.131   8.081   5.647  0.7736  0.0544 -0.2077
  155MOL0     C20794   1.087   8.206   5.677 -0.2801 -0.6744 -0.3063
  155MOL0     C20795   0.953   8.243   5.653  0.5189 -0.0349 -0.1629
  155MOL0     C20796   0.909   8.376   5.676  0.2458  0.3158  0.1495
  155MOL0     C20797   0.985   8.471   5.735  0.8076  0.6782 -0.1375
  155MOL0     O20798   0.949   8.598   5.759  0.0023 -0.4364  0.5270
  155MOL0     C20799   0.816   8.634   5.776  0.3539 -1.8058 -0.0617
  155MOL0     C20800   0.796   8.793   5.766  0.9866 -0.9145  0.2871
  155MOL0     C20801   0.664   8.850   5.809 -0.4650 -0.3646 -0.5476
  155MOL0     C20802   0.618   8.800   5.954  1.3102 -0.9819  0.0819
  155MOL0     C20803   0.498   8.880   6.003 -0.7704  0.4261 -0.6649
  155MOL0     C20804   0.384   8.912   5.910  0.4403 -0.7851 -0.2597
  155MOL0     C20805   0.257   8.961   5.981 -0.1340  0.0420  0.0417
  155MOL0     C20806   0.148   8.996   5.886  0.3982  0.8665  0.8226
  155MOL0     N20807   0.036   9.034   5.971  0.2976  1.2898  0.5924
  155MOL0     C20808  -0.049   8.938   6.027 -0.1029 -0.2047  0.0663
  155MOL0     C20809  -0.147   9.010   6.094 -0.8594 -0.2144  0.2556
  155MOL0     C20810  -0.258   8.965   6.195  0.9157  0.3311  0.0851
  155MOL0     C20811  -0.365   8.861   6.143 -0.5450  1.1359 -0.4574
  155MOL0     C20812  -0.463   8.824   6.253  0.8318  0.4461  0.0469
  155MOL0     C20813  -0.593   8.753   6.210  0.1656  1.4367 -0.2547
  155MOL0     O20814  -0.659   8.701   6.330 -0.2676  1.1693  1.0449
  155MOL0     C20815  -0.755   8.765   6.396 -0.1239  0.3089 -0.6909
  155MOL0     C20816  -0.801   8.896   6.365  0.6829 -0.2292  0.8143
  155MOL0     C20817  -0.904   8.960   6.435  0.5657  0.3185 -0.0349
  155MOL0     C20818  -0.962   9.097   6.380 -0.6053 -0.5334  0.5569
  155MOL0     C20819  -0.957   8.893   6.549  0.9413  0.1734 -0.2738
  155MOL0     C20820  -1.063   8.951   6.640 -0.6072  0.4046 -0.2832
  155MOL0     O20821  -1.168   9.022   6.588 -0.0271 -0.2789 -0.7375
  155MOL0     C20822  -1.257   9.094   6.663 -0.4559 -0.5843 -0.4354
  155MOL0     C20823  -1.358   9.151   6.586  0.3505  0.5313 -0.1691
  155MOL0     C20824  -1.461   9.222   6.643  0.5966 -0.1001 -1.4353
  155MOL0     C20825  -1.453   9.269   6.778 -0.7637 -0.0072  0.5619
  155MOL0     O20826  -1.531   9.351   6.852  0.6561  0.0581  0.1436
  155MOL0     C20827  -1.668   9.358   6.808 -0.6175 -0.1575 -0.1731
  155MOL0     C20828  -1.752   9.410   6.923 -0.3530  0.2731 -0.5950
  155MOL0     C20829  -1.904   9.406   6.887 -0.3161  0.4335  0.2246
  155MOL0     C20830  -1.960   9.527   6.804  0.4540  0.0303  0.1483
  155MOL0     C20831  -2.101   9.501   6.746  1.6425  0.8000  0.3073
  155MOL0     C20832  -2.151   9.625   6.681 -0.0104 -0.4218  0.0370
  155MOL0     C20833  -2.295   9.602   6.629 -0.0082  0.0880 -0.2487
  155MOL0     C20834  -2.335   9.699   6.517 -0.3487  0.1152 -0.8192
  155MOL0    Cl20835  -2.258   9.859   6.552  0.2064  0.3283  0.3597
  155MOL0     C20836  -1.333   9.221   6.851  0.7980 -0.1795  0.4422
  155MOL0     C20837  -1.238   9.138   6.792 -0.2658 -0.0306 -0.7599
  155MOL0     O20838  -1.043   8.923   6.759 -0.4321  0.3080  1.0291
  155MOL0     C20839  -0.903   8.761   6.588 -0.3585 -0.8941  0.3227
  155MOL0     C20840  -0.808   8.700   6.515  1.0361 -0.5273 -0.1342
  155MOL0     N20841  -0.103   9.141   6.083  0.1831 -0.5979 -0.4338
  155MOL0     N20842   0.000   9.162   6.005  0.9770  0.1211  0.4988
  155MOL0     C20843   1.122   8.431   5.764  0.1350 -0.3063 -0.2729
  155MOL0     C20844   1.173   8.309   5.726 -0.3247 -0.5680 -0.3044
  155MOL0     C20845   1.234   7.875   5.729  0.4492 -0.5640 -0.3976
  155MOL0     C20846   1.187   7.813   5.615  0.2138  0.3221  0.6016
  155MOL0     C20847   1.221   7.680   5.590 -0.1487  0.2529 -0.2029
  155MOL0     C20848   1.301   7.602   5.681 -0.5888 -0.2106  0.6775
  155MOL0     O20849   1.330   7.473   5.637  0.4145  0.1394 -0.3807
  155MOL0     C20850   1.421   7.392   5.724  0.1339 -0.0207 -0.2957
  155MOL0     C20851   1.440   7.262   5.638 -0.6153 -0.0966 -0.1765
  155MOL0     C20852   1.502   7.136   5.715 -0.1614 -0.2502 -0.4973
  155MOL0     C20853   1.655   7.161   5.706 -0.6179  0.6097 -0.6051
  155MOL0     C20854   1.740   7.075   5.789  0.7318  0.2072 -0.0086
  155MOL0     C20855   1.808   7.033   5.880 -0.4380  0.0629  0.6053
  155MOL0     C20856   1.356   7.670   5.792  0.5343 -0.3997 -0.2775
  155MOL0     C20857   1.324   7.802   5.809  0.3497 -0.3668 -1.0638
  155MOL0     H20858   0.878   8.175   5.613 -3.2706  2.3950  2.1209
  155MOL0     H20859   0.806   8.400   5.653  0.3230  0.3943 -0.1143
  155MOL0     H20860   0.742   8.604   5.701 -0.2615  0.9399 -0.6751
  155MOL0     H20861   0.791   8.598   5.877 -0.7451 -3.0542 -0.7466
  155MOL0     H20862   0.875   8.843   5.822  0.9298  2.0126 -2.0170
  155MOL0     H20863   0.821   8.819   5.662  1.9080 -1.8185  0.2595
  155MOL0     H20864   0.671   8.959   5.813 -0.6178 -0.3632 -0.2709
  155MOL0     H20865   0.597   8.820   5.728 -0.1353 -2.6618 -0.0397
  155MOL0     H20866   0.600   8.694   5.933  0.7147 -0.9124  0.2434
  155MOL0     H20867   0.705   8.804   6.020  0.7526  1.8646  0.7684
  155MOL0     H20868   0.466   8.816   6.086 -2.1403 -0.4956 -1.8511
  155MOL0     H20869   0.525   8.975   6.049  0.5816  0.2384 -1.0319
  155MOL0     H20870   0.427   8.985   5.841  0.5722 -0.2998  0.3234
  155MOL0     H20871   0.359   8.830   5.842 -0.4517  0.9560 -2.1573
  155MOL0     H20872   0.209   8.885   6.043 -1.3459  0.3018 -0.5459
  155MOL0     H20873   0.285   9.051   6.037  0.6954  1.1375 -2.0270
  155MOL0     H20874   0.133   8.925   5.805 -1.3044  1.2848  0.7296
  155MOL0     H20875   0.168   9.091   5.836 -1.3625  1.2383  0.7576
  155MOL0     H20876  -0.043   8.830   6.039 -0.6322 -0.3602 -0.9209
  155MOL0     H20877  -0.205   8.918   6.279  0.0386 -0.4647  0.2067
  155MOL0     H20878  -0.314   9.050   6.233 -1.4883 -1.3771  0.6082
  155MOL0     H20879  -0.308   8.775   6.109  1.6929  0.8008  3.4958
  155MOL0     H20880  -0.417   8.905   6.058 -2.6519  1.3059  0.8386
  155MOL0     H20881  -0.492   8.916   6.306 -0.5231  0.0152  0.1128
  155MOL0     H20882  -0.408   8.766   6.328  1.7108 -0.9488 -1.6142
  155MOL0     H20883  -0.563   8.664   6.155 -1.2869  1.5963 -1.3682
  155MOL0     H20884  -0.662   8.809   6.147 -2.2844  1.0904  1.9255
  155MOL0     H20885  -0.772   8.957   6.280 -1.6901 -1.9492 -1.3891
  155MOL0     H20886  -0.912   9.172   6.442 -2.4225  2.4396 -1.3626
  155MOL0     H20887  -0.915   9.115   6.283  0.3969  1.1105  1.2971
  155MOL0     H20888  -1.071   9.103   6.377 -0.6838  0.7717  3.3835
  155MOL0     H20889  -1.366   9.128   6.480 -0.7430 -0.1754  0.0499
  155MOL0     H20890  -1.544   9.252   6.578  3.3676  1.7662 -4.4630
  155MOL0     H20891  -1.665   9.432   6.727  3.0010  0.9322  0.7539
  155MOL0     H20892  -1.714   9.269   6.765 -2.9917  1.0619 -0.3501
  155MOL0     H20893  -1.725   9.343   7.005 -0.6750  0.8039 -0.0467
  155MOL0     H20894  -1.717   9.511   6.948  0.7564  0.3030 -2.0855
  155MOL0     H20895  -1.962   9.386   6.977 -0.1584  1.1067  0.4843
  155MOL0     H20896  -1.923   9.318   6.825 -1.7705  1.7282 -1.2765
  155MOL0     H20897  -1.970   9.606   6.879 -4.5292  0.1301 -0.2829
  155MOL0     H20898  -1.883   9.564   6.737 -1.7124  1.4000 -1.6943
  155MOL0     H20899  -2.168   9.456   6.821  2.3897  1.9787  1.7440
  155MOL0     H20900  -2.097   9.420   6.673  2.0427  0.0760  1.1154
  155MOL0     H20901  -2.138   9.697   6.762  2.3394 -2.6448  1.8075
  155MOL0     H20902  -2.077   9.649   6.604  1.6671 -0.1719  1.6549
  155MOL0     H20903  -2.367   9.625   6.708  0.7425  1.2840  0.1240
  155MOL0     H20904  -2.309   9.496   6.606 -1.8311 -0.1656  1.6797
  155MOL0     H20905  -2.442   9.716   6.515 -0.6856 -1.6649 -0.2263
  155MOL0     H20906  -2.302   9.662   6.419 -0.3562 -1.2169 -0.3507
  155MOL0     H20907  -1.320   9.273   6.945 -0.0962 -1.3592  1.2453
  155MOL0     H20908  -1.154   9.115   6.858 -2.0069  0.9706  1.9946
  155MOL0     H20909  -0.944   8.718   6.679  0.0106  2.1595  2.0512
  155MOL0     H20910  -0.760   8.604   6.529  0.8719 -0.8864 -1.7935
  155MOL0     H20911   1.178   8.510   5.813 -1.1403  0.6738 -0.3708
  155MOL0     H20912   1.276   8.287   5.752 -1.0579 -2.7900  1.0721
  155MOL0     H20913   1.116   7.855   5.545 -0.2942  0.8069  1.3988
  155MOL0     H20914   1.185   7.632   5.499 -0.1401 -1.2820  0.5591
  155MOL0     H20915   1.515   7.438   5.755 -0.2081 -0.0098  0.7625
  155MOL0     H20916   1.365   7.361   5.813  0.2959  1.1919  0.2418
  155MOL0     H20917   1.499   7.292   5.551 -0.6772 -0.2295 -0.2633
  155MOL0     H20918   1.339   7.227   5.617 -0.8404 -0.4881  1.3919
  155MOL0     H20919   1.483   7.046   5.656 -2.8054  0.0505 -0.1949
  155MOL0     H20920   1.467   7.126   5.818 -1.1977  1.1600 -0.6854
  155MOL0     H20921   1.683   7.265   5.728  0.3777  0.0333  1.0962
  155MOL0     H20922   1.682   7.147   5.601 -1.3079  2.1480 -1.0176
  155MOL0     H20923   1.842   6.984   5.969 -1.6665 -1.1090  0.4615
  155MOL0     H20924   1.419   7.620   5.865  1.0349  2.1862  1.1754
  155MOL0     H20925   1.376   7.844   5.894  0.0236 -0.4512 -0.8186
  156MOL0     O20926   5.430   3.758   6.256 -0.5605  0.2177 -0.6782
  156MOL0     C20927   5.550   3.766   6.275  0.1975  0.0887 -0.2021
  156MOL0     O20928   5.623   3.881   6.262  0.2513 -0.0928  0.1356
  156MOL0     C20929   5.556   3.989   6.223 -0.0052 -0.5305  0.2600
  156MOL0     C20930   5.489   4.076   6.316 -0.1378 -0.4190  0.4414
  156MOL0     C20931   5.447   4.201   6.285  1.0061 -0.2308 -0.4277
  156MOL0     C20932   5.453   4.249   6.150  0.2682  0.5176 -0.1111
  156MOL0     O20933   5.401   4.376   6.112 -0.3008  1.0102  1.3321
  156MOL0     C20934   5.349   4.384   5.978  0.3292 -0.3897  0.1121
  156MOL0     C20935   5.259   4.512   5.983  1.1216  0.0503 -0.2975
  156MOL0     C20936   5.134   4.493   6.082 -0.3138 -0.8648  0.8147
  156MOL0     C20937   5.173   4.519   6.234 -0.3202 -0.4661 -0.0290
  156MOL0     C20938   5.054   4.484   6.322 -0.3766 -1.3314  0.7934
  156MOL0     C20939   4.986   4.356   6.283  0.6957  0.4605  0.2706
  156MOL0     C20940   4.888   4.336   6.398 -0.2378  0.6972 -0.7499
  156MOL0     C20941   4.754   4.396   6.356  0.6863 -0.1643 -0.6419
  156MOL0     N20942   4.646   4.350   6.460 -0.1421  0.6791 -0.6797
  156MOL0     C20943   4.591   4.222   6.462 -0.1857  0.5208  0.3325
  156MOL0     C20944   4.504   4.219   6.557 -1.0953 -0.0518  0.2255
  156MOL0     C20945   4.432   4.094   6.608  0.1971 -0.1173 -0.2301
  156MOL0     C20946   4.472   4.036   6.748 -0.0433  0.4480  0.5551
  156MOL0     C20947   4.420   4.125   6.861 -1.1939  0.2628  0.7560
  156MOL0     C20948   4.422   4.052   6.996 -0.4109 -0.2171  0.4727
  156MOL0     O20949   4.389   4.154   7.097  0.0201 -0.4000 -0.0444
  156MOL0     C20950   4.261   4.137   7.147  0.2362  0.0134  0.3525
  156MOL0     C20951   4.244   4.147   7.283  0.1005 -0.1731  0.6007
  156MOL0     C20952   4.118   4.130   7.346  1.4584  0.1102  0.7395
  156MOL0     C20953   4.118   4.116   7.498 -0.6494  0.4669 -0.1033
  156MOL0     C20954   3.994   4.112   7.268 -1.0911 -0.0881  0.0166
  156MOL0     C20955   3.866   4.103   7.333  0.0153  0.6812 -0.1247
  156MOL0     O20956   3.767   4.177   7.269 -0.2929  0.4559  0.0387
  156MOL0     C20957   3.628   4.159   7.310 -0.2084 -0.0861  1.2968
  156MOL0     C20958   3.541   4.093   7.222  0.2547  0.6081  0.4620
  156MOL0     C20959   3.402   4.071   7.259 -1.0467  0.1151 -0.1104
  156MOL0     C20960   3.349   4.103   7.386 -0.0912  0.1973 -0.3859
  156MOL0     O20961   3.221   4.089   7.403 -0.1841 -1.2321 -0.3761
  156MOL0     C20962   3.164   4.039   7.520 -0.0236  0.0562 -0.1552
  156MOL0     C20963   3.075   3.920   7.490 -0.0145 -0.7499 -0.1881
  156MOL0     C20964   2.947   3.976   7.420  0.2723 -0.1174 -0.1851
  156MOL0     C20965   2.835   3.874   7.427 -0.7565 -0.3530  0.1845
  156MOL0     C20966   2.731   3.902   7.321 -0.4968 -0.9082 -0.1115
  156MOL0     C20967   2.611   3.809   7.319  0.6902  0.3743  0.8677
  156MOL0     C20968   2.530   3.792   7.449 -0.4813 -0.6683  0.2202
  156MOL0     C20969   2.481   3.921   7.508  0.1480 -0.4314 -0.8884
  156MOL0    Cl20970   2.361   3.891   7.623  0.1622 -0.3669  0.2675
  156MOL0     C20971   3.446   4.159   7.478  0.3668 -0.5595 -0.1218
  156MOL0     C20972   3.579   4.185   7.441 -0.5435 -0.0746 -0.0877
  156MOL0     O20973   3.849   4.017   7.422 -0.3704  0.5148  0.2185
  156MOL0     C20974   4.018   4.111   7.128  0.0193 -0.0982 -0.8058
  156MOL0     C20975   4.150   4.114   7.063  0.2764  0.5348 -0.5698
  156MOL0     N20976   4.484   4.346   6.603  0.3770  0.1361 -0.8604
  156MOL0     N20977   4.564   4.429   6.534 -0.9724  0.5408 -0.0966
  156MOL0     C20978   5.500   4.156   6.051 -0.6909  0.7402  0.1920
  156MOL0     C20979   5.550   4.025   6.092  0.2593  0.7243  0.0501
  156MOL0     C20980   5.625   3.651   6.338 -0.7153  0.8943  0.3564
  156MOL0     C20981   5.757   3.659   6.383  0.3803 -0.2843  0.4495
  156MOL0     C20982   5.819   3.559   6.454 -0.7118 -0.3413 -1.0488
  156MOL0     C20983   5.750   3.437   6.478 -0.6535 -0.0181  0.0843
  156MOL0     O20984   5.794   3.332   6.550 -0.2643  0.1903 -0.0893
  156MOL0     C20985   5.934   3.334   6.580 -0.1183  0.0726  0.4499
  156MOL0     C20986   5.985   3.195   6.621 -0.0803  0.7872  0.0651
  156MOL0     C20987   6.145   3.199   6.621  0.7475  0.4544 -0.8871
  156MOL0     C20988   6.201   3.103   6.725 -0.1369  0.3111  1.1157
  156MOL0     C20989   6.211   3.171   6.854 -0.1023  0.5187 -0.3223
  156MOL0     C20990   6.220   3.246   6.949 -0.3916 -0.0986  0.0200
  156MOL0     C20991   5.624   3.426   6.415  0.0738 -0.3873 -0.1732
  156MOL0     C20992   5.565   3.522   6.337 -0.1538 -0.5534 -0.2699
  156MOL0     H20993   5.486   4.054   6.422  4.0974  1.6729  1.2025
  156MOL0     H20994   5.407   4.271   6.358  0.5392 -2.0391  1.1163
  156MOL0     H20995   5.434   4.393   5.911  2.5589 -1.8330  2.5819
  156MOL0     H20996   5.297   4.293   5.945  1.7834 -1.1395 -0.1893
  156MOL0     H20997   5.316   4.602   6.010 -0.5716  0.1659  3.5956
  156MOL0     H20998   5.208   4.524   5.887 -3.1578  0.3664  1.7878
  156MOL0     H20999   5.054   4.565   6.060 -0.2268 -1.0410 -0.1069
  156MOL0     H21000   5.102   4.393   6.055 -2.6047  0.4813 -2.0383
  156MOL0     H21001   5.252   4.456   6.277  0.0102 -0.0786 -0.0660
  156MOL0     H21002   5.203   4.620   6.261 -0.8341 -0.1657 -0.5527
  156MOL0     H21003   5.084   4.487   6.427  0.1470 -2.4021  0.6933
  156MOL0     H21004   4.989   4.571   6.311  0.4625 -0.7007  0.6530
  156MOL0     H21005   4.939   4.349   6.184  0.8241  2.6583  0.0029
  156MOL0     H21006   5.065   4.282   6.291 -0.3116 -0.5827  0.9487
  156MOL0     H21007   4.863   4.232   6.424 -2.2726  1.2216 -0.4935
  156MOL0     H21008   4.927   4.390   6.485 -2.1658  0.5812  0.2320
  156MOL0     H21009   4.721   4.363   6.258 -3.6550  2.0828 -0.1735
  156MOL0     H21010   4.753   4.505   6.348 -2.1772  0.0458  1.0783
  156MOL0     H21011   4.624   4.129   6.418  1.0352 -0.0621  2.3245
  156MOL0     H21012   4.325   4.101   6.588  0.5550  2.7020 -1.6002
  156MOL0     H21013   4.478   4.011   6.553 -0.1158 -1.3932  1.3561
  156MOL0     H21014   4.580   4.031   6.766  0.1200 -1.4274 -0.6269
  156MOL0     H21015   4.435   3.936   6.774 -1.6910  1.6001  3.0271
  156MOL0     H21016   4.320   4.157   6.829 -0.9707 -0.8225 -1.2082
  156MOL0     H21017   4.478   4.215   6.881 -1.8798  0.9816 -0.4318
  156MOL0     H21018   4.524   4.020   7.018 -0.2925  1.8735  3.4258
  156MOL0     H21019   4.355   3.965   6.994 -2.5320  1.3278 -1.1637
  156MOL0     H21020   4.327   4.154   7.352  0.0025 -3.1877  1.1504
  156MOL0     H21021   4.076   4.022   7.535 -0.5863 -0.0822 -1.3802
  156MOL0     H21022   4.221   4.113   7.533 -1.1170  2.4354  1.6348
  156MOL0     H21023   4.070   4.203   7.544 -0.4007  0.6576 -0.2026
  156MOL0     H21024   3.556   4.069   7.117 -1.4214 -1.1050  0.5729
  156MOL0     H21025   3.346   4.021   7.182 -1.5705 -0.2705  0.5091
  156MOL0     H21026   3.242   3.998   7.584 -2.1884 -5.1204 -0.3298
  156MOL0     H21027   3.100   4.114   7.567 -0.2911  0.1988 -0.7358
  156MOL0     H21028   3.119   3.841   7.428 -0.4048 -0.0092 -1.4351
  156MOL0     H21029   3.048   3.875   7.587  0.4402  0.6227  0.6114
  156MOL0     H21030   2.964   3.999   7.314 -1.8010 -2.3180 -1.0933
  156MOL0     H21031   2.899   4.062   7.468  1.1483 -0.3384  1.1434
  156MOL0     H21032   2.864   3.769   7.418  0.6828  0.0951 -0.8313
  156MOL0     H21033   2.785   3.872   7.524 -1.3417 -1.8402 -0.1335
  156MOL0     H21034   2.782   3.901   7.224 -0.9135  0.2629 -0.3501
  156MOL0     H21035   2.695   4.003   7.341  0.1114 -1.1257  2.3383
  156MOL0     H21036   2.552   3.831   7.229  1.4872 -1.9992 -0.3181
  156MOL0     H21037   2.641   3.707   7.294 -1.7091 -0.0394 -0.6319
  156MOL0     H21038   2.597   3.747   7.523 -0.8790 -0.5999  0.6205
  156MOL0     H21039   2.444   3.732   7.419 -1.9603  0.8040  1.3846
  156MOL0     H21040   2.456   3.993   7.429 -1.0669  0.8645  0.6296
  156MOL0     H21041   2.562   3.981   7.551  0.0601 -0.0742 -1.2069
  156MOL0     H21042   3.421   4.195   7.577 -2.1107  0.3419 -1.0123
  156MOL0     H21043   3.639   4.218   7.525 -0.6890 -5.0097  2.2499
  156MOL0     H21044   3.926   4.101   7.071  0.6274 -0.5573 -1.7073
  156MOL0     H21045   4.158   4.082   6.960  1.9142 -2.3714  0.3378
  156MOL0     H21046   5.506   4.179   5.945 -1.9039 -0.1252 -0.0839
  156MOL0     H21047   5.594   3.953   6.025  1.0191  1.7443 -0.5683
  156MOL0     H21048   5.810   3.753   6.380 -0.8440  0.4150  0.3063
  156MOL0     H21049   5.916   3.581   6.496 -1.5090  2.5081 -0.4792
  156MOL0     H21050   6.001   3.359   6.497  0.3237 -0.4077  0.6597
  156MOL0     H21051   5.943   3.399   6.668 -0.7368  0.2624  0.3766
  156MOL0     H21052   5.942   3.116   6.559 -0.4260 -1.4960  2.9806
  156MOL0     H21053   5.952   3.158   6.718 -1.7800 -2.7774 -1.6669
  156MOL0     H21054   6.182   3.300   6.642 -1.8186  1.0948  1.0206
  156MOL0     H21055   6.182   3.172   6.521  0.3635  1.2340 -1.2462
  156MOL0     H21056   6.299   3.072   6.686  0.1645  1.2162  1.1086
  156MOL0     H21057   6.136   3.016   6.716 -0.1284 -0.0714  3.9846
  156MOL0     H21058   6.231   3.321   7.024 -1.4999  2.6770 -2.3843
  156MOL0     H21059   5.571   3.332   6.412  0.9272 -0.8685 -0.5022
  156MOL0     H21060   5.466   3.507   6.296 -0.7437 -0.0089  0.9012
  157MOL0     O21061   3.816   2.009   7.582 -0.0236 -0.7788 -0.0924
  157MOL0     C21062   3.887   1.994   7.678  0.5394 -0.4362  0.2852
  157MOL0     O21063   3.848   1.955   7.802  0.1134 -0.5386 -0.3558
  157MOL0     C21064   3.711   1.969   7.824  0.5242 -0.0678 -0.5673
  157MOL0     C21065   3.640   1.852   7.859  0.0029  0.0643 -0.3389
  157MOL0     C21066   3.520   1.860   7.920  0.3375  0.1991 -0.3806
  157MOL0     C21067   3.448   1.974   7.943 -0.4421 -1.1783 -0.0221
  157MOL0     O21068   3.329   1.962   8.009 -0.0580  0.1939 -0.6138
  157MOL0     C21069   3.247   2.072   8.038  0.2154 -0.2716  0.6776
  157MOL0     C21070   3.111   2.037   8.095 -0.2600 -0.0627  1.3114
  157MOL0     C21071   3.007   2.150   8.118 -0.6329  0.6142  0.5448
  157MOL0     C21072   2.888   2.096   8.185 -0.6548  0.1784  0.2998
  157MOL0     C21073   2.778   2.205   8.211 -0.5621 -0.0026  0.7308
  157MOL0     C21074   2.719   2.255   8.079  0.4026 -0.5158  0.4633
  157MOL0     C21075   2.596   2.349   8.108  0.0248 -0.3753  0.5146
  157MOL0     C21076   2.546   2.419   7.974  0.2133 -0.2434 -0.5045
  157MOL0     N21077   2.425   2.494   8.009 -0.4847  0.5916 -0.7580
  157MOL0     C21078   2.412   2.594   8.101 -0.2250  0.3459  0.6026
  157MOL0     C21079   2.282   2.613   8.112 -0.8317 -0.0111 -0.1658
  157MOL0     C21080   2.224   2.713   8.207 -0.1296 -0.3641 -0.0212
  157MOL0     C21081   2.090   2.780   8.173  0.2201 -0.6420  0.3565
  157MOL0     C21082   1.971   2.685   8.188  0.2981  0.4650  0.0417
  157MOL0     C21083   1.843   2.762   8.165  0.1503 -0.7335  0.5733
  157MOL0     O21084   1.806   2.848   8.273  0.0840  0.7566 -0.4587
  157MOL0     C21085   1.738   2.796   8.384 -0.2503  1.0372  0.6401
  157MOL0     C21086   1.731   2.660   8.407 -0.9531 -0.5521 -0.1633
  157MOL0     C21087   1.662   2.610   8.517  0.8376  0.1103 -0.1929
  157MOL0     C21088   1.664   2.457   8.534 -0.0094 -0.1461 -0.1225
  157MOL0     C21089   1.589   2.695   8.606  1.0770  0.6139  0.5896
  157MOL0     C21090   1.525   2.656   8.733  0.5527 -0.1539  0.7416
  157MOL0     O21091   1.444   2.751   8.788 -0.3794 -0.6540 -0.5193
  157MOL0     C21092   1.396   2.720   8.918  0.0485 -0.0274 -0.1058
  157MOL0     C21093   1.472   2.751   9.024 -0.0761 -0.4099 -0.0375
  157MOL0     C21094   1.453   2.715   9.153  0.0174 -0.5711 -0.8412
  157MOL0     C21095   1.339   2.640   9.184  0.3487  0.0649  0.2795
  157MOL0     O21096   1.292   2.596   9.313 -0.0536 -0.1357  0.9867
  157MOL0     C21097   1.361   2.642   9.428  0.0765 -0.0516  0.2351
  157MOL0     C21098   1.273   2.621   9.548 -0.0993 -0.3581 -1.1205
  157MOL0     C21099   1.126   2.661   9.542 -0.4744 -0.2080  0.3790
  157MOL0     C21100   1.056   2.612   9.665  0.1559  1.2559 -0.6149
  157MOL0     C21101   0.899   2.636   9.660 -0.0059  0.1988  0.7285
  157MOL0     C21102   0.826   2.533   9.566 -0.7936 -0.0090 -0.7952
  157MOL0     C21103   0.673   2.570   9.574 -0.7334 -0.2341 -0.3351
  157MOL0     C21104   0.596   2.501   9.468  0.2759 -0.0271  0.1357
  157MOL0    Cl21105   0.443   2.595   9.465 -0.2684 -0.5788 -0.3887
  157MOL0     C21106   1.253   2.616   9.077  0.5700  0.4914 -0.6908
  157MOL0     C21107   1.278   2.653   8.947  0.0153 -0.1146  0.1237
  157MOL0     O21108   1.545   2.548   8.783  0.0127 -0.2287 -0.2352
  157MOL0     C21109   1.595   2.830   8.586  0.4928 -0.5429 -0.3135
  157MOL0     C21110   1.669   2.882   8.471  0.6915  0.6365  0.0407
  157MOL0     N21111   2.215   2.539   8.018 -0.6083  1.1134 -1.0053
  157MOL0     N21112   2.307   2.464   7.955 -0.6545  0.3310 -0.5272
  157MOL0     C21113   3.511   2.095   7.885  0.3895  0.3260  0.7297
  157MOL0     C21114   3.638   2.097   7.829  0.3138  1.1109  0.1784
  157MOL0     C21115   4.028   2.021   7.661 -0.9673 -0.4158  0.2454
  157MOL0     C21116   4.105   1.990   7.543 -0.3933  0.9152 -0.6037
  157MOL0     C21117   4.243   2.025   7.529 -0.1841 -0.4401 -0.2187
  157MOL0     C21118   4.307   2.096   7.629 -0.9053 -0.0404 -0.3426
  157MOL0     O21119   4.445   2.112   7.633 -0.1888  0.9901 -0.2714
  157MOL0     C21120   4.526   2.168   7.737 -0.7908 -0.2466  0.2428
  157MOL0     C21121   4.672   2.117   7.726 -0.1470 -0.9794 -0.4052
  157MOL0     C21122   4.689   1.961   7.724 -0.7760  0.4072  0.7046
  157MOL0     C21123   4.775   1.881   7.814 -0.9516 -0.0493  0.8142
  157MOL0     C21124   4.920   1.894   7.784  0.4359 -0.6077  1.0986
  157MOL0     C21125   5.042   1.895   7.761  0.2420 -0.0713 -1.1153
  157MOL0     C21126   4.240   2.119   7.744 -0.0284 -0.4652  0.3576
  157MOL0     C21127   4.107   2.081   7.762  0.9486  0.3130  0.3168
  157MOL0     H21128   3.684   1.753   7.857 -2.4705 -1.0984 -1.2637
  157MOL0     H21129   3.471   1.769   7.951 -1.6483  1.5585  0.7316
  157MOL0     H21130   3.305   2.145   8.094 -0.4552  0.9402 -0.1759
  157MOL0     H21131   3.231   2.123   7.942  2.4068  3.8811  2.3204
  157MOL0     H21132   3.067   1.964   8.027 -0.2445  2.2918 -1.4294
  157MOL0     H21133   3.138   1.981   8.185 -1.7169 -3.3915 -0.1670
  157MOL0     H21134   3.041   2.228   8.187 -1.1314  0.3967  1.0452
  157MOL0     H21135   2.984   2.194   8.021 -2.2576 -0.4992  0.3950
  157MOL0     H21136   2.838   2.021   8.123 -1.4781 -1.2390  2.5519
  157MOL0     H21137   2.917   2.053   8.282 -1.5848 -2.8240 -0.6548
  157MOL0     H21138   2.703   2.169   8.281 -1.8582 -1.0258 -1.0935
  157MOL0     H21139   2.820   2.297   8.253 -2.7233  0.0600  2.9660
  157MOL0     H21140   2.786   2.314   8.016  1.1224  1.0177  2.5840
  157MOL0     H21141   2.697   2.169   8.014 -1.8136  0.1051  0.3167
  157MOL0     H21142   2.513   2.288   8.143 -0.4099  0.5193  1.0894
  157MOL0     H21143   2.622   2.434   8.172 -0.3185  0.0357  0.1164
  157MOL0     H21144   2.515   2.339   7.905  3.2069 -1.9218 -0.0762
  157MOL0     H21145   2.625   2.480   7.929 -0.3859 -0.9919 -2.7042
  157MOL0     H21146   2.488   2.638   8.164 -0.3125 -1.5416  2.0946
  157MOL0     H21147   2.228   2.671   8.308  3.6110 -0.2572  0.0083
  157MOL0     H21148   2.296   2.793   8.227 -1.2711  1.3947 -2.4401
  157MOL0     H21149   2.088   2.828   8.075 -3.3841  1.9780  1.4941
  157MOL0     H21150   2.083   2.859   8.248  0.4974 -0.1192 -0.1610
  157MOL0     H21151   1.979   2.656   8.293  0.8085  5.6271  1.7241
  157MOL0     H21152   1.976   2.598   8.123  0.6842 -0.7217  1.6102
  157MOL0     H21153   1.764   2.693   8.135  1.2579 -1.4521 -0.7626
  157MOL0     H21154   1.868   2.824   8.078 -1.3452 -1.6509 -0.5450
  157MOL0     H21155   1.779   2.587   8.342  0.4371  1.0405 -1.0090
  157MOL0     H21156   1.744   2.414   8.472  1.9056 -1.4437  3.0082
  157MOL0     H21157   1.691   2.423   8.634 -0.2816 -2.6666 -0.8330
  157MOL0     H21158   1.563   2.417   8.520 -0.8760  1.6295  0.7518
  157MOL0     H21159   1.562   2.805   8.996 -1.2641  3.3119  2.4714
  157MOL0     H21160   1.511   2.757   9.235 -2.2204  3.3523 -1.0244
  157MOL0     H21161   1.459   2.594   9.431  0.2738  0.0345 -2.4152
  157MOL0     H21162   1.365   2.752   9.421 -5.7934  0.5130  0.8695
  157MOL0     H21163   1.282   2.513   9.565  0.7731 -0.0582  0.5943
  157MOL0     H21164   1.325   2.664   9.634  0.8422 -2.8334 -0.3626
  157MOL0     H21165   1.078   2.636   9.446 -1.7197  0.7067  0.7390
  157MOL0     H21166   1.118   2.769   9.552  1.6258 -0.1173  1.5368
  157MOL0     H21167   1.072   2.504   9.660  2.3142  1.5219 -0.4437
  157MOL0     H21168   1.101   2.652   9.757  0.1148 -0.3143  0.1198
  157MOL0     H21169   0.881   2.742   9.637 -1.7538 -0.3150 -0.5112
  157MOL0     H21170   0.859   2.612   9.759  0.7157 -1.2367  0.7030
  157MOL0     H21171   0.860   2.544   9.463  0.7792  3.4989 -0.0637
  157MOL0     H21172   0.838   2.430   9.603  1.0392  0.5541  0.3164
  157MOL0     H21173   0.668   2.675   9.545 -0.1537 -0.7026 -2.2141
  157MOL0     H21174   0.644   2.561   9.680  3.6029 -0.7462  1.0089
  157MOL0     H21175   0.585   2.394   9.485  1.9465 -0.5117 -1.5520
  157MOL0     H21176   0.646   2.505   9.371  0.3235 -5.0721 -0.3054
  157MOL0     H21177   1.159   2.565   9.093  0.1134  2.2128  3.6792
  157MOL0     H21178   1.202   2.630   8.872  0.4368  1.3875 -0.7939
  157MOL0     H21179   1.562   2.913   8.647 -0.6462 -0.7126 -0.6875
  157MOL0     H21180   1.687   2.987   8.454  2.9053  0.3606  0.3810
  157MOL0     H21181   3.467   2.193   7.894  1.4880  1.0427 -1.1224
  157MOL0     H21182   3.686   2.192   7.804  2.3232  1.2231  3.7089
  157MOL0     H21183   4.070   1.932   7.458  2.3802  0.7617 -1.7548
  157MOL0     H21184   4.309   1.990   7.451 -1.1623 -2.9001 -0.0474
  157MOL0     H21185   4.523   2.276   7.720 -2.0005 -0.5422 -1.6128
  157MOL0     H21186   4.497   2.158   7.842  0.5731  1.1536  0.7933
  157MOL0     H21187   4.743   2.151   7.802  0.5038  0.0863 -1.4731
  157MOL0     H21188   4.699   2.157   7.628 -2.8768 -0.3264 -0.9702
  157MOL0     H21189   4.714   1.942   7.619 -2.9246 -1.3540  0.4375
  157MOL0     H21190   4.586   1.925   7.736 -2.2254  2.9052 -2.6727
  157MOL0     H21191   4.757   1.773   7.815 -0.3747 -0.1434  1.7899
  157MOL0     H21192   4.780   1.919   7.916  3.4374 -0.4344  0.9126
  157MOL0     H21193   5.141   1.888   7.719  0.6656  0.0438 -0.1702
  157MOL0     H21194   4.279   2.176   7.828 -3.0022 -1.1480  2.3267
  157MOL0     H21195   4.053   2.110   7.851 -1.0094 -0.6933 -0.5007
  158MOL0     O21196   0.618  11.324   9.434  0.3602 -0.1153  0.6647
  158MOL0     C21197   0.577  11.225   9.376 -0.0774  0.6020 -0.1112
  158MOL0     O21198   0.627  11.164   9.266  0.3265  0.4003 -0.0573
  158MOL0     C21199   0.738  11.225   9.204 -0.8390 -0.1916 -0.5284
  158MOL0     C21200   0.865  11.217   9.253 -1.1760  0.3914  0.2437
  158MOL0     C21201   0.971  11.265   9.173 -0.0922 -0.0870  0.3596
  158MOL0     C21202   0.950  11.355   9.076  0.2493  1.3347  0.3426
  158MOL0     O21203   1.058  11.404   9.005 -0.4165  0.8436  0.5151
  158MOL0     C21204   1.069  11.362   8.869  0.0543 -0.7107 -0.1539
  158MOL0     C21205   1.136  11.224   8.848  0.5054 -0.3782  0.2801
  158MOL0     C21206   1.224  11.221   8.720  0.6087 -0.2828  0.5240
  158MOL0     C21207   1.161  11.140   8.609 -0.1241 -0.0764 -0.3347
  158MOL0     C21208   1.242  11.132   8.479  0.3318  0.7354 -0.7944
  158MOL0     C21209   1.374  11.061   8.493  0.3088  0.3988 -0.7507
  158MOL0     C21210   1.457  11.043   8.364 -0.6346 -0.6027  0.2528
  158MOL0     C21211   1.566  10.936   8.377 -0.5978  0.6648 -0.0119
  158MOL0     N21212   1.673  10.963   8.476  0.1070 -0.6675 -0.7505
  158MOL0     C21213   1.733  11.082   8.495  0.3597 -0.2680 -0.3772
  158MOL0     C21214   1.821  11.071   8.598 -0.0744  0.4966 -0.5476
  158MOL0     C21215   1.944  11.164   8.636  0.6816  0.2584  0.0207
  158MOL0     C21216   1.935  11.210   8.789 -0.1301 -0.9727 -0.4255
  158MOL0     C21217   2.049  11.297   8.833 -1.1059 -0.1847  0.0288
  158MOL0     C21218   2.016  11.453   8.831 -0.0686  0.3203  0.6573
  158MOL0     O21219   2.040  11.489   8.696 -0.4818 -0.6223 -0.2396
  158MOL0     C21220   1.970  11.587   8.634  0.4814 -0.3827  0.7002
  158MOL0     C21221   1.999  11.603   8.500 -0.2295  0.2069 -0.2966
  158MOL0     C21222   1.939  11.698   8.420  0.2147  0.4465  0.5846
  158MOL0     C21223   1.980  11.712   8.276  0.7420  0.5030 -0.3256
  158MOL0     C21224   1.831  11.778   8.477 -1.2620  0.8930  0.8197
  158MOL0     C21225   1.761  11.879   8.396  0.4865  0.3721  0.5307
  158MOL0     O21226   1.628  11.892   8.436 -0.4099  0.7197  0.1021
  158MOL0     C21227   1.558  11.977   8.352  0.5083 -0.5873 -0.9780
  158MOL0     C21228   1.559  12.113   8.394  0.3336  0.4267  0.1183
  158MOL0     C21229   1.484  12.203   8.316  0.4773  0.0604  0.4063
  158MOL0     C21230   1.400  12.167   8.220 -0.5985 -0.1925  0.1421
  158MOL0     O21231   1.308  12.262   8.179  0.2116 -0.4516  0.1395
  158MOL0     C21232   1.244  12.230   8.058 -0.0039 -0.1267  0.5087
  158MOL0     C21233   1.159  12.351   8.021 -0.4760 -0.2509  0.1788
  158MOL0     C21234   1.051  12.379   8.139  0.1738 -0.1409  0.7995
  158MOL0     C21235   0.939  12.469   8.086  0.5036 -0.4816  0.2898
  158MOL0     C21236   0.831  12.503   8.186 -0.3280 -0.9498  0.5780
  158MOL0     C21237   0.735  12.385   8.212  0.5361 -1.1696 -0.5147
  158MOL0     C21238   0.606  12.422   8.293 -0.4604 -0.0224 -0.3635
  158MOL0     C21239   0.508  12.310   8.287 -0.2655 -0.6318 -0.6415
  158MOL0    Cl21240   0.357  12.363   8.379  0.1809  0.0666  0.4373
  158MOL0     C21241   1.408  12.029   8.169 -0.3344 -0.0734  0.2425
  158MOL0     C21242   1.483  11.931   8.246 -0.3246  0.7428  0.2772
  158MOL0     O21243   1.813  11.946   8.305 -0.5176 -0.4286 -0.2951
  158MOL0     C21244   1.801  11.764   8.615  0.3300 -0.3833 -0.2342
  158MOL0     C21245   1.876  11.665   8.690  0.7765  0.0391 -0.3072
  158MOL0     N21246   1.795  10.955   8.657 -0.3712 -0.3232  0.0944
  158MOL0     N21247   1.705  10.881   8.589 -0.5922 -0.3264  1.0021
  158MOL0     C21248   0.822  11.383   9.037  0.0892  1.1342  0.3569
  158MOL0     C21249   0.714  11.309   9.094 -0.4347  0.6662 -0.0719
  158MOL0     C21250   0.465  11.161   9.438 -0.1775  0.7671  0.0182
  158MOL0     C21251   0.423  11.031   9.399 -0.8075  0.3707 -0.3544
  158MOL0     C21252   0.311  10.973   9.458 -0.1131  0.4018 -0.5217
  158MOL0     C21253   0.234  11.044   9.549  0.3280  1.0009 -0.3664
  158MOL0     O21254   0.136  10.957   9.603 -0.4618  0.0845  0.4165
  158MOL0     C21255   0.067  10.995   9.718  0.1421  0.4759  0.0330
  158MOL0     C21256  -0.075  10.969   9.702 -0.9021 -0.0871  0.3886
  158MOL0     C21257  -0.155  11.001   9.832  0.7369 -0.0615  0.0008
  158MOL0     C21258  -0.303  10.958   9.823 -0.0764  1.0172  0.2367
  158MOL0     C21259  -0.369  11.020   9.936 -0.3889 -0.0169  0.5389
  158MOL0     C21260  -0.432  11.087  10.020  0.3516  0.3315 -0.2978
  158MOL0     C21261   0.260  11.175   9.580 -0.3438  0.5203 -0.4130
  158MOL0     C21262   0.386  11.225   9.531 -0.1218  0.7106 -0.0889
  158MOL0     H21263   0.880  11.166   9.348 -4.9226 -2.3049 -0.3967
  158MOL0     H21264   1.073  11.257   9.209  0.6825 -1.6994 -1.9439
  158MOL0     H21265   0.970  11.364   8.824 -1.7146  1.9091  3.3704
  158MOL0     H21266   1.123  11.446   8.825 -1.4618  0.7181  0.6347
  158MOL0     H21267   1.198  11.189   8.931 -1.5005  1.6618  2.8370
  158MOL0     H21268   1.063  11.146   8.822  1.5973 -0.6646 -2.2007
  158MOL0     H21269   1.256  11.324   8.702  0.0698  0.3860  2.9629
  158MOL0     H21270   1.317  11.173   8.752 -0.3118 -2.4498  0.0989
  158MOL0     H21271   1.135  11.038   8.642  1.9719 -1.2591 -2.0810
  158MOL0     H21272   1.069  11.193   8.582 -0.3374  2.0146  3.7116
  158MOL0     H21273   1.183  11.077   8.404  0.9464  1.1377 -1.5886
  158MOL0     H21274   1.243  11.237   8.447 -0.2443  1.4313  1.3001
  158MOL0     H21275   1.434  11.113   8.567 -0.9113 -2.3644  2.4829
  158MOL0     H21276   1.365  10.959   8.532 -2.5392  0.7644 -0.1960
  158MOL0     H21277   1.400  10.996   8.284 -1.4129 -3.4504  2.3346
  158MOL0     H21278   1.497  11.137   8.325  1.0112 -1.8893 -1.3558
  158MOL0     H21279   1.618  10.934   8.280  0.9177 -1.4998  0.7760
  158MOL0     H21280   1.517  10.840   8.390 -1.8179  1.1344 -0.9882
  158MOL0     H21281   1.740  11.166   8.426  2.6102 -2.4403 -3.0626
  158MOL0     H21282   2.034  11.105   8.619 -0.1042 -0.9920  0.0326
  158MOL0     H21283   1.953  11.241   8.559  0.1455 -2.5098 -2.9805
  158MOL0     H21284   1.930  11.131   8.864 -0.8751 -0.0389  0.5393
  158MOL0     H21285   1.841  11.266   8.785  0.5370  0.1284 -2.4664
  158MOL0     H21286   2.141  11.279   8.777 -1.6416 -2.0873 -0.2818
  158MOL0     H21287   2.068  11.277   8.939  0.9825  1.9610  0.1442
  158MOL0     H21288   2.084  11.519   8.885 -0.9727  4.6479 -2.9515
  158MOL0     H21289   1.918  11.464   8.878 -1.7965  1.4475 -2.8591
  158MOL0     H21290   2.080  11.544   8.459 -1.1715 -1.7106  0.4745
  158MOL0     H21291   2.034  11.626   8.237 -2.1205 -0.9803 -1.2837
  158MOL0     H21292   1.900  11.731   8.204  0.8946  0.8506 -0.4058
  158MOL0     H21293   2.052  11.795   8.282 -1.8082  2.8048  0.9195
  158MOL0     H21294   1.621  12.144   8.478  1.0954 -0.8329  0.0519
  158MOL0     H21295   1.485  12.309   8.341  0.8778 -0.0507  0.8859
  158MOL0     H21296   1.306  12.204   7.972 -0.6877  1.3104 -0.4439
  158MOL0     H21297   1.176  12.147   8.078  0.6674 -0.6857  0.5095
  158MOL0     H21298   1.226  12.437   8.018  0.8582 -1.1942  1.5764
  158MOL0     H21299   1.107  12.335   7.926  0.4817  2.4093 -0.8972
  158MOL0     H21300   1.097  12.427   8.226  2.8271 -0.5948 -0.2607
  158MOL0     H21301   1.010  12.286   8.180 -1.8265  0.4043  0.1694
  158MOL0     H21302   0.988  12.562   8.057 -2.0222  0.8551 -0.0118
  158MOL0     H21303   0.892  12.425   7.997  1.2741  0.0071 -0.3813
  158MOL0     H21304   0.771  12.588   8.150 -1.8453 -1.7034  1.2192
  158MOL0     H21305   0.884  12.537   8.275  1.7478 -0.0247 -0.9148
  158MOL0     H21306   0.712  12.339   8.116  0.4799 -0.9619 -0.6009
  158MOL0     H21307   0.783  12.308   8.273 -0.2703 -2.1101 -1.0275
  158MOL0     H21308   0.569  12.512   8.244  1.9233 -0.1044 -2.5482
  158MOL0     H21309   0.633  12.443   8.397  1.8709 -1.6354 -0.5577
  158MOL0     H21310   0.558  12.227   8.338  0.4683  0.6755  0.8624
  158MOL0     H21311   0.486  12.304   8.180  2.3593  0.7546 -1.3475
  158MOL0     H21312   1.350  11.993   8.085  1.2114  0.9601 -1.3302
  158MOL0     H21313   1.483  11.827   8.216 -1.6205  0.5027  1.0368
  158MOL0     H21314   1.722  11.817   8.668  0.0469  1.4782 -2.3803
  158MOL0     H21315   1.849  11.660   8.795 -2.1895  4.3362 -0.5919
  158MOL0     H21316   0.798  11.456   8.961  0.8983 -0.2523 -1.2968
  158MOL0     H21317   0.616  11.334   9.056  0.2575  1.3037 -1.5416
  158MOL0     H21318   0.485  10.969   9.335 -0.8473 -1.3581  1.2326
  158MOL0     H21319   0.292  10.871   9.426  0.4604  1.0516 -3.1178
  158MOL0     H21320   0.102  10.920   9.789 -0.2653  0.3204  0.0728
  158MOL0     H21321   0.087  11.093   9.762 -2.0364  0.1910  1.8805
  158MOL0     H21322  -0.093  10.862   9.685 -1.5786 -0.3524  2.5149
  158MOL0     H21323  -0.104  11.039   9.623  1.7984  0.8211  0.1080
  158MOL0     H21324  -0.160  11.108   9.854 -1.4732 -0.2432  0.6673
  158MOL0     H21325  -0.101  10.950   9.913  1.1748  0.7090  0.1984
  158MOL0     H21326  -0.313  10.849   9.828  0.8668  0.9925  2.7264
  158MOL0     H21327  -0.347  10.993   9.729  0.5932 -1.9975 -1.3262
  158MOL0     H21328  -0.498  11.154  10.072  1.0663 -0.7705  2.1692
  158MOL0     H21329   0.199  11.238   9.643  1.1945  3.3284 -1.5445
  158MOL0     H21330   0.422  11.324   9.559 -0.8821  0.9186  0.1829
  159MOL0     O21331   6.505   4.858   6.376  0.8333 -0.5645 -0.1717
  159MOL0     C21332   6.521   4.852   6.253 -0.0027  0.2915 -0.4954
  159MOL0     O21333   6.424   4.858   6.164 -0.0904  0.5276  0.5265
  159MOL0     C21334   6.292   4.856   6.198 -0.1913 -0.0357  0.5928
  159MOL0     C21335   6.211   4.939   6.120  0.3663  0.7122  0.4869
  159MOL0     C21336   6.071   4.954   6.145  1.0969  0.6398 -0.4907
  159MOL0     C21337   6.004   4.878   6.253 -0.1567 -0.1287 -0.0724
  159MOL0     O21338   5.865   4.893   6.280  1.0851 -0.5511 -0.0615
  159MOL0     C21339   5.805   4.801   6.378  0.3013 -1.6702 -0.0917
  159MOL0     C21340   5.645   4.813   6.397 -0.3901  0.1853  0.3898
  159MOL0     C21341   5.622   4.925   6.486 -0.1874 -0.3657  0.0342
  159MOL0     C21342   5.479   4.982   6.480  0.3543  0.0750 -0.5654
  159MOL0     C21343   5.476   5.120   6.538  0.0106 -1.0470  0.0285
  159MOL0     C21344   5.339   5.153   6.581  0.0071 -1.2265 -1.0974
  159MOL0     C21345   5.259   5.213   6.459  0.1842 -0.9154 -0.1627
  159MOL0     C21346   5.124   5.263   6.499  1.4743 -0.1396 -0.0069
  159MOL0     N21347   5.032   5.240   6.390  0.5004 -0.5537  0.4200
  159MOL0     C21348   4.910   5.178   6.406 -0.2210 -0.2258  0.1541
  159MOL0     C21349   4.831   5.233   6.313  0.5520 -0.5936  0.1450
  159MOL0     C21350   4.684   5.203   6.311  0.4345 -0.2100 -0.4548
  159MOL0     C21351   4.617   5.155   6.442  0.0278 -0.1018 -0.4064
  159MOL0     C21352   4.474   5.215   6.458 -0.0009  0.3638 -0.0478
  159MOL0     C21353   4.476   5.358   6.498  0.0189  0.2196 -0.7700
  159MOL0     O21354   4.354   5.414   6.461  0.0278 -0.3611  0.0364
  159MOL0     C21355   4.235   5.392   6.525 -0.0691 -0.0581  0.8021
  159MOL0     C21356   4.123   5.460   6.469 -0.9035 -0.5204 -0.2628
  159MOL0     C21357   3.997   5.458   6.533  0.1288 -0.2130  0.2229
  159MOL0     C21358   3.876   5.532   6.482  0.2698 -0.6754 -0.0298
  159MOL0     C21359   3.982   5.374   6.649 -0.2932 -0.3252  0.3439
  159MOL0     C21360   3.844   5.349   6.704 -0.2047 -0.1745 -0.5642
  159MOL0     O21361   3.733   5.350   6.633  0.3112 -0.0624  0.3047
  159MOL0     C21362   3.607   5.357   6.696 -1.2545  0.4719  0.9217
  159MOL0     C21363   3.583   5.441   6.802  0.6427  0.6068  1.8890
  159MOL0     C21364   3.450   5.456   6.848  0.5353  0.2993  0.5349
  159MOL0     C21365   3.349   5.389   6.780  0.1866 -0.3431 -0.2865
  159MOL0     O21366   3.224   5.426   6.823  0.0552  0.4427 -0.3351
  159MOL0     C21367   3.112   5.423   6.732 -0.2856  0.0036  0.2390
  159MOL0     C21368   3.040   5.290   6.737 -0.5349  0.2331 -0.0462
  159MOL0     C21369   2.976   5.273   6.876  0.6851 -0.2727 -0.1890
  159MOL0     C21370   2.824   5.256   6.854 -0.0158  0.2876 -0.7518
  159MOL0     C21371   2.733   5.224   6.976  0.2358 -0.4875  0.7620
  159MOL0     C21372   2.589   5.231   6.955  0.6339  0.9181  0.0657
  159MOL0     C21373   2.556   5.131   6.841 -0.7931 -0.0798  0.1322
  159MOL0     C21374   2.405   5.115   6.831  0.2270  0.9488  0.0106
  159MOL0    Cl21375   2.324   5.068   6.992 -0.0547  0.1489 -0.0935
  159MOL0     C21376   3.374   5.315   6.663 -0.2870  0.5657  1.2177
  159MOL0     C21377   3.506   5.288   6.626 -0.3658  0.4613  0.5258
  159MOL0     O21378   3.849   5.317   6.825  0.2486  0.3002 -0.0090
  159MOL0     C21379   4.099   5.320   6.714 -0.3503 -0.5632 -0.4423
  159MOL0     C21380   4.223   5.326   6.649 -0.0397  0.6583  0.7069
  159MOL0     N21381   4.896   5.329   6.240 -0.0746 -0.1040 -0.4831
  159MOL0     N21382   5.018   5.325   6.286  0.1080 -0.6274  1.1091
  159MOL0     C21383   6.090   4.790   6.313 -0.3001  0.5995  0.3229
  159MOL0     C21384   6.232   4.775   6.289 -0.1972 -0.2751 -0.2492
  159MOL0     C21385   6.652   4.836   6.193 -0.5179  0.2142 -0.0062
  159MOL0     C21386   6.775   4.810   6.257 -0.3952  0.4119  0.1102
  159MOL0     C21387   6.899   4.786   6.198 -0.8770  0.0097  0.0571
  159MOL0     C21388   6.913   4.772   6.059 -0.8820  0.0278  0.0338
  159MOL0     O21389   7.031   4.731   6.009 -0.0590 -0.3758 -0.6444
  159MOL0     C21390   7.035   4.659   5.889  0.5317  0.5218  1.2682
  159MOL0     C21391   7.095   4.731   5.773 -0.0188 -0.8150  0.7425
  159MOL0     C21392   7.221   4.818   5.806  0.4213  0.5285  0.7579
  159MOL0     C21393   7.298   4.850   5.664  1.6352 -0.8228 -0.2490
  159MOL0     C21394   7.388   4.748   5.610  0.9852  0.8085  0.4002
  159MOL0     C21395   7.462   4.656   5.564  0.6535 -0.6215 -0.1454
  159MOL0     C21396   6.799   4.796   5.987  1.2434 -0.7392  0.0916
  159MOL0     C21397   6.678   4.824   6.052  0.6088  0.2762  0.2878
  159MOL0     H21398   6.266   4.984   6.038 -1.3868 -0.0157 -1.1889
  159MOL0     H21399   6.002   5.012   6.084  0.1429  0.0628  0.0009
  159MOL0     H21400   5.824   4.694   6.363 -2.4177 -2.5247  1.7588
  159MOL0     H21401   5.838   4.826   6.480 -1.0220 -1.6348  0.3388
  159MOL0     H21402   5.608   4.824   6.294  2.2651 -3.2210 -1.1519
  159MOL0     H21403   5.605   4.721   6.440  0.0630 -0.4398 -0.4960
  159MOL0     H21404   5.639   4.900   6.591  0.0671 -0.2354  0.0242
  159MOL0     H21405   5.701   4.998   6.466  1.2903 -1.6383  0.9860
  159MOL0     H21406   5.441   4.992   6.378  2.0541  1.4657 -1.1218
  159MOL0     H21407   5.422   4.914   6.543  0.8708 -0.7578 -0.9699
  159MOL0     H21408   5.538   5.113   6.629  2.9298 -2.2120 -1.9003
  159MOL0     H21409   5.509   5.196   6.468 -2.4691  0.7286  0.6367
  159MOL0     H21410   5.282   5.079   6.637  1.4559 -1.9431 -0.5074
  159MOL0     H21411   5.361   5.231   6.655  2.6038 -2.5482 -0.3323
  159MOL0     H21412   5.310   5.295   6.407 -0.6174 -1.1260 -1.3123
  159MOL0     H21413   5.252   5.134   6.384  0.5955  0.7497 -2.0566
  159MOL0     H21414   5.120   5.368   6.529 -1.4578 -0.0814 -0.3634
  159MOL0     H21415   5.096   5.199   6.583  0.7300 -3.1591 -2.4006
  159MOL0     H21416   4.888   5.106   6.484  0.9011 -0.0815  0.6262
  159MOL0     H21417   4.645   5.299   6.276 -3.4403 -1.7258 -0.8223
  159MOL0     H21418   4.655   5.140   6.226 -1.5722 -1.4364  1.0387
  159MOL0     H21419   4.685   5.184   6.522  1.7582 -4.2163 -0.1235
  159MOL0     H21420   4.616   5.045   6.447 -1.3996 -0.1936 -1.6923
  159MOL0     H21421   4.405   5.163   6.525  2.0099 -0.3794  1.5581
  159MOL0     H21422   4.433   5.201   6.357  1.7934 -0.2476 -0.7283
  159MOL0     H21423   4.565   5.398   6.449 -0.1657 -0.9549 -2.1367
  159MOL0     H21424   4.489   5.361   6.606  1.1067  1.0686 -0.9137
  159MOL0     H21425   4.141   5.512   6.375 -0.2680 -3.5629 -1.9772
  159MOL0     H21426   3.897   5.602   6.401 -1.6117 -1.0327 -0.8762
  159MOL0     H21427   3.806   5.464   6.434 -1.1617  1.5924 -1.2788
  159MOL0     H21428   3.825   5.587   6.561 -4.0481 -3.5865 -0.4480
  159MOL0     H21429   3.657   5.504   6.850 -1.9867  4.8295  0.8928
  159MOL0     H21430   3.423   5.509   6.939  2.4324  2.2665  0.0341
  159MOL0     H21431   3.034   5.491   6.768 -1.2425 -1.4434  0.9648
  159MOL0     H21432   3.150   5.463   6.638 -2.6259 -0.4035 -0.9241
  159MOL0     H21433   2.975   5.284   6.649 -2.9748  0.8413  1.6212
  159MOL0     H21434   3.115   5.210   6.740 -0.9905 -0.2696 -1.4038
  159MOL0     H21435   2.984   5.362   6.939  0.5464  0.4300 -1.1356
  159MOL0     H21436   3.010   5.185   6.931  0.7845  0.2333  0.5851
  159MOL0     H21437   2.774   5.339   6.804 -1.8523 -1.0153 -1.1841
  159MOL0     H21438   2.816   5.167   6.791  0.0657 -1.3794  1.4895
  159MOL0     H21439   2.754   5.290   7.061  2.6133  1.4363 -1.1746
  159MOL0     H21440   2.758   5.123   7.011  1.9251 -0.5218 -0.4374
  159MOL0     H21441   2.536   5.206   7.047  0.8684 -1.8597 -0.4519
  159MOL0     H21442   2.559   5.327   6.912 -1.4615 -0.0661 -0.7963
  159MOL0     H21443   2.595   5.034   6.873 -1.2799  0.5306  2.7936
  159MOL0     H21444   2.589   5.165   6.742 -0.2617  2.1150  0.9898
  159MOL0     H21445   2.390   5.039   6.754  5.7902 -2.1184  1.4528
  159MOL0     H21446   2.359   5.208   6.796 -0.0966  0.5729 -0.5877
  159MOL0     H21447   3.297   5.254   6.617  0.0464  0.0701  1.3072
  159MOL0     H21448   3.535   5.230   6.539  1.8553  1.1261  0.7531
  159MOL0     H21449   4.092   5.287   6.817  3.6579  4.5455  1.9545
  159MOL0     H21450   4.310   5.295   6.707  0.4345  2.7630  1.1995
  159MOL0     H21451   6.039   4.720   6.380 -1.4558  1.2480  0.1570
  159MOL0     H21452   6.294   4.709   6.348  1.4423  0.1291 -1.4443
  159MOL0     H21453   6.765   4.832   6.363 -0.1128  1.7183 -0.1160
  159MOL0     H21454   6.986   4.778   6.263  0.1798  1.7602 -1.0691
  159MOL0     H21455   7.101   4.574   5.909 -1.1536 -0.4076  3.2957
  159MOL0     H21456   6.941   4.605   5.876  0.9512  0.2444 -0.9722
  159MOL0     H21457   7.023   4.805   5.736 -0.8712 -0.2356  3.3625
  159MOL0     H21458   7.125   4.662   5.694  0.2015  1.5286 -1.3314
  159MOL0     H21459   7.290   4.759   5.867  1.3903 -1.3715 -1.9660
  159MOL0     H21460   7.188   4.911   5.854  0.5338  0.1908  1.4926
  159MOL0     H21461   7.350   4.945   5.677 -0.9202  0.3442  2.6570
  159MOL0     H21462   7.218   4.882   5.595 -1.7715 -0.7396  3.3758
  159MOL0     H21463   7.522   4.579   5.521  1.7926  0.3424 -0.3222
  159MOL0     H21464   6.803   4.797   5.878 -0.8375  1.2578 -0.0174
  159MOL0     H21465   6.597   4.837   5.981  2.8438 -0.4964 -2.5872
  160MOL0     O21466   3.654   8.162   0.075  0.3410 -0.2832  0.8467
  160MOL0     C21467   3.597   8.077   0.141  0.3737 -0.4378  0.1607
  160MOL0     O21468   3.589   7.947   0.115  0.0129  0.3778  0.0578
  160MOL0     C21469   3.618   7.913  -0.019 -0.0834 -0.5145 -1.1291
  160MOL0     C21470   3.748   7.892  -0.062  0.0024 -0.4155 -0.6538
  160MOL0     C21471   3.779   7.867  -0.195  0.1585  0.2279 -0.0500
  160MOL0     C21472   3.674   7.843  -0.287 -0.8700 -0.1393  0.8566
  160MOL0     O21473   3.681   7.799  -0.415  0.2995 -0.6749 -0.1393
  160MOL0     C21474   3.793   7.729  -0.458  0.2100 -0.5132  0.3669
  160MOL0     C21475   3.767   7.681  -0.607  0.1731  0.5346 -0.1862
  160MOL0     C21476   3.674   7.560  -0.610  0.0371  0.7904 -1.0583
  160MOL0     C21477   3.531   7.596  -0.656  0.3426  0.2444 -0.3998
  160MOL0     C21478   3.426   7.480  -0.683 -0.4078 -0.9879 -0.8451
  160MOL0     C21479   3.461   7.397  -0.807  0.4877  0.3037 -0.3869
  160MOL0     C21480   3.354   7.296  -0.855 -0.4278  0.3679  0.1056
  160MOL0     C21481   3.317   7.214  -0.728 -0.0174 -0.6072  0.3657
  160MOL0     N21482   3.257   7.084  -0.771  0.3072  0.4235  0.7163
  160MOL0     C21483   3.123   7.053  -0.805 -0.2127  0.1193  0.2467
  160MOL0     C21484   3.123   6.920  -0.830 -0.4942 -0.0705 -0.4297
  160MOL0     C21485   3.009   6.826  -0.879 -1.1683 -0.0594  0.2380
  160MOL0     C21486   2.972   6.699  -0.793 -0.2074 -1.1214 -0.4468
  160MOL0     C21487   2.847   6.617  -0.850  0.4070  0.0334 -0.5253
  160MOL0     C21488   2.803   6.509  -0.755  0.6574 -0.3875 -0.1003
  160MOL0     O21489   2.747   6.574  -0.644 -0.1031  0.4310 -0.3515
  160MOL0     C21490   2.614   6.562  -0.639  0.5475  0.1172  0.0620
  160MOL0     C21491   2.524   6.669  -0.617 -0.1888  0.3135 -0.9799
  160MOL0     C21492   2.385   6.644  -0.593  0.3834 -0.4958  0.0399
  160MOL0     C21493   2.305   6.772  -0.583 -0.3138  0.5217  0.0648
  160MOL0     C21494   2.333   6.512  -0.595  0.8709 -0.7046 -0.5245
  160MOL0     C21495   2.189   6.473  -0.582  0.2381  0.2600  0.0448
  160MOL0     O21496   2.157   6.342  -0.557  0.2410  0.2509  0.4928
  160MOL0     C21497   2.022   6.304  -0.543  0.7217  0.7060  0.7287
  160MOL0     C21498   1.984   6.183  -0.605 -0.0538  0.6219  0.9364
  160MOL0     C21499   1.850   6.143  -0.609  0.3958  0.4174 -0.3445
  160MOL0     C21500   1.750   6.216  -0.541 -0.9631 -1.0007  0.1488
  160MOL0     O21501   1.614   6.193  -0.540 -0.1189  0.3972  0.5405
  160MOL0     C21502   1.575   6.081  -0.633 -0.4021 -0.5580  0.3546
  160MOL0     C21503   1.424   6.069  -0.642 -0.0616 -0.2364  0.3891
  160MOL0     C21504   1.386   5.947  -0.717  0.6517  0.4728  0.5401
  160MOL0     C21505   1.229   5.942  -0.730 -0.3452  0.1154  0.1784
  160MOL0     C21506   1.185   5.798  -0.742  0.2516 -0.2869 -0.1096
  160MOL0     C21507   1.043   5.791  -0.794  0.0405  0.1608  0.4439
  160MOL0     C21508   1.022   5.647  -0.845  0.5116 -0.0173 -0.9398
  160MOL0     C21509   0.901   5.645  -0.936  0.3190  0.3878 -0.2468
  160MOL0    Cl21510   0.738   5.621  -0.853 -0.4585  0.5797  0.4882
  160MOL0     C21511   1.793   6.330  -0.473  0.1297 -0.5787  0.1110
  160MOL0     C21512   1.921   6.375  -0.481 -0.7863 -0.1168  0.1186
  160MOL0     O21513   2.106   6.563  -0.599 -0.0160 -0.3442 -0.0415
  160MOL0     C21514   2.427   6.416  -0.605 -0.7881 -0.4849 -0.9125
  160MOL0     C21515   2.565   6.440  -0.622 -0.4778  0.5051  0.8746
  160MOL0     N21516   3.252   6.864  -0.821  0.6050 -0.4464  0.7452
  160MOL0     N21517   3.325   6.970  -0.789  0.8747  0.4206 -0.1788
  160MOL0     C21518   3.544   7.878  -0.239 -0.0668 -0.4729 -0.2630
  160MOL0     C21519   3.514   7.891  -0.107  0.3824 -0.6605 -1.7535
  160MOL0     C21520   3.566   8.125   0.274 -0.3602  0.3642  0.2579
  160MOL0     C21521   3.499   8.042   0.363  0.2156 -0.2735 -0.1765
  160MOL0     C21522   3.472   8.089   0.494  0.0196 -1.0023 -0.2132
  160MOL0     C21523   3.498   8.227   0.539  0.9054  0.2038  0.3420
  160MOL0     O21524   3.479   8.279   0.661  0.0501  0.2394 -0.4778
  160MOL0     C21525   3.375   8.221   0.749 -0.9692 -0.1473 -0.5941
  160MOL0     C21526   3.361   8.294   0.892  0.5137 -0.5651  1.4963
  160MOL0     C21527   3.238   8.226   0.958  1.4315 -0.5340  0.3083
  160MOL0     C21528   3.168   8.315   1.063  0.3105 -0.0712  0.3959
  160MOL0     C21529   3.105   8.437   1.004 -0.6982 -0.6545 -0.2327
  160MOL0     C21530   3.054   8.545   0.971 -0.4212  1.0717  0.7626
  160MOL0     C21531   3.568   8.310   0.447  0.8658  1.0592 -0.2093
  160MOL0     C21532   3.582   8.263   0.314 -0.3968 -0.2833  0.0717
  160MOL0     H21533   3.823   7.913   0.013  0.9342  3.0010 -2.3233
  160MOL0     H21534   3.880   7.867  -0.234  1.0312 -3.5081  1.6916
  160MOL0     H21535   3.877   7.798  -0.445  1.6510 -1.8106 -1.5026
  160MOL0     H21536   3.809   7.642  -0.393  2.4096  1.3833  2.5869
  160MOL0     H21537   3.735   7.762  -0.674 -0.4932 -1.0205 -1.8495
  160MOL0     H21538   3.859   7.643  -0.652 -0.2288 -2.7392  1.4635
  160MOL0     H21539   3.714   7.492  -0.686 -0.9701  0.1741 -1.0531
  160MOL0     H21540   3.663   7.518  -0.510  0.6239  1.1398 -0.8394
  160MOL0     H21541   3.478   7.663  -0.588  0.1219  2.8063 -2.9377
  160MOL0     H21542   3.536   7.655  -0.748  0.1502 -1.7764 -1.7755
  160MOL0     H21543   3.412   7.414  -0.597 -0.0127  3.3445  2.8737
  160MOL0     H21544   3.331   7.530  -0.701  1.0698  2.4438  0.0929
  160MOL0     H21545   3.466   7.457  -0.898 -2.5371  0.4694 -0.5507
  160MOL0     H21546   3.559   7.350  -0.796 -0.9482 -3.0433 -0.5088
  160MOL0     H21547   3.265   7.339  -0.903 -0.2070  1.6384  0.7983
  160MOL0     H21548   3.406   7.231  -0.926  2.8269 -0.8293  3.2784
  160MOL0     H21549   3.248   7.267  -0.662  0.4425 -0.3787  0.6680
  160MOL0     H21550   3.404   7.189  -0.668 -1.2762 -1.1312  2.0380
  160MOL0     H21551   3.042   7.125  -0.799  3.2388  4.3514  1.5906
  160MOL0     H21552   2.916   6.882  -0.891 -1.5674 -0.8355 -0.4590
  160MOL0     H21553   3.036   6.786  -0.977  1.5016 -3.3889  2.0904
  160MOL0     H21554   2.940   6.733  -0.694  0.3232 -0.3776 -0.5201
  160MOL0     H21555   3.049   6.622  -0.774  1.8413  1.5788  3.9037
  160MOL0     H21556   2.857   6.568  -0.947 -0.9375 -0.9634 -0.1936
  160MOL0     H21557   2.765   6.688  -0.866  0.0740 -0.1576  0.2900
  160MOL0     H21558   2.888   6.447  -0.726  1.4793  0.2042 -1.1897
  160MOL0     H21559   2.732   6.449  -0.814 -1.1114 -0.1790  1.7266
  160MOL0     H21560   2.554   6.773  -0.625 -1.1027  0.7952  1.2181
  160MOL0     H21561   2.358   6.864  -0.556  1.2528 -0.0668 -0.8756
  160MOL0     H21562   2.269   6.783  -0.686 -0.5000  3.3238  0.3414
  160MOL0     H21563   2.215   6.755  -0.522 -1.3440  0.2896 -1.4633
  160MOL0     H21564   2.071   6.136  -0.650 -1.1028  1.4252 -2.1813
  160MOL0     H21565   1.820   6.067  -0.680 -3.5585  1.1592  0.3092
  160MOL0     H21566   1.620   6.106  -0.730 -2.0435  1.0782 -0.0291
  160MOL0     H21567   1.607   5.988  -0.585 -1.8891 -0.9648  0.6020
  160MOL0     H21568   1.380   6.060  -0.542 -0.0905  1.7654  0.5926
  160MOL0     H21569   1.372   6.156  -0.684 -1.4640 -1.4279 -0.4306
  160MOL0     H21570   1.410   5.858  -0.658 -4.5625  0.0967  2.5674
  160MOL0     H21571   1.446   5.937  -0.809 -0.1036  1.7835 -0.1183
  160MOL0     H21572   1.173   5.993  -0.651 -3.1891 -0.2483 -1.4628
  160MOL0     H21573   1.204   6.001  -0.819  1.1854 -0.5120 -0.6960
  160MOL0     H21574   1.203   5.734  -0.654 -0.6084 -0.7400 -0.2528
  160MOL0     H21575   1.253   5.759  -0.818  1.0483  1.3629 -0.2844
  160MOL0     H21576   0.963   5.812  -0.723  0.0724  2.1006 -0.0295
  160MOL0     H21577   1.017   5.867  -0.868 -1.7037 -2.9507 -2.4129
  160MOL0     H21578   1.028   5.573  -0.765 -1.5687  0.1080 -0.6201
  160MOL0     H21579   1.108   5.621  -0.907  2.5550 -0.2568  1.8236
  160MOL0     H21580   0.905   5.567  -1.013 -1.0542 -1.7231  1.7019
  160MOL0     H21581   0.888   5.741  -0.985 -2.0953  0.9740  1.3858
  160MOL0     H21582   1.729   6.392  -0.411 -0.7166 -0.9258 -0.3971
  160MOL0     H21583   1.957   6.470  -0.443 -0.4880 -0.4749  0.7468
  160MOL0     H21584   2.387   6.318  -0.585 -1.1367 -0.5735 -2.0106
  160MOL0     H21585   2.633   6.356  -0.626 -0.1362  0.7584  1.2834
  160MOL0     H21586   3.451   7.873  -0.294 -1.2680  0.7077  1.5687
  160MOL0     H21587   3.409   7.901  -0.078  1.3043 -1.0028  2.3887
  160MOL0     H21588   3.467   7.943   0.335  2.4717 -0.7345 -1.3985
  160MOL0     H21589   3.432   8.032   0.577 -0.3117 -3.1047 -1.7156
  160MOL0     H21590   3.281   8.216   0.693 -0.8287 -1.3981 -0.7431
  160MOL0     H21591   3.416   8.125   0.780  1.3686  1.1451  0.6011
  160MOL0     H21592   3.343   8.400   0.869 -2.4203 -0.9716  1.5303
  160MOL0     H21593   3.451   8.279   0.952  0.5718 -1.8468  1.1006
  160MOL0     H21594   3.271   8.131   1.001  0.9375 -1.7954 -1.9260
  160MOL0     H21595   3.167   8.205   0.877 -0.4766  1.0395  1.5123
  160MOL0     H21596   3.238   8.343   1.143  2.1027  2.9586 -2.0157
  160MOL0     H21597   3.091   8.260   1.119  0.4028 -1.5416 -0.8569
  160MOL0     H21598   3.004   8.639   0.959 -2.1577  0.6138  3.2932
  160MOL0     H21599   3.595   8.408   0.485 -1.1740  1.5664  0.0899
  160MOL0     H21600   3.615   8.343   0.249  0.5682  0.7077  1.6991
  161MOL0     O21601   8.537   7.815  10.741 -0.1327 -0.0031 -0.8010
  161MOL0     C21602   8.471   7.911  10.702 -0.3284  0.0870  0.4056
  161MOL0     O21603   8.508   8.048  10.723  0.0775 -0.9845  0.1680
  161MOL0     C21604   8.628   8.067  10.781  1.0458  0.7890  0.2720
  161MOL0     C21605   8.714   8.135  10.699 -1.2208  0.0987 -0.2831
  161MOL0     C21606   8.831   8.170  10.756 -0.2416  0.0371  0.5914
  161MOL0     C21607   8.876   8.121  10.884 -0.3560 -0.4840  0.4936
  161MOL0     O21608   8.994   8.160  10.938 -0.1129  0.1450  0.2043
  161MOL0     C21609   9.003   8.221  11.069  0.0237  0.4477 -0.3651
  161MOL0     C21610   8.972   8.373  11.062 -0.1443 -0.1439 -0.6520
  161MOL0     C21611   8.825   8.397  11.082  0.6051 -0.8316  0.1812
  161MOL0     C21612   8.803   8.541  11.043 -0.2340  0.3376  0.1398
  161MOL0     C21613   8.646   8.563  11.033 -1.2192  0.1425 -0.7543
  161MOL0     C21614   8.623   8.702  10.977 -0.2441 -0.5398  0.5691
  161MOL0     C21615   8.687   8.824  11.055  0.3806  0.4873  1.1308
  161MOL0     C21616   8.665   8.846  11.212  0.6781  0.2724  0.8743
  161MOL0     N21617   8.521   8.873  11.225 -0.2002  0.3326 -0.0701
  161MOL0     C21618   8.422   8.777  11.247 -0.3882 -0.9104 -0.3598
  161MOL0     C21619   8.324   8.844  11.309  0.1607 -0.1580 -0.2189
  161MOL0     C21620   8.185   8.785  11.349  0.4089 -0.3405 -0.3877
  161MOL0     C21621   8.179   8.719  11.480  1.1523  0.1952 -0.7688
  161MOL0     C21622   8.046   8.650  11.505  0.0844 -0.6601 -0.3589
  161MOL0     C21623   8.074   8.543  11.613  0.5833  0.2943 -0.9568
  161MOL0     O21624   7.949   8.485  11.647  0.4141  0.0967  0.4991
  161MOL0     C21625   7.961   8.390  11.747 -0.1104 -1.0210 -0.2034
  161MOL0     C21626   7.838   8.332  11.769  0.5580  0.5434  0.6482
  161MOL0     C21627   7.835   8.221  11.859  0.9220  0.4445  0.0276
  161MOL0     C21628   7.692   8.157  11.871 -0.1893  0.5773  0.0005
  161MOL0     C21629   7.954   8.175  11.934  0.2097 -0.2164 -0.4151
  161MOL0     C21630   7.952   8.072  12.043 -0.6659  0.3708 -0.5001
  161MOL0     O21631   8.079   8.038  12.102  0.4172 -0.1361  0.3734
  161MOL0     C21632   8.068   7.962  12.220 -0.7174 -0.1143  0.4598
  161MOL0     C21633   8.108   8.027  12.340  0.1841 -0.5248  1.4231
  161MOL0     C21634   8.109   7.951  12.460 -0.2088 -0.2673 -0.1139
  161MOL0     C21635   8.075   7.818  12.468  0.5653 -0.1246  0.1407
  161MOL0     O21636   8.087   7.764  12.592 -0.4597 -0.3248 -0.4488
  161MOL0     C21637   8.035   7.634  12.616  0.0211 -0.5693  0.4779
  161MOL0     C21638   8.087   7.565  12.745 -1.2509  0.3096  0.5477
  161MOL0     C21639   8.238   7.536  12.730  0.3450 -0.6137 -0.3683
  161MOL0     C21640   8.308   7.488  12.853  0.4292  0.6160 -0.6263
  161MOL0     C21641   8.444   7.428  12.808 -0.6101 -0.1770 -0.7098
  161MOL0     C21642   8.570   7.519  12.807 -0.1599  0.9491 -0.2531
  161MOL0     C21643   8.704   7.450  12.782  0.4448 -0.2724 -0.8460
  161MOL0     C21644   8.820   7.553  12.762  0.4080  0.6700  0.2450
  161MOL0    Cl21645   8.856   7.649  12.906 -0.2608  0.1891  0.3554
  161MOL0     C21646   8.027   7.764  12.346 -0.9945 -0.4465  0.3732
  161MOL0     C21647   8.028   7.834  12.228 -0.3306  0.1121 -0.2110
  161MOL0     O21648   7.847   8.022  12.078 -0.1711 -0.9199 -0.2942
  161MOL0     C21649   8.072   8.251  11.915 -0.3467  0.9753 -0.2620
  161MOL0     C21650   8.073   8.353  11.820 -0.3253 -0.1571 -0.0995
  161MOL0     N21651   8.345   8.977  11.316 -0.0915 -0.3333 -0.0542
  161MOL0     N21652   8.470   8.993  11.263  0.2018  0.1182 -0.4343
  161MOL0     C21653   8.791   8.035  10.949 -0.1827  0.5750 -0.1208
  161MOL0     C21654   8.666   8.005  10.904  0.5067  0.2921  0.1174
  161MOL0     C21655   8.339   7.875  10.645  0.9637 -0.7494 -0.2023
  161MOL0     C21656   8.269   7.756  10.660  0.2927 -0.2994 -0.0805
  161MOL0     C21657   8.129   7.748  10.638  0.3025  0.3628  0.1198
  161MOL0     C21658   8.050   7.861  10.598 -1.8471  0.6218  0.1136
  161MOL0     O21659   7.918   7.862  10.549 -0.6091 -0.3136  0.4268
  161MOL0     C21660   7.829   7.758  10.602  0.6508 -0.9112  0.0392
  161MOL0     C21661   7.690   7.825  10.636 -0.8447 -0.4588  0.6324
  161MOL0     C21662   7.615   7.874  10.508  0.8109  0.6155 -0.5888
  161MOL0     C21663   7.468   7.913  10.557 -0.4551  0.7234 -0.4219
  161MOL0     C21664   7.372   7.964  10.455  0.6498 -0.4060 -1.0173
  161MOL0     C21665   7.294   7.998  10.370 -0.4023  0.0062  0.9976
  161MOL0     C21666   8.123   7.981  10.586 -0.0999  0.3153 -0.2782
  161MOL0     C21667   8.263   7.989  10.597 -0.3189 -0.2523 -0.0313
  161MOL0     H21668   8.679   8.183  10.608  0.8948 -0.3862 -1.4213
  161MOL0     H21669   8.898   8.242  10.709  1.3177 -1.7579 -0.0435
  161MOL0     H21670   8.948   8.170  11.148  0.0080  2.0769  0.7161
  161MOL0     H21671   9.106   8.211  11.104 -0.4468  0.5587  1.1219
  161MOL0     H21672   9.035   8.418  11.139  0.5849  1.0422 -1.9189
  161MOL0     H21673   9.007   8.418  10.969  1.0171  0.9041  0.2602
  161MOL0     H21674   8.764   8.333  11.019 -3.3748  1.6234  1.1407
  161MOL0     H21675   8.795   8.385  11.187 -0.5829 -0.7428 -0.1351
  161MOL0     H21676   8.846   8.600  11.124 -1.6585  1.8030 -0.1177
  161MOL0     H21677   8.862   8.573  10.957  1.6087  2.3397  2.0125
  161MOL0     H21678   8.613   8.505  10.946  2.2152 -1.8028 -0.9741
  161MOL0     H21679   8.596   8.531  11.124 -1.0435 -0.3394 -0.8257
  161MOL0     H21680   8.679   8.717  10.884  1.0850 -0.6395  1.3249
  161MOL0     H21681   8.516   8.723  10.966  0.0585  0.7175 -0.2264
  161MOL0     H21682   8.793   8.805  11.034 -0.3490 -3.4151  0.1735
  161MOL0     H21683   8.654   8.912  11.000  1.1412  0.5804  0.8074
  161MOL0     H21684   8.729   8.924  11.255 -0.5386  1.0130  1.4092
  161MOL0     H21685   8.695   8.751  11.257  2.1867 -0.8445 -2.1551
  161MOL0     H21686   8.427   8.669  11.233 -2.2821 -0.6687 -4.0557
  161MOL0     H21687   8.108   8.861  11.364 -0.6427 -1.0266 -2.0301
  161MOL0     H21688   8.153   8.722  11.266 -0.4192 -1.6116  0.8649
  161MOL0     H21689   8.192   8.797  11.555 -4.6454  0.2005  0.6759
  161MOL0     H21690   8.259   8.645  11.477  2.1668  1.2851 -3.2920
  161MOL0     H21691   8.020   8.596  11.413  1.1821 -1.6318 -0.1258
  161MOL0     H21692   7.968   8.721  11.531  2.6511  2.5508 -0.7789
  161MOL0     H21693   8.114   8.591  11.703 -0.7508  0.5436 -0.4802
  161MOL0     H21694   8.137   8.466  11.567  2.5053  2.1663 -1.5852
  161MOL0     H21695   7.745   8.355  11.718  1.9058 -1.7347 -3.1591
  161MOL0     H21696   7.656   8.153  11.974 -1.2037  3.2453 -0.1943
  161MOL0     H21697   7.613   8.203  11.812  1.7621  1.4240 -2.1065
  161MOL0     H21698   7.702   8.053  11.837 -0.1731  0.4801  0.3019
  161MOL0     H21699   8.148   8.128  12.338 -0.4601 -0.2613  1.5072
  161MOL0     H21700   8.138   7.995  12.554 -2.7293 -0.9707  1.0842
  161MOL0     H21701   7.926   7.648  12.621  0.0652  0.2128 -0.6213
  161MOL0     H21702   8.052   7.562  12.536  0.8872  0.1086  0.0432
  161MOL0     H21703   8.048   7.618  12.832 -1.4918 -1.4788  1.5994
  161MOL0     H21704   8.049   7.462  12.741  1.0567 -0.5763 -0.2485
  161MOL0     H21705   8.292   7.628  12.704  2.2768 -1.4958  0.2814
  161MOL0     H21706   8.254   7.475  12.640  2.4762  1.6967 -1.7038
  161MOL0     H21707   8.317   7.564  12.931 -0.9555 -0.6389  0.8215
  161MOL0     H21708   8.244   7.409  12.894  3.8359 -1.4628  1.0869
  161MOL0     H21709   8.439   7.391  12.706 -0.7366 -1.8346 -0.1252
  161MOL0     H21710   8.464   7.340  12.870 -0.2437  2.0870  2.6547
  161MOL0     H21711   8.554   7.575  12.714  2.1603 -0.4261 -1.5696
  161MOL0     H21712   8.577   7.584  12.895 -2.6585  0.6565  0.2335
  161MOL0     H21713   8.682   7.400  12.687 -0.1105  2.8882 -2.5374
  161MOL0     H21714   8.745   7.390  12.863 -0.4619 -1.2089 -1.0577
  161MOL0     H21715   8.793   7.620  12.680 -0.5273 -0.9130 -0.8056
  161MOL0     H21716   8.914   7.507  12.732 -0.4285  1.1624 -3.5944
  161MOL0     H21717   7.987   7.663  12.343  0.5835 -1.1234 -3.5135
  161MOL0     H21718   7.992   7.782  12.140 -0.8267 -0.0473  0.0831
  161MOL0     H21719   8.155   8.221  11.978  1.0475  0.4290 -2.2783
  161MOL0     H21720   8.168   8.400  11.795  1.0980 -2.4481  0.6253
  161MOL0     H21721   8.803   7.999  11.050 -0.8348  0.5586 -0.0478
  161MOL0     H21722   8.593   7.953  10.966  0.0659 -1.1622 -1.5594
  161MOL0     H21723   8.336   7.681  10.701 -0.2443  0.3543  2.0893
  161MOL0     H21724   8.067   7.659  10.644  2.1068 -1.2737 -3.0069
  161MOL0     H21725   7.807   7.682  10.527 -0.0522  0.3624 -1.0998
  161MOL0     H21726   7.863   7.708  10.693 -0.2200 -1.3745  0.1187
  161MOL0     H21727   7.710   7.917  10.692 -0.8551 -0.5251  0.7455
  161MOL0     H21728   7.629   7.761  10.701 -1.2466 -1.4957 -0.7356
  161MOL0     H21729   7.619   7.795  10.434  0.6069 -0.0576  0.1042
  161MOL0     H21730   7.664   7.961  10.463  3.6360 -0.7017 -0.2281
  161MOL0     H21731   7.486   7.987  10.635  2.2771 -0.1372 -0.1250
  161MOL0     H21732   7.427   7.819  10.595  1.1433  0.0181 -0.3339
  161MOL0     H21733   7.230   8.002  10.285 -0.3085 -0.0371  0.9237
  161MOL0     H21734   8.078   8.074  10.552  0.3391  0.8227  0.5179
  161MOL0     H21735   8.304   8.089  10.590 -3.3062  1.2704  1.9573
  162MOL0     O21736   5.906   4.210   6.990 -0.2036  0.0823 -0.2707
  162MOL0     C21737   5.961   4.209   7.105  0.0344  0.5709  1.0304
  162MOL0     O21738   5.908   4.239   7.228 -0.4482  0.7710 -0.5607
  162MOL0     C21739   5.776   4.287   7.245 -0.2374 -0.6022 -1.2520
  162MOL0     C21740   5.746   4.347   7.367 -0.5935 -0.0029 -0.3646
  162MOL0     C21741   5.633   4.420   7.396 -0.3696  0.6086  0.2565
  162MOL0     C21742   5.531   4.421   7.293  0.2012 -0.6815 -0.3400
  162MOL0     O21743   5.415   4.484   7.309 -0.3874 -0.1475  0.5225
  162MOL0     C21744   5.400   4.600   7.213 -0.1284  0.5144 -0.0930
  162MOL0     C21745   5.255   4.625   7.203  0.3364 -0.6467  0.4016
  162MOL0     C21746   5.203   4.762   7.153  0.6862  0.2667 -0.2543
  162MOL0     C21747   5.045   4.755   7.164 -0.6524 -0.0992 -0.5111
  162MOL0     C21748   4.982   4.878   7.105  0.1371 -0.9292 -0.5196
  162MOL0     C21749   4.828   4.871   7.101  0.0480 -0.4485 -0.0958
  162MOL0     C21750   4.763   5.014   7.063  0.3677 -0.5871  0.5653
  162MOL0     C21751   4.620   4.998   7.028  0.4847 -0.8718 -0.6803
  162MOL0     N21752   4.564   5.135   7.021  0.2192  0.8715  0.7649
  162MOL0     C21753   4.509   5.196   7.135 -0.0667 -0.0469  0.2193
  162MOL0     C21754   4.465   5.308   7.082  0.6026 -0.6003 -0.2688
  162MOL0     C21755   4.365   5.397   7.158 -0.4745 -0.8863  0.0742
  162MOL0     C21756   4.426   5.468   7.273 -0.6933  0.4094  0.0112
  162MOL0     C21757   4.331   5.582   7.317 -0.1758  0.2257  0.0881
  162MOL0     C21758   4.193   5.547   7.382  0.0292 -0.6421  0.7575
  162MOL0     O21759   4.102   5.488   7.286  0.1138  0.3063  0.2285
  162MOL0     C21760   3.972   5.450   7.325 -0.3778 -0.4023  0.9071
  162MOL0     C21761   3.889   5.411   7.227  0.4991  0.0188 -1.0741
  162MOL0     C21762   3.759   5.397   7.259  0.1740 -0.2169  0.1172
  162MOL0     C21763   3.666   5.374   7.141 -0.0996 -0.3832 -0.0512
  162MOL0     C21764   3.701   5.419   7.388 -0.6737 -0.3351  0.0940
  162MOL0     C21765   3.554   5.409   7.410  0.8115  0.3768  0.4499
  162MOL0     O21766   3.490   5.315   7.334  0.4572  0.8282 -0.0992
  162MOL0     C21767   3.364   5.300   7.373 -0.5005  0.3024  0.6841
  162MOL0     C21768   3.261   5.312   7.269  0.0330  0.3427 -0.4088
  162MOL0     C21769   3.127   5.301   7.306  0.5985  0.1628  0.2697
  162MOL0     C21770   3.103   5.249   7.437  1.3301  0.9773 -0.0409
  162MOL0     O21771   2.974   5.247   7.467  0.5717 -0.8420  0.3740
  162MOL0     C21772   2.934   5.317   7.582  0.3935 -0.1235  0.1566
  162MOL0     C21773   2.794   5.376   7.555  0.5196 -0.7114  0.5144
  162MOL0     C21774   2.694   5.277   7.511  0.2592  0.0126 -0.3852
  162MOL0     C21775   2.559   5.347   7.484  0.0058 -0.4435 -0.1291
  162MOL0     C21776   2.466   5.280   7.385  0.3817  0.1120  0.1407
  162MOL0     C21777   2.423   5.151   7.440  0.8207  0.2337 -0.4308
  162MOL0     C21778   2.295   5.091   7.385 -0.1388  0.4715 -0.3140
  162MOL0     C21779   2.162   5.179   7.397  0.1242 -0.1211 -0.6880
  162MOL0    Cl21780   2.021   5.098   7.331 -0.0312  0.1031 -0.0040
  162MOL0     C21781   3.199   5.222   7.534 -0.3302  1.0455  0.9487
  162MOL0     C21782   3.328   5.250   7.499 -0.5067 -0.2934  0.0719
  162MOL0     O21783   3.504   5.487   7.484  0.3521  0.2233  0.0104
  162MOL0     C21784   3.792   5.458   7.482 -0.6797  0.3676 -0.5149
  162MOL0     C21785   3.929   5.472   7.458  0.6737 -0.5452 -0.0619
  162MOL0     N21786   4.492   5.321   6.951  0.0112 -0.0704 -0.2204
  162MOL0     N21787   4.566   5.221   6.914  0.5566  0.1838  0.5348
  162MOL0     C21788   5.554   4.356   7.173  0.5618 -0.1013 -0.3602
  162MOL0     C21789   5.674   4.285   7.146  0.1196  0.1262 -0.2594
  162MOL0     C21790   6.103   4.173   7.104 -0.8882 -0.3330 -1.1248
  162MOL0     C21791   6.176   4.149   6.984  0.5899  0.2514 -0.2047
  162MOL0     C21792   6.311   4.098   6.973  0.5424 -0.0138  0.1926
  162MOL0     C21793   6.382   4.076   7.098 -0.1880 -0.3202  0.6395
  162MOL0     O21794   6.513   4.044   7.077 -0.4320 -0.0358 -0.1179
  162MOL0     C21795   6.603   4.074   7.177 -0.8887  0.8872 -1.0448
  162MOL0     C21796   6.634   4.219   7.191 -0.0828 -0.3007  0.2586
  162MOL0     C21797   6.718   4.275   7.073 -0.1404 -0.0015 -0.3000
  162MOL0     C21798   6.823   4.384   7.115 -0.7253 -0.7446  0.5065
  162MOL0     C21799   6.939   4.340   7.200  0.1816  0.7464 -0.3756
  162MOL0     C21800   7.028   4.299   7.262 -0.1848  0.5401 -0.4506
  162MOL0     C21801   6.313   4.096   7.220 -0.0286  1.6717 -0.0187
  162MOL0     C21802   6.182   4.144   7.221  0.7994 -0.2458 -0.3666
  162MOL0     H21803   5.837   4.356   7.427 -1.7457 -0.3744  1.5238
  162MOL0     H21804   5.627   4.479   7.487  0.7304  0.8960  0.1575
  162MOL0     H21805   5.458   4.684   7.253  1.1048  0.0612 -0.8934
  162MOL0     H21806   5.440   4.576   7.114  0.4522  2.0291 -0.2537
  162MOL0     H21807   5.208   4.555   7.133 -3.6903  1.3625  0.8109
  162MOL0     H21808   5.213   4.612   7.303 -0.1937  3.9723  0.9743
  162MOL0     H21809   5.242   4.844   7.215  0.3436  0.3153 -0.0985
  162MOL0     H21810   5.239   4.786   7.053 -0.1508 -1.7543 -1.0908
  162MOL0     H21811   5.016   4.669   7.104  1.6841 -3.1390  2.3618
  162MOL0     H21812   5.008   4.747   7.267  1.3449  3.3817  0.6266
  162MOL0     H21813   5.010   4.963   7.167 -0.0779 -1.5844  0.4918
  162MOL0     H21814   5.015   4.889   7.001 -0.1015 -0.7920 -0.5808
  162MOL0     H21815   4.794   4.794   7.031 -0.3839 -1.6015  1.3404
  162MOL0     H21816   4.794   4.851   7.203 -2.0212  6.3795  1.0935
  162MOL0     H21817   4.778   5.090   7.140  0.3235  0.2074 -0.1967
  162MOL0     H21818   4.803   5.048   6.967 -4.0505  1.1454 -0.8989
  162MOL0     H21819   4.567   4.943   7.107 -0.0695 -1.3354 -1.3630
  162MOL0     H21820   4.606   4.957   6.928 -0.6077  3.0540 -2.3595
  162MOL0     H21821   4.496   5.158   7.235  0.1513  3.6201  1.8059
  162MOL0     H21822   4.320   5.471   7.090  0.2872  2.1256  2.6169
  162MOL0     H21823   4.284   5.331   7.189  1.5470 -3.6049 -0.0665
  162MOL0     H21824   4.524   5.510   7.250 -0.7508  2.1413  2.5194
  162MOL0     H21825   4.445   5.390   7.347  3.2088  0.1541 -1.0154
  162MOL0     H21826   4.318   5.654   7.235  2.4739  1.8583  0.9985
  162MOL0     H21827   4.387   5.629   7.399  1.0172 -1.3954  0.2317
  162MOL0     H21828   4.143   5.634   7.425 -3.7097 -1.6126 -1.1993
  162MOL0     H21829   4.210   5.474   7.462 -0.1078  1.4690  2.8012
  162MOL0     H21830   3.918   5.398   7.123 -2.0554  1.3569 -2.0301
  162MOL0     H21831   3.716   5.391   7.045  0.2779  1.9032  0.5047
  162MOL0     H21832   3.632   5.270   7.149 -1.8010  0.2748  3.2299
  162MOL0     H21833   3.579   5.440   7.142 -0.4614 -0.6663 -3.0432
  162MOL0     H21834   3.300   5.339   7.171 -1.0747  1.3333 -0.5953
  162MOL0     H21835   3.048   5.336   7.241  1.2210  1.0692 -0.0227
  162MOL0     H21836   2.921   5.240   7.660  0.2944  0.2940  0.5584
  162MOL0     H21837   3.010   5.387   7.617  0.5052 -1.2375  2.3930
  162MOL0     H21838   2.763   5.412   7.654  0.5694 -0.2201  0.3520
  162MOL0     H21839   2.809   5.464   7.492 -0.3875  1.2440  2.8438
  162MOL0     H21840   2.670   5.195   7.579  2.2763  0.9263  1.5670
  162MOL0     H21841   2.722   5.229   7.416 -0.7186  0.3881 -0.8725
  162MOL0     H21842   2.510   5.359   7.581 -3.5017 -0.2378 -1.8107
  162MOL0     H21843   2.588   5.444   7.444 -0.1166 -0.1234  0.5512
  162MOL0     H21844   2.507   5.257   7.286 -2.7643 -2.9154 -0.6597
  162MOL0     H21845   2.389   5.354   7.364  0.4070  0.4346  1.1387
  162MOL0     H21846   2.507   5.088   7.409  1.0872  1.4918 -2.3795
  162MOL0     H21847   2.415   5.141   7.549 -1.7228  0.8771 -0.4937
  162MOL0     H21848   2.286   5.003   7.449 -0.5130 -0.0389 -1.0521
  162MOL0     H21849   2.308   5.053   7.283 -2.3195  0.7168 -0.7359
  162MOL0     H21850   2.187   5.277   7.355  2.1382 -0.5696 -0.6319
  162MOL0     H21851   2.145   5.193   7.504  1.3074 -0.6717 -0.4148
  162MOL0     H21852   3.173   5.168   7.625 -0.9734  0.9610  0.7229
  162MOL0     H21853   3.408   5.232   7.570 -0.2680  0.3792 -0.0215
  162MOL0     H21854   3.761   5.497   7.578  2.2244  0.8369  0.3353
  162MOL0     H21855   3.989   5.504   7.543  2.0623  2.5773 -2.0158
  162MOL0     H21856   5.484   4.363   7.090  0.8219  2.4336 -0.4441
  162MOL0     H21857   5.678   4.242   7.047 -1.8542 -0.1222 -0.2771
  162MOL0     H21858   6.113   4.164   6.896  0.2117  2.8999  0.4275
  162MOL0     H21859   6.358   4.077   6.878  0.7273 -4.3983  1.0405
  162MOL0     H21860   6.572   4.026   7.271 -0.2866  4.6520  1.3008
  162MOL0     H21861   6.698   4.026   7.156 -0.4075  1.1000  0.5023
  162MOL0     H21862   6.692   4.234   7.282 -1.5650 -3.8534  1.9638
  162MOL0     H21863   6.547   4.281   7.218  1.0242  2.0787 -1.2914
  162MOL0     H21864   6.638   4.311   7.008  0.7656  0.4215 -1.2200
  162MOL0     H21865   6.772   4.195   7.022  0.2121 -1.4538  2.1827
  162MOL0     H21866   6.769   4.454   7.179 -0.3266 -1.9049  2.1690
  162MOL0     H21867   6.850   4.438   7.024 -0.4766 -1.9217 -0.1388
  162MOL0     H21868   7.113   4.285   7.327  1.1630  0.3204 -2.1825
  162MOL0     H21869   6.376   4.084   7.307  1.8464  0.9228 -1.4192
  162MOL0     H21870   6.140   4.165   7.319 -0.1925 -0.4196 -0.7382
  163MOL0     O21871   7.163   1.092  11.086 -0.5709  1.0294  0.5102
  163MOL0     C21872   7.179   1.211  11.096  0.4040 -0.7745  0.3927
  163MOL0     O21873   7.077   1.305  11.086  0.4095  0.7763 -0.1534
  163MOL0     C21874   6.947   1.269  11.081 -0.1744 -0.1780  0.7038
  163MOL0     C21875   6.866   1.330  10.988  0.0234 -0.3779  0.7784
  163MOL0     C21876   6.736   1.291  10.963  0.4254 -0.2712  1.1758
  163MOL0     C21877   6.681   1.182  11.037  0.4391 -0.4649  0.4458
  163MOL0     O21878   6.555   1.133  11.035  0.0571 -1.1548  0.0303
  163MOL0     C21879   6.469   1.193  10.939 -0.8865  0.0767 -0.0743
  163MOL0     C21880   6.328   1.117  10.948  0.6081  0.5155 -0.7814
  163MOL0     C21881   6.252   1.124  11.090  0.2882  0.0449  0.4488
  163MOL0     C21882   6.112   1.059  11.069  0.2483  0.7347  0.1651
  163MOL0     C21883   6.021   1.053  11.194  0.4787 -0.0594 -0.8800
  163MOL0     C21884   5.898   0.966  11.174  0.5451 -0.0735  0.2450
  163MOL0     C21885   5.828   0.948  11.305 -0.4641 -0.0099  1.0657
  163MOL0     C21886   5.695   0.876  11.304 -0.2673  0.0348 -1.1862
  163MOL0     N21887   5.643   0.862  11.441 -0.0604 -0.5939 -0.7003
  163MOL0     C21888   5.715   0.906  11.551  0.8789  0.9783  0.5076
  163MOL0     C21889   5.621   0.901  11.636 -0.4183 -0.4112  0.1234
  163MOL0     C21890   5.652   0.920  11.785 -0.7142  0.2280  0.2255
  163MOL0     C21891   5.678   1.070  11.825  0.9242 -0.5711  0.3930
  163MOL0     C21892   5.547   1.155  11.845 -0.3039  1.1256 -0.3049
  163MOL0     C21893   5.582   1.304  11.864 -0.9011  0.6158 -0.2094
  163MOL0     O21894   5.708   1.319  11.933 -0.0239 -0.8356  0.2534
  163MOL0     C21895   5.718   1.320  12.068 -0.3191 -0.5263  0.8674
  163MOL0     C21896   5.838   1.344  12.130  0.0080  0.5169 -0.3294
  163MOL0     C21897   5.857   1.335  12.273  0.2095 -0.4593 -0.0705
  163MOL0     C21898   5.997   1.356  12.319  0.8075  0.6384  0.7980
  163MOL0     C21899   5.741   1.321  12.363  0.3188 -0.8036  0.3913
  163MOL0     C21900   5.754   1.311  12.515  0.2326 -0.1030 -0.1116
  163MOL0     O21901   5.640   1.318  12.589 -0.1732  0.5671  0.2142
  163MOL0     C21902   5.650   1.374  12.714 -0.0404  0.5608  0.9480
  163MOL0     C21903   5.675   1.298  12.836 -0.6870 -0.4640 -0.5607
  163MOL0     C21904   5.681   1.368  12.960 -0.1522 -0.5565 -0.1219
  163MOL0     C21905   5.655   1.506  12.978  0.7848  0.6953  0.6419
  163MOL0     O21906   5.672   1.572  13.091  0.1925 -0.0951 -0.7871
  163MOL0     C21907   5.616   1.521  13.220  0.4529  0.0035  0.7071
  163MOL0     C21908   5.617   1.632  13.328 -0.6058 -0.5024  0.1497
  163MOL0     C21909   5.763   1.696  13.335  0.9099 -0.3512 -0.0797
  163MOL0     C21910   5.885   1.607  13.368  0.3141  0.0864 -0.1087
  163MOL0     C21911   6.014   1.679  13.357  0.5320  0.3170  0.1372
  163MOL0     C21912   6.033   1.807  13.446  0.6922 -0.2808  1.0133
  163MOL0     C21913   6.030   1.788  13.596 -0.1081  0.0336  0.0844
  163MOL0     C21914   6.002   1.914  13.669  0.1761 -0.7123 -0.2142
  163MOL0    Cl21915   5.842   1.976  13.625  0.1377 -0.0344 -0.1332
  163MOL0     C21916   5.618   1.571  12.861  0.7935 -0.0978 -0.1266
  163MOL0     C21917   5.622   1.512  12.739  0.2415  1.1917 -0.3474
  163MOL0     O21918   5.866   1.295  12.568  0.2477  0.6217  0.2018
  163MOL0     C21919   5.615   1.325  12.287 -0.5023 -0.3986  0.8303
  163MOL0     C21920   5.601   1.315  12.150 -0.6131  0.1313  0.3987
  163MOL0     N21921   5.501   0.849  11.598 -0.9799 -0.6285  0.6757
  163MOL0     N21922   5.515   0.830  11.473 -0.5246 -0.3653  0.1732
  163MOL0     C21923   6.753   1.121  11.140 -0.3976  0.3713  0.7034
  163MOL0     C21924   6.892   1.162  11.154  0.5359 -0.8284 -0.0746
  163MOL0     C21925   7.318   1.263  11.110  0.5586 -0.2286  0.0701
  163MOL0     C21926   7.422   1.176  11.150  0.2957 -0.8819 -0.2232
  163MOL0     C21927   7.551   1.226  11.157 -0.0610  0.3715 -0.0545
  163MOL0     C21928   7.582   1.360  11.116  0.1856 -0.4652 -0.7653
  163MOL0     O21929   7.704   1.425  11.132 -0.3133  0.2994  0.2137
  163MOL0     C21930   7.798   1.362  11.223 -0.5965  0.0859  0.6577
  163MOL0     C21931   7.930   1.431  11.199 -0.7208  0.1495 -0.3767
  163MOL0     C21932   8.040   1.370  11.280 -0.1544 -0.3062 -0.7792
  163MOL0     C21933   8.175   1.436  11.256 -1.3309 -0.5349 -0.3058
  163MOL0     C21934   8.227   1.415  11.121 -0.2260 -0.0298  0.4498
  163MOL0     C21935   8.280   1.399  11.013  0.3004 -0.8600  0.3362
  163MOL0     C21936   7.479   1.447  11.086  0.2207 -0.9936  0.0046
  163MOL0     C21937   7.344   1.400  11.088  0.4211  0.0271  0.4399
  163MOL0     H21938   6.899   1.418  10.935 -1.2682 -1.2922 -1.7542
  163MOL0     H21939   6.671   1.350  10.899 -4.2851 -1.2205  4.5411
  163MOL0     H21940   6.458   1.299  10.963  2.1013  0.4755 -0.0619
  163MOL0     H21941   6.504   1.190  10.835 -0.2380  0.3565  0.1274
  163MOL0     H21942   6.263   1.154  10.869  0.4056 -0.1815 -0.9516
  163MOL0     H21943   6.346   1.012  10.924  0.6137  0.2093  0.4741
  163MOL0     H21944   6.315   1.074  11.164  0.5437 -2.2432 -1.1938
  163MOL0     H21945   6.239   1.225  11.128 -0.8253  0.4745 -0.9870
  163MOL0     H21946   6.052   1.105  10.991 -0.9168 -3.1589 -1.5087
  163MOL0     H21947   6.131   0.954  11.042  1.0221  1.0329 -0.4630
  163MOL0     H21948   6.073   1.030  11.288 -1.5355 -1.3179 -0.0086
  163MOL0     H21949   5.996   1.159  11.206 -0.0240 -0.4744  3.0758
  163MOL0     H21950   5.837   1.016  11.099  1.6335  0.4773 -0.3003
  163MOL0     H21951   5.928   0.867  11.136 -1.8246 -0.5489 -0.5280
  163MOL0     H21952   5.899   0.891  11.365 -1.9180  0.9535  3.8565
  163MOL0     H21953   5.811   1.045  11.352 -1.4860  1.2946 -1.7782
  163MOL0     H21954   5.692   0.777  11.258 -1.2081 -1.2387  1.4067
  163MOL0     H21955   5.633   0.938  11.239  0.4766 -0.7063 -2.6552
  163MOL0     H21956   5.822   0.924  11.555  0.8879  0.7427  1.4621
  163MOL0     H21957   5.561   0.898  11.843 -0.7020  1.4842  0.7797
  163MOL0     H21958   5.735   0.854  11.810 -0.1292  0.4617 -1.0544
  163MOL0     H21959   5.753   1.107  11.756  0.8986  0.4629  0.9059
  163MOL0     H21960   5.724   1.073  11.924  1.7835 -1.6114  0.0471
  163MOL0     H21961   5.502   1.133  11.942  2.1526  0.4632  0.7671
  163MOL0     H21962   5.473   1.143  11.765  0.4204  2.5008 -1.2221
  163MOL0     H21963   5.502   1.365  11.908  1.8991  3.2967  1.5422
  163MOL0     H21964   5.593   1.345  11.763  0.3386  0.4028 -0.1768
  163MOL0     H21965   5.919   1.370  12.063 -0.5082  0.5894 -0.9278
  163MOL0     H21966   5.998   1.420  12.407  0.4416  0.5112  0.8972
  163MOL0     H21967   6.044   1.259  12.338  1.3973  0.3762 -1.6667
  163MOL0     H21968   6.052   1.408  12.239 -0.4076 -0.9211 -1.1512
  163MOL0     H21969   5.695   1.191  12.827  2.3883  0.0379 -0.7134
  163MOL0     H21970   5.723   1.321  13.048 -0.2826 -1.0937 -0.3485
  163MOL0     H21971   5.511   1.505  13.194  0.5366  2.8774 -2.0016
  163MOL0     H21972   5.661   1.426  13.253 -2.3633 -1.7150 -0.0587
  163MOL0     H21973   5.545   1.712  13.310  0.9693  1.2733  1.3332
  163MOL0     H21974   5.600   1.580  13.423  2.8515 -1.8055  0.1815
  163MOL0     H21975   5.760   1.771  13.415 -2.8922  0.2575 -0.5975
  163MOL0     H21976   5.780   1.749  13.241  1.6620 -0.0842  0.2046
  163MOL0     H21977   5.880   1.583  13.475 -1.9228  2.5262  0.4335
  163MOL0     H21978   5.879   1.518  13.304 -3.3578 -1.2032  1.6985
  163MOL0     H21979   6.029   1.703  13.252  1.3096  1.0151  0.3989
  163MOL0     H21980   6.094   1.614  13.391 -0.6657 -0.8010  0.9270
  163MOL0     H21981   6.132   1.847  13.419  0.0488 -1.5094 -3.9607
  163MOL0     H21982   5.962   1.885  13.417  2.5491  0.1218 -3.1613
  163MOL0     H21983   6.123   1.739  13.625 -1.2453 -0.5099  3.2025
  163MOL0     H21984   5.939   1.734  13.625  1.0609 -1.5703  0.8807
  163MOL0     H21985   6.069   1.994  13.637 -1.5313 -0.1195 -2.5352
  163MOL0     H21986   5.999   1.905  13.778  0.3402  1.0395 -0.0407
  163MOL0     H21987   5.595   1.677  12.867  0.5337 -0.2065  4.9774
  163MOL0     H21988   5.578   1.572  12.660 -3.8674  0.7647  1.3786
  163MOL0     H21989   5.524   1.326  12.346 -2.1045 -3.3097 -1.3337
  163MOL0     H21990   5.498   1.305  12.115 -1.8283  0.2095  3.6346
  163MOL0     H21991   6.709   1.056  11.215  1.4314 -1.6610  0.1142
  163MOL0     H21992   6.963   1.116  11.223  2.5587  0.3284 -1.2807
  163MOL0     H21993   7.406   1.078  11.194  0.4537 -0.3758  1.0108
  163MOL0     H21994   7.625   1.164  11.206 -1.2556 -0.3671  0.8996
  163MOL0     H21995   7.769   1.368  11.329  1.2229  0.6801  1.1500
  163MOL0     H21996   7.819   1.257  11.203 -2.3603 -0.2647  0.5029
  163MOL0     H21997   7.914   1.536  11.223 -2.7981 -0.4210  1.0143
  163MOL0     H21998   7.958   1.426  11.093 -3.7085  0.8607 -1.2756
  163MOL0     H21999   8.048   1.265  11.249  0.1236 -0.0306 -1.6652
  163MOL0     H22000   8.019   1.381  11.387  1.6772 -1.5739 -0.2416
  163MOL0     H22001   8.251   1.401  11.327 -1.4986  0.2053  0.2566
  163MOL0     H22002   8.180   1.542  11.282  0.4466 -0.6463 -0.0802
  163MOL0     H22003   8.323   1.372  10.918 -1.8217 -2.7477 -0.1529
  163MOL0     H22004   7.496   1.554  11.077  0.1405 -0.6715  2.8518
  163MOL0     H22005   7.278   1.485  11.071  2.4879  1.5563 -0.4198
  164MOL0     O22006   4.204   8.491   8.589  0.9619 -0.2683 -0.7272
  164MOL0     C22007   4.218   8.420   8.490  1.0909  0.1134 -0.8290
  164MOL0     O22008   4.126   8.333   8.441  0.5583  0.0869 -0.1345
  164MOL0     C22009   4.014   8.304   8.515  0.8775 -0.1687 -0.7039
  164MOL0     C22010   3.931   8.230   8.432  1.1824  0.2444 -0.1923
  164MOL0     C22011   3.794   8.201   8.463 -0.1637  0.2895 -0.3132
  164MOL0     C22012   3.755   8.224   8.601  0.7353  0.2846  0.2881
  164MOL0     O22013   3.645   8.175   8.658 -0.0872  0.5630 -0.7483
  164MOL0     C22014   3.529   8.216   8.584  0.2656 -0.0822  0.4054
  164MOL0     C22015   3.398   8.174   8.652  0.0256  0.1952  0.4428
  164MOL0     C22016   3.389   8.231   8.802 -0.2510 -0.4477  0.2552
  164MOL0     C22017   3.240   8.225   8.853 -0.4375 -0.8101  0.0370
  164MOL0     C22018   3.130   8.275   8.751  0.1756  0.2399  0.5299
  164MOL0     C22019   3.014   8.325   8.848 -0.0842 -0.8300 -0.3082
  164MOL0     C22020   2.901   8.392   8.765  0.2382 -0.0590 -0.5223
  164MOL0     C22021   2.765   8.329   8.784  0.4950 -0.1142  0.2175
  164MOL0     N22022   2.714   8.340   8.921 -0.6082  0.2446  0.4204
  164MOL0     C22023   2.635   8.439   8.968  0.4526 -0.4456 -0.4196
  164MOL0     C22024   2.605   8.402   9.096 -0.5110 -0.3165  0.5003
  164MOL0     C22025   2.520   8.489   9.193 -0.7413 -0.0329 -0.7120
  164MOL0     C22026   2.470   8.402   9.302 -0.3534 -0.4872  0.1621
  164MOL0     C22027   2.385   8.503   9.390  0.7027 -0.7012 -0.4037
  164MOL0     C22028   2.268   8.441   9.471 -0.7714  0.6678  0.9681
  164MOL0     O22029   2.190   8.552   9.529  0.7917  0.1110  0.6956
  164MOL0     C22030   2.088   8.520   9.621 -0.4788 -0.2133  0.8580
  164MOL0     C22031   2.056   8.391   9.663 -0.1075  0.3238  0.0405
  164MOL0     C22032   1.941   8.362   9.724  0.3491 -0.5685 -0.1646
  164MOL0     C22033   1.904   8.223   9.769 -0.1834  0.1845 -0.3729
  164MOL0     C22034   1.849   8.465   9.753  0.4147 -0.1962 -0.3736
  164MOL0     C22035   1.724   8.443   9.826  0.0783 -0.9092 -0.1151
  164MOL0     O22036   1.648   8.328   9.800 -0.6167  0.1377 -0.2563
  164MOL0     C22037   1.539   8.296   9.876 -0.6077 -0.7863 -1.3246
  164MOL0     C22038   1.431   8.386   9.872  0.7455  0.7555 -0.2397
  164MOL0     C22039   1.310   8.362   9.951 -0.3497  0.0210  0.3791
  164MOL0     C22040   1.310   8.247  10.036  0.4481 -0.2972 -0.1081
  164MOL0     O22041   1.211   8.198  10.121  0.2350 -0.1944  0.4169
  164MOL0     C22042   1.084   8.262  10.111  0.6800 -0.1102  0.2555
  164MOL0     C22043   1.012   8.271  10.240  0.6592  0.5125 -0.1355
  164MOL0     C22044   0.988   8.134  10.301  0.0017 -0.0144  0.9045
  164MOL0     C22045   0.911   8.118  10.428  0.0206  0.6826  0.4532
  164MOL0     C22046   1.006   8.148  10.544 -0.2790  0.5688  0.4017
  164MOL0     C22047   0.929   8.165  10.674 -0.0248 -0.6337 -0.4987
  164MOL0     C22048   1.009   8.210  10.799 -0.3362  0.0043  0.4632
  164MOL0     C22049   0.920   8.197  10.923 -0.2411 -0.0532  0.2395
  164MOL0    Cl22050   0.782   8.318  10.929 -0.1662  0.3827 -0.4798
  164MOL0     C22051   1.416   8.162  10.040  0.6348 -0.0067  0.8579
  164MOL0     C22052   1.530   8.179   9.950 -0.1735  0.4743 -0.4774
  164MOL0     O22053   1.697   8.530   9.905  0.6055 -0.4851  0.7694
  164MOL0     C22054   1.885   8.597   9.722  0.8964  0.2052  0.0621
  164MOL0     C22055   2.002   8.628   9.654 -0.1987 -0.1133  0.3657
  164MOL0     N22056   2.677   8.283   9.117 -0.6431  0.5517 -0.9105
  164MOL0     N22057   2.734   8.242   9.014  0.1870 -0.1345 -0.1707
  164MOL0     C22058   3.839   8.285   8.684  0.8623  0.0907 -0.0443
  164MOL0     C22059   3.970   8.326   8.646 -0.7182  0.4936 -0.5691
  164MOL0     C22060   4.344   8.441   8.415 -0.2254 -0.0311 -1.0025
  164MOL0     C22061   4.367   8.371   8.288 -0.3106  0.2244  0.2867
  164MOL0     C22062   4.494   8.371   8.231  0.1943  0.3694  0.0313
  164MOL0     C22063   4.597   8.454   8.283  0.8881 -0.5198 -0.2795
  164MOL0     O22064   4.715   8.480   8.221 -0.3387 -0.5869  0.2231
  164MOL0     C22065   4.773   8.370   8.147 -0.7230  0.4409 -0.4732
  164MOL0     C22066   4.916   8.417   8.102 -0.5048 -0.5862  0.0583
  164MOL0     C22067   4.996   8.293   8.064  0.6388 -0.1179  0.4354
  164MOL0     C22068   5.146   8.333   8.023  0.5042 -0.3069 -1.0156
  164MOL0     C22069   5.158   8.430   7.921  0.5651 -0.5104 -0.2182
  164MOL0     C22070   5.135   8.521   7.845 -0.2049  0.3503  0.2003
  164MOL0     C22071   4.573   8.517   8.405  0.2705  0.1440 -0.8051
  164MOL0     C22072   4.451   8.502   8.473 -0.0598 -0.1333  0.5677
  164MOL0     H22073   3.967   8.222   8.330 -1.4610 -2.5707 -1.0560
  164MOL0     H22074   3.733   8.151   8.388  0.5421 -2.7629  0.9653
  164MOL0     H22075   3.527   8.325   8.578 -0.5209 -0.1114  0.0338
  164MOL0     H22076   3.524   8.175   8.482 -1.2988  1.9448 -0.3990
  164MOL0     H22077   3.312   8.215   8.598 -1.2112 -1.9404  0.6658
  164MOL0     H22078   3.391   8.065   8.649 -0.1934  0.2399 -1.5201
  164MOL0     H22079   3.462   8.168   8.853  1.4121  0.2958 -1.1051
  164MOL0     H22080   3.427   8.333   8.813  0.3405 -0.3727 -1.9871
  164MOL0     H22081   3.224   8.122   8.886  1.0678 -1.2838 -0.6233
  164MOL0     H22082   3.244   8.291   8.940  0.0234 -0.9164  0.0997
  164MOL0     H22083   3.167   8.362   8.697 -0.9876  1.1164  1.1096
  164MOL0     H22084   3.102   8.189   8.689 -3.9419  1.0836  0.9506
  164MOL0     H22085   2.980   8.238   8.905 -0.9160 -0.8543 -0.8168
  164MOL0     H22086   3.057   8.398   8.917 -2.7899  0.3611  0.2574
  164MOL0     H22087   2.892   8.499   8.788  1.3104 -0.1659  0.4418
  164MOL0     H22088   2.924   8.373   8.659  0.8734 -0.6124 -0.2905
  164MOL0     H22089   2.764   8.224   8.752 -0.4719 -0.2109  0.5538
  164MOL0     H22090   2.702   8.381   8.712  1.6772  2.1859  0.7524
  164MOL0     H22091   2.599   8.533   8.927 -1.0482 -0.9333 -0.2687
  164MOL0     H22092   2.588   8.570   9.220 -0.5727  0.6279 -2.8906
  164MOL0     H22093   2.439   8.536   9.135  0.9897 -0.2457 -3.4971
  164MOL0     H22094   2.546   8.355   9.363  0.2645 -0.8895 -0.8895
  164MOL0     H22095   2.402   8.325   9.262  1.4985 -1.7711 -0.6335
  164MOL0     H22096   2.355   8.592   9.334  2.1874  0.6619  0.8712
  164MOL0     H22097   2.456   8.543   9.464 -0.6249  2.1405 -0.5230
  164MOL0     H22098   2.312   8.377   9.548  0.0348 -0.2949 -0.2481
  164MOL0     H22099   2.197   8.392   9.405 -1.4786  1.6991  0.9402
  164MOL0     H22100   2.118   8.304   9.643 -0.8104 -0.1179 -0.2719
  164MOL0     H22101   1.851   8.206   9.863  1.9013 -0.9377  0.6791
  164MOL0     H22102   1.864   8.174   9.679 -0.1358  0.2199 -0.4130
  164MOL0     H22103   1.999   8.179   9.799 -0.9523 -0.7024  0.8589
  164MOL0     H22104   1.440   8.472   9.806  2.5788 -1.3444 -2.9408
  164MOL0     H22105   1.228   8.433   9.951 -1.7756 -1.5437 -0.3651
  164MOL0     H22106   1.085   8.363  10.068 -0.0456  0.6576  1.9339
  164MOL0     H22107   1.025   8.211  10.035  0.8301  2.0204 -1.3934
  164MOL0     H22108   1.078   8.319  10.313 -2.1375  0.3837  2.7052
  164MOL0     H22109   0.925   8.335  10.221 -0.9941 -1.0319  1.7774
  164MOL0     H22110   1.083   8.079  10.293  1.1272  2.0099 -0.5751
  164MOL0     H22111   0.926   8.079  10.230  2.7199 -2.7956  0.4606
  164MOL0     H22112   0.825   8.182  10.406  0.0682  0.7393  0.4305
  164MOL0     H22113   0.858   8.026  10.454  1.1588 -0.5808 -1.4475
  164MOL0     H22114   1.049   8.247  10.529 -0.7501  0.5484 -1.2196
  164MOL0     H22115   1.096   8.085  10.546  1.0328  2.3697  1.0727
  164MOL0     H22116   0.850   8.240  10.661 -0.1103 -0.6411 -0.0604
  164MOL0     H22117   0.878   8.073  10.702  0.1948 -0.2508  1.2696
  164MOL0     H22118   1.037   8.315  10.789 -3.5543  1.2939  3.0512
  164MOL0     H22119   1.096   8.145  10.808 -1.3515 -1.9549 -2.3991
  164MOL0     H22120   0.978   8.225  11.012  0.6336 -0.2089 -0.2609
  164MOL0     H22121   0.872   8.101  10.937  1.3944 -0.5702  2.9876
  164MOL0     H22122   1.412   8.071  10.098  3.6211  1.2004  3.2504
  164MOL0     H22123   1.606   8.103   9.965 -0.1666  0.1827 -1.8657
  164MOL0     H22124   1.808   8.673   9.730  1.4835  0.8595 -0.2855
  164MOL0     H22125   2.024   8.724   9.610 -0.3051 -1.4025 -2.7164
  164MOL0     H22126   3.826   8.301   8.790  3.2294 -0.3201  0.3795
  164MOL0     H22127   4.037   8.364   8.722 -0.0771  1.8162 -1.7470
  164MOL0     H22128   4.291   8.313   8.235  0.7414 -0.6939 -0.2640
  164MOL0     H22129   4.496   8.317   8.136 -2.3233  2.8078 -1.5572
  164MOL0     H22130   4.772   8.276   8.203 -1.6332  1.4538  1.2682
  164MOL0     H22131   4.716   8.341   8.058 -2.1838 -0.4631  0.7105
  164MOL0     H22132   4.974   8.463   8.183 -0.0095 -0.8445 -0.1451
  164MOL0     H22133   4.923   8.491   8.022  3.4261  0.1169  0.8418
  164MOL0     H22134   4.954   8.238   7.979 -2.8487 -0.2154  2.0198
  164MOL0     H22135   5.006   8.231   8.153 -2.0435 -0.7408  0.4011
  164MOL0     H22136   5.204   8.240   8.015 -0.5733 -0.9083 -2.1424
  164MOL0     H22137   5.186   8.389   8.108  0.9651  1.4290 -2.3221
  164MOL0     H22138   5.135   8.598   7.770 -1.2279 -0.7175 -0.9353
  164MOL0     H22139   4.643   8.577   8.463  0.2358 -1.8142  1.4359
  164MOL0     H22140   4.430   8.542   8.572 -1.3339  0.1466  0.1994
  165MOL0     O22141   1.421   3.754  10.167  0.5542  0.3514 -0.4658
  165MOL0     C22142   1.312   3.787  10.120  0.3855  0.4865 -1.7616
  165MOL0     O22143   1.218   3.865  10.175  0.2655 -0.0025  0.4753
  165MOL0     C22144   1.222   3.918  10.299 -0.9619  0.3669  0.4238
  165MOL0     C22145   1.141   4.033  10.326 -0.5123  1.2052  0.0124
  165MOL0     C22146   1.130   4.103  10.445  0.4166  0.1468 -1.1012
  165MOL0     C22147   1.194   4.042  10.555 -1.3750 -0.3495 -0.0803
  165MOL0     O22148   1.172   4.112  10.673 -0.1893  0.2873  0.4459
  165MOL0     C22149   1.293   4.183  10.715  1.1842  0.4145  0.1663
  165MOL0     C22150   1.246   4.269  10.836  0.5567 -0.6621  0.3407
  165MOL0     C22151   1.206   4.407  10.785  0.1890 -0.2531  0.3329
  165MOL0     C22152   1.118   4.485  10.892 -1.1652  0.3900  0.1100
  165MOL0     C22153   1.051   4.602  10.818 -0.5430  0.4288  0.9186
  165MOL0     C22154   0.971   4.689  10.914  0.5436  0.1563  0.2329
  165MOL0     C22155   0.896   4.797  10.831 -1.2660  0.0194  0.1580
  165MOL0     C22156   0.820   4.904  10.903  0.0317 -0.3683 -0.5092
  165MOL0     N22157   0.719   4.951  10.814  0.4913 -0.4359 -0.2435
  165MOL0     C22158   0.738   5.057  10.724  1.3214  0.4658  0.4833
  165MOL0     C22159   0.612   5.087  10.684 -0.3781  0.1240  0.4432
  165MOL0     C22160   0.578   5.195  10.592  0.3740 -0.3314 -0.2407
  165MOL0     C22161   0.590   5.331  10.657 -0.2744  0.6639  0.4061
  165MOL0     C22162   0.520   5.364  10.795  0.8399 -0.1194 -0.2487
  165MOL0     C22163   0.363   5.343  10.796 -0.8768 -1.1883  0.0475
  165MOL0     O22164   0.300   5.388  10.674 -0.7002 -0.6381  0.3964
  165MOL0     C22165   0.190   5.318  10.633 -0.7505 -0.5851  0.2987
  165MOL0     C22166   0.190   5.178  10.620  0.1734 -0.5898  0.5751
  165MOL0     C22167   0.070   5.114  10.594 -0.1393 -0.8324 -0.5843
  165MOL0     C22168   0.090   4.965  10.566 -0.5948 -0.8548 -0.8034
  165MOL0     C22169  -0.053   5.181  10.591  0.4864  0.0116  1.0123
  165MOL0     C22170  -0.183   5.127  10.611  0.5767 -0.7831  0.2193
  165MOL0     O22171  -0.291   5.211  10.581  0.7622 -0.7575 -0.9359
  165MOL0     C22172  -0.422   5.183  10.594 -0.1159  0.3959  0.3646
  165MOL0     C22173  -0.490   5.183  10.717 -0.3708  1.0353 -0.0448
  165MOL0     C22174  -0.633   5.177  10.723  0.4880  0.3627 -0.5806
  165MOL0     C22175  -0.704   5.147  10.604  0.3302  0.5438 -0.2372
  165MOL0     O22176  -0.836   5.118  10.611  0.1241  0.2309 -0.0218
  165MOL0     C22177  -0.927   5.173  10.515 -0.4299 -1.0617  0.3485
  165MOL0     C22178  -0.960   5.324  10.557 -0.2429 -0.1123  0.0194
  165MOL0     C22179  -1.051   5.329  10.674  0.2344  0.6056 -0.8810
  165MOL0     C22180  -1.209   5.349  10.631  0.2459 -0.2411  0.8151
  165MOL0     C22181  -1.301   5.317  10.741  0.4577 -0.0597  0.4018
  165MOL0     C22182  -1.445   5.355  10.705 -0.4030  0.4103  0.7429
  165MOL0     C22183  -1.514   5.279  10.583 -0.0762  0.0284 -0.3359
  165MOL0     C22184  -1.623   5.185  10.627 -0.0684 -0.7807 -0.0575
  165MOL0    Cl22185  -1.765   5.275  10.665  0.2806 -0.5415  0.1310
  165MOL0     C22186  -0.634   5.136  10.482 -0.0670  0.5740  0.5427
  165MOL0     C22187  -0.498   5.166  10.477  0.2650 -0.0743 -0.1206
  165MOL0     O22188  -0.190   5.021  10.666  0.1076  0.1061 -0.6218
  165MOL0     C22189  -0.050   5.325  10.601 -0.7206 -0.8523  0.9188
  165MOL0     C22190   0.069   5.391  10.623 -0.2050  0.5338  0.0681
  165MOL0     N22191   0.527   4.997  10.736 -0.6595  0.6928 -0.6043
  165MOL0     N22192   0.591   4.905  10.799 -0.6514 -0.1398  0.0352
  165MOL0     C22193   1.286   3.939  10.534 -0.2685  0.5807  0.3892
  165MOL0     C22194   1.293   3.873  10.412 -0.6438 -0.7621 -0.2322
  165MOL0     C22195   1.277   3.728   9.987  0.3461 -0.3255  0.5000
  165MOL0     C22196   1.198   3.794   9.894 -0.2661  0.3945 -0.5441
  165MOL0     C22197   1.162   3.728   9.777 -0.2095 -0.2926  0.5852
  165MOL0     C22198   1.181   3.598   9.753  0.0086 -0.2779 -0.2008
  165MOL0     O22199   1.125   3.554   9.638 -0.0507  0.1678 -0.2395
  165MOL0     C22200   1.169   3.421   9.593  0.0386  0.0315 -0.2222
  165MOL0     C22201   1.052   3.355   9.503  0.6993 -0.3593 -0.2725
  165MOL0     C22202   0.942   3.313   9.603  0.2577  0.3224  0.4189
  165MOL0     C22203   0.839   3.218   9.532 -0.2069 -0.3311 -0.1283
  165MOL0     C22204   0.706   3.214   9.598  0.1290  0.1340  0.5527
  165MOL0     C22205   0.594   3.197   9.653 -0.2787  0.6462 -0.6416
  165MOL0     C22206   1.270   3.534   9.841 -0.1499 -0.2965  0.4191
  165MOL0     C22207   1.317   3.596   9.960 -0.4968  0.0212  0.8967
  165MOL0     H22208   1.088   4.068  10.238  1.5119 -0.9111 -2.2153
  165MOL0     H22209   1.074   4.194  10.463 -1.3219 -1.0606 -0.1408
  165MOL0     H22210   1.378   4.116  10.730  1.0153  0.0737 -0.3776
  165MOL0     H22211   1.319   4.250  10.633  0.2826 -1.6836 -1.9482
  165MOL0     H22212   1.160   4.221  10.882 -0.4537  0.8143  0.0530
  165MOL0     H22213   1.328   4.294  10.905  0.9689 -1.7853  0.2842
  165MOL0     H22214   1.288   4.464  10.740 -0.9770  1.8018  0.6893
  165MOL0     H22215   1.145   4.401  10.694 -0.3015 -0.3298  0.6683
  165MOL0     H22216   1.048   4.430  10.956  0.2658 -2.5156 -0.6557
  165MOL0     H22217   1.186   4.525  10.968 -0.8432  2.3955 -1.1571
  165MOL0     H22218   1.127   4.666  10.773  1.0706 -0.8819  1.6551
  165MOL0     H22219   0.993   4.560  10.736 -3.8124  0.3140  3.1186
  165MOL0     H22220   0.903   4.619  10.963  0.6493 -0.4373 -0.4463
  165MOL0     H22221   1.034   4.736  10.990  0.0335  4.2093 -1.6186
  165MOL0     H22222   0.977   4.855  10.786  0.9705 -2.1517  1.1063
  165MOL0     H22223   0.834   4.750  10.754  2.7588 -1.5844 -2.3972
  165MOL0     H22224   0.895   4.979  10.930  0.4811 -1.1978  0.6410
  165MOL0     H22225   0.777   4.860  10.994  2.8019  0.0930  1.1341
  165MOL0     H22226   0.823   5.121  10.701 -0.5792  2.5297 -1.2290
  165MOL0     H22227   0.641   5.183  10.503  0.6918 -1.1480  0.0739
  165MOL0     H22228   0.475   5.186  10.556  0.2844  0.5191 -0.2119
  165MOL0     H22229   0.561   5.409  10.587  1.6149  0.1596 -1.0108
  165MOL0     H22230   0.697   5.348  10.672 -0.1296 -1.8952  3.4025
  165MOL0     H22231   0.526   5.471  10.818 -3.9705  0.0791  1.2658
  165MOL0     H22232   0.564   5.298  10.869  0.9048 -1.9215 -1.8308
  165MOL0     H22233   0.313   5.400  10.874 -3.4664 -1.0993 -1.5891
  165MOL0     H22234   0.355   5.234  10.805  0.5926 -1.2195  1.5270
  165MOL0     H22235   0.282   5.127  10.648 -1.2159 -1.5389  3.8735
  165MOL0     H22236   0.157   4.947  10.482  0.1986 -1.0055 -0.1463
  165MOL0     H22237   0.119   4.919  10.661  0.6430  2.4261  0.5369
  165MOL0     H22238  -0.004   4.913  10.542 -1.4968  1.2948 -2.2551
  165MOL0     H22239  -0.426   5.199  10.803 -1.3025 -0.8016  1.0739
  165MOL0     H22240  -0.684   5.188  10.818  4.3556  1.3167  1.5926
  165MOL0     H22241  -0.881   5.183  10.416  0.1091  2.5564  0.8665
  165MOL0     H22242  -1.020   5.115  10.513  0.0035 -1.7935  0.9134
  165MOL0     H22243  -0.865   5.376  10.576  0.2234  0.1509 -2.6712
  165MOL0     H22244  -1.004   5.369  10.467  4.7927  2.3147 -1.5867
  165MOL0     H22245  -1.026   5.403  10.751  0.4706  0.9675 -1.3038
  165MOL0     H22246  -1.038   5.233  10.725  1.0696  1.1077 -0.1167
  165MOL0     H22247  -1.232   5.448  10.591 -2.1563 -1.5890 -1.5004
  165MOL0     H22248  -1.238   5.285  10.547 -2.8899  0.8632  0.9313
  165MOL0     H22249  -1.267   5.375  10.827 -0.4750 -0.9382  1.3969
  165MOL0     H22250  -1.294   5.212  10.769 -0.2473  0.2490  1.8031
  165MOL0     H22251  -1.505   5.341  10.795  2.0609  2.1755  2.8425
  165MOL0     H22252  -1.448   5.464  10.693  3.8314  0.9958  3.0115
  165MOL0     H22253  -1.448   5.204  10.540 -0.1003  0.0452 -0.4029
  165MOL0     H22254  -1.563   5.342  10.508  0.5224  1.4847  0.4539
  165MOL0     H22255  -1.591   5.127  10.714  2.2489  2.6164  1.5639
  165MOL0     H22256  -1.647   5.120  10.542 -0.8824  1.0374 -1.2805
  165MOL0     H22257  -0.684   5.106  10.390  2.0640  1.4527 -0.9555
  165MOL0     H22258  -0.457   5.158  10.377 -1.8766  0.0522 -1.0548
  165MOL0     H22259  -0.140   5.386  10.596 -0.5657 -0.7239 -0.7127
  165MOL0     H22260   0.077   5.499  10.628 -1.1916  0.6434 -0.4556
  165MOL0     H22261   1.332   3.906  10.627 -2.6529 -1.1643  1.0530
  165MOL0     H22262   1.365   3.792  10.398  1.4134  1.2912 -2.6342
  165MOL0     H22263   1.169   3.897   9.907  0.1486  0.5506 -0.8281
  165MOL0     H22264   1.092   3.776   9.709  0.3916 -0.2329 -0.0064
  165MOL0     H22265   1.254   3.436   9.526 -0.6803 -1.4069 -1.5329
  165MOL0     H22266   1.193   3.359   9.680  1.7820  1.5321  0.4222
  165MOL0     H22267   1.097   3.270   9.451  1.7353 -0.3300  0.5323
  165MOL0     H22268   1.019   3.434   9.435  0.2113  0.7173  1.1655
  165MOL0     H22269   0.902   3.399   9.657  0.2358  1.3848 -1.2180
  165MOL0     H22270   0.995   3.256   9.680  3.2179  0.2267 -1.4991
  165MOL0     H22271   0.864   3.115   9.504 -2.7051 -0.9429 -0.3246
  165MOL0     H22272   0.826   3.268   9.436 -1.7572  0.7324  0.5933
  165MOL0     H22273   0.503   3.168   9.702  1.4569 -0.5189  2.1531
  165MOL0     H22274   1.319   3.441   9.816 -0.0135 -0.4098  1.1032
  165MOL0     H22275   1.382   3.545  10.031 -0.8368 -0.9082  0.5620
  166MOL0     O22276   6.901   4.678   4.885  0.5013 -0.2185 -0.7359
  166MOL0     C22277   6.977   4.766   4.834 -0.8355  0.2509 -1.2176
  166MOL0     O22278   6.936   4.888   4.779 -0.6458  0.3035 -0.7072
  166MOL0     C22279   6.817   4.946   4.816  0.3732 -0.1865 -0.8856
  166MOL0     C22280   6.755   4.922   4.940  0.0991  0.2801 -0.5262
  166MOL0     C22281   6.637   4.987   4.983  0.4838  0.7093  0.4267
  166MOL0     C22282   6.577   5.082   4.895  0.0278 -0.0292  0.1410
  166MOL0     O22283   6.454   5.123   4.925  0.3404 -0.0431 -0.6452
  166MOL0     C22284   6.407   5.248   4.876  0.6851  0.4172  0.2178
  166MOL0     C22285   6.478   5.367   4.916  0.3210  0.2228 -0.0730
  166MOL0     C22286   6.516   5.372   5.060  0.2264 -1.2421 -0.5862
  166MOL0     C22287   6.575   5.510   5.082 -0.2907  0.4360 -0.2771
  166MOL0     C22288   6.472   5.617   5.110 -0.1726  0.6858  0.7336
  166MOL0     C22289   6.531   5.751   5.130  0.6711  0.2685  0.2221
  166MOL0     C22290   6.431   5.859   5.131  0.4144 -0.5380  0.0188
  166MOL0     C22291   6.334   5.874   5.238 -0.3244 -0.2496  0.2206
  166MOL0     N22292   6.395   5.872   5.364 -0.6343  0.3693  0.3114
  166MOL0     C22293   6.404   5.975   5.450 -0.1101 -0.0537 -0.2736
  166MOL0     C22294   6.453   5.925   5.569  0.8482 -0.3488  0.6811
  166MOL0     C22295   6.492   6.016   5.677  0.2308 -0.4273  0.4348
  166MOL0     C22296   6.400   6.000   5.797  0.0296  0.4747 -0.0029
  166MOL0     C22297   6.452   6.092   5.910  0.2552  0.0829  0.0860
  166MOL0     C22298   6.431   6.018   6.043 -0.1463 -0.1000 -0.3449
  166MOL0     O22299   6.298   5.981   6.068 -0.1529  0.0666  0.5353
  166MOL0     C22300   6.210   6.074   6.081  0.9305  0.4004  0.8171
  166MOL0     C22301   6.086   6.058   6.009  0.4168  0.2903  0.3433
  166MOL0     C22302   5.967   6.124   6.027  0.3771  0.2836 -0.0921
  166MOL0     C22303   5.835   6.087   5.956 -0.1950  0.0353  0.4203
  166MOL0     C22304   5.980   6.227   6.120  0.4049 -1.6405 -0.1944
  166MOL0     C22305   5.858   6.303   6.163 -0.3664  0.2574  0.6033
  166MOL0     O22306   5.888   6.422   6.221  0.3527  0.1673  0.5394
  166MOL0     C22307   5.805   6.527   6.246  0.9961 -0.0431 -0.3378
  166MOL0     C22308   5.857   6.619   6.334 -0.0428 -1.4459  0.0282
  166MOL0     C22309   5.781   6.729   6.382 -0.5529 -0.0229  0.1096
  166MOL0     C22310   5.653   6.745   6.337 -0.6169  0.0156 -0.4141
  166MOL0     O22311   5.593   6.858   6.385  0.1813  0.6406  0.0319
  166MOL0     C22312   5.460   6.888   6.338 -0.7824  0.0062 -0.2004
  166MOL0     C22313   5.413   7.022   6.398 -0.4931 -0.3769  0.0432
  166MOL0     C22314   5.513   7.138   6.388  0.9742 -0.3818 -0.1617
  166MOL0     C22315   5.572   7.163   6.250  0.2265 -1.2075  0.1812
  166MOL0     C22316   5.647   7.301   6.242  0.0498 -0.2912 -0.0574
  166MOL0     C22317   5.567   7.429   6.253  0.8621  0.0848  0.7648
  166MOL0     C22318   5.546   7.488   6.391  0.1521  0.6332  0.4551
  166MOL0     C22319   5.400   7.530   6.436  1.1155 -0.2650 -0.0204
  166MOL0    Cl22320   5.280   7.411   6.390  0.1573 -0.4907 -0.2512
  166MOL0     C22321   5.597   6.650   6.239  0.4446 -1.2951 -0.5880
  166MOL0     C22322   5.672   6.544   6.199 -0.4360  0.4028 -0.7939
  166MOL0     O22323   5.751   6.248   6.160  1.0748  0.9026  0.3526
  166MOL0     C22324   6.100   6.256   6.192  0.0098 -0.0898  0.8658
  166MOL0     C22325   6.215   6.178   6.175  0.2108 -0.4108 -0.0014
  166MOL0     N22326   6.474   5.789   5.548 -0.1375 -0.8105  0.4901
  166MOL0     N22327   6.432   5.759   5.433 -0.5467 -0.3060 -1.2621
  166MOL0     C22328   6.634   5.117   4.769 -0.0764 -0.1765  0.0135
  166MOL0     C22329   6.752   5.041   4.731  0.0421 -0.3284 -0.1462
  166MOL0     C22330   7.131   4.725   4.821 -1.2220 -0.7072  0.1966
  166MOL0     C22331   7.229   4.816   4.771  0.5021  0.0239 -0.6746
  166MOL0     C22332   7.360   4.769   4.753  0.3222 -0.0383  0.8442
  166MOL0     C22333   7.406   4.660   4.820  0.0092 -0.1762  0.6418
  166MOL0     O22334   7.542   4.624   4.808 -0.5269  0.3176  0.9516
  166MOL0     C22335   7.599   4.547   4.907 -0.2681  0.1219  0.2371
  166MOL0     C22336   7.747   4.531   4.868 -0.2074  0.2986 -0.0804
  166MOL0     C22337   7.792   4.448   4.737 -0.0185  0.7207 -0.1400
  166MOL0     C22338   7.754   4.528   4.609  0.2300 -1.4352  0.3204
  166MOL0     C22339   7.807   4.462   4.493 -0.0270  0.7052 -0.4534
  166MOL0     C22340   7.869   4.420   4.396 -0.6142 -0.2328 -0.3462
  166MOL0     C22341   7.315   4.572   4.881  0.4517  0.0308 -0.2298
  166MOL0     C22342   7.179   4.606   4.871 -0.2472  0.3089 -0.8129
  166MOL0     H22343   6.809   4.865   5.014  0.3503  5.0512  3.5542
  166MOL0     H22344   6.598   4.972   5.083 -0.9671  0.3247 -0.1790
  166MOL0     H22345   6.390   5.239   4.769  0.2083 -2.5502  0.4590
  166MOL0     H22346   6.303   5.248   4.912  0.1661 -0.1075 -1.2082
  166MOL0     H22347   6.564   5.372   4.848 -0.3751 -1.9241 -1.1915
  166MOL0     H22348   6.410   5.450   4.892 -1.4291 -1.3494 -0.7909
  166MOL0     H22349   6.429   5.353   5.124 -0.4288  2.5837 -0.0990
  166MOL0     H22350   6.589   5.295   5.085  0.6752 -0.6482 -0.0599
  166MOL0     H22351   6.641   5.494   5.167  0.4435 -3.7325 -1.3852
  166MOL0     H22352   6.638   5.532   4.996 -3.7088 -1.4253 -3.5892
  166MOL0     H22353   6.393   5.634   5.036 -1.5702 -0.0288  2.0021
  166MOL0     H22354   6.418   5.582   5.199  0.0163  1.7021  1.2645
  166MOL0     H22355   6.577   5.755   5.229 -0.1506 -1.0534  0.6815
  166MOL0     H22356   6.602   5.770   5.049  0.2192 -0.3707 -0.3311
  166MOL0     H22357   6.481   5.956   5.124 -2.9828  1.3690 -0.4096
  166MOL0     H22358   6.364   5.853   5.045 -1.8530 -1.5234  1.7244
  166MOL0     H22359   6.259   5.794   5.232  1.8530 -2.4907  1.0349
  166MOL0     H22360   6.277   5.965   5.218 -0.8795 -0.4124  1.0078
  166MOL0     H22361   6.367   6.076   5.437 -0.8697  0.1163  2.4918
  166MOL0     H22362   6.594   5.995   5.711  0.2403 -0.7111  0.2404
  166MOL0     H22363   6.487   6.121   5.646  0.5222 -0.3934  0.4947
  166MOL0     H22364   6.393   5.895   5.827 -1.0703  1.2178  2.5638
  166MOL0     H22365   6.297   6.031   5.778  0.1479  1.0653  0.3059
  166MOL0     H22366   6.389   6.181   5.911 -0.4107 -0.2492 -2.9644
  166MOL0     H22367   6.560   6.108   5.898  0.8769 -3.0932  0.5852
  166MOL0     H22368   6.456   6.090   6.121 -5.5994 -0.3660  2.1477
  166MOL0     H22369   6.501   5.935   6.050 -1.9176 -1.5092  3.3621
  166MOL0     H22370   6.078   5.975   5.939  2.2699  0.6820 -0.4002
  166MOL0     H22371   5.788   6.171   5.903 -0.1181  0.2048  0.6185
  166MOL0     H22372   5.865   6.021   5.874  0.5666 -0.0170  0.7353
  166MOL0     H22373   5.765   6.041   6.026 -1.5035  1.2726 -0.0075
  166MOL0     H22374   5.954   6.604   6.382  0.4232 -0.8586 -0.7081
  166MOL0     H22375   5.831   6.801   6.446 -0.0752  0.3320 -0.6449
  166MOL0     H22376   5.468   6.906   6.230  0.4058  1.1765  0.0600
  166MOL0     H22377   5.386   6.811   6.362 -0.7886 -0.5374 -1.8226
  166MOL0     H22378   5.325   7.052   6.340 -2.1748 -0.1332  2.5626
  166MOL0     H22379   5.383   7.004   6.502  0.3668  0.8725  0.5429
  166MOL0     H22380   5.597   7.119   6.456  1.1624  0.1245 -0.2493
  166MOL0     H22381   5.460   7.228   6.419  0.1363 -0.7486 -0.5029
  166MOL0     H22382   5.628   7.074   6.223 -1.9084 -1.9267 -2.2529
  166MOL0     H22383   5.493   7.163   6.175 -0.0345  3.1868  0.1981
  166MOL0     H22384   5.709   7.302   6.151  1.5739 -1.2448  0.9198
  166MOL0     H22385   5.728   7.302   6.315  0.2182  2.2118 -0.2205
  166MOL0     H22386   5.624   7.505   6.199 -0.8163  1.2080  0.4708
  166MOL0     H22387   5.474   7.421   6.196  1.9746 -2.8867 -0.8123
  166MOL0     H22388   5.599   7.583   6.398  2.3822 -0.5005 -0.1280
  166MOL0     H22389   5.587   7.415   6.462  0.4439 -0.4130 -0.7584
  166MOL0     H22390   5.384   7.620   6.376  1.7824  2.8795  4.0477
  166MOL0     H22391   5.394   7.568   6.539 -2.7129 -0.9317  0.1374
  166MOL0     H22392   5.497   6.658   6.199  0.9938  0.6820 -1.7294
  166MOL0     H22393   5.638   6.469   6.128 -0.0033 -3.0490  2.2971
  166MOL0     H22394   6.113   6.344   6.254 -1.8344 -0.6996  2.2198
  166MOL0     H22395   6.296   6.200   6.243  1.1203 -2.3976 -0.3618
  166MOL0     H22396   6.598   5.201   4.712  0.3399  0.2002  0.3009
  166MOL0     H22397   6.800   5.080   4.642  0.0920  0.5723  0.2654
  166MOL0     H22398   7.202   4.911   4.726 -0.0334  0.5564  0.7172
  166MOL0     H22399   7.432   4.819   4.689  0.3333 -1.4907 -0.3397
  166MOL0     H22400   7.577   4.581   5.009  0.1831 -0.3730  0.5054
  166MOL0     H22401   7.558   4.448   4.888 -0.3209  0.4350 -1.4731
  166MOL0     H22402   7.803   4.481   4.948  2.0054  0.0015 -1.7292
  166MOL0     H22403   7.803   4.624   4.866  1.8728 -0.8829 -2.0990
  166MOL0     H22404   7.750   4.347   4.746 -0.7653  0.7265 -2.6113
  166MOL0     H22405   7.899   4.430   4.744 -0.3905 -1.9309 -0.1317
  166MOL0     H22406   7.795   4.629   4.617  0.2217 -1.3285 -0.8798
  166MOL0     H22407   7.646   4.523   4.594  0.4485 -0.2328 -2.0781
  166MOL0     H22408   7.932   4.385   4.316 -0.3794 -2.5637  0.7776
  166MOL0     H22409   7.329   4.471   4.917  0.8914 -0.0253 -0.5483
  166MOL0     H22410   7.101   4.537   4.902 -0.8877  0.9941 -0.8887
  167MOL0     O22411  10.958  10.187   0.548  0.2709  0.5988  0.2130
  167MOL0     C22412  10.876  10.282   0.525 -0.3381  0.5202  0.0251
  167MOL0     O22413  10.735  10.286   0.530 -0.0234 -0.7463 -0.0381
  167MOL0     C22414  10.686  10.161   0.567  0.3278 -0.2537 -1.3162
  167MOL0     C22415  10.684  10.059   0.478  0.1163 -0.2091 -0.9387
  167MOL0     C22416  10.631   9.935   0.522 -0.7577  0.1417  1.4406
  167MOL0     C22417  10.578   9.915   0.648 -0.0802  0.4911 -0.1761
  167MOL0     O22418  10.526   9.790   0.682  0.1227 -0.1269 -0.4806
  167MOL0     C22419  10.393   9.773   0.738  0.3144 -0.1757  0.0531
  167MOL0     C22420  10.394   9.782   0.895  0.1710 -0.7081  0.3293
  167MOL0     C22421  10.282   9.705   0.954  0.7058  0.4623  0.0531
  167MOL0     C22422  10.131   9.734   0.932  0.2812 -0.3178  0.2771
  167MOL0     C22423  10.052   9.694   1.057  0.0207  1.8408  0.8162
  167MOL0     C22424   9.914   9.647   1.007  0.1524 -0.1764 -0.5402
  167MOL0     C22425   9.832   9.591   1.126 -0.8066 -0.7441 -0.1336
  167MOL0     C22426   9.804   9.703   1.231 -0.3488  0.7330  0.2713
  167MOL0     N22427   9.686   9.675   1.309 -0.7121 -0.4254  0.1169
  167MOL0     C22428   9.640   9.552   1.338 -0.1583 -0.7906 -0.3576
  167MOL0     C22429   9.526   9.578   1.403 -0.6983 -0.2332  0.2968
  167MOL0     C22430   9.444   9.467   1.457 -0.5328 -0.1391 -0.4355
  167MOL0     C22431   9.388   9.493   1.596  0.4615  0.0166 -0.1949
  167MOL0     C22432   9.272   9.592   1.615  0.1283  0.0975  0.5745
  167MOL0     C22433   9.139   9.536   1.567 -0.6935  0.0190 -0.4489
  167MOL0     O22434   9.092   9.448   1.672 -0.4775  1.1479  0.1216
  167MOL0     C22435   9.016   9.489   1.777  0.6132 -0.2427 -0.4104
  167MOL0     C22436   8.913   9.583   1.756  0.3895 -0.0571  0.4940
  167MOL0     C22437   8.851   9.650   1.860 -0.5518 -0.5714  0.0040
  167MOL0     C22438   8.759   9.760   1.822 -0.9385  0.1178  0.3515
  167MOL0     C22439   8.890   9.610   1.990  0.2649 -0.0902  0.2911
  167MOL0     C22440   8.830   9.674   2.106 -0.1957  0.0784 -0.1279
  167MOL0     O22441   8.883   9.791   2.149 -0.1683  0.3251  0.9544
  167MOL0     C22442   8.816   9.854   2.243  1.1813 -0.3590  0.1973
  167MOL0     C22443   8.744   9.968   2.218  0.6258 -0.1446  0.8600
  167MOL0     C22444   8.662  10.035   2.314  0.2526 -0.2454 -0.9878
  167MOL0     C22445   8.651   9.977   2.437 -0.0761  1.5156 -0.2748
  167MOL0     O22446   8.571  10.031   2.537  0.5200  0.0866  0.1877
  167MOL0     C22447   8.466  10.123   2.502  0.5781  0.1935 -0.4478
  167MOL0     C22448   8.360  10.127   2.609 -0.1468 -0.1843 -0.1971
  167MOL0     C22449   8.269  10.245   2.568 -1.1197  0.4881 -0.8566
  167MOL0     C22450   8.175  10.185   2.468  0.1839 -0.4382 -0.3698
  167MOL0     C22451   8.086  10.302   2.425  0.2344 -0.0189  0.0464
  167MOL0     C22452   7.969  10.259   2.346 -0.2240  0.4964  0.8894
  167MOL0     C22453   8.004  10.219   2.199  0.7814 -0.8818 -0.5185
  167MOL0     C22454   7.881  10.155   2.134  0.2717  0.9256 -0.1531
  167MOL0    Cl22455   7.896  10.128   1.964  0.1576 -0.2005  0.0052
  167MOL0     C22456   8.743   9.872   2.470  0.5903 -0.0395 -0.6187
  167MOL0     C22457   8.814   9.803   2.375 -0.3322  0.4640 -0.6188
  167MOL0     O22458   8.715   9.629   2.127 -0.4024 -0.5906  0.6650
  167MOL0     C22459   8.992   9.513   2.013  1.3093  0.2819 -0.0837
  167MOL0     C22460   9.052   9.445   1.904 -0.6856  0.1198  0.1258
  167MOL0     N22461   9.509   9.717   1.410  0.3162 -0.2322 -0.1785
  167MOL0     N22462   9.611   9.776   1.353  0.4973  0.8756  0.5369
  167MOL0     C22463  10.578  10.029   0.730 -0.0763  0.9054  0.3810
  167MOL0     C22464  10.632  10.151   0.693  1.0292  1.1984  0.4116
  167MOL0     C22465  10.957  10.397   0.488 -1.5260  0.8420 -1.1600
  167MOL0     C22466  10.896  10.482   0.402 -0.6336 -0.0475 -0.7242
  167MOL0     C22467  10.963  10.604   0.378 -1.2860  0.2491  0.9688
  167MOL0     C22468  11.085  10.635   0.436 -0.3764  0.4195 -1.3641
  167MOL0     O22469  11.144  10.751   0.400 -0.5708  1.1854  0.3557
  167MOL0     C22470  11.254  10.805   0.487  0.3034  0.6659  0.4058
  167MOL0     C22471  11.276  10.956   0.478  0.0842  0.3563 -0.3952
  167MOL0     C22472  11.334  11.012   0.604  0.4130 -0.0883  0.3201
  167MOL0     C22473  11.489  10.979   0.606 -0.3830  0.4882  0.0444
  167MOL0     C22474  11.511  10.855   0.674  0.2596  0.2788 -0.8415
  167MOL0     C22475  11.518  10.745   0.710 -0.8605 -0.0633  0.3261
  167MOL0     C22476  11.127  10.547   0.532 -0.5665  0.4292 -0.8323
  167MOL0     C22477  11.075  10.428   0.563  0.4019 -0.2182 -0.1413
  167MOL0     H22478  10.713  10.077   0.375  1.3105 -0.3117 -0.6406
  167MOL0     H22479  10.643   9.855   0.451  1.6517  0.4656  1.3889
  167MOL0     H22480  10.315   9.833   0.691  0.0257 -0.2382  0.4502
  167MOL0     H22481  10.367   9.668   0.720 -0.1510 -0.3013  1.3473
  167MOL0     H22482  10.486   9.734   0.929  0.2438 -0.7904  0.0279
  167MOL0     H22483  10.387   9.886   0.926  0.2136  0.0419 -1.9698
  167MOL0     H22484  10.304   9.599   0.938  1.2831  0.7234 -0.9778
  167MOL0     H22485  10.292   9.733   1.060 -1.3182  2.2204 -0.1573
  167MOL0     H22486  10.102   9.836   0.907 -0.3673 -1.1898 -3.1199
  167MOL0     H22487  10.095   9.691   0.838  1.0251  2.7976 -1.5787
  167MOL0     H22488  10.098   9.606   1.104 -0.2300  0.1107 -1.9726
  167MOL0     H22489  10.041   9.776   1.128 -3.1010  1.3398  1.0558
  167MOL0     H22490   9.849   9.720   0.958 -1.1745 -2.2105 -1.9585
  167MOL0     H22491   9.932   9.562   0.941  1.1474 -3.0678  3.1612
  167MOL0     H22492   9.740   9.553   1.080 -1.3109 -0.1784  0.3920
  167MOL0     H22493   9.888   9.504   1.162  0.0173  0.4482  1.6457
  167MOL0     H22494   9.798   9.800   1.182 -1.9440  0.1308 -0.8262
  167MOL0     H22495   9.886   9.691   1.302 -0.8309 -1.9920  0.4957
  167MOL0     H22496   9.683   9.455   1.314 -0.4136 -0.4669 -2.2996
  167MOL0     H22497   9.364   9.453   1.384  0.5999  2.7049 -2.4087
  167MOL0     H22498   9.507   9.378   1.471 -0.9711 -0.2716  0.8243
  167MOL0     H22499   9.473   9.523   1.657  1.3900 -2.6552 -0.0350
  167MOL0     H22500   9.359   9.393   1.629  0.5502 -0.1387 -0.5912
  167MOL0     H22501   9.289   9.686   1.562 -3.9175 -1.2027 -3.7355
  167MOL0     H22502   9.259   9.628   1.718  3.2430  0.0964  1.0559
  167MOL0     H22503   9.153   9.498   1.465 -0.9832 -1.0950 -0.0938
  167MOL0     H22504   9.069   9.619   1.550  0.2830  0.4731 -2.6606
  167MOL0     H22505   8.879   9.613   1.658 -2.2670  1.4135  1.7747
  167MOL0     H22506   8.807   9.797   1.730  1.9644 -3.3094  0.2551
  167MOL0     H22507   8.666   9.713   1.789  0.1996 -1.2348 -1.1390
  167MOL0     H22508   8.755   9.836   1.900 -2.7119 -0.0563  0.4548
  167MOL0     H22509   8.739   9.991   2.112 -0.6550  0.6039  1.0606
  167MOL0     H22510   8.617  10.129   2.281  0.4902  0.7698  1.3949
  167MOL0     H22511   8.508  10.222   2.481 -2.5570  2.1156  1.5359
  167MOL0     H22512   8.420  10.100   2.405 -0.6929 -0.0427  0.1973
  167MOL0     H22513   8.312  10.029   2.621  1.9557 -1.1142  1.2322
  167MOL0     H22514   8.424  10.146   2.695  1.5695  1.5317 -1.7408
  167MOL0     H22515   8.319  10.328   2.518  3.9865 -2.3844 -1.1730
  167MOL0     H22516   8.213  10.274   2.658 -1.1453 -3.6493  0.6766
  167MOL0     H22517   8.234  10.149   2.383  2.3443 -1.1672  1.3549
  167MOL0     H22518   8.112  10.101   2.501  3.4631 -3.0102 -0.1887
  167MOL0     H22519   8.141  10.370   2.358 -3.1931 -0.1115 -3.1926
  167MOL0     H22520   8.050  10.358   2.512 -0.0947  0.3067 -0.2943
  167MOL0     H22521   7.914  10.179   2.397 -2.9106  0.8657 -1.2470
  167MOL0     H22522   7.903  10.346   2.340 -0.5301  0.1371 -1.7977
  167MOL0     H22523   8.087  10.148   2.204 -1.5372 -3.7569 -0.5689
  167MOL0     H22524   8.038  10.305   2.139 -0.6825 -0.8081 -1.2823
  167MOL0     H22525   7.790  10.210   2.160  0.4950  0.6953  1.2111
  167MOL0     H22526   7.873  10.068   2.200  0.7474  1.1453  0.2018
  167MOL0     H22527   8.741   9.850   2.576  3.0997 -0.6480 -0.6391
  167MOL0     H22528   8.861   9.708   2.400  0.8347  1.7530  2.6617
  167MOL0     H22529   9.034   9.482   2.109  0.5607 -0.6349 -0.0387
  167MOL0     H22530   9.117   9.359   1.916 -2.1855 -0.8973  1.4959
  167MOL0     H22531  10.535  10.009   0.827  1.8686 -4.3950  0.4460
  167MOL0     H22532  10.637  10.239   0.757  0.4759  0.8645  0.9249
  167MOL0     H22533  10.796  10.461   0.366 -1.9353 -0.8580  2.9116
  167MOL0     H22534  10.921  10.681   0.314  2.5981 -0.2980 -2.6823
  167MOL0     H22535  11.237  10.789   0.593 -1.3592  2.1695  0.4225
  167MOL0     H22536  11.344  10.753   0.452  1.1154  0.1261  3.0631
  167MOL0     H22537  11.182  11.010   0.469  1.8218  3.7651  0.3733
  167MOL0     H22538  11.327  10.976   0.383 -2.2527  4.0408 -1.0752
  167MOL0     H22539  11.294  10.962   0.693  2.8140 -0.8911  1.0149
  167MOL0     H22540  11.330  11.121   0.614 -0.2863 -0.1950  1.4286
  167MOL0     H22541  11.541  11.063   0.652  0.2116 -0.1034  0.4734
  167MOL0     H22542  11.536  10.963   0.509 -0.0946  1.4385  0.0168
  167MOL0     H22543  11.521  10.648   0.756  0.0777  1.0584  2.8003
  167MOL0     H22544  11.214  10.575   0.589 -0.7203 -0.7889  0.0395
  167MOL0     H22545  11.125  10.362   0.634  0.6892  2.3110  2.1868
  168MOL0     O22546   2.886   3.340   7.817  0.0317  0.0978  0.1954
  168MOL0     C22547   2.917   3.417   7.728  0.5345 -0.2436  0.5403
  168MOL0     O22548   2.822   3.477   7.659  0.1199 -0.7108 -0.6713
  168MOL0     C22549   2.697   3.424   7.653 -0.3047  0.0121 -0.7511
  168MOL0     C22550   2.668   3.296   7.618 -0.3968  0.3659 -0.7242
  168MOL0     C22551   2.537   3.252   7.596  0.5835  0.4036  0.1851
  168MOL0     C22552   2.419   3.328   7.601  0.7267 -0.8061 -0.2035
  168MOL0     O22553   2.297   3.274   7.570 -0.9202 -0.4675 -0.0505
  168MOL0     C22554   2.188   3.362   7.543 -0.0329 -0.3467 -0.5831
  168MOL0     C22555   2.090   3.386   7.663  1.2709  0.1922 -0.1733
  168MOL0     C22556   2.023   3.255   7.715 -0.4033  0.5331  0.6047
  168MOL0     C22557   2.063   3.209   7.857 -0.2286  0.0248  0.4230
  168MOL0     C22558   2.209   3.184   7.864  0.3488 -0.5066 -0.0064
  168MOL0     C22559   2.258   3.121   7.998  0.8146  0.0934  0.9011
  168MOL0     C22560   2.414   3.104   8.021  1.3754  0.8214  0.0582
  168MOL0     C22561   2.474   3.186   8.134  0.2138 -0.3661 -0.9819
  168MOL0     N22562   2.420   3.148   8.267 -0.2169  0.3596 -0.0580
  168MOL0     C22563   2.301   3.205   8.314 -0.1138 -0.0992 -0.3302
  168MOL0     C22564   2.274   3.127   8.427 -0.4254 -0.0570  0.6806
  168MOL0     C22565   2.151   3.119   8.510  0.3943  0.4540  0.3898
  168MOL0     C22566   2.103   2.979   8.545  0.8936 -0.3639 -0.6572
  168MOL0     C22567   1.979   2.982   8.644 -0.4456 -0.1922 -0.5945
  168MOL0     C22568   2.015   3.030   8.781 -0.2929  0.3062 -0.2317
  168MOL0     O22569   1.892   3.035   8.859  0.3567 -0.2830  0.7953
  168MOL0     C22570   1.807   3.146   8.839  0.8113 -0.3650  0.6760
  168MOL0     C22571   1.824   3.263   8.765  0.2778 -0.2736 -1.3276
  168MOL0     C22572   1.728   3.369   8.777  1.0375  0.4283  0.4041
  168MOL0     C22573   1.757   3.487   8.678  0.7600 -0.2172 -0.5282
  168MOL0     C22574   1.618   3.349   8.871 -0.4538 -0.1044 -0.4011
  168MOL0     C22575   1.516   3.450   8.880 -0.4254  0.4234  0.6246
  168MOL0     O22576   1.440   3.442   8.997 -0.0844  0.4472  0.3658
  168MOL0     C22577   1.334   3.527   9.015  0.5487  0.7068  0.0286
  168MOL0     C22578   1.215   3.468   9.040 -1.1617 -0.5155 -0.1484
  168MOL0     C22579   1.105   3.539   9.089  0.1148  1.0496 -0.3656
  168MOL0     C22580   1.106   3.674   9.109  0.3912 -0.3162  0.1357
  168MOL0     O22581   1.005   3.746   9.158  0.2824  0.2488 -0.3767
  168MOL0     C22582   0.980   3.719   9.296 -0.6622  0.4314 -0.2901
  168MOL0     C22583   0.828   3.703   9.318  0.3754 -0.4997  1.1872
  168MOL0     C22584   0.791   3.655   9.454 -0.1587  0.7655 -0.8250
  168MOL0     C22585   0.642   3.633   9.469  0.5196  0.1885 -0.6613
  168MOL0     C22586   0.606   3.541   9.591 -0.3837 -0.1824  0.5297
  168MOL0     C22587   0.591   3.628   9.717  0.4009  0.6199  0.2270
  168MOL0     C22588   0.470   3.715   9.709  1.5302 -0.0814  0.8021
  168MOL0     C22589   0.437   3.760   9.854  0.4311  0.4174 -0.0504
  168MOL0    Cl22590   0.283   3.855   9.871  0.0112 -0.1281 -0.0417
  168MOL0     C22591   1.217   3.740   9.063 -0.0678 -0.3088  0.7800
  168MOL0     C22592   1.329   3.671   9.019 -0.0893  0.1297  0.6835
  168MOL0     O22593   1.497   3.529   8.789 -0.2062 -0.6164 -0.7584
  168MOL0     C22594   1.611   3.232   8.949  0.5923 -1.1248  0.2415
  168MOL0     C22595   1.701   3.132   8.926 -0.2226  0.0141  0.3606
  168MOL0     N22596   2.386   3.048   8.455  0.5355  0.3256 -0.2219
  168MOL0     N22597   2.468   3.061   8.359 -0.6615  0.8572 -0.1406
  168MOL0     C22598   2.447   3.460   7.638 -0.0639 -0.3469  0.0294
  168MOL0     C22599   2.578   3.502   7.671  0.0409  0.3627  0.3540
  168MOL0     C22600   3.052   3.465   7.724  0.2671 -0.5586 -0.1417
  168MOL0     C22601   3.151   3.428   7.823 -0.1992 -0.2492  0.7131
  168MOL0     C22602   3.282   3.467   7.794  0.2874  0.5675  0.1995
  168MOL0     C22603   3.313   3.551   7.682  0.1994  0.6719  0.4822
  168MOL0     O22604   3.435   3.586   7.635  0.1780  0.3680  0.3634
  168MOL0     C22605   3.537   3.605   7.724 -0.0735  0.0752  0.5918
  168MOL0     C22606   3.595   3.739   7.701 -0.8703  0.2268  0.5585
  168MOL0     C22607   3.712   3.782   7.787  0.4052  0.1750 -0.1241
  168MOL0     C22608   3.822   3.679   7.754 -0.5408 -0.0640 -0.2452
  168MOL0     C22609   3.940   3.713   7.839  0.4274  1.5420  0.3708
  168MOL0     C22610   4.043   3.726   7.902 -0.4550 -0.2465 -0.5376
  168MOL0     C22611   3.217   3.590   7.600 -0.1349 -0.2351 -0.2692
  168MOL0     C22612   3.085   3.551   7.616  0.5146 -0.0844 -0.1577
  168MOL0     H22613   2.750   3.228   7.597  0.5460  1.1573  0.2601
  168MOL0     H22614   2.516   3.149   7.570  3.9951 -1.8838  5.0643
  168MOL0     H22615   2.228   3.460   7.515  0.1776 -0.1454  0.3742
  168MOL0     H22616   2.121   3.318   7.469 -1.4932  3.5728 -1.8468
  168MOL0     H22617   2.142   3.439   7.744 -1.1916  0.3088  1.4378
  168MOL0     H22618   2.011   3.451   7.624 -2.3407 -3.0500  1.1202
  168MOL0     H22619   1.914   3.263   7.709 -0.4258  2.4819  2.2887
  168MOL0     H22620   2.052   3.173   7.649  1.7537  1.1098  0.7627
  168MOL0     H22621   2.037   3.287   7.929  0.1537 -0.3145  0.9321
  168MOL0     H22622   2.001   3.121   7.877  1.8425 -1.2694  1.4518
  168MOL0     H22623   2.218   3.125   7.772 -0.4738  2.0203 -1.7992
  168MOL0     H22624   2.266   3.276   7.851 -1.3809  0.5660 -0.2119
  168MOL0     H22625   2.219   3.187   8.076  0.9660 -0.2161  1.2417
  168MOL0     H22626   2.194   3.033   8.002 -1.5730  1.6797  0.0853
  168MOL0     H22627   2.431   2.997   8.037 -4.6486 -0.4002  0.6291
  168MOL0     H22628   2.455   3.129   7.923 -1.4415  2.0449 -0.9112
  168MOL0     H22629   2.463   3.294   8.123  2.7294  0.0133 -0.4639
  168MOL0     H22630   2.580   3.162   8.139  0.4927  0.9435  2.1970
  168MOL0     H22631   2.243   3.279   8.260  0.5552  1.6636  1.2602
  168MOL0     H22632   2.182   3.176   8.598  0.8963 -0.0436  0.5385
  168MOL0     H22633   2.075   3.174   8.453  1.9479  0.5804 -1.6418
  168MOL0     H22634   2.187   2.920   8.584  0.2882 -0.1590  1.0436
  168MOL0     H22635   2.065   2.933   8.453  0.5972  0.8004 -1.1420
  168MOL0     H22636   1.942   2.879   8.653  1.3536 -1.0033 -1.8008
  168MOL0     H22637   1.900   3.046   8.603  0.7342  0.4422 -1.9918
  168MOL0     H22638   2.073   3.123   8.775  1.0756 -0.5243 -0.3807
  168MOL0     H22639   2.078   2.964   8.841 -3.2247 -0.7926  1.8686
  168MOL0     H22640   1.916   3.268   8.707  1.9969 -1.4114  1.1224
  168MOL0     H22641   1.672   3.516   8.616 -0.5922  0.7676  1.6551
  168MOL0     H22642   1.793   3.573   8.734  1.7257 -0.9561  0.0137
  168MOL0     H22643   1.839   3.453   8.614  1.1919 -0.0772 -0.0544
  168MOL0     H22644   1.212   3.360   9.041  1.8014 -0.6635 -0.6000
  168MOL0     H22645   1.015   3.481   9.109  0.8172 -1.7774 -4.1764
  168MOL0     H22646   1.025   3.624   9.324 -2.8072 -1.4357 -2.6607
  168MOL0     H22647   1.034   3.787   9.362  0.0390  3.0729 -3.3422
  168MOL0     H22648   0.778   3.800   9.306  0.5388 -0.4184  1.1657
  168MOL0     H22649   0.781   3.641   9.241  1.2184  1.2801 -0.8991
  168MOL0     H22650   0.798   3.740   9.524  0.9626  2.3112 -2.7068
  168MOL0     H22651   0.845   3.567   9.488 -0.4402  0.4297 -1.2508
  168MOL0     H22652   0.589   3.729   9.468  2.0559  1.0467 -1.6954
  168MOL0     H22653   0.617   3.575   9.380  2.3623 -0.3546 -0.8638
  168MOL0     H22654   0.698   3.484   9.607 -0.2981  0.1272  1.1687
  168MOL0     H22655   0.528   3.466   9.580 -0.2214 -0.4740  1.2965
  168MOL0     H22656   0.571   3.568   9.807 -1.2757  0.9567  0.1218
  168MOL0     H22657   0.682   3.685   9.736  0.3096  0.5694  0.8391
  168MOL0     H22658   0.393   3.656   9.658  0.0801  2.1051  0.3305
  168MOL0     H22659   0.475   3.806   9.648 -1.8436 -0.1014  0.3478
  168MOL0     H22660   0.520   3.825   9.885  1.8071 -0.5583 -1.5706
  168MOL0     H22661   0.438   3.671   9.917 -0.9093  1.1722  1.1063
  168MOL0     H22662   1.195   3.845   9.074 -0.8090 -0.3446 -0.2692
  168MOL0     H22663   1.420   3.726   8.993 -0.9126  0.7506 -1.0402
  168MOL0     H22664   1.525   3.215   9.014 -0.8248  2.2637 -0.5074
  168MOL0     H22665   1.688   3.033   8.967  3.9975 -1.1360 -0.5485
  168MOL0     H22666   2.385   3.547   7.659  0.8052  0.6427 -1.3622
  168MOL0     H22667   2.597   3.604   7.704  2.0703  0.8460 -2.0380
  168MOL0     H22668   3.131   3.361   7.906  2.2060 -0.8137  0.8920
  168MOL0     H22669   3.357   3.426   7.861 -0.4840  0.2966  0.9131
  168MOL0     H22670   3.493   3.590   7.823  0.5799 -4.4319  0.4335
  168MOL0     H22671   3.617   3.533   7.702  0.8971  1.6244 -1.1272
  168MOL0     H22672   3.521   3.818   7.712 -0.9146  0.5403 -1.6205
  168MOL0     H22673   3.631   3.740   7.598 -0.2762 -2.1724  0.6876
  168MOL0     H22674   3.696   3.787   7.895 -1.3281  2.2590 -0.4167
  168MOL0     H22675   3.743   3.883   7.757  1.4981  0.1239  0.7461
  168MOL0     H22676   3.861   3.696   7.654 -0.1504 -3.6399 -0.8289
  168MOL0     H22677   3.787   3.578   7.775  0.3483  0.0995  2.4841
  168MOL0     H22678   4.138   3.740   7.950 -0.1333  3.8724 -2.0368
  168MOL0     H22679   3.240   3.660   7.520 -1.2988 -3.4933 -3.7045
  168MOL0     H22680   3.011   3.585   7.545  0.0484  0.4183  0.5487
  169MOL0     O22681   7.472  10.948   0.306  0.4726  0.5551  0.3972
  169MOL0     C22682   7.452  11.014   0.198  0.1513 -0.3877 -0.2252
  169MOL0     O22683   7.331  11.051   0.152 -0.5518  0.5031 -0.3698
  169MOL0     C22684   7.223  11.074   0.232 -0.7833 -0.3954  0.1955
  169MOL0     C22685   7.134  10.977   0.255  0.1860  0.4774 -0.3026
  169MOL0     C22686   7.020  11.000   0.336 -0.5952 -0.5671 -0.3382
  169MOL0     C22687   7.002  11.128   0.390  0.2939  0.0957 -0.0808
  169MOL0     O22688   6.893  11.141   0.470 -0.6580 -0.2221 -0.3418
  169MOL0     C22689   6.913  11.102   0.613 -0.5983  0.6414 -0.1927
  169MOL0     C22690   6.775  11.113   0.687 -0.7567  0.5080 -0.4536
  169MOL0     C22691   6.784  11.059   0.828  0.0038 -0.7895 -0.4254
  169MOL0     C22692   6.657  11.093   0.899 -0.4275  0.5887 -0.8340
  169MOL0     C22693   6.574  10.964   0.908 -0.0239 -0.2199  0.8126
  169MOL0     C22694   6.620  10.857   1.007  0.3006  0.3740  0.1806
  169MOL0     C22695   6.513  10.764   1.074 -0.0751  0.6364  0.5373
  169MOL0     C22696   6.586  10.638   1.082  0.3580 -0.4258  0.9974
  169MOL0     N22697   6.662  10.622   1.205 -0.4223  0.8952 -0.7404
  169MOL0     C22698   6.782  10.682   1.245 -0.3736  1.3045 -0.7135
  169MOL0     C22699   6.796  10.625   1.367 -0.4288  0.3460  0.1137
  169MOL0     C22700   6.899  10.668   1.475  1.6731  0.3669  0.6831
  169MOL0     C22701   6.844  10.743   1.596 -0.1919  0.9203 -0.6703
  169MOL0     C22702   6.711  10.696   1.656  0.0355  0.5194  0.3831
  169MOL0     C22703   6.665  10.800   1.777 -1.0565 -0.6513  0.8061
  169MOL0     O22704   6.567  10.746   1.863 -0.1931 -0.1456  0.6826
  169MOL0     C22705   6.526  10.812   1.975  0.0870 -0.7739  0.0982
  169MOL0     C22706   6.425  10.753   2.052 -0.0763 -0.0830  0.1406
  169MOL0     C22707   6.369  10.802   2.169 -0.2279  0.2479 -0.6407
  169MOL0     C22708   6.265  10.717   2.234  0.5941  0.5020 -0.5589
  169MOL0     C22709   6.421  10.923   2.216  0.3801 -0.6518 -0.6869
  169MOL0     C22710   6.361  10.992   2.333  0.2727 -0.3808  0.6102
  169MOL0     O22711   6.358  11.129   2.317 -0.2250 -0.1635 -0.0263
  169MOL0     C22712   6.340  11.212   2.426 -0.1977 -0.3871 -0.4072
  169MOL0     C22713   6.214  11.233   2.473  1.2259 -0.5168 -0.3733
  169MOL0     C22714   6.188  11.315   2.585 -0.6824 -0.5332  0.4784
  169MOL0     C22715   6.298  11.380   2.639 -0.1682  0.0136 -0.0094
  169MOL0     O22716   6.278  11.456   2.756 -0.2760 -0.7876  0.5699
  169MOL0     C22717   6.222  11.591   2.738 -0.7834  0.4380  0.4719
  169MOL0     C22718   6.118  11.631   2.839 -0.5906 -0.2214 -0.1145
  169MOL0     C22719   5.997  11.549   2.867  0.7373  0.5544 -0.1060
  169MOL0     C22720   5.895  11.620   2.956  0.6843  0.0168 -0.4200
  169MOL0     C22721   5.795  11.507   2.997  0.7739  0.5153  0.1487
  169MOL0     C22722   5.682  11.549   3.095  0.7869  0.8129 -0.3895
  169MOL0     C22723   5.583  11.441   3.111  0.3055  0.0362 -0.0866
  169MOL0     C22724   5.456  11.458   3.020  0.1965 -0.4813 -0.5573
  169MOL0    Cl22725   5.329  11.332   3.072 -0.4069 -0.0537 -0.2324
  169MOL0     C22726   6.420  11.359   2.598 -0.2838  0.3977  0.1748
  169MOL0     C22727   6.451  11.272   2.486  0.6976  0.0427 -0.8918
  169MOL0     O22728   6.343  10.931   2.435  0.1320  0.6056 -0.1854
  169MOL0     C22729   6.521  10.990   2.142 -0.4262  0.4879  0.1132
  169MOL0     C22730   6.578  10.932   2.015 -0.3097 -0.3627 -0.9843
  169MOL0     N22731   6.694  10.539   1.395 -0.4088  0.3219 -0.2965
  169MOL0     N22732   6.608  10.535   1.300 -0.3323 -0.2561 -0.0777
  169MOL0     C22733   7.094  11.225   0.374  0.7009 -0.2270 -0.1564
  169MOL0     C22734   7.203  11.205   0.287  0.6200 -0.3384  0.6362
  169MOL0     C22735   7.573  11.038   0.108  1.0417 -0.0920  0.0556
  169MOL0     C22736   7.573  11.020  -0.036 -0.2895 -0.8839  0.6273
  169MOL0     C22737   7.689  11.022  -0.112 -0.5179  0.6873  0.3454
  169MOL0     C22738   7.808  11.065  -0.052  0.7054 -0.0293 -0.5657
  169MOL0     O22739   7.915  11.106  -0.127  0.1519  0.2313  0.3210
  169MOL0     C22740   8.006  11.207  -0.074  0.1801  0.3920  1.0272
  169MOL0     C22741   8.082  11.263  -0.200 -0.5381  0.2117  0.5496
  169MOL0     C22742   8.183  11.170  -0.250  0.3430 -0.1883  0.2388
  169MOL0     C22743   8.219  11.190  -0.402 -0.2074  0.5694 -0.1228
  169MOL0     C22744   8.330  11.096  -0.436  0.3694 -0.4338 -0.4560
  169MOL0     C22745   8.426  11.026  -0.456  0.2437  0.4423  0.8130
  169MOL0     C22746   7.814  11.067   0.090 -0.7564 -0.1765  0.9823
  169MOL0     C22747   7.696  11.060   0.163 -0.5567 -0.3237 -0.5693
  169MOL0     H22748   7.151  10.873   0.233  1.6074  0.2970  1.4474
  169MOL0     H22749   6.950  10.918   0.348  1.5792 -2.4030  0.4584
  169MOL0     H22750   6.939  10.996   0.616  2.1469  1.2458  0.3329
  169MOL0     H22751   6.998  11.145   0.667  0.2772  1.3287 -2.0591
  169MOL0     H22752   6.746  11.218   0.696  0.1453  0.8569 -1.3853
  169MOL0     H22753   6.697  11.073   0.622  0.4633 -2.9149 -0.0260
  169MOL0     H22754   6.808  10.953   0.835  0.2127 -0.8897 -2.2833
  169MOL0     H22755   6.863  11.113   0.881 -0.8917 -0.9537  1.1329
  169MOL0     H22756   6.674  11.139   0.997  1.3989  2.8955 -2.1376
  169MOL0     H22757   6.598  11.164   0.840 -0.6669  1.3562  0.2940
  169MOL0     H22758   6.470  10.988   0.934 -0.6640  1.6938 -2.8079
  169MOL0     H22759   6.555  10.914   0.812 -0.3942  0.2994  0.6077
  169MOL0     H22760   6.703  10.808   0.955 -0.5871 -0.5280 -0.4112
  169MOL0     H22761   6.678  10.907   1.085  2.6160 -0.2700 -1.0343
  169MOL0     H22762   6.480  10.807   1.169 -1.0313  0.4167  0.3222
  169MOL0     H22763   6.431  10.753   1.002  1.1212 -1.8647 -0.5853
  169MOL0     H22764   6.658  10.622   1.001  2.5161  0.6645  2.6087
  169MOL0     H22765   6.512  10.558   1.074 -0.9904  0.9427 -1.4503
  169MOL0     H22766   6.845  10.762   1.208  3.2778 -0.9274  0.2527
  169MOL0     H22767   6.948  10.574   1.504  2.1152 -0.3949 -2.2204
  169MOL0     H22768   6.974  10.729   1.423 -2.3415  2.8117 -2.8260
  169MOL0     H22769   6.838  10.849   1.569 -2.4400 -0.3497 -6.9467
  169MOL0     H22770   6.925  10.732   1.669 -1.0694  1.4813  0.4195
  169MOL0     H22771   6.713  10.592   1.689 -1.2753  0.5981  0.7519
  169MOL0     H22772   6.637  10.690   1.576 -1.4616 -1.8654  1.8400
  169MOL0     H22773   6.626  10.887   1.724  1.3782 -1.0622 -1.9143
  169MOL0     H22774   6.754  10.828   1.835 -0.0329 -4.3926  1.3423
  169MOL0     H22775   6.379  10.658   2.025 -0.4707 -0.3205  1.5529
  169MOL0     H22776   6.171  10.773   2.241 -0.0347 -0.6137  0.1457
  169MOL0     H22777   6.236  10.634   2.169  1.3155 -0.1042 -0.1174
  169MOL0     H22778   6.280  10.685   2.338  0.4337  0.1110 -0.6573
  169MOL0     H22779   6.126  11.181   2.437 -0.5232  1.0674  1.4461
  169MOL0     H22780   6.093  11.341   2.632 -0.5736  2.3204 -0.6510
  169MOL0     H22781   6.309  11.657   2.738 -2.1988  2.6438 -3.9055
  169MOL0     H22782   6.176  11.596   2.639 -0.0829 -1.0258  0.0389
  169MOL0     H22783   6.169  11.622   2.935  1.7786 -1.7955 -1.3917
  169MOL0     H22784   6.081  11.732   2.820 -3.9537 -0.8459  2.3137
  169MOL0     H22785   6.028  11.453   2.908  1.8109  0.2130 -1.6420
  169MOL0     H22786   5.947  11.529   2.772  2.8607 -1.4672 -0.8680
  169MOL0     H22787   5.920  11.674   3.048  2.6329 -1.2983 -0.1063
  169MOL0     H22788   5.835  11.684   2.891  0.8518 -0.6948 -1.2839
  169MOL0     H22789   5.842  11.424   3.050 -2.7047 -0.7009  1.6674
  169MOL0     H22790   5.758  11.458   2.907 -0.0241 -0.6929  1.0960
  169MOL0     H22791   5.706  11.586   3.195  0.3657 -0.8827  0.3798
  169MOL0     H22792   5.630  11.632   3.048  1.5392  0.7810 -1.3128
  169MOL0     H22793   5.558  11.431   3.217 -0.9582  0.5713 -0.3149
  169MOL0     H22794   5.631  11.346   3.089 -0.6299 -1.7047  4.3846
  169MOL0     H22795   5.481  11.455   2.914  3.0033  0.9918 -0.0338
  169MOL0     H22796   5.414  11.554   3.052 -1.7335 -1.0982 -1.0863
  169MOL0     H22797   6.507  11.412   2.636  2.6472 -1.1172 -3.7259
  169MOL0     H22798   6.554  11.245   2.467  0.2819 -2.0311 -0.5244
  169MOL0     H22799   6.569  11.075   2.189  4.7298 -2.1287  0.3336
  169MOL0     H22800   6.644  10.999   1.959 -1.5042 -0.2126 -2.2573
  169MOL0     H22801   7.096  11.322   0.423 -0.0326 -0.2117 -0.1483
  169MOL0     H22802   7.271  11.281   0.249  0.9013 -1.7260 -1.8199
  169MOL0     H22803   7.479  10.990  -0.082 -0.5632  2.0037 -0.9783
  169MOL0     H22804   7.688  11.005  -0.219  2.0911  1.1868  0.1737
  169MOL0     H22805   7.956  11.294  -0.031 -3.1917  0.6752 -2.8074
  169MOL0     H22806   8.078  11.159  -0.007 -0.0962 -1.5130  0.0331
  169MOL0     H22807   8.139  11.355  -0.188  0.3961 -0.5887  2.8160
  169MOL0     H22808   8.006  11.290  -0.275 -2.1892  0.1704  2.1357
  169MOL0     H22809   8.145  11.068  -0.240  3.3558 -1.4518 -0.0339
  169MOL0     H22810   8.270  11.177  -0.183 -0.3366  1.8026  0.9666
  169MOL0     H22811   8.261  11.290  -0.418 -1.8801  1.2051 -0.6795
  169MOL0     H22812   8.128  11.175  -0.460 -0.2535  2.9681 -0.7741
  169MOL0     H22813   8.500  10.955  -0.488 -1.7715 -0.6583 -1.7965
  169MOL0     H22814   7.911  11.092   0.133  0.6733  4.0896 -3.7116
  169MOL0     H22815   7.712  11.054   0.270 -0.2011 -3.9053 -0.6890
  170MOL0     O22816   7.740   0.462   0.292  0.5570 -0.2516  0.0340
  170MOL0     C22817   7.787   0.529   0.199 -0.0837  0.9820  0.5576
  170MOL0     O22818   7.716   0.588   0.098  0.5548 -0.8097  0.3217
  170MOL0     C22819   7.585   0.605   0.116  0.4307 -0.9570  0.7871
  170MOL0     C22820   7.489   0.503   0.088 -0.3575 -0.2025 -0.0052
  170MOL0     C22821   7.353   0.510   0.116  1.2811  0.4641 -0.2714
  170MOL0     C22822   7.304   0.625   0.173  0.5535 -0.1589  0.0795
  170MOL0     O22823   7.173   0.639   0.202  0.5898  0.7840  0.0098
  170MOL0     C22824   7.074   0.543   0.168  0.0250  0.6770  0.2262
  170MOL0     C22825   6.933   0.588   0.213  0.4485  0.6300  0.1546
  170MOL0     C22826   6.912   0.598   0.361  0.4614 -0.3818  0.9114
  170MOL0     C22827   6.767   0.609   0.415 -0.0599 -0.0774  0.4426
  170MOL0     C22828   6.690   0.730   0.360 -0.5547 -0.0185 -0.1055
  170MOL0     C22829   6.546   0.723   0.410  0.0476  1.1132 -0.8846
  170MOL0     C22830   6.462   0.842   0.368  0.1806  0.2633 -0.8788
  170MOL0     C22831   6.310   0.816   0.407  0.3619 -0.4247  0.5018
  170MOL0     N22832   6.223   0.907   0.327 -0.0948 -0.5483  0.1216
  170MOL0     C22833   6.229   1.041   0.313  0.8022 -0.8364 -0.5804
  170MOL0     C22834   6.121   1.077   0.232 -1.1598  0.6381  0.8174
  170MOL0     C22835   6.120   1.206   0.162  0.1030 -0.3212  0.3480
  170MOL0     C22836   5.974   1.268   0.163 -0.3778  0.1488 -0.5649
  170MOL0     C22837   5.951   1.379   0.063 -0.2147 -0.8104  0.8935
  170MOL0     C22838   5.803   1.415   0.056 -0.5813  0.5105 -0.0447
  170MOL0     O22839   5.715   1.306   0.023  0.5432 -0.4699 -0.3723
  170MOL0     C22840   5.578   1.330   0.057  0.0020  0.1136 -0.3980
  170MOL0     C22841   5.499   1.225   0.076 -0.2888 -0.4821 -0.2477
  170MOL0     C22842   5.358   1.226   0.111  0.0294 -0.8441  0.2119
  170MOL0     C22843   5.282   1.098   0.133  0.1834  0.3123 -0.5720
  170MOL0     C22844   5.300   1.358   0.139 -0.0361  0.3938  0.5783
  170MOL0     C22845   5.164   1.386   0.187  0.4752  0.1605 -0.4053
  170MOL0     O22846   5.091   1.491   0.129 -0.5771  0.2167 -0.3130
  170MOL0     C22847   4.952   1.484   0.122  0.1445 -0.1245  0.2939
  170MOL0     C22848   4.867   1.601   0.102  0.5405  0.3135  0.1064
  170MOL0     C22849   4.730   1.588   0.088  0.9927 -0.4423  0.3743
  170MOL0     C22850   4.667   1.465   0.080 -0.1784  1.2710  0.7578
  170MOL0     O22851   4.534   1.452   0.084 -0.0244 -0.0893  0.3840
  170MOL0     C22852   4.476   1.365   0.183 -0.3751  0.1216 -0.1892
  170MOL0     C22853   4.321   1.351   0.162  0.4380 -0.0929 -0.6453
  170MOL0     C22854   4.265   1.260   0.273  0.6317  0.2694  0.8155
  170MOL0     C22855   4.116   1.275   0.291  0.2188 -0.0081 -0.0880
  170MOL0     C22856   4.051   1.157   0.386  0.3686  0.3939  0.7305
  170MOL0     C22857   4.108   1.183   0.525  0.3281  1.0296 -0.9485
  170MOL0     C22858   4.064   1.064   0.612 -0.4855  0.0926  0.3947
  170MOL0     C22859   4.134   1.050   0.742  0.0150  0.5219 -0.4153
  170MOL0    Cl22860   4.099   1.174   0.857 -0.1463  0.8245  0.2944
  170MOL0     C22861   4.746   1.352   0.092  0.5908 -0.3172  0.2899
  170MOL0     C22862   4.886   1.354   0.122  0.7118 -0.2032 -0.2891
  170MOL0     O22863   5.120   1.318   0.280 -0.1408 -0.4123  0.0489
  170MOL0     C22864   5.382   1.475   0.116 -0.3973  0.3285  0.1110
  170MOL0     C22865   5.517   1.456   0.070  0.1479  0.2510  0.4992
  170MOL0     N22866   6.046   0.960   0.211 -0.8647 -0.4458  0.8942
  170MOL0     N22867   6.108   0.861   0.268 -0.0223 -0.7124  0.1739
  170MOL0     C22868   7.391   0.732   0.209 -0.4890 -0.5355  1.0479
  170MOL0     C22869   7.526   0.720   0.167  0.6232 -0.7213  0.4977
  170MOL0     C22870   7.937   0.540   0.197 -0.0936  0.4548 -0.0207
  170MOL0     C22871   7.989   0.630   0.099  0.0277 -0.4774 -1.6618
  170MOL0     C22872   8.132   0.635   0.085  0.2326 -0.1964 -0.4560
  170MOL0     C22873   8.221   0.550   0.152 -0.5585  0.5420 -0.5904
  170MOL0     O22874   8.350   0.573   0.127  0.2467 -0.0719  0.0080
  170MOL0     C22875   8.440   0.462   0.112  0.0920  0.4111  0.2908
  170MOL0     C22876   8.379   0.354   0.013 -0.1218  0.3263  0.0728
  170MOL0     C22877   8.491   0.256  -0.042 -0.1301  0.4887 -0.9801
  170MOL0     C22878   8.425   0.175  -0.155 -0.0297 -1.5084 -0.0500
  170MOL0     C22879   8.508   0.064  -0.187 -0.4305  0.0069  0.5225
  170MOL0     C22880   8.571  -0.042  -0.203  0.0010  0.8572  0.2987
  170MOL0     C22881   8.172   0.453   0.253  0.6660 -0.3330  1.9142
  170MOL0     C22882   8.032   0.460   0.276  0.8436  0.3531  0.1989
  170MOL0     H22883   7.532   0.411   0.051 -0.1821 -2.1373  4.4570
  170MOL0     H22884   7.295   0.431   0.070 -1.0419  2.0849 -0.2911
  170MOL0     H22885   7.071   0.531   0.059 -1.7219  1.4259  0.1604
  170MOL0     H22886   7.102   0.443   0.202 -1.5837 -0.8388 -2.5190
  170MOL0     H22887   6.919   0.685   0.164 -0.9289  1.0243  1.2841
  170MOL0     H22888   6.863   0.513   0.175  1.0956 -1.0518  2.0565
  170MOL0     H22889   6.976   0.518   0.399  3.2055  1.5671  0.7518
  170MOL0     H22890   6.979   0.680   0.391  1.6872 -0.1156 -2.0818
  170MOL0     H22891   6.712   0.520   0.383 -0.5282  0.6984 -0.9632
  170MOL0     H22892   6.774   0.609   0.524  0.0202 -2.3170  0.4913
  170MOL0     H22893   6.733   0.826   0.392  0.2493 -0.5948  0.5953
  170MOL0     H22894   6.697   0.743   0.252 -0.7677 -0.7660 -0.2116
  170MOL0     H22895   6.500   0.637   0.360  0.1261  0.7959 -0.4166
  170MOL0     H22896   6.543   0.714   0.519 -1.8687 -0.7963 -1.0199
  170MOL0     H22897   6.500   0.937   0.405  0.7711 -0.9805  1.9496
  170MOL0     H22898   6.477   0.863   0.261 -1.6860 -0.9742 -1.4377
  170MOL0     H22899   6.294   0.844   0.512  1.5153  0.1658  0.5311
  170MOL0     H22900   6.278   0.713   0.392 -0.4175 -0.7185  3.5062
  170MOL0     H22901   6.302   1.111   0.352 -2.0866  4.2649 -3.2353
  170MOL0     H22902   6.200   1.277   0.184  0.4716  0.0121 -1.8249
  170MOL0     H22903   6.140   1.185   0.056  0.5023 -0.4167  0.4421
  170MOL0     H22904   5.964   1.316   0.261 -0.2896  1.2935 -1.1042
  170MOL0     H22905   5.901   1.187   0.159 -0.4700  0.0808  1.3230
  170MOL0     H22906   5.995   1.337  -0.028  0.6590  1.1796  0.3485
  170MOL0     H22907   6.001   1.473   0.090 -0.4979 -0.7008  1.0379
  170MOL0     H22908   5.781   1.503  -0.006 -1.6049  0.3746  0.0970
  170MOL0     H22909   5.785   1.435   0.162  3.2257 -3.1483  1.5577
  170MOL0     H22910   5.536   1.127   0.047 -0.3433 -0.4428 -0.4548
  170MOL0     H22911   5.292   1.074   0.240  2.4203  2.2597 -0.2585
  170MOL0     H22912   5.179   1.107   0.099  0.3964  0.5291 -1.1739
  170MOL0     H22913   5.335   1.024   0.072  1.7637 -0.0546  1.1127
  170MOL0     H22914   4.906   1.701   0.096  0.2907  0.7485  3.5938
  170MOL0     H22915   4.673   1.680   0.077 -0.2381 -1.0138  1.5939
  170MOL0     H22916   4.508   1.260   0.181  0.1800  0.2909 -0.5426
  170MOL0     H22917   4.502   1.402   0.282 -0.6612 -1.4091  0.4917
  170MOL0     H22918   4.279   1.452   0.169  0.1902 -0.1648 -1.0644
  170MOL0     H22919   4.291   1.318   0.062 -2.3222  3.2247 -1.1158
  170MOL0     H22920   4.310   1.284   0.369  0.7893 -0.9591  1.0638
  170MOL0     H22921   4.288   1.158   0.242 -0.5669  0.6394 -1.5665
  170MOL0     H22922   4.100   1.371   0.340  0.8157 -0.8797  1.8919
  170MOL0     H22923   4.074   1.268   0.190 -2.6851  1.2255  0.9282
  170MOL0     H22924   4.071   1.055   0.352 -1.1749 -0.7847  3.0453
  170MOL0     H22925   3.944   1.175   0.402  0.2014  0.7459 -0.7059
  170MOL0     H22926   4.217   1.172   0.528  0.0790 -2.4134 -0.9006
  170MOL0     H22927   4.079   1.284   0.556 -4.4064 -0.6665  1.0549
  170MOL0     H22928   4.082   0.974   0.553 -0.1195  0.7122 -0.4670
  170MOL0     H22929   3.957   1.075   0.633 -0.0023  0.1720  3.1382
  170MOL0     H22930   4.242   1.044   0.725  0.2506 -3.3039  1.4135
  170MOL0     H22931   4.109   0.952   0.782 -1.7538  0.3005 -1.9370
  170MOL0     H22932   4.702   1.253   0.089  0.8420 -0.4388  0.5037
  170MOL0     H22933   4.939   1.264   0.149  0.2198  0.2658  2.4679
  170MOL0     H22934   5.339   1.574   0.124 -1.3542 -0.1744  1.5093
  170MOL0     H22935   5.577   1.545   0.051 -2.8056  1.8577 -2.1779
  170MOL0     H22936   7.353   0.823   0.255  0.7750  0.5487  0.0686
  170MOL0     H22937   7.590   0.806   0.183 -1.6268  2.1880 -4.0298
  170MOL0     H22938   7.932   0.685   0.025 -0.5232  0.1668 -0.7831
  170MOL0     H22939   8.170   0.716   0.023  0.3750  0.9391  1.0624
  170MOL0     H22940   8.529   0.504   0.065  0.1016  0.6490  0.5245
  170MOL0     H22941   8.470   0.419   0.208  1.4524  1.9777  0.6106
  170MOL0     H22942   8.337   0.407  -0.073  0.8403  2.7463  1.0079
  170MOL0     H22943   8.306   0.297   0.070 -1.2508  1.2863 -0.3786
  170MOL0     H22944   8.533   0.186   0.031  1.0964 -0.1303 -2.2369
  170MOL0     H22945   8.574   0.312  -0.084  1.2927 -0.8376 -0.0596
  170MOL0     H22946   8.411   0.245  -0.237 -0.1052 -1.2447  0.1873
  170MOL0     H22947   8.327   0.136  -0.127 -1.6906  0.7449 -2.3088
  170MOL0     H22948   8.618  -0.137  -0.201 -0.5757  0.5496  2.3515
  170MOL0     H22949   8.233   0.397   0.322  0.2936 -0.4616  2.1422
  170MOL0     H22950   7.988   0.399   0.354  1.9935 -2.4313 -1.1890
  171MOL0     O22951   5.599   9.538   8.233  0.1061  0.3723  0.3445
  171MOL0     C22952   5.675   9.630   8.262 -0.4426 -0.7102 -0.6715
  171MOL0     O22953   5.643   9.758   8.253 -0.6415 -0.0264 -0.2877
  171MOL0     C22954   5.519   9.791   8.201  0.7507 -0.8938 -0.3830
  171MOL0     C22955   5.473   9.909   8.268  0.6688 -0.4732 -0.7748
  171MOL0     C22956   5.355   9.961   8.221 -0.0928 -1.9025  0.4441
  171MOL0     C22957   5.275   9.909   8.118 -0.3137 -0.6979  0.0225
  171MOL0     O22958   5.169   9.980   8.080 -0.2676 -0.9313  0.9295
  171MOL0     C22959   5.086  10.059   8.171  0.1541  0.4586 -0.1416
  171MOL0     C22960   4.945  10.056   8.104 -0.1080 -0.1436  0.6460
  171MOL0     C22961   4.853  10.175   8.160 -0.2828 -0.3483 -0.1403
  171MOL0     C22962   4.756  10.203   8.047  0.0601 -0.9393  0.1365
  171MOL0     C22963   4.676  10.338   8.062 -0.2624  0.4001  0.0339
  171MOL0     C22964   4.745  10.478   8.051  0.3090  0.3531  0.1197
  171MOL0     C22965   4.643  10.589   8.073 -0.4831 -0.7478 -0.5469
  171MOL0     C22966   4.714  10.729   8.104  0.1912  0.4082  1.3221
  171MOL0     N22967   4.729  10.762   8.244 -0.1330  0.1268 -0.5691
  171MOL0     C22968   4.622  10.766   8.339 -0.6446  0.9582  0.9245
  171MOL0     C22969   4.684  10.789   8.455 -0.8901 -0.0572  0.3297
  171MOL0     C22970   4.612  10.832   8.575  0.0984 -0.0007  0.1016
  171MOL0     C22971   4.600  10.993   8.582 -0.2771  0.5154  0.8061
  171MOL0     C22972   4.458  11.053   8.592 -0.1104 -0.7551  0.1805
  171MOL0     C22973   4.466  11.213   8.607  0.3140  0.1138 -0.0921
  171MOL0     O22974   4.326  11.249   8.620 -0.2114 -0.0781 -0.1748
  171MOL0     C22975   4.307  11.385   8.657 -0.0294 -0.3223  0.4829
  171MOL0     C22976   4.408  11.482   8.692  0.4183 -0.0372  0.4935
  171MOL0     C22977   4.367  11.611   8.731 -0.1218 -0.4969  0.3362
  171MOL0     C22978   4.484  11.705   8.745  0.2731  0.6502 -0.1912
  171MOL0     C22979   4.228  11.652   8.728 -1.2668  0.3300 -1.0088
  171MOL0     C22980   4.182  11.787   8.750 -0.1512  0.2927 -0.6114
  171MOL0     O22981   4.059  11.820   8.709  0.0604  0.3832  0.2920
  171MOL0     C22982   4.010  11.953   8.738 -0.4111 -0.8047  0.5827
  171MOL0     C22983   3.926  11.991   8.845  0.0068  0.4787 -0.2893
  171MOL0     C22984   3.879  12.126   8.862 -0.0494  1.0811 -0.7538
  171MOL0     C22985   3.906  12.230   8.767  0.0568  0.4371  0.0801
  171MOL0     O22986   3.844  12.350   8.777  0.3835  0.1860 -0.2134
  171MOL0     C22987   3.878  12.456   8.700 -0.7797 -0.6294  0.2141
  171MOL0     C22988   3.817  12.450   8.560  0.6333  0.0603 -0.7689
  171MOL0     C22989   3.669  12.428   8.566  0.2405 -0.2091 -0.7707
  171MOL0     C22990   3.609  12.452   8.426 -0.2009  1.0800 -0.5153
  171MOL0     C22991   3.458  12.453   8.417  0.6636 -0.6493 -0.4862
  171MOL0     C22992   3.383  12.346   8.489 -0.0746 -0.0371  0.0624
  171MOL0     C22993   3.226  12.364   8.472 -0.3713  0.4190 -0.7178
  171MOL0     C22994   3.162  12.473   8.572 -0.4810  0.0679  0.5877
  171MOL0    Cl22995   3.220  12.642   8.541  0.0725  0.2221 -0.1696
  171MOL0     C22996   3.997  12.185   8.670 -0.3360 -0.4412 -0.5182
  171MOL0     C22997   4.047  12.058   8.655  0.5210  0.6985  0.1320
  171MOL0     O22998   4.255  11.861   8.814  0.2347  0.3220 -0.3417
  171MOL0     C22999   4.142  11.554   8.687  0.1240  0.0059 -0.2589
  171MOL0     C23000   4.177  11.428   8.650  0.0035  0.6130 -0.4819
  171MOL0     N23001   4.825  10.804   8.436  0.6444  0.1399 -0.5843
  171MOL0     N23002   4.845  10.789   8.311  0.4053 -0.0407  0.3883
  171MOL0     C23003   5.332   9.804   8.045  0.5413 -0.3858  0.7483
  171MOL0     C23004   5.453   9.742   8.078 -0.6447  0.2533 -0.6033
  171MOL0     C23005   5.809   9.588   8.302  0.0697 -0.9916 -1.4898
  171MOL0     C23006   5.847   9.465   8.353 -0.7379 -0.2987  0.0867
  171MOL0     C23007   5.982   9.423   8.363 -0.6085  0.0668 -0.2807
  171MOL0     C23008   6.090   9.506   8.340 -0.4895  0.6156  0.7345
  171MOL0     O23009   6.220   9.460   8.364  0.3481  0.6457 -0.5123
  171MOL0     C23010   6.322   9.552   8.334  0.5453  0.7313 -0.0750
  171MOL0     C23011   6.451   9.485   8.356 -0.5203  0.1674  0.0905
  171MOL0     C23012   6.580   9.566   8.349 -0.8475 -0.4402 -0.1247
  171MOL0     C23013   6.694   9.507   8.438 -0.3416  0.1843  0.5400
  171MOL0     C23014   6.817   9.560   8.404 -0.2749 -0.7262 -0.3755
  171MOL0     C23015   6.928   9.594   8.375  0.8254 -0.5592  0.7702
  171MOL0     C23016   6.050   9.632   8.294 -0.0088 -0.1512 -0.1960
  171MOL0     C23017   5.917   9.677   8.292 -0.2140  0.8706 -0.0988
  171MOL0     H23018   5.521   9.946   8.358  0.8430 -0.6910 -0.7761
  171MOL0     H23019   5.320  10.044   8.281  3.4431  0.4552 -0.4712
  171MOL0     H23020   5.075  10.009   8.268 -0.9145  0.5552 -0.1974
  171MOL0     H23021   5.130  10.158   8.177  2.6534 -0.6483  1.7226
  171MOL0     H23022   4.948  10.061   7.995  1.2557  0.8412  0.7073
  171MOL0     H23023   4.882   9.971   8.132 -1.0136  0.6575  1.0875
  171MOL0     H23024   4.811  10.158   8.260  0.6804 -0.6904  0.2151
  171MOL0     H23025   4.921  10.258   8.178 -0.2784 -0.6444  1.3740
  171MOL0     H23026   4.804  10.205   7.949 -2.3694 -0.2327 -1.1347
  171MOL0     H23027   4.689  10.118   8.031 -1.1036  0.0558 -0.4495
  171MOL0     H23028   4.596  10.327   7.988  0.3997  0.1640 -0.6598
  171MOL0     H23029   4.635  10.323   8.162 -1.5189 -2.7323 -0.8412
  171MOL0     H23030   4.820  10.484   8.130 -2.8635  1.9677  3.2328
  171MOL0     H23031   4.782  10.481   7.948 -2.0482  1.8025 -0.7524
  171MOL0     H23032   4.565  10.595   7.997 -1.4564 -2.7740  0.2028
  171MOL0     H23033   4.591  10.570   8.167  0.8556  0.4092  0.4732
  171MOL0     H23034   4.678  10.821   8.058  1.4895  0.8340  1.1027
  171MOL0     H23035   4.810  10.720   8.051 -0.5744 -0.0601 -0.0219
  171MOL0     H23036   4.517  10.757   8.312 -1.2344 -1.2867  3.5494
  171MOL0     H23037   4.511  10.792   8.560 -0.3140  0.8810  0.4578
  171MOL0     H23038   4.648  10.797   8.672 -0.4164  0.6601  0.5410
  171MOL0     H23039   4.646  11.031   8.491 -0.2325 -1.1530  0.0899
  171MOL0     H23040   4.667  11.036   8.658  1.1621  0.8478 -0.6014
  171MOL0     H23041   4.406  11.001   8.674 -1.3708 -0.5101 -0.4464
  171MOL0     H23042   4.406  11.039   8.497 -0.2170  0.7616 -0.0106
  171MOL0     H23043   4.511  11.260   8.519 -1.0341  1.8611  0.0922
  171MOL0     H23044   4.516  11.240   8.701  0.0303  0.6911 -0.0970
  171MOL0     H23045   4.510  11.446   8.702  0.1026 -0.4360  3.4835
  171MOL0     H23046   4.460  11.790   8.681 -4.0183 -0.3873 -0.2242
  171MOL0     H23047   4.508  11.749   8.842  0.9753 -0.6815  0.2734
  171MOL0     H23048   4.570  11.648   8.708  0.3046 -0.3588  1.3557
  171MOL0     H23049   3.883  11.916   8.911 -2.4022  1.6427 -0.4139
  171MOL0     H23050   3.798  12.136   8.933 -2.9241 -0.7118 -3.5164
  171MOL0     H23051   3.843  12.545   8.752 -1.8732 -0.2574 -1.0912
  171MOL0     H23052   3.988  12.459   8.698 -0.5360 -4.7725 -1.0961
  171MOL0     H23053   3.832  12.548   8.515  1.1586 -0.6216 -2.1121
  171MOL0     H23054   3.865  12.379   8.492  4.4477  0.1215  1.5967
  171MOL0     H23055   3.634  12.506   8.634  1.7962  0.5099 -0.7574
  171MOL0     H23056   3.647  12.327   8.601  0.0458  0.5433  1.4646
  171MOL0     H23057   3.649  12.550   8.399 -0.3717  0.9233 -1.3469
  171MOL0     H23058   3.655  12.374   8.365 -1.5961 -0.2014  0.0137
  171MOL0     H23059   3.430  12.440   8.312  1.2606 -1.3553 -0.5666
  171MOL0     H23060   3.429  12.555   8.442  2.3989 -0.1785 -0.3323
  171MOL0     H23061   3.417  12.249   8.453  2.4428  0.0715  1.8984
  171MOL0     H23062   3.409  12.351   8.595 -2.0625 -0.3919  0.6180
  171MOL0     H23063   3.183  12.269   8.505  0.6634  0.3582  0.5335
  171MOL0     H23064   3.204  12.385   8.367 -3.5898  0.7775 -0.0647
  171MOL0     H23065   3.190  12.440   8.672  0.3824  1.4186  0.8177
  171MOL0     H23066   3.054  12.475   8.556 -0.5452  0.0860  1.0249
  171MOL0     H23067   4.043  12.252   8.598  0.0896 -0.1488  0.0135
  171MOL0     H23068   4.125  12.034   8.583  2.1423  0.3729  1.9348
  171MOL0     H23069   4.035  11.572   8.689  0.0023 -0.7426  1.7817
  171MOL0     H23070   4.101  11.355   8.623  0.9280 -0.7779  0.5547
  171MOL0     H23071   5.283   9.764   7.957 -1.0278  0.3766  1.2443
  171MOL0     H23072   5.505   9.670   8.016  0.4862 -2.1525  2.7997
  171MOL0     H23073   5.768   9.391   8.363 -0.6784 -0.1118  2.5034
  171MOL0     H23074   6.004   9.319   8.386  1.2455  0.3418 -0.6334
  171MOL0     H23075   6.321   9.580   8.228 -2.4668 -3.0891 -1.3197
  171MOL0     H23076   6.308   9.645   8.389 -2.8293  2.0339 -2.7519
  171MOL0     H23077   6.464   9.414   8.273  1.5352  0.7425 -0.1492
  171MOL0     H23078   6.457   9.418   8.442  1.0490 -2.5083 -1.9070
  171MOL0     H23079   6.559   9.659   8.402 -2.3740 -0.4286 -0.6944
  171MOL0     H23080   6.616   9.587   8.248  0.6982 -1.5601  0.1576
  171MOL0     H23081   6.703   9.399   8.424  2.9167  0.5267 -0.8892
  171MOL0     H23082   6.680   9.533   8.543  0.2027  5.2754 -0.3983
  171MOL0     H23083   7.032   9.594   8.349  0.8973 -3.5361  0.6325
  171MOL0     H23084   6.121   9.713   8.284 -0.3762  0.2733  0.5388
  171MOL0     H23085   5.897   9.775   8.249 -1.7123  0.6258 -0.0059
  172MOL0     O23086  10.250   5.030  10.269  0.0335  0.1565 -0.2515
  172MOL0     C23087  10.317   5.057  10.169  0.0193 -0.1596  0.8505
  172MOL0     O23088  10.291   5.149  10.075  0.0062  0.3122  0.1073
  172MOL0     C23089  10.177   5.226  10.096 -0.5512 -0.1567  0.7851
  172MOL0     C23090  10.084   5.243   9.993 -0.2030  0.1198  0.7222
  172MOL0     C23091   9.957   5.312  10.022 -0.2066  0.0123  0.0770
  172MOL0     C23092   9.925   5.363  10.145  0.6783  0.9824  0.1873
  172MOL0     O23093   9.794   5.398  10.187 -0.1224  0.2011  0.1354
  172MOL0     C23094   9.681   5.363  10.112 -1.2537 -0.1974  0.0459
  172MOL0     C23095   9.558   5.408  10.174 -0.0672  0.7358  0.5878
  172MOL0     C23096   9.531   5.365  10.324  0.0110 -0.4550  0.3281
  172MOL0     C23097   9.392   5.422  10.373  0.2340  0.5694 -0.2578
  172MOL0     C23098   9.363   5.392  10.514  0.5843 -0.0427 -1.1551
  172MOL0     C23099   9.223   5.436  10.563 -0.7096 -0.6507 -0.0960
  172MOL0     C23100   9.209   5.412  10.711 -0.8833 -0.3238  0.2018
  172MOL0     C23101   9.080   5.457  10.779  0.0300  0.2222  0.2843
  172MOL0     N23102   9.080   5.440  10.927 -0.2628 -0.0048 -0.2310
  172MOL0     C23103   9.066   5.543  11.014 -0.3525  0.3123  0.6237
  172MOL0     C23104   9.037   5.486  11.135  0.2456  0.6461  0.0763
  172MOL0     C23105   8.978   5.548  11.257 -0.0215  0.7573 -0.7704
  172MOL0     C23106   8.827   5.522  11.263  0.0237 -0.1513 -0.0256
  172MOL0     C23107   8.763   5.621  11.165  0.7338 -0.1687 -0.0986
  172MOL0     C23108   8.615   5.578  11.154  0.2781  0.7889  0.6513
  172MOL0     O23109   8.573   5.636  11.028  0.1758 -0.1396 -0.5247
  172MOL0     C23110   8.439   5.611  11.002  0.5303  0.4993 -0.9006
  172MOL0     C23111   8.346   5.639  11.095  0.7850  0.3380  0.2202
  172MOL0     C23112   8.211   5.600  11.077  0.5455 -0.3908  0.5049
  172MOL0     C23113   8.112   5.630  11.191 -0.0413 -0.8108  0.4129
  172MOL0     C23114   8.173   5.552  10.950 -0.1316  1.0701 -0.0706
  172MOL0     C23115   8.035   5.536  10.902  0.3321 -0.5178 -0.1325
  172MOL0     O23116   8.009   5.420  10.837  0.4239 -0.0087 -0.8409
  172MOL0     C23117   7.887   5.401  10.775 -0.3881  1.4389  0.4654
  172MOL0     C23118   7.760   5.439  10.836  0.0779  0.3630 -0.6336
  172MOL0     C23119   7.642   5.394  10.770  0.9955 -0.6666 -0.1024
  172MOL0     C23120   7.636   5.326  10.651  0.9816 -0.8085  0.3777
  172MOL0     O23121   7.528   5.284  10.582 -0.2931 -0.3895 -0.1952
  172MOL0     C23122   7.401   5.268  10.650 -0.7488 -0.4342 -0.2581
  172MOL0     C23123   7.339   5.151  10.586 -0.1820 -0.1912  0.0431
  172MOL0     C23124   7.198   5.099  10.642  0.2167  0.3229  0.2492
  172MOL0     C23125   7.137   4.984  10.564  0.6298 -0.7202  0.3328
  172MOL0     C23126   6.996   4.927  10.615 -0.3858 -1.2160  0.0728
  172MOL0     C23127   6.961   4.792  10.546  1.1388 -1.2775  0.3479
  172MOL0     C23128   6.848   4.712  10.596 -0.9007  0.0699  0.0798
  172MOL0     C23129   6.835   4.582  10.514 -0.2675 -0.1326  0.0206
  172MOL0    Cl23130   6.984   4.483  10.508  0.1424 -0.2123  0.4358
  172MOL0     C23131   7.754   5.298  10.592 -0.3967  0.1974  0.5581
  172MOL0     C23132   7.884   5.333  10.654 -0.1353  0.3695 -0.5137
  172MOL0     O23133   7.957   5.631  10.918 -0.4092  0.7606  0.5459
  172MOL0     C23134   8.268   5.537  10.853 -0.0447 -0.1183  0.3608
  172MOL0     C23135   8.402   5.558  10.876 -0.1359 -0.1106 -0.4519
  172MOL0     N23136   9.043   5.355  11.120  0.0021 -0.1820 -0.2442
  172MOL0     N23137   9.081   5.327  11.000 -0.5064  0.1740 -0.5481
  172MOL0     C23138  10.024   5.355  10.242  0.0078  0.1027  0.9907
  172MOL0     C23139  10.143   5.292  10.213 -0.7897 -0.2728 -0.4956
  172MOL0     C23140  10.443   4.986  10.158 -0.1103 -0.8722  0.0904
  172MOL0     C23141  10.464   4.864  10.227  0.5210 -0.2420 -0.3118
  172MOL0     C23142  10.595   4.813  10.250  0.2575 -0.3035  0.2475
  172MOL0     C23143  10.702   4.881  10.188  0.2264  0.4788  0.5474
  172MOL0     O23144  10.837   4.844  10.200  0.8083 -0.2774 -0.4583
  172MOL0     C23145  10.876   4.775  10.317  1.4642  0.3720 -0.1985
  172MOL0     C23146  11.027   4.731  10.299  0.4426  0.4703 -0.2903
  172MOL0     C23147  11.131   4.842  10.327 -0.1774  0.5886 -0.0888
  172MOL0     C23148  11.281   4.804  10.287 -0.4318 -0.4132  0.0009
  172MOL0     C23149  11.340   4.705  10.381  0.9119 -1.2655  0.0131
  172MOL0     C23150  11.401   4.635  10.451 -0.7006  0.0463  0.4927
  172MOL0     C23151  10.678   4.995  10.107  0.3142  0.0549  0.3839
  172MOL0     C23152  10.550   5.045  10.096 -0.2146 -0.9365 -0.9149
  172MOL0     H23153  10.111   5.212   9.893  0.0036  2.7036 -0.0655
  172MOL0     H23154   9.874   5.320   9.952  0.1033 -1.2847 -0.4874
  172MOL0     H23155   9.684   5.396  10.007  1.5113 -1.6371 -0.3997
  172MOL0     H23156   9.697   5.256  10.101  2.3119 -0.0664  2.4087
  172MOL0     H23157   9.541   5.516  10.170 -1.2698  0.5504  0.2310
  172MOL0     H23158   9.480   5.370  10.107  0.2154 -0.0010  0.6725
  172MOL0     H23159   9.518   5.257  10.328  1.9706 -1.1268 -4.3845
  172MOL0     H23160   9.603   5.394  10.401  0.0878  1.7461 -0.4954
  172MOL0     H23161   9.386   5.529  10.349 -2.4925  0.3033 -1.1677
  172MOL0     H23162   9.315   5.372  10.314  1.4231 -3.0287  0.9802
  172MOL0     H23163   9.379   5.285  10.531  2.1980  0.3742  0.2082
  172MOL0     H23164   9.435   5.442  10.578 -0.0055  1.1950 -1.4260
  172MOL0     H23165   9.215   5.541  10.533  0.2894 -0.3444  0.6824
  172MOL0     H23166   9.142   5.384  10.510 -2.3125  0.6253  1.0235
  172MOL0     H23167   9.214   5.304  10.726  0.4219 -0.1985  0.7690
  172MOL0     H23168   9.290   5.457  10.769 -0.3432  0.4704 -1.1208
  172MOL0     H23169   9.005   5.390  10.735 -2.1826  0.7160  2.9878
  172MOL0     H23170   9.052   5.559  10.752  1.5790  0.7114  0.4822
  172MOL0     H23171   9.073   5.648  10.987  1.4313  0.9767  3.2834
  172MOL0     H23172   9.036   5.509  11.341 -2.2566  1.4064  1.1961
  172MOL0     H23173   8.998   5.655  11.259  2.8483  0.2876  0.9457
  172MOL0     H23174   8.774   5.549  11.354 -3.2563  0.3394 -1.9253
  172MOL0     H23175   8.806   5.420  11.228  2.5080 -1.6693  2.5133
  172MOL0     H23176   8.809   5.619  11.066  0.1489 -1.8294 -0.3610
  172MOL0     H23177   8.772   5.716  11.218 -0.2662 -0.9862  1.6480
  172MOL0     H23178   8.562   5.627  11.236 -1.9639  2.1932 -1.4778
  172MOL0     H23179   8.592   5.471  11.159 -1.6790  1.2438  2.4560
  172MOL0     H23180   8.372   5.677  11.193  0.1115  1.0189  0.1379
  172MOL0     H23181   8.013   5.656  11.154  1.0570  0.9305 -1.5111
  172MOL0     H23182   8.116   5.555  11.271 -0.0287 -0.0816  1.1211
  172MOL0     H23183   8.139   5.726  11.236 -1.9915 -0.0553  0.0714
  172MOL0     H23184   7.752   5.505  10.921 -0.4589 -1.2087  0.5818
  172MOL0     H23185   7.555   5.429  10.824  1.4551  0.8218 -0.2617
  172MOL0     H23186   7.410   5.253  10.758 -0.1459 -0.3870 -0.2974
  172MOL0     H23187   7.346   5.362  10.643  2.3616  1.9949  3.4232
  172MOL0     H23188   7.332   5.184  10.482  0.8646  1.5786  0.4858
  172MOL0     H23189   7.409   5.067  10.595  1.4800  0.9661 -1.2667
  172MOL0     H23190   7.134   5.188  10.653 -2.6003 -1.8127  3.4776
  172MOL0     H23191   7.226   5.057  10.739 -0.4576  0.3062  0.4438
  172MOL0     H23192   7.109   5.014  10.462  1.6839  1.0996  0.5486
  172MOL0     H23193   7.207   4.900  10.569  0.3349 -1.0886 -1.1464
  172MOL0     H23194   6.917   5.000  10.594 -2.4547 -3.2908  0.1593
  172MOL0     H23195   6.987   4.909  10.723  1.7836 -1.9957  0.1741
  172MOL0     H23196   6.948   4.815  10.440  1.4701  0.0471  0.5788
  172MOL0     H23197   7.056   4.738  10.550  3.5125  2.5752  0.5531
  172MOL0     H23198   6.759   4.771  10.572 -0.6085  0.6439  0.3791
  172MOL0     H23199   6.853   4.690  10.703  1.6388 -0.6578 -0.1040
  172MOL0     H23200   6.819   4.614  10.411  1.6610 -2.4822 -1.1151
  172MOL0     H23201   6.759   4.510  10.544  0.6504 -1.3749 -0.5553
  172MOL0     H23202   7.745   5.244  10.498 -1.1295 -0.0737  0.7802
  172MOL0     H23203   7.966   5.288  10.599 -1.1274 -0.8415 -1.0597
  172MOL0     H23204   8.242   5.500  10.754  0.1237 -3.4738  1.4403
  172MOL0     H23205   8.487   5.540  10.811 -0.5619 -1.1590 -0.7447
  172MOL0     H23206  10.006   5.398  10.340 -0.9258 -0.1577  0.9448
  172MOL0     H23207  10.216   5.290  10.294 -1.3010 -2.4295 -0.0366
  172MOL0     H23208  10.381   4.803  10.260  1.8939 -2.6816 -1.1101
  172MOL0     H23209  10.607   4.717  10.300 -0.0136 -2.3178 -3.2058
  172MOL0     H23210  10.855   4.849  10.395  1.5674  0.5789 -0.3650
  172MOL0     H23211  10.812   4.687  10.329  1.3972 -0.2566 -3.8897
  172MOL0     H23212  11.042   4.693  10.197 -0.0719 -1.9063  0.4509
  172MOL0     H23213  11.057   4.645  10.359  1.4280 -0.6861 -2.3295
  172MOL0     H23214  11.132   4.858  10.435 -0.8299 -2.0590  0.3758
  172MOL0     H23215  11.109   4.936  10.276  2.5470  0.7121 -1.1781
  172MOL0     H23216  11.338   4.896  10.303 -1.8253  0.4195  0.3516
  172MOL0     H23217  11.299   4.780  10.182  1.4248  0.0055  0.1853
  172MOL0     H23218  11.458   4.575  10.518 -2.9731  0.8674  3.4080
  172MOL0     H23219  10.750   5.047  10.046  0.2146 -0.2704 -0.0115
  172MOL0     H23220  10.552   5.137  10.039 -1.5009  0.1896  0.7597
  173MOL0     O23221   6.439   7.737   1.446  0.5198  0.5703  0.4991
  173MOL0     C23222   6.461   7.615   1.462 -0.5879 -0.5899  0.2133
  173MOL0     O23223   6.375   7.512   1.434  0.7978  0.2091  0.4092
  173MOL0     C23224   6.247   7.536   1.390 -0.0045 -0.2835  0.7582
  173MOL0     C23225   6.220   7.590   1.264  0.0124 -0.2827  0.3559
  173MOL0     C23226   6.087   7.599   1.225  0.1884  0.2677 -0.4753
  173MOL0     C23227   5.984   7.577   1.316 -0.0765  0.3155  0.0286
  173MOL0     O23228   5.850   7.593   1.274 -0.9494 -0.8176  0.5203
  173MOL0     C23229   5.745   7.605   1.374 -0.2062  0.5008 -0.1182
  173MOL0     C23230   5.623   7.663   1.302  1.1311  0.0613  0.3722
  173MOL0     C23231   5.511   7.664   1.408  0.1323 -0.2107 -0.3091
  173MOL0     C23232   5.373   7.714   1.353  0.8463 -0.9183 -0.0947
  173MOL0     C23233   5.299   7.773   1.473 -1.2828  0.1053  0.5864
  173MOL0     C23234   5.168   7.836   1.430 -0.3389 -0.9114 -0.7328
  173MOL0     C23235   5.094   7.912   1.551  1.0516  0.4964  0.1530
  173MOL0     C23236   4.948   7.918   1.533  0.5854  0.1080 -0.0714
  173MOL0     N23237   4.874   7.799   1.581  0.4335 -0.6066 -0.3825
  173MOL0     C23238   4.777   7.802   1.678 -0.6558 -0.8116  0.2514
  173MOL0     C23239   4.707   7.681   1.662 -0.2829  0.2661 -0.2413
  173MOL0     C23240   4.583   7.647   1.740 -0.2509  0.8595  0.2887
  173MOL0     C23241   4.584   7.505   1.776  0.1365  0.0362  0.6166
  173MOL0     C23242   4.447   7.474   1.837 -0.5566  0.1846  0.2857
  173MOL0     C23243   4.445   7.527   1.980  0.1581  0.5596  1.0887
  173MOL0     O23244   4.344   7.456   2.052  0.0718 -0.0884  0.3604
  173MOL0     C23245   4.209   7.479   2.036  0.8022  0.5111 -0.2168
  173MOL0     C23246   4.110   7.381   2.061  0.2517  0.2981 -0.1239
  173MOL0     C23247   3.975   7.406   2.046  1.0768 -0.4182  0.4722
  173MOL0     C23248   3.884   7.284   2.089 -1.1821  0.6465 -0.4263
  173MOL0     C23249   3.928   7.525   1.992  1.4988 -1.0243 -0.5033
  173MOL0     C23250   3.783   7.559   1.983 -0.7554  0.1260  0.7683
  173MOL0     O23251   3.706   7.518   2.085 -0.4290  1.1733 -0.8269
  173MOL0     C23252   3.570   7.561   2.073 -1.1814  0.6624  0.4842
  173MOL0     C23253   3.488   7.456   2.095  0.6936  0.0800 -0.5776
  173MOL0     C23254   3.348   7.485   2.097 -1.1239  0.5983 -0.1932
  173MOL0     C23255   3.301   7.609   2.099 -0.5251 -0.8222 -0.6732
  173MOL0     O23256   3.163   7.629   2.113  0.7505 -0.1568 -0.7769
  173MOL0     C23257   3.109   7.611   2.247  0.5726  0.8792 -0.7596
  173MOL0     C23258   2.967   7.568   2.243 -0.6202  0.1103  0.1177
  173MOL0     C23259   2.871   7.613   2.351  0.3717 -0.6719 -1.2034
  173MOL0     C23260   2.923   7.585   2.496  0.0317  0.7596 -0.6932
  173MOL0     C23261   2.851   7.667   2.602 -0.4264  0.4303  1.3225
  173MOL0     C23262   2.887   7.623   2.745  0.0799 -0.0685  0.1095
  173MOL0     C23263   2.803   7.696   2.837 -0.5826 -0.6289  0.5206
  173MOL0     C23264   2.871   7.738   2.963 -0.0334 -0.2716 -0.5656
  173MOL0    Cl23265   2.932   7.602   3.066 -0.2414  0.1519 -0.0233
  173MOL0     C23266   3.384   7.721   2.082 -0.2834 -0.0285 -0.6201
  173MOL0     C23267   3.523   7.692   2.070 -0.6878 -0.0677 -0.2010
  173MOL0     O23268   3.753   7.634   1.891  0.6469  0.1835  1.5497
  173MOL0     C23269   4.026   7.621   1.962  0.7547  0.1505  0.3028
  173MOL0     C23270   4.161   7.598   1.984  0.3878 -1.1195  1.3237
  173MOL0     N23271   4.770   7.603   1.566 -0.5856  0.1518 -0.1077
  173MOL0     N23272   4.855   7.684   1.509  0.5494  0.6500  0.7580
  173MOL0     C23273   6.016   7.530   1.444  0.5304  0.5507  0.3663
  173MOL0     C23274   6.144   7.511   1.483 -0.0756  0.5911  0.2668
  173MOL0     C23275   6.607   7.581   1.486 -0.5350  0.1336  0.3301
  173MOL0     C23276   6.713   7.673   1.489  0.4757  0.2092  0.0376
  173MOL0     C23277   6.836   7.629   1.536  0.3564 -0.3352 -0.3043
  173MOL0     C23278   6.867   7.493   1.557  0.3008 -0.4576  0.0500
  173MOL0     O23279   6.993   7.437   1.577  0.0619  0.5244 -0.6004
  173MOL0     C23280   7.099   7.525   1.584 -0.0354 -0.7655  0.0702
  173MOL0     C23281   7.148   7.586   1.449  0.2755 -0.0215 -0.3840
  173MOL0     C23282   7.246   7.698   1.462 -0.0105 -0.3345  0.3764
  173MOL0     C23283   7.169   7.824   1.511  0.4960 -0.1002 -1.1342
  173MOL0     C23284   7.271   7.924   1.537  0.1179 -0.2108 -0.1556
  173MOL0     C23285   7.352   8.017   1.555  0.3072  0.3858  0.5027
  173MOL0     C23286   6.762   7.403   1.542 -0.0027  0.5547  0.3439
  173MOL0     C23287   6.634   7.446   1.524 -0.0221 -0.5200  0.1323
  173MOL0     H23288   6.306   7.605   1.200 -1.1898 -1.1218 -1.5371
  173MOL0     H23289   6.071   7.649   1.130 -1.6739 -1.1676 -0.9642
  173MOL0     H23290   5.710   7.507   1.408  0.3967  0.2837 -0.0984
  173MOL0     H23291   5.780   7.670   1.455 -1.0210  3.7695 -2.1861
  173MOL0     H23292   5.660   7.756   1.257  0.8520  1.1141  2.2284
  173MOL0     H23293   5.582   7.592   1.228  3.8876 -1.9648  0.6517
  173MOL0     H23294   5.503   7.572   1.467  3.1113  0.1040  0.7502
  173MOL0     H23295   5.545   7.737   1.482  0.4873  3.2117 -3.5893
  173MOL0     H23296   5.393   7.793   1.280  0.4652 -0.8757 -0.1519
  173MOL0     H23297   5.318   7.635   1.302  0.7560 -0.2658 -1.0204
  173MOL0     H23298   5.276   7.695   1.546  0.7804  0.2447  1.4336
  173MOL0     H23299   5.367   7.847   1.517  0.9340 -1.9674  0.8571
  173MOL0     H23300   5.180   7.906   1.346 -5.5712 -2.1074 -2.8466
  173MOL0     H23301   5.104   7.754   1.398  1.7406 -3.1608  0.5287
  173MOL0     H23302   5.119   7.870   1.648  0.7003  0.5954  0.2869
  173MOL0     H23303   5.131   8.015   1.556  0.9804  0.4686  1.4322
  173MOL0     H23304   4.918   7.934   1.429  0.6838  0.9052  0.0163
  173MOL0     H23305   4.918   8.010   1.584  1.2364  0.3089 -0.0529
  173MOL0     H23306   4.758   7.880   1.752  0.6632 -0.0818 -0.1481
  173MOL0     H23307   4.578   7.723   1.818 -1.8640  3.4220 -2.1011
  173MOL0     H23308   4.495   7.666   1.677 -0.9710  2.1202  1.6187
  173MOL0     H23309   4.658   7.473   1.849  0.8745 -1.4891 -0.7411
  173MOL0     H23310   4.605   7.450   1.684  0.2655  1.0688  0.0139
  173MOL0     H23311   4.423   7.369   1.857  0.5171  0.5155  4.2786
  173MOL0     H23312   4.357   7.515   1.789 -0.2713  2.0664  1.2530
  173MOL0     H23313   4.437   7.636   1.982 -1.6793  0.5218 -0.5291
  173MOL0     H23314   4.535   7.504   2.037 -0.4035 -1.0767  1.3789
  173MOL0     H23315   4.146   7.286   2.101 -1.0312 -0.6955 -1.2467
  173MOL0     H23316   3.849   7.244   1.993  2.2683  1.8862 -2.3602
  173MOL0     H23317   3.937   7.199   2.133 -0.9380 -0.6321 -2.9657
  173MOL0     H23318   3.802   7.312   2.156 -0.4351  1.6732  0.0721
  173MOL0     H23319   3.525   7.354   2.095  0.1433 -0.2054 -3.7475
  173MOL0     H23320   3.278   7.404   2.114  1.0319 -0.9512  2.0312
  173MOL0     H23321   3.159   7.524   2.289  1.1403  1.5788  0.0446
  173MOL0     H23322   3.117   7.697   2.314 -0.7026 -0.9792  1.9258
  173MOL0     H23323   2.952   7.605   2.142  2.7937  1.0540 -0.1626
  173MOL0     H23324   2.945   7.461   2.239 -0.4968  0.0688  0.4320
  173MOL0     H23325   2.773   7.568   2.333 -0.8975  1.3963  0.0475
  173MOL0     H23326   2.852   7.720   2.335 -3.1574 -1.0194 -0.2388
  173MOL0     H23327   2.885   7.484   2.516  0.1387  0.5137 -1.6717
  173MOL0     H23328   3.033   7.584   2.500  0.0012  0.4311  1.2497
  173MOL0     H23329   2.743   7.665   2.586 -0.9404 -0.7226  4.2858
  173MOL0     H23330   2.883   7.770   2.584  0.1188  0.3323  1.6983
  173MOL0     H23331   2.872   7.516   2.762  1.1967 -0.2027  0.3144
  173MOL0     H23332   2.993   7.640   2.767 -0.1766  0.4089  1.0428
  173MOL0     H23333   2.714   7.633   2.849 -0.6125 -1.0770 -1.5906
  173MOL0     H23334   2.756   7.786   2.796 -1.9557 -1.4147  0.3207
  173MOL0     H23335   2.791   7.787   3.019 -0.3572  0.2690 -1.4894
  173MOL0     H23336   2.953   7.804   2.931 -0.5897 -0.3452 -2.2041
  173MOL0     H23337   3.337   7.818   2.093  0.6590  0.4830 -1.0180
  173MOL0     H23338   3.590   7.777   2.060 -0.2277 -0.6362 -2.6999
  173MOL0     H23339   3.996   7.714   1.916  0.6262 -0.8108 -1.6325
  173MOL0     H23340   4.216   7.690   1.966 -1.6282  0.6443  3.5774
  173MOL0     H23341   5.935   7.516   1.515 -0.2709 -2.8972 -1.0243
  173MOL0     H23342   6.172   7.480   1.584 -0.5332 -3.3138 -0.6501
  173MOL0     H23343   6.700   7.778   1.464 -0.9751  1.0315  3.5899
  173MOL0     H23344   6.911   7.708   1.539 -2.3645  2.4833  3.9486
  173MOL0     H23345   7.081   7.608   1.653 -0.8760 -1.9579  1.3525
  173MOL0     H23346   7.193   7.479   1.617  1.3788  1.8873  0.0195
  173MOL0     H23347   7.063   7.626   1.393  0.0830  1.0119  0.6056
  173MOL0     H23348   7.205   7.516   1.386 -2.0923  1.3314 -4.4087
  173MOL0     H23349   7.291   7.722   1.365 -0.1506 -1.5643 -0.0045
  173MOL0     H23350   7.332   7.662   1.519  1.0547 -2.9762 -2.6199
  173MOL0     H23351   7.121   7.810   1.608  1.4384  0.4935 -0.5616
  173MOL0     H23352   7.088   7.860   1.448 -2.9743 -2.0104  1.8993
  173MOL0     H23353   7.417   8.101   1.571  3.5515 -1.5654 -1.4841
  173MOL0     H23354   6.784   7.298   1.556 -0.9713  0.1556 -0.9227
  173MOL0     H23355   6.556   7.372   1.507 -0.6042 -0.6247  2.8040
  174MOL0     O23356   8.816   5.767   1.468  0.4463 -0.2901 -0.7797
  174MOL0     C23357   8.865   5.670   1.528 -0.0213 -0.4971  0.3473
  174MOL0     O23358   8.789   5.563   1.582  0.4558 -0.5618 -0.3086
  174MOL0     C23359   8.648   5.553   1.583  0.5482  0.2978  0.3500
  174MOL0     C23360   8.552   5.660   1.566 -0.9210  0.3467 -0.2026
  174MOL0     C23361   8.415   5.637   1.580 -0.3019 -0.3927  0.4036
  174MOL0     C23362   8.375   5.501   1.609  0.2848  0.5152  0.0281
  174MOL0     O23363   8.239   5.478   1.618 -0.6894  0.6020 -0.2235
  174MOL0     C23364   8.187   5.352   1.650 -0.7357  0.6421 -0.8402
  174MOL0     C23365   8.039   5.348   1.644 -0.6043 -0.6260 -0.0716
  174MOL0     C23366   7.963   5.357   1.518  0.7821  0.0208 -0.4982
  174MOL0     C23367   7.828   5.296   1.530  0.1355  0.0860 -0.2153
  174MOL0     C23368   7.752   5.307   1.405  0.4874  0.1913 -0.2375
  174MOL0     C23369   7.675   5.436   1.415  0.4520 -0.9306  0.0486
  174MOL0     C23370   7.555   5.430   1.516 -0.1005 -0.4450  0.3573
  174MOL0     C23371   7.449   5.534   1.489  0.3055 -0.5592  0.6339
  174MOL0     N23372   7.409   5.560   1.355  0.0690  0.1306 -0.1792
  174MOL0     C23373   7.318   5.478   1.289  0.7746 -0.0411  0.3179
  174MOL0     C23374   7.279   5.541   1.178 -0.6237  0.0443  0.0783
  174MOL0     C23375   7.180   5.480   1.070  0.4602  0.0585  0.1214
  174MOL0     C23376   7.052   5.440   1.144  0.7153  0.1767 -0.2033
  174MOL0     C23377   6.945   5.406   1.041 -0.3580  0.8789  0.2385
  174MOL0     C23378   6.800   5.403   1.087 -0.1719  0.0506  0.0161
  174MOL0     O23379   6.784   5.314   1.200 -1.0856  0.2222 -0.3889
  174MOL0     C23380   6.654   5.285   1.238  0.6492  1.4230  0.0915
  174MOL0     C23381   6.634   5.198   1.343  0.2180  1.4467  0.7697
  174MOL0     C23382   6.505   5.170   1.405 -0.4906 -0.6670 -0.2770
  174MOL0     C23383   6.502   5.069   1.505 -0.5709  0.4425 -0.5243
  174MOL0     C23384   6.395   5.251   1.367 -0.1182  0.9329  0.2157
  174MOL0     C23385   6.261   5.245   1.418  0.2735 -0.1980  1.0827
  174MOL0     O23386   6.169   5.328   1.350 -0.3304 -0.2104 -0.0151
  174MOL0     C23387   6.058   5.368   1.421 -0.1947 -0.1128 -0.1367
  174MOL0     C23388   5.936   5.305   1.401 -0.3573  0.3874 -0.5386
  174MOL0     C23389   5.828   5.351   1.469  0.0083 -0.4255  0.0109
  174MOL0     C23390   5.844   5.455   1.565  0.1308 -0.3487 -0.1514
  174MOL0     O23391   5.728   5.501   1.624 -1.0495  0.3273 -0.2717
  174MOL0     C23392   5.739   5.571   1.750 -0.5316 -0.0065 -0.7037
  174MOL0     C23393   5.595   5.622   1.785  0.5188  1.0282  0.1374
  174MOL0     C23394   5.608   5.677   1.933  0.5741 -0.9001  0.1981
  174MOL0     C23395   5.468   5.714   2.005 -0.8717  0.4785 -0.6851
  174MOL0     C23396   5.487   5.733   2.153  0.0236  0.1208 -0.8430
  174MOL0     C23397   5.355   5.733   2.226  0.2315  0.7528  1.0362
  174MOL0     C23398   5.370   5.760   2.374  0.2244 -0.1289 -0.4129
  174MOL0     C23399   5.243   5.694   2.438  0.0402 -0.8663  0.3614
  174MOL0    Cl23400   5.096   5.785   2.373 -0.7240  0.1597 -0.1620
  174MOL0     C23401   5.971   5.521   1.584  0.0862 -0.0320 -0.1301
  174MOL0     C23402   6.074   5.472   1.512  0.4719 -0.1638 -0.0879
  174MOL0     O23403   6.231   5.174   1.513 -0.7487  0.1722 -0.0297
  174MOL0     C23404   6.422   5.344   1.263  1.0799  0.7129  0.4921
  174MOL0     C23405   6.543   5.364   1.205 -0.5351 -0.3454  0.5589
  174MOL0     N23406   7.335   5.666   1.176 -0.4076  0.3757  0.0005
  174MOL0     N23407   7.414   5.670   1.276 -0.2552  0.4686  0.0477
  174MOL0     C23408   8.465   5.394   1.615 -0.5642 -0.2269  0.1620
  174MOL0     C23409   8.603   5.426   1.615 -0.3250  1.2591 -0.3669
  174MOL0     C23410   9.007   5.667   1.535 -0.7456  0.4665 -0.1298
  174MOL0     C23411   9.073   5.546   1.556 -0.2211 -0.0415  0.6021
  174MOL0     C23412   9.209   5.535   1.563 -0.2928  0.5621 -0.6925
  174MOL0     C23413   9.291   5.643   1.529  1.1196 -0.1553 -0.8511
  174MOL0     O23414   9.422   5.627   1.548 -0.0091  0.4522 -0.4794
  174MOL0     C23415   9.518   5.733   1.524  0.1930 -0.2579  0.2801
  174MOL0     C23416   9.659   5.685   1.555 -0.4588 -0.2433  0.3171
  174MOL0     C23417   9.759   5.795   1.527 -0.8478 -0.1752  0.1831
  174MOL0     C23418   9.893   5.739   1.566  0.8833  0.3548  1.0971
  174MOL0     C23419   9.999   5.822   1.509  0.4917  0.5162 -0.2246
  174MOL0     C23420  10.087   5.890   1.467  0.9819  0.5742 -0.0954
  174MOL0     C23421   9.228   5.766   1.513  0.1302 -0.4668  0.2544
  174MOL0     C23422   9.088   5.771   1.505 -0.3231  0.5331  0.3449
  174MOL0     H23423   8.593   5.759   1.546  1.6922 -0.0358  2.5591
  174MOL0     H23424   8.335   5.706   1.556  2.9246  2.7935 -2.2543
  174MOL0     H23425   8.226   5.275   1.583  0.0200  0.1224  0.1672
  174MOL0     H23426   8.213   5.330   1.754 -2.1696  0.3443 -0.5197
  174MOL0     H23427   8.009   5.259   1.699 -1.7301  0.2718  0.8213
  174MOL0     H23428   7.998   5.434   1.699 -1.7479  0.1264 -2.0330
  174MOL0     H23429   7.959   5.463   1.490  0.0536 -0.2303 -1.3926
  174MOL0     H23430   8.008   5.297   1.438 -2.0584 -0.7246 -1.6466
  174MOL0     H23431   7.823   5.192   1.561 -1.1013  0.4514  0.9186
  174MOL0     H23432   7.779   5.353   1.610 -1.0256 -1.5791  0.3060
  174MOL0     H23433   7.825   5.313   1.324  1.2177  1.2807  0.4766
  174MOL0     H23434   7.688   5.219   1.392 -1.0854  1.1593  0.6557
  174MOL0     H23435   7.739   5.516   1.450  0.8156 -0.5387 -1.4337
  174MOL0     H23436   7.634   5.466   1.318  1.7824  1.5913  0.1942
  174MOL0     H23437   7.513   5.333   1.488 -0.4206  0.1907 -1.5091
  174MOL0     H23438   7.585   5.437   1.620  2.9011  4.2523 -0.4929
  174MOL0     H23439   7.491   5.627   1.529  1.6882  0.2162 -2.3640
  174MOL0     H23440   7.355   5.515   1.542 -1.7421  3.2473 -1.1725
  174MOL0     H23441   7.285   5.380   1.322  1.1830 -0.8588 -1.6128
  174MOL0     H23442   7.169   5.544   0.982  1.1745 -0.6760 -0.5216
  174MOL0     H23443   7.230   5.391   1.031  0.7797  0.3427 -0.1347
  174MOL0     H23444   7.019   5.520   1.212  1.2147 -0.2249  0.5259
  174MOL0     H23445   7.060   5.354   1.211  1.0320  0.8952  0.7156
  174MOL0     H23446   6.965   5.304   1.008 -0.2842 -0.0383  2.8900
  174MOL0     H23447   6.953   5.479   0.960 -2.2595  1.4786  0.5273
  174MOL0     H23448   6.744   5.368   1.000  0.7635  0.6575 -0.8591
  174MOL0     H23449   6.766   5.504   1.112  1.9051  1.4271 -2.2127
  174MOL0     H23450   6.716   5.136   1.378 -1.1345 -1.1724 -0.3860
  174MOL0     H23451   6.583   4.997   1.491 -0.7915  0.4885 -2.2862
  174MOL0     H23452   6.520   5.116   1.601 -0.5618 -0.9614  0.1852
  174MOL0     H23453   6.405   5.018   1.498 -0.7945  1.0160 -2.4996
  174MOL0     H23454   5.928   5.221   1.332  1.0925  0.6048 -1.0097
  174MOL0     H23455   5.730   5.305   1.464 -0.7388  1.1361 -0.2819
  174MOL0     H23456   5.783   5.502   1.823 -3.4868 -1.7662 -0.4386
  174MOL0     H23457   5.797   5.664   1.741 -2.4110  1.0532 -2.8716
  174MOL0     H23458   5.565   5.697   1.711  0.2701  2.1607  1.3520
  174MOL0     H23459   5.527   5.536   1.782  1.7726 -0.1935  3.1654
  174MOL0     H23460   5.667   5.768   1.943 -1.3936  0.3187  1.5309
  174MOL0     H23461   5.660   5.607   1.999 -0.8436 -0.9140  1.3479
  174MOL0     H23462   5.428   5.808   1.965 -0.9525  1.1205  0.8031
  174MOL0     H23463   5.398   5.631   1.992  0.6326 -0.6683 -1.8095
  174MOL0     H23464   5.555   5.814   2.180 -1.2793  0.4726  1.7528
  174MOL0     H23465   5.540   5.649   2.199 -1.3613 -0.5395 -0.3742
  174MOL0     H23466   5.284   5.804   2.183  1.2355  2.3845  1.9799
  174MOL0     H23467   5.312   5.634   2.207 -2.1356  1.4068  2.5433
  174MOL0     H23468   5.371   5.868   2.392  0.0743  0.3620 -3.0533
  174MOL0     H23469   5.461   5.717   2.418 -0.2468 -0.2041  0.5204
  174MOL0     H23470   5.245   5.704   2.547  1.6117  2.3791  0.1452
  174MOL0     H23471   5.238   5.588   2.410 -2.3741 -0.5842 -0.5732
  174MOL0     H23472   5.987   5.614   1.637  3.8200  1.1565 -2.8902
  174MOL0     H23473   6.167   5.527   1.511 -0.0825  1.1541  3.5900
  174MOL0     H23474   6.336   5.398   1.227 -0.9632 -3.3990 -1.4225
  174MOL0     H23475   6.549   5.442   1.130 -0.7915 -0.4291  0.4491
  174MOL0     H23476   8.443   5.289   1.635 -1.5653 -0.1394 -0.4258
  174MOL0     H23477   8.670   5.340   1.623 -0.0366  1.6784  3.0561
  174MOL0     H23478   9.019   5.453   1.571  1.7982 -1.2207  0.9756
  174MOL0     H23479   9.250   5.436   1.581  0.3825  1.0235  0.4110
  174MOL0     H23480   9.520   5.761   1.418  0.3923 -1.1976  0.0240
  174MOL0     H23481   9.498   5.823   1.582  0.5916 -1.0014  1.6166
  174MOL0     H23482   9.681   5.601   1.488  1.9189 -1.1382  2.0934
  174MOL0     H23483   9.669   5.654   1.659 -0.9074 -1.3369  0.0547
  174MOL0     H23484   9.745   5.871   1.604  2.1222  0.6817  0.0114
  174MOL0     H23485   9.757   5.838   1.426 -2.7416 -0.5628  0.0172
  174MOL0     H23486   9.913   5.642   1.520  1.3325  1.7291 -1.8122
  174MOL0     H23487   9.887   5.729   1.675 -2.1927  1.8693  1.1927
  174MOL0     H23488  10.170   5.953   1.442  0.7872  0.7854 -0.2241
  174MOL0     H23489   9.285   5.853   1.482 -0.7931 -0.5600 -1.8355
  174MOL0     H23490   9.046   5.864   1.467  2.9004  1.8328 -0.3751
  175MOL0     O23491   5.003   7.561   8.559  0.5004 -0.0044  0.1907
  175MOL0     C23492   5.105   7.489   8.573  0.9063 -0.5999  0.6063
  175MOL0     O23493   5.098   7.355   8.570  0.0877 -0.4088 -0.0026
  175MOL0     C23494   4.981   7.286   8.529 -0.4934 -0.4904 -1.1601
  175MOL0     C23495   4.953   7.266   8.400  0.0210 -0.8757  0.7926
  175MOL0     C23496   4.840   7.191   8.349 -0.1504  0.6374 -0.6140
  175MOL0     C23497   4.738   7.167   8.450  0.3375  1.1357  0.8772
  175MOL0     O23498   4.616   7.114   8.402 -0.4433 -0.0579  0.0732
  175MOL0     C23499   4.517   7.052   8.487 -0.1876 -0.7188  0.3183
  175MOL0     C23500   4.536   6.903   8.521  0.4052  0.2582  0.3025
  175MOL0     C23501   4.405   6.849   8.583  0.0398 -0.0485  0.3340
  175MOL0     C23502   4.398   6.703   8.538 -0.0255  0.3870  0.2417
  175MOL0     C23503   4.269   6.641   8.573  1.1931 -0.1960  0.3725
  175MOL0     C23504   4.269   6.586   8.724 -0.0597 -0.2243  0.6715
  175MOL0     C23505   4.139   6.523   8.757 -0.0443 -0.2329  0.3386
  175MOL0     C23506   4.089   6.398   8.682 -0.2276 -0.0691 -0.7851
  175MOL0     N23507   3.945   6.386   8.725  0.6568 -0.8291 -0.4725
  175MOL0     C23508   3.829   6.395   8.654  0.7214  0.1523  0.2144
  175MOL0     C23509   3.720   6.385   8.735  0.1306 -0.2983 -1.1284
  175MOL0     C23510   3.572   6.405   8.692 -0.4698 -0.6263  0.1856
  175MOL0     C23511   3.520   6.544   8.736  0.1197  0.6970  0.9582
  175MOL0     C23512   3.377   6.557   8.688 -0.9955 -0.6330  0.3952
  175MOL0     C23513   3.324   6.698   8.728 -0.0104 -0.2775 -0.9472
  175MOL0     O23514   3.186   6.725   8.683 -0.9623 -0.8357 -0.1341
  175MOL0     C23515   3.075   6.665   8.730  0.4789 -0.4742  0.2397
  175MOL0     C23516   2.957   6.718   8.681  0.3924 -0.2854 -0.8501
  175MOL0     C23517   2.830   6.671   8.717 -0.5959 -0.1449 -0.6855
  175MOL0     C23518   2.712   6.747   8.683  0.5865  0.3134  0.6831
  175MOL0     C23519   2.821   6.552   8.797 -0.1019  0.1509 -0.0941
  175MOL0     C23520   2.693   6.477   8.815 -0.0527 -0.2099  0.3095
  175MOL0     O23521   2.595   6.475   8.717 -0.6415  0.0076 -0.5978
  175MOL0     C23522   2.477   6.423   8.761 -0.2035  0.0441  0.4997
  175MOL0     C23523   2.426   6.299   8.706 -0.5351  0.0044 -0.6615
  175MOL0     C23524   2.301   6.251   8.749  0.8250 -0.8017  0.5343
  175MOL0     C23525   2.220   6.325   8.838 -0.3403  0.2453 -0.3181
  175MOL0     O23526   2.095   6.276   8.876 -0.2605 -0.1799 -0.0364
  175MOL0     C23527   2.022   6.345   8.979  0.6794  0.7358 -0.5386
  175MOL0     C23528   1.908   6.255   9.011 -0.3544 -0.4065  1.0768
  175MOL0     C23529   1.944   6.117   9.069 -0.4214 -0.0825 -0.6074
  175MOL0     C23530   1.812   6.061   9.138  0.8625  0.1635 -0.5442
  175MOL0     C23531   1.831   5.912   9.178  0.3945  0.1773 -0.1535
  175MOL0     C23532   1.711   5.877   9.260  0.9697 -0.8174 -1.1070
  175MOL0     C23533   1.712   5.727   9.302  0.1994  0.7819 -0.0534
  175MOL0     C23534   1.593   5.690   9.386 -0.7808  0.1927 -0.8851
  175MOL0    Cl23535   1.448   5.709   9.286 -0.1475 -0.1089 -0.1053
  175MOL0     C23536   2.268   6.452   8.890 -0.1713  0.2637 -0.6250
  175MOL0     C23537   2.397   6.495   8.854 -0.4540  0.0953  0.6711
  175MOL0     O23538   2.693   6.415   8.921 -0.7124  0.6524 -0.1834
  175MOL0     C23539   2.937   6.507   8.855  0.3727 -0.1310 -0.8104
  175MOL0     C23540   3.061   6.565   8.830  0.2153  0.4490  0.2426
  175MOL0     N23541   3.772   6.355   8.859  0.2427 -0.5768  0.7035
  175MOL0     N23542   3.904   6.345   8.850 -0.5058 -0.3885 -0.5057
  175MOL0     C23543   4.762   7.194   8.592  1.0012  0.0555  0.2241
  175MOL0     C23544   4.880   7.248   8.625  0.0557  0.3105 -0.0286
  175MOL0     C23545   5.228   7.565   8.590 -0.7387  0.0676  0.6810
  175MOL0     C23546   5.240   7.703   8.590 -0.2053  0.0793 -0.5152
  175MOL0     C23547   5.350   7.773   8.621 -0.6055 -0.0914 -1.0479
  175MOL0     C23548   5.471   7.707   8.647  0.4126 -0.3309  0.2891
  175MOL0     O23549   5.583   7.786   8.678 -0.1468 -0.1681  0.1755
  175MOL0     C23550   5.709   7.746   8.625 -1.7878  0.6739 -0.9571
  175MOL0     C23551   5.810   7.711   8.729  0.7230 -0.2612 -1.1618
  175MOL0     C23552   5.929   7.655   8.661  0.6052  0.0980  0.4694
  175MOL0     C23553   6.039   7.614   8.761  0.0333 -0.4081 -0.0177
  175MOL0     C23554   6.096   7.729   8.836 -0.4215 -0.0457  0.3485
  175MOL0     C23555   6.147   7.829   8.889  0.7163 -0.1273 -0.5707
  175MOL0     C23556   5.465   7.563   8.641  1.0896  0.0655  0.2060
  175MOL0     C23557   5.353   7.495   8.597  0.4196 -0.4599  0.0365
  175MOL0     H23558   5.024   7.301   8.326  2.0083 -2.1504  1.9926
  175MOL0     H23559   4.807   7.152   8.253 -2.5085 -2.3556  1.2143
  175MOL0     H23560   4.500   7.112   8.576  2.0308 -0.4633  0.6103
  175MOL0     H23561   4.417   7.058   8.441 -1.3037  1.6453  2.8133
  175MOL0     H23562   4.571   6.863   8.426  0.9636  1.6885 -0.1069
  175MOL0     H23563   4.612   6.891   8.599 -0.9951  1.2692  1.9131
  175MOL0     H23564   4.406   6.847   8.692 -0.8247 -3.4738  0.3789
  175MOL0     H23565   4.316   6.902   8.548 -0.3130  0.1834  1.5453
  175MOL0     H23566   4.414   6.700   8.429  1.5955  1.1402  0.4345
  175MOL0     H23567   4.481   6.652   8.586 -0.4734  1.1196  1.8632
  175MOL0     H23568   4.193   6.711   8.538  2.5216  1.1031 -0.0257
  175MOL0     H23569   4.243   6.552   8.514 -2.6104 -0.8226  2.6474
  175MOL0     H23570   4.349   6.515   8.745 -0.7961 -1.0503  0.7577
  175MOL0     H23571   4.288   6.668   8.794 -0.3883  0.7022 -0.2928
  175MOL0     H23572   4.137   6.502   8.864  2.2504  1.3693  0.7648
  175MOL0     H23573   4.072   6.606   8.734 -2.3267 -2.2935 -1.0590
  175MOL0     H23574   4.158   6.319   8.714  0.4076  1.0079  0.5789
  175MOL0     H23575   4.092   6.416   8.574  2.4739  1.8032 -0.5130
  175MOL0     H23576   3.830   6.412   8.547  1.5738  2.8392  0.5656
  175MOL0     H23577   3.565   6.388   8.584 -1.2835 -1.0460  0.2990
  175MOL0     H23578   3.516   6.327   8.743  1.7421 -2.7081 -0.3748
  175MOL0     H23579   3.583   6.623   8.696 -1.0376  1.9022  1.4297
  175MOL0     H23580   3.528   6.553   8.845  0.8213 -0.9708  1.0748
  175MOL0     H23581   3.326   6.474   8.737  1.4840 -2.8196 -0.5080
  175MOL0     H23582   3.364   6.542   8.580 -3.3490  1.1771  0.3241
  175MOL0     H23583   3.385   6.775   8.679 -0.0600  0.6565  0.4029
  175MOL0     H23584   3.344   6.718   8.834 -2.9989  1.5300 -0.6126
  175MOL0     H23585   2.965   6.796   8.607 -0.0711  1.0631  0.4654
  175MOL0     H23586   2.666   6.694   8.600 -0.1195  1.1174  0.5445
  175MOL0     H23587   2.644   6.770   8.766 -0.9843 -1.1769 -0.1149
  175MOL0     H23588   2.740   6.842   8.636  0.4807  0.4958  0.9892
  175MOL0     H23589   2.493   6.234   8.650 -1.1973 -0.0869 -1.3721
  175MOL0     H23590   2.264   6.158   8.708  0.6854  1.2242 -4.7804
  175MOL0     H23591   2.078   6.363   9.071 -1.9471  1.6435  0.9813
  175MOL0     H23592   1.979   6.443   8.955 -0.9846  1.3001  3.7726
  175MOL0     H23593   1.836   6.305   9.076 -0.0398  2.8671 -0.8933
  175MOL0     H23594   1.852   6.235   8.920  1.6148  2.5911 -0.9550
  175MOL0     H23595   2.032   6.113   9.133  0.3706  0.3464 -1.6408
  175MOL0     H23596   1.969   6.056   8.981 -1.5218  2.6761 -2.9891
  175MOL0     H23597   1.773   6.122   9.220 -2.2566 -0.8092 -1.1816
  175MOL0     H23598   1.732   6.054   9.064  0.5194 -0.7075 -0.1075
  175MOL0     H23599   1.932   5.908   9.221  0.8863  0.0737 -1.2547
  175MOL0     H23600   1.827   5.846   9.090 -0.3138  0.2804 -0.2010
  175MOL0     H23601   1.700   5.947   9.344 -0.9589  2.5982 -3.9349
  175MOL0     H23602   1.625   5.908   9.200 -0.3206 -1.0559  0.5538
  175MOL0     H23603   1.810   5.696   9.339  1.5538  0.9346 -3.2071
  175MOL0     H23604   1.716   5.671   9.208 -1.5122  1.9620 -0.8684
  175MOL0     H23605   1.581   5.734   9.485 -2.3803 -1.5603 -0.2296
  175MOL0     H23606   1.608   5.584   9.412 -4.0830  0.1873  1.5966
  175MOL0     H23607   2.227   6.521   8.963 -1.3050  0.0059 -0.9957
  175MOL0     H23608   2.431   6.590   8.893 -0.2730  1.3221 -2.1758
  175MOL0     H23609   2.924   6.435   8.936  0.6495  1.4503  0.7029
  175MOL0     H23610   3.146   6.526   8.885 -1.4772 -1.8489  1.3951
  175MOL0     H23611   4.698   7.166   8.675  3.9585 -0.9489  2.3118
  175MOL0     H23612   4.899   7.268   8.730  4.1545 -2.2395 -0.0688
  175MOL0     H23613   5.143   7.752   8.590  0.0637  0.7538  2.1236
  175MOL0     H23614   5.338   7.878   8.646  1.1894 -0.4436  1.7644
  175MOL0     H23615   5.699   7.649   8.575 -0.2372 -0.5103  0.8927
  175MOL0     H23616   5.757   7.822   8.564  1.2179 -0.2867  0.0476
  175MOL0     H23617   5.757   7.645   8.799  0.4763  1.1533  0.0259
  175MOL0     H23618   5.834   7.801   8.786  3.3686 -1.0704 -0.8609
  175MOL0     H23619   5.964   7.739   8.600 -0.8848 -1.2225 -2.3531
  175MOL0     H23620   5.888   7.575   8.599 -2.3047  1.5261  0.3720
  175MOL0     H23621   6.125   7.560   8.720 -0.5633  0.9165 -3.2523
  175MOL0     H23622   5.989   7.545   8.830  0.3065 -1.7983 -1.1727
  175MOL0     H23623   6.190   7.919   8.929 -0.3541 -0.3384  1.1356
  175MOL0     H23624   5.554   7.504   8.658  1.3431  0.5894  0.7266
  175MOL0     H23625   5.343   7.389   8.575 -2.3050 -0.1038 -0.7915
  176MOL0     O23626   4.710   1.521   1.471 -0.0016 -0.4622  0.2628
  176MOL0     C23627   4.762   1.419   1.510 -0.1330 -0.4675  0.1441
  176MOL0     O23628   4.887   1.403   1.547  0.2195 -0.1084 -0.3661
  176MOL0     C23629   4.982   1.505   1.538  0.9079  0.9927  1.3832
  176MOL0     C23630   5.060   1.528   1.645 -0.7156 -0.3277 -0.2326
  176MOL0     C23631   5.158   1.626   1.638 -0.3345  0.5837  0.1475
  176MOL0     C23632   5.177   1.704   1.516  0.2482 -0.3664 -0.4323
  176MOL0     O23633   5.265   1.815   1.493  1.0358 -0.3691  0.0391
  176MOL0     C23634   5.368   1.827   1.596  0.0632 -0.1366 -0.3790
  176MOL0     C23635   5.466   1.937   1.544  0.0602  0.4095  0.4926
  176MOL0     C23636   5.595   1.937   1.631  0.7132  0.9027  0.4421
  176MOL0     C23637   5.708   2.026   1.585  0.0839 -0.3137 -0.0721
  176MOL0     C23638   5.824   2.027   1.683  1.5500  1.0037  0.5108
  176MOL0     C23639   5.919   2.140   1.646  0.5194  0.2971  0.7247
  176MOL0     C23640   5.995   2.124   1.509 -0.9877 -0.3430  0.0723
  176MOL0     C23641   6.037   2.254   1.439  0.9574 -0.3518  0.6389
  176MOL0     N23642   5.928   2.287   1.346 -0.2983  0.5630 -0.3345
  176MOL0     C23643   5.808   2.333   1.375 -0.2329  0.9059 -0.5933
  176MOL0     C23644   5.729   2.298   1.276  0.1259 -0.4505 -0.5223
  176MOL0     C23645   5.588   2.340   1.262  0.8262 -0.3304  0.2010
  176MOL0     C23646   5.494   2.217   1.235  0.3748 -0.0338 -0.7993
  176MOL0     C23647   5.353   2.235   1.271  0.4127  0.1313 -0.1991
  176MOL0     C23648   5.267   2.116   1.215  0.3955  0.1319  0.2646
  176MOL0     O23649   5.129   2.139   1.229 -0.0982 -0.7682 -0.1206
  176MOL0     C23650   5.041   2.049   1.189  0.3107  0.2777 -0.0089
  176MOL0     C23651   4.909   2.069   1.216  1.1169  0.1364 -0.0650
  176MOL0     C23652   4.803   1.980   1.188 -0.2946 -0.9115  0.1738
  176MOL0     C23653   4.672   2.009   1.254  0.2876 -0.1433 -0.4297
  176MOL0     C23654   4.834   1.857   1.123  0.2077  0.8201  0.4686
  176MOL0     C23655   4.731   1.747   1.088 -0.0569  0.9245  0.0710
  176MOL0     O23656   4.594   1.776   1.079  0.0657  0.1247  0.1357
  176MOL0     C23657   4.511   1.665   1.070  0.8203 -0.0728 -0.8401
  176MOL0     C23658   4.450   1.628   0.955 -0.1230  0.7570  0.3450
  176MOL0     C23659   4.357   1.522   0.961 -0.4864 -0.2993  0.4206
  176MOL0     C23660   4.320   1.459   1.078 -0.1852 -0.5146 -0.1148
  176MOL0     O23661   4.235   1.357   1.065 -0.0217 -0.1882 -0.1586
  176MOL0     C23662   4.182   1.288   1.178 -1.1214 -0.2990  0.2250
  176MOL0     C23663   4.067   1.378   1.221  0.2127 -0.1621  0.5072
  176MOL0     C23664   3.950   1.302   1.266  0.5093  0.8580  0.4382
  176MOL0     C23665   3.832   1.398   1.298 -0.6140 -0.0047 -0.3109
  176MOL0     C23666   3.866   1.483   1.413  0.1480  1.2251 -0.3928
  176MOL0     C23667   3.746   1.554   1.475 -0.3984  0.5923 -0.3629
  176MOL0     C23668   3.785   1.640   1.600 -0.5073  0.5899  0.8906
  176MOL0     C23669   3.894   1.735   1.559 -0.4948 -0.0554  0.0623
  176MOL0    Cl23670   3.837   1.854   1.430  0.1136  0.1721  0.2844
  176MOL0     C23671   4.380   1.500   1.194 -1.4178  0.2137 -0.2033
  176MOL0     C23672   4.480   1.603   1.191 -0.9611  0.4853  0.0727
  176MOL0     O23673   4.778   1.640   1.060  0.2510  0.7264 -0.2718
  176MOL0     C23674   4.971   1.830   1.097 -0.4624  0.3656  0.3249
  176MOL0     C23675   5.069   1.923   1.122 -0.0397 -0.2327 -0.9405
  176MOL0     N23676   5.801   2.254   1.175 -1.0468  0.0312 -0.1623
  176MOL0     N23677   5.920   2.224   1.220 -0.2355 -0.5107  0.2942
  176MOL0     C23678   5.095   1.673   1.403 -0.1579 -0.3506  0.6122
  176MOL0     C23679   4.999   1.573   1.409  0.8571 -0.5406 -0.0335
  176MOL0     C23680   4.676   1.302   1.527 -1.1148  0.9975 -0.0102
  176MOL0     C23681   4.548   1.293   1.473 -0.1486 -0.4007  0.9282
  176MOL0     C23682   4.475   1.178   1.464 -0.1616 -0.1041 -0.7439
  176MOL0     C23683   4.518   1.061   1.523  0.5420 -0.1964 -0.0877
  176MOL0     O23684   4.443   0.948   1.511 -0.2634  0.0272 -0.3678
  176MOL0     C23685   4.419   0.876   1.631  0.6374 -0.4121 -0.6978
  176MOL0     C23686   4.397   0.735   1.598 -0.6210 -0.7660  0.0764
  176MOL0     C23687   4.338   0.678   1.736 -0.1803  0.5082  0.4779
  176MOL0     C23688   4.455   0.594   1.801  0.0050  0.1205  0.0405
  176MOL0     C23689   4.413   0.538   1.929 -0.9143 -1.0857  0.1473
  176MOL0     C23690   4.398   0.486   2.035 -0.2747  0.1959  0.6714
  176MOL0     C23691   4.637   1.061   1.584 -0.8794 -0.2151 -0.1471
  176MOL0     C23692   4.722   1.178   1.589 -0.0826  0.0147 -0.2781
  176MOL0     H23693   5.057   1.479   1.742  1.9029  0.5731  0.3864
  176MOL0     H23694   5.218   1.654   1.724  0.4219 -3.0608  0.9471
  176MOL0     H23695   5.324   1.860   1.690 -0.1482  1.1568 -0.9063
  176MOL0     H23696   5.422   1.733   1.610  0.1398 -0.1094 -0.4898
  176MOL0     H23697   5.498   1.911   1.443 -2.0691  1.7057 -0.5897
  176MOL0     H23698   5.421   2.036   1.537  1.2410  0.9217 -0.1819
  176MOL0     H23699   5.569   1.965   1.734 -1.5783 -0.2877  0.2298
  176MOL0     H23700   5.643   1.838   1.627 -0.1569  0.4793 -3.2849
  176MOL0     H23701   5.746   1.990   1.489 -0.2298  1.7812 -1.0453
  176MOL0     H23702   5.663   2.125   1.567  0.8301 -0.3040 -2.1276
  176MOL0     H23703   5.781   2.049   1.781  1.0672  1.6973  0.1518
  176MOL0     H23704   5.883   1.935   1.691  0.5359  0.1804 -0.9439
  176MOL0     H23705   5.860   2.231   1.635  0.3132  0.1415  0.5376
  176MOL0     H23706   5.989   2.154   1.729  1.4388 -0.6271  0.1350
  176MOL0     H23707   6.090   2.083   1.545  1.6766  2.0468 -3.5440
  176MOL0     H23708   5.948   2.053   1.441 -2.0137  1.0970 -0.7778
  176MOL0     H23709   6.131   2.258   1.382  0.2404  2.5168 -0.5166
  176MOL0     H23710   6.047   2.336   1.510  1.6768 -0.6610  0.9134
  176MOL0     H23711   5.776   2.399   1.455 -0.9844  0.7105 -0.7263
  176MOL0     H23712   5.545   2.384   1.353 -0.9555 -2.8748  0.6958
  176MOL0     H23713   5.572   2.403   1.174 -0.6599 -1.7649 -0.6207
  176MOL0     H23714   5.534   2.134   1.293  1.4091 -0.2169 -1.7283
  176MOL0     H23715   5.510   2.188   1.130 -1.5459 -0.6218 -0.9803
  176MOL0     H23716   5.316   2.327   1.225 -0.1354 -0.4225 -0.8908
  176MOL0     H23717   5.333   2.243   1.378 -1.3328  2.3269 -0.6270
  176MOL0     H23718   5.297   2.024   1.266 -3.3412 -1.3592  0.0662
  176MOL0     H23719   5.276   2.095   1.108 -2.6932  1.8090 -0.4451
  176MOL0     H23720   4.897   2.161   1.274  1.8133  1.5489 -2.0608
  176MOL0     H23721   4.611   1.922   1.281  1.2164 -1.0577 -1.1856
  176MOL0     H23722   4.692   2.051   1.353 -3.1927  1.8554 -0.4408
  176MOL0     H23723   4.608   2.076   1.197 -0.4703 -0.0387  0.5130
  176MOL0     H23724   4.466   1.684   0.864 -0.0833 -0.3542 -0.3454
  176MOL0     H23725   4.308   1.495   0.868 -0.4036  1.9260 -0.3263
  176MOL0     H23726   4.137   1.193   1.148 -3.3978  0.3599  1.3726
  176MOL0     H23727   4.249   1.268   1.262 -0.4207 -0.0978 -0.2739
  176MOL0     H23728   4.103   1.436   1.306 -0.0423  1.9774 -0.7755
  176MOL0     H23729   4.028   1.435   1.136  1.5508  2.0637  1.2916
  176MOL0     H23730   3.982   1.260   1.361  0.6507  1.8538  0.8362
  176MOL0     H23731   3.928   1.225   1.191  2.9967  0.5000 -0.0191
  176MOL0     H23732   3.805   1.472   1.222 -1.3860  0.3618  0.3036
  176MOL0     H23733   3.745   1.337   1.324  0.2984 -0.9894  0.5124
  176MOL0     H23734   3.944   1.555   1.384 -0.7005  3.3687  2.2254
  176MOL0     H23735   3.900   1.413   1.490  0.8193  2.2971  0.3178
  176MOL0     H23736   3.696   1.622   1.405  0.5592  0.2134 -1.4439
  176MOL0     H23737   3.670   1.479   1.497  0.0818 -0.4665 -2.1269
  176MOL0     H23738   3.825   1.573   1.677  1.4306  0.7432  0.0808
  176MOL0     H23739   3.693   1.685   1.639  0.0441  2.5155  0.1038
  176MOL0     H23740   3.980   1.680   1.518  1.0051  1.7998  0.6086
  176MOL0     H23741   3.925   1.781   1.653 -0.4642 -0.8105  0.4267
  176MOL0     H23742   4.372   1.437   1.282  1.9119 -0.0982  0.0165
  176MOL0     H23743   4.526   1.636   1.283 -2.6448  2.5101  0.2842
  176MOL0     H23744   5.003   1.735   1.054  0.4518  0.8602 -0.1164
  176MOL0     H23745   5.172   1.896   1.101  1.6767  3.9901  0.9387
  176MOL0     H23746   5.119   1.716   1.306  1.3572  0.4817  1.3323
  176MOL0     H23747   4.919   1.552   1.339 -0.7915 -2.2578  2.2149
  176MOL0     H23748   4.486   1.378   1.447 -3.6461 -2.9026  0.3556
  176MOL0     H23749   4.374   1.186   1.425  0.0216  3.3824 -0.8734
  176MOL0     H23750   4.497   0.892   1.705 -0.9492  1.0001  0.7727
  176MOL0     H23751   4.327   0.915   1.677  2.4559  2.6895  0.5874
  176MOL0     H23752   4.490   0.689   1.564  0.1297  0.8067 -0.0954
  176MOL0     H23753   4.322   0.718   1.520  0.2911 -0.4010 -0.9074
  176MOL0     H23754   4.267   0.604   1.698  1.5338  0.6919 -3.6107
  176MOL0     H23755   4.298   0.746   1.811  2.0700 -0.9963  3.2878
  176MOL0     H23756   4.555   0.636   1.806  0.2795 -0.7090  2.1546
  176MOL0     H23757   4.477   0.519   1.724  0.3503  0.4942 -0.2245
  176MOL0     H23758   4.377   0.440   2.130 -0.0529  1.4108  1.3374
  176MOL0     H23759   4.681   0.967   1.615  0.0925  0.0423 -0.6934
  176MOL0     H23760   4.815   1.182   1.643  0.3288  2.1469 -1.0231
  177MOL0     O23761   8.930   0.476   5.684 -0.0629  0.0124 -0.2480
  177MOL0     C23762   8.962   0.357   5.684 -0.6382  0.3890 -0.2609
  177MOL0     O23763   9.057   0.296   5.760  0.6792  0.1986 -0.7128
  177MOL0     C23764   9.127   0.358   5.858 -0.7488  0.3585 -0.1033
  177MOL0     C23765   9.067   0.434   5.961  0.1229  0.3684  1.4279
  177MOL0     C23766   9.152   0.495   6.050 -0.2667 -0.7995  0.0184
  177MOL0     C23767   9.293   0.477   6.048  0.1906 -0.8735  0.0897
  177MOL0     O23768   9.374   0.547   6.142  0.1354  0.7874  0.0077
  177MOL0     C23769   9.517   0.527   6.145 -0.1919 -0.7149 -0.0668
  177MOL0     C23770   9.574   0.648   6.211 -0.3402  0.3014  0.3174
  177MOL0     C23771   9.613   0.738   6.094  0.2022 -0.2464  0.0185
  177MOL0     C23772   9.672   0.877   6.127 -0.1520  0.2629 -0.0403
  177MOL0     C23773   9.565   0.966   6.192  0.2384 -0.6139 -0.2111
  177MOL0     C23774   9.628   1.104   6.222 -0.3536 -1.0185 -0.0293
  177MOL0     C23775   9.509   1.199   6.217 -0.1882 -0.7063 -0.4835
  177MOL0     C23776   9.483   1.239   6.072  1.4883 -0.9738 -0.8684
  177MOL0     N23777   9.362   1.322   6.075  0.0593  0.2469 -0.7373
  177MOL0     C23778   9.248   1.269   6.032  0.4982  0.9009  0.0939
  177MOL0     C23779   9.168   1.377   6.016 -0.2767  0.0852  0.4223
  177MOL0     C23780   9.031   1.381   5.947  0.2997  0.4629  0.2892
  177MOL0     C23781   8.928   1.402   6.056  0.9082  0.8926  0.1678
  177MOL0     C23782   8.936   1.544   6.125 -0.6187 -0.3155 -0.0745
  177MOL0     C23783   8.834   1.535   6.239  0.1359  0.1244  0.2395
  177MOL0     O23784   8.808   1.667   6.279  0.1052 -0.5757  0.3022
  177MOL0     C23785   8.726   1.751   6.198  0.0780  0.4897  0.5022
  177MOL0     C23786   8.671   1.703   6.078 -0.4080 -0.6124 -0.0750
  177MOL0     C23787   8.591   1.784   5.998 -0.4506 -0.0394 -0.4578
  177MOL0     C23788   8.539   1.726   5.860 -0.8481 -0.5523 -0.1277
  177MOL0     C23789   8.561   1.917   6.042 -0.6297  0.6687 -0.6705
  177MOL0     C23790   8.460   2.006   5.984  0.9292 -0.4305 -0.1606
  177MOL0     O23791   8.351   1.956   5.907  0.0662  0.1358  0.1836
  177MOL0     C23792   8.295   2.053   5.827  0.8627  0.7917 -0.3534
  177MOL0     C23793   8.222   2.161   5.883  0.5888 -0.1114 -0.1102
  177MOL0     C23794   8.169   2.266   5.809  0.2632 -0.7090 -0.1899
  177MOL0     C23795   8.178   2.259   5.663 -0.2930 -0.1890  0.9492
  177MOL0     O23796   8.121   2.341   5.573  0.4742  0.6291 -0.1933
  177MOL0     C23797   8.022   2.431   5.631 -0.4526 -0.1908  0.4488
  177MOL0     C23798   7.978   2.551   5.538 -0.8101  0.9130 -0.3257
  177MOL0     C23799   8.087   2.667   5.549 -0.0768  0.8093 -0.2307
  177MOL0     C23800   8.036   2.798   5.485  0.2722 -0.9039  0.8121
  177MOL0     C23801   8.155   2.896   5.472  0.0226 -0.0782  0.1426
  177MOL0     C23802   8.100   3.043   5.449  0.4045 -0.5558 -0.2636
  177MOL0     C23803   8.179   3.111   5.341 -0.1651 -1.3456 -0.0673
  177MOL0     C23804   8.326   3.150   5.384  0.5622 -0.4164  0.4939
  177MOL0    Cl23805   8.337   3.258   5.531  0.0280 -0.5605 -0.1866
  177MOL0     C23806   8.244   2.143   5.613 -0.5094  0.1881  0.1365
  177MOL0     C23807   8.309   2.048   5.691 -0.4744 -0.3473 -0.1613
  177MOL0     O23808   8.486   2.121   5.999 -0.0105 -0.0942  0.1737
  177MOL0     C23809   8.620   1.959   6.165 -1.1468 -0.2393  0.1915
  177MOL0     C23810   8.696   1.871   6.244 -0.2942  0.1050  0.0072
  177MOL0     N23811   9.237   1.491   6.065 -0.2815  0.1369 -0.3105
  177MOL0     N23812   9.355   1.451   6.100  0.9481  0.2706  0.2614
  177MOL0     C23813   9.346   0.393   5.955  0.5121 -0.1762 -0.7751
  177MOL0     C23814   9.264   0.330   5.860 -0.0258 -0.9563 -0.3984
  177MOL0     C23815   8.906   0.282   5.566 -0.1403  0.9870 -0.2834
  177MOL0     C23816   8.942   0.141   5.553 -0.0101 -0.1184  0.0485
  177MOL0     C23817   8.893   0.073   5.441  0.0091 -0.4336 -0.5684
  177MOL0     C23818   8.802   0.124   5.347 -0.0444  0.2484 -0.6341
  177MOL0     O23819   8.762   0.034   5.254  0.3180 -0.4069 -0.3752
  177MOL0     C23820   8.675   0.090   5.159 -0.2044 -0.3967 -0.1774
  177MOL0     C23821   8.648  -0.008   5.054  0.6998 -0.3509 -0.2148
  177MOL0     C23822   8.777  -0.031   4.977 -0.4066  0.6298  0.8109
  177MOL0     C23823   8.757  -0.038   4.822 -0.2049 -0.7243 -0.5829
  177MOL0     C23824   8.667  -0.140   4.786  0.5249  0.2703  0.9641
  177MOL0     C23825   8.601  -0.231   4.734  0.1543  0.4540  0.9732
  177MOL0     C23826   8.765   0.262   5.362 -0.6401  0.0334 -0.3268
  177MOL0     C23827   8.818   0.339   5.470  0.7190  0.5189  0.1809
  177MOL0     H23828   8.960   0.450   5.960 -0.5236 -2.9937  3.9425
  177MOL0     H23829   9.106   0.565   6.119  0.3675 -1.8844  1.5939
  177MOL0     H23830   9.543   0.432   6.192 -1.6405 -0.8393  0.5239
  177MOL0     H23831   9.555   0.521   6.042 -1.2909  2.5867 -0.7842
  177MOL0     H23832   9.500   0.708   6.264  0.8929  1.3009  0.9555
  177MOL0     H23833   9.660   0.624   6.274 -0.0209  2.2430  0.6855
  177MOL0     H23834   9.684   0.692   6.025  0.4789 -1.2485  0.9492
  177MOL0     H23835   9.518   0.766   6.047  0.2282  0.5966  0.4344
  177MOL0     H23836   9.755   0.856   6.195  1.5324 -0.1784 -2.1205
  177MOL0     H23837   9.706   0.931   6.038 -1.1132 -1.0045 -1.2208
  177MOL0     H23838   9.472   0.960   6.136 -0.0853 -2.4938  0.4500
  177MOL0     H23839   9.530   0.920   6.284 -5.1452  1.6798 -0.7421
  177MOL0     H23840   9.669   1.091   6.323 -2.2049 -0.5986  0.8176
  177MOL0     H23841   9.704   1.143   6.153  0.2601 -2.3994 -0.1761
  177MOL0     H23842   9.418   1.165   6.266 -0.0129  1.1745  1.2831
  177MOL0     H23843   9.547   1.290   6.265  2.4278 -2.7136  1.6113
  177MOL0     H23844   9.470   1.151   6.009 -1.2153 -0.7431 -0.7668
  177MOL0     H23845   9.573   1.295   6.043 -0.6962  3.0049 -0.7769
  177MOL0     H23846   9.230   1.162   6.026  1.2017  0.8226 -0.7310
  177MOL0     H23847   9.017   1.469   5.883 -1.2191 -0.2516 -0.4107
  177MOL0     H23848   9.020   1.288   5.891 -2.6868  1.8936 -1.7723
  177MOL0     H23849   8.943   1.314   6.120  0.0511 -1.6577 -2.8670
  177MOL0     H23850   8.828   1.393   6.013  0.8662 -0.7984  0.5573
  177MOL0     H23851   8.910   1.616   6.046 -0.9127  0.4049  0.6601
  177MOL0     H23852   9.028   1.551   6.182 -0.7521 -4.2666  0.8874
  177MOL0     H23853   8.877   1.491   6.330 -2.4661 -0.2953  1.3501
  177MOL0     H23854   8.748   1.474   6.209 -0.1440  0.4972  0.2782
  177MOL0     H23855   8.694   1.601   6.049  1.6089  0.3449 -2.1814
  177MOL0     H23856   8.547   1.798   5.778 -1.5897 -2.1007 -1.6386
  177MOL0     H23857   8.604   1.642   5.834  2.5276  1.9340 -0.4538
  177MOL0     H23858   8.434   1.696   5.858 -0.7402 -0.9225 -0.3276
  177MOL0     H23859   8.213   2.179   5.990  0.4343  2.1071 -0.4387
  177MOL0     H23860   8.123   2.350   5.861 -0.8395 -0.4457 -1.5505
  177MOL0     H23861   7.934   2.370   5.654 -0.1187 -1.3041 -1.0939
  177MOL0     H23862   8.038   2.485   5.725 -2.5293  2.9761 -0.8389
  177MOL0     H23863   7.961   2.525   5.433 -1.7901 -4.5913  0.9152
  177MOL0     H23864   7.888   2.599   5.578 -1.1487 -1.6886  2.4073
  177MOL0     H23865   8.177   2.640   5.493 -0.1162  0.4716 -0.1349
  177MOL0     H23866   8.124   2.676   5.652 -2.8703  1.1268  0.8160
  177MOL0     H23867   7.992   2.783   5.386  1.8752  1.7368 -0.4146
  177MOL0     H23868   7.956   2.834   5.550 -2.0138 -0.6437 -1.9365
  177MOL0     H23869   8.213   2.874   5.382 -2.5809 -1.3924 -1.3555
  177MOL0     H23870   8.208   2.902   5.567  2.7824  1.9101 -1.4039
  177MOL0     H23871   7.997   3.038   5.414  1.0682  0.0114 -2.4600
  177MOL0     H23872   8.102   3.105   5.538  0.1104 -3.4150  1.8708
  177MOL0     H23873   8.129   3.206   5.318  3.8645  0.6649 -1.5011
  177MOL0     H23874   8.178   3.053   5.248  0.3139  2.1269 -2.4505
  177MOL0     H23875   8.383   3.209   5.311  5.3971 -0.1442  4.0231
  177MOL0     H23876   8.376   3.058   5.413  0.9565 -0.1753  0.5750
  177MOL0     H23877   8.235   2.128   5.505 -0.0087  0.6915  0.0225
  177MOL0     H23878   8.355   1.960   5.648  1.4862  0.5969 -0.1100
  177MOL0     H23879   8.608   2.058   6.207 -0.0293  0.3754 -0.8819
  177MOL0     H23880   8.733   1.903   6.341 -1.7511  2.0024 -0.0089
  177MOL0     H23881   9.450   0.366   5.944  0.6278  0.3305 -0.9406
  177MOL0     H23882   9.304   0.276   5.774  2.7594  1.2373 -0.6204
  177MOL0     H23883   9.004   0.084   5.621 -2.1663 -0.4902  1.8095
  177MOL0     H23884   8.912  -0.034   5.437  0.9719 -0.3660  1.1870
  177MOL0     H23885   8.583   0.126   5.204  1.8972  1.3309  3.1147
  177MOL0     H23886   8.720   0.173   5.104 -0.6901  0.8313  1.2206
  177MOL0     H23887   8.574   0.030   4.983 -0.5748 -0.2623  1.1106
  177MOL0     H23888   8.603  -0.092   5.107 -0.1832  0.7911  0.9199
  177MOL0     H23889   8.814  -0.128   5.011 -4.7683 -1.2350  0.9165
  177MOL0     H23890   8.852   0.045   5.001 -0.4870 -0.0853  3.5415
  177MOL0     H23891   8.855  -0.058   4.777 -0.1282 -0.9144 -0.3334
  177MOL0     H23892   8.719   0.056   4.781 -0.1807 -0.4274  0.0573
  177MOL0     H23893   8.540  -0.304   4.686  1.2051 -0.2716  0.7115
  177MOL0     H23894   8.699   0.312   5.291 -2.0548 -0.7884  0.3603
  177MOL0     H23895   8.788   0.444   5.475 -1.4451  0.0135 -0.9288
  178MOL0     O23896   2.866   5.445   4.718  0.3284 -0.3732 -0.6366
  178MOL0     C23897   2.777   5.439   4.808 -0.1572  0.4151  0.0604
  178MOL0     O23898   2.787   5.490   4.928 -0.7290 -0.3472 -0.5583
  178MOL0     C23899   2.904   5.559   4.955  0.7239  0.4811 -0.7601
  178MOL0     C23900   2.890   5.691   5.010 -0.1885  0.0318 -0.4596
  178MOL0     C23901   3.006   5.764   5.028  0.2886  0.6328  0.3464
  178MOL0     C23902   3.122   5.707   5.023 -1.0780  0.0006 -0.2186
  178MOL0     O23903   3.239   5.776   5.058 -0.9792  0.1017 -0.5558
  178MOL0     C23904   3.233   5.855   5.177 -0.1872  0.2099 -0.3249
  178MOL0     C23905   3.381   5.881   5.228  0.3791 -0.2991 -0.4474
  178MOL0     C23906   3.464   5.956   5.124  0.1162  0.8161  0.4164
  178MOL0     C23907   3.598   5.904   5.086 -0.2084 -0.1548 -0.2344
  178MOL0     C23908   3.608   5.755   5.034  0.1657  0.0540  0.3146
  178MOL0     C23909   3.752   5.729   4.990  0.2659 -0.2254 -0.1492
  178MOL0     C23910   3.790   5.582   4.979 -0.7622 -0.5265  1.1686
  178MOL0     C23911   3.928   5.558   4.911  0.0545  0.6209  0.1171
  178MOL0     N23912   3.910   5.530   4.768 -0.0320 -0.4979  0.6690
  178MOL0     C23913   3.842   5.600   4.679  0.6843 -0.2136 -0.5548
  178MOL0     C23914   3.845   5.534   4.563  0.1210 -0.0824 -0.4069
  178MOL0     C23915   3.785   5.567   4.434 -0.0682  0.2183 -0.3167
  178MOL0     C23916   3.884   5.540   4.318 -0.8171  0.9080  0.0828
  178MOL0     C23917   3.831   5.578   4.176  0.2755 -0.4325  0.0017
  178MOL0     C23918   3.917   5.553   4.066 -0.3359  0.1014  0.0869
  178MOL0     O23919   3.854   5.599   3.939 -0.3410 -0.6485  0.1588
  178MOL0     C23920   3.754   5.527   3.874 -0.1716 -0.2923 -0.7383
  178MOL0     C23921   3.687   5.593   3.770 -0.5140  0.9231 -0.8694
  178MOL0     C23922   3.577   5.540   3.711 -0.5770  0.2332  1.0067
  178MOL0     C23923   3.492   5.616   3.611 -0.5391  0.4254  0.2662
  178MOL0     C23924   3.532   5.418   3.754  0.1578  1.1751  0.5906
  178MOL0     C23925   3.412   5.350   3.703  0.6189  0.5734  1.1428
  178MOL0     O23926   3.318   5.313   3.787 -0.0104  0.0637 -0.6343
  178MOL0     C23927   3.192   5.266   3.758 -0.2472 -0.8020  0.9784
  178MOL0     C23928   3.084   5.298   3.843  0.6901  0.0357  0.1630
  178MOL0     C23929   2.954   5.243   3.829 -0.0623  0.7200  0.0755
  178MOL0     C23930   2.930   5.165   3.713 -0.0207 -0.5205  0.1578
  178MOL0     O23931   2.808   5.107   3.687  0.3843 -0.7222  0.3797
  178MOL0     C23932   2.681   5.171   3.722 -0.4568 -0.1125  0.6134
  178MOL0     C23933   2.654   5.312   3.661 -0.0652  0.2572 -1.0505
  178MOL0     C23934   2.509   5.362   3.654  0.4698  0.5309  0.0299
  178MOL0     C23935   2.428   5.281   3.557  0.0587  0.4604 -0.4328
  178MOL0     C23936   2.278   5.308   3.579 -0.6136 -1.1000  0.3427
  178MOL0     C23937   2.240   5.463   3.561  0.3610  0.7897 -0.3427
  178MOL0     C23938   2.271   5.511   3.413  0.1026  0.4121 -0.0713
  178MOL0     C23939   2.182   5.442   3.306 -0.3801  0.2389  0.1872
  178MOL0    Cl23940   2.221   5.528   3.154  0.0713 -0.0752 -0.3353
  178MOL0     C23941   3.038   5.122   3.626  0.2787 -1.2665  0.1231
  178MOL0     C23942   3.169   5.174   3.657  0.7511 -1.0991 -0.1179
  178MOL0     O23943   3.410   5.327   3.576  0.7129 -0.4197  0.0407
  178MOL0     C23944   3.595   5.352   3.865 -0.9858 -0.2079  0.4714
  178MOL0     C23945   3.713   5.399   3.921  0.2780  0.6906  0.9054
  178MOL0     N23946   3.895   5.409   4.585 -0.1666 -0.5497 -0.3547
  178MOL0     N23947   3.943   5.413   4.711 -0.3941  0.3269  0.4155
  178MOL0     C23948   3.139   5.571   4.992 -0.8984  0.1445  0.8686
  178MOL0     C23949   3.025   5.494   4.957 -0.0746  0.1347  0.7379
  178MOL0     C23950   2.640   5.385   4.772 -0.3783 -0.1393  0.0466
  178MOL0     C23951   2.610   5.383   4.636 -0.4106  0.7524  0.2867
  178MOL0     C23952   2.494   5.324   4.589 -1.3985 -0.6999 -0.8980
  178MOL0     C23953   2.399   5.275   4.674 -0.1165 -0.4545  0.2876
  178MOL0     O23954   2.276   5.234   4.628 -0.0556  0.1144  0.7458
  178MOL0     C23955   2.285   5.136   4.522 -1.3276  0.5618  0.2046
  178MOL0     C23956   2.171   5.040   4.564  0.0426  0.4003 -0.5362
  178MOL0     C23957   2.095   4.987   4.441 -0.0111  0.4007 -0.3723
  178MOL0     C23958   2.008   5.091   4.366  0.1917 -0.2891 -0.2206
  178MOL0     C23959   1.881   5.119   4.426  0.0437 -0.2146 -0.0696
  178MOL0     C23960   1.785   5.126   4.502 -0.9044  0.2734 -0.2947
  178MOL0     C23961   2.421   5.277   4.818 -0.5107  0.3598  0.5610
  178MOL0     C23962   2.545   5.338   4.868  0.0403 -0.3593  0.4890
  178MOL0     H23963   2.790   5.729   5.030 -0.4755 -1.0933  0.3332
  178MOL0     H23964   2.991   5.861   5.074 -2.7327 -1.3980  4.3122
  178MOL0     H23965   3.192   5.956   5.168  0.8670  1.1018  3.1825
  178MOL0     H23966   3.171   5.804   5.252 -1.1147  0.5257 -0.8719
  178MOL0     H23967   3.378   5.949   5.313  0.8298 -0.0812 -0.6026
  178MOL0     H23968   3.429   5.785   5.253  0.9638 -0.0347 -0.5462
  178MOL0     H23969   3.410   5.957   5.028  2.7980  3.1958 -1.2379
  178MOL0     H23970   3.479   6.057   5.163  2.2322  0.7751 -0.1723
  178MOL0     H23971   3.619   5.972   5.004 -1.8085 -0.8901 -1.3004
  178MOL0     H23972   3.667   5.918   5.170  0.8187 -1.8117 -0.7403
  178MOL0     H23973   3.586   5.691   5.120  2.7939 -1.5619 -0.0933
  178MOL0     H23974   3.539   5.735   4.952  1.7749 -0.1165 -1.0623
  178MOL0     H23975   3.774   5.787   4.900 -2.9658 -0.2301 -1.0770
  178MOL0     H23976   3.806   5.769   5.076 -4.1087  1.3574  2.2089
  178MOL0     H23977   3.804   5.538   5.078 -0.9895  0.2503  1.5475
  178MOL0     H23978   3.720   5.516   4.928  1.0222 -1.7678  0.1879
  178MOL0     H23979   3.961   5.462   4.952 -2.5323 -0.3776  0.0529
  178MOL0     H23980   4.003   5.629   4.945  0.8243 -0.5703  1.0009
  178MOL0     H23981   3.795   5.695   4.703  0.8237 -0.8594  2.7356
  178MOL0     H23982   3.699   5.500   4.422  1.6006 -2.5613  1.9498
  178MOL0     H23983   3.757   5.672   4.423  0.1280  0.4341  1.0309
  178MOL0     H23984   3.904   5.432   4.321  1.6460  1.3376  0.8478
  178MOL0     H23985   3.975   5.595   4.343 -0.8457  1.7392 -1.4935
  178MOL0     H23986   3.805   5.684   4.175  0.1525 -0.4316  1.2591
  178MOL0     H23987   3.741   5.520   4.153 -0.7609  1.1633 -0.0657
  178MOL0     H23988   3.932   5.446   4.049  1.8238  0.7510 -2.9111
  178MOL0     H23989   4.017   5.597   4.075 -0.1517 -0.0304 -1.2252
  178MOL0     H23990   3.712   5.691   3.732 -0.4935  0.9738 -0.7267
  178MOL0     H23991   3.397   5.568   3.586 -0.9942  2.6372 -2.9096
  178MOL0     H23992   3.465   5.717   3.643 -0.9945  0.9244 -1.5433
  178MOL0     H23993   3.552   5.618   3.519 -2.1421 -1.8170 -0.9329
  178MOL0     H23994   3.103   5.351   3.936 -1.6070 -0.0436  0.7394
  178MOL0     H23995   2.879   5.232   3.907  1.0992 -0.0494  1.1132
  178MOL0     H23996   2.596   5.108   3.694 -0.9477 -0.4019  2.6066
  178MOL0     H23997   2.673   5.179   3.831 -1.6668 -1.5245  0.6645
  178MOL0     H23998   2.716   5.384   3.714  0.9772 -1.3718  0.0147
  178MOL0     H23999   2.687   5.309   3.557  2.0004 -0.6475 -0.4110
  178MOL0     H24000   2.516   5.460   3.606  0.5660  1.3467  1.6308
  178MOL0     H24001   2.457   5.359   3.750  0.5421  0.7713  0.0774
  178MOL0     H24002   2.455   5.303   3.453  1.6747 -2.7646 -0.8502
  178MOL0     H24003   2.444   5.173   3.565 -0.4728  0.4837  1.2901
  178MOL0     H24004   2.243   5.274   3.677 -2.6321  0.3166  0.1696
  178MOL0     H24005   2.223   5.246   3.507  0.6873 -0.8377 -0.9146
  178MOL0     H24006   2.133   5.485   3.573  0.1385  1.0365 -2.3825
  178MOL0     H24007   2.289   5.527   3.634 -0.3625 -1.1994  2.0452
  178MOL0     H24008   2.378   5.496   3.393  0.2370  0.4682  0.5774
  178MOL0     H24009   2.247   5.615   3.393  0.3548  0.6325  0.7461
  178MOL0     H24010   2.076   5.457   3.327 -0.2472 -0.3488  1.3756
  178MOL0     H24011   2.201   5.334   3.305  2.1028  0.5415  2.4737
  178MOL0     H24012   3.017   5.052   3.546 -1.5561 -1.1497  0.4368
  178MOL0     H24013   3.246   5.160   3.581 -0.3120  0.7360 -1.6197
  178MOL0     H24014   3.556   5.255   3.894 -0.2926 -0.6355  0.0243
  178MOL0     H24015   3.766   5.341   3.996  1.1336 -3.0054 -2.2113
  178MOL0     H24016   3.244   5.544   4.981 -0.8141  0.3930  1.0600
  178MOL0     H24017   3.047   5.395   4.919 -0.4612  0.5472 -0.5965
  178MOL0     H24018   2.682   5.423   4.566 -0.9444 -1.7031 -1.8095
  178MOL0     H24019   2.474   5.314   4.483  1.8461 -0.4846 -1.6542
  178MOL0     H24020   2.262   5.186   4.428  0.6507  0.4883 -0.3538
  178MOL0     H24021   2.384   5.089   4.520  0.1194  3.1943  2.7437
  178MOL0     H24022   2.105   5.091   4.635  2.3753 -1.6180  3.4773
  178MOL0     H24023   2.207   4.960   4.629 -0.2692  1.7360  1.3519
  178MOL0     H24024   2.044   4.899   4.482 -0.2481  1.5294  1.9330
  178MOL0     H24025   2.163   4.956   4.362  1.6276  0.3926  0.9842
  178MOL0     H24026   1.985   5.054   4.265 -1.6693 -0.8428  0.3805
  178MOL0     H24027   2.066   5.184   4.352 -0.2189  0.0913  0.5630
  178MOL0     H24028   1.699   5.136   4.565 -3.4363  0.5277 -3.5695
  178MOL0     H24029   2.344   5.243   4.886  0.8130  0.0234  1.9489
  178MOL0     H24030   2.581   5.348   4.971  2.0012 -2.7085  0.1242
  179MOL0     O24031   6.103   8.924   1.288  0.9135  0.5273 -0.4047
  179MOL0     C24032   6.086   8.850   1.185  0.5376  0.2346 -0.1846
  179MOL0     O24033   5.974   8.781   1.152  0.3695 -0.2124  0.5247
  179MOL0     C24034   5.860   8.797   1.224 -0.9062 -0.6997  0.3182
  179MOL0     C24035   5.848   8.723   1.343  1.3259  0.7211  0.1696
  179MOL0     C24036   5.731   8.723   1.415 -0.1862  0.0805 -0.4515
  179MOL0     C24037   5.629   8.813   1.378 -0.6723  0.1996  0.3898
  179MOL0     O24038   5.531   8.842   1.459  0.8519 -0.1773 -0.7272
  179MOL0     C24039   5.524   8.786   1.588 -0.0103 -0.1314  0.4490
  179MOL0     C24040   5.392   8.850   1.647  0.1968  0.0072 -0.5454
  179MOL0     C24041   5.384   8.807   1.795  0.4885  0.0079 -0.5864
  179MOL0     C24042   5.234   8.841   1.846  0.2570 -0.1907  0.3971
  179MOL0     C24043   5.208   8.989   1.891  0.0058 -0.0494  0.1251
  179MOL0     C24044   5.072   9.018   1.959 -0.1165  1.1319  0.8799
  179MOL0     C24045   5.029   9.164   1.978  0.3651  0.3776 -0.6864
  179MOL0     C24046   4.900   9.192   2.057 -0.2929 -0.5763 -0.2871
  179MOL0     N24047   4.909   9.151   2.198 -1.0614 -0.2974  0.3720
  179MOL0     C24048   5.000   9.191   2.286 -0.9710  0.4525  0.6601
  179MOL0     C24049   4.993   9.101   2.391 -0.0960  0.8491 -0.1910
  179MOL0     C24050   5.066   9.089   2.524  0.5309 -0.6955 -0.0638
  179MOL0     C24051   5.038   9.218   2.600 -0.6529 -0.2826  0.1486
  179MOL0     C24052   4.893   9.267   2.594 -0.2202  0.5302  0.0371
  179MOL0     C24053   4.874   9.399   2.651  0.2087  0.4544 -0.4931
  179MOL0     O24054   4.905   9.372   2.792 -0.0976 -0.0363  0.5181
  179MOL0     C24055   4.903   9.490   2.851  0.2016 -0.5581 -0.4317
  179MOL0     C24056   5.010   9.579   2.832 -0.0096  0.5853 -0.0928
  179MOL0     C24057   5.034   9.691   2.904 -0.1075 -0.3944  0.1911
  179MOL0     C24058   5.153   9.777   2.870 -0.8634 -0.2208  1.6041
  179MOL0     C24059   4.932   9.727   2.994  0.2473  0.5383  0.4596
  179MOL0     C24060   4.934   9.852   3.068 -0.3690  0.4411  1.2825
  179MOL0     O24061   4.819   9.885   3.142 -1.7324 -0.5872  0.8168
  179MOL0     C24062   4.824   9.995   3.218  0.5427  0.2306  0.2358
  179MOL0     C24063   4.829  10.125   3.163  0.2289 -0.3633  0.3462
  179MOL0     C24064   4.860  10.235   3.253  0.5412  0.2646  0.2449
  179MOL0     C24065   4.864  10.211   3.395  1.0777 -0.4146  0.0458
  179MOL0     O24066   4.862  10.323   3.476 -0.2754  0.4577 -0.0919
  179MOL0     C24067   4.893  10.320   3.620  0.7658  0.6607  0.9803
  179MOL0     C24068   4.946  10.451   3.666  0.0490  0.2048  0.3991
  179MOL0     C24069   5.098  10.450   3.690 -0.3078 -0.0850  0.1522
  179MOL0     C24070   5.139  10.564   3.784 -0.6190 -0.1000 -0.1712
  179MOL0     C24071   5.295  10.565   3.806 -0.0495 -0.3815 -0.4066
  179MOL0     C24072   5.320  10.662   3.926 -0.4508 -0.1481 -0.0977
  179MOL0     C24073   5.302  10.594   4.060  0.8841  0.3681 -0.9421
  179MOL0     C24074   5.356  10.691   4.171  0.4565  0.0647  0.2817
  179MOL0    Cl24075   5.360  10.623   4.330  0.0007  0.0455 -0.1698
  179MOL0     C24076   4.849  10.080   3.442  0.8202 -0.6868 -0.0311
  179MOL0     C24077   4.828   9.976   3.356  1.2321  0.3057  1.0610
  179MOL0     O24078   5.027   9.926   3.051 -0.4229 -0.0306 -0.4569
  179MOL0     C24079   4.823   9.644   3.011 -0.1227  0.3295  0.9282
  179MOL0     C24080   4.810   9.517   2.946 -0.4597  0.4285 -0.9254
  179MOL0     N24081   4.893   9.004   2.357  1.2642  0.4937  0.2882
  179MOL0     N24082   4.840   9.048   2.240 -0.0628  0.7837  0.1826
  179MOL0     C24083   5.639   8.875   1.255  0.2852  0.0331  0.2795
  179MOL0     C24084   5.754   8.874   1.178  0.1860  0.3028 -1.1696
  179MOL0     C24085   6.201   8.830   1.096  0.0360 -0.5211 -0.0522
  179MOL0     C24086   6.188   8.759   0.972  0.2322  0.0342 -0.2197
  179MOL0     C24087   6.301   8.735   0.893  0.8883 -0.3887  0.3496
  179MOL0     C24088   6.424   8.796   0.923  0.8032  0.0906 -0.8216
  179MOL0     O24089   6.534   8.800   0.849 -0.0365  0.0723 -0.7235
  179MOL0     C24090   6.531   8.753   0.718  0.2368  0.2017 -0.2425
  179MOL0     C24091   6.668   8.776   0.657  0.5519 -0.4761  0.2761
  179MOL0     C24092   6.707   8.923   0.655  0.1759  0.7357 -0.2233
  179MOL0     C24093   6.859   8.951   0.650 -0.0493 -0.2590  0.7142
  179MOL0     C24094   6.927   8.887   0.539 -0.1317  1.9208 -0.9729
  179MOL0     C24095   6.973   8.826   0.444  0.1936  0.2453 -0.7060
  179MOL0     C24096   6.441   8.865   1.044  1.3376  0.2298 -0.9911
  179MOL0     C24097   6.332   8.883   1.126 -0.2923 -0.7141  0.2701
  179MOL0     H24098   5.919   8.645   1.365 -1.5834 -3.4552 -3.4163
  179MOL0     H24099   5.728   8.667   1.508  1.2940 -0.1012 -0.4743
  179MOL0     H24100   5.518   8.677   1.595  1.0778 -0.1437  1.7158
  179MOL0     H24101   5.613   8.827   1.637  1.5922 -0.1996 -2.2215
  179MOL0     H24102   5.395   8.959   1.635  1.3598  0.0274 -0.1836
  179MOL0     H24103   5.307   8.820   1.584 -1.6496 -0.4173  1.9713
  179MOL0     H24104   5.391   8.697   1.795  1.6731  0.0668 -1.4273
  179MOL0     H24105   5.476   8.834   1.847  0.5985 -4.6927  2.2696
  179MOL0     H24106   5.161   8.810   1.771  1.9000 -0.3146 -1.2112
  179MOL0     H24107   5.221   8.780   1.936 -0.5718 -0.4405  0.1160
  179MOL0     H24108   5.288   9.021   1.958 -0.2119  0.5345  0.1100
  179MOL0     H24109   5.209   9.043   1.796  1.0129 -2.1249 -1.1267
  179MOL0     H24110   5.005   8.963   1.892  0.8259 -0.2924  1.0476
  179MOL0     H24111   5.071   8.966   2.055 -0.4603 -0.1319  0.2192
  179MOL0     H24112   5.106   9.223   2.027  1.0857 -0.4343 -0.8151
  179MOL0     H24113   5.011   9.208   1.879 -1.4400  2.0766  0.3307
  179MOL0     H24114   4.816   9.142   2.008 -0.4097 -3.2110  2.2965
  179MOL0     H24115   4.870   9.297   2.061 -2.6351 -1.2188  3.5549
  179MOL0     H24116   5.077   9.267   2.282 -0.3271 -0.1521 -3.4572
  179MOL0     H24117   5.036   8.998   2.577 -1.2883 -0.2260 -0.2127
  179MOL0     H24118   5.172   9.079   2.501  1.0807  2.1970  0.8318
  179MOL0     H24119   5.109   9.297   2.572  2.1822 -2.2837  1.2396
  179MOL0     H24120   5.063   9.197   2.705 -1.7337  0.3951  0.5572
  179MOL0     H24121   4.850   9.191   2.660  0.7882  0.3241  0.4808
  179MOL0     H24122   4.842   9.276   2.498 -1.1172  1.1191  0.5594
  179MOL0     H24123   4.777   9.447   2.638 -0.4849  0.1718  2.8306
  179MOL0     H24124   4.942   9.461   2.591  0.1157 -0.6075 -1.7213
  179MOL0     H24125   5.073   9.557   2.747 -2.4028  0.8589 -2.0277
  179MOL0     H24126   5.213   9.731   2.791 -1.7752  0.8211  0.2322
  179MOL0     H24127   5.119   9.868   2.820  2.4852  0.1902 -0.2023
  179MOL0     H24128   5.221   9.794   2.953 -0.0246 -0.2669  0.9358
  179MOL0     H24129   4.837  10.126   3.054  2.6259 -2.4649  0.4043
  179MOL0     H24130   4.886  10.328   3.204 -2.4231  0.7353 -0.6668
  179MOL0     H24131   4.804  10.285   3.673 -0.3489  0.4427 -0.9413
  179MOL0     H24132   4.969  10.242   3.633  0.4149  0.4497  1.8279
  179MOL0     H24133   4.908  10.518   3.589 -2.5299 -1.6044 -0.0313
  179MOL0     H24134   4.899  10.478   3.761  1.2889  2.8954  0.3255
  179MOL0     H24135   5.149  10.460   3.593 -5.4749 -2.4892 -3.2794
  179MOL0     H24136   5.132  10.358   3.739  1.5785  1.3781  1.7534
  179MOL0     H24137   5.100  10.655   3.737 -2.1822 -1.0124 -0.6885
  179MOL0     H24138   5.093  10.542   3.881  0.4131 -0.6468  0.2094
  179MOL0     H24139   5.354  10.594   3.719 -0.3038 -2.2702 -1.2411
  179MOL0     H24140   5.329  10.464   3.831  0.5451  0.3034  1.7894
  179MOL0     H24141   5.423  10.699   3.928  0.0105 -1.1157  4.7484
  179MOL0     H24142   5.255  10.750   3.920 -2.1341 -1.3979 -1.0094
  179MOL0     H24143   5.357  10.500   4.073 -2.3145 -1.4720  0.7456
  179MOL0     H24144   5.196  10.574   4.080  1.0127 -0.5920 -1.1666
  179MOL0     H24145   5.289  10.778   4.164 -0.6071 -0.6913  0.7405
  179MOL0     H24146   5.460  10.720   4.153  0.4911 -0.4332 -0.3371
  179MOL0     H24147   4.854  10.058   3.548 -0.4382  0.5525  0.3228
  179MOL0     H24148   4.812   9.876   3.394 -0.2490  0.2329  0.3444
  179MOL0     H24149   4.747   9.670   3.084 -0.5069  1.8015  0.0433
  179MOL0     H24150   4.732   9.443   2.962  1.6128 -1.3094  2.3052
  179MOL0     H24151   5.552   8.936   1.233  1.4673  1.5647 -0.4078
  179MOL0     H24152   5.759   8.922   1.080  1.8917  1.5216 -0.5344
  179MOL0     H24153   6.093   8.714   0.950 -0.5826  1.3009  0.5343
  179MOL0     H24154   6.300   8.671   0.805 -1.3744 -0.8693  0.6592
  179MOL0     H24155   6.514   8.645   0.712  0.0998  0.2206 -0.2105
  179MOL0     H24156   6.452   8.797   0.656  0.0750 -0.8637 -0.8190
  179MOL0     H24157   6.664   8.735   0.555  0.5206 -1.7553  0.7686
  179MOL0     H24158   6.735   8.711   0.714 -0.5253 -4.3160 -2.4276
  179MOL0     H24159   6.663   8.970   0.743 -0.6326  0.3659 -0.4153
  179MOL0     H24160   6.662   8.971   0.567 -0.9151 -2.0716 -1.3138
  179MOL0     H24161   6.911   8.927   0.744  1.2234  3.8397  1.2424
  179MOL0     H24162   6.863   9.059   0.631 -0.3081 -0.2089  0.9360
  179MOL0     H24163   7.012   8.766   0.364  0.1075 -1.0844  0.2163
  179MOL0     H24164   6.533   8.920   1.060  2.0295 -1.3879  0.9025
  179MOL0     H24165   6.361   8.944   1.210 -0.6823  2.1251 -1.5314
  180MOL0     O24166   2.594   5.581   6.068 -0.1364  0.1417 -0.8737
  180MOL0     C24167   2.659   5.678   6.100  0.2066 -0.4680  0.0193
  180MOL0     O24168   2.621   5.806   6.067 -0.4105 -0.0648 -0.9882
  180MOL0     C24169   2.492   5.826   6.031 -0.0213 -0.5132  0.1206
  180MOL0     C24170   2.400   5.854   6.135  0.0190 -0.2181  0.1232
  180MOL0     C24171   2.271   5.886   6.100  0.3940  0.3594  0.0441
  180MOL0     C24172   2.231   5.899   5.965  0.0733 -0.2577 -0.8376
  180MOL0     O24173   2.110   5.943   5.908  0.0268  0.4357 -0.9274
  180MOL0     C24174   2.034   6.016   6.005  0.4060  0.7151  0.3846
  180MOL0     C24175   1.911   6.085   5.933 -0.0971  0.0963  0.6870
  180MOL0     C24176   1.813   6.164   6.032  0.0221  0.5146  0.2182
  180MOL0     C24177   1.688   6.209   5.958 -0.7509  0.0659  0.6453
  180MOL0     C24178   1.600   6.288   6.059 -0.8761  0.4525  1.0426
  180MOL0     C24179   1.461   6.319   5.997  0.0979  0.3861 -0.5376
  180MOL0     C24180   1.387   6.423   6.084  0.7111  0.5074  0.0355
  180MOL0     C24181   1.238   6.446   6.055 -0.0599 -0.6596  0.0065
  180MOL0     N24182   1.231   6.559   5.953 -0.4103  0.7679  0.5706
  180MOL0     C24183   1.257   6.695   5.975  0.6823 -0.8130  0.1134
  180MOL0     C24184   1.233   6.750   5.856 -0.2946 -0.3930  0.4441
  180MOL0     C24185   1.240   6.898   5.838  0.5014 -0.2825  0.5646
  180MOL0     C24186   1.117   6.981   5.856 -0.2535 -0.7067 -1.1487
  180MOL0     C24187   1.151   7.126   5.873 -0.1759  0.1392  1.3789
  180MOL0     C24188   1.029   7.216   5.870 -0.0482 -0.8414 -0.4432
  180MOL0     O24189   1.055   7.352   5.839  1.1510  0.4813 -0.1875
  180MOL0     C24190   0.960   7.448   5.882  0.0396  0.3160 -0.7204
  180MOL0     C24191   1.005   7.572   5.902  0.2111  0.7402 -0.5815
  180MOL0     C24192   0.921   7.669   5.962  0.5944 -0.1730  0.4194
  180MOL0     C24193   0.989   7.795   5.995 -0.2177 -0.2229  0.3799
  180MOL0     C24194   0.780   7.642   5.984  0.3415 -0.1961 -0.8450
  180MOL0     C24195   0.671   7.739   6.017 -0.0867 -0.4703 -0.6050
  180MOL0     O24196   0.554   7.685   6.061 -0.3401 -0.9122 -0.4689
  180MOL0     C24197   0.451   7.775   6.065 -1.0720 -0.2374 -0.0129
  180MOL0     C24198   0.428   7.870   6.164  0.0152 -0.1146 -0.5549
  180MOL0     C24199   0.330   7.975   6.157 -0.0343  0.1367  0.7999
  180MOL0     C24200   0.243   7.975   6.041  0.0406  0.1103  0.0268
  180MOL0     O24201   0.141   8.067   6.045  0.3478  0.5275  0.3572
  180MOL0     C24202   0.020   8.039   5.973  0.1178 -0.5761  0.0302
  180MOL0     C24203  -0.058   7.913   6.015 -0.3143  0.8798  0.9012
  180MOL0     C24204  -0.072   7.901   6.163 -0.5695  0.3296 -0.8170
  180MOL0     C24205  -0.177   7.993   6.230  0.5062 -0.6845  0.4718
  180MOL0     C24206  -0.165   8.011   6.385  0.7945  0.1379  0.9396
  180MOL0     C24207  -0.047   8.101   6.431 -0.0746  0.5233  0.1212
  180MOL0     C24208  -0.081   8.244   6.400  0.1976  0.0913  0.7554
  180MOL0     C24209  -0.009   8.343   6.483  0.2982 -0.4853  0.2458
  180MOL0    Cl24210   0.171   8.315   6.472  0.0245 -0.2488 -0.7627
  180MOL0     C24211   0.256   7.877   5.941 -0.6248  0.5058  0.1531
  180MOL0     C24212   0.356   7.773   5.961 -0.2264  0.3680  0.6380
  180MOL0     O24213   0.693   7.854   6.005 -0.2921 -0.3042  0.5201
  180MOL0     C24214   0.740   7.510   5.961 -0.4625 -0.5596  0.1460
  180MOL0     C24215   0.830   7.416   5.907  0.2611 -0.4606  0.7247
  180MOL0     N24216   1.171   6.660   5.769 -0.3994 -0.0898  0.6417
  180MOL0     N24217   1.181   6.546   5.830  0.5643  0.3695  0.4832
  180MOL0     C24218   2.333   5.890   5.865 -0.6853 -1.2909 -0.2723
  180MOL0     C24219   2.465   5.855   5.899 -0.7254  0.1988 -0.1226
  180MOL0     C24220   2.777   5.659   6.183  0.8964  0.0672  0.1515
  180MOL0     C24221   2.839   5.770   6.245  0.2087  0.3061  0.6800
  180MOL0     C24222   2.953   5.760   6.323  1.0378  0.7890 -0.1353
  180MOL0     C24223   3.000   5.630   6.358 -0.2947  0.4607  0.4065
  180MOL0     O24224   3.112   5.615   6.442 -0.4182  0.4316  0.7229
  180MOL0     C24225   3.224   5.669   6.380  0.4303  0.1432  0.0910
  180MOL0     C24226   3.358   5.643   6.458 -0.0903  0.1612  0.0358
  180MOL0     C24227   3.353   5.726   6.584 -0.3089 -0.0671  1.1921
  180MOL0     C24228   3.486   5.785   6.620 -0.7077  0.1669  0.3913
  180MOL0     C24229   3.495   5.845   6.759  0.8844  0.6000  0.1883
  180MOL0     C24230   3.501   5.891   6.867  0.4741  0.4060 -0.8555
  180MOL0     C24231   2.922   5.523   6.322  0.0544  0.3221 -0.0402
  180MOL0     C24232   2.820   5.533   6.222 -0.1231 -0.0334 -0.5202
  180MOL0     H24233   2.430   5.827   6.236  2.3703 -1.4160 -0.8237
  180MOL0     H24234   2.200   5.902   6.180  0.6627  3.4101 -0.1939
  180MOL0     H24235   1.993   5.941   6.074  0.4929 -1.4995 -1.8378
  180MOL0     H24236   2.082   6.094   6.065 -1.4773  1.4668  1.0143
  180MOL0     H24237   1.951   6.145   5.851 -0.0622  0.9613  1.3125
  180MOL0     H24238   1.859   6.007   5.877 -1.2346  0.5348  1.1221
  180MOL0     H24239   1.779   6.100   6.113  2.5231 -1.2231  0.0279
  180MOL0     H24240   1.872   6.243   6.079  2.1041 -0.1492 -1.0829
  180MOL0     H24241   1.722   6.281   5.883 -1.9996  0.2722  0.2575
  180MOL0     H24242   1.651   6.113   5.922 -0.9929 -1.6658  4.9777
  180MOL0     H24243   1.579   6.228   6.147  2.8044 -2.0556  0.4089
  180MOL0     H24244   1.668   6.369   6.088  3.6214 -2.1756 -1.0715
  180MOL0     H24245   1.455   6.343   5.891 -2.5046  0.6446 -0.3989
  180MOL0     H24246   1.405   6.226   6.010 -0.9557  1.2403  1.6589
  180MOL0     H24247   1.391   6.393   6.189  1.1763  1.4143  0.2789
  180MOL0     H24248   1.452   6.511   6.086  1.0217  0.2591  1.2628
  180MOL0     H24249   1.189   6.477   6.148 -2.8755 -1.5118 -1.0704
  180MOL0     H24250   1.190   6.353   6.023 -1.0500 -0.6031  1.2689
  180MOL0     H24251   1.289   6.734   6.071 -1.1571 -0.9228  0.8101
  180MOL0     H24252   1.319   6.940   5.901 -1.1223  1.3394  1.5855
  180MOL0     H24253   1.275   6.908   5.735  1.0046  3.4542  0.9702
  180MOL0     H24254   1.055   6.942   5.937  2.0932 -4.3447 -0.8970
  180MOL0     H24255   1.060   6.973   5.763 -3.5581 -0.3357  0.6978
  180MOL0     H24256   1.220   7.151   5.792 -4.6473 -1.8018 -3.6168
  180MOL0     H24257   1.202   7.140   5.969  2.5665 -1.3488  0.2515
  180MOL0     H24258   0.978   7.224   5.967  2.3182  0.4076  0.7946
  180MOL0     H24259   0.958   7.179   5.795 -0.3515  1.9015 -1.6391
  180MOL0     H24260   1.102   7.610   5.871  0.3670  2.8730  2.1749
  180MOL0     H24261   0.965   7.866   5.915 -1.4423  0.7262  1.5537
  180MOL0     H24262   0.957   7.833   6.092 -0.0650  1.4208 -0.1844
  180MOL0     H24263   1.096   7.785   6.014 -0.2050  0.4290  0.6874
  180MOL0     H24264   0.494   7.855   6.248 -0.9357  0.9156  0.4047
  180MOL0     H24265   0.312   8.054   6.229  1.0978  2.6394 -1.4990
  180MOL0     H24266  -0.045   8.126   5.981  1.7414  0.6288  0.6855
  180MOL0     H24267   0.052   8.042   5.868  0.1093  0.2337  0.0476
  180MOL0     H24268  -0.162   7.913   5.979 -0.6419  2.6429  1.7243
  180MOL0     H24269  -0.009   7.829   5.965 -0.3843  0.2926  1.8016
  180MOL0     H24270   0.029   7.900   6.203 -0.7740  0.0447 -0.2964
  180MOL0     H24271  -0.112   7.800   6.181 -1.4390  0.9138  0.6764
  180MOL0     H24272  -0.170   8.090   6.180  0.5642 -0.3954  1.0310
  180MOL0     H24273  -0.279   7.969   6.199  0.7314  2.9803 -4.2520
  180MOL0     H24274  -0.152   7.918   6.441 -3.3500 -0.5682  1.0184
  180MOL0     H24275  -0.258   8.063   6.408  1.4792  3.1991 -2.3367
  180MOL0     H24276  -0.034   8.081   6.537  1.5749  2.8559  0.4187
  180MOL0     H24277   0.041   8.072   6.373 -0.3482  0.8313 -0.4640
  180MOL0     H24278  -0.184   8.267   6.430  0.0473  2.5893 -1.3485
  180MOL0     H24279  -0.069   8.272   6.295  3.2192  0.1213  1.0366
  180MOL0     H24280  -0.040   8.336   6.588 -1.3106  0.2953 -0.1485
  180MOL0     H24281  -0.027   8.445   6.447 -1.4614  1.0654  4.7025
  180MOL0     H24282   0.180   7.863   5.865  1.4695 -0.1802 -1.9187
  180MOL0     H24283   0.369   7.699   5.883 -1.7820  0.9725 -0.2327
  180MOL0     H24284   0.636   7.480   5.971 -0.6652  0.6535  2.4654
  180MOL0     H24285   0.784   7.321   5.882 -2.4896  1.4576 -2.3152
  180MOL0     H24286   2.310   5.911   5.761  1.1575  0.5635 -0.3520
  180MOL0     H24287   2.524   5.835   5.810 -0.2800 -1.0146  0.4198
  180MOL0     H24288   2.797   5.868   6.225 -2.7187 -1.3431 -2.2793
  180MOL0     H24289   2.996   5.851   6.364 -1.8574  2.3717 -0.2958
  180MOL0     H24290   3.239   5.617   6.285 -1.1069  0.4420 -0.3391
  180MOL0     H24291   3.214   5.776   6.358  0.3666 -0.0802 -1.0342
  180MOL0     H24292   3.443   5.669   6.394  0.1928 -0.7584  0.0243
  180MOL0     H24293   3.375   5.537   6.481  2.8892  0.6053  0.3679
  180MOL0     H24294   3.318   5.652   6.657 -2.0534  0.4919  0.9663
  180MOL0     H24295   3.269   5.795   6.579 -3.0815 -3.2764 -0.0077
  180MOL0     H24296   3.507   5.865   6.548 -0.7323 -4.2722 -5.2343
  180MOL0     H24297   3.567   5.713   6.606  1.7037  2.2183  2.6180
  180MOL0     H24298   3.494   5.917   6.970 -2.6052 -2.6527 -0.1260
  180MOL0     H24299   2.938   5.422   6.356 -1.6779  0.5941  1.7917
  180MOL0     H24300   2.777   5.437   6.194 -3.0332  1.1016 -0.2635
  181MOL0     O24301   4.834  11.097   6.697 -0.0594 -0.1392  0.0132
  181MOL0     C24302   4.879  11.151   6.595 -0.4529 -0.2659  0.0251
  181MOL0     O24303   4.810  11.169   6.486  0.1739 -0.2152 -0.4500
  181MOL0     C24304   4.678  11.125   6.473  0.3441  0.4770 -0.4215
  181MOL0     C24305   4.577  11.214   6.494  0.0512 -0.7580  0.2029
  181MOL0     C24306   4.438  11.183   6.494  1.2752 -0.1622 -0.4071
  181MOL0     C24307   4.405  11.057   6.433 -0.0224  0.5087 -0.6948
  181MOL0     O24308   4.273  11.025   6.400 -0.1990  0.2963 -0.0482
  181MOL0     C24309   4.212  10.914   6.472  0.3606 -0.5237  0.5389
  181MOL0     C24310   4.086  10.957   6.544 -0.3281  0.1285 -0.0886
  181MOL0     C24311   3.963  10.999   6.448  0.0849 -0.4996 -0.3046
  181MOL0     C24312   3.897  10.887   6.354 -0.6752  0.1565  0.1817
  181MOL0     C24313   3.815  10.948   6.239 -0.1604  0.7154 -0.4903
  181MOL0     C24314   3.718  10.847   6.170 -0.1289 -0.0130  0.2518
  181MOL0     C24315   3.643  10.911   6.049  0.1777 -0.4921 -0.1501
  181MOL0     C24316   3.575  10.802   5.970  0.0904  0.3720  0.0270
  181MOL0     N24317   3.458  10.746   6.039 -0.2458 -0.1965  0.4789
  181MOL0     C24318   3.357  10.833   6.085 -0.6357 -0.5992  0.4211
  181MOL0     C24319   3.249  10.752   6.100 -0.5778 -0.3395  0.6890
  181MOL0     C24320   3.120  10.789   6.172  0.2835 -0.7578 -0.4952
  181MOL0     C24321   2.991  10.731   6.126  0.0892  1.3267  0.1328
  181MOL0     C24322   2.961  10.592   6.172 -0.1559  0.6794 -0.5077
  181MOL0     C24323   2.844  10.523   6.125  0.2011 -0.7031  1.0365
  181MOL0     O24324   2.842  10.531   5.988  0.8255 -1.2069  0.0914
  181MOL0     C24325   2.729  10.504   5.918 -0.0133 -0.4451 -0.4298
  181MOL0     C24326   2.612  10.451   5.972  0.1140  0.6384 -0.0057
  181MOL0     C24327   2.493  10.426   5.884  0.7922 -0.3141 -0.0735
  181MOL0     C24328   2.355  10.384   5.945 -0.1237 -0.0987  0.2678
  181MOL0     C24329   2.512  10.453   5.742 -0.4443  1.2544  0.5545
  181MOL0     C24330   2.411  10.428   5.637 -0.5429 -0.4697 -0.8190
  181MOL0     O24331   2.450  10.418   5.508 -0.0482 -0.1149  0.7594
  181MOL0     C24332   2.377  10.382   5.401 -0.0858  0.0100  0.0286
  181MOL0     C24333   2.232  10.363   5.394  0.2158 -0.0655  0.2968
  181MOL0     C24334   2.164  10.332   5.281  0.4397  0.5754 -0.0737
  181MOL0     C24335   2.246  10.306   5.168 -0.2731 -0.6784  0.2788
  181MOL0     O24336   2.191  10.255   5.050  0.4694  0.2054 -0.3034
  181MOL0     C24337   2.066  10.179   5.059 -0.6443 -0.7201  0.5673
  181MOL0     C24338   2.026  10.135   4.919 -1.1493 -0.4042 -0.2562
  181MOL0     C24339   1.895  10.056   4.906 -0.4645 -0.0572 -1.1988
  181MOL0     C24340   1.890  10.003   4.759 -0.9654 -0.1302  0.6182
  181MOL0     C24341   1.775   9.919   4.710 -0.8796  0.9269 -0.4875
  181MOL0     C24342   1.633   9.959   4.746  0.6451 -0.1820 -0.3619
  181MOL0     C24343   1.588  10.095   4.690 -1.0908 -0.4952  0.4259
  181MOL0     C24344   1.572  10.112   4.539  0.2516 -0.7216 -0.2374
  181MOL0    Cl24345   1.445   9.996   4.489 -0.7135  0.4233 -0.1500
  181MOL0     C24346   2.382  10.335   5.169 -0.5036 -1.2687  0.0488
  181MOL0     C24347   2.449  10.363   5.287  0.5942  0.2968  0.1881
  181MOL0     O24348   2.300  10.436   5.680  0.2351 -0.4115  0.2858
  181MOL0     C24349   2.630  10.506   5.702 -0.1297  0.1926  0.2051
  181MOL0     C24350   2.742  10.530   5.786  0.0825 -0.6965 -0.8368
  181MOL0     N24351   3.297  10.622   6.080  0.2467 -0.5436 -0.2862
  181MOL0     N24352   3.419  10.616   6.044  0.1826  0.1083  0.2613
  181MOL0     C24353   4.506  10.966   6.393 -1.4661  0.6168  0.1036
  181MOL0     C24354   4.638  11.000   6.420 -0.8856  0.2397  0.0941
  181MOL0     C24355   5.030  11.169   6.586  0.2378 -0.7873  0.3812
  181MOL0     C24356   5.114  11.209   6.694  0.9178  0.0175  0.1044
  181MOL0     C24357   5.246  11.229   6.686  0.0803 -0.0348 -0.6976
  181MOL0     C24358   5.310  11.219   6.561 -0.0877 -0.0383  0.2890
  181MOL0     O24359   5.443  11.237   6.527  0.2626  0.1105 -0.5436
  181MOL0     C24360   5.547  11.281   6.623 -0.2439  0.2331 -0.0534
  181MOL0     C24361   5.530  11.419   6.669 -0.4084  0.0923  0.0404
  181MOL0     C24362   5.514  11.515   6.553  0.4637  0.7500 -0.1566
  181MOL0     C24363   5.527  11.657   6.586 -1.1820  1.0463 -0.6604
  181MOL0     C24364   5.555  11.730   6.458  0.0515  0.8274 -0.3589
  181MOL0     C24365   5.585  11.788   6.357 -0.4145  0.3304 -0.4927
  181MOL0     C24366   5.223  11.185   6.451 -0.6923 -0.3336 -0.1940
  181MOL0     C24367   5.088  11.173   6.461 -0.4320  0.0666 -0.0129
  181MOL0     H24368   4.611  11.315   6.513  2.0061 -1.5383  1.1281
  181MOL0     H24369   4.363  11.259   6.515  1.5754  0.1484 -0.4548
  181MOL0     H24370   4.189  10.835   6.400 -0.5759  1.0855 -0.9854
  181MOL0     H24371   4.287  10.858   6.529  1.1899 -1.7289 -1.6090
  181MOL0     H24372   4.060  10.876   6.612 -1.4118  1.5107  1.2144
  181MOL0     H24373   4.112  11.046   6.601  4.2048 -0.8261 -0.2983
  181MOL0     H24374   3.890  11.032   6.523 -0.5222 -0.3576 -0.9448
  181MOL0     H24375   4.007  11.079   6.389 -1.7391 -0.4998 -1.7469
  181MOL0     H24376   3.967  10.817   6.308 -1.7727 -1.4489  0.8613
  181MOL0     H24377   3.830  10.833   6.420 -0.1742  0.1884  0.7223
  181MOL0     H24378   3.761  11.035   6.276  2.3984  1.5396  1.6659
  181MOL0     H24379   3.881  10.989   6.162 -0.5827  2.0196 -0.1862
  181MOL0     H24380   3.770  10.760   6.130  1.3710  2.7958 -4.7848
  181MOL0     H24381   3.641  10.826   6.245 -1.0619  1.1759 -0.3435
  181MOL0     H24382   3.573  10.987   6.085  2.6886  0.4173  3.4388
  181MOL0     H24383   3.720  10.956   5.986  2.1540 -2.5480  0.6877
  181MOL0     H24384   3.650  10.736   5.925  1.8189  2.6942 -0.7543
  181MOL0     H24385   3.536  10.848   5.879 -0.3925 -0.7269 -0.3260
  181MOL0     H24386   3.347  10.939   6.109 -3.7408  0.0976 -2.9494
  181MOL0     H24387   3.125  10.779   6.281 -4.2369  3.4120  0.4414
  181MOL0     H24388   3.115  10.896   6.150 -1.0881 -0.5353  0.7754
  181MOL0     H24389   2.992  10.727   6.016  0.3928  1.7281  0.1188
  181MOL0     H24390   2.903  10.791   6.151 -0.8065  0.4424 -0.7372
  181MOL0     H24391   2.964  10.589   6.281 -3.6705  1.1163 -0.2882
  181MOL0     H24392   3.040  10.524   6.139 -3.4876 -3.0485 -1.6810
  181MOL0     H24393   2.754  10.571   6.166 -1.1051 -1.3849 -0.8679
  181MOL0     H24394   2.853  10.419   6.158  1.0457 -0.2171  2.4310
  181MOL0     H24395   2.600  10.437   6.079 -1.8641  2.1968  0.0415
  181MOL0     H24396   2.359  10.354   6.050  0.0074  1.7949  0.8282
  181MOL0     H24397   2.298  10.477   5.941  1.3986  0.9484  1.3680
  181MOL0     H24398   2.318  10.301   5.884  1.1613 -0.5438  0.0457
  181MOL0     H24399   2.169  10.372   5.481 -0.0849 -0.3797  0.1168
  181MOL0     H24400   2.058  10.308   5.279  1.2661 -3.8625 -0.8187
  181MOL0     H24401   2.096  10.096   5.122  0.5733 -1.4382 -0.8904
  181MOL0     H24402   1.981  10.237   5.097 -1.9016 -1.0765 -1.5113
  181MOL0     H24403   2.021  10.223   4.854 -0.3095  2.2030  2.9298
  181MOL0     H24404   2.106  10.071   4.882  0.3665  1.6528 -0.7367
  181MOL0     H24405   1.825  10.135   4.932  0.0639 -0.2104  0.9253
  181MOL0     H24406   1.877   9.970   4.972 -2.3188  1.3108  0.1571
  181MOL0     H24407   1.884  10.093   4.697  0.2659  1.0004  2.0568
  181MOL0     H24408   1.977   9.941   4.733 -1.4873 -0.6010 -0.0182
  181MOL0     H24409   1.793   9.822   4.756  1.7055  2.2541  1.5656
  181MOL0     H24410   1.778   9.914   4.601 -1.8028  0.4655 -0.5066
  181MOL0     H24411   1.563   9.883   4.709  0.5797 -1.0721  1.4604
  181MOL0     H24412   1.626   9.965   4.855  0.3250  5.5268 -0.3917
  181MOL0     H24413   1.665  10.162   4.729  1.5702 -4.7418  3.4580
  181MOL0     H24414   1.495  10.120   4.741  0.4431  0.4609  2.9869
  181MOL0     H24415   1.664  10.086   4.486  0.0199 -0.9908 -0.5090
  181MOL0     H24416   1.548  10.213   4.504 -0.0239 -0.6362  0.1903
  181MOL0     H24417   2.441  10.315   5.080  1.0080  3.0320 -0.1654
  181MOL0     H24418   2.557  10.373   5.298  0.8092 -2.3399  1.0456
  181MOL0     H24419   2.644  10.539   5.599  2.0774 -0.3799  0.2887
  181MOL0     H24420   2.835  10.572   5.748  1.6053 -1.7951  1.4252
  181MOL0     H24421   4.478  10.868   6.355 -0.5076  0.7770 -1.0963
  181MOL0     H24422   4.720  10.935   6.392 -1.5855 -1.3591  1.5729
  181MOL0     H24423   5.060  11.208   6.788 -2.0935  1.1893 -1.4889
  181MOL0     H24424   5.303  11.257   6.774 -0.4358  0.0534 -0.3875
  181MOL0     H24425   5.543  11.218   6.713  0.2326  0.5360  0.1825
  181MOL0     H24426   5.644  11.267   6.576 -1.0422  0.4580 -1.8417
  181MOL0     H24427   5.623  11.444   6.721 -0.8783  0.3081  0.8060
  181MOL0     H24428   5.450  11.431   6.743  0.3553  0.5096  0.8180
  181MOL0     H24429   5.422  11.491   6.500  1.3440  1.3133 -2.0434
  181MOL0     H24430   5.598  11.497   6.485  0.2043  2.3242 -0.9408
  181MOL0     H24431   5.609  11.673   6.655 -0.8484  2.5253 -1.3632
  181MOL0     H24432   5.437  11.697   6.634 -1.4199  0.3471 -0.5111
  181MOL0     H24433   5.612  11.835   6.264 -0.0588  1.4264  0.1452
  181MOL0     H24434   5.268  11.174   6.352  2.0883 -0.6757  1.0168
  181MOL0     H24435   5.028  11.143   6.375  2.0436 -2.1606 -1.0895
  182MOL0     O24436  11.034   4.892   0.155 -0.7616  0.2574  0.3104
  182MOL0     C24437  11.128   4.888   0.074  0.2516 -0.0945  0.3802
  182MOL0     O24438  11.129   4.819  -0.046  0.5357 -0.2433 -1.5306
  182MOL0     C24439  11.019   4.734  -0.074 -1.1956  0.5525 -0.3395
  182MOL0     C24440  10.944   4.652   0.010  1.0711  0.6530  0.2876
  182MOL0     C24441  10.840   4.570  -0.031  0.2534 -0.4929  0.6276
  182MOL0     C24442  10.796   4.578  -0.164 -0.1816 -0.0293  0.1098
  182MOL0     O24443  10.684   4.507  -0.206  0.6388  0.1043  0.0167
  182MOL0     C24444  10.582   4.590  -0.254  0.6794 -0.9177  1.2973
  182MOL0     C24445  10.439   4.528  -0.238  0.1920 -0.2024 -0.0402
  182MOL0     C24446  10.327   4.603  -0.314 -0.0891 -0.2896  0.1699
  182MOL0     C24447  10.207   4.625  -0.214  0.4219 -0.6437 -0.4052
  182MOL0     C24448  10.102   4.524  -0.241 -1.6549 -0.2498 -0.5238
  182MOL0     C24449   9.981   4.535  -0.150 -0.3573  0.3977  1.0949
  182MOL0     C24450   9.889   4.411  -0.158 -0.2008  0.4337  0.7338
  182MOL0     C24451   9.766   4.404  -0.062  0.2517 -0.0686 -0.8704
  182MOL0     N24452   9.648   4.464  -0.130 -0.5222  0.9529 -0.2440
  182MOL0     C24453   9.578   4.570  -0.087  0.0965 -0.0064  1.0001
  182MOL0     C24454   9.475   4.589  -0.177  0.3543 -0.8569 -0.9357
  182MOL0     C24455   9.351   4.678  -0.188 -0.2886 -0.9480  0.5124
  182MOL0     C24456   9.349   4.755  -0.322  0.1648 -0.7606  0.5685
  182MOL0     C24457   9.216   4.847  -0.336 -0.2050 -0.3858 -0.7685
  182MOL0     C24458   9.179   4.878  -0.478  0.0828  0.8930 -0.2842
  182MOL0     O24459   9.270   4.977  -0.539 -0.1994  0.6157  0.1733
  182MOL0     C24460   9.346   4.944  -0.654  0.1416 -0.6244 -0.0596
  182MOL0     C24461   9.293   4.881  -0.763 -0.0721 -0.6304  0.2590
  182MOL0     C24462   9.366   4.833  -0.873 -0.7630  0.3823  0.1004
  182MOL0     C24463   9.301   4.754  -0.987  0.9093  0.8053 -0.1723
  182MOL0     C24464   9.507   4.851  -0.874 -0.2411  0.2213 -1.4248
  182MOL0     C24465   9.600   4.813  -0.983  0.0940 -0.0763  0.3501
  182MOL0     O24466   9.717   4.757  -0.953 -0.1175 -0.1660 -1.0063
  182MOL0     C24467   9.811   4.732  -1.044 -0.0652  0.5171 -0.5611
  182MOL0     C24468   9.861   4.830  -1.134 -0.0782  0.3225 -1.0523
  182MOL0     C24469   9.974   4.811  -1.212 -0.4907  0.8029 -0.1007
  182MOL0     C24470  10.048   4.695  -1.200 -0.1600 -0.1307  0.6457
  182MOL0     O24471  10.154   4.683  -1.287 -0.1257  0.3891 -0.8961
  182MOL0     C24472  10.223   4.554  -1.286 -0.0340 -0.8478  0.4922
  182MOL0     C24473  10.340   4.558  -1.385 -0.0452  0.8175 -0.0773
  182MOL0     C24474  10.462   4.458  -1.350  0.6242 -0.0960 -0.0970
  182MOL0     C24475  10.589   4.489  -1.426 -0.2539  0.1956 -0.0161
  182MOL0     C24476  10.722   4.448  -1.347 -0.2387 -0.0052  0.2657
  182MOL0     C24477  10.842   4.490  -1.434  0.0093  0.5405  0.3256
  182MOL0     C24478  10.969   4.450  -1.356  0.5227 -0.3400 -0.2741
  182MOL0     C24479  11.109   4.481  -1.424 -0.3048 -0.6226 -0.5837
  182MOL0    Cl24480  11.244   4.375  -1.360  0.1787 -0.1381  0.1997
  182MOL0     C24481   9.993   4.597  -1.121  0.0432 -0.0877 -0.2108
  182MOL0     C24482   9.878   4.616  -1.040  0.3195  0.9365  0.0259
  182MOL0     O24483   9.572   4.856  -1.089  0.8329  0.5200  0.4711
  182MOL0     C24484   9.559   4.920  -0.766  0.2017 -0.0751  0.1897
  182MOL0     C24485   9.483   4.965  -0.655  0.2919  0.1716  1.1236
  182MOL0     N24486   9.480   4.482  -0.262 -0.5938  0.6017  0.1889
  182MOL0     N24487   9.578   4.401  -0.226 -0.9825 -0.5772 -0.4987
  182MOL0     C24488  10.862   4.660  -0.255  0.9435 -0.3764 -0.0520
  182MOL0     C24489  10.975   4.740  -0.218  0.7559 -0.4009 -0.2880
  182MOL0     C24490  11.245   4.980   0.088  0.8001 -0.2348  0.3784
  182MOL0     C24491  11.320   5.004  -0.026  0.1727  0.3568  0.5277
  182MOL0     C24492  11.430   5.088  -0.025  0.4920  0.3734  0.2464
  182MOL0     C24493  11.462   5.151   0.094  1.4712  0.5737  0.0680
  182MOL0     O24494  11.576   5.218   0.098  0.5776  0.0111 -1.0378
  182MOL0     C24495  11.611   5.299   0.214  0.3807  0.7568  0.4975
  182MOL0     C24496  11.719   5.388   0.160 -0.0448  0.0751 -0.1707
  182MOL0     C24497  11.745   5.518   0.252 -0.9356  0.5431  0.6815
  182MOL0     C24498  11.860   5.614   0.204  0.0702 -0.0143 -0.0489
  182MOL0     C24499  11.831   5.701   0.093 -0.6660 -0.5865  0.4053
  182MOL0     C24500  11.830   5.774  -0.011  0.1245  0.1964 -0.3403
  182MOL0     C24501  11.383   5.134   0.207  0.7754 -0.7197 -0.3502
  182MOL0     C24502  11.271   5.050   0.203 -0.3264  0.2245 -1.2780
  182MOL0     H24503  10.966   4.655   0.116 -0.1783 -1.8963  0.6984
  182MOL0     H24504  10.798   4.500   0.041  1.4902 -1.4390  0.4612
  182MOL0     H24505  10.575   4.687  -0.205 -3.7526  2.1495 -4.1998
  182MOL0     H24506  10.581   4.615  -0.361  0.1007  2.5413  2.0039
  182MOL0     H24507  10.431   4.426  -0.276  4.0749 -1.6936  2.5648
  182MOL0     H24508  10.416   4.521  -0.131  1.4989  3.1271  0.6071
  182MOL0     H24509  10.363   4.703  -0.343 -0.0853 -0.4581 -0.4152
  182MOL0     H24510  10.304   4.544  -0.403  0.8335 -0.5040  0.0673
  182MOL0     H24511  10.239   4.623  -0.109  0.1448  0.7495 -0.2713
  182MOL0     H24512  10.145   4.713  -0.235  0.1419 -0.9478 -0.8633
  182MOL0     H24513  10.067   4.524  -0.345  0.1955 -2.7356 -1.2381
  182MOL0     H24514  10.152   4.429  -0.221 -3.3318 -0.8079  1.3640
  182MOL0     H24515  10.001   4.539  -0.043 -0.3209 -1.5188  1.1984
  182MOL0     H24516   9.930   4.627  -0.183  1.4018  0.4271 -1.9071
  182MOL0     H24517   9.858   4.412  -0.263  3.6893 -0.5357 -0.5884
  182MOL0     H24518   9.936   4.312  -0.152 -2.9287 -0.9557  0.6178
  182MOL0     H24519   9.787   4.448   0.036 -1.9661 -1.4827  0.3462
  182MOL0     H24520   9.736   4.300  -0.042 -0.7024  0.8872  4.3620
  182MOL0     H24521   9.607   4.613   0.008  0.2225  0.5706  0.7050
  182MOL0     H24522   9.265   4.612  -0.200 -1.3372  0.6511 -1.2600
  182MOL0     H24523   9.344   4.732  -0.093  0.5291 -1.3132  0.7963
  182MOL0     H24524   9.340   4.687  -0.407  0.9237 -1.9177  1.3842
  182MOL0     H24525   9.436   4.822  -0.333 -0.4801 -0.2206 -1.7465
  182MOL0     H24526   9.226   4.932  -0.268 -2.5138 -1.1840  0.6863
  182MOL0     H24527   9.127   4.797  -0.297 -2.3005  1.8659 -2.3616
  182MOL0     H24528   9.076   4.911  -0.487 -2.1076 -2.8634  5.3990
  182MOL0     H24529   9.174   4.782  -0.531 -1.6447  1.0534 -0.4558
  182MOL0     H24530   9.185   4.868  -0.765 -0.5326  2.3597 -0.7034
  182MOL0     H24531   9.221   4.691  -0.948 -0.0795  1.6808 -0.7315
  182MOL0     H24532   9.246   4.824  -1.051 -0.0676 -1.9800 -2.6119
  182MOL0     H24533   9.372   4.697  -1.048 -0.1794 -1.5867  0.6772
  182MOL0     H24534   9.810   4.922  -1.107 -1.5008 -1.0890  1.4044
  182MOL0     H24535  10.016   4.884  -1.280 -1.0675  0.0390 -1.3098
  182MOL0     H24536  10.260   4.532  -1.186 -2.5791 -2.2170  1.2390
  182MOL0     H24537  10.152   4.473  -1.306 -1.5358  0.4049  0.4634
  182MOL0     H24538  10.299   4.543  -1.486  1.8648  1.4935 -1.0068
  182MOL0     H24539  10.386   4.657  -1.393  0.6896  0.4322 -0.7773
  182MOL0     H24540  10.434   4.354  -1.371  0.1310  0.1250 -0.5565
  182MOL0     H24541  10.479   4.467  -1.242 -2.2062  0.5457  0.3690
  182MOL0     H24542  10.605   4.443  -1.524  0.3715 -0.0464  0.1987
  182MOL0     H24543  10.595   4.597  -1.443 -2.0923 -0.1164 -3.8228
  182MOL0     H24544  10.725   4.339  -1.333  0.1860 -0.1487 -0.7953
  182MOL0     H24545  10.705   4.486  -1.246 -1.6837 -1.7420  0.7442
  182MOL0     H24546  10.850   4.452  -1.536  0.6455  0.9199  0.2231
  182MOL0     H24547  10.842   4.598  -1.450 -3.2631  0.5719 -0.0100
  182MOL0     H24548  10.967   4.341  -1.347  2.7559 -0.3846  0.3886
  182MOL0     H24549  10.955   4.488  -1.255 -4.6889 -0.9412 -0.5211
  182MOL0     H24550  11.151   4.579  -1.403 -0.2927 -1.0870  1.8474
  182MOL0     H24551  11.110   4.470  -1.533 -1.2217 -2.0470 -0.4721
  182MOL0     H24552  10.039   4.499  -1.125  0.6932  0.1726  0.6392
  182MOL0     H24553   9.840   4.536  -0.978  0.1914  1.0931  0.1491
  182MOL0     H24554   9.654   4.970  -0.781  1.0451 -2.0408 -1.5749
  182MOL0     H24555   9.515   5.031  -0.576 -1.2481  2.2636  0.1041
  182MOL0     H24556  10.827   4.660  -0.358  0.3259 -0.5319  0.1550
  182MOL0     H24557  11.030   4.815  -0.273  0.6524  1.2210  1.6658
  182MOL0     H24558  11.296   4.938  -0.109  0.5718  0.6741  0.1527
  182MOL0     H24559  11.505   5.097  -0.104  0.9549  2.1471  0.8480
  182MOL0     H24560  11.523   5.357   0.243 -0.6570 -0.7578  0.5151
  182MOL0     H24561  11.645   5.246   0.304 -4.5291  0.6134  2.5626
  182MOL0     H24562  11.678   5.422   0.064  0.3927  0.0452 -0.3685
  182MOL0     H24563  11.807   5.326   0.143 -0.0075 -0.4690  1.7465
  182MOL0     H24564  11.772   5.486   0.353  1.6636  1.5249  0.3663
  182MOL0     H24565  11.651   5.575   0.247 -2.0831 -1.2352  0.9192
  182MOL0     H24566  11.939   5.543   0.177  0.7723  0.7008  0.0847
  182MOL0     H24567  11.891   5.669   0.294 -3.0325 -1.4070  2.0336
  182MOL0     H24568  11.827   5.837  -0.097 -0.6634  1.4831  0.5917
  182MOL0     H24569  11.389   5.187   0.301 -2.7306 -0.5232 -0.1170
  182MOL0     H24570  11.200   5.054   0.285 -2.2810 -2.2138 -2.7023
  183MOL0     O24571   6.103   3.378   4.894  0.1299  0.2378  0.8249
  183MOL0     C24572   6.152   3.416   4.788  0.4333  0.3391 -0.7969
  183MOL0     O24573   6.089   3.400   4.664 -0.8006  0.5068 -0.3935
  183MOL0     C24574   5.969   3.330   4.648  1.1560  0.2905  0.8493
  183MOL0     C24575   5.955   3.259   4.526 -0.6697  0.3757 -0.3720
  183MOL0     C24576   5.839   3.204   4.496  0.2978 -0.2025 -0.5554
  183MOL0     C24577   5.725   3.212   4.571 -0.0297  0.0539  0.4735
  183MOL0     O24578   5.606   3.161   4.520 -0.0728  0.0043  0.7769
  183MOL0     C24579   5.522   3.272   4.485  0.9306  0.3974  0.0373
  183MOL0     C24580   5.379   3.227   4.455  0.5916  1.0545 -0.1327
  183MOL0     C24581   5.303   3.153   4.567  0.0275 -0.2888 -0.7294
  183MOL0     C24582   5.200   3.055   4.506  0.3153 -0.0128  0.2166
  183MOL0     C24583   5.119   2.992   4.622  0.1252  0.4705 -0.1735
  183MOL0     C24584   5.062   2.847   4.586  0.9031 -0.4442 -0.8143
  183MOL0     C24585   4.975   2.854   4.452 -0.1781  0.2646  0.4683
  183MOL0     C24586   4.838   2.931   4.472  0.3023 -0.1153 -0.2191
  183MOL0     N24587   4.783   2.986   4.348 -0.1487  0.8832  0.6216
  183MOL0     C24588   4.856   3.013   4.234  0.1884 -0.4594  0.2613
  183MOL0     C24589   4.765   3.067   4.154  0.8451 -0.0184  0.0503
  183MOL0     C24590   4.788   3.110   4.011 -0.0561 -0.1104  0.4604
  183MOL0     C24591   4.904   3.212   4.009 -0.2037 -0.6120 -0.5568
  183MOL0     C24592   4.915   3.319   4.122  0.2130 -0.1022 -0.4189
  183MOL0     C24593   5.042   3.389   4.099 -0.9636  0.4563  0.0521
  183MOL0     O24594   5.151   3.302   4.115  0.0400 -0.4778 -0.8871
  183MOL0     C24595   5.277   3.355   4.101  0.5546  0.2509 -0.0519
  183MOL0     C24596   5.307   3.486   4.075 -0.1951  0.3327  0.2610
  183MOL0     C24597   5.434   3.528   4.047 -1.2725  0.0209 -0.2081
  183MOL0     C24598   5.455   3.670   4.007  0.7565 -0.5389 -0.1098
  183MOL0     C24599   5.540   3.437   4.043  0.1282 -0.6966 -0.6264
  183MOL0     C24600   5.683   3.481   4.019  0.3312 -0.0570 -0.5799
  183MOL0     O24601   5.775   3.418   4.091  0.1894 -0.6693  0.0708
  183MOL0     C24602   5.897   3.476   4.123 -0.7943  0.3223 -0.1017
  183MOL0     C24603   5.930   3.522   4.250  0.7517  0.4046  0.6270
  183MOL0     C24604   6.053   3.587   4.277  0.6974 -0.7145 -0.2561
  183MOL0     C24605   6.146   3.602   4.174  0.1587  0.0551 -0.2005
  183MOL0     O24606   6.261   3.674   4.191 -0.2848  0.5821 -0.5869
  183MOL0     C24607   6.330   3.734   4.086 -1.1444 -0.7319  0.1718
  183MOL0     C24608   6.421   3.844   4.148  0.2498 -0.9196 -0.2105
  183MOL0     C24609   6.535   3.780   4.241  0.2751 -0.3412  0.1158
  183MOL0     C24610   6.617   3.892   4.304 -0.5682  0.0329 -0.5820
  183MOL0     C24611   6.545   4.003   4.389  0.0116  0.3317  0.5337
  183MOL0     C24612   6.457   3.933   4.494 -0.1369  0.2970  0.1415
  183MOL0     C24613   6.377   4.030   4.584 -0.4023  0.5367 -0.2502
  183MOL0     C24614   6.307   3.956   4.699 -0.6240 -0.2953 -0.1604
  183MOL0    Cl24615   6.187   3.849   4.633 -0.1509  0.1612 -0.0848
  183MOL0     C24616   6.126   3.541   4.046  0.5859  0.4288 -0.8750
  183MOL0     C24617   6.002   3.478   4.027 -0.7702  0.8921  0.7674
  183MOL0     O24618   5.713   3.566   3.929 -0.8053 -0.3048 -0.7757
  183MOL0     C24619   5.517   3.302   4.086  0.4270 -0.3781  0.1079
  183MOL0     C24620   5.384   3.265   4.113  0.0955  0.1191 -0.9087
  183MOL0     N24621   4.642   3.087   4.219  0.1975 -0.8533  0.4456
  183MOL0     N24622   4.657   3.033   4.335 -0.4603  0.3513 -0.4017
  183MOL0     C24623   5.733   3.291   4.690 -0.5901 -0.9473  0.0240
  183MOL0     C24624   5.858   3.346   4.728 -0.5558 -0.4097  0.4913
  183MOL0     C24625   6.280   3.485   4.785 -0.6544  0.4914  0.1530
  183MOL0     C24626   6.347   3.497   4.656  0.7475 -0.2515  0.7237
  183MOL0     C24627   6.464   3.565   4.639  0.6795 -0.4293 -0.5503
  183MOL0     C24628   6.519   3.630   4.757  0.1074  0.5848  0.4539
  183MOL0     O24629   6.631   3.701   4.749  0.5934 -0.2732  0.3602
  183MOL0     C24630   6.728   3.671   4.651 -0.6992 -0.1705 -0.0412
  183MOL0     C24631   6.855   3.744   4.691 -0.0649  0.4162 -0.3589
  183MOL0     C24632   6.937   3.691   4.816  0.1722  0.6319  1.2870
  183MOL0     C24633   6.982   3.547   4.816  0.5196  0.5259 -0.4771
  183MOL0     C24634   7.102   3.511   4.740 -0.0114  0.5693 -0.3079
  183MOL0     C24635   7.199   3.496   4.672  0.5214  0.0608  0.6094
  183MOL0     C24636   6.455   3.620   4.879  0.4428 -0.0347 -0.8041
  183MOL0     C24637   6.340   3.544   4.898  0.1034  0.5255  1.0158
  183MOL0     H24638   6.033   3.246   4.452 -2.2750 -3.1569 -1.6343
  183MOL0     H24639   5.845   3.151   4.402  1.0207 -2.7390  0.8415
  183MOL0     H24640   5.523   3.352   4.559  1.9867 -0.1867  0.6699
  183MOL0     H24641   5.558   3.302   4.385  0.8553 -0.3003 -0.2054
  183MOL0     H24642   5.326   3.318   4.426  0.3488  1.1922  0.7009
  183MOL0     H24643   5.395   3.161   4.370 -0.0972  0.0593  0.4884
  183MOL0     H24644   5.371   3.098   4.634 -0.3643 -0.8854 -0.8100
  183MOL0     H24645   5.251   3.231   4.623 -2.1013  1.0242 -4.2394
  183MOL0     H24646   5.127   3.118   4.453 -1.0049 -2.3543 -0.9325
  183MOL0     H24647   5.253   2.978   4.448 -0.0514  1.4410 -2.1946
  183MOL0     H24648   5.181   2.985   4.711  1.3206  1.1762 -0.9278
  183MOL0     H24649   5.041   3.065   4.646  1.3734  1.8482 -0.1982
  183MOL0     H24650   5.137   2.768   4.580  1.3778  0.1176 -3.4829
  183MOL0     H24651   4.998   2.812   4.667  0.2909  2.2111 -0.0457
  183MOL0     H24652   5.035   2.895   4.371 -1.2292  0.2715 -0.3322
  183MOL0     H24653   4.948   2.754   4.415  2.5194 -0.2903 -0.1821
  183MOL0     H24654   4.862   3.012   4.543  0.2611  0.6894 -1.1054
  183MOL0     H24655   4.763   2.874   4.528  0.2740 -2.5684 -2.6100
  183MOL0     H24656   4.961   3.000   4.211 -0.5974 -1.9251 -3.0795
  183MOL0     H24657   4.825   3.031   3.945  1.9306  1.7560 -0.8238
  183MOL0     H24658   4.693   3.151   3.975 -0.4763  0.9879  2.6389
  183MOL0     H24659   4.919   3.249   3.907  2.1050  2.4270  0.7310
  183MOL0     H24660   4.990   3.146   4.028  1.5584  0.9115 -2.6515
  183MOL0     H24661   4.914   3.286   4.226 -2.1643  0.3383 -0.2433
  183MOL0     H24662   4.841   3.399   4.111  1.5469  1.5182  1.6584
  183MOL0     H24663   5.052   3.470   4.172  0.1166  2.1321 -1.8851
  183MOL0     H24664   5.046   3.430   3.998  0.6407 -2.8860 -1.4182
  183MOL0     H24665   5.225   3.556   4.062 -0.5682 -0.2918 -0.9526
  183MOL0     H24666   5.422   3.682   3.904 -0.6321  0.6808  0.4373
  183MOL0     H24667   5.400   3.736   4.076  0.6965 -2.1521  1.4531
  183MOL0     H24668   5.557   3.709   4.013 -0.3776  2.6030  0.7501
  183MOL0     H24669   5.854   3.512   4.327 -0.6904  0.9905 -0.6545
  183MOL0     H24670   6.071   3.637   4.371 -1.0063  3.2107 -1.7965
  183MOL0     H24671   6.374   3.652   4.028 -1.1834 -1.7248  1.4970
  183MOL0     H24672   6.270   3.801   4.023  0.5321 -0.5564 -1.3254
  183MOL0     H24673   6.474   3.903   4.073  1.7306 -3.9358 -1.7349
  183MOL0     H24674   6.355   3.908   4.207  0.5131 -1.3002  0.5075
  183MOL0     H24675   6.595   3.715   4.177 -2.2848 -2.6937 -0.0683
  183MOL0     H24676   6.501   3.717   4.324  1.4153 -0.8139  0.2308
  183MOL0     H24677   6.694   3.843   4.363 -0.1900  2.5470  1.1885
  183MOL0     H24678   6.671   3.951   4.229 -1.2228  0.6273 -0.6003
  183MOL0     H24679   6.494   4.084   4.337  1.9859  2.0048  1.0559
  183MOL0     H24680   6.621   4.055   4.448  0.2391 -0.6181  1.1115
  183MOL0     H24681   6.382   3.876   4.438 -0.4478  2.0817 -1.3827
  183MOL0     H24682   6.510   3.864   4.559 -2.9665 -0.5065  1.7614
  183MOL0     H24683   6.315   4.084   4.512  0.1227  1.2664 -0.1741
  183MOL0     H24684   6.445   4.105   4.626  1.9639 -0.6925 -1.6776
  183MOL0     H24685   6.252   4.025   4.764 -1.7626 -1.3012 -0.0252
  183MOL0     H24686   6.386   3.901   4.749 -0.2443 -0.7346 -1.2156
  183MOL0     H24687   6.195   3.550   3.963 -0.5360 -0.2780 -1.9231
  183MOL0     H24688   5.988   3.435   3.929  4.5939  0.9977 -0.3758
  183MOL0     H24689   5.602   3.235   4.097 -0.5639 -2.0180 -1.6054
  183MOL0     H24690   5.356   3.170   4.157  1.6451 -0.2019 -0.5630
  183MOL0     H24691   5.646   3.304   4.754 -2.0236  0.0437 -2.0419
  183MOL0     H24692   5.875   3.399   4.821  0.8977  2.3281 -1.1846
  183MOL0     H24693   6.295   3.452   4.572  0.7533 -1.1029  1.1675
  183MOL0     H24694   6.514   3.563   4.542  0.4627 -2.8881 -0.6547
  183MOL0     H24695   6.754   3.566   4.633  1.3999  0.2026  0.5224
  183MOL0     H24696   6.696   3.716   4.557 -2.5932 -0.3728  0.4544
  183MOL0     H24697   6.825   3.846   4.718 -0.0648  1.0895 -2.6291
  183MOL0     H24698   6.915   3.751   4.600 -1.0526  0.3333 -1.0363
  183MOL0     H24699   6.875   3.693   4.907  0.7925 -0.5526  1.7526
  183MOL0     H24700   7.019   3.762   4.828  1.0058  0.3966 -1.9688
  183MOL0     H24701   6.909   3.470   4.788  1.0951 -0.3719  0.4259
  183MOL0     H24702   7.011   3.515   4.916  1.2274  1.1718 -0.4642
  183MOL0     H24703   7.276   3.467   4.603 -0.0112  0.1958 -0.0592
  183MOL0     H24704   6.502   3.664   4.966 -2.3010  3.1187 -0.7101
  183MOL0     H24705   6.304   3.543   5.000  1.6986  2.7024  1.6771
  184MOL0     O24706   2.882  10.401   5.109 -0.0330 -0.8092 -0.3361
  184MOL0     C24707   2.905  10.497   5.187  0.8732 -0.4325  0.3253
  184MOL0     O24708   2.857  10.626   5.162 -0.9675 -0.1827 -0.6541
  184MOL0     C24709   2.807  10.658   5.040  0.5373  0.2939 -1.4481
  184MOL0     C24710   2.690  10.729   5.040 -0.2180 -0.3940 -0.2607
  184MOL0     C24711   2.623  10.751   4.920  0.2002  1.1551  0.5703
  184MOL0     C24712   2.678  10.717   4.797  1.1444 -0.0032 -0.1684
  184MOL0     O24713   2.605  10.760   4.690 -0.3816  0.2683 -0.2729
  184MOL0     C24714   2.668  10.767   4.562 -0.5536 -0.8459  0.5970
  184MOL0     C24715   2.776  10.880   4.554 -0.4409  0.7395  0.1772
  184MOL0     C24716   2.733  11.020   4.523  0.7156 -0.6071 -0.4352
  184MOL0     C24717   2.734  11.046   4.366  1.0241  1.2376 -0.2111
  184MOL0     C24718   2.646  11.155   4.309  0.2926 -0.3214 -0.1896
  184MOL0     C24719   2.496  11.162   4.337  0.9830  0.5704 -0.3144
  184MOL0     C24720   2.441  11.274   4.260  0.6677  0.0124  0.4296
  184MOL0     C24721   2.303  11.323   4.304 -0.2297 -0.1195 -1.2240
  184MOL0     N24722   2.198  11.218   4.290 -0.8565  0.3914 -0.6765
  184MOL0     C24723   2.152  11.145   4.397  0.6694 -0.5331  0.3975
  184MOL0     C24724   2.050  11.080   4.345  0.3962 -0.4876 -0.1870
  184MOL0     C24725   1.970  10.976   4.423  0.4750  0.7575 -1.5849
  184MOL0     C24726   2.047  10.869   4.502 -0.6681  0.2110 -0.4383
  184MOL0     C24727   2.159  10.807   4.414 -0.5423  0.7313  0.5616
  184MOL0     C24728   2.256  10.695   4.471 -0.9396 -0.6958  0.3606
  184MOL0     O24729   2.193  10.558   4.475  0.4247 -0.2718  0.8470
  184MOL0     C24730   2.253  10.451   4.529 -1.2822  0.1311 -0.7927
  184MOL0     C24731   2.381  10.454   4.593 -0.0502 -0.0740 -0.1575
  184MOL0     C24732   2.435  10.351   4.670  0.1456 -0.2526 -0.4240
  184MOL0     C24733   2.566  10.376   4.731 -0.9473  0.3610 -0.1897
  184MOL0     C24734   2.356  10.231   4.696 -0.3252 -0.1963  0.1687
  184MOL0     C24735   2.401  10.111   4.777  0.6433  1.4352 -0.4059
  184MOL0     O24736   2.519  10.112   4.841  1.1894  0.4450 -0.2509
  184MOL0     C24737   2.567   9.986   4.873 -0.4997  0.5514 -0.1475
  184MOL0     C24738   2.554   9.948   5.013 -0.4477  0.3069  0.6727
  184MOL0     C24739   2.593   9.814   5.034 -0.1202 -0.5999  0.7845
  184MOL0     C24740   2.628   9.714   4.934 -0.8661  0.0844 -0.6547
  184MOL0     O24741   2.647   9.580   4.963 -0.5433 -0.1779  0.4330
  184MOL0     C24742   2.785   9.550   4.975  0.5428  0.1125 -0.8851
  184MOL0     C24743   2.820   9.409   4.933 -0.7641  0.0203 -0.9056
  184MOL0     C24744   2.971   9.394   4.943  0.2908 -0.5233  0.4725
  184MOL0     C24745   3.017   9.246   4.953  0.3583  0.9775  0.3347
  184MOL0     C24746   3.162   9.244   5.002  0.5540 -0.1317  0.1517
  184MOL0     C24747   3.260   9.280   4.892  0.5436  0.3153  0.4591
  184MOL0     C24748   3.407   9.272   4.936 -0.2009  0.8310  0.1515
  184MOL0     C24749   3.492   9.292   4.811  0.1310 -0.2466  0.3485
  184MOL0    Cl24750   3.664   9.256   4.846  0.2008 -0.3948  0.0088
  184MOL0     C24751   2.634   9.760   4.800  1.1066  0.5830 -0.4031
  184MOL0     C24752   2.599   9.892   4.768 -0.4092 -0.4051  0.1005
  184MOL0     O24753   2.327  10.011   4.775 -0.3929 -1.0736  0.3747
  184MOL0     C24754   2.223  10.227   4.637  0.5500  0.0048 -0.1639
  184MOL0     C24755   2.185  10.328   4.546  0.2188  1.2515  0.1952
  184MOL0     N24756   2.019  11.114   4.210 -0.2175  0.6779 -0.0012
  184MOL0     N24757   2.120  11.189   4.178  0.2789 -0.5396  0.6235
  184MOL0     C24758   2.806  10.656   4.799  0.0412 -0.8360  0.6699
  184MOL0     C24759   2.870  10.623   4.914 -0.2350 -0.0518 -0.3910
  184MOL0     C24760   2.976  10.476   5.309  0.0255 -0.5320 -0.9697
  184MOL0     C24761   3.022  10.349   5.349  1.3302 -0.6917 -0.4251
  184MOL0     C24762   3.084  10.329   5.466  0.4329 -0.1923 -1.0871
  184MOL0     C24763   3.107  10.428   5.555 -1.1714 -0.0602 -0.0893
  184MOL0     O24764   3.149  10.396   5.684  0.7472 -0.5063 -0.7228
  184MOL0     C24765   3.246  10.468   5.747 -0.2977  0.1062  0.4495
  184MOL0     C24766   3.324  10.353   5.816 -0.7049 -0.2032  0.6755
  184MOL0     C24767   3.451  10.318   5.737  0.7471  0.3742  0.1154
  184MOL0     C24768   3.526  10.198   5.790 -0.2738 -0.1745  0.0020
  184MOL0     C24769   3.619  10.146   5.695  0.3404 -0.2781  0.6512
  184MOL0     C24770   3.688  10.103   5.599  0.5105  0.2403 -0.1500
  184MOL0     C24771   3.075  10.560   5.522  0.0302  0.5417 -0.2413
  184MOL0     C24772   3.000  10.583   5.403  0.3874 -0.3448 -1.4767
  184MOL0     H24773   2.651  10.762   5.136 -0.3766  1.4687 -0.9302
  184MOL0     H24774   2.517  10.772   4.913 -1.2084 -2.9938  4.5559
  184MOL0     H24775   2.712  10.671   4.531 -1.0998 -0.5097 -1.3714
  184MOL0     H24776   2.594  10.793   4.486 -1.1641 -0.2191  1.3981
  184MOL0     H24777   2.825  10.888   4.652 -2.1214  1.8389  0.9765
  184MOL0     H24778   2.846  10.852   4.474  0.3566  2.9896  0.0362
  184MOL0     H24779   2.634  11.037   4.569  1.3671 -3.2121  2.2419
  184MOL0     H24780   2.792  11.091   4.583 -2.0553  0.0913  1.7258
  184MOL0     H24781   2.838  11.068   4.340  0.6818  0.7228 -2.2048
  184MOL0     H24782   2.708  10.950   4.322  0.0559  0.7139  1.4076
  184MOL0     H24783   2.684  11.241   4.365 -2.1838  0.5346  0.3055
  184MOL0     H24784   2.668  11.177   4.204  0.8563  3.4496  0.6029
  184MOL0     H24785   2.449  11.071   4.298  0.7118  1.0064 -1.0088
  184MOL0     H24786   2.474  11.169   4.444 -2.4190 -0.0157 -0.8576
  184MOL0     H24787   2.506  11.362   4.254 -0.1672  0.5535 -2.7803
  184MOL0     H24788   2.438  11.233   4.158  1.6128 -1.9895  1.1537
  184MOL0     H24789   2.280  11.419   4.256 -0.4636  1.5680  1.9768
  184MOL0     H24790   2.303  11.349   4.410 -0.1230  1.6367 -1.6249
  184MOL0     H24791   2.191  11.137   4.498  4.1993 -0.1672 -0.7802
  184MOL0     H24792   1.909  11.013   4.506 -1.4694 -3.6039 -0.8060
  184MOL0     H24793   1.909  10.933   4.342  0.1267 -0.8838 -0.5073
  184MOL0     H24794   1.972  10.793   4.526 -2.1906  0.8128 -2.9317
  184MOL0     H24795   2.085  10.909   4.597 -1.3224  1.2366 -0.5905
  184MOL0     H24796   2.230  10.884   4.381 -0.2960  0.6410  0.8728
  184MOL0     H24797   2.108  10.769   4.325  0.6554 -0.2170  0.2427
  184MOL0     H24798   2.286  10.726   4.571  0.1018 -0.4500 -0.0168
  184MOL0     H24799   2.345  10.701   4.408  2.1616 -0.1505  4.4342
  184MOL0     H24800   2.438  10.547   4.590 -0.1806  0.0411  0.6797
  184MOL0     H24801   2.589  10.481   4.713 -0.9107  0.4788  0.5460
  184MOL0     H24802   2.560  10.358   4.839 -0.6544 -2.3782 -0.5439
  184MOL0     H24803   2.647  10.327   4.676 -0.9721  1.5791 -1.3737
  184MOL0     H24804   2.532  10.021   5.090  1.8855  1.8301  0.0092
  184MOL0     H24805   2.619   9.795   5.137 -1.2967  0.3016  1.2695
  184MOL0     H24806   2.844   9.625   4.922  1.3296  1.5927  1.8920
  184MOL0     H24807   2.803   9.559   5.083  1.0818  0.2786 -0.9879
  184MOL0     H24808   2.764   9.345   5.002  0.0935  1.1539  0.8930
  184MOL0     H24809   2.775   9.383   4.837 -0.0075 -1.6293 -0.8600
  184MOL0     H24810   3.007   9.456   5.026 -0.3851  2.7565 -1.5120
  184MOL0     H24811   3.016   9.442   4.856 -0.4077  0.4148  0.6137
  184MOL0     H24812   2.946   9.190   5.016 -1.2735  1.7511 -0.7408
  184MOL0     H24813   3.013   9.195   4.856  1.9806  2.9163 -0.8146
  184MOL0     H24814   3.183   9.142   5.036  0.1307 -0.6023 -0.9611
  184MOL0     H24815   3.172   9.313   5.086 -1.2883 -3.0940  3.0513
  184MOL0     H24816   3.239   9.201   4.819  3.2075 -1.9388  1.9581
  184MOL0     H24817   3.240   9.380   4.852  1.1983 -0.2946 -1.4953
  184MOL0     H24818   3.425   9.170   4.972  1.4876  1.0484  0.0280
  184MOL0     H24819   3.426   9.348   5.013 -2.4051  0.9069  0.6857
  184MOL0     H24820   3.486   9.394   4.771  3.4613  1.0613  2.7598
  184MOL0     H24821   3.463   9.215   4.738 -1.1824 -3.2744  3.7346
  184MOL0     H24822   2.668   9.693   4.722  1.4394 -2.8129  2.4007
  184MOL0     H24823   2.607   9.914   4.662  0.6333 -1.9333 -0.1703
  184MOL0     H24824   2.151  10.146   4.645  1.7119 -0.9737  1.0195
  184MOL0     H24825   2.083  10.320   4.509 -0.0496  2.1129  0.7301
  184MOL0     H24826   2.880  10.645   4.721  1.8871  0.6379  2.1142
  184MOL0     H24827   2.969  10.579   4.912  0.0174  0.5333 -0.9140
  184MOL0     H24828   2.997  10.266   5.285  0.5067 -1.0157  0.2979
  184MOL0     H24829   3.099  10.228   5.503 -2.6905 -0.4132 -0.1101
  184MOL0     H24830   3.316  10.517   5.678  1.2104 -2.6523 -0.1034
  184MOL0     H24831   3.225  10.542   5.825  1.7337  1.0659  0.1533
  184MOL0     H24832   3.265  10.263   5.836 -2.1935  0.6852  0.4185
  184MOL0     H24833   3.356  10.386   5.915  3.3038 -1.5241  0.0236
  184MOL0     H24834   3.523  10.400   5.747 -0.7146  1.6135  0.7725
  184MOL0     H24835   3.432  10.306   5.630 -0.3160  2.2804  0.0454
  184MOL0     H24836   3.460  10.117   5.823 -0.1031 -0.5172 -0.4811
  184MOL0     H24837   3.592  10.234   5.869  2.7089  0.5394 -2.6313
  184MOL0     H24838   3.766  10.071   5.532  1.7073 -0.6152  1.5763
  184MOL0     H24839   3.097  10.637   5.596  1.6470 -0.2951  0.1857
  184MOL0     H24840   2.976  10.688   5.387  0.1533 -0.0619  0.5085
  185MOL0     O24841   6.373   7.150   9.992 -0.2861 -0.7973  0.3699
  185MOL0     C24842   6.396   7.229   9.900 -0.9906 -0.0288  0.7177
  185MOL0     O24843   6.315   7.268   9.801  0.5505  0.2026  0.2627
  185MOL0     C24844   6.187   7.209   9.815 -0.0017 -0.8437  0.0789
  185MOL0     C24845   6.158   7.101   9.737 -0.3774 -0.4012 -0.5243
  185MOL0     C24846   6.025   7.049   9.741 -0.5326  0.6050 -1.1541
  185MOL0     C24847   5.927   7.105   9.826  0.1273  0.3862  1.1897
  185MOL0     O24848   5.797   7.050   9.823  0.4474 -0.7613  0.3048
  185MOL0     C24849   5.747   6.940   9.750  0.1340 -0.3373  0.6321
  185MOL0     C24850   5.809   6.806   9.800 -0.3827 -0.9094  0.1688
  185MOL0     C24851   5.743   6.761   9.924  0.2833 -0.4343  0.0814
  185MOL0     C24852   5.809   6.642   9.996  0.3078 -0.4728  0.0231
  185MOL0     C24853   5.746   6.651  10.134  0.0652  0.3834 -0.1553
  185MOL0     C24854   5.804   6.539  10.237  0.5411 -0.3045 -0.2090
  185MOL0     C24855   5.787   6.576  10.385  0.1390  0.5899 -0.2117
  185MOL0     C24856   5.836   6.714  10.438 -0.5975 -0.0601  0.6080
  185MOL0     N24857   5.961   6.750  10.382 -0.9652  0.6851  0.7843
  185MOL0     C24858   5.989   6.868  10.311  0.0289  0.1717 -0.2202
  185MOL0     C24859   6.118   6.860  10.266  0.4561 -0.4494  0.1600
  185MOL0     C24860   6.181   6.970  10.190  0.2327  0.2425  0.0911
  185MOL0     C24861   6.220   7.088  10.275  0.5565 -0.2321  0.4639
  185MOL0     C24862   6.320   7.041  10.381  0.8929  0.2972  0.0376
  185MOL0     C24863   6.370   7.166  10.456  0.4414  0.7556  0.2366
  185MOL0     O24864   6.269   7.240  10.527  0.6696  0.3528  0.5655
  185MOL0     C24865   6.304   7.368  10.569 -0.5305 -0.2331  0.1473
  185MOL0     C24866   6.439   7.415  10.580  1.1563 -0.3626  0.6676
  185MOL0     C24867   6.467   7.541  10.631 -0.3142 -0.7497 -0.1136
  185MOL0     C24868   6.610   7.576  10.643 -0.2241 -0.1620  0.1473
  185MOL0     C24869   6.358   7.631  10.668  0.1992  0.2245  0.9017
  185MOL0     C24870   6.383   7.765  10.708  0.1542 -0.4076 -0.3175
  185MOL0     O24871   6.310   7.815  10.817 -1.1232  0.2001 -0.3701
  185MOL0     C24872   6.324   7.948  10.853  0.2732  0.7116  0.0178
  185MOL0     C24873   6.427   7.987  10.936 -0.1823  0.5315 -0.0318
  185MOL0     C24874   6.432   8.118  10.991 -0.3188 -0.9822  0.0516
  185MOL0     C24875   6.313   8.202  10.977 -0.8655  0.1654  0.7915
  185MOL0     O24876   6.313   8.319  11.048  0.1547 -0.0034  0.6039
  185MOL0     C24877   6.193   8.404  11.037  0.3306  0.0469  1.1684
  185MOL0     C24878   6.217   8.519  11.141  0.5956 -0.2845  0.6022
  185MOL0     C24879   6.129   8.637  11.106  0.1045  0.5664 -0.3941
  185MOL0     C24880   5.990   8.607  11.149  1.2387  0.0603 -0.1741
  185MOL0     C24881   5.895   8.726  11.112 -0.2350 -0.4635  0.4473
  185MOL0     C24882   5.754   8.719  11.161  0.0647 -0.5786 -0.3232
  185MOL0     C24883   5.658   8.819  11.089 -0.2621 -0.2373 -0.1726
  185MOL0     C24884   5.528   8.849  11.166 -0.5333  0.2706 -0.3946
  185MOL0    Cl24885   5.422   8.706  11.137  0.4418 -0.4147  0.8617
  185MOL0     C24886   6.204   8.149  10.895  0.5653 -0.7981  0.0188
  185MOL0     C24887   6.217   8.026  10.824  0.1833  0.2271 -0.3980
  185MOL0     O24888   6.464   7.832  10.640  0.9290  0.0911 -0.6450
  185MOL0     C24889   6.221   7.586  10.664 -0.0265 -0.3468 -0.3658
  185MOL0     C24890   6.202   7.453  10.615  0.5118 -0.1408  0.3964
  185MOL0     N24891   6.173   6.742  10.318  0.2060  0.2543 -0.0118
  185MOL0     N24892   6.075   6.676  10.376 -0.7441  0.4099 -0.5748
  185MOL0     C24893   5.957   7.217   9.901 -0.1522  0.2012 -0.3208
  185MOL0     C24894   6.092   7.270   9.895 -0.9591  0.6641 -0.0384
  185MOL0     C24895   6.535   7.277   9.891 -0.3301 -1.2181 -0.0465
  185MOL0     C24896   6.572   7.359   9.783 -0.8406  0.0493  0.1267
  185MOL0     C24897   6.699   7.401   9.760  0.9543 -0.1624  0.4165
  185MOL0     C24898   6.801   7.347   9.840  0.0036 -0.4598 -0.1384
  185MOL0     O24899   6.936   7.358   9.828  0.2255 -0.3906  0.3508
  185MOL0     C24900   6.977   7.394   9.691  0.4346  0.0699 -0.3002
  185MOL0     C24901   7.127   7.387   9.677 -1.0118  0.5925 -0.5040
  185MOL0     C24902   7.180   7.422   9.534 -0.9357 -0.3462 -0.6219
  185MOL0     C24903   7.330   7.474   9.545 -0.0695  0.0327  0.0794
  185MOL0     C24904   7.396   7.468   9.414 -0.2598 -0.0082 -0.7965
  185MOL0     C24905   7.455   7.455   9.301  0.7423 -0.1289 -0.4220
  185MOL0     C24906   6.760   7.266   9.947 -0.6718  0.1795 -0.8229
  185MOL0     C24907   6.636   7.232   9.982  0.3515  0.5752  0.1763
  185MOL0     H24908   6.239   7.048   9.689  1.1713 -0.1224  1.6076
  185MOL0     H24909   6.005   6.959   9.685  0.3027 -0.9271  0.8930
  185MOL0     H24910   5.638   6.938   9.755  0.1568 -3.2867  1.5210
  185MOL0     H24911   5.764   6.945   9.642  1.4299 -1.0874  0.7839
  185MOL0     H24912   5.797   6.735   9.717  0.5755 -2.1543  1.0511
  185MOL0     H24913   5.918   6.815   9.811 -0.5669  0.1898  1.2256
  185MOL0     H24914   5.746   6.856   9.978  1.9191 -0.7523  0.6285
  185MOL0     H24915   5.643   6.721   9.907  0.6153 -2.3825  2.1928
  185MOL0     H24916   5.787   6.549   9.941  0.0517 -1.9188  2.4146
  185MOL0     H24917   5.917   6.663   9.998 -0.2420  2.7275  1.8673
  185MOL0     H24918   5.772   6.749  10.175  3.1235 -0.4938  0.2609
  185MOL0     H24919   5.637   6.645  10.130  0.0484  1.0066 -0.8508
  185MOL0     H24920   5.774   6.436  10.219 -1.5071  0.2597 -0.2153
  185MOL0     H24921   5.913   6.536  10.228  0.7449 -0.2794  1.7855
  185MOL0     H24922   5.680   6.569  10.410  0.3132  0.1094  0.4231
  185MOL0     H24923   5.833   6.488  10.431 -1.1397 -2.4212 -4.1274
  185MOL0     H24924   5.849   6.712  10.546  0.9204 -0.2505  0.4474
  185MOL0     H24925   5.764   6.791  10.410  0.0363 -0.1798 -1.5038
  185MOL0     H24926   5.926   6.956  10.300  0.3795  0.4350 -0.1438
  185MOL0     H24927   6.270   6.928  10.143  0.5137  0.0939  0.7454
  185MOL0     H24928   6.116   6.993  10.105  0.9757 -3.5972 -1.7376
  185MOL0     H24929   6.131   7.132  10.321 -1.1074 -2.7878 -0.0973
  185MOL0     H24930   6.262   7.165  10.209 -4.5060  1.3946 -1.3601
  185MOL0     H24931   6.404   6.984  10.342  0.4354  0.4823 -1.2839
  185MOL0     H24932   6.269   6.966  10.442  0.7553 -2.2141 -2.8831
  185MOL0     H24933   6.423   7.229  10.384  1.1759 -0.0058  0.0961
  185MOL0     H24934   6.440   7.138  10.536 -0.6051 -1.4517  0.4565
  185MOL0     H24935   6.524   7.356  10.548  0.8132 -1.3854  1.5758
  185MOL0     H24936   6.638   7.564  10.748  0.3926 -1.4979 -0.1497
  185MOL0     H24937   6.662   7.495  10.591 -1.4804 -1.9719  1.5922
  185MOL0     H24938   6.641   7.672  10.601  1.6619 -1.3255 -1.2645
  185MOL0     H24939   6.495   7.907  10.964 -1.7251 -0.3828  1.2830
  185MOL0     H24940   6.524   8.155  11.035 -0.4394  0.1928 -0.6392
  185MOL0     H24941   6.181   8.449  10.938  3.7605 -4.4357 -1.6255
  185MOL0     H24942   6.096   8.353  11.040  0.8363 -1.0843 -0.4175
  185MOL0     H24943   6.199   8.483  11.243  0.3425  2.9905  1.8281
  185MOL0     H24944   6.324   8.541  11.141  0.5669 -0.1352  0.0962
  185MOL0     H24945   6.147   8.638  10.998  1.7196 -0.8065 -0.1934
  185MOL0     H24946   6.168   8.731  11.145 -2.4666  1.1181  1.0715
  185MOL0     H24947   5.955   8.520  11.094  1.1912  0.0992 -0.2047
  185MOL0     H24948   5.973   8.586  11.255  0.4401 -0.0257 -0.3138
  185MOL0     H24949   5.891   8.724  11.003 -0.0198  0.7625  0.4033
  185MOL0     H24950   5.934   8.824  11.141  1.1268 -1.3256  1.6755
  185MOL0     H24951   5.715   8.617  11.157  0.2107 -0.5832 -2.2208
  185MOL0     H24952   5.753   8.738  11.269 -0.9287  0.6616 -0.5249
  185MOL0     H24953   5.637   8.789  10.986  1.0610  0.5309 -0.6890
  185MOL0     H24954   5.715   8.909  11.064  0.7605 -1.4932 -2.7948
  185MOL0     H24955   5.479   8.942  11.135  1.4238  0.5367 -3.1039
  185MOL0     H24956   5.548   8.856  11.274  0.3542  3.1741 -0.6621
  185MOL0     H24957   6.109   8.201  10.893  0.4381 -0.9174  1.6509
  185MOL0     H24958   6.138   7.979  10.766 -1.9633  0.3457  2.2030
  185MOL0     H24959   6.140   7.656  10.682  0.4039  0.0432  0.0995
  185MOL0     H24960   6.098   7.427  10.597  0.5280  0.8384 -1.3354
  185MOL0     H24961   5.877   7.263   9.959 -0.1697 -0.6158  0.3264
  185MOL0     H24962   6.122   7.349   9.962  0.2828  0.4078 -0.2681
  185MOL0     H24963   6.491   7.408   9.730 -1.7951 -0.8261  0.7409
  185MOL0     H24964   6.721   7.471   9.680  1.0990  1.1554  1.5759
  185MOL0     H24965   6.938   7.323   9.617  0.9779 -1.3295  0.7031
  185MOL0     H24966   6.944   7.494   9.662 -0.1867 -0.4779 -1.5726
  185MOL0     H24967   7.166   7.291   9.711  1.1749  1.6905  0.3337
  185MOL0     H24968   7.165   7.453   9.755  0.1122 -1.5768  0.8759
  185MOL0     H24969   7.124   7.508   9.496  0.4899  0.6040 -0.6748
  185MOL0     H24970   7.162   7.331   9.477  1.4127 -2.9379  2.3751
  185MOL0     H24971   7.390   7.415   9.614 -0.1277  2.2494  2.2025
  185MOL0     H24972   7.322   7.574   9.591 -1.3258  0.2479 -0.5753
  185MOL0     H24973   7.506   7.436   9.209 -0.5562  0.7188 -1.3614
  185MOL0     H24974   6.836   7.219  10.008 -1.8040 -0.2029  0.3568
  185MOL0     H24975   6.606   7.172  10.067  1.1010  0.8453  0.6374
  186MOL0     O24976   1.594   3.524   4.441  0.1479  0.1760 -0.6093
  186MOL0     C24977   1.654   3.567   4.339 -0.0236 -0.1027 -0.8715
  186MOL0     O24978   1.592   3.591   4.216  0.4494 -0.3449 -1.0759
  186MOL0     C24979   1.453   3.568   4.207 -0.2668  0.1482 -0.2862
  186MOL0     C24980   1.393   3.481   4.115  0.0893  0.2547 -0.2464
  186MOL0     C24981   1.261   3.462   4.123 -0.8430  0.1447  0.3917
  186MOL0     C24982   1.174   3.521   4.223 -0.5283  0.2234  0.4891
  186MOL0     O24983   1.046   3.481   4.235 -0.2827  0.3646  0.0780
  186MOL0     C24984   0.968   3.514   4.354 -0.0614 -0.1226  0.9029
  186MOL0     C24985   0.824   3.504   4.317  0.7540  0.0552 -0.6039
  186MOL0     C24986   0.766   3.361   4.320 -0.0661  0.2508  0.6611
  186MOL0     C24987   0.626   3.371   4.249 -0.4734  0.0916 -0.4980
  186MOL0     C24988   0.532   3.255   4.280 -0.3981 -0.2341  0.6183
  186MOL0     C24989   0.392   3.284   4.228  0.0258  0.4060 -0.4906
  186MOL0     C24990   0.274   3.244   4.322  0.4137  0.1195 -0.6293
  186MOL0     C24991   0.150   3.314   4.266  0.0237 -0.1661 -1.1988
  186MOL0     N24992   0.023   3.300   4.335  0.8927 -0.1113  0.4896
  186MOL0     C24993  -0.075   3.211   4.306 -0.2825  0.5748 -0.0945
  186MOL0     C24994  -0.150   3.194   4.422  0.0843 -0.1314  0.4771
  186MOL0     C24995  -0.259   3.105   4.437 -1.0924  0.8751 -0.0154
  186MOL0     C24996  -0.363   3.144   4.337  0.0784 -0.3827  0.7902
  186MOL0     C24997  -0.451   3.032   4.278 -0.1689 -1.0025 -0.0404
  186MOL0     C24998  -0.549   2.962   4.369 -0.5199 -0.6636  0.5844
  186MOL0     O24999  -0.685   3.015   4.364 -0.8348  0.6095 -0.0618
  186MOL0     C25000  -0.769   2.959   4.274  0.1734 -0.1045  0.1358
  186MOL0     C25001  -0.904   2.993   4.295 -0.4620  0.2776 -0.0134
  186MOL0     C25002  -1.012   2.943   4.213  0.4199 -0.4750 -1.4435
  186MOL0     C25003  -1.154   2.998   4.227  0.3090  0.0231 -0.3844
  186MOL0     C25004  -0.968   2.863   4.101  0.8278  0.1258  1.0845
  186MOL0     C25005  -1.062   2.832   3.993 -0.0710 -0.6127 -0.0378
  186MOL0     O25006  -1.174   2.770   4.020 -0.4173 -0.1472 -0.3431
  186MOL0     C25007  -1.283   2.787   3.939 -0.6752  0.7253  0.7160
  186MOL0     C25008  -1.297   2.717   3.815  0.0394 -0.0622  0.9226
  186MOL0     C25009  -1.422   2.724   3.746 -0.3184 -0.2938  0.4461
  186MOL0     C25010  -1.519   2.815   3.790  0.2540  0.2979  0.5139
  186MOL0     O25011  -1.635   2.810   3.722  0.0750  0.1900 -0.4519
  186MOL0     C25012  -1.760   2.830   3.780  0.3168  0.4776  0.4178
  186MOL0     C25013  -1.856   2.743   3.703  0.3445  0.1936 -0.5006
  186MOL0     C25014  -1.846   2.601   3.751  0.1338  0.1712  0.0155
  186MOL0     C25015  -1.938   2.510   3.660 -0.1242  0.3938 -0.8347
  186MOL0     C25016  -2.090   2.551   3.649 -0.6351  0.7723 -0.4028
  186MOL0     C25017  -2.172   2.542   3.776 -0.0102  0.5544  0.3441
  186MOL0     C25018  -2.316   2.591   3.748 -0.7336 -0.0160 -0.4465
  186MOL0     C25019  -2.391   2.623   3.874 -0.6196  0.3864  0.2959
  186MOL0    Cl25020  -2.303   2.757   3.947 -0.3964 -0.4208  0.2569
  186MOL0     C25021  -1.493   2.890   3.902 -0.2167  0.1739 -0.3899
  186MOL0     C25022  -1.381   2.874   3.975 -0.4665 -0.5023 -0.4438
  186MOL0     O25023  -1.023   2.859   3.879  0.0884 -0.0097  0.2872
  186MOL0     C25024  -0.835   2.821   4.081  0.5755  0.3682  0.2955
  186MOL0     C25025  -0.739   2.878   4.163  0.7130 -0.8592  1.0190
  186MOL0     N25026  -0.104   3.281   4.513  0.1534 -0.2382  0.5814
  186MOL0     N25027  -0.001   3.354   4.457 -0.6828  0.3871 -0.1845
  186MOL0     C25028   1.231   3.602   4.311 -0.1836  0.0513 -0.6948
  186MOL0     C25029   1.373   3.638   4.295 -0.0382 -0.0930 -0.0752
  186MOL0     C25030   1.800   3.587   4.338 -0.2097  0.6463 -0.1532
  186MOL0     C25031   1.878   3.615   4.224  0.1655 -0.4327  0.1741
  186MOL0     C25032   2.014   3.631   4.233 -0.2424 -0.3367  0.2493
  186MOL0     C25033   2.080   3.626   4.351  0.5007 -0.6376  0.0529
  186MOL0     O25034   2.215   3.637   4.354  0.4316 -0.3748  0.5049
  186MOL0     C25035   2.288   3.670   4.471  0.1111  0.5533 -0.6180
  186MOL0     C25036   2.435   3.681   4.416  0.6871 -0.8371 -0.7579
  186MOL0     C25037   2.486   3.558   4.348 -0.5077 -0.3935  0.5035
  186MOL0     C25038   2.628   3.523   4.391  0.5416  0.4965 -0.1914
  186MOL0     C25039   2.719   3.636   4.401  0.9655 -0.0177  0.2733
  186MOL0     C25040   2.813   3.717   4.389  0.2838 -0.4148 -1.3333
  186MOL0     C25041   2.001   3.609   4.471 -0.4705 -0.2802  0.4606
  186MOL0     C25042   1.864   3.579   4.461  0.5258  0.1827 -0.7416
  186MOL0     H25043   1.461   3.422   4.054  3.4773  2.4951  1.0022
  186MOL0     H25044   1.207   3.403   4.050  0.3834 -2.1852  1.2438
  186MOL0     H25045   0.998   3.446   4.435  1.9244 -1.1104 -0.5612
  186MOL0     H25046   0.988   3.615   4.391  6.2984 -0.4742 -0.4493
  186MOL0     H25047   0.770   3.565   4.390  0.7150 -0.7502  0.0655
  186MOL0     H25048   0.807   3.549   4.219  0.8307 -1.1428 -1.1898
  186MOL0     H25049   0.826   3.282   4.275  1.8760  3.5549 -3.0513
  186MOL0     H25050   0.755   3.346   4.428 -2.7573  2.2642  0.7635
  186MOL0     H25051   0.580   3.467   4.275 -0.7706 -0.0189 -0.6134
  186MOL0     H25052   0.639   3.378   4.140 -0.0517 -2.1110 -0.6431
  186MOL0     H25053   0.574   3.169   4.227 -2.7500  0.8047 -3.2892
  186MOL0     H25054   0.526   3.231   4.387 -0.5586 -0.3054  0.5938
  186MOL0     H25055   0.387   3.392   4.214  1.3670  0.3642 -1.4710
  186MOL0     H25056   0.377   3.218   4.142  2.2409 -0.6532 -0.1344
  186MOL0     H25057   0.265   3.135   4.319 -1.0863  0.1316  1.3528
  186MOL0     H25058   0.284   3.275   4.426 -1.9858 -3.9616  1.0568
  186MOL0     H25059   0.131   3.285   4.162 -0.2286 -1.1087 -0.9056
  186MOL0     H25060   0.164   3.421   4.284 -1.9517  0.4097 -2.7039
  186MOL0     H25061  -0.082   3.153   4.215  0.5028  1.2852 -0.6231
  186MOL0     H25062  -0.222   3.003   4.417 -0.9688 -0.0544  4.0998
  186MOL0     H25063  -0.295   3.114   4.540  1.2787 -0.3328  0.9916
  186MOL0     H25064  -0.309   3.187   4.252  1.0225 -2.0965  0.4606
  186MOL0     H25065  -0.437   3.203   4.392  0.7438 -0.5283  1.8769
  186MOL0     H25066  -0.385   2.961   4.229  1.4286 -1.2626  2.3292
  186MOL0     H25067  -0.515   3.078   4.202  0.2913 -2.3176 -1.2563
  186MOL0     H25068  -0.519   2.974   4.473 -0.6798  1.1913  0.4611
  186MOL0     H25069  -0.545   2.855   4.349 -3.1506 -1.8973  5.3445
  186MOL0     H25070  -0.922   3.061   4.378  1.9900 -1.5730  2.2036
  186MOL0     H25071  -1.219   2.913   4.249 -2.0179  1.5084 -1.1427
  186MOL0     H25072  -1.174   3.072   4.304  2.3117 -0.7558  0.9623
  186MOL0     H25073  -1.189   3.043   4.133 -0.4303  0.3798  0.0573
  186MOL0     H25074  -1.212   2.654   3.789  2.3468  1.6786  3.6617
  186MOL0     H25075  -1.430   2.659   3.659  2.9951  0.6012 -0.6690
  186MOL0     H25076  -1.762   2.813   3.888  0.8187 -1.1604  0.1926
  186MOL0     H25077  -1.773   2.938   3.770 -0.3438  0.7064  3.0027
  186MOL0     H25078  -1.959   2.779   3.709 -0.9652 -3.2648  0.6406
  186MOL0     H25079  -1.825   2.743   3.598  1.9192 -2.5782 -0.1405
  186MOL0     H25080  -1.864   2.600   3.859 -0.6523 -0.8248 -0.1040
  186MOL0     H25081  -1.742   2.568   3.741  0.9242  1.9196  1.7506
  186MOL0     H25082  -1.893   2.517   3.561  2.3965  0.8270  0.2610
  186MOL0     H25083  -1.928   2.408   3.698 -0.1060  0.8440  0.4469
  186MOL0     H25084  -2.143   2.483   3.582 -1.7957  0.6604  0.5906
  186MOL0     H25085  -2.100   2.656   3.620  2.1439  1.9994  2.4881
  186MOL0     H25086  -2.169   2.437   3.805  2.2774  0.1918 -0.9562
  186MOL0     H25087  -2.117   2.591   3.857  0.5832  1.9937 -0.8677
  186MOL0     H25088  -2.373   2.516   3.693  0.2403 -0.6531 -0.6235
  186MOL0     H25089  -2.316   2.684   3.690 -1.7371  1.0969  1.2478
  186MOL0     H25090  -2.382   2.540   3.944  3.2738  0.9965  0.7218
  186MOL0     H25091  -2.497   2.646   3.863 -1.3012 -1.4237  2.4074
  186MOL0     H25092  -1.566   2.959   3.944  1.9467  0.5143  3.2702
  186MOL0     H25093  -1.374   2.919   4.074  1.3262 -1.0695 -0.2861
  186MOL0     H25094  -0.806   2.749   4.005 -3.1624 -2.6617  1.3743
  186MOL0     H25095  -0.636   2.845   4.157  0.5622 -1.1852  0.1724
  186MOL0     H25096   1.179   3.645   4.396  0.3861 -2.3213  0.9649
  186MOL0     H25097   1.419   3.711   4.361 -1.5333 -0.4458  1.4338
  186MOL0     H25098   1.837   3.617   4.123 -0.5231 -0.6200  0.4420
  186MOL0     H25099   2.080   3.641   4.147 -2.5505 -0.2392 -1.6049
  186MOL0     H25100   2.251   3.766   4.510  4.0816  0.8296  3.3528
  186MOL0     H25101   2.290   3.597   4.552  0.2292  2.4037  1.1444
  186MOL0     H25102   2.492   3.708   4.506  3.3376  0.9778 -2.8130
  186MOL0     H25103   2.444   3.766   4.348  2.3886 -0.3198  0.0519
  186MOL0     H25104   2.489   3.577   4.241  1.0797 -1.4623  0.3135
  186MOL0     H25105   2.439   3.466   4.385 -0.8303  0.8022  3.3347
  186MOL0     H25106   2.663   3.460   4.309  2.1541 -1.4539  1.8732
  186MOL0     H25107   2.623   3.468   4.486  1.2922 -2.4448 -1.7326
  186MOL0     H25108   2.901   3.776   4.379  0.5527  0.0385  2.3995
  186MOL0     H25109   2.051   3.599   4.567 -0.0182 -0.2091  0.2342
  186MOL0     H25110   1.801   3.551   4.545  0.7850 -2.3131 -1.2880
  187MOL0     O25111  10.916   2.542   8.942  0.3120  0.2074  0.3809
  187MOL0     C25112  11.020   2.476   8.949  0.5352  1.1629 -0.8802
  187MOL0     O25113  11.083   2.440   9.063 -0.5905  0.4238 -0.5341
  187MOL0     C25114  11.040   2.461   9.188  0.6298 -0.0260 -0.1406
  187MOL0     C25115  11.042   2.361   9.285  0.6025  0.2446 -0.9511
  187MOL0     C25116  10.993   2.396   9.408 -0.3145  0.6302 -0.5074
  187MOL0     C25117  10.941   2.527   9.447  0.1943  0.9323 -0.3288
  187MOL0     O25118  10.886   2.558   9.570  0.1010  0.6293  0.2027
  187MOL0     C25119  10.759   2.626   9.561  0.3657 -0.0852 -0.2862
  187MOL0     C25120  10.674   2.581   9.672 -0.1127 -0.6011 -1.8315
  187MOL0     C25121  10.545   2.674   9.682 -0.1772  0.0407 -0.4056
  187MOL0     C25122  10.449   2.623   9.783  0.3829  0.4487  0.1737
  187MOL0     C25123  10.305   2.661   9.738  0.0476 -0.2882  0.1474
  187MOL0     C25124  10.205   2.616   9.843 -0.5327 -0.2882 -0.5851
  187MOL0     C25125  10.060   2.627   9.799 -0.5935 -0.4841 -0.4645
  187MOL0     C25126   9.959   2.566   9.894  0.1157  1.0667  0.3128
  187MOL0     N25127   9.823   2.601   9.879 -0.9816 -0.7284  0.6387
  187MOL0     C25128   9.733   2.576   9.784 -0.1562  0.5331  0.1067
  187MOL0     C25129   9.626   2.643   9.820 -0.7250 -0.7633  0.7859
  187MOL0     C25130   9.501   2.620   9.733  0.6579  0.7127  0.2942
  187MOL0     C25131   9.393   2.579   9.834 -0.2388 -0.4642 -0.2324
  187MOL0     C25132   9.267   2.531   9.758 -0.2341  0.1596 -0.0690
  187MOL0     C25133   9.178   2.487   9.872 -1.0454 -0.6344 -0.0052
  187MOL0     O25134   9.051   2.467   9.814  0.6621 -0.2664 -0.8142
  187MOL0     C25135   8.950   2.470   9.907  0.5553  0.5026  0.3768
  187MOL0     C25136   8.950   2.482  10.049 -1.1895  0.2823  0.4947
  187MOL0     C25137   8.845   2.468  10.141  0.5219  0.3377 -0.0318
  187MOL0     C25138   8.869   2.472  10.295 -0.3707  0.8212 -0.3049
  187MOL0     C25139   8.717   2.435  10.081 -0.1871  0.6875  0.4292
  187MOL0     C25140   8.587   2.419  10.155  0.0474 -0.2724 -0.0192
  187MOL0     O25141   8.501   2.327  10.108  0.2190 -0.4779  0.1025
  187MOL0     C25142   8.403   2.275  10.193  0.1103 -0.7424 -0.0389
  187MOL0     C25143   8.276   2.342  10.190  0.3625 -0.4861  0.4199
  187MOL0     C25144   8.173   2.311  10.272 -0.7591 -0.6925 -0.1258
  187MOL0     C25145   8.197   2.208  10.372  0.2739  0.8745 -0.1947
  187MOL0     O25146   8.103   2.165  10.460 -0.0587 -0.3057 -0.0849
  187MOL0     C25147   8.042   2.272  10.541 -0.5878 -0.0925  0.3437
  187MOL0     C25148   8.121   2.307  10.661 -0.3510 -0.0452  0.0195
  187MOL0     C25149   8.155   2.189  10.755 -0.1019 -0.1862  0.4548
  187MOL0     C25150   8.278   2.224  10.831 -0.6509  0.1174  0.1282
  187MOL0     C25151   8.319   2.106  10.922 -0.3486 -0.2154  0.2415
  187MOL0     C25152   8.470   2.107  10.949  0.0064 -0.4656 -1.0128
  187MOL0     C25153   8.530   2.242  10.993 -0.0800  0.8560  0.1468
  187MOL0     C25154   8.671   2.223  11.050 -0.5935  0.1156 -0.9372
  187MOL0    Cl25155   8.690   2.148  11.207 -0.0913  0.1499 -0.7247
  187MOL0     C25156   8.313   2.133  10.363  0.2278 -0.1346  0.5081
  187MOL0     C25157   8.417   2.174  10.285 -0.6466  0.3392  1.4453
  187MOL0     O25158   8.576   2.468  10.269 -1.2411  0.7461  0.8108
  187MOL0     C25159   8.705   2.436   9.940 -0.0196  0.6089 -0.6790
  187MOL0     C25160   8.821   2.450   9.857  0.2984  0.0214 -0.4140
  187MOL0     N25161   9.651   2.710   9.939  0.0637 -0.5782 -0.3911
  187MOL0     N25162   9.774   2.689   9.962  0.4665  0.1139 -0.2114
  187MOL0     C25163  10.943   2.622   9.346 -0.1878  0.2723 -0.1416
  187MOL0     C25164  10.995   2.597   9.215  0.0378  0.7620 -0.9691
  187MOL0     C25165  11.081   2.427   8.826 -0.0630 -1.2405  0.3410
  187MOL0     C25166  11.195   2.342   8.809  0.9495  0.2805 -0.8908
  187MOL0     C25167  11.240   2.301   8.685  0.3702 -0.6191 -0.2745
  187MOL0     C25168  11.184   2.347   8.562 -0.5710  0.1309 -0.2910
  187MOL0     O25169  11.227   2.313   8.440 -0.8131  0.8054  0.2347
  187MOL0     C25170  11.352   2.364   8.402 -1.0116  0.0418 -0.1652
  187MOL0     C25171  11.350   2.510   8.357  1.2335 -0.7123  0.3263
  187MOL0     C25172  11.485   2.554   8.330 -1.3881 -0.3763 -0.3114
  187MOL0     C25173  11.502   2.704   8.293  0.6080  0.5062 -0.2890
  187MOL0     C25174  11.566   2.789   8.397 -0.0751  0.2638 -1.0676
  187MOL0     C25175  11.624   2.839   8.486 -0.1756 -0.2572 -0.7315
  187MOL0     C25176  11.075   2.434   8.575 -0.4167  0.7478 -0.2897
  187MOL0     C25177  11.022   2.458   8.699 -0.5613  0.3033  0.2876
  187MOL0     H25178  11.080   2.261   9.267  1.2485  0.3642 -0.3062
  187MOL0     H25179  10.994   2.315   9.480 -3.3398  1.3781  0.5074
  187MOL0     H25180  10.779   2.734   9.569  0.5390 -0.2370  1.9834
  187MOL0     H25181  10.698   2.615   9.471  0.4846 -0.2351 -0.3489
  187MOL0     H25182  10.648   2.477   9.649 -1.7504 -0.3577 -1.2247
  187MOL0     H25183  10.727   2.588   9.767  1.4322 -0.7566 -2.6449
  187MOL0     H25184  10.569   2.769   9.730 -3.1751 -0.7671  3.1434
  187MOL0     H25185  10.500   2.698   9.586 -0.5962 -0.5989 -0.3747
  187MOL0     H25186  10.464   2.515   9.793  0.2375 -0.1317 -4.0034
  187MOL0     H25187  10.478   2.665   9.880  0.4672 -2.0294  1.3041
  187MOL0     H25188  10.299   2.768   9.717  0.1589 -0.1547  0.7873
  187MOL0     H25189  10.287   2.601   9.648  3.4296 -0.6374 -0.4174
  187MOL0     H25190  10.219   2.511   9.866 -0.5127  0.0893  1.2516
  187MOL0     H25191  10.198   2.674   9.935  0.4296  0.4355 -0.9546
  187MOL0     H25192  10.030   2.732   9.789  1.2386  0.1447  0.2027
  187MOL0     H25193  10.038   2.582   9.702 -3.3268 -1.3854  0.4865
  187MOL0     H25194   9.995   2.570   9.997  0.7210 -0.8542  0.2025
  187MOL0     H25195   9.966   2.457   9.887  1.2586  1.2448 -2.2680
  187MOL0     H25196   9.736   2.504   9.703 -0.7090 -0.7861  1.2244
  187MOL0     H25197   9.467   2.711   9.683 -1.9664  0.7152  1.8934
  187MOL0     H25198   9.515   2.541   9.658 -2.0128  1.9537 -1.6753
  187MOL0     H25199   9.367   2.662   9.900  2.1386 -0.8375  1.3038
  187MOL0     H25200   9.428   2.502   9.904 -1.8275 -0.1090  1.0122
  187MOL0     H25201   9.281   2.459   9.676 -1.6725  1.4266 -1.5000
  187MOL0     H25202   9.222   2.619   9.711 -1.8418 -0.2494  0.6444
  187MOL0     H25203   9.185   2.565   9.948 -2.0248 -1.6492  1.1683
  187MOL0     H25204   9.214   2.405   9.934 -0.8172  0.5974  1.5762
  187MOL0     H25205   9.051   2.488  10.090 -1.1249 -1.3308  0.6479
  187MOL0     H25206   8.791   2.523  10.353 -0.7714  1.0239 -1.0112
  187MOL0     H25207   8.890   2.372  10.333 -0.5661  0.8577 -0.0917
  187MOL0     H25208   8.957   2.534  10.316  0.3957  2.2155 -6.0106
  187MOL0     H25209   8.275   2.425  10.120  2.2462 -0.0118  0.8979
  187MOL0     H25210   8.074   2.354  10.261  0.7375  2.5711 -2.2091
  187MOL0     H25211   8.032   2.362  10.479 -0.2766  0.3780  0.9709
  187MOL0     H25212   7.945   2.238  10.580 -0.4266 -2.5867 -1.2353
  187MOL0     H25213   8.212   2.351  10.621  0.1567 -1.3949 -0.3728
  187MOL0     H25214   8.071   2.383  10.721  0.6303  1.2935 -0.8224
  187MOL0     H25215   8.171   2.102  10.690 -3.4208 -0.3421 -0.3331
  187MOL0     H25216   8.061   2.186  10.810 -0.2936 -1.6026  0.1109
  187MOL0     H25217   8.358   2.230  10.757  0.5168 -1.2500  1.2138
  187MOL0     H25218   8.265   2.312  10.895  0.4758  2.2848 -2.4231
  187MOL0     H25219   8.297   2.007  10.880 -1.6526  0.2279 -0.1859
  187MOL0     H25220   8.265   2.111  11.017 -1.3082 -1.1083 -0.2286
  187MOL0     H25221   8.491   2.028  11.021 -0.7373 -0.4380 -0.7495
  187MOL0     H25222   8.519   2.077  10.856  1.4647 -2.1126  0.2223
  187MOL0     H25223   8.469   2.276  11.078  0.7639  1.4268  0.5454
  187MOL0     H25224   8.530   2.332  10.931  2.3975  1.9134  1.4991
  187MOL0     H25225   8.718   2.321  11.067  2.3881 -1.0720 -1.8133
  187MOL0     H25226   8.736   2.176  10.976  1.3159  0.3585  0.5328
  187MOL0     H25227   8.320   2.050  10.433 -0.2301 -2.2921 -1.8613
  187MOL0     H25228   8.512   2.122  10.281 -0.4131  0.7209  1.9985
  187MOL0     H25229   8.612   2.410   9.890 -0.2323 -0.9110  0.4425
  187MOL0     H25230   8.804   2.434   9.751 -3.5935  1.9472 -0.2847
  187MOL0     H25231  10.927   2.727   9.369 -3.6786 -0.2622  0.4172
  187MOL0     H25232  11.015   2.669   9.137  1.8439  0.0251 -1.2358
  187MOL0     H25233  11.250   2.306   8.895  1.8711 -1.8029 -2.2805
  187MOL0     H25234  11.331   2.242   8.682  0.8649  0.0243  1.3739
  187MOL0     H25235  11.435   2.364   8.473 -0.3465 -2.1799 -0.8456
  187MOL0     H25236  11.390   2.300   8.322  1.0799  0.5751  0.3419
  187MOL0     H25237  11.297   2.580   8.421 -0.7287 -0.0790 -1.8428
  187MOL0     H25238  11.312   2.530   8.256 -0.0710  1.4692  1.1938
  187MOL0     H25239  11.526   2.496   8.247  0.8457 -0.9728  1.1193
  187MOL0     H25240  11.558   2.539   8.410  1.9165  0.2645 -2.9889
  187MOL0     H25241  11.406   2.741   8.255  0.1566  0.1764  0.5275
  187MOL0     H25242  11.576   2.709   8.213 -0.3225  0.2149 -1.1975
  187MOL0     H25243  11.678   2.879   8.569 -3.0417 -1.8444  2.1266
  187MOL0     H25244  11.028   2.478   8.487  0.4773  1.2840 -0.5104
  187MOL0     H25245  10.934   2.522   8.699 -0.0684  1.1304 -2.5907
  188MOL0     O25246  10.638   6.431   3.092  0.0052  0.7947 -0.8156
  188MOL0     C25247  10.628   6.310   3.077  1.1231  0.1747  0.1081
  188MOL0     O25248  10.720   6.235   3.001  0.0894 -0.0563  0.2500
  188MOL0     C25249  10.813   6.307   2.928 -0.1171 -0.3172  0.2996
  188MOL0     C25250  10.927   6.355   2.998  0.6335 -0.7107 -0.8891
  188MOL0     C25251  11.013   6.439   2.934 -0.0660 -0.5570  0.9823
  188MOL0     C25252  11.007   6.472   2.799 -0.4637  0.3194  0.2142
  188MOL0     O25253  11.094   6.564   2.749 -0.1769 -0.1603 -0.3668
  188MOL0     C25254  11.144   6.540   2.622 -0.4014  0.4523 -0.0984
  188MOL0     C25255  11.286   6.508   2.629 -0.2386  0.9480 -0.1806
  188MOL0     C25256  11.362   6.510   2.496  0.2188  0.2337  0.3361
  188MOL0     C25257  11.512   6.532   2.508  0.7304  0.2360  0.1041
  188MOL0     C25258  11.589   6.416   2.580  1.2313 -0.6975 -0.1069
  188MOL0     C25259  11.578   6.268   2.546  0.1530 -0.8039  0.4186
  188MOL0     C25260  11.668   6.188   2.645  1.4191 -1.4435  0.7276
  188MOL0     C25261  11.614   6.051   2.682  0.4103  0.3476  0.0681
  188MOL0     N25262  11.706   5.974   2.758 -0.1831 -0.0996  0.1792
  188MOL0     C25263  11.691   5.950   2.894  0.1690  0.1435 -0.1552
  188MOL0     C25264  11.789   5.866   2.934 -0.7401  0.1025 -0.2609
  188MOL0     C25265  11.812   5.820   3.072 -0.0710  0.0933 -0.1359
  188MOL0     C25266  11.776   5.911   3.185  0.4174 -0.2796  0.6102
  188MOL0     C25267  11.657   5.889   3.270 -0.5937 -0.3245 -0.1146
  188MOL0     C25268  11.606   6.019   3.340 -0.3313  0.3113  0.1187
  188MOL0     O25269  11.499   5.989   3.434 -0.8550  0.0055  0.7167
  188MOL0     C25270  11.543   5.935   3.549  0.9183 -0.2740  0.1563
  188MOL0     C25271  11.444   5.898   3.634  0.4753 -0.3635 -0.5038
  188MOL0     C25272  11.464   5.824   3.746 -0.1209  0.1832 -0.9668
  188MOL0     C25273  11.344   5.774   3.812  0.0722  0.2911 -0.5045
  188MOL0     C25274  11.602   5.804   3.795  0.1528 -0.7300  0.7335
  188MOL0     C25275  11.635   5.717   3.910 -0.5178 -0.4765 -0.5876
  188MOL0     O25276  11.771   5.697   3.928  0.0556  0.5113 -0.2223
  188MOL0     C25277  11.817   5.676   4.054  0.2269  0.5104 -0.3003
  188MOL0     C25278  11.790   5.563   4.127 -0.5697 -0.5478 -0.2378
  188MOL0     C25279  11.864   5.550   4.249  0.3476 -0.0205 -0.1915
  188MOL0     C25280  11.945   5.652   4.300 -0.5734  0.0004 -0.6122
  188MOL0     O25281  12.036   5.644   4.403  0.5747 -0.5923  0.8409
  188MOL0     C25282  12.068   5.515   4.469  0.0713 -0.4295  0.4779
  188MOL0     C25283  12.178   5.521   4.570  0.1959  0.5383  0.1393
  188MOL0     C25284  12.208   5.378   4.639 -0.1401 -0.7490  0.1401
  188MOL0     C25285  12.096   5.331   4.732  0.8776 -0.1294  0.3122
  188MOL0     C25286  12.136   5.239   4.838  0.0831 -0.3262  0.5641
  188MOL0     C25287  12.030   5.168   4.913  0.6886 -1.2005  0.4298
  188MOL0     C25288  11.919   5.254   4.983 -0.0168 -0.8344 -0.7934
  188MOL0     C25289  11.809   5.171   5.050  0.4167  0.0647 -0.8497
  188MOL0    Cl25290  11.700   5.273   5.143  0.4091 -0.1848  0.0468
  188MOL0     C25291  11.954   5.777   4.235  0.6011  0.3333 -0.1976
  188MOL0     C25292  11.898   5.781   4.104  0.2647 -0.2258 -0.7182
  188MOL0     O25293  11.553   5.681   3.988  1.2505 -0.5218  0.9372
  188MOL0     C25294  11.708   5.849   3.714 -0.2177  0.6415  0.0458
  188MOL0     C25295  11.672   5.921   3.593 -0.6729 -0.0362  0.1163
  188MOL0     N25296  11.851   5.822   2.815 -0.3599 -0.0082 -0.4570
  188MOL0     N25297  11.801   5.885   2.713  0.5864 -0.7722  0.8220
  188MOL0     C25298  10.894   6.429   2.728  0.3553  1.2976  0.2295
  188MOL0     C25299  10.800   6.349   2.793  0.7817 -0.4512  0.3466
  188MOL0     C25300  10.504   6.257   3.124  0.3142  0.6309 -0.1576
  188MOL0     C25301  10.489   6.120   3.133 -0.9969 -0.1162 -0.1553
  188MOL0     C25302  10.377   6.056   3.173  0.2288 -0.1599 -0.4086
  188MOL0     C25303  10.277   6.133   3.226  0.2130 -0.0235  0.2555
  188MOL0     O25304  10.180   6.066   3.296  0.2882  0.2953 -0.5628
  188MOL0     C25305  10.130   5.936   3.258 -0.2516 -0.9325 -0.2629
  188MOL0     C25306   9.996   5.936   3.335  0.1259 -0.0790  0.5881
  188MOL0     C25307   9.997   5.972   3.486  0.3856  0.4520 -0.3842
  188MOL0     C25308   9.871   5.927   3.553 -0.1243  0.3192 -0.0031
  188MOL0     C25309   9.853   5.965   3.698  0.8291 -0.1834  1.5250
  188MOL0     C25310   9.820   5.995   3.811 -0.0733  0.1354 -0.1159
  188MOL0     C25311  10.290   6.267   3.242  1.0707  0.4483 -0.5563
  188MOL0     C25312  10.401   6.333   3.175  0.4483 -0.0438 -0.3654
  188MOL0     H25313  10.946   6.325   3.101 -2.0019 -0.6024 -0.3017
  188MOL0     H25314  11.099   6.480   2.988 -0.1009  0.7856  0.0787
  188MOL0     H25315  11.081   6.470   2.567 -0.9309 -1.3197  2.5855
  188MOL0     H25316  11.116   6.628   2.563 -2.0330  0.7980  1.1298
  188MOL0     H25317  11.341   6.570   2.700  0.6908  1.2477 -1.1269
  188MOL0     H25318  11.291   6.408   2.674 -0.4252  1.5880  1.3069
  188MOL0     H25319  11.349   6.420   2.435 -1.7832  0.2937  0.6223
  188MOL0     H25320  11.333   6.600   2.441 -0.3516 -1.3191 -2.0745
  188MOL0     H25321  11.561   6.539   2.410  0.8114  3.5222  0.2704
  188MOL0     H25322  11.537   6.624   2.561 -1.4910  0.8108  0.2388
  188MOL0     H25323  11.694   6.445   2.575  0.4090  2.9473  0.7210
  188MOL0     H25324  11.570   6.431   2.686  3.0934 -0.1706  0.1924
  188MOL0     H25325  11.471   6.251   2.561 -0.0591 -0.1712 -0.2754
  188MOL0     H25326  11.599   6.248   2.440 -0.0892 -1.2048  0.4441
  188MOL0     H25327  11.769   6.187   2.604 -0.0502  0.6644 -3.4879
  188MOL0     H25328  11.680   6.254   2.732 -0.9957  0.3888 -0.2191
  188MOL0     H25329  11.600   5.993   2.590  0.2041  2.6853 -1.4674
  188MOL0     H25330  11.520   6.044   2.737  1.5571 -4.7995  1.9428
  188MOL0     H25331  11.615   5.988   2.962 -0.0474 -0.1088 -0.2573
  188MOL0     H25332  11.747   5.736   3.097 -0.2922  0.3631  0.1979
  188MOL0     H25333  11.917   5.791   3.085 -0.6902 -1.4256  2.1202
  188MOL0     H25334  11.756   6.011   3.146  1.0173  0.2839  1.6852
  188MOL0     H25335  11.860   5.930   3.252 -0.7856  1.2336  1.7762
  188MOL0     H25336  11.677   5.811   3.344 -1.6009  1.8796  2.6947
  188MOL0     H25337  11.583   5.844   3.203  0.0686 -2.0355  0.2548
  188MOL0     H25338  11.561   6.088   3.268 -0.1898 -0.1385 -0.4096
  188MOL0     H25339  11.688   6.077   3.385 -1.3240 -0.4813  3.1403
  188MOL0     H25340  11.347   5.932   3.602  1.0689  0.3063 -1.6567
  188MOL0     H25341  11.345   5.668   3.838  2.3815  0.6479  1.1884
  188MOL0     H25342  11.335   5.827   3.907  3.2662  4.6683 -2.2613
  188MOL0     H25343  11.250   5.802   3.763  0.0295  2.5412  0.7157
  188MOL0     H25344  11.738   5.481   4.077  0.8671 -0.8419 -1.3032
  188MOL0     H25345  11.860   5.454   4.299 -1.9466 -0.3185 -0.8125
  188MOL0     H25346  11.972   5.485   4.514 -1.8334 -0.1605 -3.0243
  188MOL0     H25347  12.091   5.439   4.394  0.1786 -0.7623  0.8385
  188MOL0     H25348  12.269   5.555   4.520  0.7355  0.2796  0.9390
  188MOL0     H25349  12.137   5.585   4.648  0.0641 -2.3724  2.6696
  188MOL0     H25350  12.284   5.396   4.716 -3.6724 -0.7461  3.9862
  188MOL0     H25351  12.248   5.296   4.579 -1.9697 -1.0095 -0.7943
  188MOL0     H25352  12.047   5.412   4.786 -0.3916  0.4126 -1.5556
  188MOL0     H25353  12.021   5.274   4.676  0.4184 -3.0853  3.5365
  188MOL0     H25354  12.199   5.297   4.906  1.7334  2.3874 -2.9390
  188MOL0     H25355  12.208   5.169   4.794  0.5345 -0.7147  1.8651
  188MOL0     H25356  11.986   5.103   4.837 -2.0680  0.8414  0.1167
  188MOL0     H25357  12.085   5.125   4.998  1.2455  2.8230  2.3120
  188MOL0     H25358  11.870   5.309   4.901  1.2680 -2.7434 -2.9651
  188MOL0     H25359  11.967   5.321   5.054 -2.2047  0.4448 -0.4119
  188MOL0     H25360  11.863   5.108   5.121  0.0641  0.7006 -0.0031
  188MOL0     H25361  11.750   5.111   4.980 -1.0054 -3.7266  3.0852
  188MOL0     H25362  12.018   5.854   4.276  0.5215 -0.4008  1.3787
  188MOL0     H25363  11.915   5.870   4.044  2.7353 -2.1751 -3.1269
  188MOL0     H25364  11.809   5.853   3.755  0.1259  1.7709 -0.8632
  188MOL0     H25365  11.760   5.947   3.535  1.6206 -1.3676  2.7649
  188MOL0     H25366  10.868   6.477   2.634 -3.8591  3.1970  2.0834
  188MOL0     H25367  10.709   6.323   2.740  0.0032  0.9432  0.9745
  188MOL0     H25368  10.580   6.072   3.099  0.4008 -0.0177  3.0526
  188MOL0     H25369  10.362   5.949   3.168 -1.4913  0.0289  0.0638
  188MOL0     H25370  10.136   5.932   3.149  1.0652 -1.6590 -0.1861
  188MOL0     H25371  10.181   5.851   3.304 -1.7552 -0.6744  2.0517
  188MOL0     H25372   9.955   5.836   3.316  0.1456 -0.2118  1.2115
  188MOL0     H25373   9.922   6.000   3.285 -1.0273 -0.6894  1.4439
  188MOL0     H25374  10.013   6.080   3.498  0.0938  0.3108  1.6012
  188MOL0     H25375  10.075   5.920   3.542 -0.0571  0.4107  0.2065
  188MOL0     H25376   9.859   5.819   3.538 -1.1251  0.3015  0.7909
  188MOL0     H25377   9.787   5.969   3.497  0.0427  1.2088  0.4070
  188MOL0     H25378   9.787   6.016   3.911  2.7715  0.4561  0.8275
  188MOL0     H25379  10.223   6.326   3.303 -0.0948 -1.3665  0.0063
  188MOL0     H25380  10.403   6.441   3.176  1.6309 -0.0471  0.4537
  189MOL0     O25381   5.685   0.116  10.540  0.5115 -0.3060  0.0896
  189MOL0     C25382   5.633   0.216  10.485 -0.7455  0.1260  0.6467
  189MOL0     O25383   5.512   0.228  10.437 -0.1661 -0.2427  0.5053
  189MOL0     C25384   5.426   0.126  10.458 -0.9689  0.2989  0.0745
  189MOL0     C25385   5.423   0.017  10.364  0.1434 -0.6963  0.1032
  189MOL0     C25386   5.348  -0.097  10.391  0.1819 -0.3034 -0.2591
  189MOL0     C25387   5.262  -0.103  10.505 -0.7371 -0.1997 -0.0274
  189MOL0     O25388   5.197  -0.221  10.518  0.1095 -0.0885 -0.1751
  189MOL0     C25389   5.123  -0.240  10.644 -0.9421  0.3209  0.6785
  189MOL0     C25390   5.079  -0.394  10.645 -0.3875 -0.7626 -0.6258
  189MOL0     C25391   5.033  -0.436  10.785  0.0832  0.5663 -0.1033
  189MOL0     C25392   4.936  -0.553  10.788 -0.6948  0.5535 -0.3276
  189MOL0     C25393   4.906  -0.595  10.930  0.1550 -0.2222 -0.2211
  189MOL0     C25394   4.837  -0.725  10.938  0.6967 -0.4758 -1.7239
  189MOL0     C25395   4.808  -0.770  11.094  0.5314 -0.5639 -0.0601
  189MOL0     C25396   4.705  -0.667  11.160  0.6370 -0.4871 -0.2777
  189MOL0     N25397   4.696  -0.692  11.312 -0.7708  0.6395  0.7204
  189MOL0     C25398   4.645  -0.802  11.372 -0.8215  0.0817 -0.9452
  189MOL0     C25399   4.651  -0.776  11.509 -0.0525  0.4491  0.2281
  189MOL0     C25400   4.603  -0.866  11.625  0.0622 -0.4525  0.0149
  189MOL0     C25401   4.716  -0.889  11.729 -0.5358 -0.6643 -0.5500
  189MOL0     C25402   4.670  -0.971  11.851 -0.6208  0.3121  0.9096
  189MOL0     C25403   4.559  -0.913  11.927  0.3817  0.6335  0.1321
  189MOL0     O25404   4.543  -0.975  12.053  0.3075 -0.6128 -0.4608
  189MOL0     C25405   4.429  -0.960  12.130 -0.4851 -0.2509 -0.1646
  189MOL0     C25406   4.436  -1.025  12.252  0.9932  1.0087 -0.3246
  189MOL0     C25407   4.339  -1.014  12.348 -0.1738  0.6791 -0.6683
  189MOL0     C25408   4.351  -1.081  12.486 -0.1295 -0.6458 -0.1740
  189MOL0     C25409   4.225  -0.922  12.327 -0.1914 -0.3811  1.0070
  189MOL0     C25410   4.107  -0.898  12.423  0.0553  0.3584  0.6441
  189MOL0     O25411   4.079  -0.985  12.525  0.3323 -0.3893 -0.3973
  189MOL0     C25412   3.974  -0.953  12.615 -0.1622 -0.0433  0.5830
  189MOL0     C25413   3.993  -1.007  12.744  0.2949  0.3629  0.4092
  189MOL0     C25414   3.899  -0.990  12.853  0.2936  0.2058  1.1913
  189MOL0     C25415   3.770  -0.941  12.818  0.0909 -0.2460  0.2454
  189MOL0     O25416   3.675  -0.944  12.922 -0.0728  0.0227  0.3390
  189MOL0     C25417   3.549  -0.864  12.925  0.2817 -0.0361 -0.1157
  189MOL0     C25418   3.480  -0.914  13.061 -0.4805  1.2079  0.1651
  189MOL0     C25419   3.438  -1.060  13.060  0.7885  0.3354 -0.1538
  189MOL0     C25420   3.335  -1.093  12.952 -0.4792 -0.5212  0.4935
  189MOL0     C25421   3.274  -1.240  12.962  0.1040  0.4721 -0.4751
  189MOL0     C25422   3.143  -1.241  12.875 -0.1443  0.2838  0.0615
  189MOL0     C25423   3.062  -1.375  12.894  0.0366 -0.3533 -0.8360
  189MOL0     C25424   2.959  -1.378  12.785  0.2435 -0.1299 -0.6759
  189MOL0    Cl25425   2.865  -1.226  12.781 -0.0222 -0.0298 -0.2834
  189MOL0     C25426   3.742  -0.910  12.689 -0.5102 -0.2146  0.2736
  189MOL0     C25427   3.838  -0.915  12.589 -0.9086 -0.1054 -0.2892
  189MOL0     O25428   4.047  -0.795  12.408 -0.4016  0.2036 -0.3349
  189MOL0     C25429   4.221  -0.844  12.208  0.3078 -0.1924 -0.2457
  189MOL0     C25430   4.322  -0.871  12.115 -0.6796 -0.5354  0.5229
  189MOL0     N25431   4.688  -0.648  11.524 -0.2030 -0.9638 -0.2814
  189MOL0     N25432   4.721  -0.606  11.409 -0.2696 -0.3063 -0.4366
  189MOL0     C25433   5.255   0.007  10.591  0.5308 -0.8227 -0.3279
  189MOL0     C25434   5.337   0.129  10.571  0.1938  0.1356  0.9118
  189MOL0     C25435   5.726   0.335  10.471  0.4694  1.2448 -0.3394
  189MOL0     C25436   5.853   0.334  10.524 -0.5716  0.5502  0.0324
  189MOL0     C25437   5.936   0.448  10.524 -0.6218  0.0366 -0.5365
  189MOL0     C25438   5.897   0.565  10.468 -1.1625  1.5859 -0.7638
  189MOL0     O25439   5.980   0.667  10.456  0.2379  0.0774  0.4611
  189MOL0     C25440   6.101   0.662  10.390 -0.3945 -0.0831  0.0116
  189MOL0     C25441   6.187   0.774  10.465 -0.5810 -0.5419  0.2193
  189MOL0     C25442   6.328   0.803  10.411 -0.4941 -0.0954  0.2137
  189MOL0     C25443   6.332   0.807  10.258 -0.8053 -0.1953  0.0265
  189MOL0     C25444   6.286   0.928  10.196 -0.6445  0.3918  0.3410
  189MOL0     C25445   6.267   1.029  10.130 -0.2037 -0.0804 -0.1098
  189MOL0     C25446   5.770   0.560  10.411  0.0121 -0.0521  0.4038
  189MOL0     C25447   5.684   0.451  10.410  0.9454  0.5345  0.1103
  189MOL0     H25448   5.490   0.017  10.279 -1.4356 -0.4841 -1.1802
  189MOL0     H25449   5.349  -0.184  10.326  0.8612  0.5075 -1.3467
  189MOL0     H25450   5.189  -0.232  10.731 -2.0951 -1.4707  1.8026
  189MOL0     H25451   5.039  -0.171  10.654  0.9437  2.7206  0.8068
  189MOL0     H25452   4.995  -0.399  10.575 -1.1242 -1.5655  0.2934
  189MOL0     H25453   5.171  -0.443  10.611  1.7388  2.9626 -0.8137
  189MOL0     H25454   5.117  -0.466  10.848  0.3641 -1.2993 -1.2855
  189MOL0     H25455   4.977  -0.355  10.831 -1.6804  0.2786 -1.6302
  189MOL0     H25456   4.838  -0.529  10.747 -1.9849 -1.3726  1.4393
  189MOL0     H25457   4.972  -0.640  10.731 -0.0543  0.3383  0.3882
  189MOL0     H25458   5.001  -0.607  10.983 -0.9916  1.4465  2.4254
  189MOL0     H25459   4.855  -0.509  10.975 -1.0864  0.0940 -2.1093
  189MOL0     H25460   4.750  -0.724  10.873  0.7778  1.2464 -1.8618
  189MOL0     H25461   4.892  -0.802  10.884 -2.6115 -0.5632 -5.3314
  189MOL0     H25462   4.778  -0.875  11.101  1.8727 -1.0488 -1.1952
  189MOL0     H25463   4.896  -0.767  11.158 -0.6191 -3.2494  1.8648
  189MOL0     H25464   4.608  -0.691  11.115  0.0309  0.5450  0.4279
  189MOL0     H25465   4.731  -0.562  11.148 -0.2404 -0.1903  0.2746
  189MOL0     H25466   4.617  -0.891  11.316 -2.0874  0.4168 -0.8792
  189MOL0     H25467   4.519  -0.820  11.678  0.8224  0.1170  0.7749
  189MOL0     H25468   4.563  -0.960  11.586 -1.0654  0.1186 -0.2474
  189MOL0     H25469   4.755  -0.791  11.759  0.8043 -1.2969 -0.1544
  189MOL0     H25470   4.794  -0.936  11.669  0.0439  0.6144 -0.8263
  189MOL0     H25471   4.764  -0.972  11.908  0.4665 -4.3145 -0.5547
  189MOL0     H25472   4.650  -1.073  11.818  1.5665  0.3273 -0.7411
  189MOL0     H25473   4.477  -0.925  11.855  0.5503 -0.1778  0.0692
  189MOL0     H25474   4.586  -0.811  11.954  1.0005 -0.1035  2.5811
  189MOL0     H25475   4.516  -1.094  12.276 -2.2415 -2.3701  2.0083
  189MOL0     H25476   4.263  -1.146  12.490  0.7240 -1.8203 -0.0583
  189MOL0     H25477   4.441  -1.142  12.490 -1.6012 -3.0932 -1.9937
  189MOL0     H25478   4.344  -1.019  12.576  1.9890 -1.0619  0.3207
  189MOL0     H25479   4.086  -1.055  12.775 -0.8243 -3.4143 -1.4837
  189MOL0     H25480   3.925  -1.011  12.956  0.2607 -1.3822  0.8949
  189MOL0     H25481   3.575  -0.758  12.938 -0.1401 -0.0211  0.6572
  189MOL0     H25482   3.482  -0.885  12.841  0.1164 -1.8579  0.4472
  189MOL0     H25483   3.553  -0.908  13.142 -1.1576  0.7494  0.8091
  189MOL0     H25484   3.390  -0.855  13.081 -2.1822 -1.5077  0.9592
  189MOL0     H25485   3.394  -1.093  13.155  1.2375 -1.0991 -0.4184
  189MOL0     H25486   3.524  -1.124  13.039 -0.1470 -1.4706  1.2215
  189MOL0     H25487   3.265  -1.010  12.962  1.5225  1.4009 -0.7265
  189MOL0     H25488   3.380  -1.089  12.853 -0.8232 -0.9938  0.3131
  189MOL0     H25489   3.243  -1.271  13.062  0.1141 -1.0934 -0.9286
  189MOL0     H25490   3.348  -1.318  12.939 -1.2665 -1.3119  0.9146
  189MOL0     H25491   3.090  -1.155  12.917  0.5022  0.5286  0.3875
  189MOL0     H25492   3.156  -1.226  12.768  1.3573  0.2281  0.2196
  189MOL0     H25493   3.008  -1.370  12.989 -2.3254  1.1455 -2.1350
  189MOL0     H25494   3.124  -1.464  12.880  1.5092  0.6043 -0.6447
  189MOL0     H25495   2.891  -1.462  12.803 -2.7601  1.9649 -1.2916
  189MOL0     H25496   3.021  -1.397  12.697  1.1480  1.5472 -0.4431
  189MOL0     H25497   3.645  -0.867  12.667 -0.2654  0.4532  0.4569
  189MOL0     H25498   3.821  -0.877  12.488 -1.6648 -2.7593 -1.2301
  189MOL0     H25499   4.147  -0.766  12.191  1.1268  0.6519  0.0007
  189MOL0     H25500   4.317  -0.813  12.024 -1.4885 -0.5126  0.5810
  189MOL0     H25501   5.204   0.013  10.686  3.3369  0.6319  1.2345
  189MOL0     H25502   5.331   0.214  10.639 -0.4819 -0.0678  1.1143
  189MOL0     H25503   5.899   0.244  10.562 -1.1960  1.0497  2.1134
  189MOL0     H25504   6.028   0.446  10.581 -0.2391 -2.5604 -1.1425
  189MOL0     H25505   6.144   0.561  10.388 -1.5308 -0.5839 -1.7990
  189MOL0     H25506   6.094   0.685  10.283 -3.7195 -4.5572 -1.0269
  189MOL0     H25507   6.195   0.747  10.571  0.3816  1.3781  0.6723
  189MOL0     H25508   6.130   0.867  10.460 -0.5052 -0.3204  2.4181
  189MOL0     H25509   6.390   0.718  10.441 -0.9134 -0.0690  1.1719
  189MOL0     H25510   6.368   0.895  10.454 -2.5511 -0.6822  3.7725
  189MOL0     H25511   6.284   0.719  10.214  1.9928 -0.7644 -2.2039
  189MOL0     H25512   6.437   0.788  10.236 -0.9052  0.8259 -1.4542
  189MOL0     H25513   6.257   1.117  10.069 -0.1202 -1.6254 -2.4571
  189MOL0     H25514   5.729   0.644  10.355 -0.4506 -0.5374 -0.0058
  189MOL0     H25515   5.590   0.457  10.355  0.7670 -2.2870 -0.0727
  190MOL0     O25516   9.584   5.723   4.215  0.0949  0.0548 -0.0234
  190MOL0     C25517   9.592   5.784   4.325  0.4612 -0.6214  0.0689
  190MOL0     O25518   9.525   5.743   4.447  0.2209  0.5265  0.3518
  190MOL0     C25519   9.449   5.634   4.451  1.2447 -0.2204 -0.9727
  190MOL0     C25520   9.483   5.507   4.391  1.1587 -0.1046 -0.0492
  190MOL0     C25521   9.390   5.403   4.388  0.8061  0.0799 -0.8207
  190MOL0     C25522   9.262   5.423   4.449  0.6746 -0.0607 -0.5074
  190MOL0     O25523   9.165   5.324   4.446  0.3505  0.5370 -0.5223
  190MOL0     C25524   9.209   5.187   4.441  0.3898  0.7959  0.3471
  190MOL0     C25525   9.111   5.099   4.511 -0.4486 -0.9160 -1.2668
  190MOL0     C25526   9.096   5.137   4.657  0.0021 -0.3705  0.8827
  190MOL0     C25527   9.030   5.020   4.729 -0.1388 -0.3638 -0.1434
  190MOL0     C25528   9.007   5.059   4.878 -0.9428  0.4652 -0.0225
  190MOL0     C25529   8.897   5.159   4.899  0.2987 -0.2767 -0.3062
  190MOL0     C25530   8.866   5.174   5.046  0.0259  0.0928  0.5965
  190MOL0     C25531   8.960   5.265   5.123  0.0408  0.2919 -0.3735
  190MOL0     N25532   8.898   5.344   5.231 -0.4216  0.3391  0.4665
  190MOL0     C25533   8.859   5.285   5.348 -0.2133 -0.8532  0.6734
  190MOL0     C25534   8.799   5.383   5.414  0.3493  0.7046 -0.0601
  190MOL0     C25535   8.766   5.397   5.560 -0.3242 -0.8067 -0.5859
  190MOL0     C25536   8.737   5.264   5.631 -0.1646  0.6203  0.4224
  190MOL0     C25537   8.688   5.281   5.768 -0.0561 -0.2614 -0.4508
  190MOL0     C25538   8.647   5.144   5.821  1.1157 -1.4814 -0.0878
  190MOL0     O25539   8.555   5.064   5.747 -0.1287 -0.3725 -0.3675
  190MOL0     C25540   8.495   4.971   5.829  0.4437 -0.1002  0.0909
  190MOL0     C25541   8.360   5.001   5.852  0.2893  0.0028 -0.7964
  190MOL0     C25542   8.282   4.921   5.920  0.2683  1.1920 -0.0681
  190MOL0     C25543   8.153   4.979   5.970  0.1915  0.5438  0.3111
  190MOL0     C25544   8.325   4.783   5.943 -0.1788  0.1224 -0.3135
  190MOL0     C25545   8.238   4.683   6.009  0.2513 -0.7767 -0.4374
  190MOL0     O25546   8.108   4.661   5.961 -0.2052  0.4243 -0.1174
  190MOL0     C25547   8.040   4.571   6.047 -0.7790  0.7063 -0.2359
  190MOL0     C25548   7.980   4.463   5.989  0.6857  0.9295 -0.0663
  190MOL0     C25549   7.904   4.372   6.069 -0.7460  0.1478 -0.5968
  190MOL0     C25550   7.888   4.399   6.208 -0.6368  1.3870  0.3160
  190MOL0     O25551   7.806   4.318   6.285 -0.9061 -1.0912 -0.2023
  190MOL0     C25552   7.720   4.225   6.228  1.1955  0.3355 -0.9584
  190MOL0     C25553   7.782   4.090   6.191 -0.0705  0.0500  0.2612
  190MOL0     C25554   7.711   3.999   6.084  0.0273 -0.0790  0.1674
  190MOL0     C25555   7.566   4.006   6.088 -0.0304  0.3294 -0.4105
  190MOL0     C25556   7.499   3.914   5.995 -0.2599  0.7651  0.7117
  190MOL0     C25557   7.357   3.947   5.997  0.1967  0.2999 -0.3026
  190MOL0     C25558   7.269   3.840   5.926 -0.3784  0.0059  0.4734
  190MOL0     C25559   7.137   3.897   5.888  0.5418  0.6727  0.1356
  190MOL0    Cl25560   7.028   3.926   6.026 -0.2329 -0.0906  0.5346
  190MOL0     C25561   7.953   4.505   6.273 -0.0314  0.0424 -0.0558
  190MOL0     C25562   8.027   4.597   6.188  0.7425  0.0440  0.1105
  190MOL0     O25563   8.296   4.609   6.093 -0.1134 -0.3923 -0.2343
  190MOL0     C25564   8.448   4.751   5.900 -0.2187  0.2553 -0.0585
  190MOL0     C25565   8.538   4.848   5.847 -0.4937  0.9963  0.7131
  190MOL0     N25566   8.801   5.493   5.335  0.1034  0.4551  0.6377
  190MOL0     N25567   8.868   5.474   5.224  0.3071 -0.2601  0.3100
  190MOL0     C25568   9.227   5.545   4.516  1.1631 -0.3109  0.6840
  190MOL0     C25569   9.316   5.650   4.512  0.3689 -0.7686 -0.2746
  190MOL0     C25570   9.666   5.910   4.339 -0.8276  0.5490  1.0066
  190MOL0     C25571   9.699   5.993   4.236  0.9630 -0.2804 -0.1089
  190MOL0     C25572   9.761   6.113   4.254 -0.7795  0.3247  0.0272
  190MOL0     C25573   9.799   6.162   4.379 -0.1842  1.3402  0.1202
  190MOL0     O25574   9.859   6.286   4.387 -0.3932  0.7028  0.1982
  190MOL0     C25575   9.866   6.353   4.510  0.3060  0.1168  0.3343
  190MOL0     C25576   9.897   6.496   4.483  0.1721 -0.8920  0.0332
  190MOL0     C25577   9.919   6.570   4.616  0.0449 -0.5745 -0.1246
  190MOL0     C25578   9.901   6.723   4.592  0.5352 -0.3639 -0.5271
  190MOL0     C25579   9.982   6.786   4.702 -0.1342  0.5582  0.6347
  190MOL0     C25580  10.043   6.829   4.792  0.3837  0.2656 -0.1816
  190MOL0     C25581   9.779   6.071   4.490 -0.3816  0.4696  0.0928
  190MOL0     C25582   9.717   5.947   4.472  0.5888  0.1926 -0.4423
  190MOL0     H25583   9.580   5.509   4.343 -0.2732  1.6599 -3.1437
  190MOL0     H25584   9.414   5.311   4.335  3.7661 -0.2437  0.8338
  190MOL0     H25585   9.218   5.156   4.336  1.8778  1.1612  0.3414
  190MOL0     H25586   9.307   5.183   4.489 -0.4027  3.9249  2.5611
  190MOL0     H25587   9.018   5.105   4.453 -0.5377  4.3044 -1.0457
  190MOL0     H25588   9.141   4.994   4.501  0.7398 -0.7395  0.0956
  190MOL0     H25589   9.190   5.172   4.700 -0.6652  0.3264  1.8290
  190MOL0     H25590   9.032   5.226   4.663  2.5598  1.7683 -1.4297
  190MOL0     H25591   8.936   4.993   4.679 -0.3450  1.5737 -0.9162
  190MOL0     H25592   9.102   4.938   4.723  0.9766  0.6077 -0.3535
  190MOL0     H25593   8.987   4.960   4.920 -0.7980 -0.8773 -2.8853
  190MOL0     H25594   9.095   5.095   4.933  0.1346  0.7309 -1.8526
  190MOL0     H25595   8.931   5.258   4.865 -0.3806 -0.1876 -0.7527
  190MOL0     H25596   8.805   5.130   4.849  0.4454 -1.4387  0.0658
  190MOL0     H25597   8.773   5.230   5.060  0.8498  2.2054 -1.6274
  190MOL0     H25598   8.847   5.076   5.090  1.2225  0.6366  2.4841
  190MOL0     H25599   9.002   5.340   5.055  3.2455 -0.6972  0.3152
  190MOL0     H25600   9.044   5.208   5.164  1.1356  2.3647  0.4117
  190MOL0     H25601   8.874   5.182   5.381 -3.2079 -1.4551  0.3807
  190MOL0     H25602   8.857   5.446   5.598 -0.6169 -1.0234  0.4383
  190MOL0     H25603   8.683   5.462   5.586 -1.2795 -2.1845 -0.0493
  190MOL0     H25604   8.822   5.195   5.632 -2.4604 -2.4888 -0.6551
  190MOL0     H25605   8.658   5.202   5.588  1.4623 -1.0397 -0.3170
  190MOL0     H25606   8.610   5.357   5.775 -0.9522 -1.1209 -0.9082
  190MOL0     H25607   8.770   5.311   5.835  0.1610  1.3391 -1.3914
  190MOL0     H25608   8.601   5.167   5.918 -1.3607  1.2072 -1.6957
  190MOL0     H25609   8.739   5.086   5.828  0.6540 -2.3687 -1.1542
  190MOL0     H25610   8.316   5.096   5.823 -3.1437 -1.2168 -0.0848
  190MOL0     H25611   8.185   5.064   6.031 -3.2730  2.5081 -0.3854
  190MOL0     H25612   8.086   5.012   5.890 -0.5240 -0.7602  0.3512
  190MOL0     H25613   8.101   4.907   6.033  1.6248 -0.1094  0.7935
  190MOL0     H25614   7.980   4.444   5.882 -4.7310  0.4014 -0.2762
  190MOL0     H25615   7.863   4.287   6.016 -3.3334 -0.2606  1.7939
  190MOL0     H25616   7.626   4.225   6.284  0.7578  0.9348 -1.6667
  190MOL0     H25617   7.684   4.266   6.133  1.4910  2.4506 -0.2106
  190MOL0     H25618   7.882   4.107   6.149  0.2785 -3.1382 -0.4591
  190MOL0     H25619   7.796   4.037   6.285  1.4066 -0.6937 -0.3454
  190MOL0     H25620   7.759   3.903   6.102  2.7746  1.2002  0.3015
  190MOL0     H25621   7.754   4.034   5.990 -1.5259 -1.2461 -1.0313
  190MOL0     H25622   7.529   3.982   6.188  0.3330  0.5899 -0.2153
  190MOL0     H25623   7.535   4.107   6.058  0.8218  0.1104 -2.1795
  190MOL0     H25624   7.519   3.820   6.047  0.3310  2.0690  2.9407
  190MOL0     H25625   7.545   3.911   5.895 -1.5826  2.6832 -0.0093
  190MOL0     H25626   7.324   3.964   6.100 -2.2146 -0.0495 -0.9509
  190MOL0     H25627   7.354   4.048   5.955  2.3797  0.3409 -0.4573
  190MOL0     H25628   7.261   3.748   5.984  0.9739 -0.3987  0.0569
  190MOL0     H25629   7.308   3.819   5.826  0.1763 -0.2808  0.7470
  190MOL0     H25630   7.089   3.840   5.808  2.8576  3.1648 -3.2631
  190MOL0     H25631   7.162   3.991   5.839  2.7004 -0.0678 -0.2678
  190MOL0     H25632   7.935   4.520   6.378  0.8428  1.0126 -0.0261
  190MOL0     H25633   8.080   4.683   6.228 -0.4653  0.4944  0.7875
  190MOL0     H25634   8.492   4.654   5.921  1.1166  0.2654 -2.4816
  190MOL0     H25635   8.641   4.824   5.822 -0.9101 -3.2679  2.2951
  190MOL0     H25636   9.129   5.552   4.561  0.0934 -1.7498 -1.2669
  190MOL0     H25637   9.294   5.748   4.554 -0.3960 -0.5634 -1.1275
  190MOL0     H25638   9.660   5.975   4.136 -0.8108  1.9868  0.0866
  190MOL0     H25639   9.787   6.184   4.176  0.7097 -1.0142 -0.7371
  190MOL0     H25640   9.764   6.340   4.546  0.7848 -1.7399  1.1058
  190MOL0     H25641   9.928   6.308   4.587 -0.2440 -1.8890 -0.3480
  190MOL0     H25642   9.816   6.540   4.424  0.5751 -1.3091 -0.8463
  190MOL0     H25643   9.985   6.497   4.418 -2.3486  1.5078 -3.7858
  190MOL0     H25644  10.025   6.552   4.639 -0.4536 -0.0092  3.0390
  190MOL0     H25645   9.857   6.536   4.699 -1.3501 -1.9513 -1.6688
  190MOL0     H25646   9.800   6.764   4.605  0.9517 -0.0252  2.1446
  190MOL0     H25647   9.937   6.760   4.496  0.7198  1.9554  0.3712
  190MOL0     H25648  10.072   6.880   4.881 -3.1950  2.0026  0.1957
  190MOL0     H25649   9.813   6.095   4.591  3.9316  0.2036 -1.0957
  190MOL0     H25650   9.689   5.888   4.558  1.7659 -0.4851 -0.5015
  191MOL0     O25651   7.536   8.641  10.277 -0.4387  0.5376 -0.0885
  191MOL0     C25652   7.560   8.761  10.283  1.0027 -0.3555 -0.0517
  191MOL0     O25653   7.466   8.860  10.302 -0.3606 -0.2904  0.3637
  191MOL0     C25654   7.333   8.816  10.305 -0.7722 -0.4174 -0.1424
  191MOL0     C25655   7.273   8.787  10.428  0.3572  0.6987  0.7088
  191MOL0     C25656   7.155   8.722  10.445  0.6433  0.5136  0.3212
  191MOL0     C25657   7.075   8.700  10.330 -0.0777 -0.2496 -0.6088
  191MOL0     O25658   6.945   8.651  10.355 -0.4933  0.4407 -0.3394
  191MOL0     C25659   6.842   8.687  10.263  0.3082 -1.0577 -0.5581
  191MOL0     C25660   6.806   8.833  10.258  0.6760  0.7359  0.5395
  191MOL0     C25661   6.764   8.902  10.390 -0.6193  0.3605 -0.3416
  191MOL0     C25662   6.726   9.046  10.365 -0.0290 -0.7694  0.2487
  191MOL0     C25663   6.847   9.137  10.334 -0.6105 -0.3538 -0.1615
  191MOL0     C25664   6.915   9.185  10.454  0.2773 -0.2357 -0.0950
  191MOL0     C25665   7.026   9.288  10.435  1.3502  0.8306  0.0312
  191MOL0     C25666   7.148   9.226  10.359  0.2786 -0.2431  0.6841
  191MOL0     N25667   7.253   9.324  10.380  0.0287 -0.5029  1.5277
  191MOL0     C25668   7.292   9.415  10.283  0.6588  0.2402 -0.5391
  191MOL0     C25669   7.390   9.483  10.343 -1.1470 -0.4001  0.2450
  191MOL0     C25670   7.462   9.596  10.279 -0.0349  0.2611 -0.0243
  191MOL0     C25671   7.539   9.546  10.158 -0.0598 -0.0855 -0.1473
  191MOL0     C25672   7.622   9.666  10.124 -0.5105  0.1955 -0.4750
  191MOL0     C25673   7.689   9.643   9.992 -0.3171 -0.2843  0.1008
  191MOL0     O25674   7.800   9.741   9.976  0.5671  0.2194 -0.0437
  191MOL0     C25675   7.863   9.746   9.857  0.1798 -0.9151 -0.3102
  191MOL0     C25676   7.831   9.683   9.740 -0.0618  0.8288  0.1699
  191MOL0     C25677   7.907   9.702   9.621  0.0800  0.4470 -0.1035
  191MOL0     C25678   7.847   9.639   9.497 -0.2916  0.6030 -0.4084
  191MOL0     C25679   8.033   9.774   9.626 -0.0089  0.1717 -0.4071
  191MOL0     C25680   8.135   9.795   9.520 -0.8441 -0.6177 -0.1131
  191MOL0     O25681   8.199   9.923   9.536 -0.5854 -0.1244 -0.3762
  191MOL0     C25682   8.305   9.960   9.460 -0.7476 -1.1788 -0.2006
  191MOL0     C25683   8.393  10.031   9.544 -0.1036 -0.3236  0.1677
  191MOL0     C25684   8.509  10.093   9.483  0.4853  0.2143  0.3806
  191MOL0     C25685   8.532  10.085   9.345  0.8495  0.4255 -0.2701
  191MOL0     O25686   8.643  10.140   9.287  0.4680  0.0374 -0.1578
  191MOL0     C25687   8.760  10.130   9.366  0.1970  0.1861  0.5603
  191MOL0     C25688   8.868  10.190   9.275  0.5205 -0.5698 -0.1251
  191MOL0     C25689   8.961  10.266   9.366 -0.3164 -0.4057 -0.8745
  191MOL0     C25690   9.069  10.334   9.271  0.0481  1.0101 -0.1180
  191MOL0     C25691   9.147  10.449   9.341  0.1049 -0.2009 -0.0474
  191MOL0     C25692   9.240  10.515   9.236 -1.0546 -0.3960  0.0793
  191MOL0     C25693   9.351  10.577   9.317 -0.2132  0.7241 -0.4649
  191MOL0     C25694   9.440  10.676   9.245 -1.0622  0.1121  0.8073
  191MOL0    Cl25695   9.523  10.758   9.379  0.0477  0.6907 -0.2125
  191MOL0     C25696   8.440  10.018   9.267  0.0555 -0.3390  0.0009
  191MOL0     C25697   8.326   9.955   9.319 -0.4301 -0.4331  0.0780
  191MOL0     O25698   8.163   9.710   9.435  0.1299 -0.3888  0.0543
  191MOL0     C25699   8.060   9.838   9.751 -0.0527  0.2274 -0.1148
  191MOL0     C25700   7.974   9.833   9.863  0.2486  0.0127  0.0948
  191MOL0     N25701   7.429   9.424  10.458  0.5734 -0.3550 -0.2346
  191MOL0     N25702   7.336   9.332  10.481 -0.1730 -0.5605 -0.1165
  191MOL0     C25703   7.127   8.740  10.208  0.1443  0.2549  0.9280
  191MOL0     C25704   7.257   8.789  10.192  0.1282  1.1558 -0.7075
  191MOL0     C25705   7.698   8.803  10.259  0.5017 -0.6467  0.0038
  191MOL0     C25706   7.732   8.931  10.208 -0.0786  1.0898  0.8781
  191MOL0     C25707   7.856   8.965  10.172 -0.5795  0.7153  0.0520
  191MOL0     C25708   7.962   8.875  10.196  0.4844  0.2655 -0.3400
  191MOL0     O25709   8.085   8.895  10.144  0.0859 -0.4006 -0.4175
  191MOL0     C25710   8.189   8.932  10.239  0.4778 -0.4495 -0.3229
  191MOL0     C25711   8.314   8.849  10.219 -0.1554  0.2130  0.3272
  191MOL0     C25712   8.411   8.906  10.114 -0.7216  0.2322 -0.0731
  191MOL0     C25713   8.562   8.869  10.128 -0.6027 -0.1423 -0.0881
  191MOL0     C25714   8.597   8.724  10.139  0.8813 -0.3274 -0.6250
  191MOL0     C25715   8.610   8.606  10.143 -0.5829  0.0969 -0.6761
  191MOL0     C25716   7.931   8.750  10.246  0.0370  0.2606 -0.2051
  191MOL0     C25717   7.805   8.713  10.266 -0.0254  0.2147 -0.4695
  191MOL0     H25718   7.336   8.805  10.515  0.8990  0.6735  0.3272
  191MOL0     H25719   7.120   8.691  10.543 -0.6425 -0.7452 -0.4934
  191MOL0     H25720   6.866   8.667  10.158  2.6566 -1.1628 -0.0652
  191MOL0     H25721   6.760   8.622  10.292  1.0641 -1.2278  1.3184
  191MOL0     H25722   6.890   8.888  10.213 -0.6952  1.2743 -1.4551
  191MOL0     H25723   6.717   8.851  10.198 -0.6070 -0.8431  1.9086
  191MOL0     H25724   6.682   8.845  10.435  0.2329 -0.5447  0.0858
  191MOL0     H25725   6.839   8.891  10.469 -1.5837 -0.0488  0.5410
  191MOL0     H25726   6.662   9.048  10.277  3.2712 -2.8177 -2.4278
  191MOL0     H25727   6.669   9.081  10.452 -1.4325  1.9330 -1.6253
  191MOL0     H25728   6.915   9.088  10.263  0.1981  1.0475 -0.3980
  191MOL0     H25729   6.823   9.234  10.290 -0.1838  0.3064  1.0198
  191MOL0     H25730   6.836   9.229  10.516  0.8831  0.0143  0.5013
  191MOL0     H25731   6.949   9.102  10.517 -0.8753 -0.2341  0.5556
  191MOL0     H25732   6.991   9.372  10.374  1.9137  1.3363  0.3932
  191MOL0     H25733   7.051   9.322  10.536  0.4809 -0.1709  0.6073
  191MOL0     H25734   7.126   9.223  10.252  0.4471  1.6624  0.5536
  191MOL0     H25735   7.182   9.129  10.396  0.2370 -0.5594 -0.0990
  191MOL0     H25736   7.248   9.429  10.185 -2.6629 -0.3117  0.7561
  191MOL0     H25737   7.383   9.667  10.253 -1.7711 -0.1004  3.5779
  191MOL0     H25738   7.540   9.637  10.342  1.6582  0.4499 -2.1301
  191MOL0     H25739   7.471   9.520  10.077 -2.2446  0.8758  1.2851
  191MOL0     H25740   7.594   9.454  10.180 -0.1461  0.1120  0.9736
  191MOL0     H25741   7.702   9.668  10.199 -0.1853 -2.2181 -0.6730
  191MOL0     H25742   7.584   9.768  10.121  0.9047  0.7498 -0.6348
  191MOL0     H25743   7.618   9.675   9.916 -0.6752  2.1114  1.3370
  191MOL0     H25744   7.737   9.546   9.976 -3.5440 -1.7168 -1.7244
  191MOL0     H25745   7.753   9.608   9.746 -0.7077  1.6044  2.0316
  191MOL0     H25746   7.903   9.659   9.405  1.5224 -2.1856 -0.0168
  191MOL0     H25747   7.818   9.536   9.518 -0.9118  1.1188  1.4308
  191MOL0     H25748   7.749   9.688   9.493 -0.0112  1.2058  0.0400
  191MOL0     H25749   8.370  10.060   9.646 -1.4308 -0.2877 -0.1153
  191MOL0     H25750   8.575  10.148   9.550  1.9260  1.4046 -1.8706
  191MOL0     H25751   8.750  10.185   9.460 -3.0975 -0.2913  0.6122
  191MOL0     H25752   8.769  10.027   9.401  1.9003  0.5951  1.4433
  191MOL0     H25753   8.918  10.107   9.225  2.9334  0.3460  0.6481
  191MOL0     H25754   8.813  10.253   9.205 -3.0983 -1.8110  1.3098
  191MOL0     H25755   9.013  10.206   9.441  2.5136  2.8745  0.0133
  191MOL0     H25756   8.903  10.342   9.419  1.0870 -1.0949  1.8241
  191MOL0     H25757   9.141  10.258   9.239 -0.1243  0.1941  1.3100
  191MOL0     H25758   9.009  10.374   9.189 -0.8462  0.0682  0.0548
  191MOL0     H25759   9.212  10.412   9.421 -1.2646 -2.8497 -0.0583
  191MOL0     H25760   9.077  10.527   9.373  0.9836  0.3150  0.6496
  191MOL0     H25761   9.285  10.434   9.177  1.5835 -1.2814  3.0425
  191MOL0     H25762   9.203  10.593   9.168  0.7259  1.3829  1.0246
  191MOL0     H25763   9.409  10.495   9.362  1.3135  0.7993 -2.1943
  191MOL0     H25764   9.305  10.630   9.401 -2.3862 -4.3315  1.9625
  191MOL0     H25765   9.376  10.743   9.187 -1.8124 -1.7876 -0.7044
  191MOL0     H25766   9.520  10.633   9.184  0.0920  1.3372  1.4224
  191MOL0     H25767   8.462  10.015   9.161 -0.9767 -2.0833 -0.1876
  191MOL0     H25768   8.258   9.891   9.265  0.6829 -2.1010  0.5756
  191MOL0     H25769   8.150   9.895   9.773 -0.4749 -0.2631  3.2995
  191MOL0     H25770   8.001   9.882   9.956  3.5032  2.7888 -2.0634
  191MOL0     H25771   7.069   8.726  10.117  2.4695 -0.0948 -0.5953
  191MOL0     H25772   7.295   8.799  10.091 -0.9117  0.5483 -1.1792
  191MOL0     H25773   7.654   9.005  10.196 -0.5963  0.6632  1.5313
  191MOL0     H25774   7.884   9.053  10.115 -1.7520  0.7047 -0.5700
  191MOL0     H25775   8.204   9.040  10.227 -4.2110  0.2166 -2.6340
  191MOL0     H25776   8.153   8.908  10.339 -2.5069 -0.2395 -1.2623
  191MOL0     H25777   8.298   8.745  10.189  2.6532  0.2642 -1.7522
  191MOL0     H25778   8.371   8.832  10.311  1.6866  0.5262 -0.7014
  191MOL0     H25779   8.417   9.015  10.105 -2.1970  0.4113  0.7905
  191MOL0     H25780   8.384   8.871  10.014  0.4828 -1.4081  0.1355
  191MOL0     H25781   8.599   8.933  10.208 -0.4606 -1.5111  0.9765
  191MOL0     H25782   8.623   8.907  10.046 -2.5295  1.2355 -0.9507
  191MOL0     H25783   8.614   8.500  10.150 -0.8700  0.0951 -0.5093
  191MOL0     H25784   8.014   8.679  10.252  0.0015  0.0313 -1.9548
  191MOL0     H25785   7.771   8.617  10.303  1.5893 -0.4950 -0.7274
  192MOL0     O25786  10.579   2.651   3.463 -0.8533 -0.2615 -0.5481
  192MOL0     C25787  10.659   2.744   3.430 -0.3141 -0.1050 -0.0329
  192MOL0     O25788  10.630   2.877   3.406  0.8262 -0.5294 -0.8952
  192MOL0     C25789  10.503   2.922   3.414  0.1990 -0.4126  0.2576
  192MOL0     C25790  10.429   2.949   3.301 -0.0772  0.1369 -0.1464
  192MOL0     C25791  10.295   3.001   3.319 -0.3166 -1.1426  0.4946
  192MOL0     C25792  10.237   3.011   3.447  0.0520  0.8059  0.4735
  192MOL0     O25793  10.114   3.077   3.456 -0.1915 -0.6925 -0.1950
  192MOL0     C25794  10.053   3.106   3.581 -0.0030 -0.6769  0.2999
  192MOL0     C25795   9.919   3.184   3.565 -0.5019 -1.0028 -0.0093
  192MOL0     C25796   9.816   3.106   3.487  0.4293  1.4454  0.7186
  192MOL0     C25797   9.678   3.156   3.522  0.6492  0.7544  0.3323
  192MOL0     C25798   9.570   3.067   3.464 -0.2563 -0.8037 -0.4637
  192MOL0     C25799   9.561   3.047   3.311 -0.3864  0.6711 -0.7459
  192MOL0     C25800   9.419   2.997   3.269 -1.0144 -0.1007 -1.0206
  192MOL0     C25801   9.404   2.992   3.113  0.0928 -0.5982 -0.1597
  192MOL0     N25802   9.270   2.978   3.062 -0.2172 -0.8271 -0.6085
  192MOL0     C25803   9.176   2.905   3.127 -0.8743  0.0597  0.5862
  192MOL0     C25804   9.057   2.930   3.068  0.4680 -0.1544 -1.3670
  192MOL0     C25805   8.922   2.865   3.103  0.0041 -0.0704  0.0550
  192MOL0     C25806   8.803   2.962   3.129 -0.6123 -0.3449  0.0007
  192MOL0     C25807   8.663   2.905   3.160  0.0952  0.3134  0.7560
  192MOL0     C25808   8.567   3.017   3.192 -0.7991 -0.0886 -0.4223
  192MOL0     O25809   8.450   2.951   3.238  0.2569  0.0005  0.4919
  192MOL0     C25810   8.336   3.026   3.238 -0.1839  0.2976  0.0762
  192MOL0     C25811   8.221   2.961   3.276  0.6020  1.0054 -0.6291
  192MOL0     C25812   8.093   3.025   3.302  0.4804 -0.6518  0.6091
  192MOL0     C25813   7.986   2.933   3.360  0.6903  1.2668  1.1439
  192MOL0     C25814   8.071   3.160   3.269  0.2283  0.2557  0.3536
  192MOL0     C25815   7.943   3.243   3.297  0.3359 -1.2436 -0.1080
  192MOL0     O25816   7.836   3.189   3.357  0.9381 -0.3919  0.4811
  192MOL0     C25817   7.713   3.249   3.347 -0.2730  0.1819 -0.6059
  192MOL0     C25818   7.681   3.363   3.417 -0.4064 -0.1483  0.0926
  192MOL0     C25819   7.556   3.428   3.404  0.5159  0.3745  0.4891
  192MOL0     C25820   7.454   3.382   3.312 -0.0544  0.5300  0.3000
  192MOL0     O25821   7.332   3.439   3.292  0.3513  0.4500 -0.0230
  192MOL0     C25822   7.312   3.574   3.337  0.3379  0.4083 -0.8728
  192MOL0     C25823   7.162   3.602   3.339  0.2351  0.1535  0.6247
  192MOL0     C25824   7.093   3.598   3.199 -0.5061  0.3064  0.4901
  192MOL0     C25825   6.952   3.566   3.208  1.1971 -0.0236 -0.2306
  192MOL0     C25826   6.906   3.545   3.065  1.2666 -0.7969  0.0514
  192MOL0     C25827   6.768   3.489   3.076 -0.8387  0.9207  1.0429
  192MOL0     C25828   6.706   3.498   2.926  0.0392  0.4613 -0.0052
  192MOL0     C25829   6.601   3.392   2.899 -0.8861  1.0921 -0.4925
  192MOL0    Cl25830   6.506   3.454   2.769 -0.0939  0.3288  0.1290
  192MOL0     C25831   7.492   3.262   3.241 -0.1782 -1.0737  0.2255
  192MOL0     C25832   7.615   3.204   3.258 -0.3781  0.1345 -0.2889
  192MOL0     O25833   7.951   3.362   3.263 -0.0996 -0.1588 -0.2101
  192MOL0     C25834   8.187   3.223   3.222 -0.7451  0.5292 -0.1184
  192MOL0     C25835   8.321   3.164   3.208  0.1028 -0.0951  0.8976
  192MOL0     N25836   9.087   3.023   2.966  0.7555  0.4859  0.6624
  192MOL0     N25837   9.209   3.050   2.967 -0.6130 -0.7642 -0.1855
  192MOL0     C25838  10.311   2.981   3.562 -0.1356  0.4331 -0.1124
  192MOL0     C25839  10.446   2.939   3.545  0.1430  0.8566 -0.7064
  192MOL0     C25840  10.798   2.710   3.437 -0.1226  0.3739 -0.3514
  192MOL0     C25841  10.898   2.800   3.384 -0.4954  0.4775  0.4063
  192MOL0     C25842  11.034   2.764   3.402 -0.3903 -1.1272 -0.1751
  192MOL0     C25843  11.066   2.660   3.491 -0.8241 -0.6472  0.7603
  192MOL0     O25844  11.207   2.635   3.513  0.3565 -0.4356  0.5070
  192MOL0     C25845  11.238   2.522   3.600 -0.0350  0.4938  0.3888
  192MOL0     C25846  11.388   2.483   3.572 -0.0657  0.9381  0.8270
  192MOL0     C25847  11.420   2.343   3.632  0.1706  0.3307 -0.0932
  192MOL0     C25848  11.562   2.304   3.616 -0.0919  0.2937 -0.4783
  192MOL0     C25849  11.566   2.199   3.518 -0.5444 -0.3460 -0.6512
  192MOL0     C25850  11.563   2.122   3.425  0.1182 -0.9064  0.8677
  192MOL0     C25851  10.967   2.576   3.546 -0.8557  0.5320  0.6601
  192MOL0     C25852  10.838   2.593   3.511 -1.0737 -1.4587 -0.4620
  192MOL0     H25853  10.481   2.950   3.206  0.7803 -1.7029  0.2623
  192MOL0     H25854  10.233   3.014   3.231 -0.1534  1.0013  0.6275
  192MOL0     H25855  10.011   3.023   3.639 -1.2588  0.8062  1.6409
  192MOL0     H25856  10.121   3.165   3.644  2.2383 -1.0730 -1.6322
  192MOL0     H25857   9.876   3.210   3.663 -2.2995  0.9042 -1.2056
  192MOL0     H25858   9.936   3.282   3.520 -1.8470  0.0303  1.5975
  192MOL0     H25859   9.842   3.123   3.382  2.2472  3.6134  1.4367
  192MOL0     H25860   9.827   2.999   3.509 -0.2902  1.1080 -0.4572
  192MOL0     H25861   9.673   3.159   3.632 -0.4210  0.7135  0.2924
  192MOL0     H25862   9.663   3.257   3.484 -1.4988 -0.4205 -2.2613
  192MOL0     H25863   9.590   2.973   3.517  1.5195  0.0588  0.4884
  192MOL0     H25864   9.470   3.097   3.496 -2.0524 -2.1273 -4.2055
  192MOL0     H25865   9.585   3.141   3.260  0.8124 -0.1248 -1.6973
  192MOL0     H25866   9.636   2.969   3.296 -2.3279 -0.9510 -2.5653
  192MOL0     H25867   9.398   2.897   3.309  1.7165 -1.1058 -1.8927
  192MOL0     H25868   9.349   3.066   3.317  1.6434  1.5368  0.7819
  192MOL0     H25869   9.453   2.903   3.073 -1.8472 -2.3224  1.1147
  192MOL0     H25870   9.450   3.081   3.068  0.8466 -0.8062  0.1781
  192MOL0     H25871   9.185   2.834   3.208 -0.1159  2.0385  2.3305
  192MOL0     H25872   8.894   2.798   3.021  1.7318 -0.6950 -0.0664
  192MOL0     H25873   8.950   2.800   3.186  0.2051  0.2935  0.2737
  192MOL0     H25874   8.802   3.037   3.048 -1.0139  0.0846  0.3973
  192MOL0     H25875   8.834   3.010   3.222 -1.4623  2.1614 -0.9220
  192MOL0     H25876   8.668   2.831   3.240  0.7908 -4.3427 -3.1436
  192MOL0     H25877   8.629   2.839   3.080  1.3954 -1.2262  1.4209
  192MOL0     H25878   8.545   3.072   3.100 -0.5161  2.0664  0.7284
  192MOL0     H25879   8.616   3.082   3.265 -1.9901  1.8546 -1.2363
  192MOL0     H25880   8.240   2.863   3.318 -0.0228  0.7291 -0.9718
  192MOL0     H25881   7.995   2.931   3.469 -1.5355  1.1322  1.3808
  192MOL0     H25882   7.884   2.964   3.335  1.0725  1.3061 -0.4592
  192MOL0     H25883   8.008   2.841   3.306 -0.4105  1.0379  1.0643
  192MOL0     H25884   7.752   3.398   3.492  1.9584  1.0950 -2.5571
  192MOL0     H25885   7.543   3.518   3.463  1.2802  0.0323  1.1943
  192MOL0     H25886   7.337   3.592   3.442 -3.8627  2.2711 -0.0062
  192MOL0     H25887   7.373   3.647   3.284  1.1740  1.3590  1.2586
  192MOL0     H25888   7.109   3.521   3.390  1.3333 -0.3101  1.0724
  192MOL0     H25889   7.140   3.689   3.401  0.6536  1.0093 -0.4034
  192MOL0     H25890   7.137   3.512   3.147 -0.3258 -1.2689  3.0839
  192MOL0     H25891   7.108   3.686   3.135  2.0740 -1.5837 -1.7590
  192MOL0     H25892   6.942   3.471   3.262 -3.8335 -0.9383 -2.2846
  192MOL0     H25893   6.895   3.637   3.269  0.9887 -1.5225  1.4143
  192MOL0     H25894   6.965   3.470   3.012  2.9578  0.7672 -0.4086
  192MOL0     H25895   6.911   3.637   3.005 -0.3151 -0.9854 -0.4085
  192MOL0     H25896   6.769   3.386   3.112  0.5607  0.6298  0.2442
  192MOL0     H25897   6.705   3.556   3.136 -3.5548 -1.8082  1.4661
  192MOL0     H25898   6.779   3.473   2.849  0.2484  1.9792 -0.3169
  192MOL0     H25899   6.681   3.597   2.889  1.6238  0.1833 -1.9467
  192MOL0     H25900   6.528   3.370   2.978 -0.8907  0.5742 -0.6331
  192MOL0     H25901   6.655   3.300   2.873  1.3554  2.2934 -0.3482
  192MOL0     H25902   7.414   3.218   3.181 -2.9364 -1.2310  3.6276
  192MOL0     H25903   7.645   3.119   3.197 -0.4067  1.4093 -2.1768
  192MOL0     H25904   8.187   3.325   3.185  1.4256 -0.0189 -1.8326
  192MOL0     H25905   8.408   3.222   3.178  0.6687 -1.6336 -0.5621
  192MOL0     H25906  10.272   3.006   3.660 -1.0648  1.2338 -0.6784
  192MOL0     H25907  10.502   2.928   3.638  2.4684 -0.7830 -2.1834
  192MOL0     H25908  10.848   2.883   3.335 -1.1180 -0.9361 -1.4819
  192MOL0     H25909  11.100   2.831   3.349 -1.0544 -2.2904 -2.5904
  192MOL0     H25910  11.205   2.554   3.699 -3.5995  1.3896 -0.9301
  192MOL0     H25911  11.176   2.435   3.577  0.8608 -1.0136  3.2509
  192MOL0     H25912  11.470   2.548   3.603  1.7050 -1.5131  1.6688
  192MOL0     H25913  11.396   2.478   3.463 -0.5356 -2.3259  0.8312
  192MOL0     H25914  11.349   2.274   3.584  0.3739 -0.5885  0.8826
  192MOL0     H25915  11.390   2.363   3.735  1.6655  1.5917  0.1295
  192MOL0     H25916  11.614   2.269   3.705  0.3270  1.1958 -0.3495
  192MOL0     H25917  11.630   2.387   3.592  1.0741 -0.9012 -1.5409
  192MOL0     H25918  11.562   2.069   3.332  2.6888  1.7473 -0.8656
  192MOL0     H25919  10.989   2.494   3.613 -1.0207  0.0664  0.1548
  192MOL0     H25920  10.763   2.523   3.546 -1.9802 -1.0354 -1.4900
  193MOL0     O25921   6.093   6.071   7.266 -0.6213  0.3020 -0.0116
  193MOL0     C25922   6.196   6.115   7.322  0.2273 -0.6647  0.4295
  193MOL0     O25923   6.199   6.181   7.442  0.0470 -0.0751  0.7009
  193MOL0     C25924   6.088   6.162   7.518  0.9984 -0.2287  0.1912
  193MOL0     C25925   6.098   6.054   7.603  0.1143 -0.7512  0.0813
  193MOL0     C25926   5.996   6.025   7.689 -0.3100 -0.0283 -0.2576
  193MOL0     C25927   5.868   6.086   7.678  0.3395  0.4373 -0.9195
  193MOL0     O25928   5.754   6.051   7.758 -0.0426 -0.6270  0.2436
  193MOL0     C25929   5.768   5.977   7.882  0.4407  0.9455  0.3551
  193MOL0     C25930   5.628   5.955   7.943  0.3837 -0.8586  0.0143
  193MOL0     C25931   5.563   6.087   8.006  0.7553  0.1936  0.8997
  193MOL0     C25932   5.524   6.066   8.150 -0.4228 -0.2359 -0.6423
  193MOL0     C25933   5.514   6.202   8.232 -0.2252 -0.1541 -0.2814
  193MOL0     C25934   5.417   6.306   8.163 -0.0630 -0.2647 -0.4096
  193MOL0     C25935   5.406   6.420   8.271  0.4561 -0.4629 -0.2709
  193MOL0     C25936   5.315   6.521   8.208  0.1965 -0.3419 -0.4170
  193MOL0     N25937   5.283   6.626   8.297 -1.1819 -0.4111  0.2803
  193MOL0     C25938   5.186   6.649   8.395  0.0140 -0.1677 -1.1130
  193MOL0     C25939   5.229   6.754   8.464  0.8358 -0.8255  0.7154
  193MOL0     C25940   5.164   6.816   8.582 -0.1658 -0.1459  0.1424
  193MOL0     C25941   5.040   6.900   8.566 -0.3485  0.0382  0.4626
  193MOL0     C25942   4.910   6.821   8.549  0.3416 -0.5606 -0.3126
  193MOL0     C25943   4.852   6.788   8.691 -0.4486  0.1802 -0.7133
  193MOL0     O25944   4.923   6.695   8.774  0.0554 -0.4576  0.1357
  193MOL0     C25945   4.861   6.633   8.878 -0.2741  0.0322 -0.9138
  193MOL0     C25946   4.718   6.643   8.914 -0.6126 -0.2498  0.0634
  193MOL0     C25947   4.667   6.545   9.005  0.6054  0.5632  0.4473
  193MOL0     C25948   4.518   6.560   9.035 -0.1677 -0.5500 -0.0573
  193MOL0     C25949   4.750   6.443   9.064  0.0739 -0.6459  0.2226
  193MOL0     C25950   4.698   6.342   9.161 -0.4181  0.0975 -0.1944
  193MOL0     O25951   4.797   6.276   9.229  0.1592 -0.1521 -0.5079
  193MOL0     C25952   4.757   6.194   9.334  0.3458  0.3425  0.4829
  193MOL0     C25953   4.843   6.208   9.445 -0.0254 -0.5739  0.5221
  193MOL0     C25954   4.828   6.130   9.555  0.1044 -0.3963 -0.4215
  193MOL0     C25955   4.725   6.032   9.556  0.1392 -0.4840 -0.6901
  193MOL0     O25956   4.731   5.949   9.665  0.0171 -0.4226  0.4328
  193MOL0     C25957   4.611   5.906   9.719  0.5380  0.7675  0.0484
  193MOL0     C25958   4.581   6.006   9.830 -0.1122  0.0550 -0.1928
  193MOL0     C25959   4.443   5.975   9.902  0.6862 -0.4872 -0.6676
  193MOL0     C25960   4.438   6.045  10.036  0.6983  0.9499 -0.9825
  193MOL0     C25961   4.295   6.028  10.111  1.3152  0.2538 -0.0309
  193MOL0     C25962   4.173   6.090  10.046  0.1257 -0.0639  0.2737
  193MOL0     C25963   4.049   6.099  10.143 -0.6052 -0.4124 -0.8744
  193MOL0     C25964   4.056   6.233  10.218 -0.3979  0.0381 -0.1599
  193MOL0    Cl25965   4.037   6.390  10.126  0.2868 -0.2252 -0.1663
  193MOL0     C25966   4.639   6.026   9.443 -0.4350  0.2736 -0.1737
  193MOL0     C25967   4.659   6.098   9.332 -0.2430 -0.1057 -0.9076
  193MOL0     O25968   4.579   6.329   9.178 -0.1567 -0.4975 -0.0063
  193MOL0     C25969   4.888   6.447   9.028  0.3758  0.2128 -0.4929
  193MOL0     C25970   4.942   6.542   8.939  0.0474 -0.0381  0.0126
  193MOL0     N25971   5.362   6.785   8.428  0.2194 -0.6179  0.1427
  193MOL0     N25972   5.390   6.710   8.328  0.1434 -0.0692  1.2074
  193MOL0     C25973   5.855   6.195   7.589  0.5435  0.4712 -0.5507
  193MOL0     C25974   5.972   6.238   7.513  0.3618 -0.2473  1.3223
  193MOL0     C25975   6.321   6.106   7.249 -0.6230  0.6200 -0.3272
  193MOL0     C25976   6.450   6.140   7.306  0.0435 -0.0109  0.0019
  193MOL0     C25977   6.563   6.125   7.230 -0.9571  0.2131  0.2377
  193MOL0     C25978   6.567   6.077   7.095  0.8276  0.0015 -0.2908
  193MOL0     O25979   6.671   6.070   7.010 -0.3251  0.6418  0.3706
  193MOL0     C25980   6.796   6.012   7.066 -0.2828 -0.0625 -0.3211
  193MOL0     C25981   6.890   6.127   7.096 -0.3961 -1.0689  0.3673
  193MOL0     C25982   7.025   6.076   7.140 -0.7732 -0.6720 -0.7085
  193MOL0     C25983   7.134   6.178   7.148  0.5171 -0.3871 -0.5232
  193MOL0     C25984   7.170   6.232   7.012  0.6594  0.0630 -0.1773
  193MOL0     C25985   7.205   6.258   6.896 -0.0938 -0.1384 -1.0734
  193MOL0     C25986   6.437   6.032   7.057 -0.9140  0.7764 -0.5595
  193MOL0     C25987   6.322   6.050   7.127 -0.3267 -0.6313 -0.3730
  193MOL0     H25988   6.191   5.999   7.604 -0.8619 -2.4777 -0.3029
  193MOL0     H25989   6.026   5.938   7.746 -1.3091  0.0932  0.4987
  193MOL0     H25990   5.811   5.881   7.849 -1.2117  0.4877 -0.5933
  193MOL0     H25991   5.817   6.031   7.963 -1.7541  0.0442  2.3905
  193MOL0     H25992   5.561   5.918   7.866 -1.7544 -1.0387  1.8623
  193MOL0     H25993   5.646   5.881   8.022 -1.6585 -0.9011  0.5059
  193MOL0     H25994   5.639   6.166   8.008  1.1909 -0.2270  2.2628
  193MOL0     H25995   5.490   6.127   7.936  0.7283  2.0884  1.9298
  193MOL0     H25996   5.430   6.013   8.168 -2.0575  3.0202  1.3569
  193MOL0     H25997   5.614   6.013   8.183 -0.4191 -0.3263 -0.8009
  193MOL0     H25998   5.488   6.171   8.333  5.4825 -2.6156  0.8265
  193MOL0     H25999   5.614   6.247   8.238  0.1263 -0.8482 -0.8910
  193MOL0     H26000   5.459   6.346   8.070  0.1825 -1.9848 -1.0710
  193MOL0     H26001   5.317   6.270   8.137  0.9355 -2.1122 -1.9123
  193MOL0     H26002   5.372   6.372   8.363  1.4311 -2.4998 -0.9285
  193MOL0     H26003   5.505   6.465   8.285 -0.1681  0.7537  0.4218
  193MOL0     H26004   5.224   6.473   8.171  0.8273 -2.0394  0.1256
  193MOL0     H26005   5.354   6.565   8.116 -3.6934  0.6660 -1.7693
  193MOL0     H26006   5.111   6.577   8.427  3.3086 -2.4855  2.2173
  193MOL0     H26007   5.138   6.737   8.654  0.2295  0.3728  0.8666
  193MOL0     H26008   5.234   6.887   8.626 -1.8208  0.1144  2.5471
  193MOL0     H26009   5.051   6.974   8.487  0.5560  0.3945  0.9031
  193MOL0     H26010   5.035   6.961   8.657 -1.0487  1.9115 -0.7852
  193MOL0     H26011   4.896   6.728   8.494 -1.7559 -0.9663  0.7755
  193MOL0     H26012   4.841   6.886   8.494 -0.4800  0.2875  1.6071
  193MOL0     H26013   4.750   6.753   8.675 -0.4216 -0.6015  0.6904
  193MOL0     H26014   4.844   6.885   8.741 -3.7676 -1.0869  1.5767
  193MOL0     H26015   4.654   6.717   8.867  1.0034 -0.2710 -2.4008
  193MOL0     H26016   4.463   6.481   8.982 -0.3955  0.6777 -1.6967
  193MOL0     H26017   4.498   6.555   9.143 -1.6936  0.7953 -0.2347
  193MOL0     H26018   4.475   6.654   9.002  2.1801  0.6819  0.1867
  193MOL0     H26019   4.921   6.277   9.417 -2.4139  1.0895 -2.7538
  193MOL0     H26020   4.903   6.152   9.630 -0.7916  1.1495  0.0702
  193MOL0     H26021   4.532   5.905   9.643  2.6431 -1.3291 -2.2795
  193MOL0     H26022   4.624   5.809   9.766  1.7857  1.8274  2.0443
  193MOL0     H26023   4.656   5.980   9.906 -0.2700  1.2233  0.3890
  193MOL0     H26024   4.592   6.110   9.799 -1.1644  0.2434  0.0192
  193MOL0     H26025   4.416   5.870   9.915 -2.1760  0.1902 -0.4211
  193MOL0     H26026   4.363   6.012   9.837 -0.7457  0.2368  1.3662
  193MOL0     H26027   4.522   6.009  10.097 -0.3043  1.8636  1.0507
  193MOL0     H26028   4.449   6.152  10.021 -1.8295  1.3844 -0.2218
  193MOL0     H26029   4.305   6.079  10.207 -1.4599  2.7869 -0.9312
  193MOL0     H26030   4.264   5.927  10.140 -1.3789  1.9072  3.5988
  193MOL0     H26031   4.206   6.191  10.022  3.3772 -1.3419 -1.0967
  193MOL0     H26032   4.145   6.033   9.957  2.6182  1.6602 -1.7175
  193MOL0     H26033   4.044   6.008  10.204  1.8017 -1.1802 -1.6900
  193MOL0     H26034   3.959   6.108  10.082 -0.8961  1.3574 -0.2545
  193MOL0     H26035   4.145   6.244  10.281 -1.7518  0.7722  1.7355
  193MOL0     H26036   3.972   6.233  10.289  1.2152  1.8287  1.8999
  193MOL0     H26037   4.558   5.953   9.443 -0.0956 -0.2191  3.0943
  193MOL0     H26038   4.588   6.070   9.255 -2.1477  1.0542  0.3313
  193MOL0     H26039   4.953   6.371   9.070  0.9046  0.8600 -0.1189
  193MOL0     H26040   5.049   6.542   8.918 -0.1567 -1.2567 -1.2378
  193MOL0     H26041   5.760   6.247   7.583 -0.2205 -0.6448  1.0800
  193MOL0     H26042   5.966   6.333   7.459 -2.6927 -1.4403 -0.7301
  193MOL0     H26043   6.462   6.179   7.406  1.6700 -1.4994  0.4253
  193MOL0     H26044   6.661   6.157   7.264 -1.0534  2.5469 -1.4165
  193MOL0     H26045   6.770   5.957   7.157  2.2878 -0.5632  0.1774
  193MOL0     H26046   6.845   5.945   6.994 -2.7177 -1.4998 -0.7428
  193MOL0     H26047   6.853   6.203   7.165 -0.7541 -0.1704 -0.7818
  193MOL0     H26048   6.914   6.183   7.005 -1.2535  0.6181  1.1440
  193MOL0     H26049   7.060   5.996   7.074 -1.4001 -0.0310 -1.8496
  193MOL0     H26050   7.005   6.024   7.234  0.8320  0.5257  0.3357
  193MOL0     H26051   7.226   6.131   7.186  0.0901  0.7229  2.0504
  193MOL0     H26052   7.101   6.257   7.215 -1.9528 -1.0284 -0.9088
  193MOL0     H26053   7.245   6.291   6.803  1.0053 -1.4021 -1.0859
  193MOL0     H26054   6.419   5.979   6.964 -1.5302 -2.5277  1.2925
  193MOL0     H26055   6.229   6.020   7.080 -0.4384 -1.1287  0.1639
  194MOL0     O26056   1.108   2.348   2.369  0.4157 -0.0534 -0.0144
  194MOL0     C26057   1.119   2.277   2.474 -0.6550 -0.0683  0.6227
  194MOL0     O26058   1.157   2.318   2.596  0.8380 -0.7880  1.1681
  194MOL0     C26059   1.141   2.447   2.626  0.4702 -0.4173  0.2476
  194MOL0     C26060   1.028   2.521   2.581 -0.2857  0.2718 -1.1270
  194MOL0     C26061   1.002   2.646   2.632  0.6751  0.8583  1.0997
  194MOL0     C26062   1.088   2.702   2.734  0.3852 -0.6124  0.1313
  194MOL0     O26063   1.063   2.831   2.772  0.2764 -0.4292  0.2730
  194MOL0     C26064   1.175   2.914   2.759 -0.9948  0.6294 -0.6450
  194MOL0     C26065   1.166   3.051   2.689  0.3598  0.2131  0.3770
  194MOL0     C26066   1.078   3.157   2.755 -0.3724  0.5501  0.0971
  194MOL0     C26067   0.997   3.251   2.670  0.2159  0.0301 -0.1856
  194MOL0     C26068   1.084   3.342   2.590  0.0936  1.0726  0.2983
  194MOL0     C26069   0.998   3.433   2.505 -0.7590  0.1398  1.1315
  194MOL0     C26070   1.083   3.499   2.406 -0.5597  0.0299 -0.0634
  194MOL0     C26071   1.120   3.642   2.442 -0.1135 -0.2711 -0.8329
  194MOL0     N26072   0.996   3.727   2.460 -0.0491  0.4266  1.2175
  194MOL0     C26073   0.906   3.750   2.359  0.0584  0.5495 -0.0926
  194MOL0     C26074   0.823   3.826   2.427  0.1629 -1.2833 -0.0082
  194MOL0     C26075   0.687   3.885   2.369 -0.4827  0.5089  1.1440
  194MOL0     C26076   0.572   3.888   2.454  1.3188 -0.3957  1.0133
  194MOL0     C26077   0.450   3.943   2.372 -0.5780 -0.2158  0.5670
  194MOL0     C26078   0.326   3.967   2.460  1.3997 -0.1115  0.3061
  194MOL0     O26079   0.283   4.101   2.465  0.2239 -0.6481 -0.1267
  194MOL0     C26080   0.157   4.136   2.489 -0.1440 -0.0567 -0.0257
  194MOL0     C26081   0.055   4.040   2.503  0.0928 -0.3713  0.0654
  194MOL0     C26082  -0.087   4.075   2.505 -0.8319  0.4248 -1.2758
  194MOL0     C26083  -0.180   3.961   2.542  1.1890  0.6948  0.2391
  194MOL0     C26084  -0.126   4.206   2.500 -0.4861 -0.4609 -0.3312
  194MOL0     C26085  -0.270   4.251   2.511  0.1615  0.6697 -0.5162
  194MOL0     O26086  -0.290   4.380   2.466  0.0340 -0.0367 -0.1136
  194MOL0     C26087  -0.409   4.447   2.488  0.2891  1.1281 -0.3943
  194MOL0     C26088  -0.408   4.588   2.519 -0.6945  0.0943  0.5037
  194MOL0     C26089  -0.523   4.655   2.532  0.6102 -0.9025 -0.7331
  194MOL0     C26090  -0.648   4.589   2.525 -0.4980  0.0396 -0.0839
  194MOL0     O26091  -0.759   4.663   2.550 -0.1859  0.6721 -0.8233
  194MOL0     C26092  -0.881   4.591   2.611 -0.2753 -1.1875 -0.1342
  194MOL0     C26093  -0.985   4.697   2.654 -0.0516 -0.5703 -0.1851
  194MOL0     C26094  -0.930   4.794   2.761 -1.1330 -0.0744 -0.3544
  194MOL0     C26095  -1.039   4.890   2.812 -0.6557  0.5107 -0.2534
  194MOL0     C26096  -1.026   4.970   2.942  0.2301  0.8536 -0.2014
  194MOL0     C26097  -1.009   4.871   3.064  0.1970  0.2260 -0.3548
  194MOL0     C26098  -1.009   4.948   3.198  0.0567  0.5927 -0.2173
  194MOL0     C26099  -0.995   4.861   3.320  0.0048 -0.1379  1.0008
  194MOL0    Cl26100  -1.129   4.751   3.337  0.1020  0.0465  0.1575
  194MOL0     C26101  -0.650   4.463   2.482 -0.1241  0.3660  0.2546
  194MOL0     C26102  -0.534   4.387   2.459 -0.2261 -0.0808  0.0925
  194MOL0     O26103  -0.358   4.182   2.557 -0.0675  0.3811  0.0502
  194MOL0     C26104  -0.019   4.298   2.490  0.3615  0.2647 -0.0673
  194MOL0     C26105   0.120   4.265   2.474  0.0415 -0.5843 -0.2218
  194MOL0     N26106   0.855   3.857   2.558  0.8437  0.2360  0.4301
  194MOL0     N26107   0.958   3.782   2.579  0.6626 -0.1194  0.1746
  194MOL0     C26108   1.208   2.635   2.776  0.2125  0.1427 -0.7636
  194MOL0     C26109   1.226   2.506   2.723 -0.2751 -0.1211  0.2442
  194MOL0     C26110   1.091   2.136   2.458 -0.3481  0.2199 -0.3957
  194MOL0     C26111   1.166   2.044   2.366  0.0903  0.2786 -0.5504
  194MOL0     C26112   1.137   1.912   2.360  0.0578 -0.1164 -0.7745
  194MOL0     C26113   1.034   1.858   2.437  0.9746 -0.2183 -0.1599
  194MOL0     O26114   0.993   1.725   2.428  0.6035 -0.4568  0.7265
  194MOL0     C26115   1.089   1.624   2.423 -0.6192 -1.0805 -0.3888
  194MOL0     C26116   1.094   1.562   2.280  0.3042  0.0063  0.1354
  194MOL0     C26117   1.137   1.411   2.277  0.2509  0.0419 -0.1754
  194MOL0     C26118   1.015   1.323   2.239 -0.8269 -0.7715 -0.5891
  194MOL0     C26119   1.056   1.178   2.231  0.8984 -0.4461 -0.7761
  194MOL0     C26120   1.069   1.065   2.202 -1.0951  0.1927 -0.3743
  194MOL0     C26121   0.963   1.940   2.521 -1.2929  0.9613 -0.6999
  194MOL0     C26122   0.988   2.079   2.537 -0.8287  0.3120 -0.4931
  194MOL0     H26123   0.956   2.484   2.509 -0.6851 -0.1443 -0.5164
  194MOL0     H26124   0.920   2.710   2.600 -0.0060  0.3383  1.7693
  194MOL0     H26125   1.228   2.919   2.854 -1.1519  2.6541 -0.6164
  194MOL0     H26126   1.249   2.869   2.693 -0.0829  1.6289 -0.3335
  194MOL0     H26127   1.267   3.091   2.674  0.3381 -0.5911 -2.3702
  194MOL0     H26128   1.130   3.030   2.588  0.4958  0.0709  0.3574
  194MOL0     H26129   1.006   3.118   2.828 -1.4188  2.6239  0.2507
  194MOL0     H26130   1.152   3.217   2.809 -1.3189  2.2529 -0.4296
  194MOL0     H26131   0.931   3.189   2.608 -1.4542 -0.9498  2.4078
  194MOL0     H26132   0.935   3.308   2.741 -0.3632 -1.4823  0.5700
  194MOL0     H26133   1.137   3.394   2.670 -0.9959 -0.0108  1.7734
  194MOL0     H26134   1.144   3.270   2.533 -1.3767 -0.0103  0.0670
  194MOL0     H26135   0.933   3.363   2.453  0.3287 -0.4661  0.5693
  194MOL0     H26136   0.932   3.501   2.560 -0.3534  1.0930  0.4659
  194MOL0     H26137   1.174   3.442   2.386 -0.5181 -0.0580  0.3677
  194MOL0     H26138   1.032   3.516   2.310 -1.9518  1.2368  0.8462
  194MOL0     H26139   1.197   3.689   2.380 -0.3690  3.0236  1.1377
  194MOL0     H26140   1.160   3.648   2.544  0.1617  0.7350 -0.9876
  194MOL0     H26141   0.902   3.719   2.255 -0.1680  0.4490 -0.0540
  194MOL0     H26142   0.703   3.978   2.313 -0.3657 -1.4966 -2.4894
  194MOL0     H26143   0.669   3.799   2.303  4.2494 -0.2888  0.5429
  194MOL0     H26144   0.603   3.946   2.541  1.5598 -1.3537  1.5843
  194MOL0     H26145   0.530   3.793   2.490 -2.2426  0.7112  0.2332
  194MOL0     H26146   0.423   3.870   2.296  0.2553 -1.7339  1.6751
  194MOL0     H26147   0.477   4.034   2.317  1.3711 -0.0906  1.6145
  194MOL0     H26148   0.349   3.926   2.559  3.7246 -0.9568 -0.5328
  194MOL0     H26149   0.246   3.906   2.419 -0.9288  3.1297 -0.3801
  194MOL0     H26150   0.080   3.935   2.516 -0.3520 -0.2560  2.2987
  194MOL0     H26151  -0.252   3.952   2.460  1.8019  3.7589 -0.7764
  194MOL0     H26152  -0.128   3.866   2.552  1.3859  0.8099  0.3081
  194MOL0     H26153  -0.234   3.986   2.634  0.6627  1.2255 -0.1993
  194MOL0     H26154  -0.309   4.630   2.529 -1.7586  2.9529  0.0146
  194MOL0     H26155  -0.517   4.762   2.554 -0.0998 -1.3337  2.0282
  194MOL0     H26156  -0.939   4.530   2.542 -1.7374  0.0984 -0.1169
  194MOL0     H26157  -0.846   4.529   2.694  1.2744  1.3391  1.2452
  194MOL0     H26158  -1.012   4.758   2.567 -2.8789  1.0740  1.6659
  194MOL0     H26159  -1.074   4.645   2.692  0.4414 -0.7498  0.7525
  194MOL0     H26160  -0.837   4.831   2.718 -1.1599 -1.7100 -1.9339
  194MOL0     H26161  -0.898   4.743   2.853  0.2547 -0.3199 -0.9527
  194MOL0     H26162  -1.059   4.965   2.734 -0.3070  1.2739  0.3846
  194MOL0     H26163  -1.126   4.830   2.840  0.9029 -1.3887  0.7059
  194MOL0     H26164  -1.117   5.026   2.963 -0.2049  0.5283 -1.1699
  194MOL0     H26165  -0.945   5.043   2.936 -0.9352  2.4650  2.2298
  194MOL0     H26166  -1.077   4.785   3.065  4.0783 -3.1776  1.5769
  194MOL0     H26167  -0.915   4.815   3.059  0.4552  0.5316  0.8211
  194MOL0     H26168  -1.102   5.006   3.196 -0.9370 -0.8682 -3.3610
  194MOL0     H26169  -0.921   5.012   3.200  1.6596 -1.5478  0.2356
  194MOL0     H26170  -0.989   4.936   3.399  0.2666 -1.7469  2.5635
  194MOL0     H26171  -0.905   4.799   3.319 -1.4263 -2.4258 -2.1594
  194MOL0     H26172  -0.747   4.417   2.462 -0.9115  0.6113  3.0699
  194MOL0     H26173  -0.553   4.293   2.408 -3.3002  0.4164  0.1511
  194MOL0     H26174  -0.042   4.404   2.499  3.1842  0.9192  0.4868
  194MOL0     H26175   0.186   4.350   2.460  0.2446 -0.7151 -0.0636
  194MOL0     H26176   1.278   2.673   2.850  0.4546 -1.7783  0.0577
  194MOL0     H26177   1.318   2.457   2.753 -0.0768  1.4078  2.3792
  194MOL0     H26178   1.245   2.078   2.299  1.7397 -1.6782  0.2736
  194MOL0     H26179   1.189   1.854   2.285  1.6179  3.1522 -2.3845
  194MOL0     H26180   1.184   1.659   2.463 -1.4805  0.3483  0.5480
  194MOL0     H26181   1.054   1.543   2.487 -0.6158 -2.4660 -2.0672
  194MOL0     H26182   1.168   1.620   2.223 -0.6996  0.3653 -0.8391
  194MOL0     H26183   0.999   1.566   2.225  1.0838 -2.0080 -1.4942
  194MOL0     H26184   1.178   1.370   2.370 -2.3923  0.8878  1.4891
  194MOL0     H26185   1.213   1.399   2.200  0.5062 -1.0765  0.2363
  194MOL0     H26186   0.959   1.349   2.149  0.5068 -0.4637 -1.3591
  194MOL0     H26187   0.940   1.322   2.319 -2.0238  0.1045 -1.6581
  194MOL0     H26188   1.084   0.961   2.178  3.3135  0.4473  0.3472
  194MOL0     H26189   0.877   1.901   2.575 -0.2462 -0.4109  0.0357
  194MOL0     H26190   0.925   2.143   2.598 -1.3737  0.2916 -1.0241
  195MOL0     O26191   5.784   2.806   0.978  0.5340 -0.7800 -0.1966
  195MOL0     C26192   5.834   2.701   1.020 -0.0942  0.6159 -0.6884
  195MOL0     O26193   5.779   2.574   1.011 -0.4472  0.4407  0.2542
  195MOL0     C26194   5.663   2.541   0.949 -0.5822  0.0197  0.6198
  195MOL0     C26195   5.648   2.413   0.916  0.1633 -0.1958  0.3783
  195MOL0     C26196   5.530   2.372   0.850 -0.1489 -0.2785  0.0502
  195MOL0     C26197   5.428   2.460   0.816  0.9295 -0.5653  0.1908
  195MOL0     O26198   5.312   2.397   0.773 -0.0254 -0.0490 -0.2354
  195MOL0     C26199   5.233   2.477   0.681 -0.2990  0.4705  0.2511
  195MOL0     C26200   5.198   2.370   0.574 -0.3309 -0.2284  0.1252
  195MOL0     C26201   5.105   2.419   0.456  0.4253  0.5834  0.4412
  195MOL0     C26202   4.969   2.457   0.505 -0.1770 -0.0741  0.1739
  195MOL0     C26203   4.855   2.425   0.405  0.1058 -0.4169 -0.3804
  195MOL0     C26204   4.723   2.481   0.456  0.3600  0.1771  0.3703
  195MOL0     C26205   4.595   2.404   0.407 -0.5176  0.4384 -0.2149
  195MOL0     C26206   4.471   2.485   0.426 -0.8110  0.5747  0.2595
  195MOL0     N26207   4.339   2.414   0.398  0.4111 -1.3270  0.0724
  195MOL0     C26208   4.285   2.438   0.271  0.8682  0.5449  0.5597
  195MOL0     C26209   4.190   2.343   0.258 -0.5752 -0.4303  0.2081
  195MOL0     C26210   4.128   2.314   0.127  0.0792  0.3231  0.5890
  195MOL0     C26211   3.997   2.228   0.136 -0.2584  0.8467 -0.7056
  195MOL0     C26212   3.942   2.228  -0.004  0.1505  0.2323  1.3199
  195MOL0     C26213   3.789   2.204  -0.022  0.2492 -0.3593 -0.2849
  195MOL0     O26214   3.759   2.266  -0.149  0.5410  0.7920 -0.0688
  195MOL0     C26215   3.626   2.284  -0.173 -0.6504 -0.1181  0.3122
  195MOL0     C26216   3.514   2.240  -0.099 -0.8537  0.4820  0.0980
  195MOL0     C26217   3.378   2.250  -0.133  0.1589 -0.4955  0.3713
  195MOL0     C26218   3.286   2.177  -0.043  0.6280 -1.0788  0.2497
  195MOL0     C26219   3.349   2.318  -0.255 -0.0333  0.1080  0.6014
  195MOL0     C26220   3.204   2.343  -0.295  0.2947 -0.1965  0.4137
  195MOL0     O26221   3.105   2.331  -0.201 -0.3603 -0.4323  0.0566
  195MOL0     C26222   2.970   2.321  -0.233  0.1883 -0.0067  0.1709
  195MOL0     C26223   2.887   2.391  -0.138 -0.9590  0.2745  0.6012
  195MOL0     C26224   2.748   2.378  -0.170 -0.7183  0.9395 -0.3067
  195MOL0     C26225   2.692   2.323  -0.282  0.1107  0.2900  0.7400
  195MOL0     O26226   2.557   2.341  -0.302  0.0835  0.9893 -0.4971
  195MOL0     C26227   2.492   2.242  -0.380 -0.0793 -0.8319 -0.5523
  195MOL0     C26228   2.356   2.292  -0.396 -0.1668 -0.5152  0.2989
  195MOL0     C26229   2.276   2.190  -0.485  0.0667 -0.0511 -0.3227
  195MOL0     C26230   2.123   2.204  -0.459 -0.8668 -0.4880 -0.3875
  195MOL0     C26231   2.034   2.113  -0.550 -0.3419  1.1770 -0.4252
  195MOL0     C26232   1.881   2.149  -0.523 -0.6143  0.5767 -0.4343
  195MOL0     C26233   1.834   2.108  -0.386 -0.1835  1.1116 -0.2103
  195MOL0     C26234   1.854   1.960  -0.369  1.3270  0.4430  0.1412
  195MOL0    Cl26235   1.820   1.851  -0.512  0.2311  0.3013  0.2813
  195MOL0     C26236   2.782   2.256  -0.371  0.7481 -0.2732 -0.1646
  195MOL0     C26237   2.915   2.264  -0.346  0.3613 -0.4725  0.1236
  195MOL0     O26238   3.186   2.370  -0.409  0.3499  0.0049  0.1383
  195MOL0     C26239   3.461   2.366  -0.330 -0.0058 -1.1810  0.1245
  195MOL0     C26240   3.596   2.342  -0.297  0.8265 -0.8348 -0.4473
  195MOL0     N26241   4.183   2.262   0.363 -0.4910 -0.1044 -0.0685
  195MOL0     N26242   4.281   2.296   0.443 -0.6975 -0.5896 -0.2825
  195MOL0     C26243   5.434   2.593   0.850 -1.1043 -0.4438  0.1557
  195MOL0     C26244   5.556   2.641   0.908  0.2133 -0.3156 -0.2085
  195MOL0     C26245   5.960   2.712   1.090 -0.6632  0.5979  0.7806
  195MOL0     C26246   6.035   2.832   1.092  0.6158  0.0628 -0.3365
  195MOL0     C26247   6.149   2.846   1.167 -0.1938 -1.0958 -0.3129
  195MOL0     C26248   6.194   2.733   1.246 -0.4177 -0.2096  0.1551
  195MOL0     O26249   6.313   2.724   1.321  0.5143  0.4897  0.5068
  195MOL0     C26250   6.357   2.852   1.366 -0.1746 -0.3052  0.0647
  195MOL0     C26251   6.459   2.830   1.483 -0.6453  0.2808  0.3028
  195MOL0     C26252   6.588   2.765   1.432 -0.0805 -0.6250  0.5760
  195MOL0     C26253   6.677   2.843   1.337 -0.8285 -0.3264 -0.3791
  195MOL0     C26254   6.803   2.779   1.301  0.6466 -0.9767  0.1863
  195MOL0     C26255   6.913   2.734   1.281  0.0511 -1.2162  0.7745
  195MOL0     C26256   6.126   2.611   1.241  0.2586  0.5045 -0.0140
  195MOL0     C26257   6.011   2.600   1.161 -0.5408 -0.5466  0.0768
  195MOL0     H26258   5.732   2.354   0.950  2.4086  2.7913  0.4460
  195MOL0     H26259   5.531   2.264   0.851  0.9816 -0.2916 -0.6926
  195MOL0     H26260   5.149   2.513   0.741  0.6592  0.6230  1.5368
  195MOL0     H26261   5.280   2.558   0.625 -1.1094  0.6150 -0.2345
  195MOL0     H26262   5.290   2.325   0.534 -0.0694  0.2367  0.1935
  195MOL0     H26263   5.141   2.297   0.633 -0.8576  1.9374  2.4538
  195MOL0     H26264   5.152   2.499   0.398  0.2525  1.5601  1.6090
  195MOL0     H26265   5.082   2.342   0.382 -1.9536  1.0506  0.6104
  195MOL0     H26266   4.944   2.409   0.600 -1.9446  2.0836  0.9042
  195MOL0     H26267   4.965   2.565   0.522 -0.8738 -0.1321  0.4293
  195MOL0     H26268   4.891   2.474   0.314  6.4577  0.3370  2.0307
  195MOL0     H26269   4.851   2.316   0.401 -1.6713 -0.3638 -0.8361
  195MOL0     H26270   4.723   2.487   0.566  1.0309 -2.1762  0.5346
  195MOL0     H26271   4.732   2.587   0.429  1.0442  0.2885  0.9917
  195MOL0     H26272   4.602   2.372   0.303 -0.0280  1.1578 -0.4150
  195MOL0     H26273   4.579   2.311   0.462 -1.0766  0.1649 -0.8388
  195MOL0     H26274   4.470   2.575   0.363  1.6233 -0.5009 -1.4695
  195MOL0     H26275   4.465   2.503   0.534  0.4530 -1.4609  0.7223
  195MOL0     H26276   4.321   2.504   0.193 -0.8092 -0.8874 -1.5355
  195MOL0     H26277   4.107   2.408   0.077 -0.0494  0.3306  0.6582
  195MOL0     H26278   4.196   2.256   0.063 -3.9827 -1.3559 -2.7142
  195MOL0     H26279   3.930   2.277   0.207  0.1440 -0.2382  0.4632
  195MOL0     H26280   4.011   2.128   0.179 -0.3363  2.2888  3.0659
  195MOL0     H26281   3.994   2.153  -0.064 -4.7289 -2.3495 -0.1412
  195MOL0     H26282   3.966   2.325  -0.050  2.3209 -1.0761 -0.5136
  195MOL0     H26283   3.739   2.257   0.059  0.3357 -0.7140  0.0064
  195MOL0     H26284   3.760   2.098  -0.019  0.4201 -0.4334  3.8712
  195MOL0     H26285   3.539   2.197  -0.003  0.1707  0.4738 -0.1602
  195MOL0     H26286   3.199   2.233  -0.009  0.9384 -1.1010  1.1051
  195MOL0     H26287   3.247   2.084  -0.087  4.1388 -1.4819 -2.4431
  195MOL0     H26288   3.342   2.148   0.047  0.0498  0.3230  1.1047
  195MOL0     H26289   2.918   2.458  -0.059 -1.7273  0.0861  1.0746
  195MOL0     H26290   2.685   2.425  -0.095  2.4600 -0.0858  3.3494
  195MOL0     H26291   2.547   2.232  -0.473  1.0326 -4.3805  0.3346
  195MOL0     H26292   2.489   2.145  -0.330 -2.9634 -0.3768  0.3256
  195MOL0     H26293   2.298   2.307  -0.305 -2.1660  0.4702 -1.0607
  195MOL0     H26294   2.351   2.394  -0.434  1.0848 -0.2617  0.7548
  195MOL0     H26295   2.302   2.087  -0.459  0.9573  1.0616  4.0175
  195MOL0     H26296   2.303   2.199  -0.590 -1.3208 -0.8895 -0.7662
  195MOL0     H26297   2.091   2.164  -0.362 -4.4339 -1.5702 -1.8558
  195MOL0     H26298   2.084   2.306  -0.469 -0.5277 -0.5359 -2.5591
  195MOL0     H26299   2.061   2.007  -0.538 -2.5324  0.5468 -0.6300
  195MOL0     H26300   2.052   2.139  -0.654 -1.4665  1.4826 -0.5515
  195MOL0     H26301   1.870   2.257  -0.537  0.4157  1.0441  1.9649
  195MOL0     H26302   1.815   2.102  -0.596 -0.1454  0.9932 -1.1407
  195MOL0     H26303   1.728   2.138  -0.390  0.5745  3.9959 -1.2347
  195MOL0     H26304   1.888   2.164  -0.309 -1.5858  1.8091  0.3211
  195MOL0     H26305   1.785   1.922  -0.294 -0.7626  0.1916 -1.7854
  195MOL0     H26306   1.957   1.941  -0.336  0.9971 -0.9955  0.4044
  195MOL0     H26307   2.741   2.201  -0.455  0.1496 -3.0962  1.8247
  195MOL0     H26308   2.980   2.210  -0.414  1.6090  2.4564 -1.1688
  195MOL0     H26309   3.434   2.413  -0.424 -1.5616 -4.3413 -1.1539
  195MOL0     H26310   3.681   2.380  -0.354  1.2032  0.5164  0.9451
  195MOL0     H26311   5.346   2.657   0.844  0.3251  1.8545  1.8096
  195MOL0     H26312   5.563   2.744   0.943 -1.4975  0.0827 -0.9817
  195MOL0     H26313   6.003   2.914   1.028 -2.5829 -0.7097  0.1209
  195MOL0     H26314   6.196   2.944   1.164 -1.0933 -0.6663 -0.9310
  195MOL0     H26315   6.390   2.910   1.279  0.2978  0.3452  0.6715
  195MOL0     H26316   6.272   2.906   1.408 -0.1417 -0.2986  0.1219
  195MOL0     H26317   6.418   2.750   1.545 -1.1161  0.4555  0.2159
  195MOL0     H26318   6.477   2.920   1.542  0.9365 -1.1614  2.1390
  195MOL0     H26319   6.565   2.677   1.371  1.1227 -0.9148  0.5305
  195MOL0     H26320   6.646   2.723   1.515  0.8154 -1.6321 -0.5184
  195MOL0     H26321   6.686   2.945   1.377 -4.0699  0.4573 -1.3391
  195MOL0     H26322   6.621   2.856   1.244  0.2569 -2.3622 -1.3884
  195MOL0     H26323   6.999   2.681   1.246  0.0627 -1.4184  1.1054
  195MOL0     H26324   6.165   2.531   1.304  1.0607  0.3026 -0.7489
  195MOL0     H26325   5.952   2.509   1.166 -2.2588  0.5988  2.5028
  196MOL0     O26326   1.987   2.956   3.706 -0.9148  0.2068  0.1180
  196MOL0     C26327   2.037   2.976   3.812  0.0684  0.3948  0.0435
  196MOL0     O26328   1.985   2.941   3.937  0.2310 -0.5428  0.5333
  196MOL0     C26329   1.858   2.879   3.950 -0.6091  0.5833  0.4055
  196MOL0     C26330   1.742   2.890   3.869  0.7168 -0.7558 -0.1237
  196MOL0     C26331   1.617   2.833   3.909 -0.3299  0.4181  0.5244
  196MOL0     C26332   1.612   2.774   4.036 -1.0708  0.1419 -0.0971
  196MOL0     O26333   1.500   2.720   4.087  0.2710 -0.4093 -0.6117
  196MOL0     C26334   1.381   2.716   4.012  0.4229 -0.4215 -0.4536
  196MOL0     C26335   1.283   2.671   4.117 -0.5783 -0.1044 -0.3556
  196MOL0     C26336   1.153   2.640   4.046 -0.0495 -0.3446  0.1429
  196MOL0     C26337   1.033   2.624   4.137 -0.9040  1.1369 -0.8058
  196MOL0     C26338   0.917   2.555   4.073  0.3623 -0.1078 -0.1958
  196MOL0     C26339   0.939   2.415   4.016  1.1905  1.3510  0.1016
  196MOL0     C26340   0.825   2.336   3.955  0.1442 -0.1674  0.2693
  196MOL0     C26341   0.707   2.294   4.049 -0.6719  0.4505  0.6375
  196MOL0     N26342   0.596   2.233   3.971 -0.0715 -0.7049 -0.0107
  196MOL0     C26343   0.587   2.132   3.879 -0.6644  0.1636 -0.2563
  196MOL0     C26344   0.460   2.115   3.850  0.9646  0.0056  0.3080
  196MOL0     C26345   0.405   2.009   3.754 -0.1529  0.0620  0.0963
  196MOL0     C26346   0.485   2.002   3.613 -0.0132  0.3428  0.1639
  196MOL0     C26347   0.511   2.143   3.548 -0.6243 -0.4029  0.7491
  196MOL0     C26348   0.643   2.125   3.463  0.2154 -0.1325 -0.0894
  196MOL0     O26349   0.755   2.135   3.556 -0.5753  0.1380 -0.8077
  196MOL0     C26350   0.882   2.121   3.516 -1.0865  0.3810 -0.1156
  196MOL0     C26351   0.972   2.153   3.620 -0.7727 -0.3862 -0.0173
  196MOL0     C26352   1.108   2.135   3.582  0.6190  0.0351 -1.0080
  196MOL0     C26353   1.204   2.183   3.687  0.1778  0.0434  0.1171
  196MOL0     C26354   1.148   2.109   3.449 -0.7288 -0.6210  0.4040
  196MOL0     C26355   1.294   2.111   3.409 -0.4927 -0.7963 -0.1678
  196MOL0     O26356   1.331   2.155   3.289  0.3051 -0.6978  0.8055
  196MOL0     C26357   1.464   2.180   3.268 -0.4257 -0.2602  0.3344
  196MOL0     C26358   1.507   2.154   3.136 -0.0710  0.0280  1.0224
  196MOL0     C26359   1.637   2.182   3.088 -1.1239  0.0324 -0.0195
  196MOL0     C26360   1.730   2.229   3.181 -0.3486  0.6320 -0.3943
  196MOL0     O26361   1.874   2.233   3.162  0.4871  0.0128  0.1281
  196MOL0     C26362   1.915   2.182   3.031  0.4123  0.7990  0.2322
  196MOL0     C26363   2.067   2.197   3.027 -0.1372 -0.2624  0.0393
  196MOL0     C26364   2.133   2.163   2.895  0.8447 -0.5468  0.5513
  196MOL0     C26365   2.286   2.209   2.891  0.9811  0.3550 -0.2611
  196MOL0     C26366   2.356   2.207   2.757  0.6980 -0.1633 -0.6079
  196MOL0     C26367   2.502   2.238   2.773  0.3581  0.6651  0.2550
  196MOL0     C26368   2.582   2.221   2.644  0.9064  0.2647 -0.0160
  196MOL0     C26369   2.558   2.329   2.549 -0.4786  0.2895 -0.2267
  196MOL0    Cl26370   2.659   2.300   2.392  0.0501  0.0475 -0.5605
  196MOL0     C26371   1.688   2.265   3.311 -0.2829  0.4778 -0.9440
  196MOL0     C26372   1.556   2.242   3.353 -0.2789 -1.3060  0.6424
  196MOL0     O26373   1.372   2.066   3.489  0.4150 -0.3104 -0.3680
  196MOL0     C26374   1.057   2.084   3.348  0.8580 -0.0443 -0.0229
  196MOL0     C26375   0.923   2.095   3.388  0.4549 -0.1176  0.1265
  196MOL0     N26376   0.384   2.215   3.911 -0.1265 -1.3754  0.1875
  196MOL0     N26377   0.469   2.297   3.969 -0.2746 -0.1366 -1.2918
  196MOL0     C26378   1.722   2.775   4.122  0.4415 -0.1996 -0.3360
  196MOL0     C26379   1.845   2.814   4.067 -0.0681  0.3220 -0.4410
  196MOL0     C26380   2.175   3.032   3.806 -0.3814  0.2893 -0.3684
  196MOL0     C26381   2.235   3.061   3.681 -1.0261 -0.1379 -0.1791
  196MOL0     C26382   2.363   3.099   3.688  0.1026  0.0887  0.3366
  196MOL0     C26383   2.433   3.099   3.806 -0.2146  0.2544 -0.3688
  196MOL0     O26384   2.564   3.139   3.819  0.2742  0.0744 -0.3228
  196MOL0     C26385   2.639   3.180   3.709  0.3191  0.1377  0.2266
  196MOL0     C26386   2.777   3.184   3.751 -0.9999 -0.3883  0.5607
  196MOL0     C26387   2.868   3.204   3.628  0.0910  0.0141 -0.2561
  196MOL0     C26388   3.015   3.204   3.673  0.4046  0.0537 -0.8730
  196MOL0     C26389   3.118   3.239   3.573 -0.2779  0.3449 -0.1944
  196MOL0     C26390   3.203   3.276   3.493  0.0938 -0.3442 -0.5390
  196MOL0     C26391   2.375   3.061   3.922  0.5463  0.0605 -0.4869
  196MOL0     C26392   2.247   3.019   3.924 -0.4382 -0.1532  0.3895
  196MOL0     H26393   1.743   2.944   3.774  1.8436  2.9437  1.8178
  196MOL0     H26394   1.531   2.847   3.843 -1.5260 -1.3864  1.6314
  196MOL0     H26395   1.354   2.815   3.975 -0.9817 -1.7570 -3.3471
  196MOL0     H26396   1.385   2.655   3.922 -0.1094 -0.7239 -0.2773
  196MOL0     H26397   1.322   2.577   4.157 -2.1625 -1.3207 -1.5460
  196MOL0     H26398   1.274   2.758   4.183  0.3945  0.4322 -0.9081
  196MOL0     H26399   1.132   2.726   3.981  1.0060 -1.2308 -1.4398
  196MOL0     H26400   1.167   2.560   3.972 -2.2245  0.3255 -1.0826
  196MOL0     H26401   1.051   2.571   4.231 -1.0561  2.6362  0.0998
  196MOL0     H26402   1.014   2.729   4.160 -3.8484  0.5109  0.0584
  196MOL0     H26403   0.835   2.545   4.145  0.3349  1.7748  0.0732
  196MOL0     H26404   0.877   2.607   3.986  0.1684 -2.0564 -1.3301
  196MOL0     H26405   1.002   2.419   3.926 -2.3108  1.3485 -2.5325
  196MOL0     H26406   0.984   2.354   4.095  0.7878  0.4336 -0.3618
  196MOL0     H26407   0.791   2.389   3.866 -0.4885 -2.7705 -1.1446
  196MOL0     H26408   0.860   2.237   3.926 -0.0840 -0.7863  1.9892
  196MOL0     H26409   0.668   2.382   4.101 -1.3768  0.9830 -0.7400
  196MOL0     H26410   0.739   2.214   4.116 -1.8705 -1.3877 -0.8916
  196MOL0     H26411   0.669   2.070   3.842 -2.4446 -1.8888 -0.9579
  196MOL0     H26412   0.427   1.910   3.796  0.6224 -0.5586 -1.6367
  196MOL0     H26413   0.297   2.014   3.738 -0.4124 -1.0540  1.3659
  196MOL0     H26414   0.426   1.946   3.540 -0.7394 -0.6205  1.4452
  196MOL0     H26415   0.581   1.953   3.633  0.1221  0.5030 -0.0883
  196MOL0     H26416   0.534   2.220   3.623  2.9521  1.5164 -2.0042
  196MOL0     H26417   0.435   2.182   3.480  1.2031  1.4544 -0.3512
  196MOL0     H26418   0.650   2.212   3.396 -1.2565 -0.5285 -0.8008
  196MOL0     H26419   0.636   2.026   3.417  1.6514 -1.6103  2.6700
  196MOL0     H26420   0.938   2.180   3.719 -0.4729 -1.1539  0.3006
  196MOL0     H26421   1.263   2.096   3.716  0.5927  0.5916  0.9541
  196MOL0     H26422   1.260   2.271   3.653 -4.1781  2.6336 -1.0570
  196MOL0     H26423   1.139   2.206   3.771 -1.7654 -0.0836 -1.3004
  196MOL0     H26424   1.437   2.106   3.068  2.5608 -0.5746 -1.4300
  196MOL0     H26425   1.663   2.153   2.987  1.9929 -0.1104  0.7249
  196MOL0     H26426   1.899   2.074   3.029  2.3380  0.4719  0.9247
  196MOL0     H26427   1.871   2.235   2.946 -1.4141 -1.3364 -0.2436
  196MOL0     H26428   2.092   2.303   3.037 -0.7103  0.0077 -1.2027
  196MOL0     H26429   2.115   2.142   3.108  2.4146  1.1356 -0.4100
  196MOL0     H26430   2.075   2.203   2.811  0.5399 -0.1583  0.9400
  196MOL0     H26431   2.123   2.056   2.880  1.3968 -0.3109 -1.9410
  196MOL0     H26432   2.304   2.304   2.941 -0.2014  0.3500  0.1941
  196MOL0     H26433   2.335   2.136   2.957 -0.0312  1.6530  2.0395
  196MOL0     H26434   2.303   2.286   2.704 -1.6632  0.3841  2.2855
  196MOL0     H26435   2.344   2.109   2.710  1.9881 -1.2400  1.1662
  196MOL0     H26436   2.514   2.339   2.814  0.6052  0.4754  0.6493
  196MOL0     H26437   2.542   2.178   2.855 -2.0003  2.9918  3.3717
  196MOL0     H26438   2.560   2.130   2.586  1.2422  0.0305  0.2213
  196MOL0     H26439   2.686   2.222   2.677  0.5256  0.1071  1.2208
  196MOL0     H26440   2.584   2.429   2.583  0.2079 -0.1941  0.7355
  196MOL0     H26441   2.457   2.346   2.512 -0.4195  1.8669  0.2753
  196MOL0     H26442   1.765   2.306   3.376 -0.0606  1.9348 -2.0830
  196MOL0     H26443   1.543   2.262   3.459  0.0967 -1.2928  0.6866
  196MOL0     H26444   1.096   2.072   3.248  2.5776  1.5792  0.3881
  196MOL0     H26445   0.852   2.074   3.309  0.3013  1.9242 -0.3201
  196MOL0     H26446   1.714   2.720   4.215  2.0147 -1.2656 -0.7834
  196MOL0     H26447   1.925   2.812   4.140 -0.3791 -0.0785 -0.1064
  196MOL0     H26448   2.168   3.059   3.596 -2.2263 -1.5128  0.7357
  196MOL0     H26449   2.413   3.135   3.598 -0.3496 -1.7665 -0.7044
  196MOL0     H26450   2.623   3.116   3.621 -0.1665 -0.2175  0.5639
  196MOL0     H26451   2.604   3.280   3.680  2.9864  0.1889 -3.6100
  196MOL0     H26452   2.805   3.091   3.801 -0.8991 -0.8538 -0.3505
  196MOL0     H26453   2.784   3.274   3.814 -0.2113 -0.2236  0.2567
  196MOL0     H26454   2.854   3.296   3.571 -0.4497  0.0628 -0.0455
  196MOL0     H26455   2.860   3.118   3.560 -1.1851 -0.5202  0.5417
  196MOL0     H26456   3.036   3.106   3.716  0.6297  1.3286  2.1760
  196MOL0     H26457   3.034   3.268   3.760 -0.6077 -1.2369  0.3486
  196MOL0     H26458   3.284   3.304   3.429  0.4228 -3.0637 -1.4469
  196MOL0     H26459   2.428   3.066   4.016  0.6514 -1.3555 -0.4599
  196MOL0     H26460   2.204   2.967   4.010 -0.2350 -1.2813 -0.1749
  197MOL0     O26461   9.624   2.427   6.996 -0.0652  0.1309  0.2636
  197MOL0     C26462   9.671   2.545   6.999 -0.3414 -0.4835  0.7595
  197MOL0     O26463   9.628   2.653   7.076 -0.5538  0.6052  0.2526
  197MOL0     C26464   9.527   2.644   7.164 -0.2948  0.2100  0.2219
  197MOL0     C26465   9.545   2.688   7.299  0.2932 -0.5676  0.3784
  197MOL0     C26466   9.439   2.665   7.391  0.1938 -0.0065  0.1604
  197MOL0     C26467   9.319   2.604   7.359 -0.1130  0.5464 -0.0202
  197MOL0     O26468   9.218   2.589   7.452  0.6146 -0.7264  0.1298
  197MOL0     C26469   9.094   2.649   7.422  1.2569 -0.4181  0.2830
  197MOL0     C26470   9.064   2.753   7.538 -0.2690  0.6971 -0.4127
  197MOL0     C26471   8.921   2.799   7.568 -0.0415  0.3002  0.1080
  197MOL0     C26472   8.938   2.936   7.619 -0.2810 -0.5296  0.3662
  197MOL0     C26473   8.808   3.001   7.676  0.7104  0.0223  0.4063
  197MOL0     C26474   8.678   3.004   7.592  0.6952  0.3275  1.4858
  197MOL0     C26475   8.682   3.119   7.493 -0.1763  0.1204 -0.1912
  197MOL0     C26476   8.568   3.127   7.400 -0.2038  0.5959 -0.1720
  197MOL0     N26477   8.582   3.232   7.300  0.3262  1.3621  0.0555
  197MOL0     C26478   8.688   3.240   7.205  0.2300 -0.0965  0.1929
  197MOL0     C26479   8.661   3.351   7.143  0.4339  0.8100  0.2015
  197MOL0     C26480   8.747   3.413   7.032 -0.9469 -0.1397 -0.3091
  197MOL0     C26481   8.749   3.339   6.901 -0.3047 -0.3840 -0.3412
  197MOL0     C26482   8.619   3.335   6.834  0.4572  0.1637 -0.3393
  197MOL0     C26483   8.566   3.467   6.776 -0.5816  0.0255  0.7696
  197MOL0     O26484   8.450   3.448   6.705  0.0877  0.3511 -0.0299
  197MOL0     C26485   8.327   3.427   6.768 -0.1059  0.3635  0.0810
  197MOL0     C26486   8.302   3.459   6.902 -0.5513  0.3213 -0.1427
  197MOL0     C26487   8.181   3.427   6.960 -0.3159  0.4328 -0.3407
  197MOL0     C26488   8.165   3.464   7.102  0.6189  0.8307  0.3447
  197MOL0     C26489   8.078   3.356   6.884 -0.4625  0.5748 -0.1764
  197MOL0     C26490   7.954   3.307   6.942 -0.4181  0.9903 -0.5326
  197MOL0     O26491   7.859   3.273   6.851 -0.1698 -0.6660  0.7389
  197MOL0     C26492   7.775   3.182   6.899 -0.1784 -0.9630  0.4218
  197MOL0     C26493   7.679   3.202   6.997 -0.3536  0.2688  0.3203
  197MOL0     C26494   7.583   3.108   7.030 -0.1700  0.2733 -0.0427
  197MOL0     C26495   7.597   2.975   6.981 -0.0709  0.3601  0.2633
  197MOL0     O26496   7.511   2.873   7.004 -0.5113 -0.3758  0.2233
  197MOL0     C26497   7.480   2.858   7.135 -0.1920 -0.4812  0.5007
  197MOL0     C26498   7.419   2.718   7.178 -0.7451 -0.3487 -0.4187
  197MOL0     C26499   7.434   2.688   7.331 -0.4156  0.5880  0.0882
  197MOL0     C26500   7.394   2.545   7.367 -0.2608 -0.9543 -0.8398
  197MOL0     C26501   7.418   2.513   7.518  0.6358 -0.5873  0.6199
  197MOL0     C26502   7.401   2.363   7.545  0.1372 -0.7725  1.4707
  197MOL0     C26503   7.423   2.328   7.688 -0.2179 -0.6733  0.5644
  197MOL0     C26504   7.370   2.189   7.720 -0.8507  0.2947 -0.6028
  197MOL0    Cl26505   7.427   2.057   7.614 -0.1855  0.1068  0.1338
  197MOL0     C26506   7.702   2.945   6.889 -0.7819  0.0686 -0.8293
  197MOL0     C26507   7.785   3.049   6.847 -0.1305 -0.1176  0.2967
  197MOL0     O26508   7.955   3.274   7.064 -0.0254 -0.6405 -0.0819
  197MOL0     C26509   8.114   3.326   6.750  0.2107  0.1268 -0.1723
  197MOL0     C26510   8.224   3.369   6.688 -1.0815 -0.7680  0.3226
  197MOL0     N26511   8.545   3.407   7.189 -0.3944  0.2055 -0.2598
  197MOL0     N26512   8.506   3.340   7.293  0.0732  0.1757 -0.1731
  197MOL0     C26513   9.304   2.561   7.225 -0.4667 -0.0870  0.4693
  197MOL0     C26514   9.413   2.570   7.135  0.4349  0.0480  0.5886
  197MOL0     C26515   9.762   2.587   6.884 -0.0257  0.4649  0.1268
  197MOL0     C26516   9.855   2.689   6.899  0.5304  0.9795  0.3283
  197MOL0     C26517   9.956   2.710   6.802  0.2137 -0.0411  0.1490
  197MOL0     C26518   9.961   2.629   6.690  0.2542  0.2269 -0.3494
  197MOL0     O26519  10.061   2.641   6.602  0.6215  0.3329 -0.1731
  197MOL0     C26520  10.185   2.573   6.640 -0.7923  0.7375  0.2700
  197MOL0     C26521  10.188   2.422   6.613 -0.0687  0.4797 -0.1147
  197MOL0     C26522  10.218   2.335   6.741  0.3447  0.2661 -0.1099
  197MOL0     C26523  10.355   2.349   6.800  0.6413  0.1966 -0.2916
  197MOL0     C26524  10.476   2.314   6.717  1.3694  0.1407  0.5530
  197MOL0     C26525  10.569   2.278   6.643  0.7139 -0.2162  0.1551
  197MOL0     C26526   9.857   2.539   6.661  0.5624 -0.0080 -0.7141
  197MOL0     C26527   9.762   2.510   6.763 -0.1929 -0.5219  0.7203
  197MOL0     H26528   9.629   2.752   7.325  0.2244  0.2404 -1.2690
  197MOL0     H26529   9.452   2.696   7.494 -1.0527  0.2296  0.2665
  197MOL0     H26530   9.083   2.698   7.325  2.2839  1.1767  0.9328
  197MOL0     H26531   9.007   2.582   7.419 -2.1207  3.5189  0.5290
  197MOL0     H26532   9.094   2.715   7.636  3.8675 -1.3302 -2.2148
  197MOL0     H26533   9.144   2.826   7.526  0.4399  0.5701  2.7986
  197MOL0     H26534   8.870   2.801   7.471 -1.3834 -0.2104  0.7746
  197MOL0     H26535   8.874   2.726   7.634 -1.2888  2.6380  1.9805
  197MOL0     H26536   9.017   2.947   7.694 -0.3853  3.1563  0.1347
  197MOL0     H26537   8.974   2.995   7.534  0.7387  1.1469  1.8750
  197MOL0     H26538   8.781   2.967   7.777  0.1901  2.4311  1.1538
  197MOL0     H26539   8.825   3.106   7.704  0.6478 -0.0672  0.7884
  197MOL0     H26540   8.657   2.910   7.541  2.3237 -0.6057  2.4364
  197MOL0     H26541   8.598   3.022   7.664  0.0593  1.4293  0.5510
  197MOL0     H26542   8.693   3.214   7.544  0.8438  0.7743 -1.5785
  197MOL0     H26543   8.773   3.108   7.433 -1.4374  0.5820 -2.2952
  197MOL0     H26544   8.472   3.142   7.451 -0.9215  0.1544 -1.3375
  197MOL0     H26545   8.553   3.031   7.348  1.8060 -0.3615  0.9148
  197MOL0     H26546   8.751   3.165   7.158 -0.9344 -1.8632  1.3373
  197MOL0     H26547   8.709   3.513   7.013 -1.1953 -0.5909 -2.4448
  197MOL0     H26548   8.849   3.426   7.071  0.1520  1.1172 -3.3035
  197MOL0     H26549   8.764   3.235   6.929 -2.1358 -0.5568  0.1373
  197MOL0     H26550   8.830   3.372   6.835  1.0443 -1.8230  0.5315
  197MOL0     H26551   8.539   3.289   6.894  1.2066 -2.4720 -1.2400
  197MOL0     H26552   8.614   3.266   6.749 -0.3424  0.2703 -0.3899
  197MOL0     H26553   8.651   3.492   6.710 -0.1898 -0.6630  1.0065
  197MOL0     H26554   8.555   3.539   6.857  0.6945 -0.2475  1.2105
  197MOL0     H26555   8.382   3.502   6.961  0.5047 -0.6861 -0.8004
  197MOL0     H26556   8.251   3.522   7.135  1.3967  0.2878 -0.6756
  197MOL0     H26557   8.074   3.523   7.116  1.8849  2.4655  2.3507
  197MOL0     H26558   8.158   3.373   7.163 -0.8849  1.1535  0.6982
  197MOL0     H26559   7.689   3.295   7.053 -0.0133  0.5142 -0.1395
  197MOL0     H26560   7.518   3.137   7.112  0.4808 -0.3759  0.7289
  197MOL0     H26561   7.561   2.880   7.206 -1.1890 -2.4144  2.3372
  197MOL0     H26562   7.400   2.929   7.155 -1.3541 -1.4661 -0.5486
  197MOL0     H26563   7.311   2.729   7.166 -0.8952  2.3942  2.1417
  197MOL0     H26564   7.468   2.640   7.120  1.9665 -0.2216  1.4813
  197MOL0     H26565   7.373   2.759   7.388 -1.6969 -0.2203 -0.2471
  197MOL0     H26566   7.541   2.696   7.352 -0.3453  1.6763 -0.6518
  197MOL0     H26567   7.289   2.531   7.339 -0.0266 -0.1166 -2.1907
  197MOL0     H26568   7.443   2.468   7.307  0.2687  0.0067 -1.6568
  197MOL0     H26569   7.344   2.559   7.584  2.4402  1.0196  1.6177
  197MOL0     H26570   7.515   2.545   7.556  0.3180 -2.2757  3.1174
  197MOL0     H26571   7.298   2.327   7.528  0.9680 -4.7520  3.6278
  197MOL0     H26572   7.475   2.301   7.493  0.5196  0.1313  0.9194
  197MOL0     H26573   7.374   2.408   7.745 -0.9865  1.1989 -2.5002
  197MOL0     H26574   7.531   2.326   7.706  0.6813 -2.4447 -3.7316
  197MOL0     H26575   7.261   2.191   7.710 -0.7681  2.7330 -1.7355
  197MOL0     H26576   7.398   2.168   7.823 -1.9084 -1.0700 -0.5643
  197MOL0     H26577   7.725   2.847   6.849 -0.8682 -0.0837 -0.5080
  197MOL0     H26578   7.861   3.014   6.778  0.3859 -0.9518  1.2666
  197MOL0     H26579   8.054   3.257   6.692  0.4157 -0.2137  0.0151
  197MOL0     H26580   8.231   3.348   6.581  2.8427 -1.2954  0.5202
  197MOL0     H26581   9.219   2.507   7.185  1.5600 -3.7901  0.8094
  197MOL0     H26582   9.393   2.534   7.035  0.5610  1.5423 -0.0028
  197MOL0     H26583   9.853   2.742   6.994  0.1153  0.6696  0.4991
  197MOL0     H26584  10.042   2.774   6.814  4.3024 -4.1429 -3.2547
  197MOL0     H26585  10.256   2.628   6.578  0.1137 -1.0378 -0.3499
  197MOL0     H26586  10.199   2.598   6.745  1.1805  1.1739 -0.0691
  197MOL0     H26587  10.256   2.406   6.529 -0.0839  1.9817 -0.4446
  197MOL0     H26588  10.085   2.391   6.591  0.1484 -0.1991 -0.1899
  197MOL0     H26589  10.209   2.230   6.712  3.5340 -0.6488  1.7388
  197MOL0     H26590  10.153   2.369   6.823 -1.1799  1.1933 -1.6351
  197MOL0     H26591  10.358   2.274   6.879  0.1907  0.5866  0.1056
  197MOL0     H26592  10.370   2.450   6.839 -1.0569  0.2387  0.3018
  197MOL0     H26593  10.648   2.244   6.579  3.0009  3.5635  0.6432
  197MOL0     H26594   9.869   2.474   6.575 -0.8140 -2.8774  1.1153
  197MOL0     H26595   9.697   2.424   6.752 -3.7217  1.5407  3.2976
  198MOL0     O26596   8.754   0.463   4.279 -0.3875  0.4976  0.2861
  198MOL0     C26597   8.866   0.492   4.258 -0.4752  0.4243 -0.4445
  198MOL0     O26598   8.919   0.607   4.207  0.3728 -0.7993 -0.3107
  198MOL0     C26599   8.829   0.711   4.178 -1.5627 -0.5334 -0.2440
  198MOL0     C26600   8.694   0.703   4.139  0.6476 -0.1591 -1.0084
  198MOL0     C26601   8.613   0.816   4.128 -0.0030  0.2267 -0.8304
  198MOL0     C26602   8.666   0.941   4.153 -1.1334  0.8271 -0.6294
  198MOL0     O26603   8.607   1.068   4.148 -0.3617  0.1877 -0.2352
  198MOL0     C26604   8.474   1.075   4.096  0.1685 -0.3229 -0.1837
  198MOL0     C26605   8.429   1.217   4.104  0.0872 -0.0369 -0.4638
  198MOL0     C26606   8.309   1.240   4.025 -0.9961  0.2326  0.5479
  198MOL0     C26607   8.286   1.392   4.001 -1.0120 -0.1495 -0.4569
  198MOL0     C26608   8.151   1.419   3.936  0.0909 -0.4092 -0.2540
  198MOL0     C26609   8.133   1.572   3.925 -0.1844 -0.1060  0.0507
  198MOL0     C26610   7.999   1.594   3.846  0.2716 -0.1396  0.3293
  198MOL0     C26611   7.956   1.744   3.850 -0.2029  0.3885  0.9132
  198MOL0     N26612   7.862   1.776   3.748 -0.3192  0.2578  0.7365
  198MOL0     C26613   7.724   1.770   3.745 -0.0737 -0.1127  0.1646
  198MOL0     C26614   7.688   1.833   3.630 -0.3845 -0.0149 -0.0163
  198MOL0     C26615   7.550   1.873   3.588  0.0904 -1.0603 -0.1442
  198MOL0     C26616   7.530   2.028   3.601 -0.5442  0.8101 -0.1815
  198MOL0     C26617   7.390   2.053   3.572 -0.2484 -0.2301 -0.0857
  198MOL0     C26618   7.349   2.199   3.547 -0.4245 -0.0243 -0.3332
  198MOL0     O26619   7.415   2.254   3.436  0.3258 -0.3152  0.4928
  198MOL0     C26620   7.355   2.365   3.384 -0.6268  0.0171 -0.2313
  198MOL0     C26621   7.437   2.477   3.378 -0.2387 -0.2837 -0.2809
  198MOL0     C26622   7.388   2.597   3.317  0.6608 -0.1167  0.2790
  198MOL0     C26623   7.490   2.714   3.320  0.3762  0.6507 -0.0446
  198MOL0     C26624   7.251   2.602   3.266  0.0396 -0.7006 -0.1460
  198MOL0     C26625   7.194   2.722   3.203  0.1344 -0.1473  0.4802
  198MOL0     O26626   7.279   2.821   3.176 -0.9300 -0.4483 -0.6496
  198MOL0     C26627   7.225   2.926   3.105  0.7792  1.4024  0.2100
  198MOL0     C26628   7.205   2.906   2.970 -0.1004 -0.0464  0.8574
  198MOL0     C26629   7.159   3.008   2.888  1.1977  0.6005 -0.1996
  198MOL0     C26630   7.145   3.137   2.946 -0.8235 -0.0618  0.3576
  198MOL0     O26631   7.118   3.247   2.877  0.4852 -0.3903  0.1006
  198MOL0     C26632   7.052   3.244   2.753  0.6744  0.1459  0.7521
  198MOL0     C26633   7.063   3.380   2.685  0.4705 -0.0682  0.2355
  198MOL0     C26634   6.946   3.405   2.573 -0.7989  0.8087 -0.4522
  198MOL0     C26635   6.977   3.521   2.486 -0.6213 -0.4561  0.6409
  198MOL0     C26636   6.866   3.536   2.375  0.4789  0.4740 -0.3558
  198MOL0     C26637   6.899   3.657   2.288 -0.1561  0.2129 -0.5226
  198MOL0     C26638   6.772   3.722   2.227 -0.1913  0.3104 -0.7450
  198MOL0     C26639   6.796   3.830   2.124 -0.3913  0.4664 -0.6381
  198MOL0    Cl26640   6.913   3.956   2.192  0.0988  0.1439  0.1402
  198MOL0     C26641   7.169   3.157   3.079  0.3143  0.5792  0.5145
  198MOL0     C26642   7.214   3.051   3.162  1.0592 -0.5700  0.7101
  198MOL0     O26643   7.076   2.711   3.161  0.1459  0.1375 -0.3133
  198MOL0     C26644   7.171   2.488   3.294  0.7587 -0.7469 -0.1309
  198MOL0     C26645   7.224   2.368   3.346  0.1803  0.2747  0.2915
  198MOL0     N26646   7.806   1.861   3.563 -0.2821 -0.5968 -0.7688
  198MOL0     N26647   7.909   1.813   3.630 -0.5473  0.1277  0.1165
  198MOL0     C26648   8.804   0.943   4.185  0.4470 -0.5916  0.2970
  198MOL0     C26649   8.885   0.832   4.197 -0.2590  0.5733 -0.1183
  198MOL0     C26650   8.959   0.400   4.312 -0.2564 -0.6543  1.2528
  198MOL0     C26651   9.095   0.405   4.273 -0.0577 -0.1466 -0.0728
  198MOL0     C26652   9.186   0.306   4.316 -1.4305 -0.1193 -0.5567
  198MOL0     C26653   9.149   0.208   4.409  1.2449  0.6326  0.2369
  198MOL0     O26654   9.227   0.105   4.454  0.2151  0.3143  0.3290
  198MOL0     C26655   9.323   0.132   4.557  0.1898 -0.3586  0.2619
  198MOL0     C26656   9.385  -0.000   4.597 -1.1232 -0.2541  0.7044
  198MOL0     C26657   9.468  -0.079   4.491  1.1234 -0.9455  0.6680
  198MOL0     C26658   9.534  -0.207   4.551 -0.1757  0.6980  0.9619
  198MOL0     C26659   9.650  -0.178   4.636 -0.5441  0.0707  0.3176
  198MOL0     C26660   9.738  -0.172   4.713 -0.5624  0.4456  0.4108
  198MOL0     C26661   9.016   0.204   4.450  1.1634  1.1009 -0.0480
  198MOL0     C26662   8.924   0.301   4.401  0.1266 -0.0601 -0.1814
  198MOL0     H26663   8.664   0.608   4.096 -0.1919 -1.2991  1.8149
  198MOL0     H26664   8.515   0.787   4.090  0.5543 -0.0314 -2.1363
  198MOL0     H26665   8.488   1.052   3.990  3.3746  0.4250 -0.0098
  198MOL0     H26666   8.402   1.005   4.139  0.0956 -0.2859 -0.2424
  198MOL0     H26667   8.402   1.255   4.203 -1.2485  1.2028 -1.2679
  198MOL0     H26668   8.505   1.284   4.063  0.5849 -1.1846 -1.4698
  198MOL0     H26669   8.321   1.201   3.923  0.9904  1.7185  0.1588
  198MOL0     H26670   8.222   1.194   4.073  0.8687 -1.4500  2.4939
  198MOL0     H26671   8.281   1.434   4.102  0.9279  0.1640 -0.4625
  198MOL0     H26672   8.371   1.439   3.951 -1.3754  0.6414 -0.3460
  198MOL0     H26673   8.148   1.374   3.836  0.9097 -0.9110 -0.0603
  198MOL0     H26674   8.069   1.379   3.996  2.1436 -1.5554  1.9627
  198MOL0     H26675   8.122   1.621   4.022 -1.5944 -0.2698 -0.0039
  198MOL0     H26676   8.212   1.630   3.877 -0.7986  1.6728  1.0989
  198MOL0     H26677   8.017   1.553   3.746 -1.4011  0.1150 -0.1084
  198MOL0     H26678   7.925   1.519   3.878  0.3321 -0.7331 -0.8565
  198MOL0     H26679   8.049   1.802   3.846  1.4873 -2.2566 -1.1401
  198MOL0     H26680   7.905   1.755   3.946 -0.3411 -0.7553  0.9799
  198MOL0     H26681   7.655   1.727   3.817 -0.5779 -6.0537 -3.2164
  198MOL0     H26682   7.531   1.837   3.486  1.5205 -2.8035  0.1598
  198MOL0     H26683   7.476   1.821   3.649 -0.8823  0.2509 -0.1716
  198MOL0     H26684   7.591   2.077   3.525 -1.4494 -0.9348 -2.1368
  198MOL0     H26685   7.552   2.058   3.704 -1.0901 -2.2452  0.9363
  198MOL0     H26686   7.339   2.015   3.661  0.6692 -0.3994  0.3799
  198MOL0     H26687   7.350   1.999   3.486 -1.7469  3.0916 -1.6473
  198MOL0     H26688   7.386   2.252   3.635 -1.0255 -1.8980  1.1226
  198MOL0     H26689   7.240   2.203   3.542 -0.4295  1.7678  0.5198
  198MOL0     H26690   7.538   2.472   3.418  0.6927 -0.2845 -2.4755
  198MOL0     H26691   7.453   2.803   3.372 -1.8533 -1.1484  1.6677
  198MOL0     H26692   7.573   2.677   3.381 -0.2842  1.0701  1.1609
  198MOL0     H26693   7.529   2.733   3.220  1.1867  0.6227  0.2562
  198MOL0     H26694   7.207   2.803   2.936 -5.4256 -0.8642  2.1920
  198MOL0     H26695   7.139   2.991   2.783  1.0487 -0.6825  0.0161
  198MOL0     H26696   7.108   3.178   2.686  0.9712 -0.3296  1.4647
  198MOL0     H26697   6.951   3.217   2.785  0.7733 -2.4785 -0.9024
  198MOL0     H26698   7.068   3.465   2.755  1.1887 -1.7810  2.3796
  198MOL0     H26699   7.163   3.364   2.643 -0.2575 -2.2844 -0.8071
  198MOL0     H26700   6.849   3.413   2.622  0.2149  0.9313  1.6561
  198MOL0     H26701   6.935   3.311   2.519 -0.2733 -0.9682  2.3594
  198MOL0     H26702   6.969   3.607   2.553 -1.2498  1.1845 -1.4313
  198MOL0     H26703   7.071   3.503   2.433 -0.4505 -3.0366  1.6818
  198MOL0     H26704   6.774   3.557   2.431  1.7413  2.6695  1.0578
  198MOL0     H26705   6.862   3.440   2.323 -1.4618  2.0608 -3.3527
  198MOL0     H26706   6.947   3.731   2.353  2.2741  0.8012 -2.8427
  198MOL0     H26707   6.966   3.632   2.205  0.0430 -0.4492 -0.1714
  198MOL0     H26708   6.719   3.767   2.311  2.9162  2.3716  0.2925
  198MOL0     H26709   6.717   3.641   2.178  0.9476 -1.4847  0.8103
  198MOL0     H26710   6.704   3.883   2.102  0.2548  2.2259  0.6743
  198MOL0     H26711   6.825   3.789   2.027  0.0301  1.5320 -0.9733
  198MOL0     H26712   7.155   3.250   3.131  0.9364  0.3038  1.1821
  198MOL0     H26713   7.252   3.081   3.259  2.5512  0.0869 -0.0558
  198MOL0     H26714   7.064   2.490   3.276  0.0512  1.1693  3.3307
  198MOL0     H26715   7.166   2.279   3.370  0.3229  0.1443  0.1554
  198MOL0     H26716   8.854   1.039   4.192 -0.1991 -0.2297  0.0394
  198MOL0     H26717   8.991   0.844   4.219 -0.1923  0.0293 -0.1065
  198MOL0     H26718   9.132   0.478   4.201  2.4587  0.2439  1.5064
  198MOL0     H26719   9.289   0.306   4.282 -0.4176  1.3723  2.1803
  198MOL0     H26720   9.391   0.215   4.533 -1.9182  1.6197  0.8041
  198MOL0     H26721   9.272   0.166   4.647  0.2310  0.8137 -0.1390
  198MOL0     H26722   9.311  -0.070   4.638 -1.9507 -0.1746 -0.6082
  198MOL0     H26723   9.457   0.023   4.676 -2.1093  0.0186  1.5514
  198MOL0     H26724   9.540  -0.011   4.446  0.1958  0.4651  1.2330
  198MOL0     H26725   9.400  -0.099   4.407 -1.3212  3.2417  1.3790
  198MOL0     H26726   9.576  -0.276   4.478  1.7710  1.1110  1.6368
  198MOL0     H26727   9.453  -0.265   4.597 -1.5511  1.5878 -0.2349
  198MOL0     H26728   9.816  -0.174   4.787 -0.3756 -3.0933  0.2998
  198MOL0     H26729   8.978   0.130   4.519  0.1694  1.6941  0.0604
  198MOL0     H26730   8.819   0.304   4.429  0.2848  2.4987  0.3696
  199MOL0     O26731   6.642   7.349   3.508 -0.7169  0.2931  0.7279
  199MOL0     C26732   6.668   7.256   3.585  0.5190 -0.1332 -1.4471
  199MOL0     O26733   6.594   7.221   3.698  0.0190 -0.4114 -0.0961
  199MOL0     C26734   6.476   7.284   3.738  0.1544  0.0663 -0.4724
  199MOL0     C26735   6.410   7.396   3.681 -0.4308 -0.6697 -0.0317
  199MOL0     C26736   6.300   7.459   3.745 -0.9301 -0.6594 -0.8165
  199MOL0     C26737   6.246   7.411   3.865  0.3695  0.3956  0.4595
  199MOL0     O26738   6.157   7.491   3.922  0.1672 -0.0435 -0.1445
  199MOL0     C26739   6.053   7.446   4.014 -0.5812  0.4876  0.2705
  199MOL0     C26740   5.944   7.371   3.930 -0.4930  0.0956  0.2110
  199MOL0     C26741   5.811   7.381   3.997  0.1187 -0.0718 -0.3654
  199MOL0     C26742   5.706   7.308   3.920  0.0163 -0.5305  0.2175
  199MOL0     C26743   5.587   7.275   4.005 -0.3949  0.2149 -0.3741
  199MOL0     C26744   5.476   7.212   3.915  0.2648 -0.3120  0.0231
  199MOL0     C26745   5.381   7.134   4.009 -0.0161 -0.5629 -0.5809
  199MOL0     C26746   5.268   7.066   3.920  0.0795 -0.8000 -0.1600
  199MOL0     N26747   5.159   6.995   3.993  0.0949  0.9116 -0.6136
  199MOL0     C26748   5.170   6.889   4.082  0.5035 -0.2705 -0.1766
  199MOL0     C26749   5.047   6.863   4.130 -0.0441  0.6143 -0.3396
  199MOL0     C26750   5.036   6.744   4.230  0.4805  0.2475  0.4343
  199MOL0     C26751   4.904   6.757   4.311 -0.1469 -0.2528 -0.6190
  199MOL0     C26752   4.873   6.894   4.384  0.6596  0.4689  1.0820
  199MOL0     C26753   4.757   6.897   4.475  0.3756  0.7301  0.1847
  199MOL0     O26754   4.737   7.024   4.538 -0.3916 -0.5618  0.6671
  199MOL0     C26755   4.648   7.120   4.488  0.3998  0.0169 -0.3671
  199MOL0     C26756   4.605   7.117   4.356  0.1227  0.0192  0.7715
  199MOL0     C26757   4.500   7.198   4.313  0.1707  0.2162 -0.1258
  199MOL0     C26758   4.484   7.207   4.162 -0.0553  0.1872  0.5157
  199MOL0     C26759   4.426   7.272   4.409 -0.5792 -0.1429  0.2729
  199MOL0     C26760   4.309   7.357   4.373  0.6121 -0.1185 -0.2641
  199MOL0     O26761   4.244   7.438   4.467  0.1925 -0.5708  0.5186
  199MOL0     C26762   4.124   7.502   4.439  1.0700  1.0690  0.7633
  199MOL0     C26763   4.001   7.455   4.486 -0.4685 -0.3975 -0.3393
  199MOL0     C26764   3.892   7.540   4.460 -0.2903  0.0269 -0.8297
  199MOL0     C26765   3.900   7.655   4.383 -0.2240  0.6062 -0.2059
  199MOL0     O26766   3.794   7.736   4.355  0.3565  0.5175 -0.2090
  199MOL0     C26767   3.776   7.836   4.443 -0.2640  0.1307 -0.6028
  199MOL0     C26768   3.681   7.952   4.395 -0.6414 -0.0693 -0.1923
  199MOL0     C26769   3.691   8.077   4.484 -0.1079 -0.1860 -0.4748
  199MOL0     C26770   3.578   8.179   4.437 -0.3302  0.1178 -0.2386
  199MOL0     C26771   3.587   8.311   4.507  1.2206  0.4124 -1.0119
  199MOL0     C26772   3.547   8.293   4.655 -0.5634 -0.3875  0.3212
  199MOL0     C26773   3.477   8.403   4.722  1.1745  0.9397 -0.4484
  199MOL0     C26774   3.545   8.536   4.706  0.3514 -0.3307 -0.8254
  199MOL0    Cl26775   3.475   8.622   4.840 -0.1474  0.0883 -0.2736
  199MOL0     C26776   4.021   7.698   4.345 -0.6110  0.0387 -0.3257
  199MOL0     C26777   4.137   7.619   4.367 -1.0890 -0.1457 -0.0497
  199MOL0     O26778   4.264   7.341   4.261 -0.8357  0.3370 -0.5332
  199MOL0     C26779   4.480   7.284   4.538 -0.0780  0.1844 -0.4745
  199MOL0     C26780   4.586   7.204   4.578 -1.4434  0.5809  0.4028
  199MOL0     N26781   4.957   6.952   4.064 -0.1670  0.4471 -0.6015
  199MOL0     N26782   5.029   7.019   3.983 -0.1130  0.0542 -0.3597
  199MOL0     C26783   6.304   7.291   3.906 -0.1311 -0.4306 -0.2090
  199MOL0     C26784   6.416   7.229   3.846 -0.0487 -0.1774  0.2600
  199MOL0     C26785   6.793   7.184   3.570 -0.3790 -0.8250  0.9441
  199MOL0     C26786   6.817   7.063   3.632  0.0941 -0.2114 -0.0267
  199MOL0     C26787   6.951   7.009   3.623  0.0633 -0.4180 -0.5176
  199MOL0     C26788   7.051   7.069   3.551 -0.8105 -0.5946 -0.3510
  199MOL0     O26789   7.174   7.002   3.551 -0.3624 -0.0593  0.6852
  199MOL0     C26790   7.211   6.956   3.420 -1.0490  0.2275  0.9005
  199MOL0     C26791   7.326   6.853   3.434 -0.1669 -0.5524 -0.6560
  199MOL0     C26792   7.324   6.774   3.307  0.5627 -0.2112 -0.0782
  199MOL0     C26793   7.456   6.697   3.298 -0.4187 -1.2708 -0.6018
  199MOL0     C26794   7.457   6.570   3.241 -0.6690  0.0330 -0.3806
  199MOL0     C26795   7.453   6.461   3.185 -0.1179 -0.4544 -0.7932
  199MOL0     C26796   7.023   7.180   3.467  0.1591  0.8515 -0.2009
  199MOL0     C26797   6.894   7.236   3.477  0.6198 -0.7279 -0.2422
  199MOL0     H26798   6.450   7.442   3.591 -0.7167  1.8613  1.0524
  199MOL0     H26799   6.261   7.549   3.698 -0.9970 -1.1387 -1.7122
  199MOL0     H26800   6.088   7.397   4.105 -0.5518  0.1193  0.0656
  199MOL0     H26801   6.000   7.535   4.047  1.4846  1.8191  0.1602
  199MOL0     H26802   5.942   7.416   3.830  1.0347  0.4828  0.3340
  199MOL0     H26803   5.969   7.265   3.919 -3.3896 -1.0329  2.8837
  199MOL0     H26804   5.821   7.347   4.101 -0.2996 -0.3188 -0.4040
  199MOL0     H26805   5.783   7.486   4.010  0.0849 -0.0475 -0.6303
  199MOL0     H26806   5.669   7.380   3.846 -1.2410 -1.6894 -0.3052
  199MOL0     H26807   5.751   7.219   3.877 -0.2461 -0.1754 -0.8172
  199MOL0     H26808   5.624   7.193   4.067 -0.8729 -0.6738 -1.2338
  199MOL0     H26809   5.546   7.363   4.055 -2.2731 -0.1954 -1.1088
  199MOL0     H26810   5.429   7.303   3.876 -3.6174 -2.2930 -0.3493
  199MOL0     H26811   5.512   7.148   3.833 -0.7781  0.3867 -1.0096
  199MOL0     H26812   5.436   7.064   4.074 -1.0989  0.8597  2.0402
  199MOL0     H26813   5.338   7.198   4.088 -1.5902 -0.1835 -1.6944
  199MOL0     H26814   5.316   6.997   3.850  2.5933 -1.2558  1.8734
  199MOL0     H26815   5.214   7.146   3.869  1.0491  1.6331  2.3665
  199MOL0     H26816   5.252   6.822   4.105 -0.1711 -0.8422  0.6509
  199MOL0     H26817   5.028   6.658   4.163  0.7462 -0.2528  1.0408
  199MOL0     H26818   5.114   6.717   4.302 -0.5858 -2.0485  0.8155
  199MOL0     H26819   4.906   6.674   4.383 -1.1520  0.6669  0.5111
  199MOL0     H26820   4.824   6.746   4.238 -0.7900  0.3806 -0.0179
  199MOL0     H26821   4.858   6.971   4.307 -0.7756 -0.7375  0.1055
  199MOL0     H26822   4.956   6.928   4.447  0.0458  3.4258  0.4679
  199MOL0     H26823   4.776   6.815   4.545 -0.2464 -0.7315 -1.2984
  199MOL0     H26824   4.665   6.866   4.424  0.1347  0.9930  0.4546
  199MOL0     H26825   4.667   7.068   4.282 -2.9172 -0.2031 -1.8399
  199MOL0     H26826   4.388   7.166   4.127 -1.4735  2.1352  1.9172
  199MOL0     H26827   4.503   7.306   4.121  1.3446 -1.3980 -3.1363
  199MOL0     H26828   4.571   7.163   4.112  2.5598  2.0670  3.0578
  199MOL0     H26829   4.003   7.370   4.553  3.2022  2.7034  4.0862
  199MOL0     H26830   3.797   7.511   4.503  1.3211 -2.4741  1.3013
  199MOL0     H26831   3.740   7.793   4.537 -0.7053  1.5227 -0.1070
  199MOL0     H26832   3.875   7.879   4.460 -0.0590 -1.3517  2.6524
  199MOL0     H26833   3.707   7.961   4.289  0.7566 -4.0831 -0.3633
  199MOL0     H26834   3.579   7.913   4.402 -1.5111  1.7028 -1.8946
  199MOL0     H26835   3.790   8.124   4.478 -0.0502 -0.3086 -0.4770
  199MOL0     H26836   3.668   8.039   4.584  0.8839 -0.0607 -0.1886
  199MOL0     H26837   3.587   8.193   4.329 -1.0100 -2.0789 -0.6328
  199MOL0     H26838   3.486   8.121   4.451 -0.5218 -0.2906 -2.7402
  199MOL0     H26839   3.515   8.377   4.458 -1.3470  1.6115  3.8253
  199MOL0     H26840   3.686   8.358   4.500  0.0470  2.9198 -2.3233
  199MOL0     H26841   3.479   8.209   4.674  0.0705 -0.8029  0.7695
  199MOL0     H26842   3.629   8.258   4.717 -1.1483 -1.9804  0.2605
  199MOL0     H26843   3.452   8.381   4.826  1.9111  1.1890 -0.2169
  199MOL0     H26844   3.379   8.421   4.675  0.8382  0.3268  0.0074
  199MOL0     H26845   3.523   8.584   4.610  2.6024  0.0376 -1.2194
  199MOL0     H26846   3.653   8.532   4.718  0.2498  0.2400  0.4369
  199MOL0     H26847   4.033   7.799   4.306 -0.0996  0.3275  0.5381
  199MOL0     H26848   4.229   7.655   4.321 -2.1858 -0.3213 -2.5697
  199MOL0     H26849   4.426   7.344   4.610 -4.0911 -0.5892 -2.5711
  199MOL0     H26850   4.636   7.197   4.675  2.7165 -0.0650 -1.5562
  199MOL0     H26851   6.274   7.244   4.000  2.9851 -4.0285 -0.7469
  199MOL0     H26852   6.467   7.144   3.888  2.7032  1.5486  0.6440
  199MOL0     H26853   6.749   7.018   3.704 -1.2264 -1.6258 -2.0356
  199MOL0     H26854   6.974   6.924   3.687  0.9283 -0.0948 -0.3768
  199MOL0     H26855   7.121   6.917   3.372  0.8463  0.2773 -3.0541
  199MOL0     H26856   7.246   7.047   3.371 -0.1255 -1.0416 -0.8942
  199MOL0     H26857   7.308   6.782   3.514 -1.3915 -1.9251 -2.0842
  199MOL0     H26858   7.426   6.898   3.443  0.2627 -1.3934 -1.1272
  199MOL0     H26859   7.306   6.831   3.215  1.3101 -1.7576 -1.2235
  199MOL0     H26860   7.242   6.701   3.309  0.9408 -0.9134 -3.5531
  199MOL0     H26861   7.485   6.690   3.403 -1.7702  0.4181 -0.0697
  199MOL0     H26862   7.531   6.756   3.246 -1.3584  2.9541  2.2977
  199MOL0     H26863   7.448   6.371   3.128  3.6909 -0.7834 -0.8612
  199MOL0     H26864   7.097   7.227   3.402  1.5243 -0.6841  0.1795
  199MOL0     H26865   6.861   7.321   3.419  0.0061 -0.9382 -0.2106
  200MOL0     O26866   2.611   9.355   4.151  0.1985 -0.1049  0.4329
  200MOL0     C26867   2.678   9.416   4.071  0.0184  0.6907  0.0028
  200MOL0     O26868   2.628   9.512   3.983 -0.6483  0.0563 -0.4764
  200MOL0     C26869   2.493   9.548   3.997  0.5748 -0.2133 -0.7676
  200MOL0     C26870   2.390   9.461   3.958 -0.6190 -0.1799  0.2180
  200MOL0     C26871   2.262   9.503   3.962  0.3837  0.6135 -0.3138
  200MOL0     C26872   2.228   9.637   4.003  0.1325  0.2316 -0.0394
  200MOL0     O26873   2.098   9.672   4.026  0.1903  0.0516 -0.8726
  200MOL0     C26874   2.073   9.796   4.088 -0.0857 -0.0928  0.6954
  200MOL0     C26875   1.916   9.811   4.103  1.0776 -0.1567  0.3874
  200MOL0     C26876   1.880   9.957   4.127 -0.1632 -0.5424  0.0309
  200MOL0     C26877   1.731   9.988   4.133 -0.0597  0.4059 -0.0240
  200MOL0     C26878   1.709  10.135   4.132 -0.1649 -0.1825  0.3293
  200MOL0     C26879   1.561  10.160   4.159  0.8439  0.3923 -0.3320
  200MOL0     C26880   1.514  10.313   4.151  0.0478  0.3642  0.2350
  200MOL0     C26881   1.519  10.387   4.021 -0.6073 -0.9177  0.4357
  200MOL0     N26882   1.455  10.327   3.905  0.1905 -1.2335 -0.3188
  200MOL0     C26883   1.335  10.367   3.853 -0.0915  0.4884  0.0163
  200MOL0     C26884   1.309  10.302   3.740 -1.1742 -0.5358  0.4487
  200MOL0     C26885   1.209  10.311   3.630  0.3789 -0.1138  0.4552
  200MOL0     C26886   1.123  10.433   3.624  0.0392 -0.3445  0.1770
  200MOL0     C26887   0.999  10.407   3.541 -0.1541 -0.5370 -0.8036
  200MOL0     C26888   1.024  10.385   3.391 -0.4006  0.0607  0.4880
  200MOL0     O26889   0.905  10.373   3.314  0.1607 -0.4343 -0.5290
  200MOL0     C26890   0.825  10.482   3.311 -0.2852  0.4109 -0.1057
  200MOL0     C26891   0.694  10.456   3.265  0.0865 -0.4475 -0.1503
  200MOL0     C26892   0.598  10.562   3.249  0.3712  0.1016 -0.7086
  200MOL0     C26893   0.460  10.526   3.206 -0.5719  0.3369 -0.1292
  200MOL0     C26894   0.639  10.694   3.282  0.7612 -0.0559 -0.4060
  200MOL0     C26895   0.534  10.802   3.276  0.2155  0.3884  0.0315
  200MOL0     O26896   0.412  10.782   3.334 -0.5574  0.6294 -0.0557
  200MOL0     C26897   0.327  10.887   3.354 -0.1129  0.4044  0.7094
  200MOL0     C26898   0.357  11.014   3.407 -0.3365 -0.6411 -0.8574
  200MOL0     C26899   0.252  11.105   3.436 -0.3698  0.0195  0.9007
  200MOL0     C26900   0.117  11.086   3.407 -0.6867  0.5567 -0.7659
  200MOL0     O26901   0.009  11.169   3.418 -0.5060 -0.6742 -0.4606
  200MOL0     C26902   0.037  11.299   3.479 -0.3938  1.0043 -0.2066
  200MOL0     C26903  -0.073  11.386   3.427 -0.3469 -0.4135 -0.0954
  200MOL0     C26904  -0.221  11.331   3.466 -0.1872  0.1853  0.1521
  200MOL0     C26905  -0.314  11.392   3.351  0.4217 -0.6845 -0.6459
  200MOL0     C26906  -0.469  11.388   3.398  0.5585 -0.0284  0.5749
  200MOL0     C26907  -0.532  11.476   3.504  0.3998 -0.1345 -0.1473
  200MOL0     C26908  -0.691  11.457   3.524 -0.1666 -1.2862  0.1145
  200MOL0     C26909  -0.767  11.586   3.560  0.0788 -0.2153  0.5316
  200MOL0    Cl26910  -0.805  11.701   3.424  0.1211  0.3814  0.0952
  200MOL0     C26911   0.090  10.962   3.348 -0.5803 -0.0167  0.5349
  200MOL0     C26912   0.191  10.860   3.320 -0.5835  0.3936  0.4055
  200MOL0     O26913   0.573  10.905   3.231 -0.0172  0.2022 -0.1728
  200MOL0     C26914   0.771  10.719   3.320 -0.0546  0.1346  0.5337
  200MOL0     C26915   0.864  10.615   3.323  0.0300  0.6697  0.4319
  200MOL0     N26916   1.426  10.220   3.722  0.2410  1.1471 -0.0323
  200MOL0     N26917   1.505  10.236   3.823 -0.0881 -0.3633  0.9641
  200MOL0     C26918   2.332   9.731   4.009 -0.4752  0.3165  0.5280
  200MOL0     C26919   2.458   9.683   4.022 -0.0775  0.1617  0.0205
  200MOL0     C26920   2.817   9.373   4.054 -0.2684  0.4261 -0.8263
  200MOL0     C26921   2.870   9.271   4.137 -1.2074  0.0898  0.0043
  200MOL0     C26922   3.003   9.221   4.104  0.8349  0.2308  0.6097
  200MOL0     C26923   3.076   9.269   3.993 -0.5914  0.6517  0.1137
  200MOL0     O26924   3.198   9.232   3.942  0.0041 -0.5270 -0.4531
  200MOL0     C26925   3.296   9.170   4.022  0.4164  0.1143 -0.1613
  200MOL0     C26926   3.405   9.273   4.079  0.0389 -0.2688 -0.9600
  200MOL0     C26927   3.500   9.319   3.977 -0.5627  0.2774 -0.3175
  200MOL0     C26928   3.600   9.416   4.031  0.1816 -0.3613 -0.0060
  200MOL0     C26929   3.680   9.387   4.159 -0.3501  0.3039 -0.1562
  200MOL0     C26930   3.747   9.370   4.261  0.4314 -0.3046  0.4511
  200MOL0     C26931   3.016   9.370   3.924  0.3455 -1.0470 -0.0828
  200MOL0     C26932   2.892   9.421   3.953  0.2389  0.3412 -0.1707
  200MOL0     H26933   2.419   9.359   3.934 -0.3825 -0.2697  0.8446
  200MOL0     H26934   2.184   9.428   3.954  0.0262  0.6531  2.0916
  200MOL0     H26935   2.115   9.800   4.189  3.4588 -2.2341 -0.5204
  200MOL0     H26936   2.115   9.880   4.032  0.0410  0.4547  1.5904
  200MOL0     H26937   1.865   9.780   4.012  2.7318  1.9111 -1.3294
  200MOL0     H26938   1.883   9.758   4.193  0.2132 -0.2091  0.0411
  200MOL0     H26939   1.938  10.000   4.209 -4.0240  2.4627  1.5441
  200MOL0     H26940   1.899  10.006   4.031 -1.1799  1.0222  0.5803
  200MOL0     H26941   1.682   9.926   4.057  0.4856 -2.5381  1.8680
  200MOL0     H26942   1.693   9.946   4.226  2.5443 -2.7905 -0.2304
  200MOL0     H26943   1.776  10.169   4.212  1.1930 -2.8131  0.4114
  200MOL0     H26944   1.743  10.187   4.042  0.2209 -0.1671  0.4819
  200MOL0     H26945   1.496  10.099   4.096  1.3594 -2.2435  1.5532
  200MOL0     H26946   1.540  10.132   4.262 -2.8616 -0.1976 -1.1262
  200MOL0     H26947   1.407  10.298   4.169  0.4924 -1.1891  1.8653
  200MOL0     H26948   1.567  10.362   4.233 -1.3188  0.7018  0.9291
  200MOL0     H26949   1.619  10.420   3.994 -1.3772  1.6688  0.4275
  200MOL0     H26950   1.464  10.479   4.047 -0.5317  0.2833 -3.0827
  200MOL0     H26951   1.272  10.444   3.897  0.1171  0.5682  0.1729
  200MOL0     H26952   1.256  10.303   3.532  0.8907  0.5057  0.6434
  200MOL0     H26953   1.149  10.220   3.642 -0.2411  0.4997  2.4832
  200MOL0     H26954   1.177  10.515   3.575  1.7852 -1.6551 -0.1771
  200MOL0     H26955   1.097  10.458   3.728  1.0500 -3.0082  1.1451
  200MOL0     H26956   0.934  10.494   3.552 -1.0513 -1.4655  2.1893
  200MOL0     H26957   0.946  10.318   3.577  1.3008 -1.5610 -1.0991
  200MOL0     H26958   1.080  10.291   3.384 -1.9691 -0.9165  0.2850
  200MOL0     H26959   1.085  10.470   3.360  0.6440  0.1666  2.6182
  200MOL0     H26960   0.652  10.360   3.237 -1.3055  0.2024 -0.3714
  200MOL0     H26961   0.380  10.536   3.280 -0.7378 -3.6807  0.4424
  200MOL0     H26962   0.437  10.589   3.119 -2.8698 -0.1722  0.0357
  200MOL0     H26963   0.462  10.421   3.175 -1.5757  0.5896 -1.1534
  200MOL0     H26964   0.458  11.038   3.439 -0.5889 -1.0778  0.3221
  200MOL0     H26965   0.266  11.184   3.509  0.4785 -0.3773  1.1784
  200MOL0     H26966   0.040  11.285   3.588 -2.9919 -1.3511 -0.3276
  200MOL0     H26967   0.134  11.339   3.449  0.0165  0.5655  0.4949
  200MOL0     H26968  -0.066  11.489   3.461 -0.5531 -1.1967  2.5708
  200MOL0     H26969  -0.070  11.384   3.318 -0.2548 -1.3711 -0.0909
  200MOL0     H26970  -0.247  11.360   3.568 -0.6277 -2.0100  0.7174
  200MOL0     H26971  -0.235  11.223   3.473 -0.5123  0.3318  3.3917
  200MOL0     H26972  -0.286  11.494   3.324  1.4870 -0.6411  0.5131
  200MOL0     H26973  -0.313  11.332   3.259  0.2022 -2.4641  0.4649
  200MOL0     H26974  -0.495  11.284   3.420 -3.7658  1.0774  1.6391
  200MOL0     H26975  -0.530  11.405   3.309 -0.0572 -0.4390  0.9137
  200MOL0     H26976  -0.488  11.454   3.602 -2.5869  0.1873  1.4033
  200MOL0     H26977  -0.512  11.582   3.485  2.1078 -0.4669 -0.3560
  200MOL0     H26978  -0.704  11.386   3.606 -1.1162 -2.8258 -1.3070
  200MOL0     H26979  -0.735  11.402   3.439 -2.5014 -1.0264  1.0935
  200MOL0     H26980  -0.710  11.641   3.635 -0.7100 -0.3036  1.2087
  200MOL0     H26981  -0.866  11.570   3.604 -0.6576 -0.4977 -1.1164
  200MOL0     H26982  -0.004  10.947   3.296 -1.8945  1.9059  2.1815
  200MOL0     H26983   0.168  10.771   3.262  2.1527 -1.0622  1.3502
  200MOL0     H26984   0.794  10.825   3.331  3.2748 -0.0777 -2.5078
  200MOL0     H26985   0.968  10.640   3.344  0.3057  1.3725 -1.5043
  200MOL0     H26986   2.331   9.837   4.029  1.6336  0.9050 -1.9258
  200MOL0     H26987   2.540   9.748   4.052  1.0644 -1.9453  1.7957
  200MOL0     H26988   2.815   9.237   4.224  2.4883 -3.2750  1.3479
  200MOL0     H26989   3.045   9.148   4.171  1.1886 -1.6713 -1.5630
  200MOL0     H26990   3.245   9.121   4.105  3.7065 -2.4064  0.5834
  200MOL0     H26991   3.351   9.092   3.967 -0.9479 -2.1004  1.4878
  200MOL0     H26992   3.444   9.206   4.155  2.0167  1.3674 -0.4414
  200MOL0     H26993   3.356   9.356   4.130  3.0583  0.6161  0.7759
  200MOL0     H26994   3.442   9.352   3.891 -2.0157  0.7003  0.7807
  200MOL0     H26995   3.562   9.235   3.943  3.0512  2.9941 -1.0481
  200MOL0     H26996   3.551   9.513   4.045 -1.4578 -1.2822  1.0291
  200MOL0     H26997   3.675   9.432   3.953  0.7025 -6.4676 -1.2453
  200MOL0     H26998   3.790   9.361   4.359 -1.0475  0.9983  1.2825
  200MOL0     H26999   3.070   9.398   3.834  1.0077 -4.3881 -0.8694
  200MOL0     H27000   2.857   9.500   3.886 -0.4799  0.1164 -0.0649
  201MOL0     O27001   8.331   3.813   9.976  0.4570 -0.3371  0.4698
  201MOL0     C27002   8.385   3.794   9.865  0.5502  0.1723  0.2385
  201MOL0     O27003   8.321   3.733   9.757  0.0540  0.6040 -0.0660
  201MOL0     C27004   8.204   3.675   9.775 -0.7996  1.3945 -0.2202
  201MOL0     C27005   8.196   3.568   9.862 -0.4703 -0.6939  0.1344
  201MOL0     C27006   8.067   3.510   9.886 -0.2657 -0.9043  0.1582
  201MOL0     C27007   7.956   3.542   9.815  1.0291  0.8842  0.6682
  201MOL0     O27008   7.841   3.474   9.833  0.2388 -0.1898 -1.0596
  201MOL0     C27009   7.773   3.430   9.719  0.5468 -0.4171  0.7208
  201MOL0     C27010   7.658   3.344   9.773 -0.2645  0.7975  0.5908
  201MOL0     C27011   7.584   3.299   9.642  0.6975  0.4564 -0.0045
  201MOL0     C27012   7.546   3.155   9.670  0.2137 -0.0097 -0.2827
  201MOL0     C27013   7.482   3.098   9.546  0.3573 -0.2852  0.5151
  201MOL0     C27014   7.455   2.947   9.567 -0.0068 -0.6055  0.2295
  201MOL0     C27015   7.359   2.897   9.465  0.0243 -0.1627  1.1949
  201MOL0     C27016   7.396   2.757   9.402  0.7579 -0.1772  0.2652
  201MOL0     N27017   7.400   2.627   9.487  0.5103 -0.3146  0.2666
  201MOL0     C27018   7.326   2.614   9.594  0.5157  1.0165  0.4062
  201MOL0     C27019   7.382   2.514   9.665 -0.8513  0.4820 -0.1433
  201MOL0     C27020   7.355   2.464   9.806  0.4663  0.4455 -0.1240
  201MOL0     C27021   7.202   2.446   9.831 -0.4009  0.8415 -0.9084
  201MOL0     C27022   7.165   2.364   9.955 -0.4486 -0.2909  0.7126
  201MOL0     C27023   7.040   2.280   9.937 -0.1817 -0.2661  0.2653
  201MOL0     O27024   6.925   2.357   9.898 -1.1354  0.7032 -0.0658
  201MOL0     C27025   6.802   2.298   9.880  0.4832 -0.2997  0.3012
  201MOL0     C27026   6.778   2.171   9.932  0.4198 -0.1571  0.3200
  201MOL0     C27027   6.654   2.106   9.903 -0.1099 -0.3087  0.1855
  201MOL0     C27028   6.629   1.973   9.961  1.0630  0.7293  0.5924
  201MOL0     C27029   6.549   2.180   9.837 -0.3317  0.9212 -0.5489
  201MOL0     C27030   6.423   2.113   9.806 -0.2519 -0.0931 -0.0453
  201MOL0     O27031   6.307   2.182   9.810  0.6247 -1.0616 -0.4391
  201MOL0     C27032   6.198   2.112   9.844  0.0143 -0.0246 -0.4851
  201MOL0     C27033   6.177   2.056   9.973  0.2713 -0.2428 -0.5455
  201MOL0     C27034   6.065   1.987  10.008 -0.0279  0.5397 -0.0835
  201MOL0     C27035   5.973   1.963   9.914  0.4545 -0.0706 -0.5758
  201MOL0     O27036   5.862   1.896   9.956 -0.2168 -0.5992 -0.8682
  201MOL0     C27037   5.733   1.913   9.887 -0.7889 -0.3223 -0.2992
  201MOL0     C27038   5.642   1.814   9.957  0.0508 -0.8937  0.9226
  201MOL0     C27039   5.617   1.832  10.101  0.3397 -0.2925 -0.6102
  201MOL0     C27040   5.540   1.953  10.139  0.1782  0.1006  0.2297
  201MOL0     C27041   5.494   1.938  10.284 -0.4456  0.0905 -0.5376
  201MOL0     C27042   5.435   2.063  10.340  0.2555  0.2283  0.0462
  201MOL0     C27043   5.408   2.061  10.488  0.4450  0.6929 -0.0417
  201MOL0     C27044   5.251   2.036  10.534 -0.7730 -0.7255  0.1579
  201MOL0    Cl27045   5.206   1.860  10.519 -0.2062 -0.0722  0.3273
  201MOL0     C27046   5.984   2.026   9.788 -0.0151  0.4869 -1.1169
  201MOL0     C27047   6.096   2.088   9.752 -0.8416 -0.5029  1.0283
  201MOL0     O27048   6.418   1.993   9.786  0.3229  0.0127  0.4836
  201MOL0     C27049   6.567   2.308   9.797 -0.6157 -1.1376 -0.5409
  201MOL0     C27050   6.693   2.363   9.827 -0.0692 -0.1281  0.3889
  201MOL0     N27051   7.489   2.466   9.592 -1.0917  0.5126  0.4317
  201MOL0     N27052   7.494   2.529   9.477  0.2031 -0.5795 -0.1196
  201MOL0     C27053   7.968   3.648   9.722 -0.0815  0.7861 -0.6077
  201MOL0     C27054   8.092   3.703   9.700 -0.1889 -0.1526  0.1685
  201MOL0     C27055   8.526   3.827   9.844 -0.9683  0.3105 -0.9672
  201MOL0     C27056   8.602   3.760   9.746 -0.2872 -0.7379  0.3390
  201MOL0     C27057   8.745   3.776   9.739 -0.1565 -0.7482 -0.2516
  201MOL0     C27058   8.813   3.859   9.827 -0.5155  0.5391 -0.2763
  201MOL0     O27059   8.948   3.861   9.816  0.3851 -0.9557  0.6568
  201MOL0     C27060   9.012   3.981   9.874 -0.5007  0.2381  0.0878
  201MOL0     C27061   9.156   4.009   9.834 -0.2002  0.8294  0.3051
  201MOL0     C27062   9.232   3.877   9.857 -0.4516  0.3237  0.2457
  201MOL0     C27063   9.366   3.874   9.778  0.4196 -0.1406 -0.1036
  201MOL0     C27064   9.407   3.743   9.735 -0.3202  0.2583 -0.2665
  201MOL0     C27065   9.446   3.637   9.685  0.0761 -0.8960 -0.0753
  201MOL0     C27066   8.740   3.918   9.930 -0.2004  0.3952 -0.4772
  201MOL0     C27067   8.599   3.908   9.943 -0.1176  0.6279 -0.2267
  201MOL0     H27068   8.285   3.542   9.919  0.0043  0.0827 -0.2345
  201MOL0     H27069   8.066   3.431   9.961  0.8540 -2.4906 -1.4159
  201MOL0     H27070   7.745   3.520   9.665 -0.9641 -0.7791  0.8600
  201MOL0     H27071   7.844   3.380   9.653  2.8036  2.1397  1.0150
  201MOL0     H27072   7.696   3.258   9.828 -3.7700 -0.2604  1.5850
  201MOL0     H27073   7.585   3.403   9.829 -2.9216 -0.1739 -1.6459
  201MOL0     H27074   7.501   3.369   9.631 -0.8174 -1.0965  1.0745
  201MOL0     H27075   7.651   3.313   9.557 -0.5966  0.1783 -1.0965
  201MOL0     H27076   7.633   3.091   9.688  0.9730 -0.3388 -4.1729
  201MOL0     H27077   7.479   3.163   9.756 -0.7478 -2.2887 -0.7555
  201MOL0     H27078   7.386   3.149   9.532 -0.6782 -2.6366 -1.6939
  201MOL0     H27079   7.546   3.132   9.464  1.1225  2.7503  2.1866
  201MOL0     H27080   7.554   2.899   9.565  0.0297 -0.5123 -2.2076
  201MOL0     H27081   7.415   2.923   9.666 -0.7350 -0.1608  0.0483
  201MOL0     H27082   7.265   2.874   9.516  0.0328  0.1663  1.3589
  201MOL0     H27083   7.343   2.963   9.379 -0.8292 -2.4485 -0.5396
  201MOL0     H27084   7.488   2.772   9.345  1.0290 -0.2904  0.6712
  201MOL0     H27085   7.325   2.730   9.323  2.3373  1.7089 -1.9485
  201MOL0     H27086   7.230   2.660   9.617  0.6278  1.6337 -0.3158
  201MOL0     H27087   7.400   2.365   9.812  1.0169  0.7648  3.6128
  201MOL0     H27088   7.406   2.526   9.880  0.2768  2.6382 -1.7157
  201MOL0     H27089   7.161   2.395   9.743  0.7416 -2.9003  0.4920
  201MOL0     H27090   7.154   2.543   9.841  0.6596  1.3019 -0.1158
  201MOL0     H27091   7.152   2.408  10.054  0.8832 -3.6010  2.5284
  201MOL0     H27092   7.247   2.291   9.955 -1.1849 -1.1570  1.6345
  201MOL0     H27093   7.024   2.223  10.029  3.2859 -4.4480 -1.3359
  201MOL0     H27094   7.065   2.204   9.862 -3.4996 -0.8204 -0.4020
  201MOL0     H27095   6.853   2.121   9.993  1.3712  2.3195  1.3099
  201MOL0     H27096   6.651   1.894   9.887  1.7114  0.1676  1.3603
  201MOL0     H27097   6.702   1.946  10.038  0.1640 -4.3489  0.0469
  201MOL0     H27098   6.529   1.963  10.005 -0.1345  1.4253 -1.8078
  201MOL0     H27099   6.267   2.083  10.028  0.7503  1.3639 -2.0348
  201MOL0     H27100   6.058   1.936  10.103 -1.1040  2.5343  0.9500
  201MOL0     H27101   5.700   2.018   9.886  0.5376  0.1200  0.1101
  201MOL0     H27102   5.745   1.888   9.781  0.9782  1.3320 -0.5612
  201MOL0     H27103   5.548   1.817   9.902  0.8877 -0.0666 -0.5307
  201MOL0     H27104   5.688   1.717   9.934  1.2335  0.1254 -1.3913
  201MOL0     H27105   5.711   1.833  10.157  0.1628 -2.4759 -0.1506
  201MOL0     H27106   5.551   1.748  10.124  0.8723 -0.6697 -0.4318
  201MOL0     H27107   5.606   2.036  10.110 -1.9250  1.3946 -1.1589
  201MOL0     H27108   5.459   1.980  10.070  1.4186  0.3094 -1.2050
  201MOL0     H27109   5.589   1.912  10.333  0.5753  0.6139 -2.1530
  201MOL0     H27110   5.428   1.853  10.302  0.8475 -0.3399  2.9952
  201MOL0     H27111   5.511   2.140  10.324 -1.0029  1.4310 -0.3330
  201MOL0     H27112   5.350   2.097  10.279 -1.2250 -2.4181  0.4984
  201MOL0     H27113   5.447   2.154  10.530  3.6573 -0.8328  0.7073
  201MOL0     H27114   5.476   1.986  10.529 -1.7588 -1.4590 -0.0745
  201MOL0     H27115   5.199   2.098  10.460  1.0678 -0.8532 -1.3231
  201MOL0     H27116   5.215   2.065  10.633 -0.8008  2.3297 -0.6273
  201MOL0     H27117   5.901   2.018   9.719 -1.4340 -0.8725  0.6816
  201MOL0     H27118   6.108   2.133   9.654  0.0305 -1.9834  0.4284
  201MOL0     H27119   6.487   2.361   9.746  0.0814  0.9293  0.4009
  201MOL0     H27120   6.707   2.466   9.799 -2.5505  0.7544  2.0726
  201MOL0     H27121   7.881   3.674   9.662 -1.0224  0.8259  0.7192
  201MOL0     H27122   8.104   3.787   9.632 -0.8333 -1.0261 -1.0582
  201MOL0     H27123   8.559   3.699   9.667  1.2834  1.4472 -2.3983
  201MOL0     H27124   8.797   3.718   9.664 -0.6620 -0.1527 -1.0816
  201MOL0     H27125   8.954   4.071   9.853 -1.1439  0.2540  1.7822
  201MOL0     H27126   9.010   3.970   9.983  0.6418  1.3651  0.2395
  201MOL0     H27127   9.197   4.089   9.897  1.7978 -0.0997  0.2462
  201MOL0     H27128   9.164   4.036   9.728 -1.3005  1.9374  0.4724
  201MOL0     H27129   9.178   3.784   9.839  3.2284 -2.5530  2.5752
  201MOL0     H27130   9.251   3.872   9.965 -0.8609 -1.2904  0.2742
  201MOL0     H27131   9.443   3.925   9.836 -1.1686  2.7557 -0.3527
  201MOL0     H27132   9.351   3.928   9.684  1.0433  0.6459  0.2429
  201MOL0     H27133   9.476   3.552   9.627  3.6345 -0.2729  0.6570
  201MOL0     H27134   8.790   3.966  10.013 -0.8313  2.2415 -1.1140
  201MOL0     H27135   8.532   3.939  10.022 -0.5381 -1.4233  0.2822
  202MOL0     O27136   8.649   9.805   4.472 -0.1204 -0.0613 -0.0610
  202MOL0     C27137   8.772   9.802   4.492  0.4150  0.0392  0.0952
  202MOL0     O27138   8.835   9.717   4.583  0.4646  0.0666 -0.2541
  202MOL0     C27139   8.751   9.641   4.664  0.9718  0.2349  0.4907
  202MOL0     C27140   8.682   9.529   4.610  0.1858  0.2674 -0.1469
  202MOL0     C27141   8.581   9.468   4.693  0.0560 -0.9019  0.1046
  202MOL0     C27142   8.554   9.512   4.821  0.5815 -0.0776 -0.1391
  202MOL0     O27143   8.441   9.460   4.885 -0.5137 -0.4855  0.8578
  202MOL0     C27144   8.361   9.560   4.959 -1.1042  0.2905  0.1389
  202MOL0     C27145   8.224   9.491   4.983  0.4080  0.7591 -0.4215
  202MOL0     C27146   8.114   9.575   5.039 -0.1555  0.3338 -0.4813
  202MOL0     C27147   7.980   9.498   5.072 -0.0873 -0.7308 -1.2130
  202MOL0     C27148   7.869   9.590   5.133 -0.6411  0.1385 -0.0139
  202MOL0     C27149   7.730   9.531   5.135 -0.3122  0.0292  0.0601
  202MOL0     C27150   7.736   9.393   5.202  0.0625 -0.4324  0.7890
  202MOL0     C27151   7.795   9.391   5.345 -0.1431 -0.2081  1.7981
  202MOL0     N27152   7.720   9.480   5.430  0.9426 -0.9282 -0.1577
  202MOL0     C27153   7.779   9.561   5.528 -0.1747  1.0093 -0.3261
  202MOL0     C27154   7.673   9.584   5.621  0.9107  0.1763 -0.1726
  202MOL0     C27155   7.665   9.680   5.728 -0.6202 -0.3425  0.1567
  202MOL0     C27156   7.699   9.829   5.689  0.0095 -0.9974  0.3251
  202MOL0     C27157   7.577   9.905   5.623 -0.0080  0.4385 -1.0617
  202MOL0     C27158   7.547   9.861   5.483 -0.3015 -0.8408  0.6959
  202MOL0     O27159   7.444   9.938   5.429 -0.7605  0.7253  0.0557
  202MOL0     C27160   7.319   9.887   5.429  0.1656  0.9319 -0.1304
  202MOL0     C27161   7.277   9.773   5.494 -0.0223  0.2625 -0.4842
  202MOL0     C27162   7.146   9.718   5.469  0.2603  0.3576 -0.0095
  202MOL0     C27163   7.127   9.581   5.535  0.3531  1.2674  0.2933
  202MOL0     C27164   7.047   9.781   5.389  0.0147 -0.7745 -0.5491
  202MOL0     C27165   6.905   9.740   5.351 -0.5284 -0.8398  1.0629
  202MOL0     O27166   6.814   9.837   5.335  0.5448  0.4454 -0.2144
  202MOL0     C27167   6.682   9.814   5.290 -1.0954 -0.6237  0.0172
  202MOL0     C27168   6.601   9.712   5.323 -1.1901 -0.6023 -0.0215
  202MOL0     C27169   6.481   9.695   5.258  0.0768  1.0286 -0.4499
  202MOL0     C27170   6.443   9.786   5.157 -0.8449  0.0562  0.4428
  202MOL0     O27171   6.318   9.784   5.092  0.2567  0.6303  0.3597
  202MOL0     C27172   6.218   9.688   5.136  0.5442 -0.0170 -0.3497
  202MOL0     C27173   6.086   9.754   5.121 -0.0909 -0.4679  0.4742
  202MOL0     C27174   6.037   9.799   4.983  0.2561 -0.9461  0.3630
  202MOL0     C27175   5.879   9.808   4.986 -1.0406 -0.0739 -0.1223
  202MOL0     C27176   5.835   9.852   4.849  0.8424 -0.6437  0.3272
  202MOL0     C27177   5.686   9.868   4.827  0.3219 -0.0329 -0.3544
  202MOL0     C27178   5.647   9.927   4.694  0.6737 -0.7383  0.3221
  202MOL0     C27179   5.500   9.884   4.661 -1.1812 -0.3291  0.5096
  202MOL0    Cl27180   5.400   9.929   4.798 -0.2084 -0.0725 -0.3671
  202MOL0     C27181   6.531   9.901   5.128 -0.2618  0.4631 -0.4768
  202MOL0     C27182   6.640   9.916   5.204  0.3115  0.2889  0.0117
  202MOL0     O27183   6.876   9.624   5.350  0.0582  0.4022 -1.1451
  202MOL0     C27184   7.084   9.907   5.327 -0.0931 -0.3402 -0.5285
  202MOL0     C27185   7.222   9.956   5.352  0.5748 -0.0752  0.6292
  202MOL0     N27186   7.555   9.516   5.585 -0.6759 -0.4450  0.4019
  202MOL0     N27187   7.592   9.454   5.471  0.2097 -0.2100 -0.7926
  202MOL0     C27188   8.625   9.622   4.871 -0.0568  0.6061  0.1228
  202MOL0     C27189   8.730   9.679   4.796 -0.0713  0.3833 -0.6610
  202MOL0     C27190   8.866   9.873   4.411 -0.2796 -0.2531 -0.1245
  202MOL0     C27191   8.830   9.921   4.291  1.0490 -0.0117  0.2304
  202MOL0     C27192   8.925   9.979   4.209 -0.4432 -0.8020  0.0918
  202MOL0     C27193   9.058   9.998   4.248 -0.5002  1.6540  0.8381
  202MOL0     O27194   9.169  10.056   4.183 -0.6329  0.3190 -0.7095
  202MOL0     C27195   9.177  10.073   4.039 -0.2505 -0.2468  0.2423
  202MOL0     C27196   9.169   9.945   3.956 -0.0452  0.7125  0.6771
  202MOL0     C27197   9.274   9.938   3.839 -0.0529  0.5549  0.8732
  202MOL0     C27198   9.250   9.842   3.721  0.2739 -1.0425  0.3122
  202MOL0     C27199   9.268   9.697   3.751 -0.1964  0.2785  0.6381
  202MOL0     C27200   9.256   9.580   3.772 -0.0697  0.3206 -0.5460
  202MOL0     C27201   9.090   9.946   4.371 -0.6638 -0.1180 -0.4754
  202MOL0     C27202   8.999   9.898   4.459 -0.1599  1.5646  0.1471
  202MOL0     H27203   8.719   9.496   4.513 -2.1455  0.3398 -1.1338
  202MOL0     H27204   8.521   9.385   4.657 -1.1235  0.5551 -1.4445
  202MOL0     H27205   8.397   9.597   5.056 -0.0578 -3.3436  1.3144
  202MOL0     H27206   8.338   9.641   4.890 -1.0231 -1.9913 -2.7759
  202MOL0     H27207   8.178   9.447   4.895 -4.3394  2.4835  0.8821
  202MOL0     H27208   8.250   9.410   5.052  2.1497  2.7987  1.5009
  202MOL0     H27209   8.145   9.630   5.129 -0.5593 -1.8602  1.0847
  202MOL0     H27210   8.089   9.651   4.964 -1.6826 -0.2792 -0.6242
  202MOL0     H27211   7.941   9.455   4.979 -0.8723 -0.6924 -0.9154
  202MOL0     H27212   8.006   9.416   5.139  1.3940  0.6634 -0.0208
  202MOL0     H27213   7.894   9.635   5.229  0.4469  2.1679 -1.1832
  202MOL0     H27214   7.864   9.680   5.072  1.4306  1.0555  1.0949
  202MOL0     H27215   7.650   9.591   5.180  0.2043  1.2410 -0.5826
  202MOL0     H27216   7.695   9.509   5.034 -0.4616 -1.3298  0.3819
  202MOL0     H27217   7.638   9.343   5.202 -0.0615 -0.2415 -1.0228
  202MOL0     H27218   7.788   9.324   5.135  1.6123  1.4694 -0.0528
  202MOL0     H27219   7.899   9.424   5.344  0.0343 -0.1609 -3.0712
  202MOL0     H27220   7.786   9.288   5.379  1.2393 -1.2753 -0.7914
  202MOL0     H27221   7.875   9.609   5.544 -1.2160  2.5999  1.5625
  202MOL0     H27222   7.568   9.671   5.778 -0.4339 -2.1723  0.2500
  202MOL0     H27223   7.738   9.645   5.802  3.6986  1.1792 -2.9511
  202MOL0     H27224   7.789   9.833   5.628 -1.6514  1.1507 -2.2013
  202MOL0     H27225   7.720   9.873   5.787  0.9406 -2.9496  1.0674
  202MOL0     H27226   7.586  10.014   5.619 -1.9303  0.6033 -2.3573
  202MOL0     H27227   7.492   9.885   5.689  0.0431 -0.7294 -1.3353
  202MOL0     H27228   7.532   9.753   5.477  0.4487 -0.8759 -1.2464
  202MOL0     H27229   7.636   9.876   5.422 -0.2032  0.0416  1.0390
  202MOL0     H27230   7.355   9.722   5.550 -0.8480 -1.6863 -1.0298
  202MOL0     H27231   7.097   9.506   5.462 -0.2179 -0.1667  1.9355
  202MOL0     H27232   7.222   9.550   5.578 -0.2919  0.6325  1.2936
  202MOL0     H27233   7.049   9.586   5.612 -1.0417  0.7794 -1.0299
  202MOL0     H27234   6.633   9.640   5.398 -3.5060 -2.1382 -0.4257
  202MOL0     H27235   6.428   9.605   5.288  0.3043  1.3141  0.8294
  202MOL0     H27236   6.212   9.595   5.079 -5.9351 -1.2384  1.4931
  202MOL0     H27237   6.234   9.666   5.242 -1.4225  0.8508  0.1729
  202MOL0     H27238   6.013   9.688   5.169  0.6827 -1.5908  0.1604
  202MOL0     H27239   6.097   9.847   5.178 -1.2577  1.4390 -2.2187
  202MOL0     H27240   6.079   9.743   4.899 -0.8088 -3.6135  1.5086
  202MOL0     H27241   6.080   9.898   4.965  4.6478 -2.3187  2.0193
  202MOL0     H27242   5.842   9.711   5.019  1.7163 -1.5607 -1.1218
  202MOL0     H27243   5.860   9.875   5.071  2.0205 -0.1765  0.7427
  202MOL0     H27244   5.867   9.779   4.775  0.2982 -1.6426  1.0475
  202MOL0     H27245   5.883   9.947   4.824 -0.4902 -0.0888 -0.1686
  202MOL0     H27246   5.633   9.772   4.839 -1.3370  1.0350  1.5146
  202MOL0     H27247   5.647   9.933   4.906  0.5725 -1.2259  0.7966
  202MOL0     H27248   5.715   9.899   4.613  0.6725  0.5347 -0.1389
  202MOL0     H27249   5.644  10.034   4.718  0.1800 -0.6957  0.0869
  202MOL0     H27250   5.494   9.777   4.639 -2.0768  0.0971 -1.5767
  202MOL0     H27251   5.469   9.936   4.570 -2.0328 -0.6377  0.6124
  202MOL0     H27252   6.506   9.974   5.052  1.2869 -0.5311 -2.0173
  202MOL0     H27253   6.695  10.008   5.185 -1.1378  0.9943 -0.9830
  202MOL0     H27254   7.016   9.966   5.267 -1.1969 -2.8947 -1.9320
  202MOL0     H27255   7.262  10.043   5.300  0.2989  0.5347  1.4097
  202MOL0     H27256   8.605   9.655   4.972  1.8429 -3.8840  2.2475
  202MOL0     H27257   8.807   9.751   4.823  2.1496 -1.2227 -2.2515
  202MOL0     H27258   8.732   9.906   4.247 -0.4664  1.0021  3.0758
  202MOL0     H27259   8.889  10.037   4.125 -3.9681 -0.7451  1.4566
  202MOL0     H27260   9.099  10.141   4.004 -0.0289 -1.3430 -2.6284
  202MOL0     H27261   9.268  10.124   4.006 -0.1992 -0.3364  0.2444
  202MOL0     H27262   9.070   9.935   3.909  0.5702  0.9413 -0.7421
  202MOL0     H27263   9.188   9.859   4.020 -2.1022 -1.2037 -1.1121
  202MOL0     H27264   9.373   9.924   3.883  0.7030  1.3237 -0.5006
  202MOL0     H27265   9.268  10.039   3.796 -1.9861 -1.0175 -2.9792
  202MOL0     H27266   9.326   9.862   3.645 -1.9406 -1.0738 -2.0869
  202MOL0     H27267   9.152   9.866   3.677  1.3324  0.4299 -1.4004
  202MOL0     H27268   9.261   9.475   3.797  0.2724 -0.1483 -2.4552
  202MOL0     H27269   9.193   9.955   4.404 -0.3230  0.4110 -1.6365
  202MOL0     H27270   9.037   9.875   4.558  1.7868 -2.4990 -1.3558
  203MOL0     O27271   4.626   1.522   8.988 -0.4992  0.6627 -0.1159
  203MOL0     C27272   4.602   1.493   9.105  0.2573  0.0408 -0.7304
  203MOL0     O27273   4.466   1.476   9.154 -0.5988  0.2322  0.9659
  203MOL0     C27274   4.368   1.469   9.059  0.1071  0.1959 -1.3973
  203MOL0     C27275   4.281   1.573   9.046 -0.4268 -0.7596  0.5264
  203MOL0     C27276   4.196   1.584   8.937 -0.1906 -0.6091 -1.1313
  203MOL0     C27277   4.171   1.473   8.859 -0.3953  0.4713  0.1620
  203MOL0     O27278   4.098   1.480   8.745  0.6151  0.4509  0.1391
  203MOL0     C27279   3.956   1.499   8.761  0.2880  0.2018 -0.0886
  203MOL0     C27280   3.889   1.415   8.645  0.0426 -0.1348 -1.0073
  203MOL0     C27281   3.735   1.383   8.662  0.3830 -0.2268  0.0461
  203MOL0     C27282   3.643   1.503   8.675 -0.0548  0.0256 -1.0208
  203MOL0     C27283   3.491   1.457   8.680  0.3951 -0.8006 -0.1816
  203MOL0     C27284   3.404   1.573   8.720  1.1527  1.4026  0.7548
  203MOL0     C27285   3.257   1.555   8.695 -0.5834  0.0330  0.6516
  203MOL0     C27286   3.186   1.455   8.794  0.1942  0.2589  0.4944
  203MOL0     N27287   3.036   1.445   8.792 -0.7446 -0.6252  0.8155
  203MOL0     C27288   2.959   1.342   8.739  0.0934 -0.0947  0.7077
  203MOL0     C27289   2.833   1.382   8.738  0.6904  1.2377  0.3916
  203MOL0     C27290   2.728   1.309   8.663 -0.0532  1.1199 -0.0836
  203MOL0     C27291   2.631   1.250   8.765 -0.1817 -0.4778  0.6264
  203MOL0     C27292   2.518   1.172   8.692  1.0692  0.1576  0.6681
  203MOL0     C27293   2.416   1.111   8.796 -0.1597  0.6297  0.0749
  203MOL0     O27294   2.478   1.007   8.868 -0.1103  0.7926 -0.2988
  203MOL0     C27295   2.423   0.880   8.858 -0.4823  0.1550 -0.0448
  203MOL0     C27296   2.291   0.845   8.820  0.0364  0.4080  0.7513
  203MOL0     C27297   2.246   0.709   8.850  0.3180 -1.7793 -0.1576
  203MOL0     C27298   2.093   0.694   8.828  0.6773  0.5955  0.3270
  203MOL0     C27299   2.332   0.607   8.890  0.8568 -0.7066  0.2118
  203MOL0     C27300   2.289   0.468   8.916 -1.0284  0.2728  0.1183
  203MOL0     O27301   2.396   0.384   8.923  0.8132  0.7125 -0.1726
  203MOL0     C27302   2.378   0.261   8.972  0.1188  0.6401  0.6105
  203MOL0     C27303   2.410   0.164   8.874 -0.2800 -0.8188 -0.8159
  203MOL0     C27304   2.415   0.030   8.919 -0.0350  0.4070 -0.1534
  203MOL0     C27305   2.385  -0.010   9.047 -0.4792 -0.7781  0.0990
  203MOL0     O27306   2.372  -0.144   9.068 -0.8970  0.5396 -0.7537
  203MOL0     C27307   2.302  -0.205   9.181 -0.1558  0.2118  0.4445
  203MOL0     C27308   2.302  -0.354   9.152 -0.6984 -0.9934 -0.6931
  203MOL0     C27309   2.440  -0.405   9.118 -0.0933 -0.9163  0.8504
  203MOL0     C27310   2.454  -0.433   8.967  0.1241  0.7326 -0.1055
  203MOL0     C27311   2.580  -0.516   8.944 -0.2016 -1.4002 -0.5027
  203MOL0     C27312   2.615  -0.532   8.795  1.3777 -0.5026  0.5680
  203MOL0     C27313   2.687  -0.403   8.749  0.7155 -0.1430  0.4073
  203MOL0     C27314   2.730  -0.425   8.608  0.0835 -0.2666  0.8594
  203MOL0    Cl27315   2.875  -0.536   8.593  0.0781 -0.0279  0.5645
  203MOL0     C27316   2.362   0.092   9.141 -0.1747  1.0100 -0.3064
  203MOL0     C27317   2.342   0.222   9.100 -0.1775  0.1774 -1.2350
  203MOL0     O27318   2.175   0.437   8.909 -0.1077 -0.8639  0.0703
  203MOL0     C27319   2.461   0.644   8.912  0.0905  1.1054 -0.5736
  203MOL0     C27320   2.504   0.774   8.899  0.1151 -0.3475 -0.0256
  203MOL0     N27321   2.821   1.499   8.816  0.4436 -0.4130 -0.0612
  203MOL0     N27322   2.946   1.533   8.847 -0.2747 -0.1601  0.5111
  203MOL0     C27323   4.266   1.366   8.871  0.6981 -1.2462  0.8304
  203MOL0     C27324   4.355   1.360   8.976 -0.1704 -0.0167  0.3221
  203MOL0     C27325   4.716   1.487   9.199 -0.2879 -0.8086 -1.2340
  203MOL0     C27326   4.693   1.479   9.337 -0.5819 -0.6894  0.8834
  203MOL0     C27327   4.801   1.459   9.424  0.1433 -0.0244  0.1484
  203MOL0     C27328   4.930   1.449   9.373  1.0516 -1.0347  0.2245
  203MOL0     O27329   5.026   1.433   9.468  0.3812  0.0195 -0.3248
  203MOL0     C27330   5.108   1.307   9.456  0.7935  0.2720  0.7527
  203MOL0     C27331   5.257   1.351   9.476 -0.0440 -0.3265  1.3572
  203MOL0     C27332   5.343   1.241   9.410 -0.3154  0.3494  0.0880
  203MOL0     C27333   5.327   1.107   9.481 -1.1445  0.1633  0.5370
  203MOL0     C27334   5.397   1.014   9.394 -0.3119 -0.3591 -0.7213
  203MOL0     C27335   5.455   0.935   9.322 -0.3649  0.6106  0.3697
  203MOL0     C27336   4.955   1.475   9.240  0.1080  0.1421 -0.2944
  203MOL0     C27337   4.851   1.502   9.148  0.3128  0.3541 -0.2599
  203MOL0     H27338   4.289   1.661   9.109  1.5776  0.4944 -1.3456
  203MOL0     H27339   4.142   1.678   8.926  1.8820  0.9047  0.8861
  203MOL0     H27340   3.920   1.465   8.858  3.3059  0.8131  1.3824
  203MOL0     H27341   3.928   1.605   8.761  0.2427  0.1983  0.9791
  203MOL0     H27342   3.914   1.463   8.551  0.2284  0.5632 -0.6075
  203MOL0     H27343   3.936   1.316   8.643  1.1787  0.2794 -6.0886
  203MOL0     H27344   3.711   1.326   8.572  1.2432  0.5628 -0.7058
  203MOL0     H27345   3.726   1.327   8.756  2.4997  0.3394  0.6500
  203MOL0     H27346   3.663   1.554   8.770 -0.3475  1.8765 -1.9284
  203MOL0     H27347   3.644   1.578   8.596  1.3052  0.5479 -0.5268
  203MOL0     H27348   3.475   1.413   8.581 -2.7268 -0.8485  0.2255
  203MOL0     H27349   3.476   1.382   8.759 -1.1063  0.5971  0.9229
  203MOL0     H27350   3.423   1.576   8.828 -1.4754 -0.0566  1.3224
  203MOL0     H27351   3.441   1.665   8.674  1.3328  1.0608  0.1947
  203MOL0     H27352   3.212   1.651   8.722  0.7542  0.6452  0.7437
  203MOL0     H27353   3.235   1.528   8.591  1.7977  1.3690 -0.2674
  203MOL0     H27354   3.215   1.467   8.899 -1.0344 -0.8438  0.9718
  203MOL0     H27355   3.218   1.354   8.767  0.4341  0.9382 -2.0449
  203MOL0     H27356   2.997   1.258   8.682  0.9393  0.9830 -0.3675
  203MOL0     H27357   2.686   1.381   8.592 -1.8820 -0.1246 -0.3439
  203MOL0     H27358   2.776   1.228   8.608  0.1471  0.4066  1.1176
  203MOL0     H27359   2.585   1.324   8.832 -0.2087 -0.2277  0.3374
  203MOL0     H27360   2.690   1.180   8.825  1.3757 -1.8313 -2.2744
  203MOL0     H27361   2.565   1.090   8.636 -0.0128  0.8980 -1.4569
  203MOL0     H27362   2.459   1.226   8.617  0.0806  1.7031  2.4646
  203MOL0     H27363   2.334   1.068   8.737  1.0442 -3.9015  1.2632
  203MOL0     H27364   2.385   1.187   8.868  2.9691  1.4217  0.7441
  203MOL0     H27365   2.213   0.914   8.791 -1.7745 -1.7214  0.2353
  203MOL0     H27366   2.091   0.629   8.740  1.8241 -0.9619  1.3883
  203MOL0     H27367   2.044   0.652   8.917 -1.8629 -2.4133 -2.2457
  203MOL0     H27368   2.038   0.779   8.788  1.3065  1.1339  0.5850
  203MOL0     H27369   2.418   0.209   8.775  1.8154  0.3281 -0.1809
  203MOL0     H27370   2.432  -0.049   8.846  2.5284 -0.2482  1.0668
  203MOL0     H27371   2.361  -0.179   9.270  0.7854 -3.3142  0.9937
  203MOL0     H27372   2.201  -0.163   9.185 -0.6598 -0.8711 -0.5354
  203MOL0     H27373   2.277  -0.404   9.246  3.2671 -0.7093  0.7220
  203MOL0     H27374   2.235  -0.378   9.069  1.0367 -0.6267 -2.2689
  203MOL0     H27375   2.458  -0.496   9.176  0.1981 -1.3847  0.0498
  203MOL0     H27376   2.517  -0.332   9.145 -1.1013  1.5611 -2.2709
  203MOL0     H27377   2.365  -0.485   8.932  1.7439 -2.8925  0.6717
  203MOL0     H27378   2.470  -0.336   8.917  2.8693  0.1094 -0.6261
  203MOL0     H27379   2.571  -0.617   8.986  1.0075 -0.6020  1.8594
  203MOL0     H27380   2.664  -0.468   8.995  2.7486 -2.6678 -3.7421
  203MOL0     H27381   2.684  -0.618   8.787 -1.1585 -2.5667 -0.5770
  203MOL0     H27382   2.523  -0.561   8.744  1.3088 -3.0730  1.9769
  203MOL0     H27383   2.772  -0.378   8.813  0.7961  0.7394 -0.0202
  203MOL0     H27384   2.629  -0.310   8.760 -2.5830 -2.2610  2.5111
  203MOL0     H27385   2.755  -0.332   8.556  1.6550 -1.0735  0.1040
  203MOL0     H27386   2.643  -0.470   8.559  1.4161 -1.9443 -0.0753
  203MOL0     H27387   2.337   0.058   9.241  0.9669  1.1845  0.0550
  203MOL0     H27388   2.315   0.298   9.172 -1.7587 -2.0989  0.7124
  203MOL0     H27389   2.530   0.565   8.940 -3.2157 -1.5426  0.8747
  203MOL0     H27390   2.609   0.777   8.925  0.2892 -1.3079 -0.5955
  203MOL0     H27391   4.263   1.291   8.793 -3.2915  0.2818 -0.7743
  203MOL0     H27392   4.422   1.274   8.984 -1.2040 -0.7881  0.8645
  203MOL0     H27393   4.589   1.479   9.367 -0.7985  2.9760  0.6489
  203MOL0     H27394   4.768   1.455   9.527 -1.6385  0.3043 -0.3809
  203MOL0     H27395   5.076   1.229   9.526 -1.3508 -0.1561 -0.6131
  203MOL0     H27396   5.098   1.270   9.354  0.3625 -1.9590  1.5596
  203MOL0     H27397   5.279   1.348   9.583  2.7030 -0.3518  0.8575
  203MOL0     H27398   5.284   1.447   9.431 -0.9778 -0.8401 -0.3826
  203MOL0     H27399   5.447   1.274   9.410 -0.5723  1.1815  0.0028
  203MOL0     H27400   5.308   1.233   9.307  1.3476  1.1737 -0.5711
  203MOL0     H27401   5.227   1.069   9.506  0.1406 -3.9608  0.1609
  203MOL0     H27402   5.380   1.120   9.575 -0.3548  1.7470 -0.0876
  203MOL0     H27403   5.486   0.852   9.262  2.8894  0.8596  1.5424
  203MOL0     H27404   5.059   1.470   9.209  0.2593  1.8965 -0.1924
  203MOL0     H27405   4.872   1.520   9.043 -0.0665 -0.1842 -0.4342
  204MOL0     O27406   1.575  10.148   9.934  0.0610 -0.2758 -0.3022
  204MOL0     C27407   1.584  10.074   9.843  0.2123  0.8694  0.2331
  204MOL0     O27408   1.492   9.970   9.805 -0.2395  0.4036  0.0028
  204MOL0     C27409   1.381   9.961   9.892 -0.2325  0.0667  0.2110
  204MOL0     C27410   1.369   9.832   9.953  0.4962  0.1341  1.2378
  204MOL0     C27411   1.256   9.806  10.026  0.4694  0.4245 -0.1486
  204MOL0     C27412   1.161   9.903  10.059 -0.3087  0.1113 -0.4384
  204MOL0     O27413   1.055   9.858  10.134  0.4537 -0.6136  0.3593
  204MOL0     C27414   0.968   9.954  10.189  0.9054 -0.4378 -0.9365
  204MOL0     C27415   0.859   9.884  10.271  0.5959  0.1815  1.2392
  204MOL0     C27416   0.910   9.829  10.410 -0.6295 -0.3717 -0.4363
  204MOL0     C27417   0.815   9.716  10.464 -0.6668 -0.5820 -0.4961
  204MOL0     C27418   0.802   9.591  10.371  0.1340 -0.0235  0.9017
  204MOL0     C27419   0.691   9.491  10.402  0.3965 -0.6635 -0.0530
  204MOL0     C27420   0.716   9.417  10.543 -1.1524 -0.4743 -0.3111
  204MOL0     C27421   0.613   9.313  10.574  0.5448  0.1815 -0.4437
  204MOL0     N27422   0.481   9.364  10.600  0.3561  0.6390 -0.2035
  204MOL0     C27423   0.370   9.347  10.513  0.8984 -0.4962 -0.1524
  204MOL0     C27424   0.265   9.381  10.590 -0.1497 -0.0022 -0.1634
  204MOL0     C27425   0.128   9.403  10.555 -0.1490 -0.9875  0.3777
  204MOL0     C27426   0.031   9.337  10.645 -0.7795  0.3195 -0.4636
  204MOL0     C27427  -0.107   9.386  10.629  0.3425  0.5953 -0.1144
  204MOL0     C27428  -0.210   9.306  10.716 -0.1174  0.1437 -0.1686
  204MOL0     O27429  -0.195   9.160  10.693  0.0089  0.0936  0.4311
  204MOL0     C27430  -0.293   9.065  10.738  0.3784 -0.9605 -0.1278
  204MOL0     C27431  -0.400   9.093  10.825 -0.7045  0.2918  0.6848
  204MOL0     C27432  -0.482   8.987  10.869 -0.0673 -0.4936  0.4008
  204MOL0     C27433  -0.589   9.023  10.981  0.7576  0.2643  0.7703
  204MOL0     C27434  -0.454   8.848  10.822 -0.3683 -0.2196 -0.3141
  204MOL0     C27435  -0.524   8.733  10.869  0.6902  0.9474 -0.1155
  204MOL0     O27436  -0.645   8.751  10.923 -0.0503  0.6712 -0.3409
  204MOL0     C27437  -0.695   8.639  10.983  0.3159 -0.5568 -0.9341
  204MOL0     C27438  -0.797   8.582  10.913 -0.1270  0.5605  0.1118
  204MOL0     C27439  -0.856   8.459  10.956  0.3698  0.7516 -0.0395
  204MOL0     C27440  -0.798   8.400  11.069  0.4696  0.0856 -0.4525
  204MOL0     O27441  -0.849   8.275  11.104 -0.0211  0.5567  0.1178
  204MOL0     C27442  -0.817   8.201  11.227  0.2052  0.4859 -0.2178
  204MOL0     C27443  -0.854   8.049  11.216 -0.5506 -0.2210  0.2573
  204MOL0     C27444  -1.005   8.029  11.218  0.0727 -0.0062 -0.2452
  204MOL0     C27445  -1.019   7.882  11.204  0.5616  0.4838  0.4419
  204MOL0     C27446  -1.159   7.844  11.206  0.3512  0.2688 -0.0219
  204MOL0     C27447  -1.180   7.714  11.132 -0.0740 -0.1932  0.1805
  204MOL0     C27448  -1.071   7.608  11.167  0.0471  0.6268  0.5490
  204MOL0     C27449  -1.112   7.480  11.092 -0.7596  0.3964  1.0151
  204MOL0    Cl27450  -1.253   7.407  11.164  0.1527  0.0447  0.0367
  204MOL0     C27451  -0.697   8.466  11.145 -0.6252  0.5044  0.1510
  204MOL0     C27452  -0.638   8.582  11.094 -0.5027 -0.4763  0.0803
  204MOL0     O27453  -0.485   8.627  10.828  0.3760 -0.2755  0.3645
  204MOL0     C27454  -0.347   8.829  10.735  0.3768  0.5966  0.3531
  204MOL0     C27455  -0.276   8.935  10.682 -0.7074 -0.2119 -0.1608
  204MOL0     N27456   0.310   9.421  10.711 -0.8295  0.0159  0.5306
  204MOL0     N27457   0.437   9.410  10.719  0.1756 -1.3895  0.4688
  204MOL0     C27458   1.179  10.027  10.002 -0.1151  0.8968 -0.3231
  204MOL0     C27459   1.286  10.061   9.922 -0.2173 -0.3163  0.1895
  204MOL0     C27460   1.708  10.084   9.765 -0.1082 -0.4013 -0.1590
  204MOL0     C27461   1.750   9.981   9.677 -0.1823 -0.4681  0.0123
  204MOL0     C27462   1.864   9.981   9.594  0.4170 -0.3481  0.1440
  204MOL0     C27463   1.943  10.094   9.597 -0.6012  0.1940 -0.5183
  204MOL0     O27464   2.063  10.092   9.526  0.5267  0.1142  0.5598
  204MOL0     C27465   2.135  10.214   9.532 -0.3091 -0.6788 -0.2121
  204MOL0     C27466   2.267  10.207   9.448  0.1325  0.0902 -0.9362
  204MOL0     C27467   2.264  10.189   9.297  0.3124 -0.4101  0.6431
  204MOL0     C27468   2.402  10.180   9.236  0.3422  0.2677 -0.7842
  204MOL0     C27469   2.463  10.046   9.221  0.0129  0.2030  0.7650
  204MOL0     C27470   2.507   9.935   9.189  0.0679 -0.2744 -0.6251
  204MOL0     C27471   1.914  10.201   9.695  0.1233  0.1429 -0.0881
  204MOL0     C27472   1.791  10.200   9.768  0.2660 -0.0507 -0.4673
  204MOL0     H27473   1.433   9.748   9.928 -0.0124  0.5467 -1.8776
  204MOL0     H27474   1.244   9.703  10.059  3.1210 -1.2155 -3.6346
  204MOL0     H27475   1.025  10.018  10.257  0.0354 -0.7609  0.1195
  204MOL0     H27476   0.919  10.016  10.113 -1.7758  0.5586  1.4378
  204MOL0     H27477   0.771   9.944  10.297  0.9130  0.4052  1.8223
  204MOL0     H27478   0.814   9.808  10.207  4.6951 -2.5396  1.2179
  204MOL0     H27479   1.013   9.793  10.411  0.9690  3.6198  0.4578
  204MOL0     H27480   0.917   9.901  10.492  0.9391 -0.8431 -0.1196
  204MOL0     H27481   0.849   9.685  10.563 -4.6160  1.9828  1.9672
  204MOL0     H27482   0.715   9.757  10.477  0.5261  1.4379  3.9480
  204MOL0     H27483   0.774   9.613  10.268 -0.5936 -0.0247  1.0937
  204MOL0     H27484   0.898   9.538  10.365 -1.7403 -3.7651  0.6364
  204MOL0     H27485   0.594   9.539  10.390  0.0817 -1.3785 -0.4528
  204MOL0     H27486   0.704   9.422  10.318  2.1451 -0.0135 -0.3605
  204MOL0     H27487   0.817   9.375  10.535 -1.8563 -2.3360  0.1365
  204MOL0     H27488   0.714   9.497  10.617 -0.8212  0.9028 -1.7304
  204MOL0     H27489   0.645   9.247  10.655 -2.0812 -1.4449 -0.6201
  204MOL0     H27490   0.605   9.245  10.489  1.2255 -0.4486 -0.0162
  204MOL0     H27491   0.361   9.339  10.405 -0.8749 -1.7547  0.0527
  204MOL0     H27492   0.097   9.507  10.571 -3.0951 -1.9735  1.8801
  204MOL0     H27493   0.109   9.372  10.452 -0.8411  1.6807 -0.3905
  204MOL0     H27494   0.062   9.348  10.749 -0.6776 -0.7662 -0.3656
  204MOL0     H27495   0.043   9.230  10.623  4.6664  0.5600 -0.0878
  204MOL0     H27496  -0.149   9.380  10.528  0.3313 -0.1983 -0.0700
  204MOL0     H27497  -0.096   9.491  10.655 -2.0678  0.9315 -0.2418
  204MOL0     H27498  -0.312   9.338  10.690  0.1881 -0.1499 -1.8321
  204MOL0     H27499  -0.182   9.329  10.819  2.0932 -1.4156 -0.3504
  204MOL0     H27500  -0.417   9.189  10.871  1.5520  0.4092  1.4216
  204MOL0     H27501  -0.693   9.028  10.948  1.3739  1.0144 -1.2049
  204MOL0     H27502  -0.573   8.960  11.069 -0.4446 -0.1774  0.6810
  204MOL0     H27503  -0.570   9.127  11.009  1.7994  0.1079  0.6827
  204MOL0     H27504  -0.839   8.639  10.831 -0.6611 -1.2955 -0.9515
  204MOL0     H27505  -0.937   8.417  10.897  1.0852 -2.3110  0.9997
  204MOL0     H27506  -0.713   8.226  11.250  0.1711 -1.2187  2.2734
  204MOL0     H27507  -0.879   8.246  11.306  2.2429  1.3788  0.9551
  204MOL0     H27508  -0.822   7.994  11.127 -0.5544 -2.8522  1.7899
  204MOL0     H27509  -0.812   7.997  11.303 -3.6424  2.7057  3.8069
  204MOL0     H27510  -1.042   8.079  11.128  1.3996  1.5701  0.0565
  204MOL0     H27511  -1.055   8.065  11.309  2.6107 -0.0415  1.2430
  204MOL0     H27512  -0.978   7.845  11.110 -1.2620 -0.5845  0.0213
  204MOL0     H27513  -0.967   7.836  11.288  1.4086  0.4585 -0.0858
  204MOL0     H27514  -1.222   7.922  11.162  0.3456  1.1754  1.5322
  204MOL0     H27515  -1.182   7.814  11.309 -2.3023  2.7668  0.2339
  204MOL0     H27516  -1.280   7.674  11.151 -0.6346  1.5070  1.0292
  204MOL0     H27517  -1.164   7.733  11.025 -0.1414 -2.2609 -0.2499
  204MOL0     H27518  -1.053   7.583  11.272  0.1340 -1.7802  0.0150
  204MOL0     H27519  -0.973   7.643  11.135  1.0130 -0.1287  2.5131
  204MOL0     H27520  -1.024   7.416  11.092  0.0760  1.0580 -4.3341
  204MOL0     H27521  -1.127   7.515  10.989 -3.3663  0.0819  1.2183
  204MOL0     H27522  -0.668   8.420  11.240 -2.3245  0.5845  0.7511
  204MOL0     H27523  -0.574   8.657  11.141 -1.7016  0.3168  0.5041
  204MOL0     H27524  -0.312   8.734  10.697 -0.3014  0.6978 -0.5598
  204MOL0     H27525  -0.193   8.914  10.616  0.4798 -0.2773  1.2791
  204MOL0     H27526   1.097  10.097  10.016  1.0854  2.1185  1.0024
  204MOL0     H27527   1.279  10.162   9.883 -3.3058 -0.1384  0.9738
  204MOL0     H27528   1.696   9.887   9.685 -1.1229  0.0631  0.1017
  204MOL0     H27529   1.884   9.898   9.528 -0.4546 -1.7382  1.5571
  204MOL0     H27530   2.064  10.291   9.498 -2.0326 -1.6108  1.1378
  204MOL0     H27531   2.166  10.242   9.632 -0.2697 -1.7526  0.0844
  204MOL0     H27532   2.324  10.129   9.499  1.6841  1.5594 -0.2981
  204MOL0     H27533   2.330  10.296   9.463 -1.2115  0.9206  0.0614
  204MOL0     H27534   2.212  10.280   9.266  1.3953  0.5112  1.4427
  204MOL0     H27535   2.207  10.100   9.267 -2.2086  1.4554 -0.5160
  204MOL0     H27536   2.469  10.244   9.293 -0.0751  0.7054 -0.7816
  204MOL0     H27537   2.395  10.225   9.136  0.3427  3.3148  0.4879
  204MOL0     H27538   2.529   9.839   9.148  0.4899  0.2378 -1.6449
  204MOL0     H27539   1.975  10.290   9.708 -0.9574  0.9389 -0.2959
  204MOL0     H27540   1.769  10.282   9.835 -0.6161 -0.8295  0.2180
  205MOL0     O27541  11.107  11.293   3.823  0.1194  0.4809  0.3198
  205MOL0     C27542  11.069  11.178   3.855 -0.0864 -1.0239 -0.5987
  205MOL0     O27543  10.960  11.158   3.934  0.0516  0.0328 -0.1039
  205MOL0     C27544  10.900  11.260   3.988  0.9129  0.2250 -0.4923
  205MOL0     C27545  10.785  11.307   3.925 -0.4781 -0.2574 -0.3094
  205MOL0     C27546  10.740  11.435   3.960 -0.1824  0.1086 -0.8149
  205MOL0     C27547  10.799  11.513   4.062 -0.0640 -0.7419  0.4632
  205MOL0     O27548  10.761  11.642   4.077 -0.8743 -0.3557  0.3220
  205MOL0     C27549  10.810  11.721   4.197 -0.8233 -0.8073 -0.0795
  205MOL0     C27550  10.753  11.867   4.185  0.7524  0.2330  0.0289
  205MOL0     C27551  10.600  11.860   4.178 -0.5241 -0.7203 -0.3158
  205MOL0     C27552  10.537  11.996   4.120 -0.5882 -0.2441  0.1673
  205MOL0     C27553  10.505  12.097   4.240 -0.3109 -0.4281  0.3519
  205MOL0     C27554  10.444  12.229   4.200 -1.0358  0.6799  0.4795
  205MOL0     C27555  10.547  12.306   4.114 -1.1481 -0.0548  0.0955
  205MOL0     C27556  10.512  12.460   4.112 -0.6552  0.4761 -0.4061
  205MOL0     N27557  10.394  12.494   4.041  0.1990 -0.2488  0.0481
  205MOL0     C27558  10.373  12.465   3.911  0.0390  0.8091  0.5897
  205MOL0     C27559  10.248  12.505   3.884  0.6270 -0.1740 -0.4263
  205MOL0     C27560  10.163  12.474   3.768  0.0888 -0.0009  0.0418
  205MOL0     C27561  10.083  12.339   3.769 -1.1402  0.1866  0.0760
  205MOL0     C27562   9.981  12.338   3.890  0.0311 -0.5097 -0.0158
  205MOL0     C27563   9.867  12.436   3.854 -0.9306  0.4832  0.3760
  205MOL0     O27564   9.767  12.451   3.962  0.7173 -0.6691  0.6169
  205MOL0     C27565   9.650  12.530   3.940  0.3012  0.3871  0.6606
  205MOL0     C27566   9.581  12.556   4.063  0.2978  0.2885 -0.3047
  205MOL0     C27567   9.473  12.647   4.067  1.1355 -0.5405  0.8991
  205MOL0     C27568   9.422  12.689   4.208  0.8174 -0.2089 -0.4119
  205MOL0     C27569   9.416  12.688   3.944  0.6155 -0.1996 -0.1713
  205MOL0     C27570   9.283  12.758   3.933 -0.0961 -0.4579 -0.1165
  205MOL0     O27571   9.220  12.804   4.050  0.2686  0.7314  0.2348
  205MOL0     C27572   9.095  12.857   4.054 -0.1361 -0.2908  0.5139
  205MOL0     C27573   8.996  12.845   3.956  0.5577  0.3113  0.1728
  205MOL0     C27574   8.874  12.918   3.967 -0.6686  0.1057  0.2472
  205MOL0     C27575   8.852  12.997   4.083  0.1007  0.8031  0.5127
  205MOL0     O27576   8.736  13.069   4.110 -0.5379 -0.0831  0.4686
  205MOL0     C27577   8.620  13.045   4.033 -0.3101  0.0187 -0.4007
  205MOL0     C27578   8.624  13.134   3.907 -0.1281 -0.8554  0.5781
  205MOL0     C27579   8.484  13.135   3.848 -0.0455  0.7438  0.2508
  205MOL0     C27580   8.478  13.218   3.717 -0.0835  0.0968 -0.0700
  205MOL0     C27581   8.342  13.237   3.643  0.2361  0.0754 -0.0089
  205MOL0     C27582   8.354  13.334   3.520  0.0702 -0.8618  0.4244
  205MOL0     C27583   8.215  13.371   3.453 -0.5102 -0.0755 -0.4130
  205MOL0     C27584   8.170  13.269   3.355  0.2220 -0.1122  0.3286
  205MOL0    Cl27585   8.305  13.249   3.237  0.3258  0.1376 -0.5106
  205MOL0     C27586   8.959  12.999   4.179  1.2149 -0.7677 -0.1138
  205MOL0     C27587   9.072  12.929   4.173 -0.3697  0.4626 -0.0885
  205MOL0     O27588   9.247  12.786   3.818  0.6960  0.3338 -1.0581
  205MOL0     C27589   9.482  12.658   3.828 -0.0518 -0.4153 -0.1600
  205MOL0     C27590   9.605  12.586   3.820  0.5357 -0.3708 -0.3557
  205MOL0     N27591  10.187  12.547   4.005 -0.3568 -0.2527  0.7913
  205MOL0     N27592  10.274  12.542   4.089 -0.8334 -0.6482  0.1622
  205MOL0     C27593  10.896  11.449   4.138 -0.1823  0.2261  0.1843
  205MOL0     C27594  10.944  11.327   4.103 -0.2212 -0.5968  1.1128
  205MOL0     C27595  11.149  11.066   3.811 -0.0664  0.0165 -0.4894
  205MOL0     C27596  11.275  11.073   3.745 -0.1329  0.4829 -0.9321
  205MOL0     C27597  11.350  10.957   3.719  0.1007  0.0018 -0.5918
  205MOL0     C27598  11.295  10.836   3.750 -0.2955 -0.0309  0.0462
  205MOL0     O27599  11.352  10.708   3.729  0.1423 -0.4923  0.1727
  205MOL0     C27600  11.459  10.702   3.637 -0.5533  0.7854  0.2647
  205MOL0     C27601  11.509  10.560   3.624 -0.7177  0.0210 -0.8970
  205MOL0     C27602  11.422  10.461   3.547 -0.6140 -0.4310 -0.1560
  205MOL0     C27603  11.497  10.332   3.550 -0.9015 -0.3050 -0.1970
  205MOL0     C27604  11.629  10.336   3.484  0.3684  0.3361  0.1998
  205MOL0     C27605  11.738  10.300   3.442  0.6252 -0.5275 -0.0228
  205MOL0     C27606  11.181  10.830   3.822  0.6902  0.2729  0.7371
  205MOL0     C27607  11.107  10.941   3.856  0.0303  0.2117  0.4830
  205MOL0     H27608  10.739  11.266   3.835  2.6315  0.5550 -2.4231
  205MOL0     H27609  10.667  11.484   3.897 -0.9609 -0.5950 -0.4815
  205MOL0     H27610  10.792  11.684   4.299  1.3875 -0.6169  0.4206
  205MOL0     H27611  10.919  11.718   4.191 -0.7029 -0.3194  1.4423
  205MOL0     H27612  10.791  11.933   4.264  0.0758  0.6725 -0.0013
  205MOL0     H27613  10.789  11.912   4.091  0.3441  1.4030  0.4143
  205MOL0     H27614  10.579  11.783   4.104  0.5670 -0.2486 -1.1563
  205MOL0     H27615  10.563  11.848   4.281 -0.0663 -1.5073 -0.2367
  205MOL0     H27616  10.603  12.052   4.053 -0.9472 -0.8978 -0.7499
  205MOL0     H27617  10.442  11.968   4.075  0.2148 -0.5904 -1.3882
  205MOL0     H27618  10.442  12.046   4.313 -0.1742 -1.5481 -0.2819
  205MOL0     H27619  10.602  12.114   4.288  1.0751 -1.3319 -1.9444
  205MOL0     H27620  10.352  12.220   4.143 -0.1146  2.1000 -1.3302
  205MOL0     H27621  10.412  12.272   4.295 -1.3903 -1.7927  1.5647
  205MOL0     H27622  10.651  12.295   4.144 -1.1532  1.3734  0.7155
  205MOL0     H27623  10.531  12.278   4.009 -1.2873 -1.0498  0.3713
  205MOL0     H27624  10.593  12.513   4.060 -0.4932  0.3847 -0.2447
  205MOL0     H27625  10.528  12.492   4.215  0.8915  1.3423 -0.8861
  205MOL0     H27626  10.444  12.434   3.836  3.8167 -0.0911  4.1861
  205MOL0     H27627  10.103  12.561   3.737  1.4567  0.6410 -0.9283
  205MOL0     H27628  10.238  12.467   3.688 -0.8780 -1.4951 -0.7912
  205MOL0     H27629  10.166  12.269   3.776 -0.4326  1.1083  1.1583
  205MOL0     H27630  10.033  12.319   3.674 -0.7811 -2.8207  0.4257
  205MOL0     H27631  10.029  12.376   3.981  0.6293 -0.5525 -0.3111
  205MOL0     H27632   9.943  12.237   3.906  1.9159 -1.6746 -2.2893
  205MOL0     H27633   9.823  12.401   3.760  1.6524 -1.5297 -0.2079
  205MOL0     H27634   9.913  12.531   3.826  1.5533 -0.9367 -0.7558
  205MOL0     H27635   9.628  12.523   4.155 -1.3177  0.8808  0.7712
  205MOL0     H27636   9.319  12.652   4.200  0.8402 -0.3836  0.0550
  205MOL0     H27637   9.474  12.634   4.287  0.5515  1.2487  0.8248
  205MOL0     H27638   9.422  12.797   4.228  2.5617 -0.3730  0.6386
  205MOL0     H27639   9.022  12.794   3.864 -0.0512 -0.3937  0.3817
  205MOL0     H27640   8.802  12.908   3.887  0.6331 -0.2680 -0.9000
  205MOL0     H27641   8.608  12.939   4.005 -1.9063  0.9811 -3.8939
  205MOL0     H27642   8.537  13.059   4.103  0.0680  0.1086  0.0296
  205MOL0     H27643   8.647  13.235   3.942 -0.0940  0.2400 -2.3188
  205MOL0     H27644   8.698  13.116   3.829  1.2841 -0.0999  1.6864
  205MOL0     H27645   8.413  13.183   3.916 -1.6406  0.8688 -1.4432
  205MOL0     H27646   8.456  13.034   3.821  0.2950  0.3547  1.2931
  205MOL0     H27647   8.525  13.316   3.732  0.7450  0.2150 -2.8218
  205MOL0     H27648   8.545  13.171   3.645  0.9919 -0.7241  1.4081
  205MOL0     H27649   8.265  13.271   3.714 -0.3228 -0.8383 -0.1574
  205MOL0     H27650   8.297  13.140   3.620  0.7040 -0.8937  2.7937
  205MOL0     H27651   8.391  13.425   3.569  0.6415 -1.2983  0.8106
  205MOL0     H27652   8.430  13.292   3.453  0.0037  1.2950 -1.1416
  205MOL0     H27653   8.228  13.466   3.400 -1.9694  0.3745 -0.0034
  205MOL0     H27654   8.144  13.392   3.533  0.0642  0.5588 -0.0610
  205MOL0     H27655   8.077  13.290   3.302  1.4832  1.0338 -1.5312
  205MOL0     H27656   8.149  13.177   3.411 -1.0366  0.3395  0.6270
  205MOL0     H27657   8.934  13.066   4.261 -3.4412 -1.5001 -0.6225
  205MOL0     H27658   9.138  12.943   4.258  0.7533 -2.4728 -0.3772
  205MOL0     H27659   9.457  12.691   3.728  0.8687  1.8907  0.3045
  205MOL0     H27660   9.648  12.565   3.722 -0.4615  1.8253 -1.3269
  205MOL0     H27661  10.933  11.505   4.223 -0.3147 -1.6418  1.5325
  205MOL0     H27662  11.023  11.269   4.149  0.6895 -1.9215 -1.8605
  205MOL0     H27663  11.326  11.169   3.741 -0.0300  0.7075  2.5047
  205MOL0     H27664  11.448  10.970   3.674  0.0149  1.8449 -0.2997
  205MOL0     H27665  11.441  10.742   3.537  3.2664 -0.3840 -1.0715
  205MOL0     H27666  11.546  10.756   3.677  0.8700 -1.1287 -0.0733
  205MOL0     H27667  11.518  10.515   3.723 -2.0838 -0.3756 -0.9362
  205MOL0     H27668  11.605  10.582   3.576 -0.0782  5.8877  2.1292
  205MOL0     H27669  11.412  10.485   3.441  0.1610  0.1211 -0.1113
  205MOL0     H27670  11.324  10.443   3.591 -1.5978  0.2401 -1.9553
  205MOL0     H27671  11.436  10.255   3.501 -1.0228 -0.6177  0.4326
  205MOL0     H27672  11.504  10.289   3.650 -5.2669  0.2753  0.5454
  205MOL0     H27673  11.829  10.265   3.397  0.5958  0.9962 -1.3828
  205MOL0     H27674  11.141  10.731   3.843 -1.1434  0.2472 -2.2750
  205MOL0     H27675  11.014  10.929   3.911 -1.9417  1.2355 -2.3908
  206MOL0     O27676   1.011   4.806   1.133  0.3239  0.3096 -0.1219
  206MOL0     C27677   1.077   4.901   1.182  0.0370  0.2633  0.2399
  206MOL0     O27678   1.218   4.918   1.163 -0.1742  0.5357  0.2273
  206MOL0     C27679   1.294   4.809   1.112 -0.4902  0.2618  0.0709
  206MOL0     C27680   1.412   4.825   1.041 -0.0182  0.3367 -0.5923
  206MOL0     C27681   1.500   4.715   1.013 -0.5506 -0.5752 -0.6333
  206MOL0     C27682   1.470   4.583   1.052  0.4274  0.1626 -0.1726
  206MOL0     O27683   1.543   4.463   1.042  0.7985 -0.4346  0.2603
  206MOL0     C27684   1.681   4.470   1.015  0.0715 -0.0150 -0.3723
  206MOL0     C27685   1.722   4.329   1.047 -0.5863 -0.3195 -0.2935
  206MOL0     C27686   1.647   4.235   0.955 -0.0710 -0.7265  0.0033
  206MOL0     C27687   1.621   4.093   1.011 -0.3739  0.0061 -0.2096
  206MOL0     C27688   1.748   4.027   1.047 -1.0259  0.0183  0.1915
  206MOL0     C27689   1.721   3.894   1.114 -0.4786 -0.1819 -0.8157
  206MOL0     C27690   1.837   3.813   1.168  0.6547  0.4607  0.3133
  206MOL0     C27691   1.779   3.687   1.224 -0.1526  0.8570  0.0256
  206MOL0     N27692   1.891   3.594   1.242  0.5866 -0.6069 -0.0298
  206MOL0     C27693   1.877   3.459   1.235 -0.0687  1.0281  0.2718
  206MOL0     C27694   1.986   3.403   1.281 -0.3112  0.6891 -0.3785
  206MOL0     C27695   2.019   3.256   1.308  0.5316 -0.4178 -0.0547
  206MOL0     C27696   1.973   3.134   1.222 -0.3404 -0.5820  0.3423
  206MOL0     C27697   2.040   3.138   1.085  0.8598 -0.5284 -0.2785
  206MOL0     C27698   1.997   3.018   0.999  0.5268 -0.7702 -1.7402
  206MOL0     O27699   1.861   3.004   0.972  0.1353  1.0363 -0.3412
  206MOL0     C27700   1.818   3.062   0.859  0.1113 -0.2210  0.1179
  206MOL0     C27701   1.881   3.169   0.780  0.6721  0.5173 -0.5337
  206MOL0     C27702   1.810   3.236   0.670 -0.4184  0.2437 -0.0248
  206MOL0     C27703   1.873   3.341   0.585 -0.0490  0.6319 -0.5794
  206MOL0     C27704   1.682   3.180   0.633 -0.2286 -0.1047 -0.0921
  206MOL0     C27705   1.594   3.240   0.526 -0.2104 -1.0479  0.1889
  206MOL0     O27706   1.453   3.246   0.555 -0.3302 -0.2445 -0.0166
  206MOL0     C27707   1.383   3.350   0.498 -1.2599 -0.0944 -1.2956
  206MOL0     C27708   1.416   3.487   0.478 -0.2656  0.1281 -0.1974
  206MOL0     C27709   1.320   3.581   0.446 -0.3702  1.6084  0.4382
  206MOL0     C27710   1.183   3.548   0.432 -0.0629  0.6418  0.0512
  206MOL0     O27711   1.082   3.626   0.385 -0.2479 -0.2103  0.2153
  206MOL0     C27712   1.031   3.714   0.484 -0.8176 -0.3792 -0.0757
  206MOL0     C27713   0.946   3.810   0.412  0.7871 -0.4258  0.4628
  206MOL0     C27714   0.834   3.879   0.494  1.0373 -1.1046 -0.3703
  206MOL0     C27715   0.741   3.973   0.400  0.2891  0.8204 -0.0578
  206MOL0     C27716   0.610   3.996   0.480  1.5228  0.4321 -0.5649
  206MOL0     C27717   0.612   4.095   0.594  0.4973  0.3762 -0.0888
  206MOL0     C27718   0.475   4.114   0.669  0.1729 -0.4853  0.2314
  206MOL0     C27719   0.447   3.991   0.770  0.0999 -0.5659  0.2268
  206MOL0    Cl27720   0.568   4.003   0.904  0.0238 -0.0311 -0.3716
  206MOL0     C27721   1.152   3.415   0.449 -0.1435  0.3968  0.0752
  206MOL0     C27722   1.252   3.315   0.478  0.8890  0.0373  0.0637
  206MOL0     O27723   1.645   3.270   0.419 -0.0082  0.1538 -0.0088
  206MOL0     C27724   1.628   3.071   0.708  0.0756 -0.2216  0.7056
  206MOL0     C27725   1.702   3.012   0.809  0.0401 -0.8836  0.4321
  206MOL0     N27726   2.072   3.508   1.316  0.0687  0.0380 -0.0445
  206MOL0     N27727   2.014   3.623   1.295  0.2932  0.1539 -0.2537
  206MOL0     C27728   1.342   4.563   1.113  0.5660  0.6154 -0.3304
  206MOL0     C27729   1.263   4.671   1.146 -0.2749 -0.9738  0.0958
  206MOL0     C27730   1.004   5.008   1.244  0.5075 -0.0668  0.2091
  206MOL0     C27731   0.865   5.001   1.261  0.3312  0.1493  0.4419
  206MOL0     C27732   0.791   5.112   1.297  0.1248 -0.5042  0.2626
  206MOL0     C27733   0.854   5.229   1.341 -0.0522  1.1041  1.0471
  206MOL0     O27734   0.771   5.332   1.394 -0.9303 -0.5832  0.0908
  206MOL0     C27735   0.836   5.442   1.475 -0.6483 -0.0145 -0.0810
  206MOL0     C27736   0.748   5.508   1.580  0.2671  0.6165 -0.6048
  206MOL0     C27737   0.801   5.645   1.598  0.6736 -0.5353 -0.4904
  206MOL0     C27738   0.722   5.733   1.690 -0.2397 -0.6596  0.5443
  206MOL0     C27739   0.705   5.680   1.830 -0.7855  0.7910  0.3946
  206MOL0     C27740   0.684   5.634   1.938 -0.3794  0.3437 -0.6509
  206MOL0     C27741   0.997   5.238   1.328 -0.1131  0.6495  1.0120
  206MOL0     C27742   1.068   5.126   1.278  0.0415 -0.2284  0.2171
  206MOL0     H27743   1.445   4.927   1.023  0.2666  0.8670  2.4249
  206MOL0     H27744   1.590   4.730   0.954  0.8607 -1.6482  1.1416
  206MOL0     H27745   1.698   4.485   0.908 -0.5254 -0.3912 -0.5213
  206MOL0     H27746   1.742   4.540   1.074  1.7141 -0.0531 -1.9227
  206MOL0     H27747   1.831   4.328   1.050 -0.5555  0.7224 -0.6014
  206MOL0     H27748   1.685   4.309   1.148 -1.5474 -2.5064 -1.0160
  206MOL0     H27749   1.544   4.265   0.934 -0.8956 -2.1937  1.6184
  206MOL0     H27750   1.701   4.221   0.861 -2.9018 -2.6490 -1.4951
  206MOL0     H27751   1.575   4.104   1.110 -1.9025  0.6272 -0.9522
  206MOL0     H27752   1.562   4.035   0.941  0.3377  1.1639 -1.8377
  206MOL0     H27753   1.809   4.006   0.958 -2.0353 -2.1184 -0.0675
  206MOL0     H27754   1.809   4.090   1.113  0.0405  0.2822 -1.0080
  206MOL0     H27755   1.652   3.921   1.194 -2.6688  0.4619 -2.7774
  206MOL0     H27756   1.665   3.825   1.049  0.4862 -1.2665 -0.5225
  206MOL0     H27757   1.916   3.801   1.093  0.0782 -0.6757 -0.1439
  206MOL0     H27758   1.881   3.881   1.241  1.3990  0.6569 -0.3095
  206MOL0     H27759   1.698   3.643   1.165  0.4934 -0.6763  0.2286
  206MOL0     H27760   1.742   3.707   1.325 -0.8383  0.0238 -0.0486
  206MOL0     H27761   1.793   3.406   1.192  0.0029  3.1573 -2.7663
  206MOL0     H27762   2.126   3.252   1.332  0.8253 -0.7865 -1.3317
  206MOL0     H27763   1.960   3.236   1.398  0.1222 -0.3604 -0.3116
  206MOL0     H27764   1.867   3.147   1.199 -0.5763 -1.7480  0.7389
  206MOL0     H27765   1.995   3.038   1.270 -1.5806 -1.1126 -0.1114
  206MOL0     H27766   2.147   3.142   1.109  0.6743  0.0853  0.4886
  206MOL0     H27767   2.017   3.231   1.033 -3.3080 -1.3488 -0.2942
  206MOL0     H27768   2.017   2.928   1.058  2.0268  1.0934  0.7961
  206MOL0     H27769   2.044   3.019   0.901 -1.7553  1.8001 -2.9177
  206MOL0     H27770   1.979   3.206   0.808  0.7222  0.7681 -1.0269
  206MOL0     H27771   1.816   3.434   0.585  1.8099  1.8575 -1.6467
  206MOL0     H27772   1.971   3.361   0.631  1.0279 -3.8545 -0.4714
  206MOL0     H27773   1.893   3.312   0.481  2.4078  1.2353 -0.3541
  206MOL0     H27774   1.519   3.521   0.487  1.3919 -3.6408 -2.4634
  206MOL0     H27775   1.355   3.679   0.416  1.6072  0.1166 -2.7342
  206MOL0     H27776   0.968   3.665   0.559  0.6650 -0.3256  1.2514
  206MOL0     H27777   1.117   3.767   0.526 -1.8215 -0.4473  2.2377
  206MOL0     H27778   1.011   3.893   0.382 -1.7159  1.5316  0.1504
  206MOL0     H27779   0.916   3.779   0.312  3.9009  1.4535 -1.2098
  206MOL0     H27780   0.878   3.929   0.582 -2.8666  1.1109  0.5671
  206MOL0     H27781   0.770   3.801   0.537 -1.2104  0.7582 -0.1472
  206MOL0     H27782   0.792   4.063   0.364  2.9416 -0.8283 -0.7484
  206MOL0     H27783   0.709   3.903   0.322  1.5553 -1.5116  1.3881
  206MOL0     H27784   0.572   3.904   0.525 -0.8037  1.0535 -1.0756
  206MOL0     H27785   0.533   4.020   0.405  1.8875 -0.0816 -1.1176
  206MOL0     H27786   0.687   4.068   0.669  1.8160 -3.1577 -2.3540
  206MOL0     H27787   0.654   4.189   0.557  0.9580  0.6647  1.1390
  206MOL0     H27788   0.396   4.104   0.595  0.6940 -1.4113 -0.2218
  206MOL0     H27789   0.460   4.206   0.726 -2.7488 -0.5683 -0.2419
  206MOL0     H27790   0.457   3.897   0.715 -1.6630 -0.2500 -0.7350
  206MOL0     H27791   0.341   4.004   0.796 -0.6898  0.6602 -3.0392
  206MOL0     H27792   1.053   3.375   0.429  0.1410 -0.7618  0.8598
  206MOL0     H27793   1.215   3.213   0.487  0.1152  0.2942 -0.1313
  206MOL0     H27794   1.529   3.037   0.682 -0.8109  0.7367  2.6266
  206MOL0     H27795   1.650   2.934   0.865 -0.0330 -0.7137  0.6021
  206MOL0     H27796   1.308   4.465   1.147  0.5825  0.1673 -1.5572
  206MOL0     H27797   1.168   4.654   1.195 -1.5814  1.4699 -1.3472
  206MOL0     H27798   0.800   4.917   1.236 -2.0117  0.7594  3.8194
  206MOL0     H27799   0.683   5.101   1.302  0.0037  0.7288  0.6657
  206MOL0     H27800   0.912   5.393   1.536 -1.7722 -0.8669  0.6900
  206MOL0     H27801   0.891   5.511   1.410  1.6723  1.1143  2.8877
  206MOL0     H27802   0.756   5.460   1.678  2.2717  0.8596 -0.6054
  206MOL0     H27803   0.641   5.499   1.556  0.3423  1.7059 -1.4200
  206MOL0     H27804   0.800   5.703   1.505  0.0467  1.7693  0.8900
  206MOL0     H27805   0.906   5.638   1.626  0.3288 -0.2136  0.9557
  206MOL0     H27806   0.627   5.752   1.640  0.7935 -2.5208 -2.3751
  206MOL0     H27807   0.778   5.827   1.692 -0.2301 -0.6691  0.7726
  206MOL0     H27808   0.642   5.587   2.024 -0.1806  2.4203  0.6730
  206MOL0     H27809   1.056   5.327   1.350  5.3968 -2.1662 -0.3556
  206MOL0     H27810   1.175   5.133   1.265  0.6542  0.3754  4.1481
  207MOL0     O27811   5.823   8.015   9.837 -1.0831 -0.0311 -0.1257
  207MOL0     C27812   5.795   7.943   9.739 -0.2038 -0.2827  0.3885
  207MOL0     O27813   5.676   7.889   9.712  0.0659 -0.4427  0.2605
  207MOL0     C27814   5.562   7.923   9.779 -0.4087  0.0526 -0.0894
  207MOL0     C27815   5.458   7.833   9.804 -1.3596  1.0605  0.2683
  207MOL0     C27816   5.337   7.855   9.873 -1.3755  0.4852 -0.1712
  207MOL0     C27817   5.305   7.988   9.911  0.2102 -0.0802  0.5372
  207MOL0     O27818   5.186   8.024   9.966  0.0416  0.0217 -0.1062
  207MOL0     C27819   5.073   7.930   9.970 -0.1317  0.0613  0.7903
  207MOL0     C27820   4.948   8.009   9.995 -0.2947  0.0840 -0.7202
  207MOL0     C27821   4.934   8.135   9.900 -1.0980 -1.2739 -0.1736
  207MOL0     C27822   4.793   8.196   9.912 -0.0758  0.1929 -0.7271
  207MOL0     C27823   4.768   8.303   9.798  1.4124 -0.2719  0.3872
  207MOL0     C27824   4.736   8.249   9.665 -0.4467  0.4572 -0.0719
  207MOL0     C27825   4.682   8.364   9.566 -0.1710  0.5482 -0.3018
  207MOL0     C27826   4.668   8.315   9.423 -0.2081  0.1841 -0.2889
  207MOL0     N27827   4.564   8.217   9.410 -0.9452 -0.1032  0.0597
  207MOL0     C27828   4.436   8.252   9.401 -0.2951  0.1125  1.1559
  207MOL0     C27829   4.368   8.128   9.390  0.0024 -0.1575  0.1444
  207MOL0     C27830   4.227   8.101   9.367  0.1463  0.6261 -0.2422
  207MOL0     C27831   4.147   8.213   9.289  0.4891  0.1251 -0.0553
  207MOL0     C27832   4.155   8.207   9.129  0.4327 -0.1009 -0.1581
  207MOL0     C27833   4.306   8.220   9.090 -0.1658 -0.2160  0.2117
  207MOL0     O27834   4.326   8.248   8.950  0.1289  0.0848  0.0698
  207MOL0     C27835   4.456   8.233   8.904  1.3892 -0.2577 -0.0243
  207MOL0     C27836   4.564   8.187   8.979  0.1467  0.3668 -0.7577
  207MOL0     C27837   4.691   8.164   8.936  0.2904 -0.2413 -0.4514
  207MOL0     C27838   4.793   8.117   9.032 -0.0311 -0.0745 -0.8403
  207MOL0     C27839   4.724   8.208   8.807  0.0292 -0.3662  0.4471
  207MOL0     C27840   4.859   8.197   8.747 -0.9508 -0.6886  0.6209
  207MOL0     O27841   4.853   8.178   8.616  0.1932 -0.1646 -0.6694
  207MOL0     C27842   4.963   8.170   8.545  0.7915 -0.0356 -0.0782
  207MOL0     C27843   5.042   8.053   8.540  0.8301 -0.1169  0.1419
  207MOL0     C27844   5.155   8.050   8.460  0.4137 -0.7156 -0.1747
  207MOL0     C27845   5.198   8.162   8.386  0.4469 -1.7504  0.5653
  207MOL0     O27846   5.316   8.174   8.313  0.0173 -0.5008 -0.3227
  207MOL0     C27847   5.392   8.049   8.287  0.0513  0.3336  0.2782
  207MOL0     C27848   5.430   8.026   8.142  0.3277  0.1662  0.1810
  207MOL0     C27849   5.317   7.987   8.054 -0.6071 -0.2510 -0.3372
  207MOL0     C27850   5.347   7.995   7.896  0.1123  0.2356 -0.1038
  207MOL0     C27851   5.329   7.855   7.838  0.2123 -0.5967 -0.8078
  207MOL0     C27852   5.381   7.851   7.696  0.0058 -0.4461 -1.0012
  207MOL0     C27853   5.376   7.709   7.636  0.1803 -0.4744 -0.5803
  207MOL0     C27854   5.446   7.717   7.502 -0.1539  0.3484  0.1167
  207MOL0    Cl27855   5.486   7.555   7.439 -0.4524 -0.1200 -0.2602
  207MOL0     C27856   5.132   8.285   8.406  0.2972 -0.2637  0.8078
  207MOL0     C27857   5.012   8.285   8.479  1.1821  0.5101 -0.6821
  207MOL0     O27858   4.964   8.213   8.817 -0.7442  0.2808 -0.3677
  207MOL0     C27859   4.616   8.255   8.721 -0.6254  0.4054 -0.0750
  207MOL0     C27860   4.486   8.267   8.775  0.0445 -0.5301  1.0409
  207MOL0     N27861   4.458   8.031   9.403 -0.6659 -0.4765 -0.1834
  207MOL0     N27862   4.575   8.084   9.409  0.2547  0.2282 -0.5386
  207MOL0     C27863   5.405   8.088   9.895  0.0144 -0.3124 -0.3837
  207MOL0     C27864   5.532   8.053   9.833 -0.6925 -0.3061  0.3433
  207MOL0     C27865   5.907   7.927   9.645 -0.2187 -0.0506  0.4288
  207MOL0     C27866   5.892   7.911   9.508 -0.1024 -0.4418  0.6031
  207MOL0     C27867   6.010   7.896   9.423 -0.0261  0.5433 -0.5871
  207MOL0     C27868   6.135   7.906   9.473 -0.0605 -1.2507  0.3457
  207MOL0     O27869   6.248   7.871   9.403  0.1145  0.0682 -0.9443
  207MOL0     C27870   6.242   7.876   9.256 -0.0794 -0.0348  0.4028
  207MOL0     C27871   6.382   7.872   9.198 -0.3280 -0.3144  0.1294
  207MOL0     C27872   6.473   7.982   9.256  1.2306  0.7863  0.0994
  207MOL0     C27873   6.533   8.074   9.160 -0.3887 -0.1324 -0.1418
  207MOL0     C27874   6.438   8.182   9.124  0.3280 -0.6308  0.7653
  207MOL0     C27875   6.364   8.277   9.090 -0.7198 -0.8228 -0.3778
  207MOL0     C27876   6.153   7.920   9.608  0.6237  0.3701  0.5216
  207MOL0     C27877   6.044   7.930   9.690 -0.0859  0.3206 -0.0982
  207MOL0     H27878   5.473   7.730   9.772 -2.0115  0.9842  0.1966
  207MOL0     H27879   5.278   7.767   9.897 -1.5027  0.8357  0.8859
  207MOL0     H27880   5.050   7.881   9.875 -1.2613 -0.4331  1.2918
  207MOL0     H27881   5.078   7.848  10.043 -0.4959 -1.2627 -0.6253
  207MOL0     H27882   4.864   7.939   9.992 -0.9439  0.8297 -0.4352
  207MOL0     H27883   4.952   8.028  10.103  2.9715 -4.1699  0.2039
  207MOL0     H27884   4.998   8.217   9.933 -0.6147 -0.2360 -3.3469
  207MOL0     H27885   4.962   8.113   9.797  0.2025  0.5406 -0.2489
  207MOL0     H27886   4.717   8.116   9.909  0.4790 -0.4155  0.5068
  207MOL0     H27887   4.790   8.250  10.007 -0.2432 -0.0191 -0.6078
  207MOL0     H27888   4.687   8.357   9.848 -0.5051 -3.8256  1.4912
  207MOL0     H27889   4.858   8.366   9.794  1.1085  0.2216  1.2082
  207MOL0     H27890   4.824   8.204   9.620 -0.6069  2.4467 -2.5572
  207MOL0     H27891   4.655   8.176   9.677  0.1920 -0.3463 -0.5699
  207MOL0     H27892   4.587   8.405   9.601  1.3175  2.6672  1.5464
  207MOL0     H27893   4.744   8.454   9.572 -1.1463  1.1951  0.2929
  207MOL0     H27894   4.762   8.267   9.395  0.1404  0.9649 -0.4897
  207MOL0     H27895   4.649   8.404   9.363  0.2774  1.5615  1.5025
  207MOL0     H27896   4.391   8.350   9.393  0.7996  0.5592  0.2073
  207MOL0     H27897   4.216   8.004   9.317  3.6332 -0.6175  1.1251
  207MOL0     H27898   4.176   8.078   9.461  0.7229 -3.7480 -0.8227
  207MOL0     H27899   4.181   8.311   9.325  1.6541  0.2706 -1.4586
  207MOL0     H27900   4.041   8.196   9.308  0.7221 -0.2781  0.9772
  207MOL0     H27901   4.119   8.298   9.081  1.7743  0.5839  0.0632
  207MOL0     H27902   4.107   8.117   9.089 -0.6481  0.4886 -0.2230
  207MOL0     H27903   4.364   8.131   9.116  1.3873  0.7092  0.0241
  207MOL0     H27904   4.341   8.316   9.131 -2.4650  1.1134 -0.7138
  207MOL0     H27905   4.543   8.162   9.082  1.1968  0.6575 -0.4620
  207MOL0     H27906   4.855   8.038   8.990 -2.7032 -2.1661 -1.0724
  207MOL0     H27907   4.859   8.201   9.057 -1.4566  0.5544  1.0475
  207MOL0     H27908   4.748   8.078   9.124  0.8574  0.1612 -0.2930
  207MOL0     H27909   5.008   7.968   8.599 -0.3309  0.9413  1.0642
  207MOL0     H27910   5.212   7.959   8.472  0.8106 -0.8269 -2.4281
  207MOL0     H27911   5.492   8.047   8.331  1.3246 -1.9779 -2.3689
  207MOL0     H27912   5.349   7.953   8.317  1.3576 -0.1952  0.5554
  207MOL0     H27913   5.464   8.121   8.100  1.3289 -0.8194 -1.3042
  207MOL0     H27914   5.517   7.962   8.129 -0.0304  0.0114 -1.6667
  207MOL0     H27915   5.232   8.050   8.079 -0.3390 -0.1382  0.2994
  207MOL0     H27916   5.296   7.885   8.087 -1.3302  0.2323  0.7384
  207MOL0     H27917   5.277   8.063   7.848 -1.0512  0.5044  1.8830
  207MOL0     H27918   5.451   8.025   7.877 -0.3853  0.5523 -2.7738
  207MOL0     H27919   5.224   7.825   7.846 -0.7962  2.8732  0.9814
  207MOL0     H27920   5.388   7.778   7.889  0.6754 -1.2715 -2.3052
  207MOL0     H27921   5.318   7.919   7.638  0.7609 -0.9654 -2.4919
  207MOL0     H27922   5.485   7.885   7.700 -0.7614  2.0409 -0.7846
  207MOL0     H27923   5.273   7.677   7.618 -0.7249  0.2920  2.6681
  207MOL0     H27924   5.433   7.636   7.695  4.0786  0.8141 -2.4185
  207MOL0     H27925   5.535   7.780   7.502 -0.9058  1.4412 -0.4680
  207MOL0     H27926   5.392   7.776   7.428  1.4641 -0.2631 -1.6461
  207MOL0     H27927   5.150   8.382   8.359 -1.2566  1.8136  4.1082
  207MOL0     H27928   4.954   8.376   8.493 -0.0952 -0.5927  1.6258
  207MOL0     H27929   4.642   8.271   8.617  0.5867  0.2231  0.1873
  207MOL0     H27930   4.396   8.293   8.720 -0.5564 -2.8992  0.7857
  207MOL0     H27931   5.382   8.189   9.926 -0.6323 -0.4679 -0.3450
  207MOL0     H27932   5.592   8.143   9.827  0.3964 -1.0154  0.2956
  207MOL0     H27933   5.796   7.883   9.465  0.5883 -1.6309 -0.2478
  207MOL0     H27934   5.987   7.861   9.323 -3.8137 -0.1809  0.3858
  207MOL0     H27935   6.177   7.802   9.208 -0.9226 -0.6897  2.4426
  207MOL0     H27936   6.209   7.976   9.227 -3.5461 -1.0086  0.5793
  207MOL0     H27937   6.376   7.890   9.090 -1.4746 -0.6395  0.1220
  207MOL0     H27938   6.424   7.773   9.219 -2.2209 -0.9465  1.1870
  207MOL0     H27939   6.556   7.930   9.304  3.2086  3.8261  0.2085
  207MOL0     H27940   6.420   8.034   9.337 -1.3355 -0.0509 -0.9489
  207MOL0     H27941   6.568   8.044   9.060  0.1225 -0.5506  0.1574
  207MOL0     H27942   6.624   8.112   9.208  1.4543 -1.1125 -2.5787
  207MOL0     H27943   6.288   8.352   9.086  0.8244  0.7825 -0.9482
  207MOL0     H27944   6.253   7.923   9.649  1.3550 -1.6272 -0.9718
  207MOL0     H27945   6.059   7.940   9.797 -0.9812 -2.1995  0.3513
  208MOL0     O27946  10.236   3.983   2.473 -0.3482 -0.9207  0.1033
  208MOL0     C27947  10.202   4.100   2.493  0.3089  0.3647  0.0401
  208MOL0     O27948  10.114   4.139   2.589 -1.2478  0.0401  0.1378
  208MOL0     C27949  10.031   4.052   2.654  0.1278 -0.2725  0.2427
  208MOL0     C27950   9.998   4.085   2.788  0.8827  0.2190  0.2710
  208MOL0     C27951   9.925   3.995   2.860  0.1663  0.0034 -0.0099
  208MOL0     C27952   9.871   3.880   2.805 -0.1119 -0.0893 -0.1224
  208MOL0     O27953   9.776   3.808   2.866 -0.4589 -0.1376 -0.0203
  208MOL0     C27954   9.829   3.735   2.979  0.6956 -1.3207  0.0158
  208MOL0     C27955   9.702   3.701   3.059  0.5005  1.2701  0.3188
  208MOL0     C27956   9.596   3.623   2.978 -0.4095  0.4691 -0.5644
  208MOL0     C27957   9.481   3.576   3.076  0.8626  0.0798  0.3125
  208MOL0     C27958   9.363   3.512   2.994  0.0458 -0.7283  0.9271
  208MOL0     C27959   9.253   3.481   3.088  0.3692 -0.3825 -1.0782
  208MOL0     C27960   9.132   3.471   3.002  0.7412 -0.0746 -0.3311
  208MOL0     C27961   9.008   3.425   3.092 -0.1604 -0.1429  0.3817
  208MOL0     N27962   8.880   3.408   3.022 -0.2008 -1.0932  0.0660
  208MOL0     C27963   8.841   3.310   2.929 -0.8077 -0.0715 -0.0956
  208MOL0     C27964   8.731   3.364   2.868  0.6450  0.0227 -0.4179
  208MOL0     C27965   8.650   3.294   2.770  0.4733 -0.4936  0.9985
  208MOL0     C27966   8.503   3.346   2.752 -0.3878  0.3127 -0.2840
  208MOL0     C27967   8.415   3.286   2.864  0.5386 -0.8513 -1.3338
  208MOL0     C27968   8.282   3.359   2.857 -0.4899  0.3710  0.6230
  208MOL0     O27969   8.291   3.498   2.870 -0.1136 -0.7369  1.3205
  208MOL0     C27970   8.189   3.586   2.834 -1.6504  0.0792 -0.4293
  208MOL0     C27971   8.054   3.566   2.825  0.3385 -0.2669  0.0608
  208MOL0     C27972   7.959   3.647   2.765 -0.4655  0.0405 -0.1790
  208MOL0     C27973   7.814   3.607   2.770 -0.7861  0.2411 -0.7945
  208MOL0     C27974   8.008   3.763   2.699  0.3790  0.3145 -0.1756
  208MOL0     C27975   7.922   3.856   2.627  0.3750 -1.2880 -0.2373
  208MOL0     O27976   7.786   3.835   2.632  0.3305  0.4431 -0.4827
  208MOL0     C27977   7.695   3.919   2.563 -0.7415 -0.1116  0.1676
  208MOL0     C27978   7.648   4.036   2.612  0.0782  0.3963 -0.7929
  208MOL0     C27979   7.574   4.129   2.527  0.3065  0.4066  0.6655
  208MOL0     C27980   7.559   4.100   2.392 -0.4973  0.6626  0.0925
  208MOL0     O27981   7.513   4.188   2.301  0.0239  0.0783  0.6546
  208MOL0     C27982   7.431   4.296   2.329 -0.3611 -0.3609 -0.0943
  208MOL0     C27983   7.423   4.404   2.220  0.9621  0.1460  0.5992
  208MOL0     C27984   7.375   4.364   2.075  0.3763  0.3564 -0.3559
  208MOL0     C27985   7.216   4.341   2.067  0.0235 -0.0251 -0.1595
  208MOL0     C27986   7.142   4.469   2.079 -1.0966  0.4406  0.1707
  208MOL0     C27987   6.987   4.438   2.069 -0.0586  0.6951 -0.8644
  208MOL0     C27988   6.891   4.555   2.089 -0.5485  0.2277  0.0503
  208MOL0     C27989   6.738   4.501   2.120 -0.4996 -0.4244 -0.0327
  208MOL0    Cl27990   6.620   4.634   2.123  0.1354 -0.0771  0.2626
  208MOL0     C27991   7.599   3.981   2.339 -0.2360 -0.5695 -1.1045
  208MOL0     C27992   7.672   3.894   2.425  0.3499 -0.5855 -0.3143
  208MOL0     O27993   7.971   3.951   2.569  0.1853 -0.5412  0.3055
  208MOL0     C27994   8.146   3.790   2.707  0.9935 -0.7344  0.4569
  208MOL0     C27995   8.235   3.704   2.772 -0.2047  0.5990  0.1331
  208MOL0     N27996   8.703   3.490   2.922 -0.7330 -0.0978  0.1743
  208MOL0     N27997   8.799   3.516   3.002 -0.3160  0.4188  1.1306
  208MOL0     C27998   9.905   3.849   2.670  0.1632  0.1570 -0.0446
  208MOL0     C27999   9.983   3.932   2.593 -0.0791 -0.5438  0.2439
  208MOL0     C28000  10.264   4.198   2.407  0.4277  0.4358  0.4729
  208MOL0     C28001  10.202   4.326   2.389 -0.0025  0.6949  0.9893
  208MOL0     C28002  10.259   4.416   2.297  0.3334  0.6454  0.4214
  208MOL0     C28003  10.396   4.394   2.248 -0.9193 -0.0434  0.0768
  208MOL0     O28004  10.469   4.488   2.170 -0.4421  0.2476 -0.2122
  208MOL0     C28005  10.411   4.613   2.149 -0.8954 -0.6029 -0.2698
  208MOL0     C28006  10.503   4.688   2.052  0.7737 -0.0997  0.2297
  208MOL0     C28007  10.604   4.774   2.121 -0.5656  0.6812 -0.0185
  208MOL0     C28008  10.683   4.848   2.008  0.0283  0.1739  0.3083
  208MOL0     C28009  10.791   4.766   1.955 -0.5440  0.4307  0.0652
  208MOL0     C28010  10.887   4.705   1.901 -0.5762  0.5295  0.7884
  208MOL0     C28011  10.455   4.266   2.270 -0.5480 -0.1381  0.3427
  208MOL0     C28012  10.392   4.173   2.351  0.4820  0.3849  1.5782
  208MOL0     H28013  10.038   4.173   2.837 -1.0204  0.6252  1.2153
  208MOL0     H28014   9.890   4.016   2.960 -0.0598  1.1188 -0.3104
  208MOL0     H28015   9.868   3.640   2.942  2.7848  0.2124 -1.9944
  208MOL0     H28016   9.897   3.791   3.043 -0.9642 -0.8237  1.4414
  208MOL0     H28017   9.739   3.638   3.141  0.8716  0.7241 -0.2594
  208MOL0     H28018   9.644   3.786   3.097 -3.2630 -0.8139 -0.3880
  208MOL0     H28019   9.544   3.686   2.905 -3.1658 -0.5751  0.3643
  208MOL0     H28020   9.647   3.538   2.933  1.8892  1.8840 -0.7900
  208MOL0     H28021   9.518   3.505   3.151 -0.3390  0.3343  1.1842
  208MOL0     H28022   9.452   3.666   3.129  1.2963  0.7160 -0.5110
  208MOL0     H28023   9.329   3.589   2.923 -0.5342  0.8920  2.8683
  208MOL0     H28024   9.392   3.417   2.948  0.6231 -2.0018  3.7183
  208MOL0     H28025   9.270   3.388   3.143  0.0295 -0.0035 -0.3124
  208MOL0     H28026   9.242   3.561   3.161 -0.2095  1.0764 -2.7071
  208MOL0     H28027   9.107   3.568   2.960 -0.2932  0.0859  0.6168
  208MOL0     H28028   9.141   3.395   2.923 -0.3502 -0.3461 -0.2105
  208MOL0     H28029   8.998   3.492   3.178 -2.5233  0.7666 -0.5171
  208MOL0     H28030   9.026   3.320   3.117  0.9495 -0.7688 -2.6555
  208MOL0     H28031   8.900   3.219   2.922  3.1255  2.2976 -0.8068
  208MOL0     H28032   8.697   3.291   2.671  3.1126 -0.9023  2.1913
  208MOL0     H28033   8.648   3.187   2.792  1.7383 -0.1467  3.0442
  208MOL0     H28034   8.455   3.313   2.659 -2.8423  2.2206  0.2072
  208MOL0     H28035   8.504   3.455   2.741  2.2856  0.6503  2.0586
  208MOL0     H28036   8.453   3.305   2.965 -0.0573 -1.8091 -0.9008
  208MOL0     H28037   8.399   3.178   2.854 -0.5957 -0.7023 -1.3559
  208MOL0     H28038   8.224   3.314   2.939 -0.1834 -1.7952 -0.2790
  208MOL0     H28039   8.234   3.338   2.762  1.9509  1.9768 -1.0825
  208MOL0     H28040   8.006   3.475   2.860 -3.1346  0.3566 -2.4993
  208MOL0     H28041   7.758   3.684   2.823  0.1058  0.3699 -0.0087
  208MOL0     H28042   7.788   3.605   2.663  0.7821  3.6934 -1.3895
  208MOL0     H28043   7.798   3.509   2.816 -1.2394  1.2135  1.1853
  208MOL0     H28044   7.664   4.074   2.712  0.3456  0.4021 -0.8365
  208MOL0     H28045   7.536   4.218   2.575  0.1912 -0.4720  2.3046
  208MOL0     H28046   7.331   4.270   2.367  0.7002 -1.5297  2.0474
  208MOL0     H28047   7.474   4.357   2.408  2.1845  1.5355 -2.7524
  208MOL0     H28048   7.363   4.488   2.257  2.1453  1.3790 -0.1875
  208MOL0     H28049   7.530   4.427   2.218  1.8329 -3.3853  0.0678
  208MOL0     H28050   7.427   4.272   2.049 -0.8576 -0.5557  0.3200
  208MOL0     H28051   7.394   4.450   2.010 -2.8335  0.6906 -0.9953
  208MOL0     H28052   7.198   4.298   1.968 -1.2594 -2.4353  1.0151
  208MOL0     H28053   7.176   4.270   2.141  0.7751  1.1731  1.4699
  208MOL0     H28054   7.167   4.536   1.996 -0.0973  1.1639  1.0318
  208MOL0     H28055   7.162   4.504   2.181  1.8861 -2.7161  0.8372
  208MOL0     H28056   6.976   4.394   1.969 -1.2077 -2.4487  0.4953
  208MOL0     H28057   6.962   4.355   2.136  0.2780 -1.0717 -2.8216
  208MOL0     H28058   6.876   4.607   1.994  1.1542 -0.5240 -0.6760
  208MOL0     H28059   6.928   4.625   2.165 -1.6658  2.5651 -1.4273
  208MOL0     H28060   6.742   4.456   2.220 -0.6350 -0.0485  0.1425
  208MOL0     H28061   6.708   4.429   2.044  0.4890 -0.2395 -0.6174
  208MOL0     H28062   7.565   3.960   2.239 -2.4260 -0.7291 -0.3628
  208MOL0     H28063   7.702   3.797   2.386 -1.8422 -2.2893  1.9276
  208MOL0     H28064   8.195   3.869   2.652  1.5549 -2.2283 -1.3114
  208MOL0     H28065   8.338   3.738   2.783  0.0064 -0.6681  3.3425
  208MOL0     H28066   9.877   3.749   2.638  1.7312 -1.5391  3.3803
  208MOL0     H28067  10.001   3.901   2.490 -3.0404 -1.4427 -0.0992
  208MOL0     H28068  10.107   4.348   2.436 -0.7329 -0.9710  0.3476
  208MOL0     H28069  10.221   4.510   2.260  0.5493  0.1973 -1.0135
  208MOL0     H28070  10.313   4.608   2.101 -0.3441  0.7962 -1.5884
  208MOL0     H28071  10.401   4.667   2.244  3.6733 -1.2867  0.8432
  208MOL0     H28072  10.440   4.757   1.994  1.0604  2.6092  2.8944
  208MOL0     H28073  10.544   4.617   1.979  1.3149 -1.3260  1.6914
  208MOL0     H28074  10.686   4.716   2.165  1.1766  1.1156 -2.4727
  208MOL0     H28075  10.560   4.845   2.192  1.5618  0.8267  1.2382
  208MOL0     H28076  10.721   4.941   2.052 -0.7477 -0.2443  1.9677
  208MOL0     H28077  10.625   4.881   1.922 -0.1197  1.7219  0.9470
  208MOL0     H28078  10.974   4.652   1.868 -0.9548  0.7422 -0.6067
  208MOL0     H28079  10.558   4.242   2.244 -0.9009  0.4611 -1.7747
  208MOL0     H28080  10.442   4.078   2.367  1.2058  0.9308  2.7021
  209MOL0     O28081   8.432   5.366   0.896 -0.3944  0.0482  0.1545
  209MOL0     C28082   8.411   5.418   0.790 -0.4491 -0.5634 -0.0720
  209MOL0     O28083   8.337   5.372   0.683 -0.3299  0.0107  0.0877
  209MOL0     C28084   8.244   5.276   0.716 -0.6257  1.3418 -1.0766
  209MOL0     C28085   8.109   5.303   0.701 -0.5739  0.3965  0.2361
  209MOL0     C28086   8.016   5.202   0.732  0.1226 -0.4464 -0.5256
  209MOL0     C28087   8.053   5.076   0.778  0.3979  0.9700  0.4914
  209MOL0     O28088   7.963   4.980   0.809  0.4509  0.1055 -1.5329
  209MOL0     C28089   7.837   4.951   0.733 -0.4979  0.2099 -0.1617
  209MOL0     C28090   7.866   4.842   0.622  0.0968  0.1708 -0.7803
  209MOL0     C28091   7.945   4.867   0.493 -0.4977 -0.8313 -0.4344
  209MOL0     C28092   7.870   4.933   0.382 -0.3322  0.8312 -1.0902
  209MOL0     C28093   7.953   4.945   0.255 -0.1505  0.5582  0.1701
  209MOL0     C28094   7.969   4.813   0.167  0.1805  0.6834 -0.8274
  209MOL0     C28095   8.039   4.836   0.024 -0.0624  0.0526  0.0031
  209MOL0     C28096   8.042   4.694  -0.047 -0.4445 -0.5268  0.4227
  209MOL0     N28097   8.132   4.702  -0.171  0.4694 -0.2481 -0.9564
  209MOL0     C28098   8.089   4.742  -0.294 -0.3576  0.1250 -0.5344
  209MOL0     C28099   8.206   4.749  -0.365 -1.0518 -0.2528 -0.5929
  209MOL0     C28100   8.224   4.816  -0.500  0.0236 -0.1889 -0.0865
  209MOL0     C28101   8.246   4.967  -0.475 -0.1576  0.8334 -0.3301
  209MOL0     C28102   8.268   5.036  -0.613 -0.6924  0.4562 -0.7807
  209MOL0     C28103   8.143   5.035  -0.701  0.5535  0.6033 -0.4619
  209MOL0     O28104   8.115   4.910  -0.777  0.3074  0.4541 -0.3244
  209MOL0     C28105   8.014   4.936  -0.866  0.3328 -0.0588  0.4770
  209MOL0     C28106   8.045   4.976  -1.001  0.5502  0.0274  0.0556
  209MOL0     C28107   7.938   5.010  -1.088  0.0177 -0.0298  1.0458
  209MOL0     C28108   7.972   5.073  -1.221  0.1886  0.2590  0.0565
  209MOL0     C28109   7.804   4.980  -1.048 -0.3171 -0.5867  0.2305
  209MOL0     C28110   7.680   5.023  -1.119  0.5528 -0.0076  0.0915
  209MOL0     O28111   7.567   5.031  -1.045  0.2485  0.0230 -0.3110
  209MOL0     C28112   7.452   5.028  -1.115 -0.6064 -0.3122 -0.2818
  209MOL0     C28113   7.412   5.136  -1.200 -0.0193 -0.8685 -0.0023
  209MOL0     C28114   7.293   5.118  -1.274 -0.2287  0.0837  0.5872
  209MOL0     C28115   7.218   4.994  -1.269  0.3482 -0.4091  0.1965
  209MOL0     O28116   7.107   4.986  -1.348  0.4682 -0.0540  0.1432
  209MOL0     C28117   7.009   4.889  -1.297  0.9951 -0.5956  0.8898
  209MOL0     C28118   6.875   4.907  -1.374  0.0691 -0.0389  0.3779
  209MOL0     C28119   6.800   4.782  -1.382 -0.2141 -0.4055 -0.1166
  209MOL0     C28120   6.683   4.797  -1.478  0.1159 -0.3222 -0.1271
  209MOL0     C28121   6.556   4.799  -1.402  0.5265 -0.2647  0.8992
  209MOL0     C28122   6.519   4.660  -1.360 -0.1531  0.0891  0.2153
  209MOL0     C28123   6.421   4.656  -1.246 -0.0418 -0.9174 -0.7456
  209MOL0     C28124   6.374   4.512  -1.231  0.7743 -0.1182  0.2691
  209MOL0    Cl28125   6.288   4.444  -1.381  0.3841 -0.3841  0.0679
  209MOL0     C28126   7.270   4.899  -1.177 -0.0966  0.4583 -0.4952
  209MOL0     C28127   7.374   4.915  -1.100  0.4412 -0.3283 -0.1411
  209MOL0     O28128   7.685   5.046  -1.237 -0.2877 -0.2469  0.2783
  209MOL0     C28129   7.780   4.931  -0.921 -0.2780  0.8736 -0.5055
  209MOL0     C28130   7.879   4.908  -0.835  0.2829 -1.1034 -0.6024
  209MOL0     N28131   8.315   4.717  -0.285  0.2215 -0.7529 -0.4887
  209MOL0     N28132   8.268   4.692  -0.165  0.6202  0.0635 -0.4654
  209MOL0     C28133   8.187   5.046   0.792  0.0531 -0.1509  0.3233
  209MOL0     C28134   8.275   5.147   0.752 -0.0492 -0.9853  0.4084
  209MOL0     C28135   8.473   5.552   0.775  0.6320 -0.1692  0.1808
  209MOL0     C28136   8.448   5.627   0.655 -0.2227  0.1586  0.2418
  209MOL0     C28137   8.510   5.751   0.639  0.2712  0.3044 -0.0377
  209MOL0     C28138   8.564   5.815   0.743 -0.4228 -0.1210  0.1597
  209MOL0     O28139   8.627   5.933   0.724 -0.3849  0.6169 -0.3334
  209MOL0     C28140   8.547   6.036   0.667 -0.3806  0.1827  0.2253
  209MOL0     C28141   8.433   6.073   0.755 -0.1404  0.3797 -0.5201
  209MOL0     C28142   8.350   6.173   0.675 -0.4648  0.6045  0.4435
  209MOL0     C28143   8.213   6.185   0.736  0.6662 -0.2789 -0.4958
  209MOL0     C28144   8.122   6.266   0.652  0.0224 -0.3074 -0.1804
  209MOL0     C28145   8.053   6.329   0.570 -0.1721  0.2310 -0.9203
  209MOL0     C28146   8.602   5.732   0.848  0.2205 -0.4046  0.5347
  209MOL0     C28147   8.552   5.604   0.873  0.2513  1.0429 -0.4137
  209MOL0     H28148   8.069   5.401   0.678 -1.1404  0.7206  2.3800
  209MOL0     H28149   7.910   5.215   0.713  0.3630  1.8653 -0.5254
  209MOL0     H28150   7.765   4.897   0.795 -0.0458 -0.4171 -0.1730
  209MOL0     H28151   7.781   5.039   0.699 -0.0113  0.9525  0.8998
  209MOL0     H28152   7.920   4.767   0.681  0.8326  1.5776  0.3839
  209MOL0     H28153   7.769   4.804   0.588 -0.7762  0.9109  0.7665
  209MOL0     H28154   8.033   4.927   0.520 -0.9180  0.3169 -1.5522
  209MOL0     H28155   7.982   4.768   0.462  1.5483  0.5610 -2.8115
  209MOL0     H28156   7.783   4.868   0.371 -0.1055  0.2433  0.4830
  209MOL0     H28157   7.833   5.033   0.406 -0.1211  0.5159  0.6240
  209MOL0     H28158   7.907   5.027   0.199 -0.1199 -0.8587 -2.0552
  209MOL0     H28159   8.052   4.982   0.281 -0.0544  0.0400  0.5502
  209MOL0     H28160   8.025   4.734   0.217 -0.8542  0.8138  0.6141
  209MOL0     H28161   7.869   4.768   0.163  0.7689 -1.3194  2.7912
  209MOL0     H28162   7.968   4.897  -0.034  1.4548  0.8692 -1.0614
  209MOL0     H28163   8.137   4.883   0.027  1.6109 -2.3131 -5.0853
  209MOL0     H28164   7.943   4.665  -0.083  0.8594 -1.5970 -2.6498
  209MOL0     H28165   8.075   4.615   0.022 -1.4187  0.0348  1.5666
  209MOL0     H28166   7.991   4.776  -0.326  0.3033  0.0162 -2.8086
  209MOL0     H28167   8.309   4.776  -0.556  0.5543 -0.3642  0.8316
  209MOL0     H28168   8.131   4.786  -0.550  0.0541  0.3703 -0.4882
  209MOL0     H28169   8.337   4.980  -0.416  0.4414  1.6183 -1.3880
  209MOL0     H28170   8.168   5.025  -0.423  0.3828  0.4840  0.8924
  209MOL0     H28171   8.350   4.990  -0.668  0.1639  2.6751 -1.4919
  209MOL0     H28172   8.302   5.139  -0.595  0.0160  0.3990 -1.7615
  209MOL0     H28173   8.173   5.108  -0.777 -0.3509  0.9680 -0.4861
  209MOL0     H28174   8.050   5.072  -0.655  0.2216  1.6493 -1.8970
  209MOL0     H28175   8.146   5.003  -1.029  0.5743  0.5954  0.6683
  209MOL0     H28176   7.908   5.160  -1.239  0.3902  0.4222  0.1282
  209MOL0     H28177   8.076   5.105  -1.226 -0.6697  3.0870 -2.7282
  209MOL0     H28178   7.946   5.000  -1.299 -2.1061  0.5043  0.5110
  209MOL0     H28179   7.480   5.220  -1.213  1.0015 -1.0436  3.1722
  209MOL0     H28180   7.262   5.195  -1.343 -1.0308  0.0170  0.8719
  209MOL0     H28181   7.054   4.790  -1.306  0.4577 -0.8201  0.5970
  209MOL0     H28182   6.969   4.904  -1.196 -2.1586 -2.6521  0.1110
  209MOL0     H28183   6.820   4.989  -1.327  1.5633  2.1116 -1.4168
  209MOL0     H28184   6.903   4.941  -1.474  2.4102  0.5888  1.1575
  209MOL0     H28185   6.769   4.733  -1.290 -1.6234  1.7133  0.6257
  209MOL0     H28186   6.858   4.713  -1.444 -1.9621 -1.1572 -0.9806
  209MOL0     H28187   6.706   4.891  -1.530  0.8294  0.6415  1.8105
  209MOL0     H28188   6.683   4.710  -1.543 -2.9569  0.1309 -0.8653
  209MOL0     H28189   6.487   4.844  -1.474  1.1961  0.6150  0.7819
  209MOL0     H28190   6.575   4.870  -1.320  2.0290 -1.5409  1.7196
  209MOL0     H28191   6.471   4.619  -1.449  0.3479 -1.6321  0.7027
  209MOL0     H28192   6.602   4.591  -1.346 -1.3769 -1.8870 -1.6843
  209MOL0     H28193   6.336   4.723  -1.262  2.1987  2.2759 -0.1359
  209MOL0     H28194   6.473   4.689  -1.155 -0.0068 -2.0267 -0.3476
  209MOL0     H28195   6.293   4.515  -1.157 -0.0004  1.4608 -0.5936
  209MOL0     H28196   6.457   4.453  -1.191  1.7761  1.5972  0.8150
  209MOL0     H28197   7.220   4.807  -1.150 -1.4834  0.5769 -2.4473
  209MOL0     H28198   7.409   4.839  -1.031 -1.7948 -2.7015 -1.4590
  209MOL0     H28199   7.683   4.915  -0.874  0.7729 -0.0672  1.4621
  209MOL0     H28200   7.866   4.873  -0.733 -2.8461  0.6868 -0.2718
  209MOL0     H28201   8.216   4.946   0.823  2.6864  0.8394  1.3230
  209MOL0     H28202   8.380   5.125   0.745 -0.0838 -0.8987 -0.4671
  209MOL0     H28203   8.384   5.595   0.573  0.0846 -1.5639  0.6350
  209MOL0     H28204   8.502   5.794   0.539  0.0144 -2.3552 -1.2546
  209MOL0     H28205   8.613   6.121   0.654  2.1527 -1.2377  2.7442
  209MOL0     H28206   8.499   6.004   0.574 -2.2114 -2.2971  1.8814
  209MOL0     H28207   8.465   6.100   0.856 -0.7415  1.6732 -0.6418
  209MOL0     H28208   8.367   5.988   0.775  2.5131 -1.2638  1.9080
  209MOL0     H28209   8.340   6.144   0.570 -1.0843  1.5303  0.2389
  209MOL0     H28210   8.417   6.260   0.678  3.4542 -1.9999 -1.9281
  209MOL0     H28211   8.217   6.226   0.837 -2.3472 -2.0322  0.4789
  209MOL0     H28212   8.168   6.086   0.753  0.9340 -0.4554 -0.7971
  209MOL0     H28213   7.989   6.376   0.498 -0.8871  2.9421  1.2809
  209MOL0     H28214   8.672   5.776   0.918 -0.8499  0.7505  0.9183
  209MOL0     H28215   8.565   5.538   0.958 -2.6418 -0.5123 -1.0537
  210MOL0     O28216   8.129  10.717   5.200 -0.4100 -0.8400  0.9570
  210MOL0     C28217   8.136  10.607   5.151  0.9013  0.9334  0.5496
  210MOL0     O28218   8.069  10.558   5.042 -0.3193 -1.1196  0.0025
  210MOL0     C28219   7.986  10.639   4.961 -0.0563  0.0281 -0.6756
  210MOL0     C28220   8.014  10.769   4.915 -0.5251  0.2484  0.8365
  210MOL0     C28221   7.934  10.820   4.813  0.4657 -0.5572 -0.2241
  210MOL0     C28222   7.823  10.750   4.764 -0.0288  0.4909 -0.1653
  210MOL0     O28223   7.735  10.791   4.668  0.2814  0.0242 -0.3423
  210MOL0     C28224   7.766  10.917   4.596 -0.8388  0.1459 -0.2120
  210MOL0     C28225   7.660  10.935   4.487  0.2056  0.3529 -0.7948
  210MOL0     C28226   7.693  11.065   4.411 -0.8855 -0.6188  0.0827
  210MOL0     C28227   7.798  11.042   4.301 -1.1239  0.6764  0.0962
  210MOL0     C28228   7.803  11.157   4.192  0.2348  1.1277 -0.1117
  210MOL0     C28229   7.900  11.123   4.077 -0.0002  0.1206  0.3252
  210MOL0     C28230   7.834  11.144   3.941 -0.0345 -0.5122  0.1421
  210MOL0     C28231   7.788  11.291   3.909 -0.6510 -0.5178  0.2726
  210MOL0     N28232   7.659  11.328   3.967  0.7319 -0.4670 -0.1313
  210MOL0     C28233   7.533  11.304   3.901 -0.2983  0.1372 -1.1106
  210MOL0     C28234   7.444  11.364   3.988  1.2862  0.1162  0.4013
  210MOL0     C28235   7.298  11.380   3.992 -0.1358  0.2012 -0.2546
  210MOL0     C28236   7.251  11.494   3.905 -0.0695  0.6197  0.0552
  210MOL0     C28237   7.102  11.498   3.895  0.8994  0.1179 -0.0049
  210MOL0     C28238   7.050  11.634   3.862  0.3897 -0.0573 -0.2498
  210MOL0     O28239   7.049  11.625   3.713 -0.6886 -0.4092 -1.0124
  210MOL0     C28240   6.988  11.729   3.647  0.4518  0.0199  0.2857
  210MOL0     C28241   6.967  11.711   3.510  0.2095 -0.1477 -0.3310
  210MOL0     C28242   6.896  11.797   3.428  0.0062 -0.1719  0.3665
  210MOL0     C28243   6.888  11.772   3.287 -0.0967  0.5928 -0.7103
  210MOL0     C28244   6.846  11.917   3.490 -0.6296  0.8610 -0.5250
  210MOL0     C28245   6.785  12.023   3.411  0.1165 -0.1859  0.0489
  210MOL0     O28246   6.712  12.110   3.488  0.7850 -0.2218  0.0280
  210MOL0     C28247   6.679  12.229   3.429  0.4233  0.7072 -0.0929
  210MOL0     C28248   6.771  12.336   3.437  0.5859 -0.2056 -0.0172
  210MOL0     C28249   6.737  12.453   3.372 -0.5256  0.0856 -0.2479
  210MOL0     C28250   6.625  12.458   3.286 -0.3628 -0.5038 -0.2776
  210MOL0     O28251   6.610  12.571   3.214  0.3842  0.1965 -0.8635
  210MOL0     C28252   6.623  12.554   3.071  0.0214  0.5844 -0.4902
  210MOL0     C28253   6.651  12.678   2.985 -0.3481  0.7332  0.3920
  210MOL0     C28254   6.541  12.793   2.980  0.1878  0.3233 -0.1971
  210MOL0     C28255   6.475  12.816   2.851  0.1145  0.7285  0.0934
  210MOL0     C28256   6.562  12.865   2.734 -0.5241  0.1517 -0.0325
  210MOL0     C28257   6.500  12.851   2.605 -0.4416  0.0306 -0.6134
  210MOL0     C28258   6.378  12.942   2.597  0.0428  0.3865 -0.0731
  210MOL0     C28259   6.334  12.985   2.457 -0.6457  0.2842 -0.1476
  210MOL0    Cl28260   6.210  13.118   2.456 -0.3266 -0.0423  0.5523
  210MOL0     C28261   6.536  12.351   3.286  0.0263 -0.7089  0.2574
  210MOL0     C28262   6.560  12.236   3.352 -0.7234  0.3661 -0.5449
  210MOL0     O28263   6.823  12.044   3.298 -0.0086 -0.1442  0.1147
  210MOL0     C28264   6.854  11.923   3.633  0.7426  0.5684  0.3019
  210MOL0     C28265   6.936  11.842   3.711  1.1714  0.4745  0.6320
  210MOL0     N28266   7.511  11.419   4.094 -0.0897 -0.2419 -0.1889
  210MOL0     N28267   7.639  11.407   4.075 -0.0420 -0.0245 -0.4553
  210MOL0     C28268   7.798  10.619   4.820 -0.2614  0.6818  0.4044
  210MOL0     C28269   7.875  10.564   4.917 -0.3648 -1.5429 -0.3771
  210MOL0     C28270   8.238  10.516   5.193 -0.6768 -1.0598 -0.0763
  210MOL0     C28271   8.248  10.386   5.144  0.0048 -0.1352  0.5046
  210MOL0     C28272   8.340  10.291   5.183 -0.5948 -0.4628  0.2211
  210MOL0     C28273   8.446  10.339   5.265  0.2266  0.0990  0.0199
  210MOL0     O28274   8.543  10.248   5.293 -0.0563  0.4031 -0.4263
  210MOL0     C28275   8.664  10.300   5.351 -0.5309  0.9962  0.2656
  210MOL0     C28276   8.764  10.184   5.359  0.1988 -0.3067 -0.6041
  210MOL0     C28277   8.902  10.218   5.430 -0.1558  0.1754  0.7392
  210MOL0     C28278   8.913  10.208   5.583 -0.2465  0.1643  0.1888
  210MOL0     C28279   9.046  10.252   5.624  0.4566 -0.9348  0.0068
  210MOL0     C28280   9.148  10.308   5.645  0.1343 -0.2050 -0.3706
  210MOL0     C28281   8.447  10.474   5.298 -0.1612 -0.0550 -0.6405
  210MOL0     C28282   8.350  10.563   5.268  0.0353 -0.1694  0.3732
  210MOL0     H28283   8.105  10.826   4.930 -0.5782  0.9425 -1.1817
  210MOL0     H28284   7.955  10.923   4.787 -0.6374 -0.2704 -0.0451
  210MOL0     H28285   7.775  11.004   4.662  1.9728 -0.0083 -0.2588
  210MOL0     H28286   7.866  10.912   4.552 -1.0626  0.5151 -0.7707
  210MOL0     H28287   7.659  10.853   4.415 -2.9974  0.5309 -1.1026
  210MOL0     H28288   7.559  10.955   4.522  0.2418 -0.3544 -0.2704
  210MOL0     H28289   7.605  11.097   4.355 -0.8924 -2.2409 -0.8992
  210MOL0     H28290   7.720  11.151   4.473 -1.2599  0.0244 -0.6384
  210MOL0     H28291   7.897  11.023   4.342 -0.3557  1.2675 -1.4298
  210MOL0     H28292   7.771  10.946   4.256 -1.6505  0.1173  1.5408
  210MOL0     H28293   7.697  11.166   4.167  0.2754 -0.7130 -1.1338
  210MOL0     H28294   7.827  11.254   4.237  0.9190 -0.0865  2.3207
  210MOL0     H28295   7.991  11.184   4.081  1.1747 -1.5589  0.4939
  210MOL0     H28296   7.943  11.023   4.091 -0.9183 -0.3940 -0.4574
  210MOL0     H28297   7.902  11.101   3.866  4.4013  1.4536  2.6777
  210MOL0     H28298   7.743  11.082   3.934 -2.2341  2.6156 -1.5628
  210MOL0     H28299   7.783  11.281   3.800 -0.2643 -1.0363  0.2976
  210MOL0     H28300   7.860  11.362   3.950  0.6051 -2.4033  1.5028
  210MOL0     H28301   7.507  11.237   3.819  1.5465 -1.5836 -0.3631
  210MOL0     H28302   7.251  11.286   3.961  0.8743 -1.0155  1.7204
  210MOL0     H28303   7.264  11.394   4.095  3.0243  2.5348  0.6482
  210MOL0     H28304   7.300  11.498   3.808  1.1382  1.3800  0.6640
  210MOL0     H28305   7.288  11.586   3.952  0.2154  1.6540 -2.1003
  210MOL0     H28306   7.050  11.467   3.986  0.4101 -0.1490 -0.3695
  210MOL0     H28307   7.059  11.426   3.825 -1.7105  0.8628  0.7255
  210MOL0     H28308   7.114  11.712   3.903  0.4357 -0.7232  1.0025
  210MOL0     H28309   6.952  11.643   3.910  0.2264  2.3388 -0.9416
  210MOL0     H28310   7.005  11.626   3.454  2.7380  1.0802 -0.6266
  210MOL0     H28311   6.941  11.678   3.268 -0.1434  0.1529  1.1514
  210MOL0     H28312   6.785  11.755   3.254  0.3072 -4.3130 -0.1727
  210MOL0     H28313   6.935  11.851   3.228 -2.6003  2.2248 -0.7031
  210MOL0     H28314   6.848  12.330   3.513  0.3221  1.2638  0.3877
  210MOL0     H28315   6.807  12.533   3.394 -0.9110 -0.3175  3.0365
  210MOL0     H28316   6.709  12.488   3.056  1.8994  2.7142  0.2783
  210MOL0     H28317   6.528  12.509   3.039  0.2196  0.4620 -0.9091
  210MOL0     H28318   6.753  12.708   3.010 -0.2694  2.7340 -1.9325
  210MOL0     H28319   6.649  12.644   2.881 -1.7901  1.4367  0.1629
  210MOL0     H28320   6.591  12.888   3.004 -0.0760  0.9342 -1.9217
  210MOL0     H28321   6.464  12.780   3.057 -1.4529 -1.7172 -2.0792
  210MOL0     H28322   6.429  12.729   2.802 -1.6958  0.4417  2.1434
  210MOL0     H28323   6.396  12.888   2.876  0.8583  2.0555 -1.2586
  210MOL0     H28324   6.649  12.800   2.723 -0.2757  0.4143  0.3537
  210MOL0     H28325   6.609  12.963   2.751  0.1117 -0.3430  1.1313
  210MOL0     H28326   6.571  12.867   2.523 -1.6332 -0.1734 -1.7231
  210MOL0     H28327   6.455  12.752   2.597 -1.6236  0.5948 -1.3857
  210MOL0     H28328   6.406  13.037   2.641  4.0192  0.2347 -1.7971
  210MOL0     H28329   6.292  12.903   2.653  0.2661  0.3655  0.2559
  210MOL0     H28330   6.299  12.896   2.404 -2.5071 -0.3273  1.9031
  210MOL0     H28331   6.418  13.032   2.407 -1.1390  1.0774 -0.2510
  210MOL0     H28332   6.444  12.352   3.229  0.4999 -0.2880 -0.5203
  210MOL0     H28333   6.500  12.147   3.338  0.3966 -0.3866 -0.6870
  210MOL0     H28334   6.801  11.998   3.692  0.1778  0.3159  0.1187
  210MOL0     H28335   6.957  11.869   3.814  3.2309  1.4041  0.0270
  210MOL0     H28336   7.713  10.563   4.783 -0.1311  1.3007 -0.8796
  210MOL0     H28337   7.848  10.463   4.944 -0.8894 -1.2172  0.3482
  210MOL0     H28338   8.177  10.342   5.075  2.4208 -2.7624 -0.5070
  210MOL0     H28339   8.331  10.188   5.149  1.4558 -0.6596  0.1374
  210MOL0     H28340   8.704  10.381   5.290 -1.7677  2.6567  1.5598
  210MOL0     H28341   8.647  10.333   5.454 -1.2210 -1.8647  1.1564
  210MOL0     H28342   8.784  10.171   5.253 -0.7626 -1.8697 -0.6327
  210MOL0     H28343   8.710  10.106   5.414 -0.3616  1.6027  1.7467
  210MOL0     H28344   8.921  10.323   5.407  3.1022 -0.1761  1.3900
  210MOL0     H28345   8.975  10.154   5.380 -2.4841 -1.5055 -0.7544
  210MOL0     H28346   8.892  10.114   5.636  1.1253  0.9883  2.3337
  210MOL0     H28347   8.847  10.287   5.619 -1.3690 -1.1708  1.2272
  210MOL0     H28348   9.233  10.364   5.677 -0.5547 -0.6099  2.4814
  210MOL0     H28349   8.532  10.510   5.356  1.0048 -0.6201 -1.9360
  210MOL0     H28350   8.354  10.667   5.301 -1.0252  0.1852 -0.5665
  211MOL0     O28351   0.538   0.409  10.481 -0.2235 -0.9095  0.5100
  211MOL0     C28352   0.443   0.414  10.403  0.3884 -0.3602 -0.3480
  211MOL0     O28353   0.323   0.353  10.423 -0.6581  0.1916 -0.7330
  211MOL0     C28354   0.305   0.297  10.549  0.3934 -0.4209 -0.5293
  211MOL0     C28355   0.181   0.330  10.613  0.3136  0.9314 -1.1188
  211MOL0     C28356   0.151   0.290  10.751  0.3968  0.0495 -0.1583
  211MOL0     C28357   0.243   0.212  10.825 -0.2658 -0.6632 -0.0578
  211MOL0     O28358   0.216   0.187  10.956 -0.5985 -0.0208 -0.4454
  211MOL0     C28359   0.198   0.318  11.030  0.1703 -0.8850  0.1405
  211MOL0     C28360   0.237   0.310  11.179  0.2825 -0.4781  0.9339
  211MOL0     C28361   0.159   0.204  11.269 -0.5088  0.3712 -0.4621
  211MOL0     C28362   0.093   0.281  11.390 -0.3695  0.3066  1.0506
  211MOL0     C28363  -0.019   0.192  11.449  0.2550  0.9752 -0.1611
  211MOL0     C28364  -0.058   0.246  11.576  0.5898 -0.4944 -0.0948
  211MOL0     C28365  -0.209   0.229  11.596 -0.0194  0.1080  0.1827
  211MOL0     C28366  -0.243   0.083  11.647 -0.8516  0.8259 -0.2025
  211MOL0     N28367  -0.277   0.069  11.784 -0.3608 -0.3522 -0.8971
  211MOL0     C28368  -0.402   0.054  11.835  0.5154 -0.4498 -0.3871
  211MOL0     C28369  -0.388   0.021  11.966 -0.1692 -0.1080  0.5486
  211MOL0     C28370  -0.493  -0.022  12.058  0.0310 -0.0958 -0.2464
  211MOL0     C28371  -0.560  -0.142  11.999  1.1377 -0.0097  0.0186
  211MOL0     C28372  -0.664  -0.191  12.090 -0.7148  0.3474  0.3939
  211MOL0     C28373  -0.730  -0.329  12.054 -1.2757  0.4465  1.1117
  211MOL0     O28374  -0.828  -0.363  12.146  0.3449  0.5062  0.0796
  211MOL0     C28375  -0.922  -0.454  12.109  0.2672  0.6531  0.7301
  211MOL0     C28376  -0.903  -0.549  12.007  0.0294 -0.4464 -0.0158
  211MOL0     C28377  -0.995  -0.647  11.969 -0.1233  0.1102 -0.2452
  211MOL0     C28378  -0.960  -0.719  11.847 -0.6124  0.7642 -0.8646
  211MOL0     C28379  -1.118  -0.657  12.045  0.2019 -0.2895 -0.3560
  211MOL0     C28380  -1.227  -0.755  12.021  0.6575  0.7228 -0.4116
  211MOL0     O28381  -1.343  -0.742  12.093  0.1436  0.6501  0.4513
  211MOL0     C28382  -1.444  -0.836  12.070 -0.1167 -0.1339  0.1947
  211MOL0     C28383  -1.502  -0.861  11.946 -0.0491  0.5610  0.4242
  211MOL0     C28384  -1.612  -0.945  11.929  0.0442  0.2035 -0.6466
  211MOL0     C28385  -1.673  -1.003  12.052  0.4013  0.4811  0.4197
  211MOL0     O28386  -1.769  -1.095  12.038  0.4528  0.1758 -0.5669
  211MOL0     C28387  -1.892  -1.026  12.037 -1.2997 -0.4154  0.1557
  211MOL0     C28388  -1.999  -1.133  12.027 -0.0452  1.3818  1.1365
  211MOL0     C28389  -2.006  -1.217  12.155 -0.4111  0.8905  0.4527
  211MOL0     C28390  -2.107  -1.335  12.140 -0.1874 -0.2408 -0.7120
  211MOL0     C28391  -2.124  -1.411  12.272 -0.4420 -0.4464  0.7551
  211MOL0     C28392  -2.240  -1.518  12.280 -0.8494 -0.0632 -0.1298
  211MOL0     C28393  -2.273  -1.555  12.425  0.0489  0.2030 -0.0466
  211MOL0     C28394  -2.354  -1.689  12.427  0.1334  0.1439  0.2790
  211MOL0    Cl28395  -2.400  -1.735  12.589 -0.5289  0.4599  0.2696
  211MOL0     C28396  -1.612  -0.973  12.181 -0.3964 -0.6024  0.0832
  211MOL0     C28397  -1.497  -0.888  12.184  0.0209  0.8533 -0.0604
  211MOL0     O28398  -1.214  -0.836  11.931 -0.2408  0.2707 -0.1449
  211MOL0     C28399  -1.134  -0.569  12.159  0.5788  0.6582 -0.4383
  211MOL0     C28400  -1.042  -0.460  12.180  0.4170  0.0836  0.5702
  211MOL0     N28401  -0.252   0.012  11.997  0.0633 -0.6811  0.5067
  211MOL0     N28402  -0.195   0.041  11.889  0.4761  0.6894  0.4300
  211MOL0     C28403   0.366   0.174  10.762  0.1693 -0.3743  0.3798
  211MOL0     C28404   0.392   0.214  10.620  0.0188  0.9026 -0.1483
  211MOL0     C28405   0.470   0.472  10.261  0.6731  0.1618  0.5885
  211MOL0     C28406   0.385   0.464  10.151 -0.1710 -0.0590 -0.5697
  211MOL0     C28407   0.427   0.523  10.030 -0.0866  0.2001  0.3566
  211MOL0     C28408   0.553   0.592  10.009 -0.4186  0.1307 -0.1547
  211MOL0     O28409   0.606   0.653   9.890  0.3601  0.4812 -0.3917
  211MOL0     C28410   0.528   0.637   9.768 -1.0523 -1.2427 -0.3804
  211MOL0     C28411   0.591   0.723   9.659 -0.3889  0.6534 -0.2093
  211MOL0     C28412   0.737   0.691   9.623  0.1420 -0.0372 -0.7105
  211MOL0     C28413   0.791   0.770   9.507 -0.3809  0.4999 -0.1050
  211MOL0     C28414   0.913   0.715   9.463  0.0599 -0.3485 -0.7745
  211MOL0     C28415   1.023   0.674   9.422 -0.4183 -0.8786  0.2940
  211MOL0     C28416   0.641   0.583  10.117 -0.2755 -0.2810 -0.0782
  211MOL0     C28417   0.595   0.533  10.239 -0.9511  0.2505  0.2275
  211MOL0     H28418   0.115   0.394  10.555 -0.7077  1.8392  0.9572
  211MOL0     H28419   0.053   0.326  10.782  0.1223 -0.8980  0.0910
  211MOL0     H28420   0.247   0.400  10.976 -0.8181 -1.8834 -2.4203
  211MOL0     H28421   0.090   0.330  11.025  0.1938 -1.0517 -0.9675
  211MOL0     H28422   0.344   0.288  11.190  0.2615 -0.5526  0.9944
  211MOL0     H28423   0.212   0.408  11.221 -0.4479 -0.5884  0.7550
  211MOL0     H28424   0.083   0.162  11.203 -2.6518 -0.2838  2.2486
  211MOL0     H28425   0.226   0.125  11.302 -0.8646  0.7297  1.2078
  211MOL0     H28426   0.172   0.299  11.464  1.9468 -1.2484 -0.8746
  211MOL0     H28427   0.046   0.374  11.358 -1.9621 -0.8188 -0.0536
  211MOL0     H28428  -0.104   0.194  11.381  1.9886  0.7388 -2.4452
  211MOL0     H28429   0.014   0.089  11.469 -1.7837  0.3080 -0.0205
  211MOL0     H28430   0.004   0.205  11.656 -1.1260  2.6337  3.1371
  211MOL0     H28431  -0.039   0.353  11.575  1.8135 -0.6886 -1.1576
  211MOL0     H28432  -0.238   0.313  11.660  1.6050  2.0532 -1.4948
  211MOL0     H28433  -0.280   0.242  11.514 -2.6242  3.0991  2.6382
  211MOL0     H28434  -0.164   0.008  11.634 -3.0291 -1.3973 -1.3901
  211MOL0     H28435  -0.328   0.058  11.584 -1.2910  4.1270 -1.1212
  211MOL0     H28436  -0.496   0.071  11.783  2.0116 -0.0064 -3.1213
  211MOL0     H28437  -0.447  -0.049  12.153  1.0991  1.1178 -0.3819
  211MOL0     H28438  -0.571   0.053  12.070 -0.6833 -0.3876 -2.5911
  211MOL0     H28439  -0.489  -0.223  11.983  1.1323  0.0755 -0.4419
  211MOL0     H28440  -0.606  -0.127  11.901  3.9197  3.1865 -0.9867
  211MOL0     H28441  -0.740  -0.112  12.085  0.5643  1.6879  1.1818
  211MOL0     H28442  -0.632  -0.190  12.195 -2.1008 -2.5733  0.9755
  211MOL0     H28443  -0.656  -0.410  12.053 -3.1911 -1.6541 -3.9278
  211MOL0     H28444  -0.768  -0.313  11.952  0.0544  2.4401  0.8791
  211MOL0     H28445  -0.810  -0.547  11.952  1.5895 -1.0185  2.4222
  211MOL0     H28446  -0.868  -0.680  11.803  0.0625  0.7813  0.5134
  211MOL0     H28447  -0.941  -0.822  11.879 -1.1456 -0.2904 -3.6886
  211MOL0     H28448  -1.045  -0.746  11.783 -0.1435 -1.0751 -0.7755
  211MOL0     H28449  -1.463  -0.817  11.856 -0.2242 -2.4440 -1.2470
  211MOL0     H28450  -1.647  -0.969  11.829 -0.3160  1.1353 -0.7514
  211MOL0     H28451  -1.899  -0.957  12.122  1.3180  0.5480 -0.3252
  211MOL0     H28452  -1.875  -0.971  11.944  1.5222  0.3406  1.0280
  211MOL0     H28453  -2.095  -1.088  11.997  0.7173  1.5157 -1.3833
  211MOL0     H28454  -1.978  -1.199  11.943  2.3884  4.1903 -0.6833
  211MOL0     H28455  -2.023  -1.156  12.245 -0.5568 -0.9902  1.7631
  211MOL0     H28456  -1.909  -1.264  12.171 -0.5063  0.7607  0.6586
  211MOL0     H28457  -2.203  -1.290  12.111 -1.8143 -1.5047  2.2184
  211MOL0     H28458  -2.068  -1.395  12.057  0.2884  1.7561 -2.0071
  211MOL0     H28459  -2.153  -1.332  12.342 -1.0312 -1.4318  1.6372
  211MOL0     H28460  -2.030  -1.454  12.307  0.7467  0.7262 -0.8045
  211MOL0     H28461  -2.332  -1.491  12.227 -0.7140 -0.3719 -0.5265
  211MOL0     H28462  -2.213  -1.609  12.225  0.3103  0.3037 -0.1985
  211MOL0     H28463  -2.330  -1.471  12.466  0.7835  1.9191 -2.3519
  211MOL0     H28464  -2.182  -1.576  12.481 -0.0009  0.2277  0.0442
  211MOL0     H28465  -2.280  -1.755  12.383  2.6739  1.5579  2.1614
  211MOL0     H28466  -2.445  -1.684  12.366  0.9233  1.0271 -0.8493
  211MOL0     H28467  -1.632  -1.038  12.265 -4.2041 -3.5576 -2.7575
  211MOL0     H28468  -1.451  -0.873  12.282  1.6003  2.4254 -0.9720
  211MOL0     H28469  -1.216  -0.561  12.230  1.6018 -0.8675  0.9773
  211MOL0     H28470  -1.063  -0.400  12.268 -2.3793 -0.2805  0.2578
  211MOL0     H28471   0.438   0.121  10.823  1.2627  0.7936  0.1561
  211MOL0     H28472   0.489   0.178  10.588  0.6802  2.0068  0.5598
  211MOL0     H28473   0.284   0.430  10.174  0.7636 -1.2925  2.2470
  211MOL0     H28474   0.364   0.519   9.942 -0.4858 -1.0948  0.6759
  211MOL0     H28475   0.534   0.534   9.731  0.9905 -0.4763 -2.4259
  211MOL0     H28476   0.426   0.673   9.785 -0.3710 -0.4035  2.3902
  211MOL0     H28477   0.594   0.824   9.701  1.9861  0.5696 -0.0062
  211MOL0     H28478   0.534   0.722   9.565  1.4686 -0.5820 -1.3923
  211MOL0     H28479   0.730   0.586   9.594  1.2708 -0.6462  1.0351
  211MOL0     H28480   0.793   0.707   9.716  0.6851  0.6100 -1.1476
  211MOL0     H28481   0.811   0.874   9.534 -3.8187  0.6564  2.5477
  211MOL0     H28482   0.714   0.768   9.429 -1.2316 -2.1204  0.6723
  211MOL0     H28483   1.119   0.656   9.378 -1.3528  0.4757 -2.5908
  211MOL0     H28484   0.736   0.633  10.101 -1.9296  4.1711  2.3818
  211MOL0     H28485   0.670   0.544  10.317 -0.4587  1.0782 -0.3386
  212MOL0     O28486   7.185  10.278   4.915  0.3072 -0.7709  0.6139
  212MOL0     C28487   7.197  10.272   5.039  0.1007 -0.0232 -0.0765
  212MOL0     O28488   7.088  10.245   5.122  0.0840  0.0020 -0.3787
  212MOL0     C28489   6.967  10.219   5.071  0.0831  0.0158  0.6467
  212MOL0     C28490   6.853  10.293   5.099  0.4579 -0.3187  0.0397
  212MOL0     C28491   6.726  10.253   5.049  0.2742 -0.2396  0.4722
  212MOL0     C28492   6.716  10.146   4.956 -0.5949  0.2772 -0.4719
  212MOL0     O28493   6.604  10.107   4.882 -0.0332 -0.1011 -0.8307
  212MOL0     C28494   6.534  10.210   4.818 -0.1034 -0.2061  0.4280
  212MOL0     C28495   6.394  10.157   4.778 -0.1536  0.0183  0.4093
  212MOL0     C28496   6.403  10.032   4.689 -0.7902  0.1787 -0.3513
  212MOL0     C28497   6.265   9.975   4.643 -0.7902 -0.0719 -1.4331
  212MOL0     C28498   6.269   9.878   4.535 -1.3490  0.7747  0.6854
  212MOL0     C28499   6.140   9.794   4.521  0.7471 -1.1352 -0.9503
  212MOL0     C28500   6.145   9.715   4.388  0.5344 -1.3049  0.1900
  212MOL0     C28501   6.013   9.644   4.360 -0.2004  0.5353  0.6665
  212MOL0     N28502   5.899   9.734   4.333  0.3103  0.2499 -0.5251
  212MOL0     C28503   5.884   9.865   4.283 -0.6552 -0.2043  0.1948
  212MOL0     C28504   5.750   9.872   4.250  0.4770 -0.9054  0.5003
  212MOL0     C28505   5.687  10.006   4.211 -0.2255  0.0833  0.3756
  212MOL0     C28506   5.601  10.089   4.316  0.6442  0.9002 -0.9080
  212MOL0     C28507   5.563  10.236   4.288 -0.3353 -0.8684  0.2937
  212MOL0     C28508   5.483  10.290   4.409 -0.5779  0.9598 -0.6109
  212MOL0     O28509   5.345  10.254   4.417  0.9235  0.2660  0.5585
  212MOL0     C28510   5.295  10.266   4.544 -0.5760 -0.2143  0.8814
  212MOL0     C28511   5.210  10.163   4.581 -0.0197  0.3772 -0.6053
  212MOL0     C28512   5.145  10.149   4.701 -0.5770  1.0745 -0.1939
  212MOL0     C28513   5.068  10.017   4.721 -0.6367 -0.1291 -0.4150
  212MOL0     C28514   5.153  10.252   4.793 -0.4297  0.5833  0.4797
  212MOL0     C28515   5.082  10.268   4.918  0.1111 -0.7340 -0.6263
  212MOL0     O28516   5.088  10.394   4.980  0.0217  0.1745 -0.1019
  212MOL0     C28517   5.010  10.426   5.087  0.1719 -0.0714 -0.0815
  212MOL0     C28518   4.929  10.348   5.178 -0.6464 -0.2065 -0.1358
  212MOL0     C28519   4.870  10.422   5.280 -1.0802  0.8430  0.2070
  212MOL0     C28520   4.902  10.550   5.314 -0.3057  0.1986  1.0284
  212MOL0     O28521   4.853  10.614   5.427 -0.0509 -0.0260  0.7070
  212MOL0     C28522   4.794  10.547   5.537 -0.7234  0.2275  0.4258
  212MOL0     C28523   4.772  10.652   5.643  0.2531 -0.8669 -0.1101
  212MOL0     C28524   4.690  10.602   5.762  0.4111  0.2468 -0.3360
  212MOL0     C28525   4.655  10.729   5.837  0.7046 -0.0036 -1.0933
  212MOL0     C28526   4.580  10.689   5.967 -0.7950  0.2371  0.8166
  212MOL0     C28527   4.443  10.631   5.931  0.0359  0.2972 -0.3901
  212MOL0     C28528   4.361  10.621   6.057  1.0410  0.1024  0.3983
  212MOL0     C28529   4.219  10.589   6.012  0.5476 -0.0221  0.4054
  212MOL0    Cl28530   4.086  10.580   6.125  0.1357  0.1649 -0.4018
  212MOL0     C28531   4.988  10.626   5.230 -0.8099  0.2733 -0.1099
  212MOL0     C28532   5.032  10.563   5.116 -0.5878  0.5132 -0.1767
  212MOL0     O28533   4.998  10.180   4.950  0.7610 -0.0155 -0.6261
  212MOL0     C28534   5.240  10.360   4.754 -0.5072 -0.1549  0.7074
  212MOL0     C28535   5.321  10.367   4.634 -0.0280  0.6122  0.2961
  212MOL0     N28536   5.686   9.752   4.258 -0.1184 -0.1680  0.0230
  212MOL0     N28537   5.772   9.673   4.312 -0.4487 -0.6665  0.6468
  212MOL0     C28538   6.834  10.067   4.938 -0.1026  0.2679 -0.4362
  212MOL0     C28539   6.959  10.099   4.997  0.5361  0.1776  0.0383
  212MOL0     C28540   7.336  10.298   5.095  0.0168 -0.4993  0.4989
  212MOL0     C28541   7.360  10.299   5.235 -0.0980 -0.1014 -0.9172
  212MOL0     C28542   7.480  10.343   5.289  0.4403  0.8939  0.1813
  212MOL0     C28543   7.590  10.351   5.199  0.1303 -0.5275 -0.3999
  212MOL0     O28544   7.720  10.367   5.246  0.5447 -0.5063 -0.1281
  212MOL0     C28545   7.742  10.385   5.396  0.5114  0.5251  0.6998
  212MOL0     C28546   7.883  10.402   5.432  0.3855 -0.6666 -0.0879
  212MOL0     C28547   7.982  10.290   5.378  0.4402 -0.3905 -0.7882
  212MOL0     C28548   7.953  10.148   5.413  0.2672 -0.1763 -0.3251
  212MOL0     C28549   7.924  10.126   5.557  0.5584  0.1901  0.3654
  212MOL0     C28550   7.893  10.092   5.675  0.1268  0.6282  0.1113
  212MOL0     C28551   7.567  10.352   5.063 -0.6428 -0.1968 -0.7107
  212MOL0     C28552   7.439  10.325   5.010 -1.1041 -0.6869 -0.0562
  212MOL0     H28553   6.853  10.375   5.169 -4.4038 -1.4330  1.7051
  212MOL0     H28554   6.651  10.318   5.091 -0.0353 -0.0200 -0.4052
  212MOL0     H28555   6.538  10.305   4.872  0.5119 -0.0997  0.1988
  212MOL0     H28556   6.587  10.243   4.729 -0.3810  2.3916  1.1528
  212MOL0     H28557   6.339  10.128   4.868 -0.3223  0.2544  0.3826
  212MOL0     H28558   6.344  10.234   4.719 -0.2146 -0.9235 -0.8140
  212MOL0     H28559   6.444  10.054   4.591 -2.8398  1.4723 -0.9774
  212MOL0     H28560   6.459   9.952   4.740  1.9192  2.7480  1.0147
  212MOL0     H28561   6.212   9.942   4.733  2.2589  1.5639  1.1452
  212MOL0     H28562   6.208  10.064   4.614 -0.1945  1.0027  0.4847
  212MOL0     H28563   6.291   9.934   4.444 -2.5318  1.3247  0.7234
  212MOL0     H28564   6.356   9.816   4.558 -2.5086 -0.7006  1.2444
  212MOL0     H28565   6.115   9.725   4.602 -1.2239 -1.2013 -1.5515
  212MOL0     H28566   6.058   9.865   4.505  0.3217 -1.1456  0.9368
  212MOL0     H28567   6.176   9.779   4.305  3.3928 -0.4984  1.7212
  212MOL0     H28568   6.223   9.640   4.404  1.3728 -0.0562  2.4970
  212MOL0     H28569   5.993   9.579   4.446  3.9028 -0.3705  1.1795
  212MOL0     H28570   6.030   9.575   4.277 -4.4245 -1.7291  1.4119
  212MOL0     H28571   5.957   9.945   4.272  0.5852 -1.5263 -1.8249
  212MOL0     H28572   5.773  10.063   4.174  0.1294 -1.1128 -0.7313
  212MOL0     H28573   5.629   9.987   4.120  1.5139 -1.7118 -0.4462
  212MOL0     H28574   5.650  10.083   4.413  1.2227 -0.7168 -1.2829
  212MOL0     H28575   5.508  10.033   4.303  0.4303  1.0033  0.1138
  212MOL0     H28576   5.502  10.259   4.201 -0.8925  1.2295  1.1776
  212MOL0     H28577   5.654  10.297   4.289 -1.6598  1.2154  1.4541
  212MOL0     H28578   5.483  10.398   4.395  3.1709  1.2640  0.4743
  212MOL0     H28579   5.531  10.280   4.507 -1.9568  3.6489  0.4410
  212MOL0     H28580   5.212  10.089   4.501  0.9401 -0.2417 -0.0202
  212MOL0     H28581   5.112   9.935   4.662  1.2945 -0.4442  1.3740
  212MOL0     H28582   5.077   9.988   4.826 -1.2395  0.2750 -0.2443
  212MOL0     H28583   4.960  10.030   4.711 -0.7035  1.3099  1.6043
  212MOL0     H28584   4.906  10.245   5.153 -0.5310 -0.2860  0.0818
  212MOL0     H28585   4.791  10.377   5.339 -1.3632  1.4355  0.2953
  212MOL0     H28586   4.703  10.497   5.503 -0.2696  0.4866 -1.2501
  212MOL0     H28587   4.863  10.469   5.572 -1.0491 -1.3927 -2.2689
  212MOL0     H28588   4.861  10.713   5.661  1.0418 -1.6754 -1.1024
  212MOL0     H28589   4.707  10.715   5.582  0.8031 -0.2263 -0.0430
  212MOL0     H28590   4.758  10.537   5.819  0.7194  0.0346 -0.9413
  212MOL0     H28591   4.600  10.546   5.737  0.2489  1.3812 -2.5543
  212MOL0     H28592   4.757  10.762   5.858  1.3354 -1.9168 -0.9320
  212MOL0     H28593   4.594  10.797   5.777 -1.0860  0.5606  1.2325
  212MOL0     H28594   4.572  10.778   6.031 -0.5770  1.7915 -1.2331
  212MOL0     H28595   4.634  10.608   6.018  1.6168 -2.3292 -4.8937
  212MOL0     H28596   4.405  10.691   5.848  2.3736  1.7153 -0.5348
  212MOL0     H28597   4.449  10.526   5.903  0.8593 -0.6584  2.8551
  212MOL0     H28598   4.357  10.715   6.113  1.5251  0.9836 -1.0020
  212MOL0     H28599   4.393  10.550   6.134 -0.0483  0.9681  1.7112
  212MOL0     H28600   4.221  10.495   5.956  0.2858  1.2660 -1.8986
  212MOL0     H28601   4.189  10.669   5.944 -1.1648 -0.1574  0.9458
  212MOL0     H28602   5.015  10.728   5.256 -2.9120  1.4932 -2.2465
  212MOL0     H28603   5.107  10.618   5.061  1.0947 -0.6318  0.8683
  212MOL0     H28604   5.254  10.443   4.822  1.1287 -0.9138  1.3644
  212MOL0     H28605   5.387  10.449   4.610  1.6768 -1.0763 -1.0835
  212MOL0     H28606   6.835   9.977   4.877 -1.2155 -0.4867  0.6257
  212MOL0     H28607   7.042  10.032   4.981  2.3971  1.9349  1.7250
  212MOL0     H28608   7.276  10.277   5.300 -0.4559 -0.3888 -1.4671
  212MOL0     H28609   7.494  10.357   5.396 -2.1579  1.0741  0.5542
  212MOL0     H28610   7.683  10.466   5.440 -2.5689 -1.6970  1.0137
  212MOL0     H28611   7.708  10.296   5.451 -0.0355 -0.7658 -1.6165
  212MOL0     H28612   7.900  10.407   5.540  1.9670  0.8595 -0.3710
  212MOL0     H28613   7.923  10.497   5.397 -0.9889  0.3270  0.9086
  212MOL0     H28614   8.076  10.325   5.422 -0.1850  0.2262  0.0760
  212MOL0     H28615   7.992  10.298   5.269  1.4208  0.6951 -0.6430
  212MOL0     H28616   8.041  10.090   5.383  1.7880  1.4430  0.7980
  212MOL0     H28617   7.867  10.109   5.356 -0.8791  0.7736  0.7179
  212MOL0     H28618   7.849  10.064   5.769 -0.7748  1.6370  0.0134
  212MOL0     H28619   7.657  10.367   5.004 -0.1845 -0.6664 -0.1366
  212MOL0     H28620   7.424  10.327   4.902 -0.4989 -1.1550 -0.1539
  213MOL0     O28621  10.842   4.859   0.600  0.5645 -0.3077 -0.2146
  213MOL0     C28622  10.942   4.819   0.652 -0.6664  0.2571 -0.5702
  213MOL0     O28623  10.962   4.800   0.784 -0.9396 -0.2777 -0.2680
  213MOL0     C28624  10.849   4.797   0.867 -0.0714 -0.6665 -0.0163
  213MOL0     C28625  10.804   4.913   0.936 -0.0994 -0.7064  0.2953
  213MOL0     C28626  10.694   4.908   1.016 -0.4290  0.2399 -0.1730
  213MOL0     C28627  10.615   4.784   1.031 -0.6508  0.2738  0.8062
  213MOL0     O28628  10.494   4.788   1.095  0.0987 -0.2947  0.4727
  213MOL0     C28629  10.385   4.722   1.026  0.6002 -0.2609  0.1893
  213MOL0     C28630  10.250   4.783   1.070 -0.0728 -0.0830  0.5612
  213MOL0     C28631  10.227   4.746   1.223  0.2400 -0.4451  0.2207
  213MOL0     C28632  10.127   4.841   1.289 -0.1437 -1.3214  0.1979
  213MOL0     C28633   9.979   4.809   1.241  0.7475  0.1243 -0.0555
  213MOL0     C28634   9.889   4.920   1.289  0.1820  0.1125  0.1723
  213MOL0     C28635   9.885   4.923   1.446  0.9605  0.2938  0.1353
  213MOL0     C28636   9.773   5.023   1.496 -0.0962  0.2040 -0.3173
  213MOL0     N28637   9.645   4.959   1.502  0.0022  0.0600 -0.4363
  213MOL0     C28638   9.548   4.953   1.405  0.2049 -0.5434 -0.6145
  213MOL0     C28639   9.434   4.897   1.474  0.1146 -0.3779  0.2759
  213MOL0     C28640   9.297   4.857   1.420  0.0267  0.7928 -0.3992
  213MOL0     C28641   9.214   4.773   1.522  0.8373  0.1567  0.5207
  213MOL0     C28642   9.079   4.737   1.457 -0.4250 -1.1626 -0.7032
  213MOL0     C28643   8.981   4.645   1.535  0.0952  0.9166 -0.3618
  213MOL0     O28644   8.952   4.705   1.665  0.7911  0.3576 -0.1424
  213MOL0     C28645   8.826   4.764   1.684 -0.4835 -0.7870  0.3020
  213MOL0     C28646   8.744   4.823   1.587  0.3859 -0.7040  0.0440
  213MOL0     C28647   8.627   4.891   1.601 -0.3352 -0.1450  1.0423
  213MOL0     C28648   8.550   4.946   1.476 -1.2428 -0.3824  0.1803
  213MOL0     C28649   8.575   4.900   1.734 -0.0289  0.8514  0.2263
  213MOL0     C28650   8.444   4.970   1.770  0.0262  0.3976  0.0147
  213MOL0     O28651   8.422   4.986   1.899 -0.4738  0.3043 -0.9250
  213MOL0     C28652   8.302   5.035   1.960 -0.1934 -0.2857 -0.5940
  213MOL0     C28653   8.191   5.085   1.896 -1.0859 -0.2829  0.0301
  213MOL0     C28654   8.081   5.116   1.972  0.4221  0.6816 -0.3383
  213MOL0     C28655   8.084   5.128   2.111  1.1814  0.0019 -0.5187
  213MOL0     O28656   7.971   5.174   2.184 -0.7042 -0.6862  0.0959
  213MOL0     C28657   7.862   5.234   2.110 -0.1786  0.1979  0.2562
  213MOL0     C28658   7.769   5.295   2.207  0.6348 -0.0488 -0.0231
  213MOL0     C28659   7.640   5.342   2.144  0.5278  0.1519  0.9978
  213MOL0     C28660   7.559   5.407   2.259  0.2978 -1.1025 -0.3590
  213MOL0     C28661   7.426   5.471   2.215  1.0071 -0.7029 -0.5889
  213MOL0     C28662   7.327   5.380   2.152  0.1927  0.6121  0.5011
  213MOL0     C28663   7.190   5.429   2.130 -0.3668 -0.2996  0.5190
  213MOL0     C28664   7.179   5.519   2.000 -0.2677 -0.3693 -0.0684
  213MOL0    Cl28665   7.020   5.603   2.023 -0.3082 -0.3494 -0.1001
  213MOL0     C28666   8.199   5.077   2.174  0.1590 -0.5887  0.7650
  213MOL0     C28667   8.309   5.027   2.100 -0.6593  0.4700 -0.0064
  213MOL0     O28668   8.381   5.020   1.676  0.2168  0.4363 -0.4372
  213MOL0     C28669   8.654   4.848   1.839  0.5351  0.1885  0.4545
  213MOL0     C28670   8.778   4.771   1.814  0.3565 -0.5513  0.2496
  213MOL0     N28671   9.471   4.877   1.606  0.9490 -0.1381 -0.3009
  213MOL0     N28672   9.590   4.911   1.620 -0.3489 -0.7519 -0.2929
  213MOL0     C28673  10.662   4.676   0.965 -0.8276  0.8170  0.0677
  213MOL0     C28674  10.779   4.678   0.884 -0.4397  0.4645 -1.0076
  213MOL0     C28675  11.057   4.753   0.581 -0.3781  0.2026  0.0717
  213MOL0     C28676  11.189   4.750   0.631  0.6644 -0.8900 -0.1553
  213MOL0     C28677  11.298   4.718   0.555 -0.1950  0.1577 -0.6784
  213MOL0     C28678  11.286   4.666   0.425 -0.4866  0.1835  0.1995
  213MOL0     O28679  11.395   4.639   0.348 -0.3025  0.6901 -0.0005
  213MOL0     C28680  11.372   4.606   0.209 -0.6013  0.0991  0.3022
  213MOL0     C28681  11.501   4.609   0.132 -0.2022 -0.1280  1.0020
  213MOL0     C28682  11.491   4.642  -0.023 -0.8397  0.4489 -0.3661
  213MOL0     C28683  11.622   4.633  -0.101 -0.0938  0.1061 -0.0087
  213MOL0     C28684  11.661   4.496  -0.123 -0.1116 -0.3105 -0.6550
  213MOL0     C28685  11.694   4.390  -0.155 -1.2655  1.4096 -0.0936
  213MOL0     C28686  11.158   4.659   0.380  1.0057  0.3989 -0.2972
  213MOL0     C28687  11.045   4.704   0.449 -0.0325  0.0580 -0.6646
  213MOL0     H28688  10.858   5.003   0.909  0.7066 -1.3376 -0.2444
  213MOL0     H28689  10.664   5.000   1.064 -4.2716 -1.1883  0.4980
  213MOL0     H28690  10.397   4.726   0.917  1.3313 -1.5583  0.2093
  213MOL0     H28691  10.387   4.616   1.052 -0.0118 -0.5156 -0.7472
  213MOL0     H28692  10.247   4.891   1.051 -2.0262 -0.5034 -2.0297
  213MOL0     H28693  10.172   4.751   1.001 -0.2455  3.5800 -1.1461
  213MOL0     H28694  10.185   4.646   1.235 -3.1480  1.1605  3.8626
  213MOL0     H28695  10.325   4.760   1.268  0.0341  1.9413  0.0589
  213MOL0     H28696  10.135   4.823   1.396  0.8670  0.7480  0.5166
  213MOL0     H28697  10.147   4.944   1.258 -0.5680 -1.4571 -0.5792
  213MOL0     H28698   9.983   4.805   1.131 -3.6565 -1.1182 -0.3633
  213MOL0     H28699   9.956   4.705   1.266  2.8881 -0.0757  1.3742
  213MOL0     H28700   9.911   5.014   1.238  3.2766  0.3813  1.7110
  213MOL0     H28701   9.792   4.896   1.246  1.4058 -1.1286 -2.0586
  213MOL0     H28702   9.868   4.820   1.478 -1.0932  0.8657  1.0653
  213MOL0     H28703   9.974   4.961   1.497  0.6247  2.3717 -0.7198
  213MOL0     H28704   9.767   5.104   1.422 -3.2433 -0.7567 -1.2630
  213MOL0     H28705   9.805   5.059   1.594 -3.1764 -0.6758  1.1463
  213MOL0     H28706   9.553   4.970   1.298 -0.1112 -1.7759 -0.8431
  213MOL0     H28707   9.231   4.937   1.384 -0.3682 -0.6367 -3.1458
  213MOL0     H28708   9.317   4.786   1.339 -5.0177  0.6688 -1.8814
  213MOL0     H28709   9.208   4.827   1.617  1.5986 -1.2605  1.4088
  213MOL0     H28710   9.265   4.677   1.522  2.3137  0.9169  0.2633
  213MOL0     H28711   9.105   4.704   1.356  2.1124 -3.6454  0.6066
  213MOL0     H28712   9.029   4.833   1.444  4.1574  1.3396 -1.8341
  213MOL0     H28713   9.041   4.555   1.543 -0.4278  0.7307  2.4434
  213MOL0     H28714   8.892   4.618   1.477  0.9123 -2.8357 -0.0660
  213MOL0     H28715   8.785   4.838   1.488  1.8770  1.0405  0.8827
  213MOL0     H28716   8.545   5.053   1.498 -0.0637 -0.3418  0.2949
  213MOL0     H28717   8.599   4.938   1.378 -0.3266 -0.7397  0.6575
  213MOL0     H28718   8.451   4.901   1.461 -1.0074 -0.6897 -0.5077
  213MOL0     H28719   8.173   5.074   1.789 -0.3181 -1.0769 -0.0301
  213MOL0     H28720   7.991   5.124   1.912  0.0441  2.4972  0.4124
  213MOL0     H28721   7.917   5.291   2.034  2.5849 -4.3971 -1.6527
  213MOL0     H28722   7.796   5.163   2.059  3.1888 -1.1862 -2.6107
  213MOL0     H28723   7.747   5.215   2.278 -1.2482 -2.5149 -3.0939
  213MOL0     H28724   7.829   5.374   2.252  1.7849 -0.9697  0.1008
  213MOL0     H28725   7.583   5.260   2.099 -1.0743  0.4021  2.4689
  213MOL0     H28726   7.652   5.415   2.064 -2.7856  0.7009  0.8809
  213MOL0     H28727   7.548   5.333   2.339  2.8379  1.0470  2.1579
  213MOL0     H28728   7.611   5.500   2.284 -0.9791  1.4628 -5.8262
  213MOL0     H28729   7.440   5.549   2.140  0.3554  1.8071  1.7173
  213MOL0     H28730   7.385   5.518   2.305  1.3137  2.3243 -1.8998
  213MOL0     H28731   7.351   5.319   2.064 -1.1349 -0.9466  1.1611
  213MOL0     H28732   7.311   5.290   2.212 -1.0595 -1.7195 -2.9660
  213MOL0     H28733   7.165   5.482   2.222 -0.0605 -1.3776  1.2407
  213MOL0     H28734   7.127   5.341   2.116  1.0133 -1.2344 -0.0627
  213MOL0     H28735   7.183   5.450   1.916 -0.1819 -2.9024  1.8820
  213MOL0     H28736   7.256   5.595   1.992 -1.1805  0.5091 -0.6695
  213MOL0     H28737   8.206   5.096   2.281 -0.9062  1.5601  0.4902
  213MOL0     H28738   8.385   4.963   2.142 -1.0349 -1.4613 -2.0797
  213MOL0     H28739   8.638   4.860   1.946  2.0993  0.2423  0.7116
  213MOL0     H28740   8.828   4.735   1.904  0.3232 -1.4443 -0.0743
  213MOL0     H28741  10.607   4.583   0.960  0.8256 -0.1032 -2.8553
  213MOL0     H28742  10.804   4.584   0.835  1.0498 -0.8928  2.0919
  213MOL0     H28743  11.207   4.802   0.725  1.0443 -1.2447 -0.0265
  213MOL0     H28744  11.401   4.733   0.587 -0.0644  1.1411 -1.4900
  213MOL0     H28745  11.306   4.519   0.203 -2.1634  1.0760  2.1278
  213MOL0     H28746  11.308   4.680   0.159  0.1306  0.8580  0.4624
  213MOL0     H28747  11.557   4.517   0.152  0.0959 -0.0550  0.5094
  213MOL0     H28748  11.565   4.691   0.166  0.4631 -0.2241  0.0236
  213MOL0     H28749  11.445   4.739  -0.048  0.8351  1.3303 -0.1315
  213MOL0     H28750  11.419   4.567  -0.057 -2.5626  1.0287  1.7432
  213MOL0     H28751  11.701   4.687  -0.048  1.0089 -2.3930  1.0608
  213MOL0     H28752  11.608   4.673  -0.202 -1.2371 -1.1529 -0.3916
  213MOL0     H28753  11.725   4.297  -0.199  0.0150  2.3772 -1.3069
  213MOL0     H28754  11.130   4.623   0.282 -3.3099 -0.3509  0.9960
  213MOL0     H28755  10.946   4.698   0.404 -0.1878  2.7848 -0.8417
  214MOL0     O28756   1.445   1.190   5.491 -0.1147 -0.1699 -0.5958
  214MOL0     C28757   1.431   1.084   5.429 -0.5658  0.6836 -0.9761
  214MOL0     O28758   1.502   1.047   5.319 -0.0335  0.5803 -0.5570
  214MOL0     C28759   1.621   1.098   5.274  0.4761  0.5200 -0.4172
  214MOL0     C28760   1.715   0.999   5.230 -0.6845 -0.1484  0.2281
  214MOL0     C28761   1.850   1.041   5.200  0.3769 -0.1338  0.1027
  214MOL0     C28762   1.891   1.173   5.194 -0.1145 -0.2900  0.0290
  214MOL0     O28763   2.012   1.214   5.159 -0.4001  0.9104  0.2148
  214MOL0     C28764   2.047   1.348   5.193  0.3791  0.1334 -0.0805
  214MOL0     C28765   2.201   1.353   5.179 -0.4543  0.2296 -0.4897
  214MOL0     C28766   2.240   1.502   5.196 -0.0285 -0.5464 -0.1619
  214MOL0     C28767   2.391   1.527   5.218 -0.6829 -0.0730 -0.1711
  214MOL0     C28768   2.433   1.666   5.232  0.4221  0.6633  0.2972
  214MOL0     C28769   2.585   1.670   5.220 -0.2825  0.2990 -0.2850
  214MOL0     C28770   2.661   1.625   5.342  0.3724  0.7450 -0.2033
  214MOL0     C28771   2.796   1.681   5.332  0.4943 -0.2801  0.3026
  214MOL0     N28772   2.780   1.825   5.362  0.0536 -0.0395  0.1210
  214MOL0     C28773   2.762   1.870   5.497  0.5593 -0.7764  0.3062
  214MOL0     C28774   2.763   2.006   5.485 -0.2610  0.0278  0.2510
  214MOL0     C28775   2.722   2.100   5.598  0.1342  0.3118 -0.0235
  214MOL0     C28776   2.577   2.152   5.588 -0.0891 -0.0555  0.4579
  214MOL0     C28777   2.479   2.057   5.658  0.1039 -0.2746  0.5135
  214MOL0     C28778   2.333   2.058   5.599  1.0015  0.9269  0.3420
  214MOL0     O28779   2.237   1.978   5.675  0.3578 -0.4739  0.0089
  214MOL0     C28780   2.181   2.022   5.799 -0.8853 -0.7129  0.4999
  214MOL0     C28781   2.094   1.937   5.867 -0.5991  0.5943 -0.2200
  214MOL0     C28782   2.030   1.962   5.981  0.2967  0.9068  0.2972
  214MOL0     C28783   1.923   1.861   6.031  0.8694 -0.0120  0.8204
  214MOL0     C28784   2.048   2.093   6.046 -0.7360  0.9424  0.1181
  214MOL0     C28785   1.962   2.140   6.161  0.3012 -0.3644 -0.1152
  214MOL0     O28786   1.939   2.276   6.170  0.3995 -0.1297  0.0326
  214MOL0     C28787   1.858   2.330   6.264  0.1441  0.5171  0.4733
  214MOL0     C28788   1.874   2.470   6.282  0.8139  0.5808  0.1598
  214MOL0     C28789   1.798   2.550   6.370  0.9070  0.1189  0.7268
  214MOL0     C28790   1.710   2.488   6.458 -0.0486  0.5575 -0.2998
  214MOL0     O28791   1.635   2.569   6.538 -0.0763 -0.3618 -1.2122
  214MOL0     C28792   1.570   2.523   6.661  0.6217 -0.3294 -0.6123
  214MOL0     C28793   1.535   2.649   6.748 -0.0044 -0.0215  0.5038
  214MOL0     C28794   1.431   2.737   6.693 -0.1947 -0.3333  0.3831
  214MOL0     C28795   1.381   2.826   6.809 -0.6055 -0.1729 -0.0087
  214MOL0     C28796   1.272   2.932   6.774  0.5700  0.5475  0.0692
  214MOL0     C28797   1.303   3.025   6.647 -1.1945  0.5785 -0.1558
  214MOL0     C28798   1.179   3.071   6.583  0.5040 -0.2798 -0.4351
  214MOL0     C28799   1.095   3.160   6.677  0.6865  0.8387  0.1636
  214MOL0    Cl28800   1.187   3.303   6.738  0.2751 -0.3463 -0.3664
  214MOL0     C28801   1.688   2.346   6.437  0.3778 -0.1362 -0.6638
  214MOL0     C28802   1.760   2.269   6.349 -0.4490  0.7440  0.3866
  214MOL0     O28803   1.929   2.055   6.244 -0.3233 -0.2028 -0.4262
  214MOL0     C28804   2.134   2.180   5.981 -0.5891 -0.7180 -0.2077
  214MOL0     C28805   2.206   2.147   5.856  0.0350  0.0038  0.7677
  214MOL0     N28806   2.762   2.034   5.351  0.1518  0.4836  0.0292
  214MOL0     N28807   2.783   1.934   5.277 -0.2910 -0.5776 -0.4390
  214MOL0     C28808   1.789   1.270   5.221  0.4852  0.4876 -0.9264
  214MOL0     C28809   1.651   1.231   5.268 -0.9201  0.0722  0.8163
  214MOL0     C28810   1.306   1.011   5.455  0.7953  0.2573  0.0442
  214MOL0     C28811   1.294   0.880   5.413 -0.9791  0.6015  0.3674
  214MOL0     C28812   1.172   0.809   5.441  0.5317  0.2495  0.3473
  214MOL0     C28813   1.061   0.870   5.495 -0.1708  1.1256 -0.6933
  214MOL0     O28814   0.934   0.812   5.517  1.0126  0.7986  0.7222
  214MOL0     C28815   0.901   0.705   5.425 -1.0492  0.7146  0.3932
  214MOL0     C28816   0.753   0.723   5.403  0.2688  0.3252 -0.8955
  214MOL0     C28817   0.670   0.625   5.495 -0.0137  0.6591  1.0652
  214MOL0     C28818   0.545   0.572   5.434 -0.2375 -0.4576  0.1265
  214MOL0     C28819   0.452   0.680   5.388 -1.7353 -0.1589  0.0094
  214MOL0     C28820   0.362   0.755   5.353 -0.4271 -1.0201  0.4706
  214MOL0     C28821   1.086   0.994   5.552 -0.0043  0.1926 -0.2235
  214MOL0     C28822   1.198   1.073   5.529  0.4684  0.5261  0.4977
  214MOL0     H28823   1.681   0.896   5.222 -1.2772 -0.0018  0.7818
  214MOL0     H28824   1.924   0.972   5.161  1.4938  0.9897  0.1775
  214MOL0     H28825   1.997   1.417   5.125 -1.1374  0.7473  1.5782
  214MOL0     H28826   2.006   1.372   5.292  1.9122 -1.2303  0.9322
  214MOL0     H28827   2.252   1.298   5.259 -1.4808 -1.1442 -0.7430
  214MOL0     H28828   2.226   1.308   5.083 -1.4511 -0.0290 -0.6423
  214MOL0     H28829   2.210   1.552   5.104 -1.6285 -1.3192 -0.0920
  214MOL0     H28830   2.182   1.539   5.281 -0.7023 -0.6480 -0.5707
  214MOL0     H28831   2.432   1.467   5.299 -3.9823 -2.0503  0.2223
  214MOL0     H28832   2.440   1.498   5.124  3.9851  5.0970  0.1617
  214MOL0     H28833   2.394   1.729   5.152  3.0064 -0.2391 -1.8600
  214MOL0     H28834   2.384   1.705   5.321 -0.5965  0.1563 -0.0293
  214MOL0     H28835   2.625   1.605   5.141 -2.2841 -0.0211 -1.0933
  214MOL0     H28836   2.605   1.778   5.211 -1.7051  0.7419  1.3574
  214MOL0     H28837   2.606   1.651   5.434 -0.1888  1.1601 -0.6488
  214MOL0     H28838   2.654   1.516   5.346 -1.2377  0.6789 -2.8153
  214MOL0     H28839   2.819   1.694   5.226 -2.7020  1.2379 -0.3232
  214MOL0     H28840   2.875   1.631   5.390  0.2580 -1.7330 -0.5752
  214MOL0     H28841   2.730   1.814   5.584 -3.0303 -1.4161 -1.2484
  214MOL0     H28842   2.739   2.053   5.695  2.9355 -3.2038 -1.9837
  214MOL0     H28843   2.782   2.191   5.597 -1.8738  1.7236  0.5125
  214MOL0     H28844   2.554   2.176   5.483  0.9498 -0.8632  0.0251
  214MOL0     H28845   2.559   2.244   5.643  0.9343  0.5825 -0.2375
  214MOL0     H28846   2.477   2.093   5.761  1.3669  1.2099  0.0493
  214MOL0     H28847   2.507   1.952   5.646  1.2926  0.1313 -0.4291
  214MOL0     H28848   2.339   2.005   5.504  0.0170 -0.4950  1.0288
  214MOL0     H28849   2.300   2.161   5.582 -0.3645  0.1689 -2.0086
  214MOL0     H28850   2.088   1.841   5.816  0.6007 -0.7807  2.0473
  214MOL0     H28851   1.941   1.836   6.136  2.9578  0.8716  0.7372
  214MOL0     H28852   1.823   1.904   6.023  0.6708 -0.7118 -0.6510
  214MOL0     H28853   1.918   1.774   5.965 -0.4677 -0.2954  1.2677
  214MOL0     H28854   1.946   2.536   6.234  2.5399 -1.2462  0.1276
  214MOL0     H28855   1.824   2.651   6.399 -1.0476  0.4803  1.4043
  214MOL0     H28856   1.485   2.459   6.634 -0.6462  0.5938  0.9831
  214MOL0     H28857   1.645   2.459   6.709  1.9913  2.4075  1.1161
  214MOL0     H28858   1.496   2.612   6.843 -1.3745  0.4185  0.1351
  214MOL0     H28859   1.627   2.703   6.773  1.1314 -1.0791 -1.1898
  214MOL0     H28860   1.341   2.688   6.654 -0.4985 -1.9613  2.9127
  214MOL0     H28861   1.475   2.799   6.614 -0.2399 -3.0097 -1.9295
  214MOL0     H28862   1.336   2.772   6.893  0.1575  1.8830  1.7974
  214MOL0     H28863   1.457   2.889   6.856  1.0872 -2.7645  0.9654
  214MOL0     H28864   1.247   2.999   6.856 -1.3477 -1.2451  1.0261
  214MOL0     H28865   1.179   2.876   6.766  0.5271  0.4269  1.2685
  214MOL0     H28866   1.364   3.114   6.662  0.1526 -0.3167 -0.2230
  214MOL0     H28867   1.358   2.976   6.566  1.3411 -0.3423  2.0064
  214MOL0     H28868   1.110   2.993   6.549 -0.4192 -1.2137  3.1542
  214MOL0     H28869   1.210   3.127   6.495 -0.2396 -2.0127 -1.8503
  214MOL0     H28870   1.061   3.099   6.761  2.3715  1.0134  1.0167
  214MOL0     H28871   1.010   3.194   6.618  1.0477  2.3356  0.4587
  214MOL0     H28872   1.607   2.292   6.485  1.3628  2.0423  3.9851
  214MOL0     H28873   1.737   2.167   6.322 -0.2427 -0.1389  3.1804
  214MOL0     H28874   2.142   2.274   6.034 -1.0187 -0.1140 -1.1825
  214MOL0     H28875   2.268   2.228   5.817  1.6583 -0.7614  1.6394
  214MOL0     H28876   1.820   1.374   5.213  2.9296 -0.2458 -2.0134
  214MOL0     H28877   1.576   1.302   5.303 -4.8224 -0.4368 -5.1017
  214MOL0     H28878   1.377   0.835   5.359 -0.2499  2.1295  0.1508
  214MOL0     H28879   1.171   0.709   5.399 -1.8445  0.5753 -0.5168
  214MOL0     H28880   0.935   0.724   5.322 -2.0279  2.7029  0.3819
  214MOL0     H28881   0.934   0.610   5.467  0.9124  1.8947  1.7173
  214MOL0     H28882   0.725   0.716   5.298 -0.3231 -0.0053 -0.7209
  214MOL0     H28883   0.728   0.822   5.445  2.1754  0.0039  1.2042
  214MOL0     H28884   0.640   0.678   5.586  0.6923 -0.3752  1.9305
  214MOL0     H28885   0.733   0.537   5.516  0.0969  0.3110 -0.5679
  214MOL0     H28886   0.499   0.510   5.511 -1.4931  1.9823  1.4595
  214MOL0     H28887   0.579   0.507   5.353  2.6405  2.0995 -0.9065
  214MOL0     H28888   0.275   0.814   5.337 -1.6080 -1.7132  3.5723
  214MOL0     H28889   1.010   1.042   5.613 -0.7216 -0.2560 -0.7486
  214MOL0     H28890   1.218   1.175   5.559 -0.7853  0.4283  1.8082
  215MOL0     O28891  10.869  10.977   2.848 -0.4620 -0.4180 -0.0168
  215MOL0     C28892  10.909  11.015   2.962 -0.0853 -0.8009  0.4507
  215MOL0     O28893  10.837  11.064   3.062 -0.6239 -1.0545  0.0399
  215MOL0     C28894  10.701  11.040   3.071 -0.4834  1.2593 -0.5055
  215MOL0     C28895  10.639  11.112   3.175  0.2336  0.5689  0.5739
  215MOL0     C28896  10.504  11.098   3.199  0.1507 -0.3440  0.5446
  215MOL0     C28897  10.424  11.010   3.134 -0.1914  0.5580  1.6268
  215MOL0     O28898  10.281  10.999   3.156  0.3254 -0.1071 -0.1217
  215MOL0     C28899  10.220  11.123   3.184 -0.2782 -0.1195  0.1079
  215MOL0     C28900  10.068  11.118   3.173 -0.2434 -0.0189 -0.0238
  215MOL0     C28901  10.016  11.011   3.271 -0.6943  0.5653 -0.8906
  215MOL0     C28902   9.919  11.065   3.368 -0.3097  0.6927 -0.7213
  215MOL0     C28903   9.891  10.957   3.470 -0.8620 -0.2658  0.0143
  215MOL0     C28904   9.754  10.982   3.549 -0.6254  0.1169 -1.0881
  215MOL0     C28905   9.732  11.120   3.601  0.0975 -1.0074 -0.2028
  215MOL0     C28906   9.842  11.181   3.682  0.7006  0.6921 -0.4390
  215MOL0     N28907   9.800  11.322   3.712  0.0457 -0.0101 -1.0924
  215MOL0     C28908   9.896  11.424   3.700  0.4184 -0.1602  0.0595
  215MOL0     C28909   9.837  11.529   3.755  0.3549 -0.0536 -0.8647
  215MOL0     C28910   9.897  11.663   3.783 -0.3742  0.3646  0.5102
  215MOL0     C28911   9.880  11.733   3.647 -0.6390 -0.2249 -0.4058
  215MOL0     C28912   9.893  11.889   3.656  0.2603  0.6050 -0.5895
  215MOL0     C28913   9.822  11.956   3.547 -0.7782  0.1927  0.2278
  215MOL0     O28914   9.875  11.942   3.413  0.4445 -0.2921 -0.6048
  215MOL0     C28915   9.824  12.031   3.320  0.0841  0.2819  0.2037
  215MOL0     C28916   9.697  12.074   3.337 -0.7508 -0.7687 -0.0595
  215MOL0     C28917   9.631  12.148   3.233 -0.3477  0.7948 -0.2282
  215MOL0     C28918   9.479  12.154   3.255 -0.2070  0.0898 -0.3005
  215MOL0     C28919   9.710  12.213   3.131 -0.8336 -0.5926 -0.3811
  215MOL0     C28920   9.661  12.318   3.046  0.1462 -0.3303  0.3048
  215MOL0     O28921   9.732  12.345   2.933  0.1570 -0.2865 -0.3641
  215MOL0     C28922   9.668  12.333   2.815  0.2086  0.7788 -0.9573
  215MOL0     C28923   9.716  12.426   2.713  0.2936  0.8538 -0.7008
  215MOL0     C28924   9.666  12.418   2.582  0.6230  0.1080  0.7579
  215MOL0     C28925   9.565  12.330   2.553 -0.0012 -0.0798 -0.4600
  215MOL0     O28926   9.514  12.330   2.426  0.0184  1.5174  0.0723
  215MOL0     C28927   9.482  12.453   2.352  0.3850 -0.2014 -0.3502
  215MOL0     C28928   9.436  12.415   2.216 -0.6091 -1.1024 -0.1935
  215MOL0     C28929   9.307  12.339   2.206 -0.3795  0.3801  0.2873
  215MOL0     C28930   9.254  12.335   2.060  0.3928 -1.1397  0.0352
  215MOL0     C28931   9.329  12.228   1.980  0.4507 -0.2806  0.4218
  215MOL0     C28932   9.296  12.221   1.827  0.5277  0.5699  0.2044
  215MOL0     C28933   9.146  12.210   1.806  0.4161  1.4165  0.7509
  215MOL0     C28934   9.090  12.068   1.822  0.1075  0.4650  0.3899
  215MOL0    Cl28935   8.929  12.068   1.756 -0.2003 -0.0846 -0.1424
  215MOL0     C28936   9.504  12.252   2.647  0.0496 -0.4799 -0.3142
  215MOL0     C28937   9.560  12.259   2.779 -0.2812 -0.1699 -0.4473
  215MOL0     O28938   9.556  12.366   3.079  0.7690 -0.0370 -0.7580
  215MOL0     C28939   9.844  12.164   3.119  0.8092 -0.1277  1.2079
  215MOL0     C28940   9.900  12.078   3.212 -0.1399 -0.6687 -0.7933
  215MOL0     N28941   9.713  11.503   3.809  0.1277  0.7338  0.3388
  215MOL0     N28942   9.688  11.377   3.776 -0.4034  0.0506 -0.5006
  215MOL0     C28943  10.482  10.930   3.033  0.9255 -0.4232 -0.7723
  215MOL0     C28944  10.614  10.944   3.007 -0.9472 -0.3245  0.1171
  215MOL0     C28945  11.053  11.046   2.974 -0.3702 -0.1923  0.2015
  215MOL0     C28946  11.111  11.087   3.096  0.2010 -0.0060  0.7772
  215MOL0     C28947  11.250  11.096   3.112  0.4431  0.1232  0.0639
  215MOL0     C28948  11.343  11.072   3.008 -0.5241  0.8318  0.4157
  215MOL0     O28949  11.480  11.082   3.031 -0.6389  0.3368 -0.4381
  215MOL0     C28950  11.563  11.100   2.909 -0.5758 -0.4687 -0.1940
  215MOL0     C28951  11.673  11.194   2.951 -0.6052 -0.3184  0.3384
  215MOL0     C28952  11.752  11.252   2.833 -0.4592  0.5345 -0.8437
  215MOL0     C28953  11.676  11.362   2.758 -0.4937 -0.5207 -0.5347
  215MOL0     C28954  11.705  11.367   2.611  0.8566 -0.5156  0.3736
  215MOL0     C28955  11.713  11.388   2.492 -0.2348  0.5972  0.6274
  215MOL0     C28956  11.286  11.028   2.885 -0.1180  0.0640 -1.0516
  215MOL0     C28957  11.147  11.007   2.874 -0.8710  0.1424  0.7115
  215MOL0     H28958  10.695  11.186   3.232  1.6058 -0.0019  0.0229
  215MOL0     H28959  10.453  11.141   3.285 -1.1807 -3.2267  1.3265
  215MOL0     H28960  10.250  11.163   3.281  1.3064 -1.6333  0.2847
  215MOL0     H28961  10.256  11.201   3.116 -1.9625  1.0728  0.5047
  215MOL0     H28962  10.032  11.218   3.200 -0.7047 -0.3911  0.8013
  215MOL0     H28963  10.044  11.085   3.071 -0.3645 -0.6223  0.1953
  215MOL0     H28964   9.965  10.935   3.211  0.0084  1.4223 -2.6288
  215MOL0     H28965  10.100  10.959   3.318  1.4866  0.9883 -4.0483
  215MOL0     H28966   9.953  11.157   3.415 -0.9947 -0.1190  1.4662
  215MOL0     H28967   9.825  11.081   3.314 -0.3438 -1.2259 -1.3099
  215MOL0     H28968   9.882  10.857   3.428 -0.9299 -0.0798 -0.4186
  215MOL0     H28969   9.972  10.948   3.544 -0.0142  2.6867 -0.3926
  215MOL0     H28970   9.677  10.952   3.478 -2.1646  2.4704 -0.5326
  215MOL0     H28971   9.749  10.919   3.638  0.5728  2.2293  0.5953
  215MOL0     H28972   9.718  11.178   3.510 -1.5570  0.6126  1.0172
  215MOL0     H28973   9.638  11.133   3.656  0.0207  2.4735 -0.9270
  215MOL0     H28974   9.940  11.183   3.632  1.7104  0.2917  1.4346
  215MOL0     H28975   9.843  11.128   3.778  2.3544 -0.6161 -1.1268
  215MOL0     H28976   9.999  11.421   3.666  0.1074  1.9319 -1.2463
  215MOL0     H28977   9.844  11.717   3.861  0.7959  1.7938  0.3531
  215MOL0     H28978  10.004  11.664   3.807 -0.2785  2.8808  0.2201
  215MOL0     H28979   9.780  11.711   3.609 -1.6527 -0.0121  1.9747
  215MOL0     H28980   9.965  11.705   3.585  1.6833  1.1361  1.9375
  215MOL0     H28981  10.002  11.892   3.661  0.3679 -2.6037  2.1738
  215MOL0     H28982   9.848  11.929   3.747  1.4143  0.0014  0.2601
  215MOL0     H28983   9.814  12.063   3.569 -3.1274  0.2167 -0.4682
  215MOL0     H28984   9.723  11.910   3.546 -0.4809 -0.4433  0.0025
  215MOL0     H28985   9.633  12.039   3.419  1.4757  1.2951  2.7552
  215MOL0     H28986   9.457  12.260   3.274  2.4128  0.4408  1.3130
  215MOL0     H28987   9.418  12.123   3.170  0.2978 -1.7334 -0.0324
  215MOL0     H28988   9.442  12.113   3.350 -0.5287 -2.0624 -1.3142
  215MOL0     H28989   9.801  12.494   2.724 -0.3425  1.9452 -2.2459
  215MOL0     H28990   9.705  12.486   2.506 -1.4719 -1.1434 -1.5879
  215MOL0     H28991   9.400  12.504   2.405  1.4659 -0.6255  1.8785
  215MOL0     H28992   9.568  12.520   2.344  0.0059  0.1330 -2.0218
  215MOL0     H28993   9.411  12.509   2.165  1.2394 -0.5578 -0.1684
  215MOL0     H28994   9.511  12.358   2.161 -0.0300 -0.8440  0.3204
  215MOL0     H28995   9.236  12.397   2.267  2.5789  2.9664  1.5309
  215MOL0     H28996   9.317  12.241   2.253 -0.5988 -0.5565 -1.5089
  215MOL0     H28997   9.147  12.314   2.059  0.3521 -1.1849  1.9497
  215MOL0     H28998   9.266  12.438   2.026 -0.6088 -0.5821  1.2964
  215MOL0     H28999   9.309  12.135   2.034  1.9408  0.0432  1.6145
  215MOL0     H29000   9.437  12.243   1.986  1.6381 -4.9859 -3.3794
  215MOL0     H29001   9.326  12.320   1.791 -2.2414  2.2198  2.0898
  215MOL0     H29002   9.357  12.143   1.780  0.9579 -1.1433  3.3637
  215MOL0     H29003   9.132  12.233   1.700 -0.2521 -1.5718  0.0863
  215MOL0     H29004   9.094  12.293   1.854 -1.2610  0.0542  1.3939
  215MOL0     H29005   9.091  12.034   1.926 -3.6877  1.0427  0.7880
  215MOL0     H29006   9.149  12.003   1.758 -1.7321  0.8064 -1.7801
  215MOL0     H29007   9.415  12.193   2.629 -0.2177 -1.0552  2.3914
  215MOL0     H29008   9.512  12.188   2.846 -1.4796 -0.5743 -1.6822
  215MOL0     H29009   9.901  12.183   3.029  0.2697 -2.5700  0.2646
  215MOL0     H29010  10.004  12.049   3.204  1.1879  3.4211 -0.6028
  215MOL0     H29011  10.430  10.857   2.971  0.0760  0.3835 -1.0337
  215MOL0     H29012  10.663  10.893   2.924  0.9535  2.1834 -0.3960
  215MOL0     H29013  11.050  11.105   3.184  1.1067  0.4026  1.3435
  215MOL0     H29014  11.291  11.144   3.200 -1.2165 -1.9485  2.0637
  215MOL0     H29015  11.607  11.005   2.879 -2.2440 -0.6216 -2.5079
  215MOL0     H29016  11.505  11.151   2.831 -2.2915 -1.1770  0.5775
  215MOL0     H29017  11.737  11.147   3.026  0.0698 -1.7635 -1.0932
  215MOL0     H29018  11.629  11.283   2.998 -1.8439  0.4594 -2.0870
  215MOL0     H29019  11.765  11.177   2.754  0.3878 -0.4106  0.1668
  215MOL0     H29020  11.852  11.285   2.861 -0.5589 -0.2428  0.5075
  215MOL0     H29021  11.703  11.460   2.800 -0.4244  0.4932 -2.7732
  215MOL0     H29022  11.568  11.364   2.774 -0.5802  4.3721 -0.1310
  215MOL0     H29023  11.716  11.406   2.386 -1.5442  3.1903  0.9432
  215MOL0     H29024  11.351  11.004   2.801  0.4144 -0.8531 -0.3904
  215MOL0     H29025  11.104  10.961   2.785 -0.5252  0.8398  0.1704
  216MOL0     O29026  10.922   5.964   5.408  0.1248 -0.0728 -0.4051
  216MOL0     C29027  10.941   5.845   5.433 -0.4392 -0.7787  0.0778
  216MOL0     O29028  10.861   5.769   5.514  0.5634 -0.2698  0.1173
  216MOL0     C29029  10.755   5.828   5.580  0.0235  0.7846 -0.4830
  216MOL0     C29030  10.660   5.736   5.600 -0.1975  0.9982 -0.0905
  216MOL0     C29031  10.545   5.763   5.667  0.0346  0.0659  0.3182
  216MOL0     C29032  10.537   5.889   5.727  0.0729 -0.6678  0.2736
  216MOL0     O29033  10.411   5.916   5.783  0.1229  0.0264 -0.4477
  216MOL0     C29034  10.379   6.042   5.853 -0.7773 -0.0006  0.1692
  216MOL0     C29035  10.247   6.025   5.936  0.4786  0.7016  0.3197
  216MOL0     C29036  10.209   6.148   6.009 -0.7251  0.2222 -0.0381
  216MOL0     C29037  10.089   6.110   6.100 -0.1564 -0.1576  0.3067
  216MOL0     C29038  10.017   6.245   6.134  0.3620  0.4268 -0.4694
  216MOL0     C29039   9.889   6.206   6.219 -0.1376 -0.3290 -0.2737
  216MOL0     C29040   9.803   6.327   6.267  0.8804 -0.0828 -0.3395
  216MOL0     C29041   9.745   6.420   6.156 -0.0541  0.4540 -0.6131
  216MOL0     N29042   9.615   6.494   6.186 -0.5958  0.6292 -0.1836
  216MOL0     C29043   9.607   6.611   6.262  0.4709  1.2253 -0.9754
  216MOL0     C29044   9.467   6.631   6.277  0.4666  0.0005 -0.7164
  216MOL0     C29045   9.401   6.742   6.356 -0.1204 -0.8467 -0.6528
  216MOL0     C29046   9.469   6.876   6.309  0.0277 -0.7145 -0.8179
  216MOL0     C29047   9.406   6.992   6.396  0.6545 -0.6296  0.8586
  216MOL0     C29048   9.432   6.983   6.548 -0.1519 -0.0362  0.1066
  216MOL0     O29049   9.407   7.110   6.616  0.2461 -0.0634  0.2428
  216MOL0     C29050   9.430   7.115   6.748  0.6621 -0.7327 -0.4017
  216MOL0     C29051   9.485   7.017   6.829  0.2237  0.0699 -1.1558
  216MOL0     C29052   9.521   7.041   6.964  0.2605 -0.2373  0.8691
  216MOL0     C29053   9.586   6.924   7.031  0.2024 -0.2378 -0.6938
  216MOL0     C29054   9.490   7.165   7.022  0.6768  0.4620 -0.3648
  216MOL0     C29055   9.529   7.209   7.160  0.7738 -0.0034 -0.2630
  216MOL0     O29056   9.526   7.102   7.248 -0.4411  1.0084  0.2057
  216MOL0     C29057   9.570   7.105   7.382  0.4515  0.1556  1.2538
  216MOL0     C29058   9.688   7.168   7.416 -0.9588  0.1711 -0.4709
  216MOL0     C29059   9.737   7.158   7.552 -0.1574 -0.6445  0.2654
  216MOL0     C29060   9.671   7.084   7.643  0.9136  0.2155 -0.9630
  216MOL0     O29061   9.735   7.067   7.762  0.1524 -0.0142  0.6573
  216MOL0     C29062   9.876   7.028   7.757  0.4091 -0.8106  0.7298
  216MOL0     C29063   9.914   6.965   7.891 -0.3058  0.2246  0.7930
  216MOL0     C29064   9.825   6.840   7.915 -0.5566  0.3798 -0.7093
  216MOL0     C29065   9.894   6.746   8.006  0.6012  0.4246  0.1884
  216MOL0     C29066   9.808   6.659   8.101  0.3268 -0.4123 -0.4361
  216MOL0     C29067   9.727   6.545   8.030 -0.1144 -0.6527  0.5284
  216MOL0     C29068   9.818   6.441   7.948  0.5176  0.9718 -0.1996
  216MOL0     C29069   9.745   6.307   7.943  0.1218 -0.5895  0.2119
  216MOL0    Cl29070   9.632   6.335   7.802 -0.0975 -0.4523 -0.1652
  216MOL0     C29071   9.550   7.029   7.606 -0.7430 -0.3797  0.0923
  216MOL0     C29072   9.503   7.026   7.476  0.3292  0.4966  0.2916
  216MOL0     O29073   9.558   7.327   7.195 -0.1771 -0.0290 -0.4131
  216MOL0     C29074   9.430   7.263   6.948 -0.1669 -0.3626  0.0920
  216MOL0     C29075   9.394   7.231   6.814  0.8108 -0.7238 -0.6597
  216MOL0     N29076   9.406   6.526   6.206  0.3130  0.2999  0.2656
  216MOL0     N29077   9.492   6.451   6.155  0.2724  0.1728  0.1467
  216MOL0     C29078  10.640   5.987   5.728  0.0612  0.1731 -0.1587
  216MOL0     C29079  10.746   5.952   5.651 -0.3364  0.1937 -0.2933
  216MOL0     C29080  11.063   5.784   5.366 -0.5935 -0.5809  0.1116
  216MOL0     C29081  11.110   5.662   5.407  0.2585 -0.3879 -1.4499
  216MOL0     C29082  11.226   5.603   5.352  0.0268 -0.1577 -1.3507
  216MOL0     C29083  11.280   5.658   5.232  0.8577 -0.5211 -0.2586
  216MOL0     O29084  11.381   5.591   5.174 -0.4889  0.1625 -0.1318
  216MOL0     C29085  11.411   5.604   5.039  0.3866  0.2552  0.2746
  216MOL0     C29086  11.547   5.546   4.997 -0.1914 -0.2297 -1.3566
  216MOL0     C29087  11.592   5.604   4.871  0.7228 -0.4596  0.4249
  216MOL0     C29088  11.729   5.578   4.814 -0.0559 -0.3507  0.1052
  216MOL0     C29089  11.738   5.638   4.674 -0.4013 -0.1622  0.9116
  216MOL0     C29090  11.740   5.693   4.566  0.2309  0.2910  0.2392
  216MOL0     C29091  11.222   5.778   5.183 -0.3487  0.7058  0.8916
  216MOL0     C29092  11.120   5.842   5.259  0.5669  0.3533  0.5479
  216MOL0     H29093  10.678   5.640   5.553  0.4815  1.9989 -1.9539
  216MOL0     H29094  10.457   5.701   5.674 -1.2503  2.0046  2.4379
  216MOL0     H29095  10.464   6.065   5.919 -2.4646  1.3102  1.9852
  216MOL0     H29096  10.369   6.129   5.788  0.8635  0.7324  0.8292
  216MOL0     H29097  10.166   5.989   5.873  1.4722 -1.0103 -0.0534
  216MOL0     H29098  10.276   5.947   6.008  2.2739  1.5093  0.5305
  216MOL0     H29099  10.286   6.191   6.074  0.7098 -0.2034 -1.3909
  216MOL0     H29100  10.179   6.227   5.939  2.2159  2.3149  0.8765
  216MOL0     H29101  10.022   6.050   6.038 -3.0916  1.1643  1.9328
  216MOL0     H29102  10.130   6.062   6.190  3.9798 -5.0267 -3.6141
  216MOL0     H29103  10.083   6.303   6.199  1.0165 -3.9322  3.2635
  216MOL0     H29104  10.003   6.298   6.040 -1.9090 -1.5227 -1.3395
  216MOL0     H29105   9.826   6.139   6.160 -2.2428 -1.7755  3.2718
  216MOL0     H29106   9.911   6.144   6.307  0.9702  0.4507  0.0300
  216MOL0     H29107   9.719   6.284   6.324 -0.8710  1.8746 -1.3063
  216MOL0     H29108   9.861   6.387   6.338  2.0318 -1.7739  0.2202
  216MOL0     H29109   9.717   6.346   6.080 -2.7378 -2.0851  2.5336
  216MOL0     H29110   9.824   6.491   6.129 -0.5347  0.7440 -1.2872
  216MOL0     H29111   9.693   6.666   6.299  0.2747  1.0618 -0.2641
  216MOL0     H29112   9.295   6.752   6.331  0.1375  3.2374 -0.7812
  216MOL0     H29113   9.418   6.734   6.463  0.2872  0.9436 -0.5441
  216MOL0     H29114   9.461   6.899   6.203  0.6859  3.5835 -0.1313
  216MOL0     H29115   9.577   6.875   6.330  0.4938  2.9646 -2.4232
  216MOL0     H29116   9.298   6.998   6.375  1.0314  0.5059 -1.0511
  216MOL0     H29117   9.444   7.083   6.348 -1.5756 -0.6786 -1.2540
  216MOL0     H29118   9.538   6.961   6.561  0.2404  1.4366 -0.4435
  216MOL0     H29119   9.362   6.913   6.596 -0.3475  0.0025 -0.1224
  216MOL0     H29120   9.489   6.917   6.787 -0.0982  0.1004 -1.2605
  216MOL0     H29121   9.594   6.842   6.959 -0.4658  0.8430 -2.0317
  216MOL0     H29122   9.686   6.960   7.058 -0.2553 -0.8876  2.2521
  216MOL0     H29123   9.533   6.889   7.120  2.4095 -2.6818 -0.2126
  216MOL0     H29124   9.758   7.221   7.352  0.0997  1.6009  1.7636
  216MOL0     H29125   9.829   7.213   7.569  0.0333  0.1642 -2.7058
  216MOL0     H29126   9.893   6.964   7.670  0.4877 -1.7078  1.3944
  216MOL0     H29127   9.937   7.118   7.745 -1.1621  0.3742  1.3514
  216MOL0     H29128  10.022   6.947   7.889  0.2795  3.1772  1.2769
  216MOL0     H29129   9.898   7.045   7.964  0.1122  2.0887 -1.0616
  216MOL0     H29130   9.803   6.778   7.828 -2.2847  1.5779 -1.1816
  216MOL0     H29131   9.730   6.871   7.960 -0.7874  1.6817 -1.9858
  216MOL0     H29132   9.970   6.700   7.941  1.7999  0.2505  1.6526
  216MOL0     H29133   9.955   6.812   8.068 -0.0150  2.2274 -1.0347
  216MOL0     H29134   9.737   6.714   8.164 -1.3685 -3.7217  0.7875
  216MOL0     H29135   9.877   6.612   8.172  1.8131  0.1048 -1.4910
  216MOL0     H29136   9.676   6.495   8.113 -0.2027  2.7203  2.7248
  216MOL0     H29137   9.653   6.582   7.959 -0.6547  0.6256  1.7076
  216MOL0     H29138   9.908   6.429   8.009  2.1672  1.1944 -2.4626
  216MOL0     H29139   9.842   6.467   7.844 -2.9781 -3.3238 -2.4240
  216MOL0     H29140   9.693   6.297   8.039 -0.2324 -3.6951 -0.2183
  216MOL0     H29141   9.814   6.223   7.934  1.7755  0.7623 -0.4791
  216MOL0     H29142   9.497   6.966   7.676 -2.2137 -0.2891 -0.8962
  216MOL0     H29143   9.420   6.965   7.441 -0.4347 -0.5926  3.5858
  216MOL0     H29144   9.404   7.351   7.005  0.8896 -1.6542  2.7649
  216MOL0     H29145   9.335   7.307   6.764 -1.0790 -0.7876  1.3057
  216MOL0     H29146  10.630   6.083   5.778 -3.0554  0.8284 -1.8195
  216MOL0     H29147  10.831   6.020   5.646 -0.5892  0.4525 -1.5090
  216MOL0     H29148  11.061   5.610   5.489 -1.7627 -0.5232 -2.6701
  216MOL0     H29149  11.257   5.510   5.398  2.0885  0.5855 -1.1416
  216MOL0     H29150  11.321   5.568   4.987  3.7509 -1.9286 -4.9333
  216MOL0     H29151  11.425   5.709   5.014  1.4528  1.0906  3.8671
  216MOL0     H29152  11.525   5.439   4.993 -3.5353 -0.0368  3.4086
  216MOL0     H29153  11.623   5.561   5.074 -0.4239  0.7145 -1.3042
  216MOL0     H29154  11.585   5.711   4.890 -0.9254 -0.3546 -0.5701
  216MOL0     H29155  11.522   5.568   4.796 -0.4682  4.4540 -1.1797
  216MOL0     H29156  11.748   5.470   4.810  0.9122 -0.2817  1.9122
  216MOL0     H29157  11.807   5.623   4.875  0.2644  2.7758 -2.3468
  216MOL0     H29158  11.747   5.746   4.473 -1.6418  1.1836  0.5614
  216MOL0     H29159  11.266   5.814   5.090  0.6251 -1.7218  0.3319
  216MOL0     H29160  11.071   5.929   5.214  1.5681  0.6293 -0.0444
  217MOL0     O29161  10.827   1.552  10.886  0.6128  0.0884  0.3050
  217MOL0     C29162  10.768   1.655  10.847  1.0020 -0.1456  0.3988
  217MOL0     O29163  10.644   1.693  10.893 -0.2142  0.0295  0.8052
  217MOL0     C29164  10.589   1.610  10.984 -0.4016  0.4001 -0.2012
  217MOL0     C29165  10.610   1.620  11.127  0.2605 -0.8009  0.3762
  217MOL0     C29166  10.544   1.530  11.207  0.4502 -0.4963 -0.1867
  217MOL0     C29167  10.469   1.425  11.157 -0.5141  0.4084  0.0002
  217MOL0     O29168  10.415   1.323  11.231  0.2356  0.0189  0.7160
  217MOL0     C29169  10.494   1.287  11.349 -0.2968  0.0008  0.0250
  217MOL0     C29170  10.444   1.149  11.385 -0.0034  0.3679  0.8796
  217MOL0     C29171  10.500   1.041  11.289 -0.2498 -1.0453 -0.8607
  217MOL0     C29172  10.641   1.004  11.336  0.0366  0.3486  0.2747
  217MOL0     C29173  10.716   0.910  11.247  0.1973  0.1603 -0.3802
  217MOL0     C29174  10.711   0.952  11.091  0.1929 -0.3997 -1.3116
  217MOL0     C29175  10.739   1.103  11.062  0.4201 -0.1011 -0.2105
  217MOL0     C29176  10.736   1.133  10.910 -1.3955 -0.2214  0.2460
  217MOL0     N29177  10.874   1.142  10.850  0.4876  0.1730 -0.8171
  217MOL0     C29178  10.968   1.241  10.873  0.3784  0.5093 -0.3472
  217MOL0     C29179  11.078   1.196  10.800  0.9651 -0.2102  0.6692
  217MOL0     C29180  11.213   1.250  10.804 -0.4435 -0.2147 -0.1278
  217MOL0     C29181  11.217   1.396  10.770  0.1586 -0.2546  0.6563
  217MOL0     C29182  11.271   1.441  10.629 -0.3735  0.7141 -0.0201
  217MOL0     C29183  11.208   1.358  10.518 -0.3415 -0.0694  1.3192
  217MOL0     O29184  11.123   1.440  10.428 -0.0369 -0.6624 -0.4733
  217MOL0     C29185  10.989   1.453  10.457  0.1806  0.4557  1.3512
  217MOL0     C29186  10.900   1.553  10.394  0.0686 -0.0316  0.9920
  217MOL0     C29187  10.760   1.547  10.413  0.2886  0.5331 -0.2559
  217MOL0     C29188  10.681   1.664  10.354  0.3315 -0.1614 -0.3921
  217MOL0     C29189  10.702   1.451  10.498  0.5929  1.8574 -0.2277
  217MOL0     C29190  10.553   1.455  10.544  0.3821 -0.7482  0.1842
  217MOL0     O29191  10.511   1.346  10.610  0.2310  0.2705 -0.1890
  217MOL0     C29192  10.380   1.309  10.647 -0.6467  0.6877  0.9611
  217MOL0     C29193  10.263   1.369  10.605 -0.2614 -0.5671  0.4760
  217MOL0     C29194  10.136   1.316  10.646  0.3836  0.1345  0.2023
  217MOL0     C29195  10.140   1.189  10.722  0.0881  0.0345  0.4500
  217MOL0     O29196  10.030   1.131  10.780  0.4730  0.6863  0.2314
  217MOL0     C29197   9.898   1.184  10.765  0.0841  0.6632  0.5809
  217MOL0     C29198   9.825   1.140  10.637 -1.0288 -0.5554 -0.0145
  217MOL0     C29199   9.826   1.228  10.508 -0.5557 -0.3619  0.3351
  217MOL0     C29200   9.719   1.180  10.417  0.3370 -0.4095  0.0156
  217MOL0     C29201   9.698   1.276  10.299 -0.3602 -0.3779  0.0550
  217MOL0     C29202   9.815   1.267  10.199  0.7101 -0.9091  0.4158
  217MOL0     C29203   9.807   1.389  10.105 -1.0250 -0.2252 -0.1609
  217MOL0     C29204   9.780   1.526  10.161 -0.1694 -0.5112 -1.0314
  217MOL0    Cl29205   9.858   1.657  10.065 -0.3867 -0.2468 -0.3866
  217MOL0     C29206  10.258   1.127  10.754 -0.2367 -0.0244  1.2572
  217MOL0     C29207  10.373   1.198  10.729 -0.4142 -0.8881  0.1982
  217MOL0     O29208  10.481   1.554  10.521 -0.6090 -0.0524  0.4872
  217MOL0     C29209  10.778   1.346  10.551  0.3812 -0.2771  0.4102
  217MOL0     C29210  10.917   1.350  10.515  0.1795  0.0721  0.4639
  217MOL0     N29211  11.048   1.080  10.741  0.2723  0.6794  0.2498
  217MOL0     N29212  10.919   1.052  10.757  0.3205  0.1420 -0.5344
  217MOL0     C29213  10.452   1.424  11.024  0.9717 -0.5034  0.5905
  217MOL0     C29214  10.510   1.512  10.935  0.7806  0.0458 -0.0505
  217MOL0     C29215  10.833   1.738  10.745 -0.3621  0.1970 -0.0123
  217MOL0     C29216  10.963   1.712  10.708  0.8482 -0.8909 -0.4568
  217MOL0     C29217  11.026   1.787  10.612 -0.1129  0.3215 -0.3645
  217MOL0     C29218  10.951   1.887  10.539  0.5997  0.4338 -0.7779
  217MOL0     O29219  10.993   1.947  10.422 -0.1320  0.1686  0.3258
  217MOL0     C29220  11.122   1.907  10.372  0.8377 -0.9112 -0.4818
  217MOL0     C29221  11.131   1.993  10.257 -0.1598 -0.1261  0.6224
  217MOL0     C29222  11.273   1.981  10.195 -0.1624  0.1736  0.2348
  217MOL0     C29223  11.313   2.096  10.103 -0.1610 -1.1448  0.6545
  217MOL0     C29224  11.450   2.076  10.053  0.2782  0.2137  0.2497
  217MOL0     C29225  11.555   2.073   9.995 -0.4071  0.0105  0.5420
  217MOL0     C29226  10.821   1.913  10.574 -1.0540 -0.1671  1.3233
  217MOL0     C29227  10.764   1.847  10.682  0.4078 -0.4405 -0.9821
  217MOL0     H29228  10.665   1.706  11.162 -0.0247 -0.6960  0.5741
  217MOL0     H29229  10.580   1.559  11.305 -1.1156  2.3652 -0.3442
  217MOL0     H29230  10.600   1.288  11.324 -0.9256 -0.0045 -3.0139
  217MOL0     H29231  10.470   1.349  11.436 -3.0078 -0.0844 -0.5682
  217MOL0     H29232  10.471   1.133  11.490  2.5877 -0.3584  0.1534
  217MOL0     H29233  10.336   1.146  11.368  0.3196 -0.5256 -1.2366
  217MOL0     H29234  10.431   0.956  11.294 -0.4075 -0.9298 -1.0463
  217MOL0     H29235  10.492   1.068  11.183  1.1471 -0.1623 -0.7600
  217MOL0     H29236  10.704   1.091  11.357  0.3101  0.8452 -2.2703
  217MOL0     H29237  10.622   0.956  11.433  1.9682 -4.4068 -1.3825
  217MOL0     H29238  10.819   0.901  11.281  0.4941  2.6022 -0.4532
  217MOL0     H29239  10.663   0.816  11.267 -4.6407  2.4592 -0.8446
  217MOL0     H29240  10.775   0.885  11.033 -1.0903 -0.9442 -2.1335
  217MOL0     H29241  10.607   0.928  11.065 -0.9712  1.7124  0.9609
  217MOL0     H29242  10.669   1.171  11.112  1.4433 -0.3614  1.6725
  217MOL0     H29243  10.831   1.122  11.117  0.1703  0.4454  0.0322
  217MOL0     H29244  10.668   1.218  10.896  0.0798  0.6066 -2.6509
  217MOL0     H29245  10.689   1.041  10.874  0.8804 -1.2463 -0.2267
  217MOL0     H29246  10.957   1.329  10.937  3.3955  0.3599  0.5381
  217MOL0     H29247  11.255   1.234  10.904 -1.0669  2.5040  0.6287
  217MOL0     H29248  11.285   1.190  10.747 -0.7152 -1.6703  1.0055
  217MOL0     H29249  11.267   1.446  10.853  0.3062 -0.9399  0.9858
  217MOL0     H29250  11.112   1.425  10.761  0.6941  1.2741 -1.7337
  217MOL0     H29251  11.380   1.452  10.638 -0.1338 -1.0745 -0.4953
  217MOL0     H29252  11.245   1.545  10.606 -1.5565  0.7748  1.4740
  217MOL0     H29253  11.175   1.260  10.553 -1.1996 -0.3954 -0.2763
  217MOL0     H29254  11.290   1.325  10.452 -1.9134 -0.2084 -0.6754
  217MOL0     H29255  10.937   1.621  10.318 -1.3001 -0.4029 -0.0549
  217MOL0     H29256  10.704   1.679  10.248 -0.1882 -2.4065 -0.8811
  217MOL0     H29257  10.574   1.647  10.339 -0.1574  0.3525  2.0445
  217MOL0     H29258  10.706   1.749  10.418 -1.0498 -0.2069  0.2271
  217MOL0     H29259  10.270   1.455  10.539 -1.3947  0.0273  1.1073
  217MOL0     H29260  10.040   1.357  10.617 -1.0461 -3.2221 -0.2470
  217MOL0     H29261   9.843   1.131  10.843 -0.9085  0.2447 -0.3736
  217MOL0     H29262   9.883   1.292  10.775 -1.6623  0.6732 -1.3506
  217MOL0     H29263   9.851   1.037  10.613 -0.6204 -0.9703  2.0140
  217MOL0     H29264   9.723   1.138  10.678 -0.2580  1.5123  2.2869
  217MOL0     H29265   9.920   1.242  10.454 -2.2754  3.1562 -2.2055
  217MOL0     H29266   9.805   1.333  10.532  1.1707  0.9044 -2.9793
  217MOL0     H29267   9.751   1.087  10.367  1.6330 -0.0184  0.0845
  217MOL0     H29268   9.627   1.164  10.473 -0.8536  1.1628 -1.4016
  217MOL0     H29269   9.676   1.378  10.332  0.0072  1.1380 -3.8651
  217MOL0     H29270   9.604   1.239  10.256 -1.5685  2.0713  0.3808
  217MOL0     H29271   9.908   1.264  10.256  0.7912  2.3657  0.6059
  217MOL0     H29272   9.812   1.175  10.139  0.0385  0.0699 -1.1194
  217MOL0     H29273   9.728   1.368  10.031 -0.7977  2.4043 -1.2880
  217MOL0     H29274   9.906   1.392  10.060 -0.3193 -1.3929  1.2619
  217MOL0     H29275   9.820   1.531  10.262 -0.5450 -1.9759 -0.7872
  217MOL0     H29276   9.675   1.554  10.176  0.4487  1.9016 -0.8300
  217MOL0     H29277  10.255   1.028  10.799  0.2180 -0.7692 -0.2738
  217MOL0     H29278  10.461   1.154  10.774  0.3725  1.3516  1.0159
  217MOL0     H29279  10.740   1.264  10.611  2.1202 -0.9930  0.6045
  217MOL0     H29280  10.984   1.271  10.547  0.8816  0.3436 -0.2809
  217MOL0     H29281  10.387   1.348  10.981  0.9904  1.4597 -3.4107
  217MOL0     H29282  10.503   1.501  10.827 -1.6663  0.1092  0.0369
  217MOL0     H29283  11.013   1.638  10.770 -0.2769  0.4145  2.1634
  217MOL0     H29284  11.130   1.772  10.584  1.2233  2.3922  2.9276
  217MOL0     H29285  11.201   1.920  10.448 -0.0373 -0.2013  0.3320
  217MOL0     H29286  11.128   1.805  10.335  3.9666 -0.8995 -0.2983
  217MOL0     H29287  11.125   2.098  10.286  1.7120 -0.6184  3.1137
  217MOL0     H29288  11.059   1.968  10.179 -0.2117 -0.9812  0.9392
  217MOL0     H29289  11.274   1.888  10.137 -4.7362 -0.4489  0.7914
  217MOL0     H29290  11.343   1.977  10.278 -1.2939  0.0047  1.2095
  217MOL0     H29291  11.314   2.192  10.155  2.6861  0.1041 -1.4320
  217MOL0     H29292  11.258   2.108  10.008  2.7831  1.1043 -0.9386
  217MOL0     H29293  11.647   2.082   9.941  1.9635 -0.7524  4.0741
  217MOL0     H29294  10.773   1.992  10.518  2.4664  0.0685 -1.6988
  217MOL0     H29295  10.663   1.878  10.707  0.8023  0.3638 -0.3483
  218MOL0     O29296   5.826   7.712  10.258 -0.1855  0.0935 -0.2161
  218MOL0     C29297   5.938   7.705  10.310 -0.8495 -0.4803 -0.1689
  218MOL0     O29298   5.994   7.599  10.374  0.3613 -0.4607 -0.3018
  218MOL0     C29299   5.926   7.485  10.366 -0.5817 -0.0454  0.0066
  218MOL0     C29300   5.969   7.387  10.275 -0.1630  0.0732 -1.2675
  218MOL0     C29301   5.906   7.260  10.253  0.5691 -0.5890 -0.0252
  218MOL0     C29302   5.790   7.235  10.333 -0.9175 -0.4987 -0.1884
  218MOL0     O29303   5.714   7.123  10.333 -0.3265  0.4056  0.6279
  218MOL0     C29304   5.657   7.091  10.203  0.0576 -0.4202 -0.0660
  218MOL0     C29305   5.527   7.009  10.234  0.2366 -0.3518 -0.9264
  218MOL0     C29306   5.467   6.965  10.104  0.5038  0.3211 -0.2083
  218MOL0     C29307   5.323   6.918  10.129 -1.0999 -0.5001 -0.6413
  218MOL0     C29308   5.250   6.854  10.009  0.4236 -0.1245 -0.3707
  218MOL0     C29309   5.134   6.761  10.053  0.2635 -0.3599  0.6825
  218MOL0     C29310   5.014   6.828  10.112 -0.4818 -0.1424 -0.5532
  218MOL0     C29311   4.940   6.896  10.002 -0.5334 -0.1678 -0.2660
  218MOL0     N29312   4.901   6.811   9.893  0.6516  0.2046  0.1420
  218MOL0     C29313   4.843   6.685   9.912 -0.1993 -0.0850  0.8208
  218MOL0     C29314   4.828   6.639   9.786  0.0425 -0.2242  0.0322
  218MOL0     C29315   4.769   6.497   9.745  0.5508 -0.1921 -0.7992
  218MOL0     C29316   4.617   6.494   9.720  0.4723 -0.3571 -0.4081
  218MOL0     C29317   4.588   6.389   9.616 -0.3283 -0.8483 -0.8609
  218MOL0     C29318   4.446   6.370   9.569  0.3054 -0.2438 -0.1234
  218MOL0     O29319   4.389   6.273   9.647 -0.2553  0.3007  0.4227
  218MOL0     C29320   4.258   6.286   9.658  0.4594  0.1131  0.2544
  218MOL0     C29321   4.199   6.375   9.741 -0.9298 -0.2102  0.3401
  218MOL0     C29322   4.064   6.402   9.726 -0.9006  0.7238  0.3197
  218MOL0     C29323   4.024   6.533   9.789  0.0347  0.2257  0.2232
  218MOL0     C29324   3.975   6.318   9.650  0.8598 -0.5853  0.1663
  218MOL0     C29325   3.826   6.322   9.656  0.2612  0.2698  0.7579
  218MOL0     O29326   3.778   6.400   9.758  0.3068  0.1951  0.3066
  218MOL0     C29327   3.644   6.406   9.802  1.2597  0.4967 -1.0077
  218MOL0     C29328   3.597   6.311   9.887 -1.1365 -0.9798 -0.7239
  218MOL0     C29329   3.466   6.307   9.927 -0.1337 -0.0584 -0.6087
  218MOL0     C29330   3.373   6.389   9.872  0.2781 -0.2887 -0.3273
  218MOL0     O29331   3.243   6.376   9.911  0.2257  0.1173 -0.2246
  218MOL0     C29332   3.141   6.446   9.835  0.3740 -0.3400 -0.4094
  218MOL0     C29333   3.006   6.389   9.863  0.5586 -0.0326  0.7400
  218MOL0     C29334   2.889   6.451   9.784  0.7499  0.2100 -0.0275
  218MOL0     C29335   2.756   6.413   9.844  0.0931  0.3817  0.1599
  218MOL0     C29336   2.642   6.487   9.781  0.1551 -1.2094  0.3478
  218MOL0     C29337   2.634   6.640   9.800  0.2107  0.1111  0.3894
  218MOL0     C29338   2.500   6.698   9.771  0.3824 -0.4461 -0.9527
  218MOL0     C29339   2.437   6.667   9.630 -0.2337 -0.7274 -0.0920
  218MOL0    Cl29340   2.255   6.708   9.632 -0.0880  0.7165  0.3581
  218MOL0     C29341   3.421   6.491   9.780 -0.1487  0.2653  0.8095
  218MOL0     C29342   3.557   6.496   9.755  0.3794 -0.3252 -0.5081
  218MOL0     O29343   3.759   6.263   9.572  0.1755  0.6872 -0.6610
  218MOL0     C29344   4.033   6.213   9.579 -0.4638 -0.0593 -0.4346
  218MOL0     C29345   4.172   6.211   9.572  0.0278  0.1592 -0.3390
  218MOL0     N29346   4.882   6.739   9.701  0.2593  0.4017  0.1051
  218MOL0     N29347   4.917   6.847   9.767 -0.7263 -0.4134 -0.2952
  218MOL0     C29348   5.740   7.339  10.413 -0.1014  0.1885  0.0647
  218MOL0     C29349   5.810   7.458  10.432 -0.3557 -0.8100  0.1006
  218MOL0     C29350   6.019   7.826  10.302 -0.7152  0.0732 -0.7973
  218MOL0     C29351   6.009   7.908  10.190  1.0303 -0.1134 -0.7908
  218MOL0     C29352   6.080   8.027  10.185  0.2471 -0.2149 -0.0697
  218MOL0     C29353   6.177   8.062  10.283  0.4517 -0.0917  0.8279
  218MOL0     O29354   6.252   8.174  10.254 -0.0382  0.5841  0.2057
  218MOL0     C29355   6.391   8.158  10.240 -1.1669  1.1114  0.7010
  218MOL0     C29356   6.451   8.286  10.169 -0.0969 -0.1321 -0.1014
  218MOL0     C29357   6.452   8.405  10.259 -0.0310  0.1591 -0.4818
  218MOL0     C29358   6.535   8.388  10.381 -0.4629  0.1053  0.1234
  218MOL0     C29359   6.455   8.340  10.494 -1.1116 -0.2782 -0.3852
  218MOL0     C29360   6.389   8.296  10.579 -0.8328  0.1443  0.5115
  218MOL0     C29361   6.189   7.985  10.397  0.8252  0.6325  0.4876
  218MOL0     C29362   6.107   7.867  10.406 -0.2750  0.0712 -0.2385
  218MOL0     H29363   6.062   7.396  10.220  2.4974  2.8463  3.0297
  218MOL0     H29364   5.954   7.188  10.188 -1.8831 -1.3910 -1.0691
  218MOL0     H29365   5.633   7.183  10.148  2.3186  1.4341  1.7764
  218MOL0     H29366   5.734   7.034  10.151  0.4977 -4.8532  4.6814
  218MOL0     H29367   5.555   6.917  10.286 -1.7172  0.3261  1.4951
  218MOL0     H29368   5.457   7.056  10.304 -0.7113 -2.7839 -0.1238
  218MOL0     H29369   5.447   7.053  10.042 -1.8142 -1.4551 -2.1574
  218MOL0     H29370   5.531   6.891  10.054  2.1370  1.5737 -0.0719
  218MOL0     H29371   5.323   6.856  10.218  1.8807  0.1546 -0.0697
  218MOL0     H29372   5.266   7.006  10.161  0.6479  0.3394  0.3386
  218MOL0     H29373   5.209   6.943   9.959  2.1609  1.8872  1.5690
  218MOL0     H29374   5.325   6.806   9.946  0.8636  0.5945 -0.4104
  218MOL0     H29375   5.098   6.689   9.980 -0.4183 -2.4824  2.9741
  218MOL0     H29376   5.171   6.690  10.127  2.5845 -0.8431 -0.8334
  218MOL0     H29377   4.944   6.761  10.163 -0.7438 -1.2221 -2.2357
  218MOL0     H29378   5.038   6.902  10.188  1.6182 -1.3763  0.0639
  218MOL0     H29379   4.989   6.987   9.969 -2.6207  1.2294  0.2822
  218MOL0     H29380   4.847   6.944  10.034 -0.5570 -1.1631  1.3264
  218MOL0     H29381   4.819   6.632  10.003 -3.4405 -0.3671 -0.1088
  218MOL0     H29382   4.824   6.455   9.661 -1.5926 -0.8391 -1.9491
  218MOL0     H29383   4.793   6.421   9.820 -0.6542 -0.8258 -1.0332
  218MOL0     H29384   4.571   6.589   9.694  0.3247  0.7035  3.2009
  218MOL0     H29385   4.567   6.452   9.808 -1.6069 -0.9259 -1.7771
  218MOL0     H29386   4.630   6.294   9.651  1.1129  0.4781  1.2674
  218MOL0     H29387   4.640   6.421   9.525 -0.3164  1.3110 -0.1639
  218MOL0     H29388   4.444   6.346   9.463 -1.9659  3.4809 -1.0924
  218MOL0     H29389   4.396   6.466   9.577 -1.9887 -1.4248  0.6796
  218MOL0     H29390   4.262   6.443   9.797  0.5034  1.6239 -3.1710
  218MOL0     H29391   4.109   6.581   9.838 -0.9804  0.8262  1.4418
  218MOL0     H29392   3.977   6.582   9.703 -2.6059 -4.3530 -1.3460
  218MOL0     H29393   3.954   6.524   9.872 -1.2415  2.1207 -0.5821
  218MOL0     H29394   3.665   6.236   9.928  0.2295  0.3672 -0.4306
  218MOL0     H29395   3.429   6.235   9.999 -4.0704  2.3042  0.0232
  218MOL0     H29396   3.147   6.551   9.866  0.1410 -0.1014 -1.1380
  218MOL0     H29397   3.167   6.443   9.728  0.7963 -3.6411 -0.3187
  218MOL0     H29398   3.009   6.283   9.839  0.7290  0.1364 -0.0030
  218MOL0     H29399   2.975   6.406   9.967 -1.9362  1.9381 -0.2367
  218MOL0     H29400   2.888   6.414   9.681 -0.0179  0.1801 -0.0177
  218MOL0     H29401   2.900   6.560   9.782  0.7257  0.2183 -2.2119
  218MOL0     H29402   2.743   6.307   9.822 -3.3903  0.6637  0.3505
  218MOL0     H29403   2.777   6.434   9.949  1.4611  1.4958 -0.3027
  218MOL0     H29404   2.556   6.436   9.824  0.0161 -0.4156  1.0309
  218MOL0     H29405   2.633   6.465   9.674  0.7851  0.4847 -0.0886
  218MOL0     H29406   2.655   6.668   9.904  2.6132  2.4475 -0.6054
  218MOL0     H29407   2.716   6.687   9.745  0.8078  0.2655  1.3808
  218MOL0     H29408   2.514   6.806   9.776 -1.4428 -0.2162  0.2150
  218MOL0     H29409   2.430   6.667   9.850  0.4063  1.8153  0.0201
  218MOL0     H29410   2.442   6.561   9.603 -1.8950 -0.5441 -1.2789
  218MOL0     H29411   2.495   6.722   9.555  3.3622 -0.9179  2.3004
  218MOL0     H29412   3.351   6.562   9.736  0.1216 -0.4901 -0.9364
  218MOL0     H29413   3.593   6.572   9.686  1.0644 -1.2669 -1.2094
  218MOL0     H29414   3.981   6.149   9.509  1.5767  0.1834 -2.2373
  218MOL0     H29415   4.222   6.152   9.496  1.9142  2.3316 -0.9021
  218MOL0     H29416   5.658   7.311  10.479 -2.5487  1.7516 -2.0923
  218MOL0     H29417   5.778   7.519  10.515 -2.0075 -2.3278  0.6258
  218MOL0     H29418   5.944   7.883  10.107 -0.5987 -1.1608  0.7290
  218MOL0     H29419   6.065   8.097  10.104  1.2269  0.3584  0.2239
  218MOL0     H29420   6.445   8.131  10.331 -0.0674  2.0590  0.3476
  218MOL0     H29421   6.403   8.076  10.168 -1.6254 -0.5215  2.4037
  218MOL0     H29422   6.394   8.307  10.079 -0.7645  0.0770  0.3581
  218MOL0     H29423   6.551   8.259  10.135  0.4467 -0.2799  1.4935
  218MOL0     H29424   6.348   8.433  10.275  0.1567  1.1798 -0.9399
  218MOL0     H29425   6.491   8.488  10.198 -2.1532  1.6524  0.0741
  218MOL0     H29426   6.568   8.487  10.416  1.8213 -1.0223  1.3740
  218MOL0     H29427   6.628   8.332  10.370  1.1652  2.4197  1.1669
  218MOL0     H29428   6.316   8.267  10.652 -1.9241  2.6333  0.5359
  218MOL0     H29429   6.257   7.998  10.481  0.5426  1.4829  0.5962
  218MOL0     H29430   6.114   7.816  10.502  1.8541  2.7582  1.1646
  219MOL0     O29431   3.415  10.264   0.493  0.3901  0.3422 -0.1216
  219MOL0     C29432   3.491  10.280   0.586 -0.0910 -0.3026  0.2583
  219MOL0     O29433   3.605  10.212   0.604 -0.0008  0.6779  0.8376
  219MOL0     C29434   3.642  10.118   0.507  0.7803  0.0906 -0.3110
  219MOL0     C29435   3.777  10.126   0.470 -0.2889 -0.7038  0.5039
  219MOL0     C29436   3.827  10.042   0.363  0.4311  0.1286 -0.5986
  219MOL0     C29437   3.750   9.925   0.326  0.5692 -0.4210  0.1043
  219MOL0     O29438   3.810   9.839   0.236  0.3862 -0.4656 -0.7121
  219MOL0     C29439   3.889   9.748   0.299  0.1340  0.4468  0.0584
  219MOL0     C29440   3.899   9.615   0.217 -1.2478  0.0225 -0.2286
  219MOL0     C29441   3.979   9.621   0.096  0.4755  0.9168  0.9053
  219MOL0     C29442   4.132   9.596   0.119  0.1002  0.8068 -0.6714
  219MOL0     C29443   4.208   9.624  -0.010 -0.2059 -0.0870  0.6917
  219MOL0     C29444   4.359   9.630   0.019 -0.3960 -0.2546  0.6899
  219MOL0     C29445   4.443   9.685  -0.106  0.5929 -0.3791  0.2085
  219MOL0     C29446   4.459   9.840  -0.094 -0.4871 -0.6264 -0.4317
  219MOL0     N29447   4.531   9.879   0.033  0.3701  0.3137 -0.1601
  219MOL0     C29448   4.663   9.832   0.063 -0.2994  0.7774  0.3155
  219MOL0     C29449   4.685   9.863   0.188 -0.0928 -0.3335 -0.1744
  219MOL0     C29450   4.807   9.824   0.261  0.5212  1.3441  0.9419
  219MOL0     C29451   4.941   9.797   0.182  0.2703  1.2318 -0.3896
  219MOL0     C29452   4.986   9.907   0.087 -1.0386  0.0165  0.0974
  219MOL0     C29453   5.093   9.849  -0.012 -0.6303 -0.5429  0.4199
  219MOL0     O29454   5.056   9.740  -0.096 -0.3746  0.0760 -0.8673
  219MOL0     C29455   4.970   9.769  -0.199  0.3171  0.1717 -0.7624
  219MOL0     C29456   4.908   9.654  -0.252  1.1375  0.4072  0.0832
  219MOL0     C29457   4.815   9.658  -0.361  0.3009 -0.8600  0.1140
  219MOL0     C29458   4.741   9.535  -0.409 -0.7063 -0.7428  0.2521
  219MOL0     C29459   4.779   9.793  -0.410  0.6451  0.6152  0.0444
  219MOL0     C29460   4.678   9.816  -0.520  0.6802 -0.6439 -0.1288
  219MOL0     O29461   4.709   9.935  -0.592  0.0506 -0.1488  0.1481
  219MOL0     C29462   4.644   9.941  -0.710 -0.4923 -0.3173 -0.2187
  219MOL0     C29463   4.700   9.878  -0.821  0.2914  0.5360  0.2001
  219MOL0     C29464   4.624   9.882  -0.946  0.7284  0.0283 -0.7749
  219MOL0     C29465   4.504   9.959  -0.957 -0.0631 -0.7290 -0.8275
  219MOL0     O29466   4.411   9.959  -1.056 -1.4465  0.0946  0.4291
  219MOL0     C29467   4.444   9.897  -1.182  0.0500 -0.3857  0.4771
  219MOL0     C29468   4.327   9.911  -1.274 -0.0419 -0.6999 -0.1997
  219MOL0     C29469   4.371   9.867  -1.412 -0.6661  0.2208  0.4308
  219MOL0     C29470   4.245   9.836  -1.484  0.2262 -0.1720  0.0574
  219MOL0     C29471   4.262   9.790  -1.624  0.0207  0.0522  0.7055
  219MOL0     C29472   4.125   9.787  -1.703 -0.5246 -0.6459  0.4450
  219MOL0     C29473   4.052   9.916  -1.711  0.1758  0.4745 -0.3575
  219MOL0     C29474   3.950   9.917  -1.820  0.1747  0.4388  0.5039
  219MOL0    Cl29475   3.818   9.798  -1.781  0.2476  0.2146 -0.3164
  219MOL0     C29476   4.448  10.019  -0.838 -0.8523 -0.4460 -0.4285
  219MOL0     C29477   4.521  10.013  -0.719 -0.2186 -0.1686 -0.4441
  219MOL0     O29478   4.598   9.733  -0.549  1.2172  0.6319 -0.1699
  219MOL0     C29479   4.832   9.907  -0.347 -0.0494 -0.4761 -0.5221
  219MOL0     C29480   4.932   9.898  -0.256 -0.7060  0.4021  0.5393
  219MOL0     N29481   4.567   9.924   0.242  0.4366 -0.4686  0.0595
  219MOL0     N29482   4.478   9.922   0.152  0.0289  0.2799  1.2417
  219MOL0     C29483   3.614   9.935   0.343 -1.0412  0.5025  0.4086
  219MOL0     C29484   3.559  10.024   0.435  0.1046 -0.8786 -0.4968
  219MOL0     C29485   3.461  10.390   0.676  0.4757 -0.5536  1.3116
  219MOL0     C29486   3.559  10.429   0.779 -0.5152  1.0356  0.4412
  219MOL0     C29487   3.530  10.540   0.855 -0.7252  0.0779 -0.0570
  219MOL0     C29488   3.428  10.628   0.835  0.8422  0.0727  1.1470
  219MOL0     O29489   3.407  10.759   0.892 -0.4818 -0.2621  0.0174
  219MOL0     C29490   3.465  10.868   0.820  0.1573 -0.2852  0.8512
  219MOL0     C29491   3.621  10.862   0.803 -0.4525 -0.7162  0.1576
  219MOL0     C29492   3.686  10.974   0.719 -0.0528  0.2057 -1.4767
  219MOL0     C29493   3.629  10.985   0.574 -0.4258  0.1822  0.8718
  219MOL0     C29494   3.708  11.086   0.499 -0.1410 -0.3711  0.3591
  219MOL0     C29495   3.776  11.173   0.444 -0.2222  0.2845 -0.1205
  219MOL0     C29496   3.334  10.588   0.738  0.2458  0.2004 -0.0622
  219MOL0     C29497   3.348  10.468   0.666  0.6052 -0.9832  0.1024
  219MOL0     H29498   3.833  10.202   0.524  3.9164 -4.7410  2.5514
  219MOL0     H29499   3.926  10.070   0.329 -0.3171  4.0579 -0.0460
  219MOL0     H29500   3.984   9.800   0.313  0.3718 -0.0439  0.2899
  219MOL0     H29501   3.865   9.719   0.402 -0.7603 -1.1559 -0.5502
  219MOL0     H29502   3.944   9.542   0.284  0.9728  1.1157 -0.4340
  219MOL0     H29503   3.796   9.596   0.188 -0.9899 -0.8582 -0.5752
  219MOL0     H29504   3.961   9.536   0.029  2.0573 -0.5096  2.1962
  219MOL0     H29505   3.961   9.715   0.042 -1.2565  0.9186  1.4466
  219MOL0     H29506   4.170   9.668   0.191  1.0435 -2.2291  2.1187
  219MOL0     H29507   4.140   9.497   0.166 -1.5626  1.2308  0.6092
  219MOL0     H29508   4.182   9.544  -0.081 -1.9158  1.1403 -0.1244
  219MOL0     H29509   4.179   9.721  -0.052 -4.9396 -1.7814 -0.4988
  219MOL0     H29510   4.362   9.693   0.109 -0.3243 -0.3923  0.7850
  219MOL0     H29511   4.400   9.532   0.048  1.6103  0.4225  0.2764
  219MOL0     H29512   4.543   9.640  -0.104  0.5264 -0.7575 -2.0510
  219MOL0     H29513   4.404   9.651  -0.203  2.0788 -2.6513  0.3029
  219MOL0     H29514   4.359   9.884  -0.090 -1.3706 -2.6240  0.8740
  219MOL0     H29515   4.513   9.873  -0.183 -1.4080 -0.4885 -0.9577
  219MOL0     H29516   4.730   9.786  -0.009  2.0894  3.5216  0.6063
  219MOL0     H29517   4.831   9.917   0.312 -0.7607  4.4598 -3.5335
  219MOL0     H29518   4.779   9.746   0.333 -2.6355  0.8816 -0.5952
  219MOL0     H29519   4.923   9.700   0.133 -1.4982  0.9661  0.7022
  219MOL0     H29520   5.025   9.781   0.250 -0.9596  0.0774  0.9057
  219MOL0     H29521   5.022   9.996   0.140 -0.4085 -1.1389  1.6671
  219MOL0     H29522   4.897   9.931   0.028 -2.2852  0.8527  2.2122
  219MOL0     H29523   5.185   9.828   0.042 -0.2246 -0.1880 -0.1158
  219MOL0     H29524   5.126   9.932  -0.075  0.8032 -0.5231  1.1610
  219MOL0     H29525   4.941   9.557  -0.216 -0.5951 -1.0688 -2.0462
  219MOL0     H29526   4.632   9.533  -0.408 -0.7859 -0.3541 -1.8501
  219MOL0     H29527   4.776   9.512  -0.510 -0.2594  1.2199 -0.0749
  219MOL0     H29528   4.781   9.456  -0.344  3.5184  1.1793  0.2984
  219MOL0     H29529   4.800   9.837  -0.810 -1.4764 -4.8774 -0.4319
  219MOL0     H29530   4.671   9.833  -1.030  0.4905  0.2202 -1.0239
  219MOL0     H29531   4.533   9.944  -1.224  1.4235 -0.6899  2.8829
  219MOL0     H29532   4.456   9.790  -1.165 -1.1938 -0.7853 -0.9295
  219MOL0     H29533   4.259   9.847  -1.217 -0.2400  2.0428  2.9337
  219MOL0     H29534   4.280  10.009  -1.284  1.6939  0.0515 -1.5786
  219MOL0     H29535   4.433   9.777  -1.417  1.0192  1.3488 -3.7180
  219MOL0     H29536   4.434   9.940  -1.466  2.9775 -0.5280  3.2781
  219MOL0     H29537   4.198   9.748  -1.439  1.5915 -2.1861 -2.1992
  219MOL0     H29538   4.186   9.927  -1.471  0.7207 -0.0312  1.4519
  219MOL0     H29539   4.312   9.692  -1.622  2.5813  1.2771  0.5968
  219MOL0     H29540   4.335   9.854  -1.675  0.8297  0.3402  2.1797
  219MOL0     H29541   4.145   9.755  -1.806 -0.6190 -0.8742  0.4977
  219MOL0     H29542   4.063   9.710  -1.657 -1.8940 -1.0822 -1.9611
  219MOL0     H29543   4.124   9.996  -1.730  1.8354 -0.7844  0.3733
  219MOL0     H29544   4.014   9.935  -1.610  2.3588  2.1578  0.2187
  219MOL0     H29545   3.999   9.902  -1.916  1.0268 -2.8225  1.3292
  219MOL0     H29546   3.912  10.020  -1.828  1.8591  1.1088  0.6300
  219MOL0     H29547   4.351  10.067  -0.850 -1.9955 -2.8687 -1.7618
  219MOL0     H29548   4.496  10.075  -0.633  1.7906  0.1002 -0.0080
  219MOL0     H29549   4.806  10.004  -0.389  1.6055 -0.9805 -2.9756
  219MOL0     H29550   4.957   9.999  -0.228  1.2679  0.5818 -1.5342
  219MOL0     H29551   3.545   9.866   0.296  0.5664  0.9014 -2.7898
  219MOL0     H29552   3.454  10.008   0.459  0.0606 -0.1139 -0.1508
  219MOL0     H29553   3.649  10.377   0.810 -0.8117  1.1591  1.5440
  219MOL0     H29554   3.610  10.575   0.921 -2.9423 -0.5418  3.2350
  219MOL0     H29555   3.413  10.869   0.724 -1.0877  1.0631  1.4921
  219MOL0     H29556   3.423  10.964   0.854  1.1654  1.5470 -2.6247
  219MOL0     H29557   3.657  10.768   0.761  1.3261  0.0996 -0.2390
  219MOL0     H29558   3.666  10.867   0.902  1.1391 -0.7826 -0.5277
  219MOL0     H29559   3.792  10.948   0.713 -0.9105 -3.8715 -1.6826
  219MOL0     H29560   3.667  11.070   0.769 -1.1638 -0.4866 -0.4978
  219MOL0     H29561   3.535  11.033   0.602  0.6447  0.6050  4.2254
  219MOL0     H29562   3.613  10.887   0.528 -0.3524  1.1694 -1.3744
  219MOL0     H29563   3.828  11.260   0.408 -0.4248  1.0394  1.3477
  219MOL0     H29564   3.263  10.668   0.718  3.6606  3.5948  0.1551
  219MOL0     H29565   3.270  10.453   0.591 -0.8266  1.2825  1.0160
  220MOL0     O29566   3.388   3.424   9.154 -0.3873 -0.0870 -0.1936
  220MOL0     C29567   3.348   3.538   9.119  0.2546  0.6164 -0.1053
  220MOL0     O29568   3.427   3.638   9.059 -0.5879 -0.0869 -0.9294
  220MOL0     C29569   3.558   3.628   9.080  0.4166 -0.1212 -0.1635
  220MOL0     C29570   3.621   3.712   9.178  0.8439  0.1698 -0.2266
  220MOL0     C29571   3.756   3.715   9.178 -0.0564 -0.2171  0.5080
  220MOL0     C29572   3.838   3.645   9.091  0.5531 -0.6750  0.1460
  220MOL0     O29573   3.976   3.661   9.114 -0.6186 -0.0888  0.0748
  220MOL0     C29574   4.070   3.582   9.027  0.7092 -0.2440  0.5049
  220MOL0     C29575   4.091   3.440   9.082 -0.2039  0.2513 -0.5623
  220MOL0     C29576   4.171   3.454   9.212  0.4202 -0.1256  0.0480
  220MOL0     C29577   4.250   3.322   9.237  0.4949  0.4248 -0.3475
  220MOL0     C29578   4.386   3.321   9.171 -0.0030  0.3551  0.1631
  220MOL0     C29579   4.492   3.396   9.244  0.0570 -0.4974 -0.3940
  220MOL0     C29580   4.620   3.406   9.150  0.4382 -0.3250  0.7662
  220MOL0     C29581   4.747   3.442   9.215  0.2760  0.7631 -0.1481
  220MOL0     N29582   4.864   3.474   9.121  0.5647  0.0618  0.2666
  220MOL0     C29583   4.916   3.596   9.109 -0.2283  0.6269  0.4329
  220MOL0     C29584   5.024   3.571   9.024 -1.0456  0.0352 -0.2739
  220MOL0     C29585   5.134   3.672   8.989 -0.2082 -0.0246 -0.5289
  220MOL0     C29586   5.142   3.787   9.090  0.0413  0.4543 -0.3281
  220MOL0     C29587   5.196   3.736   9.236 -0.8290  0.3411  0.7710
  220MOL0     C29588   5.161   3.846   9.337  0.5395  0.2415  0.9399
  220MOL0     O29589   5.020   3.818   9.364 -0.5648 -0.4060 -0.5921
  220MOL0     C29590   4.950   3.894   9.455  0.6619  0.4028  0.3474
  220MOL0     C29591   5.002   3.994   9.536 -0.1050  0.0064 -0.0034
  220MOL0     C29592   4.914   4.072   9.611 -0.4326 -0.6416 -0.3323
  220MOL0     C29593   4.977   4.163   9.700 -1.1363 -0.6251  0.0008
  220MOL0     C29594   4.771   4.050   9.620 -0.4135  0.7214  0.6555
  220MOL0     C29595   4.680   4.114   9.719 -0.5955 -0.1645 -0.1315
  220MOL0     O29596   4.551   4.123   9.680 -0.0660  0.0739  0.7010
  220MOL0     C29597   4.466   4.151   9.779  0.5310 -0.1440  0.2478
  220MOL0     C29598   4.395   4.272   9.762 -0.4747 -0.4553  0.0304
  220MOL0     C29599   4.291   4.289   9.849 -0.5563 -0.2856  0.0876
  220MOL0     C29600   4.258   4.197   9.952 -0.1846  0.3638 -0.3884
  220MOL0     O29601   4.158   4.220  10.039 -0.2526  0.3847 -0.3642
  220MOL0     C29602   4.064   4.108  10.041 -0.3554 -0.3264  0.7466
  220MOL0     C29603   3.917   4.148  10.069  0.3416 -0.1198  0.3128
  220MOL0     C29604   3.818   4.033  10.046  0.6977 -0.4913  0.0366
  220MOL0     C29605   3.674   4.082  10.045  0.4215  0.3326  0.5448
  220MOL0     C29606   3.577   3.980   9.982  0.6266  0.4234 -0.5208
  220MOL0     C29607   3.430   4.026  10.018  0.4684  0.1869  0.7212
  220MOL0     C29608   3.340   3.913   9.963  0.3541  0.1372  0.4470
  220MOL0     C29609   3.199   3.953   9.971  0.3447  0.3042 -0.1854
  220MOL0    Cl29610   3.149   3.998  10.139 -0.3316  0.4251 -0.3591
  220MOL0     C29611   4.338   4.085   9.966 -0.0887  0.5234  0.1719
  220MOL0     C29612   4.434   4.055   9.872 -0.2765 -0.7679  0.5030
  220MOL0     O29613   4.730   4.147   9.826 -0.1883 -0.3848  0.0916
  220MOL0     C29614   4.725   3.950   9.534  0.1379 -0.2048 -0.5688
  220MOL0     C29615   4.814   3.870   9.460  0.7959 -0.4848  0.2290
  220MOL0     N29616   5.039   3.437   8.988  0.2502 -0.0384 -0.4078
  220MOL0     N29617   4.931   3.383   9.035  1.2895  1.7152  0.6232
  220MOL0     C29618   3.778   3.559   9.005 -0.1095  0.0555  0.5943
  220MOL0     C29619   3.641   3.554   8.992 -0.8361 -0.4179 -0.6679
  220MOL0     C29620   3.208   3.567   9.130 -0.2424 -0.1568  0.0957
  220MOL0     C29621   3.162   3.699   9.101 -0.0519  0.0369 -0.9583
  220MOL0     C29622   3.025   3.725   9.095  0.4776  0.2025  0.5840
  220MOL0     C29623   2.936   3.630   9.146 -0.2246 -0.4480  0.0345
  220MOL0     O29624   2.804   3.660   9.134 -0.1628 -0.4502  0.2049
  220MOL0     C29625   2.703   3.562   9.165  0.0525 -0.6065 -0.2287
  220MOL0     C29626   2.572   3.613   9.114 -0.4823  0.1330  0.7563
  220MOL0     C29627   2.471   3.499   9.104  0.4869 -0.8074  0.3646
  220MOL0     C29628   2.416   3.450   9.240 -0.6788  0.5100  0.2572
  220MOL0     C29629   2.322   3.331   9.227 -0.0616  0.1283 -0.6154
  220MOL0     C29630   2.239   3.246   9.211 -0.2464  0.5359  0.1228
  220MOL0     C29631   2.985   3.508   9.197  1.1839 -0.4213  0.8836
  220MOL0     C29632   3.118   3.472   9.189 -0.7342  0.0359  0.5318
  220MOL0     H29633   3.566   3.776   9.245  1.5781  0.1012  0.4605
  220MOL0     H29634   3.809   3.790   9.237  0.0025 -1.0201  1.4904
  220MOL0     H29635   4.036   3.571   8.924  3.1104 -2.0685 -0.1902
  220MOL0     H29636   4.170   3.625   9.015  1.3967 -2.0896 -0.7803
  220MOL0     H29637   3.995   3.393   9.106 -0.1776 -0.1513 -1.2158
  220MOL0     H29638   4.147   3.377   9.013 -0.3871 -2.5662  1.6844
  220MOL0     H29639   4.239   3.540   9.219 -0.3897  0.5653 -0.3594
  220MOL0     H29640   4.112   3.469   9.302  0.9895  2.6059  0.0623
  220MOL0     H29641   4.267   3.329   9.344  0.8946 -0.7730 -0.3079
  220MOL0     H29642   4.185   3.235   9.218  1.4093 -0.8353  1.9212
  220MOL0     H29643   4.422   3.222   9.144  0.6111  0.4317  0.6808
  220MOL0     H29644   4.378   3.370   9.074 -0.0546 -0.8711 -0.4661
  220MOL0     H29645   4.452   3.492   9.276 -1.2206 -1.0300 -0.3389
  220MOL0     H29646   4.526   3.339   9.331  0.2853 -0.7265 -0.6304
  220MOL0     H29647   4.643   3.304   9.120  2.2667 -0.0506  1.1134
  220MOL0     H29648   4.606   3.469   9.062  2.2034  2.3479  2.2226
  220MOL0     H29649   4.781   3.375   9.295  2.0980  2.2901  0.4533
  220MOL0     H29650   4.732   3.539   9.265  0.5323  0.7911 -0.1242
  220MOL0     H29651   4.887   3.697   9.139  4.4691  2.6151 -0.7227
  220MOL0     H29652   5.235   3.633   8.985 -0.1166  0.0805  0.4207
  220MOL0     H29653   5.113   3.716   8.891  2.4208 -4.3989 -3.3367
  220MOL0     H29654   5.044   3.830   9.111 -0.8236 -0.4020 -2.3260
  220MOL0     H29655   5.213   3.861   9.051 -1.0245  2.4190  1.2661
  220MOL0     H29656   5.305   3.733   9.231 -0.9026 -0.8314 -0.9255
  220MOL0     H29657   5.162   3.637   9.267 -0.1104 -0.1752 -0.0529
  220MOL0     H29658   5.171   3.939   9.281 -1.0558  1.0672  1.9546
  220MOL0     H29659   5.220   3.840   9.429 -0.2881 -1.8218  1.3941
  220MOL0     H29660   5.109   4.015   9.540  0.0298 -0.6119 -0.1876
  220MOL0     H29661   5.083   4.163   9.674 -1.6122  0.2792 -2.1241
  220MOL0     H29662   4.930   4.262   9.701 -2.0752 -1.0389  1.5079
  220MOL0     H29663   4.986   4.131   9.805  1.4296 -2.1706 -0.5954
  220MOL0     H29664   4.433   4.350   9.697  1.8459  1.7005  3.6222
  220MOL0     H29665   4.231   4.380   9.851 -1.4503 -0.8676  1.4876
  220MOL0     H29666   4.059   4.056   9.945 -0.0381  0.3088  0.3724
  220MOL0     H29667   4.093   4.033  10.115  0.0829 -0.3011  0.6073
  220MOL0     H29668   3.906   4.202  10.163  0.2257  3.0951 -1.3976
  220MOL0     H29669   3.906   4.222   9.989  2.4747 -2.3390 -2.2180
  220MOL0     H29670   3.835   3.951  10.117 -0.3200 -1.4813 -0.8332
  220MOL0     H29671   3.832   3.995   9.945  1.3729  1.3885 -0.6021
  220MOL0     H29672   3.659   4.099  10.152  0.5510 -1.3119  0.8605
  220MOL0     H29673   3.667   4.178   9.995  1.9585  0.4190  0.4504
  220MOL0     H29674   3.590   3.877  10.017 -0.4012  0.6055  0.4442
  220MOL0     H29675   3.590   3.982   9.874 -0.4692 -2.5245 -0.8069
  220MOL0     H29676   3.425   4.041  10.127  2.2087 -2.2899  1.2426
  220MOL0     H29677   3.406   4.119   9.966  3.0193  0.8777  0.6426
  220MOL0     H29678   3.355   3.826  10.026 -1.1702 -0.0326  0.6215
  220MOL0     H29679   3.366   3.878   9.863  2.1145 -3.1835  1.9099
  220MOL0     H29680   3.130   3.877   9.933 -0.9354  0.7074  1.2319
  220MOL0     H29681   3.191   4.039   9.904 -0.3385 -1.3415 -2.3363
  220MOL0     H29682   4.312   4.008  10.038 -4.4228  1.6365  0.1284
  220MOL0     H29683   4.482   3.958   9.873 -0.9564 -1.1167  0.1560
  220MOL0     H29684   4.621   3.918   9.538  0.0270  0.2094  0.0686
  220MOL0     H29685   4.781   3.793   9.391 -1.0820  0.9094 -0.5236
  220MOL0     H29686   3.847   3.488   8.961  0.9668  1.2817  0.2490
  220MOL0     H29687   3.587   3.509   8.909 -0.5608  1.1926 -1.7615
  220MOL0     H29688   3.232   3.777   9.074  1.9290 -1.8844 -1.7275
  220MOL0     H29689   2.995   3.818   9.047  2.7397  0.2199 -0.9811
  220MOL0     H29690   2.726   3.466   9.118  0.9670 -0.9859  0.9477
  220MOL0     H29691   2.687   3.547   9.272 -0.4047 -1.1277 -0.3664
  220MOL0     H29692   2.577   3.650   9.011 -1.5918 -3.6595 -0.8025
  220MOL0     H29693   2.546   3.693   9.185  3.4115  1.4990  0.9465
  220MOL0     H29694   2.516   3.415   9.050  2.7359 -1.4254  2.9950
  220MOL0     H29695   2.387   3.553   9.057 -0.3116 -0.3123  2.2556
  220MOL0     H29696   2.368   3.535   9.290 -1.5374  0.2074 -0.0242
  220MOL0     H29697   2.499   3.408   9.298 -0.4984 -0.8600 -0.9380
  220MOL0     H29698   2.173   3.163   9.195  1.8099 -1.3921  1.0408
  220MOL0     H29699   2.909   3.438   9.231 -1.4172  0.3049 -2.8008
  220MOL0     H29700   3.142   3.369   9.210 -3.0176 -0.5536  0.5300
  221MOL0     O29701   6.227   2.313   8.904  0.3025 -0.1093 -0.0738
  221MOL0     C29702   6.260   2.318   8.787 -0.5084 -0.6261 -0.1234
  221MOL0     O29703   6.186   2.293   8.681  0.7163  0.1071  0.9982
  221MOL0     C29704   6.052   2.271   8.664 -0.2826 -0.5813 -0.5245
  221MOL0     C29705   5.962   2.315   8.756  0.3477 -0.2817 -0.5985
  221MOL0     C29706   5.826   2.305   8.724 -0.0469  0.7244  0.3414
  221MOL0     C29707   5.782   2.226   8.608  0.2605  0.1643 -0.0917
  221MOL0     O29708   5.649   2.185   8.588 -0.6818  0.0568 -0.0108
  221MOL0     C29709   5.569   2.186   8.713 -0.2324  0.4211  0.6918
  221MOL0     C29710   5.426   2.134   8.679 -0.2320 -0.1458 -0.2801
  221MOL0     C29711   5.348   2.233   8.602 -0.1479 -0.3788  0.6740
  221MOL0     C29712   5.189   2.227   8.606  0.0881  0.5329  0.3251
  221MOL0     C29713   5.128   2.353   8.540  0.0250  0.1005  0.8260
  221MOL0     C29714   4.976   2.358   8.538  1.1357  0.5119  1.0491
  221MOL0     C29715   4.918   2.471   8.458 -1.1467  0.1328  0.3935
  221MOL0     C29716   4.766   2.467   8.465  0.5300 -0.2156  1.0048
  221MOL0     N29717   4.685   2.578   8.410 -0.5802 -0.6184  1.3519
  221MOL0     C29718   4.677   2.709   8.460  0.1691 -0.0909 -0.2189
  221MOL0     C29719   4.570   2.768   8.405 -0.0309 -0.0827 -0.3946
  221MOL0     C29720   4.548   2.918   8.415 -0.4337 -0.0133 -0.0185
  221MOL0     C29721   4.411   2.962   8.353 -0.8832 -0.2102  0.2809
  221MOL0     C29722   4.372   3.110   8.374 -0.5475 -0.4374 -0.3494
  221MOL0     C29723   4.236   3.143   8.330 -0.5870 -0.2011  0.5209
  221MOL0     O29724   4.139   3.089   8.427 -0.0720  0.1371 -0.0828
  221MOL0     C29725   4.012   3.101   8.382  0.8476 -0.9286  0.4314
  221MOL0     C29726   3.970   3.165   8.262  0.7514 -0.0251  0.3597
  221MOL0     C29727   3.840   3.197   8.232 -0.4727  0.7237 -0.3515
  221MOL0     C29728   3.817   3.276   8.100  0.3490 -0.7103  0.6877
  221MOL0     C29729   3.741   3.151   8.324  0.2929  0.6569 -0.4215
  221MOL0     C29730   3.594   3.182   8.315 -1.0723 -0.0398 -1.2015
  221MOL0     O29731   3.509   3.109   8.406  0.5305 -0.0477 -0.1673
  221MOL0     C29732   3.371   3.141   8.394  0.4240  0.7017 -0.0515
  221MOL0     C29733   3.302   3.120   8.265 -0.0035 -0.6661 -0.4613
  221MOL0     C29734   3.168   3.166   8.259  0.2893  0.1776 -0.6143
  221MOL0     C29735   3.093   3.209   8.371  0.1189  0.0295 -0.0895
  221MOL0     O29736   2.957   3.237   8.349  0.6190  0.2159  0.0753
  221MOL0     C29737   2.874   3.230   8.463 -0.5319 -0.4976 -0.5514
  221MOL0     C29738   2.735   3.293   8.424 -0.6366  0.4322  0.6616
  221MOL0     C29739   2.647   3.334   8.547 -1.0948 -0.6590  0.6517
  221MOL0     C29740   2.633   3.225   8.655 -0.8697 -0.1961 -0.0137
  221MOL0     C29741   2.554   3.281   8.772 -0.5129  0.4035  0.2532
  221MOL0     C29742   2.537   3.174   8.871 -0.6252 -0.0872 -0.2267
  221MOL0     C29743   2.673   3.121   8.918  0.1312  1.3751 -0.1245
  221MOL0     C29744   2.673   3.072   9.061  0.3237 -0.0237 -0.0537
  221MOL0    Cl29745   2.628   3.193   9.180 -0.3233  0.0425 -0.3089
  221MOL0     C29746   3.162   3.224   8.487  0.4238 -0.1945 -0.0550
  221MOL0     C29747   3.294   3.190   8.499 -0.2290  0.0288 -0.6995
  221MOL0     O29748   3.555   3.263   8.229  0.6043  0.2977 -0.0388
  221MOL0     C29749   3.776   3.067   8.432 -0.7833  0.2188 -0.1930
  221MOL0     C29750   3.914   3.053   8.466 -0.3754  0.1411  0.6319
  221MOL0     N29751   4.515   2.683   8.310 -0.6680 -0.4879 -0.5917
  221MOL0     N29752   4.581   2.566   8.319  0.1254 -0.0170 -0.0337
  221MOL0     C29753   5.885   2.197   8.518  0.7916  0.1221  0.7284
  221MOL0     C29754   6.014   2.227   8.537 -0.3038 -0.1484 -0.7443
  221MOL0     C29755   6.407   2.309   8.756 -0.9029 -0.2802  0.0102
  221MOL0     C29756   6.496   2.321   8.858  0.2227 -0.0036 -0.1722
  221MOL0     C29757   6.631   2.313   8.838  0.7240 -0.5502  0.9010
  221MOL0     C29758   6.684   2.289   8.717 -0.2321 -0.2579  0.1760
  221MOL0     O29759   6.814   2.259   8.719 -0.4277 -0.4068  1.3692
  221MOL0     C29760   6.891   2.270   8.596  0.2626  0.0364 -0.3106
  221MOL0     C29761   7.029   2.217   8.626  0.3336  0.6841  0.2649
  221MOL0     C29762   7.039   2.068   8.663  0.0678 -0.4109  0.2010
  221MOL0     C29763   7.042   1.984   8.531  0.5142  0.2430 -0.9485
  221MOL0     C29764   7.163   1.992   8.451 -0.6628  0.4653  0.9425
  221MOL0     C29765   7.269   1.997   8.379  0.4396  0.5046  0.5412
  221MOL0     C29766   6.594   2.281   8.609  0.0541 -0.1701 -0.0598
  221MOL0     C29767   6.451   2.292   8.626  0.4642 -0.0082  0.7736
  221MOL0     H29768   5.987   2.362   8.850 -0.7895  0.5756 -0.7103
  221MOL0     H29769   5.763   2.347   8.802  2.6331  0.4111  2.8231
  221MOL0     H29770   5.613   2.116   8.786 -0.4965 -1.0867 -0.5353
  221MOL0     H29771   5.555   2.290   8.743 -1.9026 -0.1406  2.0100
  221MOL0     H29772   5.443   2.039   8.629 -0.0067 -0.5998  0.6338
  221MOL0     H29773   5.371   2.116   8.772  0.4155 -0.9946 -0.0562
  221MOL0     H29774   5.374   2.339   8.608  0.0400 -0.3219 -0.8656
  221MOL0     H29775   5.369   2.207   8.498 -0.1246  1.2064  0.2626
  221MOL0     H29776   5.147   2.144   8.548 -0.7108  1.3904 -0.3589
  221MOL0     H29777   5.158   2.217   8.710  0.3606  1.3790  0.4990
  221MOL0     H29778   5.167   2.440   8.594  1.0160  1.1257 -1.4077
  221MOL0     H29779   5.164   2.360   8.437 -0.5681  1.0726  0.6810
  221MOL0     H29780   4.932   2.264   8.505 -1.9660  0.7756  3.8869
  221MOL0     H29781   4.943   2.369   8.642 -1.4891  2.6707  0.1164
  221MOL0     H29782   4.959   2.567   8.490  2.2589 -0.8983 -0.5064
  221MOL0     H29783   4.941   2.450   8.353 -2.9904 -3.3423  0.5177
  221MOL0     H29784   4.724   2.464   8.565 -0.1316  2.1967  0.8544
  221MOL0     H29785   4.743   2.374   8.411 -0.1181  0.0179  0.8749
  221MOL0     H29786   4.759   2.757   8.513  0.7417 -2.1669  0.8832
  221MOL0     H29787   4.551   2.952   8.519 -3.0239 -2.0800  0.8592
  221MOL0     H29788   4.632   2.964   8.363  1.6859 -3.8745 -0.3901
  221MOL0     H29789   4.336   2.892   8.390 -1.1605  0.7135  1.5320
  221MOL0     H29790   4.412   2.929   8.249  4.7230 -3.7838  1.0898
  221MOL0     H29791   4.451   3.171   8.328  0.5134  1.9545  4.0813
  221MOL0     H29792   4.366   3.122   8.483  0.1202 -0.5526 -0.2922
  221MOL0     H29793   4.228   3.086   8.237 -0.4719 -0.6501  0.7834
  221MOL0     H29794   4.235   3.251   8.312 -1.9178 -0.3747 -0.5719
  221MOL0     H29795   4.034   3.212   8.188 -2.1617  2.5454 -0.7523
  221MOL0     H29796   3.803   3.381   8.127  3.0944 -0.3422  1.0506
  221MOL0     H29797   3.904   3.268   8.033  2.6790 -0.8379  3.5134
  221MOL0     H29798   3.736   3.232   8.043 -2.0692 -0.6877  3.8362
  221MOL0     H29799   3.360   3.081   8.182  0.0608  0.4575 -0.9639
  221MOL0     H29800   3.109   3.160   8.168 -2.0973 -2.5322  0.9570
  221MOL0     H29801   2.863   3.129   8.503 -0.2515 -0.0260  0.7904
  221MOL0     H29802   2.923   3.307   8.524  0.9459  0.1700 -2.4884
  221MOL0     H29803   2.764   3.374   8.356  1.0148  0.0996  0.9305
  221MOL0     H29804   2.676   3.216   8.374 -0.8725  0.6557  0.5899
  221MOL0     H29805   2.548   3.363   8.513  0.0865  0.8861 -1.7132
  221MOL0     H29806   2.697   3.423   8.586 -3.0277  0.4884  0.6260
  221MOL0     H29807   2.586   3.139   8.606  0.4151 -0.1568 -1.4140
  221MOL0     H29808   2.734   3.196   8.685 -0.7333 -1.0694 -1.2383
  221MOL0     H29809   2.456   3.320   8.744  0.4244  1.2213 -2.1937
  221MOL0     H29810   2.619   3.359   8.812  0.0393 -0.7485  1.6950
  221MOL0     H29811   2.483   3.210   8.959  0.5085 -0.2823  0.5643
  221MOL0     H29812   2.480   3.092   8.826  1.0044  0.1418 -2.9234
  221MOL0     H29813   2.752   3.197   8.918  3.4954 -1.8349  0.5981
  221MOL0     H29814   2.726   3.042   8.865 -0.6620 -1.3370  2.8109
  221MOL0     H29815   2.768   3.024   9.086  0.7056  1.2138  0.9794
  221MOL0     H29816   2.592   2.999   9.066 -0.6520  0.9638 -0.8159
  221MOL0     H29817   3.122   3.260   8.581  3.3714 -0.1888  1.3125
  221MOL0     H29818   3.354   3.204   8.589  1.4089  1.0693 -1.8921
  221MOL0     H29819   3.704   3.040   8.508 -3.2483  4.2649 -0.7876
  221MOL0     H29820   3.954   2.996   8.549  2.9266  1.7553  0.3015
  221MOL0     H29821   5.860   2.160   8.419 -2.3305  2.6474  0.3995
  221MOL0     H29822   6.088   2.196   8.463 -0.7080 -0.7462 -0.9050
  221MOL0     H29823   6.460   2.315   8.961 -1.2112 -1.4990 -0.7058
  221MOL0     H29824   6.699   2.325   8.922  2.0623 -0.9029 -0.1039
  221MOL0     H29825   6.836   2.210   8.524 -4.1379  3.4073 -0.1679
  221MOL0     H29826   6.902   2.368   8.547  0.0503 -0.9308 -2.3863
  221MOL0     H29827   7.077   2.266   8.711  2.7677 -3.6098  1.7055
  221MOL0     H29828   7.102   2.237   8.547  2.0187 -1.5291  1.1472
  221MOL0     H29829   6.964   2.026   8.731 -0.3161 -1.9653 -1.0924
  221MOL0     H29830   7.134   2.048   8.714  0.1986 -2.1037 -0.6245
  221MOL0     H29831   6.947   2.004   8.479  0.1014 -0.1157 -0.3500
  221MOL0     H29832   7.033   1.881   8.568 -0.9096  1.3309  1.9822
  221MOL0     H29833   7.362   1.987   8.327  0.2198 -1.7320  0.4574
  221MOL0     H29834   6.626   2.263   8.507  0.0359  1.2606 -0.3271
  221MOL0     H29835   6.395   2.287   8.533  0.6531  0.4353  0.6329
  222MOL0     O29836   6.074   2.575   7.834  0.1369 -0.1216  0.3164
  222MOL0     C29837   6.095   2.480   7.756  0.1041  0.1081 -0.1620
  222MOL0     O29838   5.996   2.409   7.695  0.6507 -0.2616  0.3735
  222MOL0     C29839   5.864   2.457   7.706 -0.5296  0.5730  0.0625
  222MOL0     C29840   5.785   2.389   7.803 -0.0126 -0.6065 -0.4061
  222MOL0     C29841   5.651   2.418   7.818  0.0927 -1.3403 -0.8721
  222MOL0     C29842   5.591   2.522   7.747 -0.2188 -0.1479 -0.0498
  222MOL0     O29843   5.468   2.551   7.788 -0.6211 -0.3810  0.0105
  222MOL0     C29844   5.400   2.632   7.687  0.4044  0.1086 -0.2769
  222MOL0     C29845   5.254   2.647   7.746 -0.1513  0.2747 -1.2178
  222MOL0     C29846   5.147   2.698   7.641 -0.0129  0.6066 -0.4450
  222MOL0     C29847   5.112   2.590   7.528 -0.0098 -0.3273 -0.3322
  222MOL0     C29848   5.049   2.639   7.398 -0.3574  0.3604 -0.2159
  222MOL0     C29849   4.910   2.717   7.390 -0.0632  0.0448  0.1187
  222MOL0     C29850   4.871   2.738   7.239 -0.4304 -0.1475  0.9626
  222MOL0     C29851   4.747   2.826   7.231 -0.0764 -0.5874  0.2119
  222MOL0     N29852   4.711   2.857   7.086 -0.5158  0.5918 -0.9895
  222MOL0     C29853   4.712   2.989   7.038  0.6229 -0.1807 -0.2334
  222MOL0     C29854   4.684   2.973   6.911  0.2219  0.4247  1.0936
  222MOL0     C29855   4.673   3.097   6.830  0.0824  1.0373 -0.0137
  222MOL0     C29856   4.550   3.176   6.877  0.2310  0.4225  0.1962
  222MOL0     C29857   4.520   3.306   6.795 -0.2310  0.0064 -0.5840
  222MOL0     C29858   4.375   3.332   6.784  0.6517  1.3209 -1.0056
  222MOL0     O29859   4.320   3.346   6.916  0.0226  0.7341  0.3392
  222MOL0     C29860   4.187   3.316   6.919 -1.4990  0.1559 -0.5943
  222MOL0     C29861   4.149   3.221   7.017 -0.4753  0.6796  0.5264
  222MOL0     C29862   4.019   3.178   7.044 -0.1957 -0.8152 -0.2241
  222MOL0     C29863   4.006   3.073   7.154  0.2891 -0.9042  0.5884
  222MOL0     C29864   3.914   3.238   6.973  0.1432 -0.1539  0.3512
  222MOL0     C29865   3.776   3.206   6.987 -0.1064 -0.7208 -0.4582
  222MOL0     O29866   3.719   3.138   6.888 -0.2747  0.6380 -0.3662
  222MOL0     C29867   3.589   3.090   6.900 -0.3155 -0.2067 -0.6530
  222MOL0     C29868   3.509   3.118   6.792  0.6273 -0.4836  0.3177
  222MOL0     C29869   3.373   3.098   6.805  0.0927  0.3037 -0.2981
  222MOL0     C29870   3.318   3.041   6.920 -0.1770  0.3012 -0.5308
  222MOL0     O29871   3.184   3.005   6.928 -0.0232 -0.5393  0.6480
  222MOL0     C29872   3.082   3.095   6.867 -0.2408  0.5672 -0.1837
  222MOL0     C29873   2.962   3.110   6.953  1.3083  0.5074 -0.5931
  222MOL0     C29874   2.855   3.205   6.890  0.5839  0.5666  0.2435
  222MOL0     C29875   2.722   3.144   6.906 -0.1255 -0.5846  0.1703
  222MOL0     C29876   2.693   3.036   6.800  0.2682  0.1768  0.2872
  222MOL0     C29877   2.555   2.970   6.837 -0.6365  0.0146 -0.1644
  222MOL0     C29878   2.447   3.068   6.805  0.3888 -0.7648  0.1286
  222MOL0     C29879   2.336   3.010   6.731 -0.1013 -0.2115  0.4125
  222MOL0    Cl29880   2.228   3.135   6.671 -0.0378 -0.3364 -0.1016
  222MOL0     C29881   3.396   3.017   7.029  0.0872  0.0790 -0.6821
  222MOL0     C29882   3.529   3.045   7.018 -0.6934 -0.4297  1.0175
  222MOL0     O29883   3.720   3.246   7.094  0.0450  0.0621 -0.3027
  222MOL0     C29884   3.950   3.343   6.877  0.2962  0.4150 -0.2350
  222MOL0     C29885   4.083   3.384   6.852  0.4027 -0.7886 -0.4100
  222MOL0     N29886   4.674   2.834   6.880  0.1039  0.3062  0.0819
  222MOL0     N29887   4.701   2.763   6.987  0.4381 -0.2316 -0.4786
  222MOL0     C29888   5.669   2.588   7.650  0.6384  0.0431 -0.0736
  222MOL0     C29889   5.807   2.560   7.635  0.1627  0.6884 -1.2600
  222MOL0     C29890   6.229   2.423   7.740  0.2587 -0.7728 -0.3427
  222MOL0     C29891   6.333   2.457   7.834 -0.0773  0.1503  0.8975
  222MOL0     C29892   6.465   2.421   7.808  0.2600 -1.0063  0.5086
  222MOL0     C29893   6.497   2.361   7.691  0.3246  0.7226  0.6822
  222MOL0     O29894   6.623   2.317   7.646 -0.0576  0.3189  1.0163
  222MOL0     C29895   6.711   2.275   7.751 -0.4264  0.1480  0.1047
  222MOL0     C29896   6.812   2.174   7.695  1.2535 -0.7529 -0.2409
  222MOL0     C29897   6.932   2.150   7.780 -0.6230 -0.1705 -0.3847
  222MOL0     C29898   7.022   2.044   7.721  0.6984  0.2425 -0.4681
  222MOL0     C29899   6.949   1.917   7.733  0.2890 -0.1764  0.9477
  222MOL0     C29900   6.879   1.816   7.731 -0.2756  0.2803  0.1221
  222MOL0     C29901   6.402   2.337   7.595  0.8041  0.6118  0.0263
  222MOL0     C29902   6.268   2.376   7.611 -0.1841 -0.5318 -1.1305
  222MOL0     H29903   5.820   2.308   7.867  0.1386 -0.4649 -0.3071
  222MOL0     H29904   5.589   2.357   7.884  0.6857 -1.4161 -0.3719
  222MOL0     H29905   5.446   2.731   7.679  0.6934 -0.0716 -0.8478
  222MOL0     H29906   5.399   2.582   7.590  1.8382 -1.1110  0.2907
  222MOL0     H29907   5.236   2.547   7.787  2.0598  1.2990  2.7663
  222MOL0     H29908   5.266   2.712   7.833  1.0925 -0.2457 -0.9788
  222MOL0     H29909   5.057   2.713   7.701  0.6488 -4.1416  2.2405
  222MOL0     H29910   5.183   2.783   7.583  3.2056 -1.3149 -1.5189
  222MOL0     H29911   5.206   2.541   7.501  0.2902 -0.6392  1.2365
  222MOL0     H29912   5.035   2.523   7.568 -0.0774 -1.7333 -2.6162
  222MOL0     H29913   5.112   2.715   7.351 -1.7531  1.7912  0.1469
  222MOL0     H29914   5.046   2.558   7.325 -0.0974  0.4896 -0.3693
  222MOL0     H29915   4.824   2.670   7.440 -1.3118 -0.2570 -2.1853
  222MOL0     H29916   4.924   2.815   7.436 -2.4496  1.4670 -1.9294
  222MOL0     H29917   4.960   2.776   7.188 -1.3275  2.3146  1.0741
  222MOL0     H29918   4.846   2.642   7.193 -2.0730  1.4787 -1.9188
  222MOL0     H29919   4.770   2.919   7.284 -0.3615 -1.5747  2.1158
  222MOL0     H29920   4.663   2.778   7.281 -0.2325  0.3505  0.8866
  222MOL0     H29921   4.717   3.085   7.088 -1.1023  0.3804 -1.0655
  222MOL0     H29922   4.770   3.146   6.848 -1.3204  3.2403  2.2313
  222MOL0     H29923   4.669   3.062   6.726  1.6976 -0.4760  0.3789
  222MOL0     H29924   4.561   3.188   6.985 -0.2366 -1.2820  0.4688
  222MOL0     H29925   4.470   3.103   6.860  1.7955 -1.1066 -0.9564
  222MOL0     H29926   4.560   3.299   6.694  2.9459  0.8388  0.4889
  222MOL0     H29927   4.566   3.390   6.848 -1.6351  0.3410  0.1521
  222MOL0     H29928   4.327   3.244   6.739 -3.0028  3.0837 -0.9218
  222MOL0     H29929   4.356   3.416   6.717  2.0049  2.2800 -0.2396
  222MOL0     H29930   4.226   3.174   7.077  0.3904 -1.1986 -1.8597
  222MOL0     H29931   3.906   3.028   7.154 -0.0388 -0.3009 -1.9538
  222MOL0     H29932   4.086   3.001   7.135 -1.0005 -2.3792  0.5495
  222MOL0     H29933   4.021   3.125   7.249 -0.4303  1.5843 -0.5743
  222MOL0     H29934   3.546   3.147   6.694  2.0161  2.4066  1.5684
  222MOL0     H29935   3.304   3.115   6.723  0.6801  0.9883 -0.6605
  222MOL0     H29936   3.115   3.197   6.847  0.4510  0.6207  1.1016
  222MOL0     H29937   3.053   3.048   6.773  3.0060  1.0993 -1.5628
  222MOL0     H29938   2.910   3.015   6.974  0.5589  0.4455 -2.5405
  222MOL0     H29939   2.995   3.160   7.044  0.5200 -1.8086  1.0831
  222MOL0     H29940   2.880   3.229   6.786  1.5979 -0.2424  0.2837
  222MOL0     H29941   2.851   3.308   6.928 -0.7134  0.9042 -0.7323
  222MOL0     H29942   2.723   3.109   7.010  4.5804 -1.4683  0.0526
  222MOL0     H29943   2.644   3.220   6.904 -0.4049 -0.8732 -0.0387
  222MOL0     H29944   2.768   2.956   6.808 -0.8613 -0.9698 -0.2907
  222MOL0     H29945   2.699   3.072   6.696  0.3640  1.9580  0.8745
  222MOL0     H29946   2.537   2.879   6.779 -3.1957 -0.6802  1.5607
  222MOL0     H29947   2.538   2.942   6.941 -1.6407  0.0009 -0.3270
  222MOL0     H29948   2.486   3.148   6.741  1.5343 -0.7434  0.8083
  222MOL0     H29949   2.422   3.115   6.901  1.5651 -1.3474  0.7549
  222MOL0     H29950   2.282   2.943   6.799  0.4698  0.8907  2.0226
  222MOL0     H29951   2.366   2.949   6.645  0.8779  0.8111  0.0103
  222MOL0     H29952   3.357   2.986   7.125  0.2829  2.1114  0.0941
  222MOL0     H29953   3.599   3.048   7.100  2.1261 -1.5910 -1.1775
  222MOL0     H29954   3.869   3.389   6.821  0.7263  1.2358 -0.1980
  222MOL0     H29955   4.111   3.463   6.784 -1.3471 -0.1393 -0.4359
  222MOL0     H29956   5.638   2.654   7.570  0.4998  2.1245  1.6018
  222MOL0     H29957   5.871   2.606   7.560  1.6360 -1.1762 -1.2442
  222MOL0     H29958   6.317   2.517   7.923 -1.1820  4.0996 -1.6709
  222MOL0     H29959   6.543   2.447   7.879  0.0386 -1.7832  1.0456
  222MOL0     H29960   6.773   2.355   7.793 -1.7329  0.7352  0.9867
  222MOL0     H29961   6.655   2.233   7.834  0.3406  1.2639  1.2161
  222MOL0     H29962   6.854   2.207   7.600 -3.2421 -0.2684 -2.3379
  222MOL0     H29963   6.764   2.078   7.674  0.7740 -1.4128  3.2172
  222MOL0     H29964   6.899   2.115   7.877  2.0981  2.4774  1.6931
  222MOL0     H29965   6.988   2.239   7.810 -0.9134 -0.6927  1.8860
  222MOL0     H29966   7.121   2.046   7.768  0.1746  2.5699  0.6438
  222MOL0     H29967   7.042   2.065   7.615  3.0716  0.1311 -0.1009
  222MOL0     H29968   6.817   1.729   7.724 -2.4341  1.8529 -1.8167
  222MOL0     H29969   6.441   2.286   7.508  2.0688  2.5935 -0.6173
  222MOL0     H29970   6.194   2.363   7.532 -0.0047  0.3197 -1.4465
  223MOL0     O29971  10.954   7.410   8.022 -0.1891  0.8515  0.8283
  223MOL0     C29972  10.967   7.513   7.962 -0.6833  0.0801  0.0844
  223MOL0     O29973  10.874   7.577   7.890  0.0997 -0.0541  0.0980
  223MOL0     C29974  10.744   7.577   7.920 -0.4897 -0.5593  0.4635
  223MOL0     C29975  10.709   7.608   8.050 -0.1095 -0.6043  0.2798
  223MOL0     C29976  10.572   7.589   8.088 -0.4005  0.7138  0.0565
  223MOL0     C29977  10.479   7.544   7.986 -0.2720  0.3987 -0.5137
  223MOL0     O29978  10.350   7.511   8.021 -0.0799 -0.2556  0.6635
  223MOL0     C29979  10.236   7.566   7.958 -0.4554 -1.3394 -0.0495
  223MOL0     C29980  10.120   7.476   7.985 -0.2539  1.2055  0.1261
  223MOL0     C29981   9.984   7.534   7.952 -0.2137  0.3344  0.3823
  223MOL0     C29982   9.872   7.431   7.949 -0.1004  0.1404 -0.4720
  223MOL0     C29983   9.743   7.476   7.886  0.4396  0.6798 -0.0574
  223MOL0     C29984   9.633   7.377   7.920  0.5929 -0.1401  0.6060
  223MOL0     C29985   9.501   7.397   7.840  0.6922  0.3752  0.1393
  223MOL0     C29986   9.523   7.465   7.706  1.1057 -0.2133  0.4829
  223MOL0     N29987   9.391   7.480   7.639 -0.6215 -0.3324  0.1884
  223MOL0     C29988   9.331   7.374   7.575 -0.2621  0.0851 -0.4084
  223MOL0     C29989   9.212   7.426   7.537 -0.4894  0.2528  0.3677
  223MOL0     C29990   9.094   7.363   7.463  1.0478 -1.3779  0.0342
  223MOL0     C29991   9.111   7.218   7.423 -0.1189  0.1413 -0.2237
  223MOL0     C29992   9.200   7.215   7.293  0.4392 -0.1592 -0.1182
  223MOL0     C29993   9.156   7.108   7.197  0.6758  0.1716 -0.5900
  223MOL0     O29994   9.140   6.979   7.271  0.2339  0.1800  0.0036
  223MOL0     C29995   9.115   6.872   7.186 -0.0714 -0.9895  0.6378
  223MOL0     C29996   9.218   6.791   7.130  0.1266 -1.0759  0.2292
  223MOL0     C29997   9.190   6.679   7.049 -0.3603 -0.9252  0.0250
  223MOL0     C29998   9.317   6.594   7.014 -0.4456 -0.7088 -1.1682
  223MOL0     C29999   9.058   6.650   7.011  0.8906 -0.4836 -0.4262
  223MOL0     C30000   9.025   6.546   6.917 -0.0590  1.3201  0.5110
  223MOL0     O30001   8.895   6.519   6.912 -0.1869  1.2538  0.8340
  223MOL0     C30002   8.836   6.436   6.819 -0.8537 -0.1662 -0.8310
  223MOL0     C30003   8.706   6.469   6.796  0.3527  0.2144  0.3652
  223MOL0     C30004   8.635   6.405   6.696  0.2066 -0.5388 -0.4841
  223MOL0     C30005   8.678   6.298   6.637 -0.8481 -0.7218  1.2396
  223MOL0     O30006   8.595   6.236   6.546  0.8907 -0.2099  0.0185
  223MOL0     C30007   8.624   6.104   6.484 -0.1143 -0.6609 -0.1658
  223MOL0     C30008   8.500   6.032   6.447 -0.2350 -0.1472  0.5440
  223MOL0     C30009   8.514   5.893   6.377  0.0717  0.3928 -0.5819
  223MOL0     C30010   8.540   5.903   6.224 -0.4975  0.6668 -0.3328
  223MOL0     C30011   8.551   5.773   6.149 -0.4636  0.4184  0.7361
  223MOL0     C30012   8.574   5.806   5.994 -0.1779 -0.0822 -1.2622
  223MOL0     C30013   8.454   5.850   5.918 -0.3958  0.1925  0.5927
  223MOL0     C30014   8.487   5.904   5.779 -0.0059  0.2726 -0.2918
  223MOL0    Cl30015   8.569   6.062   5.811 -0.3429 -0.1954 -0.0571
  223MOL0     C30016   8.813   6.262   6.662 -0.4076 -0.4082 -0.2509
  223MOL0     C30017   8.898   6.329   6.751 -0.1097  0.3106 -1.3780
  223MOL0     O30018   9.111   6.481   6.854 -0.3158  0.3997  0.2288
  223MOL0     C30019   8.957   6.727   7.072  0.6210  0.1748 -0.1229
  223MOL0     C30020   8.988   6.835   7.158 -0.4032  0.5210  0.3980
  223MOL0     N30021   9.202   7.559   7.578 -0.4642 -0.0467  0.4916
  223MOL0     N30022   9.312   7.587   7.639 -0.9676  0.8315 -0.0742
  223MOL0     C30023  10.528   7.523   7.849 -0.4259 -0.9976  0.5181
  223MOL0     C30024  10.660   7.541   7.815  0.7177  0.8556  0.2577
  223MOL0     C30025  11.103   7.571   7.970  0.7371  0.8202 -0.8041
  223MOL0     C30026  11.207   7.488   8.018  0.0188 -1.2018  0.1033
  223MOL0     C30027  11.335   7.540   8.034  0.1840 -0.4802 -0.6137
  223MOL0     C30028  11.369   7.673   7.990  0.8628 -0.5571  0.9351
  223MOL0     O30029  11.487   7.729   8.006 -0.8584 -0.0615  0.5685
  223MOL0     C30030  11.556   7.704   8.128  0.3266  0.9143 -0.6574
  223MOL0     C30031  11.699   7.729   8.110 -1.4758 -0.7586  0.6726
  223MOL0     C30032  11.774   7.647   7.996  0.6857  0.2065 -0.0577
  223MOL0     C30033  11.924   7.677   7.976 -0.4117  0.6992 -1.5369
  223MOL0     C30034  11.950   7.819   7.935 -0.3539  0.6173 -0.8328
  223MOL0     C30035  11.986   7.936   7.903  0.4319 -0.2189 -0.3424
  223MOL0     C30036  11.266   7.750   7.939 -0.4551 -0.2547  1.0175
  223MOL0     C30037  11.138   7.700   7.927 -0.0278 -0.4473  0.8149
  223MOL0     H30038  10.784   7.626   8.126 -1.6863 -1.9651  2.2805
  223MOL0     H30039  10.530   7.612   8.185 -2.0985  3.6292 -1.2614
  223MOL0     H30040  10.221   7.670   7.988  0.7380 -0.6757 -1.5790
  223MOL0     H30041  10.251   7.567   7.849  3.6925 -0.8446  0.3446
  223MOL0     H30042  10.126   7.381   7.931  0.8783  2.9507 -3.0834
  223MOL0     H30043  10.113   7.439   8.088 -0.1635 -1.4263 -0.7306
  223MOL0     H30044   9.954   7.607   8.028 -1.2066 -1.3069  1.6073
  223MOL0     H30045   9.997   7.591   7.859  2.0955 -0.7394 -0.0334
  223MOL0     H30046   9.898   7.336   7.900 -1.5290  0.3775 -1.7316
  223MOL0     H30047   9.853   7.408   8.054 -2.3965 -0.1390 -0.9080
  223MOL0     H30048   9.705   7.569   7.928  0.3562  0.7589 -0.3089
  223MOL0     H30049   9.754   7.482   7.778 -1.7700 -5.3292 -0.9963
  223MOL0     H30050   9.659   7.272   7.902  3.0991  0.1335  2.1338
  223MOL0     H30051   9.600   7.377   8.024 -0.7391 -1.5743  0.2208
  223MOL0     H30052   9.459   7.299   7.815  1.9687  0.2689 -1.7532
  223MOL0     H30053   9.428   7.458   7.895 -0.0469 -1.1870  0.9722
  223MOL0     H30054   9.587   7.396   7.650 -0.6779 -2.2833  0.8454
  223MOL0     H30055   9.561   7.566   7.718  2.8801 -0.5633 -1.4553
  223MOL0     H30056   9.366   7.272   7.582 -0.5655  0.0768  1.3482
  223MOL0     H30057   8.998   7.368   7.516 -1.3922  1.7340 -4.0522
  223MOL0     H30058   9.075   7.422   7.373  2.4730 -0.9300  0.0027
  223MOL0     H30059   9.010   7.177   7.408 -0.6021  0.7298  1.2211
  223MOL0     H30060   9.141   7.148   7.501  0.7290 -0.8773 -1.4258
  223MOL0     H30061   9.304   7.205   7.324 -0.2865  1.1577  3.1525
  223MOL0     H30062   9.192   7.314   7.248  0.9388  0.2527  0.6710
  223MOL0     H30063   9.236   7.088   7.126  1.0996 -0.9432  0.1720
  223MOL0     H30064   9.056   7.132   7.158  0.0763 -1.8768 -0.4025
  223MOL0     H30065   9.322   6.806   7.155  0.3212 -0.1299 -1.0415
  223MOL0     H30066   9.297   6.490   7.039 -1.1509 -0.0859  1.0544
  223MOL0     H30067   9.338   6.601   6.907 -0.3864 -1.7674 -1.2305
  223MOL0     H30068   9.406   6.628   7.068 -1.8287  1.0028  0.1633
  223MOL0     H30069   8.666   6.548   6.859 -1.0080 -1.5463  1.8384
  223MOL0     H30070   8.529   6.425   6.681  0.6580  4.6012  1.2492
  223MOL0     H30071   8.687   6.112   6.394 -1.6350  0.7147 -1.1806
  223MOL0     H30072   8.691   6.047   6.548  0.0927  0.6627  0.8403
  223MOL0     H30073   8.440   6.029   6.539 -3.2545  0.3441 -1.2812
  223MOL0     H30074   8.453   6.105   6.381 -1.1420 -0.8257  0.4276
  223MOL0     H30075   8.424   5.831   6.387  1.0515 -1.9349 -4.3737
  223MOL0     H30076   8.596   5.837   6.422  0.5683  1.8574  0.4133
  223MOL0     H30077   8.463   5.965   6.177  0.9487  2.9508  0.1592
  223MOL0     H30078   8.634   5.956   6.203 -1.4572  1.7692 -2.0066
  223MOL0     H30079   8.469   5.703   6.161 -1.8414  1.7764 -0.3403
  223MOL0     H30080   8.645   5.731   6.186 -0.6079 -0.5273  0.0489
  223MOL0     H30081   8.653   5.882   5.984 -1.6327  1.9831  1.4654
  223MOL0     H30082   8.628   5.716   5.964  1.6916  0.4519  0.2633
  223MOL0     H30083   8.403   5.931   5.970  1.0292  0.1556  2.1481
  223MOL0     H30084   8.384   5.766   5.913  1.5306 -1.4475 -0.0467
  223MOL0     H30085   8.408   5.932   5.710  1.9400  3.0946 -1.5341
  223MOL0     H30086   8.558   5.833   5.734  0.7414 -0.7622  2.2964
  223MOL0     H30087   8.847   6.169   6.618 -0.2285  0.2449 -1.5731
  223MOL0     H30088   8.997   6.295   6.781  0.5410  3.6906  0.8888
  223MOL0     H30089   8.853   6.707   7.052  0.4766  0.7690 -0.0018
  223MOL0     H30090   8.910   6.881   7.217 -1.5798 -1.2886  0.3235
  223MOL0     H30091  10.453   7.499   7.775 -1.6429  2.4491  0.4857
  223MOL0     H30092  10.685   7.512   7.713  1.6375  0.4121  0.5967
  223MOL0     H30093  11.193   7.382   8.035  2.2907 -1.6487 -0.4983
  223MOL0     H30094  11.410   7.471   8.070 -1.6829 -0.9661  2.6990
  223MOL0     H30095  11.513   7.771   8.203 -1.5812  0.3171 -1.1770
  223MOL0     H30096  11.547   7.599   8.158 -2.7967  1.5771  1.1579
  223MOL0     H30097  11.744   7.701   8.206 -2.7708 -0.6756  1.3252
  223MOL0     H30098  11.722   7.835   8.094  0.4194 -1.0495  1.2922
  223MOL0     H30099  11.733   7.663   7.896  0.0643  1.0024  0.3180
  223MOL0     H30100  11.773   7.539   8.016  3.2832  0.4957  2.0856
  223MOL0     H30101  11.967   7.598   7.913 -3.9744 -0.9474 -2.1395
  223MOL0     H30102  11.974   7.670   8.073  0.0182 -0.6266 -1.8321
  223MOL0     H30103  12.011   8.038   7.884 -1.6065  0.4438  0.2779
  223MOL0     H30104  11.286   7.841   7.883 -2.9388 -0.4737 -0.3903
  223MOL0     H30105  11.065   7.774   7.894 -1.2715 -0.4827  3.2613
  224MOL0     O30106   7.601   7.175   7.879  0.3713 -0.4371 -0.4728
  224MOL0     C30107   7.629   7.221   7.768 -0.1681 -0.1851  0.3676
  224MOL0     O30108   7.751   7.249   7.724 -0.5255 -0.2033  0.2570
  224MOL0     C30109   7.847   7.191   7.807 -0.2335 -1.3083 -0.3092
  224MOL0     C30110   7.906   7.070   7.787 -0.3173 -0.4633 -0.0591
  224MOL0     C30111   7.997   7.008   7.880  0.9823 -0.4025  0.0634
  224MOL0     C30112   8.016   7.064   8.005 -0.5713 -0.3196 -0.4762
  224MOL0     O30113   8.098   7.001   8.096 -0.0691 -0.4095 -0.4252
  224MOL0     C30114   8.152   7.077   8.207 -0.3297 -0.0614  0.0365
  224MOL0     C30115   8.179   7.003   8.333  0.5690  0.3956  0.8017
  224MOL0     C30116   8.054   6.925   8.395 -1.2473 -0.4212  0.7022
  224MOL0     C30117   7.964   7.018   8.484 -0.0358 -0.1829 -0.8408
  224MOL0     C30118   7.849   6.928   8.541 -0.4681 -0.9584  0.7093
  224MOL0     C30119   7.899   6.815   8.623 -0.5550 -0.9312  0.0532
  224MOL0     C30120   7.789   6.759   8.721  0.4065 -0.2296  0.1146
  224MOL0     C30121   7.847   6.652   8.810 -0.1248  0.0437 -0.0324
  224MOL0     N30122   7.750   6.564   8.876 -0.2216  1.0495  0.3221
  224MOL0     C30123   7.654   6.605   8.967  0.9694  0.6633 -0.7260
  224MOL0     C30124   7.582   6.497   9.010 -0.0926 -0.4820  0.4136
  224MOL0     C30125   7.455   6.504   9.099 -0.7068  0.4981  0.5553
  224MOL0     C30126   7.316   6.497   9.019 -0.7749  0.2672  0.2594
  224MOL0     C30127   7.268   6.637   8.993 -0.0167 -0.7485  0.0251
  224MOL0     C30128   7.128   6.627   8.926 -0.2204  0.4853 -0.8606
  224MOL0     O30129   7.062   6.754   8.918 -0.2254 -0.0578 -0.6986
  224MOL0     C30130   6.939   6.776   8.979 -0.9494  0.0226 -0.1237
  224MOL0     C30131   6.918   6.736   9.110  1.0460 -0.0405  0.3256
  224MOL0     C30132   6.794   6.748   9.180 -0.3710  1.1247  0.0243
  224MOL0     C30133   6.773   6.665   9.311  0.5077  0.3931 -0.6187
  224MOL0     C30134   6.695   6.827   9.123  0.0489  0.1186 -0.8196
  224MOL0     C30135   6.551   6.839   9.182  0.2357  0.5012  0.2247
  224MOL0     O30136   6.463   6.915   9.112 -0.3458 -0.0089  0.3984
  224MOL0     C30137   6.337   6.936   9.162  0.6601  0.2814 -0.7607
  224MOL0     C30138   6.327   7.009   9.290  0.0741  0.7317 -0.2277
  224MOL0     C30139   6.207   7.038   9.344 -0.0199 -0.0926  0.5789
  224MOL0     C30140   6.091   6.994   9.285 -0.7492  0.2030 -1.0310
  224MOL0     O30141   5.971   7.000   9.347  0.9376 -0.9641 -0.4044
  224MOL0     C30142   5.901   7.127   9.369  0.3760 -0.1775 -0.0616
  224MOL0     C30143   5.809   7.161   9.260 -0.2387  0.0443  0.5523
  224MOL0     C30144   5.693   7.061   9.223 -1.1139 -0.5123 -0.5929
  224MOL0     C30145   5.582   7.083   9.329 -0.5633  0.5043 -0.0275
  224MOL0     C30146   5.452   6.996   9.293  0.0836 -0.2646 -0.1359
  224MOL0     C30147   5.341   7.008   9.392  0.2436  0.3687 -0.6235
  224MOL0     C30148   5.247   6.890   9.381 -0.6388 -0.4350  1.4227
  224MOL0     C30149   5.111   6.927   9.427  0.1373  0.5375  0.2295
  224MOL0    Cl30150   5.124   6.983   9.600  0.2684  0.1661 -0.4973
  224MOL0     C30151   6.099   6.932   9.161 -0.7957  1.0874 -0.0815
  224MOL0     C30152   6.221   6.899   9.093 -0.1562 -0.4170 -1.3266
  224MOL0     O30153   6.520   6.776   9.278  0.1040  0.4124 -0.7940
  224MOL0     C30154   6.716   6.880   8.990  0.3792 -0.5683  0.3572
  224MOL0     C30155   6.838   6.854   8.922 -0.2972 -0.0937  0.4316
  224MOL0     N30156   7.633   6.396   8.930  0.4999 -0.3050 -0.0071
  224MOL0     N30157   7.727   6.429   8.852 -0.6871  0.0817  0.7862
  224MOL0     C30158   7.954   7.197   8.029  0.4485 -0.6460  0.0795
  224MOL0     C30159   7.875   7.260   7.919 -0.0806  0.2873 -0.1038
  224MOL0     C30160   7.523   7.255   7.677  0.7454  0.4232 -0.3126
  224MOL0     C30161   7.388   7.259   7.721 -1.1442 -0.7207 -0.5039
  224MOL0     C30162   7.299   7.325   7.642 -0.6685 -0.3372 -0.6776
  224MOL0     C30163   7.324   7.383   7.522  0.0267  0.4707  0.2211
  224MOL0     O30164   7.225   7.444   7.448  0.1487  0.1897  0.4999
  224MOL0     C30165   7.179   7.346   7.352  0.6423  0.7269  0.3106
  224MOL0     C30166   7.184   7.409   7.208 -0.4877 -0.9126 -0.7221
  224MOL0     C30167   7.067   7.363   7.128 -0.1483  0.0481 -0.1469
  224MOL0     C30168   7.083   7.408   6.984 -0.1642 -1.0131  0.3345
  224MOL0     C30169   6.967   7.367   6.899 -0.1663 -0.1181  0.0113
  224MOL0     C30170   6.883   7.307   6.840 -0.7174 -0.0888 -0.2937
  224MOL0     C30171   7.454   7.373   7.472 -0.0577 -0.3283  0.1296
  224MOL0     C30172   7.551   7.300   7.546  0.8055 -0.6413  0.6505
  224MOL0     H30173   7.884   7.022   7.692 -1.7115  0.0138  0.0107
  224MOL0     H30174   8.044   6.914   7.854  1.5421 -0.2104  0.3565
  224MOL0     H30175   8.242   7.130   8.175 -2.0111  0.6685 -3.9766
  224MOL0     H30176   8.078   7.139   8.258 -0.4989 -3.0481  3.9528
  224MOL0     H30177   8.271   6.945   8.324 -0.0295 -0.2160 -2.1470
  224MOL0     H30178   8.199   7.082   8.406 -1.0942 -0.0918  1.8439
  224MOL0     H30179   8.004   6.879   8.309  2.3452 -2.7035 -0.4045
  224MOL0     H30180   8.101   6.850   8.460 -1.1255 -0.7687  0.2209
  224MOL0     H30181   8.022   7.052   8.571 -0.8842 -1.4001  0.2397
  224MOL0     H30182   7.917   7.101   8.431  0.6598 -0.2942 -1.6533
  224MOL0     H30183   7.798   6.993   8.612  1.2729 -1.2011  2.2585
  224MOL0     H30184   7.785   6.883   8.464  0.3501  0.7017 -1.0305
  224MOL0     H30185   7.931   6.736   8.555  1.1352 -0.2641  0.0404
  224MOL0     H30186   7.980   6.862   8.679  0.1214  2.2872 -3.2482
  224MOL0     H30187   7.752   6.840   8.784  0.6745  1.0222 -1.2791
  224MOL0     H30188   7.707   6.716   8.662 -0.3487  1.5367 -0.1753
  224MOL0     H30189   7.910   6.697   8.887 -0.5187  0.3762  0.0955
  224MOL0     H30190   7.912   6.585   8.752 -1.9196 -2.7234  0.9384
  224MOL0     H30191   7.636   6.708   8.995  0.1824 -0.1161  1.9768
  224MOL0     H30192   7.471   6.422   9.169  2.4105 -1.4117 -2.1059
  224MOL0     H30193   7.449   6.602   9.148 -1.9224  1.1324 -0.7701
  224MOL0     H30194   7.240   6.464   9.090  0.1646  3.0711  2.7793
  224MOL0     H30195   7.308   6.443   8.925 -1.8083  3.4825 -1.6565
  224MOL0     H30196   7.342   6.693   8.935 -1.2731  0.8707 -0.0964
  224MOL0     H30197   7.255   6.699   9.082  1.7295 -3.5722  2.4286
  224MOL0     H30198   7.057   6.560   8.975  0.5431  0.4926  0.2878
  224MOL0     H30199   7.145   6.582   8.827  0.5971  3.8345 -2.3657
  224MOL0     H30200   6.999   6.678   9.152  0.5762 -1.3868 -0.5493
  224MOL0     H30201   6.764   6.730   9.399 -1.2075 -1.1858  0.4468
  224MOL0     H30202   6.690   6.595   9.305  1.1885 -0.3522 -1.7410
  224MOL0     H30203   6.863   6.607   9.332  0.1726 -1.2616 -3.3825
  224MOL0     H30204   6.422   7.032   9.337  0.1665  0.3812 -0.2383
  224MOL0     H30205   6.198   7.081   9.443  1.5581  0.2770  0.5881
  224MOL0     H30206   5.841   7.114   9.460  1.3123  0.3350  0.6367
  224MOL0     H30207   5.972   7.207   9.389  0.1353 -0.3435  1.5738
  224MOL0     H30208   5.774   7.264   9.276 -1.9650 -0.3435 -0.5526
  224MOL0     H30209   5.883   7.169   9.179  1.4069  0.1922  2.0150
  224MOL0     H30210   5.739   6.962   9.224  2.0586  0.7137  3.3194
  224MOL0     H30211   5.662   7.089   9.122 -1.4332 -0.7396 -0.5594
  224MOL0     H30212   5.618   7.051   9.427  2.1382 -0.5332 -1.2612
  224MOL0     H30213   5.559   7.188   9.347  1.9841  1.0726  0.2627
  224MOL0     H30214   5.485   6.892   9.286  3.2964  0.6888 -1.6755
  224MOL0     H30215   5.408   7.032   9.200  0.7406  0.9942  0.0196
  224MOL0     H30216   5.393   7.017   9.487 -0.2017  0.9709 -0.4338
  224MOL0     H30217   5.284   7.101   9.386 -0.5491  0.0297  1.2205
  224MOL0     H30218   5.295   6.805   9.430  1.7151 -0.6613 -1.0333
  224MOL0     H30219   5.228   6.867   9.275 -0.0686  0.6322  1.0736
  224MOL0     H30220   5.047   6.839   9.420  4.6283 -2.9774 -1.1712
  224MOL0     H30221   5.066   7.004   9.363  0.2839  1.7624  1.5335
  224MOL0     H30222   6.007   6.894   9.118  1.4574 -4.3107 -0.8299
  224MOL0     H30223   6.223   6.851   8.995 -1.8220 -0.9360 -1.1325
  224MOL0     H30224   6.648   6.949   8.943  1.1286  0.5455  0.8559
  224MOL0     H30225   6.844   6.896   8.822  2.4035 -3.0974 -0.8226
  224MOL0     H30226   7.964   7.254   8.120 -1.6283  2.3001 -1.3844
  224MOL0     H30227   7.831   7.356   7.940 -0.2191 -0.4754  4.0142
  224MOL0     H30228   7.349   7.233   7.819  1.8417  2.6369  1.8560
  224MOL0     H30229   7.202   7.342   7.688  1.0605  2.2606  2.5188
  224MOL0     H30230   7.238   7.254   7.355  1.9016  1.5088  3.3205
  224MOL0     H30231   7.074   7.319   7.371  0.3445 -0.0418 -2.0327
  224MOL0     H30232   7.280   7.388   7.160  0.2432  1.1623 -0.2866
  224MOL0     H30233   7.168   7.517   7.221 -2.6012 -1.3568  1.0643
  224MOL0     H30234   6.975   7.407   7.166  0.7689  2.1822 -0.2681
  224MOL0     H30235   7.044   7.257   7.143 -0.8026  0.2948  0.6203
  224MOL0     H30236   7.168   7.358   6.938 -1.4152 -0.9598 -2.2311
  224MOL0     H30237   7.089   7.517   6.982 -3.3563 -0.7222  0.3285
  224MOL0     H30238   6.808   7.246   6.793 -0.6653  1.3897 -2.3913
  224MOL0     H30239   7.481   7.399   7.370  3.0265  0.3978  1.0262
  224MOL0     H30240   7.655   7.298   7.514  0.8318 -1.3149  0.7722
  225MOL0     O30241   5.807   6.857   1.028 -0.2749  0.2665 -0.2413
  225MOL0     C30242   5.814   6.819   1.141 -0.0867  1.3510  0.1527
  225MOL0     O30243   5.724   6.751   1.202  0.3953  0.7127 -0.1075
  225MOL0     C30244   5.615   6.712   1.138 -0.3161  0.2302  0.3455
  225MOL0     C30245   5.630   6.641   1.017  0.5013 -1.1793  0.5309
  225MOL0     C30246   5.516   6.576   0.968 -0.5171 -0.9408 -0.2288
  225MOL0     C30247   5.388   6.584   1.025 -0.7330 -0.1460 -0.6687
  225MOL0     O30248   5.292   6.522   0.957  0.4421 -0.9446 -0.2703
  225MOL0     C30249   5.153   6.545   1.008 -0.8541 -0.1413 -0.2172
  225MOL0     C30250   5.047   6.482   0.906  0.5888  0.1209 -0.0393
  225MOL0     C30251   5.061   6.562   0.776 -0.2918  0.1879  0.2583
  225MOL0     C30252   4.957   6.512   0.679  0.5933 -0.4501  0.7027
  225MOL0     C30253   4.969   6.560   0.533  0.3689 -0.1822  0.3129
  225MOL0     C30254   4.930   6.710   0.503  0.0609 -0.4019 -0.0184
  225MOL0     C30255   4.923   6.752   0.357  0.0627 -0.1346 -0.1105
  225MOL0     C30256   4.778   6.712   0.308 -0.0780  0.9459 -0.1287
  225MOL0     N30257   4.656   6.785   0.357  0.0048  0.3476  0.7785
  225MOL0     C30258   4.594   6.895   0.296 -0.4855  0.2559 -0.0323
  225MOL0     C30259   4.484   6.916   0.376 -0.2836 -0.2447 -0.4325
  225MOL0     C30260   4.364   7.002   0.341  0.8329  0.0121  1.0411
  225MOL0     C30261   4.377   7.149   0.388  0.0074 -0.8522  0.4729
  225MOL0     C30262   4.257   7.238   0.336  0.2737  0.1817  0.4267
  225MOL0     C30263   4.232   7.356   0.425 -0.1117 -0.1100  0.0555
  225MOL0     O30264   4.121   7.430   0.367 -0.3980 -0.4221 -0.6504
  225MOL0     C30265   4.026   7.499   0.449 -0.6360 -0.1999  0.2762
  225MOL0     C30266   3.920   7.559   0.386 -1.0577 -0.8227  0.0281
  225MOL0     C30267   3.833   7.646   0.447  0.1613  0.7143 -0.1708
  225MOL0     C30268   3.720   7.683   0.347 -0.4530 -0.4041  0.3625
  225MOL0     C30269   3.851   7.685   0.586 -0.1620 -0.1099 -0.0075
  225MOL0     C30270   3.750   7.767   0.656 -0.1734 -0.0575  0.2581
  225MOL0     O30271   3.733   7.736   0.786  0.5051 -0.2947  0.2663
  225MOL0     C30272   3.609   7.766   0.850 -0.0706 -1.2936 -1.0474
  225MOL0     C30273   3.492   7.805   0.782  0.1477  0.1428  0.2061
  225MOL0     C30274   3.374   7.825   0.857  0.4943 -0.0622 -0.4130
  225MOL0     C30275   3.370   7.798   0.997  0.6824 -0.1438  0.4936
  225MOL0     O30276   3.252   7.794   1.068 -0.6701 -0.2049 -0.5996
  225MOL0     C30277   3.123   7.829   1.002  0.0766  0.2256 -0.3395
  225MOL0     C30278   3.015   7.813   1.100  0.5465  0.5133 -0.3242
  225MOL0     C30279   3.014   7.932   1.197  0.5388  0.4231 -0.2418
  225MOL0     C30280   2.923   7.904   1.324 -0.5015  0.8848  0.5169
  225MOL0     C30281   3.020   7.877   1.445  0.3839 -0.7966 -0.2957
  225MOL0     C30282   2.940   7.859   1.582 -0.8098 -0.3547 -0.7516
  225MOL0     C30283   2.908   7.994   1.645  0.1261 -0.5650  0.1317
  225MOL0     C30284   2.885   7.990   1.794  0.4852  0.2427 -0.1181
  225MOL0    Cl30285   2.721   7.924   1.811  0.1512  0.2675  0.2264
  225MOL0     C30286   3.493   7.785   1.067 -0.2599 -0.9217 -0.5166
  225MOL0     C30287   3.610   7.771   0.989  0.6724 -0.4187 -0.1981
  225MOL0     O30288   3.696   7.852   0.591  1.1985  0.0636 -0.5992
  225MOL0     C30289   3.963   7.622   0.645 -0.1354 -0.8064 -0.0977
  225MOL0     C30290   4.048   7.526   0.581  0.0522  0.1272  0.6490
  225MOL0     N30291   4.482   6.828   0.479  0.3856 -1.1394  0.5006
  225MOL0     N30292   4.588   6.753   0.478  0.5781 -0.3078 -0.0788
  225MOL0     C30293   5.376   6.655   1.145  0.2571 -0.3653 -0.3475
  225MOL0     C30294   5.488   6.723   1.199 -0.5926 -0.0836 -0.3068
  225MOL0     C30295   5.941   6.833   1.221  0.5066 -0.4314  0.4547
  225MOL0     C30296   5.946   6.776   1.349  0.1599  0.1945 -0.5357
  225MOL0     C30297   6.067   6.783   1.419 -0.2171 -0.1820  0.7120
  225MOL0     C30298   6.185   6.836   1.365  1.4394  0.7040  0.5267
  225MOL0     O30299   6.312   6.840   1.410 -0.5681  0.2820 -0.9171
  225MOL0     C30300   6.347   6.818   1.546  1.1382  0.3255 -0.2888
  225MOL0     C30301   6.491   6.763   1.570 -0.3933 -1.2342  0.7338
  225MOL0     C30302   6.590   6.880   1.539 -0.3307  0.3093 -0.2953
  225MOL0     C30303   6.560   7.015   1.609 -0.4466  0.2010 -0.1616
  225MOL0     C30304   6.524   7.011   1.751  0.6060 -0.3531  0.1840
  225MOL0     C30305   6.505   6.992   1.871 -0.4773  0.4931 -0.2744
  225MOL0     C30306   6.179   6.889   1.238  0.5404 -0.8284 -0.3705
  225MOL0     C30307   6.056   6.895   1.174  0.1476  0.0736  0.2637
  225MOL0     H30308   5.727   6.627   0.971  0.4881  1.4960 -0.4698
  225MOL0     H30309   5.534   6.515   0.880 -0.6658 -1.1450 -0.1177
  225MOL0     H30310   5.139   6.510   1.111  0.4395 -1.8490 -0.5733
  225MOL0     H30311   5.142   6.653   1.016  3.4377  0.3824  0.8083
  225MOL0     H30312   5.070   6.378   0.881 -0.1545 -0.6386  2.2224
  225MOL0     H30313   4.949   6.483   0.954 -0.0206 -4.4192 -0.7442
  225MOL0     H30314   5.043   6.669   0.788 -0.7034 -0.0662  2.3027
  225MOL0     H30315   5.155   6.542   0.724 -0.0660 -1.1816  1.1528
  225MOL0     H30316   4.966   6.404   0.667  2.8308 -0.0265 -3.0784
  225MOL0     H30317   4.861   6.534   0.727 -0.7143 -1.1967 -1.4204
  225MOL0     H30318   5.071   6.540   0.500  0.2739 -0.7124  0.3243
  225MOL0     H30319   4.905   6.498   0.470  0.6575 -0.0640 -0.0984
  225MOL0     H30320   4.836   6.731   0.555  0.4241  0.5157  0.2791
  225MOL0     H30321   5.012   6.769   0.544 -0.2709 -0.1772  0.3290
  225MOL0     H30322   4.942   6.859   0.346 -1.1337  0.2692  1.4257
  225MOL0     H30323   4.994   6.695   0.297  1.1578  2.4660 -1.4493
  225MOL0     H30324   4.761   6.610   0.345  1.3487  1.0404  0.8194
  225MOL0     H30325   4.770   6.728   0.200 -2.7057  3.7753  0.3371
  225MOL0     H30326   4.625   6.939   0.201 -0.4129 -1.0218 -0.6254
  225MOL0     H30327   4.351   6.986   0.234 -1.9105 -4.3193  1.7723
  225MOL0     H30328   4.275   6.956   0.385  1.6605 -3.5074 -0.6461
  225MOL0     H30329   4.471   7.189   0.347 -0.5617  1.0379  0.9318
  225MOL0     H30330   4.387   7.151   0.497  1.2551  0.4100  0.3659
  225MOL0     H30331   4.173   7.169   0.325  0.9201 -0.2953 -2.2035
  225MOL0     H30332   4.277   7.279   0.236 -0.7584 -0.5970 -0.1238
  225MOL0     H30333   4.328   7.406   0.440  0.5226 -1.2661  0.0358
  225MOL0     H30334   4.212   7.322   0.527 -0.1952 -0.6702 -0.1407
  225MOL0     H30335   3.913   7.546   0.278 -1.3645 -2.3295  0.1971
  225MOL0     H30336   3.759   7.751   0.271 -0.7134 -3.1369 -2.3997
  225MOL0     H30337   3.694   7.590   0.296  1.1101 -2.8304  3.6467
  225MOL0     H30338   3.625   7.719   0.389 -0.2173  0.5182  0.1142
  225MOL0     H30339   3.490   7.809   0.673 -0.3251 -1.7684  0.1018
  225MOL0     H30340   3.283   7.857   0.807 -0.4808 -0.0394  1.3017
  225MOL0     H30341   3.119   7.932   0.966 -2.7974  0.3379  0.0931
  225MOL0     H30342   3.114   7.753   0.924  1.3731  0.8421 -1.1240
  225MOL0     H30343   2.921   7.811   1.045  3.2973  0.1863 -5.6094
  225MOL0     H30344   3.021   7.721   1.159 -0.9707  0.6176  0.0283
  225MOL0     H30345   2.970   8.018   1.145  0.2347 -0.4139 -1.4244
  225MOL0     H30346   3.116   7.955   1.228  1.7661 -2.0828 -2.0491
  225MOL0     H30347   2.852   7.984   1.348  1.2710  3.0778 -1.0597
  225MOL0     H30348   2.865   7.816   1.298 -1.6389  2.2607 -1.9519
  225MOL0     H30349   3.093   7.958   1.444 -0.1518 -0.3116 -1.5094
  225MOL0     H30350   3.071   7.783   1.421 -0.4731 -1.2664 -0.3015
  225MOL0     H30351   2.850   7.799   1.566 -1.1164 -0.6808  1.7405
  225MOL0     H30352   3.009   7.801   1.644  1.5064  2.2565 -0.7136
  225MOL0     H30353   2.834   8.048   1.586 -1.0992 -1.7574  0.5427
  225MOL0     H30354   3.004   8.045   1.635  0.1750 -0.3128  1.6473
  225MOL0     H30355   2.910   8.087   1.837  1.6182  0.3052 -0.8665
  225MOL0     H30356   2.950   7.922   1.850  0.0675 -0.0460  0.0178
  225MOL0     H30357   3.509   7.775   1.174  0.4350  2.6296 -0.1869
  225MOL0     H30358   3.706   7.762   1.039  0.1710 -1.3365  0.6656
  225MOL0     H30359   3.992   7.656   0.743  2.3274 -1.3563 -0.5749
  225MOL0     H30360   4.134   7.485   0.632  0.3226  0.5960  0.5788
  225MOL0     H30361   5.286   6.657   1.205  0.5323  1.3810  0.0922
  225MOL0     H30362   5.498   6.771   1.296  1.4901 -1.7701  0.3997
  225MOL0     H30363   5.859   6.752   1.408  1.3132 -0.3425  1.0132
  225MOL0     H30364   6.072   6.743   1.520 -0.9825 -3.3078 -0.3942
  225MOL0     H30365   6.316   6.908   1.600 -1.3417  0.7525 -2.2436
  225MOL0     H30366   6.278   6.749   1.594  0.7795  1.6584  1.2112
  225MOL0     H30367   6.511   6.672   1.512 -1.3999  0.1624 -1.9794
  225MOL0     H30368   6.513   6.717   1.667  1.1655 -1.6073  0.2355
  225MOL0     H30369   6.603   6.894   1.431  3.3843 -2.5643 -0.4467
  225MOL0     H30370   6.689   6.844   1.570 -0.9429 -1.2931 -0.0848
  225MOL0     H30371   6.488   7.066   1.543  1.8379 -0.6604 -3.6195
  225MOL0     H30372   6.647   7.079   1.594 -0.1778 -0.2898 -0.7097
  225MOL0     H30373   6.467   6.964   1.967  0.4611 -2.0759 -0.5739
  225MOL0     H30374   6.266   6.938   1.197  0.0364 -0.4246 -0.9741
  225MOL0     H30375   6.057   6.935   1.073 -0.7385 -1.4698 -0.3819
  226MOL0     O30376   3.639   0.244   7.112  0.2254 -0.5092  0.7129
  226MOL0     C30377   3.618   0.174   7.208  0.3700 -1.5795 -0.1822
  226MOL0     O30378   3.507   0.173   7.281 -0.3618  0.4055  0.4777
  226MOL0     C30379   3.394   0.232   7.235  0.2097 -0.1265 -0.2576
  226MOL0     C30380   3.296   0.255   7.325  0.4611  0.5214  0.5162
  226MOL0     C30381   3.171   0.315   7.289 -1.1130  0.7041  0.2714
  226MOL0     C30382   3.136   0.330   7.152 -0.4502  0.0005 -0.2422
  226MOL0     O30383   3.007   0.348   7.125  0.1524  0.2526  1.0620
  226MOL0     C30384   2.968   0.330   6.989 -0.4046 -0.2775  0.0910
  226MOL0     C30385   2.815   0.344   6.982  0.2450 -0.4208  0.2133
  226MOL0     C30386   2.765   0.484   7.006  0.3844 -0.4837  0.3755
  226MOL0     C30387   2.624   0.517   6.955 -0.6214  0.5145 -0.2886
  226MOL0     C30388   2.509   0.464   7.040  0.6865  0.8117  0.1213
  226MOL0     C30389   2.463   0.318   6.995  0.4986 -0.0019 -0.4656
  226MOL0     C30390   2.310   0.292   7.046 -0.7003 -0.9324 -0.0138
  226MOL0     C30391   2.272   0.152   7.053  0.5466 -0.1247  0.9711
  226MOL0     N30392   2.215   0.104   6.929  0.1495  0.2312  0.6072
  226MOL0     C30393   2.099   0.030   6.926 -0.4211 -0.4165 -0.0141
  226MOL0     C30394   2.065   0.031   6.793 -0.0388 -0.7279  0.2255
  226MOL0     C30395   1.937  -0.029   6.744  0.4662  0.9813  0.0969
  226MOL0     C30396   1.862   0.067   6.643  0.7927  0.1794  0.0128
  226MOL0     C30397   1.824   0.196   6.706 -0.1050 -0.2960 -0.3497
  226MOL0     C30398   1.705   0.268   6.642  0.2050  0.0672 -0.3855
  226MOL0     O30399   1.582   0.206   6.687 -0.2054  0.2637  0.4659
  226MOL0     C30400   1.464   0.250   6.636 -0.2843 -0.2499 -1.3165
  226MOL0     C30401   1.437   0.353   6.540 -0.4473  0.2193 -0.2903
  226MOL0     C30402   1.310   0.382   6.497 -0.1832  0.8416  0.9871
  226MOL0     C30403   1.309   0.489   6.383  0.4631  0.0399 -0.4154
  226MOL0     C30404   1.208   0.309   6.552  0.2601  0.4796  0.4004
  226MOL0     C30405   1.065   0.320   6.501 -0.6629 -0.4863 -0.3328
  226MOL0     O30406   1.005   0.444   6.491  0.4726 -0.8413 -0.3726
  226MOL0     C30407   0.887   0.437   6.431  0.8981 -0.4141  0.6351
  226MOL0     C30408   0.883   0.486   6.298  0.4619 -0.2794 -0.6676
  226MOL0     C30409   0.766   0.483   6.220 -0.2547 -0.0514 -0.4307
  226MOL0     C30410   0.636   0.446   6.276 -0.1872 -0.7861  0.2584
  226MOL0     O30411   0.519   0.446   6.197  0.0085  0.0310 -0.2869
  226MOL0     C30412   0.389   0.447   6.259 -0.7657  0.0400  0.8371
  226MOL0     C30413   0.285   0.488   6.147 -0.6207  0.5933  0.3211
  226MOL0     C30414   0.144   0.497   6.191  0.3990 -0.0374  0.3306
  226MOL0     C30415   0.044   0.555   6.089  0.1663 -0.7269 -0.4576
  226MOL0     C30416  -0.105   0.538   6.137 -0.8580 -0.3666 -0.8025
  226MOL0     C30417  -0.214   0.609   6.056 -0.1148 -0.0185  0.3886
  226MOL0     C30418  -0.349   0.585   6.128  0.1432  0.1533  0.3786
  226MOL0     C30419  -0.453   0.667   6.055  0.0937 -0.3972  0.4272
  226MOL0    Cl30420  -0.458   0.839   6.112  0.1562  0.3032  0.0229
  226MOL0     C30421   0.642   0.411   6.412 -0.1390  0.8999  0.3177
  226MOL0     C30422   0.761   0.408   6.491 -0.1103  0.1068  1.0405
  226MOL0     O30423   1.012   0.217   6.479 -0.2704  0.1382  0.8151
  226MOL0     C30424   1.229   0.215   6.649  0.2847  0.1502 -0.4970
  226MOL0     C30425   1.359   0.188   6.702  0.2382 -0.0207  0.0451
  226MOL0     N30426   2.157   0.108   6.723 -0.2278 -0.0959  0.1891
  226MOL0     N30427   2.250   0.152   6.806  0.0689 -0.6965 -0.1385
  226MOL0     C30428   3.239   0.306   7.059  0.1474 -0.2014  1.0208
  226MOL0     C30429   3.362   0.255   7.099 -0.1270 -0.2756 -0.3286
  226MOL0     C30430   3.731   0.090   7.248 -0.6545 -0.4175  0.2418
  226MOL0     C30431   3.710  -0.020   7.341  0.0975  0.4649 -1.3152
  226MOL0     C30432   3.806  -0.117   7.366  1.2441 -0.2471  0.1786
  226MOL0     C30433   3.933  -0.106   7.302  0.4833  0.9134 -0.0854
  226MOL0     O30434   4.021  -0.213   7.310  0.3708  0.8247  0.4125
  226MOL0     C30435   4.161  -0.206   7.277  0.4673 -0.1390  0.3315
  226MOL0     C30436   4.173  -0.245   7.135  0.1359 -0.4265  0.0771
  226MOL0     C30437   4.077  -0.358   7.092 -0.2271 -0.8023 -0.1134
  226MOL0     C30438   4.086  -0.391   6.941  0.0103 -0.3793 -0.5767
  226MOL0     C30439   4.222  -0.446   6.911  0.5091 -0.1449 -0.4729
  226MOL0     C30440   4.329  -0.487   6.874 -0.0309 -0.1568  0.5632
  226MOL0     C30441   3.948   0.001   7.218 -0.8059  0.0022 -0.0073
  226MOL0     C30442   3.857   0.100   7.199 -0.0474  0.0352  0.4898
  226MOL0     H30443   3.334   0.220   7.420  1.7053 -0.3461 -0.2742
  226MOL0     H30444   3.093   0.333   7.363 -2.1093 -2.1216  0.0252
  226MOL0     H30445   3.016   0.405   6.925 -0.4336 -0.4569 -0.1474
  226MOL0     H30446   2.986   0.230   6.948 -1.1836 -0.0192 -0.9308
  226MOL0     H30447   2.773   0.296   6.893  1.5050 -0.9625 -0.1111
  226MOL0     H30448   2.772   0.276   7.056 -3.6199  3.1931  1.6508
  226MOL0     H30449   2.778   0.515   7.110  0.6391 -2.7412  1.0630
  226MOL0     H30450   2.815   0.556   6.941 -1.7668  2.0696  1.3543
  226MOL0     H30451   2.609   0.626   6.958 -0.4626  0.7556 -3.9711
  226MOL0     H30452   2.624   0.493   6.848  1.2298 -0.3035 -0.1431
  226MOL0     H30453   2.527   0.467   7.147  0.2977 -2.1481  0.3612
  226MOL0     H30454   2.418   0.522   7.021  0.0741  0.4904  1.8845
  226MOL0     H30455   2.470   0.319   6.886  0.9508 -0.1926 -0.4378
  226MOL0     H30456   2.531   0.243   7.036  1.2388  1.0031  0.1767
  226MOL0     H30457   2.287   0.333   7.145  0.7177 -1.1512  0.4306
  226MOL0     H30458   2.251   0.346   6.971 -0.7235 -1.4725 -0.3890
  226MOL0     H30459   2.198   0.132   7.131 -0.0266 -2.9081 -0.1464
  226MOL0     H30460   2.364   0.098   7.076  0.6434 -0.9712 -1.1995
  226MOL0     H30461   2.055  -0.023   7.009  0.9278  1.6318  2.1256
  226MOL0     H30462   1.973  -0.106   6.674  0.8285  0.6508  0.6390
  226MOL0     H30463   1.871  -0.079   6.816 -1.5298 -0.2553 -2.4275
  226MOL0     H30464   1.765   0.022   6.620  1.2900 -0.7824 -0.2644
  226MOL0     H30465   1.913   0.082   6.547  1.7459 -1.1206  0.2894
  226MOL0     H30466   1.913   0.260   6.701  0.7009 -1.1868  1.4896
  226MOL0     H30467   1.793   0.190   6.811 -1.9400  1.7422 -0.7060
  226MOL0     H30468   1.708   0.257   6.533  0.5292 -1.3145 -0.2456
  226MOL0     H30469   1.701   0.375   6.667  0.6081 -0.1440  0.6026
  226MOL0     H30470   1.531   0.387   6.499 -0.8371  0.5165 -0.9521
  226MOL0     H30471   1.214   0.490   6.330 -0.6802 -2.1218  1.4207
  226MOL0     H30472   1.316   0.593   6.417  3.6834 -0.5250  1.0972
  226MOL0     H30473   1.396   0.474   6.319 -0.0855 -1.5678 -0.8474
  226MOL0     H30474   0.973   0.517   6.245  0.1268  0.1973 -0.9671
  226MOL0     H30475   0.761   0.521   6.119 -4.0260  0.4843 -0.2092
  226MOL0     H30476   0.364   0.345   6.292  0.1558 -0.9821 -1.4257
  226MOL0     H30477   0.387   0.518   6.342  1.8705 -0.1174  1.1034
  226MOL0     H30478   0.320   0.586   6.114 -1.4769  0.3773 -1.3392
  226MOL0     H30479   0.281   0.422   6.060 -0.2175 -0.4334  1.0658
  226MOL0     H30480   0.146   0.546   6.289  2.3814  1.4059 -0.3799
  226MOL0     H30481   0.115   0.393   6.213  1.6589 -0.3301  0.7149
  226MOL0     H30482   0.064   0.662   6.086 -1.3203 -0.3420  1.6142
  226MOL0     H30483   0.053   0.518   5.986  0.1626  0.1853 -0.7949
  226MOL0     H30484  -0.117   0.581   6.237 -1.1128 -0.3226 -0.8522
  226MOL0     H30485  -0.127   0.431   6.150  1.2324 -0.7154  0.4483
  226MOL0     H30486  -0.194   0.717   6.054 -1.0633  0.1718  0.5982
  226MOL0     H30487  -0.210   0.567   5.955  1.7557 -0.4271  0.6111
  226MOL0     H30488  -0.351   0.601   6.236 -2.2740 -3.1517  0.9614
  226MOL0     H30489  -0.377   0.480   6.118 -0.0581  0.2017  0.4443
  226MOL0     H30490  -0.552   0.621   6.057 -0.0843 -0.0777 -0.4976
  226MOL0     H30491  -0.422   0.675   5.950 -0.5424 -2.4396  0.0439
  226MOL0     H30492   0.553   0.373   6.462  0.7736  1.7546  2.7412
  226MOL0     H30493   0.759   0.385   6.597  0.6367  1.8696  1.4812
  226MOL0     H30494   1.144   0.163   6.693  0.8321 -0.1829  0.1938
  226MOL0     H30495   1.378   0.123   6.787  4.1299  1.1080  0.2456
  226MOL0     H30496   3.214   0.317   6.954 -1.9738  0.1385  1.5087
  226MOL0     H30497   3.427   0.222   7.019  0.7609  0.1186  0.2150
  226MOL0     H30498   3.614  -0.028   7.391 -0.9440  0.1292 -3.2865
  226MOL0     H30499   3.779  -0.199   7.432 -1.2029  1.9719  2.2146
  226MOL0     H30500   4.202  -0.106   7.290  2.3956 -0.7647 -0.4925
  226MOL0     H30501   4.207  -0.278   7.346  1.0515  0.6744  0.8067
  226MOL0     H30502   4.275  -0.258   7.098 -0.8550 -1.5088 -2.5085
  226MOL0     H30503   4.138  -0.157   7.080  0.2057 -1.3701 -1.5408
  226MOL0     H30504   3.974  -0.329   7.113  0.1260 -0.3209  1.0571
  226MOL0     H30505   4.101  -0.443   7.155  2.1721  0.2383  0.5098
  226MOL0     H30506   4.064  -0.296   6.892  0.8742 -0.4712 -1.1629
  226MOL0     H30507   4.007  -0.464   6.922 -2.1058  1.3595  0.9584
  226MOL0     H30508   4.426  -0.517   6.841 -0.3905 -2.2665  1.2936
  226MOL0     H30509   4.042   0.022   7.166 -0.7341 -1.4953 -0.5217
  226MOL0     H30510   3.889   0.181   7.134  1.1903 -2.3401 -2.0743
  227MOL0     O30511   8.292   0.269   6.516 -0.5528 -0.2708 -0.4930
  227MOL0     C30512   8.333   0.184   6.441 -0.5736 -0.4926 -1.2768
  227MOL0     O30513   8.459   0.124   6.446  0.5612  0.8157 -0.4598
  227MOL0     C30514   8.539   0.184   6.544  0.3552 -0.0208 -0.3921
  227MOL0     C30515   8.559   0.133   6.676 -0.2310  0.1087  0.1269
  227MOL0     C30516   8.634   0.198   6.776  0.1478 -0.6171  0.2172
  227MOL0     C30517   8.681   0.321   6.744  0.2462 -0.3996 -0.1008
  227MOL0     O30518   8.759   0.376   6.843 -1.0001  0.3071  0.8348
  227MOL0     C30519   8.836   0.485   6.797  0.6120 -0.5890  0.0258
  227MOL0     C30520   8.897   0.563   6.900  0.0542 -0.3287 -0.1295
  227MOL0     C30521   8.999   0.467   6.961 -0.2869  0.3885 -0.5016
  227MOL0     C30522   9.136   0.531   6.955  0.2976 -0.6112  0.7943
  227MOL0     C30523   9.246   0.428   6.998  0.5150 -0.2063 -0.3030
  227MOL0     C30524   9.319   0.385   6.873 -0.8340 -0.3113  0.2081
  227MOL0     C30525   9.407   0.257   6.888 -1.3811 -0.6937 -0.8842
  227MOL0     C30526   9.515   0.282   7.005 -0.3948 -0.7468  0.0587
  227MOL0     N30527   9.620   0.395   6.980 -0.0153 -0.1138  0.7204
  227MOL0     C30528   9.736   0.393   7.057 -0.2439  0.0185 -0.3102
  227MOL0     C30529   9.825   0.472   6.991 -0.1549 -0.0285 -1.4838
  227MOL0     C30530   9.965   0.512   7.031  0.4971  0.0712 -0.3095
  227MOL0     C30531  10.045   0.385   7.014  0.3539  0.5290 -0.6108
  227MOL0     C30532  10.078   0.340   6.871 -0.2381 -0.1759  0.6222
  227MOL0     C30533  10.169   0.437   6.795 -0.2185  1.1034  0.5536
  227MOL0     O30534  10.208   0.388   6.658 -0.3578  0.0228  0.5490
  227MOL0     C30535  10.340   0.392   6.629  0.3833  0.1590 -0.2795
  227MOL0     C30536  10.424   0.310   6.694 -0.5046  1.2449 -0.2294
  227MOL0     C30537  10.564   0.310   6.667  0.0566 -0.0002  0.4487
  227MOL0     C30538  10.653   0.222   6.748  1.0994  0.5890  0.5721
  227MOL0     C30539  10.612   0.393   6.562  0.2554 -0.2793  0.2033
  227MOL0     C30540  10.758   0.394   6.523  0.4916 -0.2521  0.7932
  227MOL0     O30541  10.858   0.361   6.618 -0.3012  0.5370 -0.1386
  227MOL0     C30542  10.990   0.364   6.580 -1.0902  0.5711  0.1193
  227MOL0     C30543  11.086   0.406   6.673 -0.2883  0.3119 -0.5920
  227MOL0     C30544  11.224   0.422   6.638 -0.0439  1.0196 -0.7241
  227MOL0     C30545  11.277   0.395   6.513  0.2034  0.1071  0.1172
  227MOL0     O30546  11.397   0.420   6.472 -0.3980  0.1105  0.8308
  227MOL0     C30547  11.488   0.310   6.489  0.6130 -0.5375  1.0836
  227MOL0     C30548  11.545   0.321   6.627  0.2114  0.2427 -0.1329
  227MOL0     C30549  11.617   0.459   6.654 -0.0452 -0.0270  0.0165
  227MOL0     C30550  11.638   0.477   6.804  0.4700 -0.0251  0.1826
  227MOL0     C30551  11.715   0.605   6.850  0.1173 -0.4595  0.6184
  227MOL0     C30552  11.707   0.614   7.005 -0.1227  0.8710 -0.6702
  227MOL0     C30553  11.756   0.748   7.056 -0.7426 -1.1523  0.4753
  227MOL0     C30554  11.838   0.740   7.186  0.4010  0.0165 -0.3289
  227MOL0    Cl30555  11.940   0.882   7.218  0.3945 -0.2333 -0.1567
  227MOL0     C30556  11.190   0.335   6.422  0.7006  0.5241  0.2581
  227MOL0     C30557  11.049   0.321   6.453  1.0044 -0.0524  0.3335
  227MOL0     O30558  10.784   0.457   6.418 -0.9951  0.2260  0.3542
  227MOL0     C30559  10.522   0.481   6.496  0.4925  0.0136 -0.7608
  227MOL0     C30560  10.386   0.478   6.531  0.8004  0.9309 -0.7477
  227MOL0     N30561   9.768   0.517   6.873 -0.2601 -0.5694 -0.4172
  227MOL0     N30562   9.641   0.477   6.865  0.0682 -0.1608  0.2162
  227MOL0     C30563   8.678   0.368   6.608  0.3135  0.9855 -1.1445
  227MOL0     C30564   8.597   0.310   6.518  0.0364  0.0851 -0.5651
  227MOL0     C30565   8.232   0.125   6.354  0.6231  0.5207  0.4279
  227MOL0     C30566   8.235  -0.015   6.335 -0.1627  0.7027 -0.1858
  227MOL0     C30567   8.148  -0.073   6.240  0.1047  1.0345 -0.8827
  227MOL0     C30568   8.040  -0.003   6.173  0.6633 -0.4090 -0.5630
  227MOL0     O30569   7.952  -0.054   6.080  0.5543  0.5787 -0.2105
  227MOL0     C30570   8.000  -0.121   5.968 -0.5625  0.3792  0.5504
  227MOL0     C30571   8.019  -0.275   5.979  0.4197 -0.3427  0.4414
  227MOL0     C30572   7.897  -0.355   6.026 -0.6862 -0.3237 -0.1812
  227MOL0     C30573   7.907  -0.506   5.996  0.4992  0.3014 -0.2078
  227MOL0     C30574   7.888  -0.551   5.859  0.2867 -0.3370 -0.3431
  227MOL0     C30575   7.889  -0.599   5.743 -0.7374 -0.3191  0.2883
  227MOL0     C30576   8.027   0.133   6.205 -0.0465 -0.1790  0.1513
  227MOL0     C30577   8.121   0.199   6.291  0.5218  0.2587  0.2414
  227MOL0     H30578   8.529   0.030   6.693  1.8717 -0.6304 -0.3193
  227MOL0     H30579   8.641   0.158   6.876 -1.8517  0.4750  0.8499
  227MOL0     H30580   8.917   0.451   6.732  2.3669  2.1787  0.5929
  227MOL0     H30581   8.774   0.555   6.740 -0.2546 -0.5224  1.0119
  227MOL0     H30582   8.946   0.651   6.857 -1.4733  1.3595  1.4348
  227MOL0     H30583   8.818   0.589   6.971 -2.2270  2.2144 -3.2948
  227MOL0     H30584   8.984   0.449   7.068 -0.6684 -2.4100 -0.9372
  227MOL0     H30585   9.010   0.371   6.909  0.4494  1.1813 -1.8787
  227MOL0     H30586   9.156   0.575   6.857  2.2837 -0.7272  1.1147
  227MOL0     H30587   9.142   0.619   7.019  0.1885  1.6162 -2.0364
  227MOL0     H30588   9.322   0.469   7.065  2.6851 -2.1710 -1.3932
  227MOL0     H30589   9.199   0.338   7.038  1.6569 -2.0245 -2.7586
  227MOL0     H30590   9.244   0.345   6.803 -2.9977 -2.9820  3.7206
  227MOL0     H30591   9.381   0.460   6.824 -2.9150  0.3516 -1.5516
  227MOL0     H30592   9.346   0.168   6.905 -2.0503 -0.2095 -0.7140
  227MOL0     H30593   9.469   0.240   6.799  1.3797  1.8314  0.3930
  227MOL0     H30594   9.574   0.190   7.006 -1.3660 -1.3804  0.3452
  227MOL0     H30595   9.463   0.292   7.101  0.3802 -4.2206  0.9821
  227MOL0     H30596   9.756   0.344   7.152 -1.1291  0.8477  0.3149
  227MOL0     H30597  10.010   0.595   6.977 -0.0318 -1.1659 -2.7926
  227MOL0     H30598   9.963   0.537   7.138  0.7413  1.5129 -0.6240
  227MOL0     H30599   9.994   0.304   7.067  0.8468  1.0968  0.7728
  227MOL0     H30600  10.138   0.396   7.071 -0.0521  0.3329  0.0981
  227MOL0     H30601   9.985   0.315   6.821 -0.3127 -2.4003  1.7424
  227MOL0     H30602  10.127   0.242   6.875 -1.5067 -0.7881  2.2572
  227MOL0     H30603  10.262   0.471   6.841  0.0269  1.8916 -0.4712
  227MOL0     H30604  10.117   0.533   6.788  0.1506  1.2171 -0.9676
  227MOL0     H30605  10.396   0.238   6.771  1.7613  1.1651  0.5855
  227MOL0     H30606  10.592   0.135   6.774 -0.7548  1.1569 -1.6596
  227MOL0     H30607  10.734   0.179   6.687  0.1922  0.3508 -0.4905
  227MOL0     H30608  10.681   0.270   6.843  3.2491  0.9029 -0.1560
  227MOL0     H30609  11.061   0.429   6.776  3.4357  1.2792  0.2678
  227MOL0     H30610  11.294   0.450   6.717 -0.4310 -2.1841  0.9130
  227MOL0     H30611  11.452   0.209   6.467 -1.9081 -0.2035  3.1911
  227MOL0     H30612  11.571   0.334   6.421 -2.4411  2.9480 -1.8521
  227MOL0     H30613  11.470   0.309   6.706 -0.1764 -1.4326 -0.7028
  227MOL0     H30614  11.626   0.249   6.640  0.3744  0.5537  0.6618
  227MOL0     H30615  11.555   0.539   6.613 -0.6961 -2.1999 -3.6778
  227MOL0     H30616  11.708   0.454   6.594 -1.2282  0.9763 -1.9478
  227MOL0     H30617  11.541   0.478   6.855 -0.9118 -0.3374 -2.2943
  227MOL0     H30618  11.685   0.389   6.849  1.0804  0.9480  1.5082
  227MOL0     H30619  11.659   0.689   6.807 -1.5572 -1.6695  0.3108
  227MOL0     H30620  11.814   0.611   6.804 -0.2495  2.6724 -0.0077
  227MOL0     H30621  11.606   0.598   7.046  0.2375 -0.7514 -0.3311
  227MOL0     H30622  11.766   0.530   7.043  1.5900  0.8526 -3.1929
  227MOL0     H30623  11.684   0.828   7.073  0.1338  0.0569 -1.1819
  227MOL0     H30624  11.827   0.788   6.983 -0.8742 -0.4775  0.7133
  227MOL0     H30625  11.913   0.663   7.169 -0.7453 -0.6166 -3.2208
  227MOL0     H30626  11.773   0.710   7.268 -2.2305 -0.0420 -2.2811
  227MOL0     H30627  11.226   0.305   6.324 -0.4297 -0.2404  0.0567
  227MOL0     H30628  10.985   0.278   6.377  2.3545  1.5497 -1.8595
  227MOL0     H30629  10.557   0.546   6.416  0.4889 -0.1214 -0.8725
  227MOL0     H30630  10.318   0.554   6.495  1.6665  1.1756 -1.9322
  227MOL0     H30631   8.720   0.459   6.567  3.0128 -0.3022 -1.4099
  227MOL0     H30632   8.596   0.356   6.419  0.5257 -2.0441 -1.6230
  227MOL0     H30633   8.311  -0.081   6.374 -0.5875  0.7743  0.7777
  227MOL0     H30634   8.166  -0.175   6.208 -2.9153  0.6338 -1.6419
  227MOL0     H30635   7.942  -0.097   5.878  1.4314  0.9075 -0.6672
  227MOL0     H30636   8.097  -0.078   5.940 -0.1062 -1.5723 -1.0931
  227MOL0     H30637   8.108  -0.287   6.042 -0.6510  1.9186  2.5614
  227MOL0     H30638   8.039  -0.308   5.877 -0.8696 -1.0339  0.3925
  227MOL0     H30639   7.802  -0.312   5.993 -0.3291  1.8056  1.4019
  227MOL0     H30640   7.906  -0.343   6.134  0.4481 -1.6798 -0.0905
  227MOL0     H30641   7.831  -0.554   6.059 -0.2721  1.4902 -0.2107
  227MOL0     H30642   8.005  -0.542   6.028  1.9168  3.7236 -0.2407
  227MOL0     H30643   7.884  -0.642   5.645  2.7673 -0.8399  0.2079
  227MOL0     H30644   7.944   0.186   6.161 -1.1756 -1.7215  0.3041
  227MOL0     H30645   8.117   0.307   6.305 -0.9028  0.3572 -0.6288
  228MOL0     O30646   8.712   2.780   4.743  0.4604 -1.2906 -0.4938
  228MOL0     C30647   8.596   2.759   4.709 -0.3418  0.6093  0.4576
  228MOL0     O30648   8.514   2.825   4.621 -0.2472  0.7899 -0.4587
  228MOL0     C30649   8.573   2.939   4.568 -0.7403  0.4143  0.8583
  228MOL0     C30650   8.681   2.934   4.472  0.3047  0.2564  0.2153
  228MOL0     C30651   8.746   3.043   4.426  0.3462 -0.6722 -0.1674
  228MOL0     C30652   8.701   3.166   4.479  0.0133 -0.3571  0.1695
  228MOL0     O30653   8.757   3.283   4.436 -0.2254 -0.2494  0.0361
  228MOL0     C30654   8.681   3.373   4.355  0.8390  0.6435  0.0128
  228MOL0     C30655   8.741   3.519   4.359 -0.0187 -0.1623  0.2437
  228MOL0     C30656   8.877   3.522   4.287  0.1708  0.1161 -0.4558
  228MOL0     C30657   8.933   3.659   4.293  0.5458 -0.0847 -0.3378
  228MOL0     C30658   9.052   3.675   4.195 -0.2866  0.6162 -0.3367
  228MOL0     C30659   9.130   3.815   4.202  0.9471  0.3384 -0.3212
  228MOL0     C30660   9.261   3.806   4.121 -0.8242  0.2200  0.1970
  228MOL0     C30661   9.265   3.748   3.984 -0.5494 -0.7580 -0.1826
  228MOL0     N30662   9.185   3.817   3.887  0.2729  1.1144  0.3682
  228MOL0     C30663   9.189   3.950   3.864 -0.7961  0.2688  0.7779
  228MOL0     C30664   9.144   3.963   3.738 -0.6016  0.2562 -0.2312
  228MOL0     C30665   9.134   4.085   3.651  0.5625  0.3822  0.2746
  228MOL0     C30666   9.002   4.161   3.669  0.0641 -0.3799 -0.1427
  228MOL0     C30667   9.016   4.237   3.796  0.9324  0.2769  0.2712
  228MOL0     C30668   8.873   4.301   3.841 -0.1117  0.0388 -0.3548
  228MOL0     O30669   8.899   4.381   3.960 -0.6121  1.5605  0.1349
  228MOL0     C30670   8.847   4.327   4.076  0.8198 -0.4257 -0.5110
  228MOL0     C30671   8.903   4.217   4.146  0.8968  0.3560  0.0333
  228MOL0     C30672   8.857   4.183   4.270  0.8472  0.4506  0.2273
  228MOL0     C30673   8.930   4.079   4.349  0.1322  0.0615 -1.1658
  228MOL0     C30674   8.758   4.265   4.333  0.7882 -0.2020 -0.0087
  228MOL0     C30675   8.716   4.247   4.475  0.4254  0.0914 -0.4512
  228MOL0     O30676   8.745   4.134   4.552  0.4390 -0.1454 -0.0024
  228MOL0     C30677   8.726   4.143   4.685 -0.0910 -0.2603 -0.9132
  228MOL0     C30678   8.614   4.086   4.751  0.4798  0.1276 -0.9146
  228MOL0     C30679   8.591   4.085   4.891  0.4727 -1.1673 -0.2735
  228MOL0     C30680   8.699   4.145   4.971 -0.8755  0.5281  0.3377
  228MOL0     O30681   8.692   4.137   5.110  0.4417  0.0030 -0.1881
  228MOL0     C30682   8.736   4.257   5.189 -0.6911  0.6159 -0.3924
  228MOL0     C30683   8.673   4.253   5.329  0.6461  0.3041  0.2523
  228MOL0     C30684   8.752   4.179   5.436 -0.3079  0.4177 -1.3287
  228MOL0     C30685   8.790   4.030   5.407 -0.7889 -0.2385 -0.1091
  228MOL0     C30686   8.665   3.938   5.420  0.7266  0.3378  0.4718
  228MOL0     C30687   8.713   3.798   5.389  0.8463  0.3777  0.5376
  228MOL0     C30688   8.600   3.700   5.358  0.2525 -0.3013 -0.3976
  228MOL0     C30689   8.652   3.570   5.326  0.2200  0.5712  0.1186
  228MOL0    Cl30690   8.509   3.464   5.268 -0.2813 -0.1631  0.3504
  228MOL0     C30691   8.820   4.190   4.905  0.6804  1.0740 -0.7398
  228MOL0     C30692   8.822   4.195   4.763 -0.6230 -0.7828 -0.9738
  228MOL0     O30693   8.643   4.336   4.517 -0.2232  0.7751  0.1160
  228MOL0     C30694   8.703   4.377   4.260  0.0852 -0.3560 -0.7059
  228MOL0     C30695   8.745   4.399   4.136  0.4630 -0.7229 -0.3939
  228MOL0     N30696   9.111   3.840   3.692  0.5978  1.1080 -0.5477
  228MOL0     N30697   9.146   3.753   3.776 -0.3281 -0.0824  0.9331
  228MOL0     C30698   8.597   3.168   4.574 -0.8546  0.5025 -0.4542
  228MOL0     C30699   8.530   3.057   4.619 -0.2004  0.0751  0.7875
  228MOL0     C30700   8.521   2.664   4.795 -0.5300 -0.0042 -0.0104
  228MOL0     C30701   8.415   2.582   4.749 -0.1996 -0.3069 -0.3587
  228MOL0     C30702   8.345   2.501   4.842 -0.4612 -0.3246 -0.1029
  228MOL0     C30703   8.383   2.493   4.979 -0.1282  1.5136 -0.4914
  228MOL0     O30704   8.314   2.414   5.075 -0.2403 -0.7759 -0.1879
  228MOL0     C30705   8.185   2.368   5.029  0.7789  0.5729  0.2126
  228MOL0     C30706   8.082   2.342   5.143  0.2410 -0.4945  0.1342
  228MOL0     C30707   8.123   2.224   5.234 -0.4267  0.0424 -0.5936
  228MOL0     C30708   8.113   2.089   5.155 -0.1931 -0.2928  0.6828
  228MOL0     C30709   8.137   1.976   5.249  0.4439 -1.0798  0.6418
  228MOL0     C30710   8.154   1.880   5.311 -0.2163 -0.3559 -0.1990
  228MOL0     C30711   8.491   2.579   5.024  0.1535  0.6977  0.6908
  228MOL0     C30712   8.556   2.660   4.930 -0.4172 -1.0765 -0.3142
  228MOL0     H30713   8.691   2.830   4.444  2.7259 -0.1453  2.2823
  228MOL0     H30714   8.824   3.037   4.350 -0.5542 -0.4061 -1.1303
  228MOL0     H30715   8.689   3.342   4.250 -1.8141  0.5617 -0.2523
  228MOL0     H30716   8.581   3.372   4.400  0.4427  2.2908 -0.7549
  228MOL0     H30717   8.674   3.597   4.322  1.0140  0.6083 -0.0578
  228MOL0     H30718   8.768   3.545   4.462  1.4582  2.1196 -0.6293
  228MOL0     H30719   8.958   3.467   4.336 -0.5613  1.1733  2.0990
  228MOL0     H30720   8.852   3.483   4.187  0.3272  0.7945 -0.7643
  228MOL0     H30721   8.850   3.725   4.268 -0.4116 -1.0991  0.0737
  228MOL0     H30722   8.967   3.672   4.396  0.1201  1.8853 -0.4210
  228MOL0     H30723   9.122   3.593   4.212  0.8494  1.9035  1.4768
  228MOL0     H30724   9.004   3.662   4.097 -2.9703  1.0568  0.8230
  228MOL0     H30725   9.061   3.886   4.154 -0.3182 -1.1337 -0.7645
  228MOL0     H30726   9.154   3.858   4.300  0.1189  3.2723 -1.2789
  228MOL0     H30727   9.300   3.908   4.124 -3.2993  1.2268  1.4385
  228MOL0     H30728   9.337   3.743   4.169 -0.3455  0.4179 -0.3049
  228MOL0     H30729   9.236   3.642   3.989  0.4319 -1.0529 -0.4446
  228MOL0     H30730   9.369   3.748   3.950 -0.5966  0.3294 -0.3621
  228MOL0     H30731   9.232   4.038   3.912 -0.5668  1.9231 -2.2171
  228MOL0     H30732   9.216   4.157   3.661  0.2692  0.8148 -0.3615
  228MOL0     H30733   9.139   4.040   3.551 -1.4723 -0.9498  0.7202
  228MOL0     H30734   8.917   4.092   3.671 -1.1672  1.0935  0.6498
  228MOL0     H30735   8.979   4.236   3.593 -5.0617  0.6537  2.0347
  228MOL0     H30736   9.078   4.325   3.781 -1.7879  2.5923  1.5263
  228MOL0     H30737   9.043   4.167   3.875 -0.4546  0.2191  0.7333
  228MOL0     H30738   8.797   4.226   3.862 -3.8546  2.9406 -2.3395
  228MOL0     H30739   8.839   4.372   3.765 -0.0928  0.5229  0.0789
  228MOL0     H30740   8.982   4.165   4.093 -2.0928 -1.9647 -2.5003
  228MOL0     H30741   8.866   3.996   4.381  1.2562  0.5180  2.9279
  228MOL0     H30742   9.026   4.055   4.301  0.6918  0.7941 -0.4455
  228MOL0     H30743   8.955   4.133   4.442  0.0035 -2.7311  0.5961
  228MOL0     H30744   8.534   4.049   4.687 -0.5681  2.0886 -0.7876
  228MOL0     H30745   8.502   4.045   4.938 -0.2790  0.7247  0.0029
  228MOL0     H30746   8.843   4.243   5.203 -1.1486 -1.6163  1.4431
  228MOL0     H30747   8.714   4.352   5.140 -1.3507  0.2819 -0.7575
  228MOL0     H30748   8.670   4.354   5.369 -0.9886  0.4580 -0.1996
  228MOL0     H30749   8.568   4.223   5.332 -0.1613  2.9975  1.6361
  228MOL0     H30750   8.696   4.195   5.528  0.8015  0.7260 -0.6891
  228MOL0     H30751   8.842   4.241   5.446  0.2950 -0.5887 -0.2376
  228MOL0     H30752   8.837   4.022   5.309  3.0655  2.8733  1.2177
  228MOL0     H30753   8.867   4.009   5.482  0.6007  3.5519 -0.2777
  228MOL0     H30754   8.588   3.964   5.347  2.5073  2.2336 -0.8723
  228MOL0     H30755   8.610   3.939   5.514  0.4543 -0.8162  0.3270
  228MOL0     H30756   8.784   3.800   5.306  0.1073  2.8147 -0.0981
  228MOL0     H30757   8.769   3.761   5.476 -0.4704  1.8780  2.0929
  228MOL0     H30758   8.533   3.737   5.279  1.8822 -0.3082 -1.8390
  228MOL0     H30759   8.542   3.682   5.449  0.8260  2.2906  0.5660
  228MOL0     H30760   8.704   3.537   5.416  0.5491  0.4724 -0.1053
  228MOL0     H30761   8.721   3.575   5.241 -1.0474  2.0746 -0.8728
  228MOL0     H30762   8.910   4.233   4.949 -0.0692  1.6932  0.2383
  228MOL0     H30763   8.911   4.237   4.717 -1.8040  1.6291 -1.2129
  228MOL0     H30764   8.628   4.443   4.303  2.3256  1.9577 -0.1500
  228MOL0     H30765   8.713   4.484   4.077 -0.1725 -0.2684  0.5830
  228MOL0     H30766   8.574   3.267   4.612  0.2417  1.0593 -1.1924
  228MOL0     H30767   8.455   3.075   4.695  2.5013  2.7026  3.0883
  228MOL0     H30768   8.383   2.601   4.647 -0.6447  1.9230  0.1377
  228MOL0     H30769   8.254   2.462   4.798 -1.6164  1.4914  0.5842
  228MOL0     H30770   8.127   2.436   4.967 -0.2548  1.3854  2.0244
  228MOL0     H30771   8.197   2.271   4.979 -1.0513 -0.0583  0.9177
  228MOL0     H30772   7.987   2.318   5.094  1.5129 -1.6264 -1.9296
  228MOL0     H30773   8.060   2.434   5.197 -0.3080 -1.2794  1.2798
  228MOL0     H30774   8.053   2.221   5.318  0.2314  1.9575  0.0767
  228MOL0     H30775   8.223   2.245   5.273 -1.6696  2.0129  1.8490
  228MOL0     H30776   8.178   2.084   5.068 -0.5916 -0.1483  0.3716
  228MOL0     H30777   8.009   2.085   5.122  0.1433  2.4951 -1.0740
  228MOL0     H30778   8.168   1.787   5.362  0.0681 -0.9359 -1.2882
  228MOL0     H30779   8.519   2.593   5.128  0.2111  1.0973  0.6234
  228MOL0     H30780   8.635   2.725   4.967 -1.6520 -0.5786  1.5724
  229MOL0     O30781   2.018   0.313   1.609 -0.5732 -0.4217 -0.8184
  229MOL0     C30782   2.126   0.273   1.646  0.3848  0.0054  0.0071
  229MOL0     O30783   2.185   0.295   1.764 -0.5324  0.5256 -0.0436
  229MOL0     C30784   2.133   0.382   1.853 -0.2995  0.0665 -0.4719
  229MOL0     C30785   2.086   0.510   1.817 -0.0866  0.0489 -0.0546
  229MOL0     C30786   2.039   0.602   1.911  0.1028 -0.6941  0.1287
  229MOL0     C30787   2.040   0.568   2.050 -0.7856  0.0059 -0.2530
  229MOL0     O30788   1.995   0.658   2.149 -0.2993 -0.6434  0.3180
  229MOL0     C30789   1.895   0.765   2.121  0.3030  1.5378 -0.0665
  229MOL0     C30790   1.860   0.813   2.255  0.5364  0.0054  0.0028
  229MOL0     C30791   1.749   0.916   2.267  0.0839  0.3098 -0.3433
  229MOL0     C30792   1.731   0.962   2.409  0.0733  0.2442  0.5002
  229MOL0     C30793   1.610   1.044   2.431 -0.1538  0.4890  0.2146
  229MOL0     C30794   1.488   0.953   2.454  0.5798  0.2407 -0.8478
  229MOL0     C30795   1.370   1.044   2.498  0.4371  0.1988 -0.2641
  229MOL0     C30796   1.234   0.982   2.485 -0.0617  0.4501 -0.2017
  229MOL0     N30797   1.130   1.074   2.528 -0.0187 -0.3163  0.5066
  229MOL0     C30798   1.003   1.034   2.560 -1.3423 -1.0913  0.6277
  229MOL0     C30799   0.953   1.141   2.631 -0.3554  0.5309  0.0804
  229MOL0     C30800   0.818   1.143   2.689 -0.0504  0.4494 -0.2724
  229MOL0     C30801   0.794   1.201   2.832  0.2627 -0.1113 -1.0344
  229MOL0     C30802   0.694   1.114   2.905  0.5427  0.1643 -0.0052
  229MOL0     C30803   0.652   1.185   3.031  0.4942 -0.4872 -0.8128
  229MOL0     O30804   0.598   1.316   3.019  0.1377 -0.1191  0.5177
  229MOL0     C30805   0.465   1.332   3.008 -0.1009  0.0515  0.0619
  229MOL0     C30806   0.425   1.433   2.924  0.0308  0.0407 -0.3435
  229MOL0     C30807   0.291   1.460   2.904 -0.3630 -0.5219  0.4639
  229MOL0     C30808   0.264   1.572   2.804 -0.5258 -0.0391  0.0178
  229MOL0     C30809   0.190   1.373   2.960  0.5399  0.1756 -0.4570
  229MOL0     C30810   0.047   1.385   2.929 -0.0891  0.0033  0.2019
  229MOL0     O30811  -0.001   1.478   2.834  0.3302 -0.2033  0.2697
  229MOL0     C30812  -0.132   1.493   2.791 -0.5902  0.2306 -1.7305
  229MOL0     C30813  -0.176   1.625   2.772  0.9702 -0.6118  0.8532
  229MOL0     C30814  -0.313   1.647   2.732  0.3429  0.3629 -0.8652
  229MOL0     C30815  -0.400   1.539   2.706  0.3235 -0.8483 -0.4415
  229MOL0     O30816  -0.519   1.556   2.639  0.4384 -0.8911 -0.6916
  229MOL0     C30817  -0.575   1.682   2.611  0.6408 -0.1915 -0.1499
  229MOL0     C30818  -0.717   1.674   2.547 -0.6068  1.2201 -0.3934
  229MOL0     C30819  -0.748   1.804   2.474  0.2026 -0.0075  0.7303
  229MOL0     C30820  -0.901   1.818   2.440  0.3309 -0.1384 -0.6979
  229MOL0     C30821  -0.935   1.961   2.384  0.1925 -0.4655  0.2473
  229MOL0     C30822  -1.083   1.997   2.410  0.7052 -0.1667 -0.2044
  229MOL0     C30823  -1.122   2.148   2.379 -0.4589 -0.9597 -0.3721
  229MOL0     C30824  -1.273   2.164   2.412 -0.7160  0.0771  0.8250
  229MOL0    Cl30825  -1.325   2.076   2.564 -0.2654 -0.1982 -0.6385
  229MOL0     C30826  -0.350   1.411   2.730  0.3889 -0.1326  0.2163
  229MOL0     C30827  -0.222   1.387   2.774  0.2668  0.6022  0.7163
  229MOL0     O30828  -0.024   1.297   2.976  0.2475  0.0586  0.2431
  229MOL0     C30829   0.236   1.274   3.050 -0.9096  0.1889  0.9130
  229MOL0     C30830   0.368   1.254   3.074 -0.1892  0.1414  0.4882
  229MOL0     N30831   1.044   1.245   2.632 -0.4687  0.3359  0.0403
  229MOL0     N30832   1.150   1.204   2.570  0.0380 -0.2349 -0.1661
  229MOL0     C30833   2.089   0.449   2.090 -0.7587  0.3195  0.3872
  229MOL0     C30834   2.136   0.361   1.995 -0.6772 -0.6412  0.5902
  229MOL0     C30835   2.210   0.191   1.558  0.3685  0.0497 -0.0300
  229MOL0     C30836   2.160   0.157   1.427 -0.4033 -0.8304 -0.3088
  229MOL0     C30837   2.236   0.069   1.350  0.1203 -0.0650 -0.3892
  229MOL0     C30838   2.369   0.030   1.392  0.6614 -0.3907  0.5258
  229MOL0     O30839   2.434  -0.049   1.302 -0.0691  0.3415 -0.3170
  229MOL0     C30840   2.550  -0.126   1.346  0.1493  0.8937 -0.0041
  229MOL0     C30841   2.510  -0.232   1.457  0.3971  0.6005  0.3388
  229MOL0     C30842   2.375  -0.317   1.425 -0.1332  0.0552  0.2688
  229MOL0     C30843   2.349  -0.385   1.294 -0.0954  0.2598  0.7208
  229MOL0     C30844   2.470  -0.459   1.256 -0.5257  0.4373  0.7695
  229MOL0     C30845   2.576  -0.513   1.233 -0.2119  0.2890  0.8708
  229MOL0     C30846   2.421   0.079   1.515  0.4669 -0.2020  0.8483
  229MOL0     C30847   2.341   0.152   1.593  0.4358 -0.8112 -0.3189
  229MOL0     H30848   2.085   0.540   1.713  0.0397  1.8143  0.4353
  229MOL0     H30849   1.994   0.689   1.865 -1.5776 -0.8332  1.4384
  229MOL0     H30850   1.942   0.839   2.055 -0.6097  0.5424 -1.9324
  229MOL0     H30851   1.815   0.715   2.066  1.5242  1.1675 -1.5979
  229MOL0     H30852   1.830   0.728   2.317 -1.5748  0.2580 -0.6062
  229MOL0     H30853   1.951   0.857   2.296 -0.1043 -1.2514  2.9900
  229MOL0     H30854   1.779   0.999   2.201 -0.6183  1.9862  1.3573
  229MOL0     H30855   1.655   0.873   2.230 -0.2377 -2.6263  3.3319
  229MOL0     H30856   1.731   0.868   2.465  1.0416  0.3478  0.6789
  229MOL0     H30857   1.821   1.016   2.438 -0.0163 -0.6015  2.5096
  229MOL0     H30858   1.624   1.109   2.518 -1.2706  1.6833 -0.4490
  229MOL0     H30859   1.595   1.110   2.344  1.2423  1.7030  0.8506
  229MOL0     H30860   1.460   0.890   2.369 -1.2544  3.1367 -2.5804
  229MOL0     H30861   1.503   0.888   2.541 -0.1801  0.9637 -0.1584
  229MOL0     H30862   1.382   1.059   2.605  1.5192 -0.5384 -0.2700
  229MOL0     H30863   1.378   1.131   2.433 -0.2462 -0.9619 -1.9776
  229MOL0     H30864   1.232   0.891   2.545 -2.0531  1.8998  2.1506
  229MOL0     H30865   1.208   0.950   2.383 -2.8421  0.6017  0.3810
  229MOL0     H30866   0.951   0.940   2.545  0.4407 -2.3269  1.7767
  229MOL0     H30867   0.749   1.186   2.616 -0.7006 -1.6770 -1.0028
  229MOL0     H30868   0.782   1.040   2.681  1.1033  0.0042  0.0212
  229MOL0     H30869   0.746   1.298   2.820 -0.8958  0.0688  3.3928
  229MOL0     H30870   0.882   1.212   2.897 -1.4136 -3.2323  2.1751
  229MOL0     H30871   0.741   1.018   2.925 -2.1732 -2.3113 -3.9932
  229MOL0     H30872   0.603   1.098   2.846 -1.9789  0.3905  3.4629
  229MOL0     H30873   0.740   1.203   3.094 -0.2261 -1.9071  0.6657
  229MOL0     H30874   0.586   1.122   3.091 -2.0583  4.3127  1.9550
  229MOL0     H30875   0.496   1.502   2.879  0.1234 -0.4980 -1.0298
  229MOL0     H30876   0.234   1.531   2.708  2.5487  0.1729 -1.1710
  229MOL0     H30877   0.199   1.649   2.846  1.3515  0.5403  2.1242
  229MOL0     H30878   0.357   1.624   2.778 -1.1877  0.4853 -1.4153
  229MOL0     H30879  -0.103   1.704   2.786  5.3474 -4.4482  2.1972
  229MOL0     H30880  -0.343   1.751   2.720  0.7938  0.5669 -0.2733
  229MOL0     H30881  -0.582   1.742   2.702  0.0364  0.6432 -0.7325
  229MOL0     H30882  -0.506   1.738   2.547 -1.0484  1.0612 -0.9364
  229MOL0     H30883  -0.722   1.600   2.467  0.2424 -2.1886  2.4649
  229MOL0     H30884  -0.791   1.630   2.615  1.2638 -3.4146 -1.0203
  229MOL0     H30885  -0.696   1.796   2.378  0.6083  3.2922  0.5859
  229MOL0     H30886  -0.716   1.894   2.526  1.0079  0.0895  0.0847
  229MOL0     H30887  -0.916   1.749   2.357 -0.4901 -0.5495 -0.2327
  229MOL0     H30888  -0.956   1.778   2.526  0.5217  0.0454 -0.4893
  229MOL0     H30889  -0.901   1.983   2.282 -1.1664  1.3363  0.1373
  229MOL0     H30890  -0.880   2.036   2.441 -1.5759  0.7798  0.3856
  229MOL0     H30891  -1.161   1.934   2.364 -0.9109  1.2388  0.5290
  229MOL0     H30892  -1.102   1.997   2.517  1.3715 -0.4588 -0.0810
  229MOL0     H30893  -1.099   2.163   2.273  0.9963 -2.8579 -0.3777
  229MOL0     H30894  -1.058   2.216   2.437 -2.5882  2.6535 -1.9044
  229MOL0     H30895  -1.331   2.115   2.332 -2.8041  1.9952  1.0479
  229MOL0     H30896  -1.284   2.273   2.408  0.4733  0.2261 -2.9816
  229MOL0     H30897  -0.413   1.323   2.722  2.2779 -1.8438  2.7917
  229MOL0     H30898  -0.194   1.283   2.786  1.8553  1.0375  1.0619
  229MOL0     H30899   0.171   1.202   3.098  0.2518 -0.6026  1.3615
  229MOL0     H30900   0.403   1.186   3.150 -1.2938 -1.2169 -0.1687
  229MOL0     H30901   2.104   0.424   2.195  1.6172  0.1036  0.0479
  229MOL0     H30902   2.179   0.264   2.017 -0.4271 -0.9265 -1.0301
  229MOL0     H30903   2.064   0.199   1.398 -0.9958  0.2856  2.8699
  229MOL0     H30904   2.207   0.046   1.248  1.6426  0.5375 -0.9861
  229MOL0     H30905   2.576  -0.171   1.250 -1.4103 -0.7931  0.2978
  229MOL0     H30906   2.623  -0.051   1.378 -0.5847  2.3230 -1.4853
  229MOL0     H30907   2.488  -0.177   1.549 -0.1472  1.3781 -0.2375
  229MOL0     H30908   2.588  -0.303   1.484 -0.8870 -0.6545  0.8947
  229MOL0     H30909   2.287  -0.257   1.450  3.2082  5.4682  0.6029
  229MOL0     H30910   2.382  -0.404   1.491  1.2788  0.4650  0.7040
  229MOL0     H30911   2.326  -0.312   1.216  0.0356 -0.7555 -0.3093
  229MOL0     H30912   2.260  -0.447   1.308 -0.2802  0.8219  2.1977
  229MOL0     H30913   2.668  -0.560   1.205 -1.2391 -1.9721  1.0236
  229MOL0     H30914   2.524   0.071   1.550  0.5142 -0.1638  0.7149
  229MOL0     H30915   2.392   0.189   1.681  0.9251  4.0720 -2.3406
  230MOL0     O30916   1.686   0.867   1.552 -0.1577 -0.5536 -0.1310
  230MOL0     C30917   1.798   0.830   1.537 -0.4191 -0.8561 -0.2888
  230MOL0     O30918   1.908   0.880   1.600  0.3569 -0.1614 -0.2598
  230MOL0     C30919   1.891   0.980   1.697  0.0702 -0.8369  0.1555
  230MOL0     C30920   1.972   1.096   1.695 -0.4232  0.0638 -0.2846
  230MOL0     C30921   1.956   1.200   1.794 -1.1218  1.0394  0.0628
  230MOL0     C30922   1.853   1.186   1.895 -0.6074 -0.3575 -0.0320
  230MOL0     O30923   1.828   1.302   1.967 -0.2134 -0.2350  0.1847
  230MOL0     C30924   1.687   1.339   1.971 -0.6140 -0.4505  0.7226
  230MOL0     C30925   1.650   1.437   2.076 -0.4328 -0.1017 -0.1902
  230MOL0     C30926   1.630   1.375   2.219 -0.1195  0.1097 -0.2626
  230MOL0     C30927   1.567   1.484   2.317  0.3884  0.3059 -0.2047
  230MOL0     C30928   1.529   1.414   2.461  0.8642 -0.1013 -0.0071
  230MOL0     C30929   1.417   1.478   2.552 -0.3220 -0.4942  0.2607
  230MOL0     C30930   1.481   1.480   2.692 -0.3686  0.1104 -0.7469
  230MOL0     C30931   1.401   1.553   2.803 -0.1763  0.1073  0.5750
  230MOL0     N30932   1.359   1.451   2.899 -0.4843 -0.1911 -0.7222
  230MOL0     C30933   1.247   1.372   2.892 -0.3870 -0.8186  0.5492
  230MOL0     C30934   1.248   1.308   3.008 -0.0049  0.7658 -0.7290
  230MOL0     C30935   1.139   1.217   3.060 -0.0017 -0.1704  0.3186
  230MOL0     C30936   1.115   1.093   2.973 -0.3784  0.4986 -0.6927
  230MOL0     C30937   1.241   1.002   2.960 -0.0240 -0.5510 -0.4970
  230MOL0     C30938   1.199   0.876   2.886  0.6927  0.4782 -0.3725
  230MOL0     O30939   1.318   0.797   2.855  0.1851 -0.2472  0.7409
  230MOL0     C30940   1.354   0.702   2.947  0.2864  0.3938 -0.2247
  230MOL0     C30941   1.483   0.697   2.987  0.0551 -0.4660 -0.6429
  230MOL0     C30942   1.543   0.604   3.073 -0.4951  0.2306 -0.0238
  230MOL0     C30943   1.682   0.628   3.131 -1.3441  0.4002 -0.4809
  230MOL0     C30944   1.457   0.495   3.118 -0.4831  0.4960 -0.1371
  230MOL0     C30945   1.502   0.391   3.214 -0.6264  0.0094  0.4116
  230MOL0     O30946   1.635   0.347   3.210 -0.1528 -0.4138  0.8740
  230MOL0     C30947   1.685   0.248   3.291 -0.1462  0.6232  0.5663
  230MOL0     C30948   1.822   0.245   3.310 -0.1704 -0.6020 -0.2606
  230MOL0     C30949   1.883   0.153   3.398 -0.6494  0.1375  0.0219
  230MOL0     C30950   1.817   0.039   3.450  0.4299  0.0427  1.1675
  230MOL0     O30951   1.870  -0.072   3.506  0.4844  0.2451 -0.3149
  230MOL0     C30952   2.003  -0.100   3.520 -0.4856 -0.4458  1.5429
  230MOL0     C30953   2.036  -0.218   3.421  0.2737 -0.1821  0.0210
  230MOL0     C30954   2.184  -0.240   3.394  0.0229 -0.4282  0.3553
  230MOL0     C30955   2.272  -0.127   3.330  0.5254 -0.1272  0.3054
  230MOL0     C30956   2.424  -0.175   3.322 -0.6447  0.1323  0.1793
  230MOL0     C30957   2.516  -0.098   3.236 -0.9769  0.0851  0.5564
  230MOL0     C30958   2.517   0.048   3.271  0.5472 -0.5809 -0.0618
  230MOL0     C30959   2.617   0.125   3.197  0.0018 -0.6135  1.0048
  230MOL0    Cl30960   2.554   0.166   3.033 -0.0517 -0.1563  0.5153
  230MOL0     C30961   1.677   0.043   3.427 -0.1379  0.3294  0.2911
  230MOL0     C30962   1.613   0.145   3.350 -0.8616  0.4798 -0.1511
  230MOL0     O30963   1.412   0.346   3.274  0.5207 -0.0354 -0.1918
  230MOL0     C30964   1.323   0.498   3.070  0.0872  0.5942  0.0804
  230MOL0     C30965   1.273   0.600   2.993  0.3247  0.2341  0.0214
  230MOL0     N30966   1.362   1.338   3.077 -0.7427 -0.3311  0.0841
  230MOL0     N30967   1.430   1.433   3.012  0.1916  0.2643 -0.0535
  230MOL0     C30968   1.788   1.062   1.907  0.5108  0.2058  0.6412
  230MOL0     C30969   1.808   0.967   1.806  0.2845  0.3047  0.4317
  230MOL0     C30970   1.826   0.715   1.455 -0.2721 -0.0584 -0.3993
  230MOL0     C30971   1.726   0.647   1.387  0.6234  0.9243  0.2899
  230MOL0     C30972   1.750   0.539   1.310 -0.3708  1.1893 -0.3202
  230MOL0     C30973   1.875   0.486   1.291  0.0785  1.2388  0.6177
  230MOL0     O30974   1.889   0.378   1.204  0.3586  0.3293  0.0692
  230MOL0     C30975   1.816   0.381   1.081  0.1023  0.8690  0.2722
  230MOL0     C30976   1.839   0.264   0.976  0.5050  0.3718 -0.4182
  230MOL0     C30977   1.981   0.275   0.919  1.1868 -0.4068  0.8987
  230MOL0     C30978   2.084   0.214   1.002  0.2151  0.1330  0.1794
  230MOL0     C30979   2.218   0.175   0.938 -0.2490  0.4735 -0.1009
  230MOL0     C30980   2.307   0.141   0.867 -0.0848  0.9975 -1.2937
  230MOL0     C30981   1.978   0.534   1.371  0.0373 -0.3889 -0.1045
  230MOL0     C30982   1.951   0.642   1.458  1.1837 -0.2803  0.0779
  230MOL0     H30983   2.049   1.101   1.619  0.0758 -0.7205  0.1531
  230MOL0     H30984   2.021   1.287   1.785  1.4920 -0.8433 -0.5966
  230MOL0     H30985   1.677   1.382   1.871 -0.1452 -0.4714  0.6661
  230MOL0     H30986   1.614   1.259   1.982 -0.6082 -0.2772  2.1774
  230MOL0     H30987   1.724   1.517   2.081 -0.6010  0.1461 -1.3301
  230MOL0     H30988   1.553   1.483   2.053 -0.8443  0.1993  1.9193
  230MOL0     H30989   1.560   1.292   2.205 -0.2672  0.0975  0.5290
  230MOL0     H30990   1.721   1.329   2.259  1.8619  3.4496 -0.5244
  230MOL0     H30991   1.641   1.562   2.339 -3.3976  4.7370 -1.4068
  230MOL0     H30992   1.487   1.549   2.279  1.7613  2.5517  0.5273
  230MOL0     H30993   1.494   1.312   2.443 -2.8710  1.3963 -2.5972
  230MOL0     H30994   1.619   1.402   2.521 -0.7922 -1.4558  2.3599
  230MOL0     H30995   1.390   1.576   2.510 -4.6175 -1.9807 -0.9184
  230MOL0     H30996   1.328   1.416   2.566 -0.5836 -0.3972 -0.8272
  230MOL0     H30997   1.496   1.380   2.735  1.9578  0.3165 -0.9965
  230MOL0     H30998   1.579   1.526   2.679 -0.5260  0.2287 -1.6108
  230MOL0     H30999   1.309   1.599   2.767 -0.6370 -0.6925  0.6970
  230MOL0     H31000   1.466   1.628   2.849  1.0784  0.0215 -0.9764
  230MOL0     H31001   1.171   1.364   2.816  1.1153 -1.1801 -0.9850
  230MOL0     H31002   1.161   1.180   3.161 -3.1670 -0.6684  0.9357
  230MOL0     H31003   1.049   1.278   3.071  0.2523  0.6795 -1.9456
  230MOL0     H31004   1.099   1.124   2.870  2.6239 -1.0628 -1.7580
  230MOL0     H31005   1.035   1.027   3.009  0.3418  0.2171  0.4645
  230MOL0     H31006   1.274   0.992   3.063 -5.1308 -2.0258  1.2980
  230MOL0     H31007   1.324   1.041   2.900 -0.2775  3.0257  1.1862
  230MOL0     H31008   1.141   0.887   2.794  1.1455 -0.1119 -0.7326
  230MOL0     H31009   1.124   0.826   2.948  0.6484 -0.9647 -1.5349
  230MOL0     H31010   1.540   0.785   2.960  0.2809  0.1510  1.6451
  230MOL0     H31011   1.699   0.596   3.234  1.3652  0.3362 -0.8831
  230MOL0     H31012   1.751   0.581   3.060 -3.0744 -1.0181 -1.3422
  230MOL0     H31013   1.699   0.736   3.131 -1.7954  0.5912 -3.8015
  230MOL0     H31014   1.896   0.313   3.270 -0.0060  1.7228  3.5192
  230MOL0     H31015   1.989   0.176   3.399 -0.6818  0.3523 -0.5402
  230MOL0     H31016   2.066  -0.019   3.482  0.7357 -2.5912 -1.3387
  230MOL0     H31017   2.035  -0.124   3.622 -2.5825  0.0010  2.3413
  230MOL0     H31018   1.995  -0.314   3.456 -2.2394  0.9387  0.3804
  230MOL0     H31019   1.984  -0.194   3.327  1.4798  0.8517 -0.3998
  230MOL0     H31020   2.191  -0.336   3.342 -0.5878  0.7018 -1.9362
  230MOL0     H31021   2.234  -0.244   3.492 -0.6694  0.9064  0.7837
  230MOL0     H31022   2.245  -0.101   3.227 -0.6151 -0.2343  0.5647
  230MOL0     H31023   2.265  -0.029   3.378 -0.6595  0.7704 -1.5559
  230MOL0     H31024   2.423  -0.283   3.304  0.4687 -0.3591  2.5810
  230MOL0     H31025   2.459  -0.166   3.425 -3.6314  1.8329  1.1832
  230MOL0     H31026   2.618  -0.134   3.247 -0.1995  1.4584 -1.6088
  230MOL0     H31027   2.504  -0.112   3.128  0.6475  0.4507  0.3152
  230MOL0     H31028   2.534   0.054   3.378 -2.3688 -0.7288  0.4748
  230MOL0     H31029   2.423   0.100   3.253  0.0151 -1.0990  1.1573
  230MOL0     H31030   2.705   0.059   3.192  2.2437  2.1350  1.6741
  230MOL0     H31031   2.637   0.216   3.254  1.6851  0.7240 -1.4918
  230MOL0     H31032   1.624  -0.045   3.461  2.4405 -0.2417  3.2726
  230MOL0     H31033   1.507   0.135   3.331 -0.5869 -1.7985 -0.8304
  230MOL0     H31034   1.261   0.415   3.103 -0.7629  0.6865 -1.2153
  230MOL0     H31035   1.167   0.596   2.971 -0.8507 -1.8816  4.7130
  230MOL0     H31036   1.708   1.050   1.980 -0.1978  3.4699  0.5658
  230MOL0     H31037   1.741   0.882   1.805  2.0633 -1.1780 -0.9863
  230MOL0     H31038   1.622   0.678   1.381 -0.3963 -2.1554  0.3641
  230MOL0     H31039   1.663   0.487   1.270 -1.1087  0.8888  1.5628
  230MOL0     H31040   1.711   0.378   1.114  0.9463  1.1437  3.2337
  230MOL0     H31041   1.832   0.475   1.028  3.0381  0.2924 -0.0073
  230MOL0     H31042   1.768   0.252   0.894 -2.1931  1.2602  1.6384
  230MOL0     H31043   1.828   0.174   1.038 -0.0586  0.3440 -0.5494
  230MOL0     H31044   2.015   0.378   0.903  3.4035 -0.9678  1.6868
  230MOL0     H31045   1.991   0.227   0.822  2.4348  2.4894 -0.5433
  230MOL0     H31046   2.038   0.122   1.041  4.2182 -2.5308 -0.7562
  230MOL0     H31047   2.111   0.290   1.075 -2.8226  0.1994  1.3778
  230MOL0     H31048   2.384   0.096   0.808 -2.1802 -4.5443 -0.3705
  230MOL0     H31049   2.077   0.489   1.373  0.0730 -0.3273 -0.5297
  230MOL0     H31050   2.032   0.674   1.523  0.6755  3.3533 -0.8752
  231MOL0     O31051  11.052   1.849   5.075 -0.2601  0.0566  0.4003
  231MOL0     C31052  11.140   1.803   5.007 -0.5530 -0.4314 -0.3170
  231MOL0     O31053  11.124   1.731   4.893 -0.0017 -0.0898  0.1340
  231MOL0     C31054  10.992   1.717   4.853 -1.0421  0.6461  0.7805
  231MOL0     C31055  10.953   1.793   4.752 -0.1412  0.1438  0.2296
  231MOL0     C31056  10.826   1.762   4.695  0.4081 -0.6796  0.4528
  231MOL0     C31057  10.749   1.658   4.744  0.8120 -0.3616 -0.3415
  231MOL0     O31058  10.629   1.607   4.700 -0.1208 -0.7464 -0.8233
  231MOL0     C31059  10.543   1.694   4.615 -0.1086  0.4072  0.3239
  231MOL0     C31060  10.490   1.823   4.677  0.4022  0.9913  0.5812
  231MOL0     C31061  10.332   1.826   4.664 -0.7957 -0.7804  0.0798
  231MOL0     C31062  10.298   1.840   4.510 -0.1303 -0.6421 -0.1210
  231MOL0     C31063  10.151   1.866   4.475  0.2557  0.5293 -0.2919
  231MOL0     C31064  10.051   1.759   4.534  0.1153  0.0895 -0.2559
  231MOL0     C31065   9.910   1.777   4.469 -0.2943  0.0832  0.1659
  231MOL0     C31066   9.885   1.695   4.339  0.3249  0.0500  0.5154
  231MOL0     N31067   9.845   1.551   4.355 -0.1799 -0.2346 -0.0727
  231MOL0     C31068   9.917   1.446   4.405 -1.0023 -0.1087  0.5802
  231MOL0     C31069   9.846   1.333   4.370  0.5151  0.1797 -0.3758
  231MOL0     C31070   9.890   1.198   4.404 -0.9120  0.5211  0.3463
  231MOL0     C31071   9.964   1.127   4.286  0.4362 -0.6698 -0.0056
  231MOL0     C31072   9.991   0.976   4.308 -0.0096 -0.4813 -0.5345
  231MOL0     C31073  10.101   0.941   4.402  0.7156  0.0575 -0.3478
  231MOL0     O31074  10.108   0.802   4.415  0.2892  0.2820 -0.6617
  231MOL0     C31075  10.209   0.762   4.499 -0.4930  0.6898  1.2642
  231MOL0     C31076  10.238   0.620   4.496  1.7796 -0.2804 -0.5036
  231MOL0     C31077  10.347   0.560   4.554 -1.0336  0.1669 -0.5351
  231MOL0     C31078  10.350   0.407   4.538 -0.3460 -0.0392 -0.2215
  231MOL0     C31079  10.427   0.636   4.643  0.3933  0.1833  0.5641
  231MOL0     C31080  10.529   0.580   4.729  1.1483  0.1001 -0.1901
  231MOL0     O31081  10.566   0.664   4.832 -0.3030 -0.3365 -0.9565
  231MOL0     C31082  10.643   0.633   4.938  0.3618 -0.3959 -0.4508
  231MOL0     C31083  10.721   0.524   4.947 -0.8609 -0.4287  0.3100
  231MOL0     C31084  10.797   0.496   5.060 -0.1345 -0.2835  0.1146
  231MOL0     C31085  10.811   0.592   5.159  0.2756  0.4614  0.2613
  231MOL0     O31086  10.878   0.555   5.274  0.4339 -0.5110 -0.4279
  231MOL0     C31087  10.892   0.657   5.372  0.2019 -0.5991 -0.0669
  231MOL0     C31088  10.955   0.602   5.499 -0.0041 -0.1219 -0.6295
  231MOL0     C31089  10.999   0.716   5.594 -0.6293  0.3793 -0.0998
  231MOL0     C31090  11.135   0.781   5.543  0.0613  0.4782 -0.4887
  231MOL0     C31091  11.179   0.918   5.589  0.1381  0.7106 -0.2999
  231MOL0     C31092  11.186   0.913   5.740 -0.7412  0.2509 -1.0703
  231MOL0     C31093  11.266   1.033   5.812 -0.7248  0.1834  0.7161
  231MOL0     C31094  11.400   1.056   5.746 -0.3549  0.5972 -0.1167
  231MOL0    Cl31095  11.526   1.099   5.871  0.0661 -0.0789 -0.3107
  231MOL0     C31096  10.744   0.708   5.144  0.4196 -0.2340  0.0426
  231MOL0     C31097  10.660   0.731   5.037  0.4279  0.9089 -0.3371
  231MOL0     O31098  10.589   0.479   4.688 -0.3555 -0.7155  1.0073
  231MOL0     C31099  10.393   0.770   4.653 -0.1856 -0.2401  0.2666
  231MOL0     C31100  10.293   0.838   4.578 -0.7667  0.2949  0.3557
  231MOL0     N31101   9.729   1.371   4.302  0.5114  0.0948  0.6848
  231MOL0     N31102   9.735   1.500   4.294  1.0820 -0.4273 -0.4094
  231MOL0     C31103  10.799   1.569   4.837  0.1193  0.1160 -0.3749
  231MOL0     C31104  10.919   1.609   4.899 -0.1433  0.7415 -0.3508
  231MOL0     C31105  11.287   1.822   5.053  0.8631 -0.3430 -0.7595
  231MOL0     C31106  11.399   1.752   5.015  0.3566  0.0710 -0.0019
  231MOL0     C31107  11.521   1.781   5.062  0.0454 -0.4535 -0.2876
  231MOL0     C31108  11.544   1.887   5.158 -0.5349  0.1207  0.6905
  231MOL0     O31109  11.663   1.906   5.214  0.3843 -0.0191 -0.0695
  231MOL0     C31110  11.772   1.915   5.118  0.5742  1.1889 -0.6470
  231MOL0     C31111  11.912   1.943   5.174 -0.3515 -1.4373 -0.6246
  231MOL0     C31112  11.948   1.872   5.302  1.1843  0.5079 -0.4448
  231MOL0     C31113  11.968   1.722   5.288  0.3035 -0.0199  0.0802
  231MOL0     C31114  12.047   1.681   5.175 -0.7464  0.5062 -0.0121
  231MOL0     C31115  12.112   1.644   5.081  0.1978 -0.2263  0.3502
  231MOL0     C31116  11.429   1.955   5.209  0.5508  0.5044 -0.0296
  231MOL0     C31117  11.304   1.921   5.160 -0.1336  0.1448 -0.0294
  231MOL0     H31118  11.023   1.849   4.690 -0.0914  0.1090  0.2549
  231MOL0     H31119  10.805   1.799   4.595  0.4976  0.0823  0.7145
  231MOL0     H31120  10.609   1.721   4.531  2.6244 -0.7347  1.9590
  231MOL0     H31121  10.455   1.639   4.580  0.7550 -2.2509  2.0255
  231MOL0     H31122  10.521   1.828   4.782  1.1462 -0.1367  0.4290
  231MOL0     H31123  10.539   1.907   4.627  2.5163 -0.2084  0.5193
  231MOL0     H31124  10.277   1.740   4.703 -2.0563 -0.5600 -1.1256
  231MOL0     H31125  10.311   1.914   4.726  2.1497 -0.3090  0.5402
  231MOL0     H31126  10.368   1.912   4.466 -0.3603  0.4137  1.1672
  231MOL0     H31127  10.320   1.746   4.459 -0.7166 -0.4465 -0.7563
  231MOL0     H31128  10.128   1.962   4.522  2.0423 -0.0514  2.0003
  231MOL0     H31129  10.133   1.872   4.367 -0.0761 -0.3778 -0.2891
  231MOL0     H31130  10.086   1.656   4.521  2.2868  0.2892  2.8856
  231MOL0     H31131  10.032   1.765   4.641  1.6079  0.7431 -0.0024
  231MOL0     H31132   9.837   1.745   4.544  1.1356 -0.5485  1.3308
  231MOL0     H31133   9.901   1.884   4.449  1.0478 -0.0224 -1.1153
  231MOL0     H31134   9.975   1.693   4.278 -0.3652  3.9008 -0.9111
  231MOL0     H31135   9.802   1.738   4.283 -0.4618 -2.9449 -0.8293
  231MOL0     H31136  10.010   1.444   4.462 -2.0719 -2.5642  2.4172
  231MOL0     H31137   9.964   1.207   4.483 -0.2208 -0.8351 -0.1099
  231MOL0     H31138   9.810   1.129   4.434 -0.7473  0.3663  0.4296
  231MOL0     H31139  10.059   1.170   4.252 -0.0938 -1.4796 -2.7769
  231MOL0     H31140   9.902   1.134   4.196 -1.9813 -1.4371  1.5391
  231MOL0     H31141  10.010   0.939   4.207  1.3353  0.9019 -0.8312
  231MOL0     H31142   9.895   0.935   4.341 -1.4089  0.1153 -3.5673
  231MOL0     H31143  10.086   0.992   4.497 -0.0300  1.2519 -1.0853
  231MOL0     H31144  10.195   0.967   4.352  0.0711 -0.2222 -1.7705
  231MOL0     H31145  10.164   0.562   4.442  1.1902  0.0185 -0.0282
  231MOL0     H31146  10.303   0.359   4.452  1.2479 -0.6960 -0.7520
  231MOL0     H31147  10.451   0.371   4.519 -0.5319 -0.7181  0.0567
  231MOL0     H31148  10.306   0.355   4.624  1.7836 -1.2399  0.1969
  231MOL0     H31149  10.716   0.450   4.868  0.2927 -1.2685  0.9927
  231MOL0     H31150  10.847   0.400   5.067  2.2555  0.9797  2.3896
  231MOL0     H31151  10.948   0.740   5.327  0.9112 -0.5781  0.8185
  231MOL0     H31152  10.795   0.698   5.401  2.0721  3.2431  1.5512
  231MOL0     H31153  10.890   0.538   5.559 -3.0286  3.5196  0.3488
  231MOL0     H31154  11.045   0.547   5.470  0.4452 -0.1827  0.7838
  231MOL0     H31155  11.015   0.682   5.697  0.8535 -0.0160 -0.4333
  231MOL0     H31156  10.912   0.781   5.603 -3.0024 -2.6568  0.4705
  231MOL0     H31157  11.212   0.708   5.571  1.1397  1.6138 -0.3684
  231MOL0     H31158  11.137   0.778   5.434  0.3827  0.1365 -0.4784
  231MOL0     H31159  11.106   0.992   5.556 -1.6055  0.0625  1.8536
  231MOL0     H31160  11.276   0.955   5.554  0.0984  2.5828  1.3094
  231MOL0     H31161  11.084   0.897   5.776 -1.0507  1.4937 -1.3363
  231MOL0     H31162  11.242   0.826   5.775  0.9875  1.5239 -0.5318
  231MOL0     H31163  11.284   1.007   5.917 -1.1226 -3.4605 -0.0119
  231MOL0     H31164  11.204   1.124   5.808  0.0277  0.6554 -2.0526
  231MOL0     H31165  11.395   1.143   5.680  2.4959  0.9591  0.0417
  231MOL0     H31166  11.431   0.975   5.679  2.4857  1.1884  0.3471
  231MOL0     H31167  10.734   0.785   5.221 -1.1920 -0.5500  0.1846
  231MOL0     H31168  10.602   0.822   5.051 -0.1846 -0.0001  5.2266
  231MOL0     H31169  10.441   0.833   4.728  1.0833 -2.8440  1.8033
  231MOL0     H31170  10.295   0.947   4.580  3.9993  0.5296 -2.2818
  231MOL0     H31171  10.746   1.482   4.874  0.4967 -1.1616 -2.6405
  231MOL0     H31172  10.972   1.554   4.977  0.5100  1.5249 -0.2235
  231MOL0     H31173  11.369   1.673   4.947  0.6979  0.2814 -0.4052
  231MOL0     H31174  11.606   1.721   5.030 -0.1100 -0.7515 -0.1415
  231MOL0     H31175  11.785   1.819   5.067  3.4040  0.2213  1.6190
  231MOL0     H31176  11.756   1.994   5.045 -0.4410  1.8835  0.2916
  231MOL0     H31177  11.921   2.052   5.177 -1.7429 -1.2390 -1.9557
  231MOL0     H31178  11.991   1.923   5.101  0.4602 -2.8588  0.5867
  231MOL0     H31179  11.863   1.882   5.370  0.4961  1.4996 -1.4188
  231MOL0     H31180  12.032   1.917   5.357  1.2616 -0.4250  0.2414
  231MOL0     H31181  11.870   1.674   5.284 -0.5543  1.6430  0.3379
  231MOL0     H31182  12.004   1.685   5.385  1.5981 -1.1012 -0.7786
  231MOL0     H31183  12.174   1.599   5.007 -0.6302 -1.6447  0.4756
  231MOL0     H31184  11.424   2.016   5.298 -1.9619  2.0505 -1.1157
  231MOL0     H31185  11.225   1.988   5.192  1.2913  2.3764 -0.9789
  232MOL0     O31186   9.564   6.380   6.529  0.1898  0.2090 -0.8030
  232MOL0     C31187   9.482   6.334   6.602  0.2273 -0.3333 -0.7396
  232MOL0     O31188   9.487   6.352   6.748  0.2870  0.1527 -0.0347
  232MOL0     C31189   9.588   6.434   6.797  0.3008 -0.3122  1.0003
  232MOL0     C31190   9.599   6.570   6.758 -0.3320 -0.1383 -0.4914
  232MOL0     C31191   9.706   6.651   6.808 -0.0686 -0.7193  1.9147
  232MOL0     C31192   9.807   6.600   6.886  1.3332  0.4534  0.0811
  232MOL0     O31193   9.902   6.689   6.921  0.4384  0.5751 -0.3365
  232MOL0     C31194  10.008   6.648   7.009 -0.3519 -0.1027 -0.0919
  232MOL0     C31195  10.110   6.757   6.997 -0.4477 -0.5401 -0.3919
  232MOL0     C31196  10.062   6.887   7.085 -0.4219  0.6884  0.0191
  232MOL0     C31197  10.032   7.001   6.992 -0.2746 -0.2734 -0.2685
  232MOL0     C31198   9.967   7.115   7.084  0.6135 -0.0447 -0.1755
  232MOL0     C31199   9.900   7.226   7.000 -0.6553 -0.0802  0.0726
  232MOL0     C31200   9.874   7.354   7.068 -0.4308  0.1327 -0.3751
  232MOL0     C31201   9.805   7.455   6.969  0.0805  0.1674 -0.1996
  232MOL0     N31202   9.921   7.518   6.906 -0.5262 -0.1201 -0.8066
  232MOL0     C31203   9.969   7.476   6.791 -1.1753  0.9996  0.0170
  232MOL0     C31204  10.057   7.570   6.735  0.1748  0.6028 -0.8024
  232MOL0     C31205  10.131   7.565   6.603 -0.2050  0.1011 -0.4846
  232MOL0     C31206  10.040   7.547   6.488  0.1466  0.9739 -0.3891
  232MOL0     C31207   9.920   7.644   6.464  0.5924 -0.1765  0.2399
  232MOL0     C31208   9.953   7.790   6.445  0.8225 -0.9320  0.6849
  232MOL0     O31209   9.853   7.859   6.361 -0.6429  0.2372  0.3533
  232MOL0     C31210   9.840   7.991   6.365 -0.0304  1.1696  0.3338
  232MOL0     C31211   9.905   8.095   6.446 -0.0153  0.0398 -0.2586
  232MOL0     C31212   9.872   8.228   6.428 -0.3573 -0.2849  0.7061
  232MOL0     C31213   9.933   8.326   6.524 -0.5090 -0.1079  0.3453
  232MOL0     C31214   9.789   8.268   6.320  0.4319 -0.6789  0.1318
  232MOL0     C31215   9.757   8.409   6.284  0.0044  0.0431  0.3009
  232MOL0     O31216   9.640   8.409   6.216  0.5057  0.3650  0.0584
  232MOL0     C31217   9.565   8.527   6.189  0.0516 -0.1524 -0.1420
  232MOL0     C31218   9.579   8.655   6.247  0.7776  0.8391  0.0610
  232MOL0     C31219   9.495   8.762   6.205  0.2787 -0.4837 -0.0855
  232MOL0     C31220   9.389   8.747   6.119 -0.5803  0.3067  0.1113
  232MOL0     O31221   9.308   8.853   6.083  0.4423 -0.6099 -0.0166
  232MOL0     C31222   9.220   8.842   5.969 -0.2493  0.8698 -0.5757
  232MOL0     C31223   9.161   8.979   5.937 -0.7024 -1.0009  1.4637
  232MOL0     C31224   9.275   9.083   5.917 -0.4826 -0.6317  0.3073
  232MOL0     C31225   9.243   9.204   5.831  0.1814  0.3119  0.4086
  232MOL0     C31226   9.357   9.301   5.827  0.3040 -0.0895  0.1097
  232MOL0     C31227   9.319   9.438   5.773 -0.0115 -1.2304 -0.2694
  232MOL0     C31228   9.434   9.540   5.762 -0.3972 -0.0695  0.2110
  232MOL0     C31229   9.390   9.687   5.730 -0.3203 -0.4297  0.3040
  232MOL0    Cl31230   9.321   9.692   5.569  0.0659 -0.1641 -0.3490
  232MOL0     C31231   9.376   8.614   6.070  0.6033  1.0940 -0.7345
  232MOL0     C31232   9.465   8.511   6.091  0.2175 -0.2463 -0.6346
  232MOL0     O31233   9.836   8.508   6.300 -0.4692 -0.6125  0.3624
  232MOL0     C31234   9.749   8.164   6.235  0.6578  0.1487  0.9120
  232MOL0     C31235   9.763   8.028   6.257 -0.3013 -0.4843 -0.3354
  232MOL0     N31236  10.066   7.672   6.838  1.0754 -0.4023  0.6175
  232MOL0     N31237   9.988   7.639   6.935  0.5664 -0.1820 -0.2256
  232MOL0     C31238   9.789   6.463   6.923 -0.8417  0.1970  0.2697
  232MOL0     C31239   9.683   6.383   6.885  0.0402  0.4121 -0.2937
  232MOL0     C31240   9.378   6.248   6.548  0.0716  0.4181 -0.3339
  232MOL0     C31241   9.297   6.169   6.626 -0.1441 -0.1176 -0.2620
  232MOL0     C31242   9.195   6.084   6.577 -0.6777  0.4248 -0.7649
  232MOL0     C31243   9.165   6.079   6.445 -0.5037  0.0164  0.5756
  232MOL0     O31244   9.069   6.000   6.388  0.3407  0.6384 -0.2940
  232MOL0     C31245   9.025   5.883   6.462  0.6905  0.2351 -0.1446
  232MOL0     C31246   9.015   5.770   6.372  0.0935  0.8912 -0.3749
  232MOL0     C31247   8.902   5.770   6.273  0.8137  0.6637  0.5064
  232MOL0     C31248   8.930   5.661   6.168 -0.1206  0.3688 -0.0094
  232MOL0     C31249   8.934   5.709   6.030  1.1580  0.3622 -0.3342
  232MOL0     C31250   8.950   5.730   5.911  0.6904  0.1648 -0.7460
  232MOL0     C31251   9.235   6.170   6.360 -0.6353 -0.5769 -0.8721
  232MOL0     C31252   9.349   6.236   6.410  0.3403 -0.2283  0.2832
  232MOL0     H31253   9.528   6.603   6.682 -1.0948 -2.5370 -0.8830
  232MOL0     H31254   9.729   6.752   6.775 -0.7448 -1.7832 -2.4636
  232MOL0     H31255   9.983   6.636   7.115 -1.0553 -2.0404 -0.4301
  232MOL0     H31256  10.051   6.554   6.975 -3.6969 -1.3671 -1.3024
  232MOL0     H31257  10.208   6.730   7.039 -0.0275 -1.3388 -1.8127
  232MOL0     H31258  10.144   6.788   6.898 -0.8388  2.1219  0.2249
  232MOL0     H31259   9.982   6.859   7.154  0.9156 -0.2069  1.2679
  232MOL0     H31260  10.145   6.909   7.153 -0.7163  1.9033 -0.0058
  232MOL0     H31261  10.119   7.043   6.940  1.0884 -2.0656  0.4419
  232MOL0     H31262   9.958   6.965   6.919 -0.7649 -0.8270  0.4842
  232MOL0     H31263   9.895   7.083   7.160 -1.7789  0.8685 -1.9325
  232MOL0     H31264  10.047   7.169   7.135 -1.7649  0.3954  3.4944
  232MOL0     H31265   9.983   7.242   6.930  1.1656  1.7904  2.4527
  232MOL0     H31266   9.807   7.187   6.959 -1.3623  1.7081 -0.1291
  232MOL0     H31267   9.808   7.315   7.146 -0.8279  1.8261  0.1681
  232MOL0     H31268   9.965   7.394   7.112 -0.2243 -0.7004 -0.0284
  232MOL0     H31269   9.761   7.530   7.035  0.2026 -2.6374  3.4025
  232MOL0     H31270   9.741   7.402   6.898 -1.7139  0.6896  0.9826
  232MOL0     H31271   9.953   7.384   6.735  0.9851  0.0127  0.9069
  232MOL0     H31272  10.191   7.655   6.586 -1.8065  1.0770 -1.2416
  232MOL0     H31273  10.203   7.483   6.603 -1.1115 -0.7799  2.1138
  232MOL0     H31274   9.999   7.447   6.508  1.0676  0.8955  1.2586
  232MOL0     H31275  10.105   7.539   6.401  1.3300  1.0738  0.4586
  232MOL0     H31276   9.854   7.629   6.550 -0.2300  0.7923 -0.1991
  232MOL0     H31277   9.872   7.602   6.375 -1.3111 -0.6053  1.4189
  232MOL0     H31278  10.054   7.791   6.402  0.7564 -0.4508  0.5415
  232MOL0     H31279   9.957   7.836   6.544 -1.7018  1.9767 -0.4160
  232MOL0     H31280   9.981   8.065   6.518  1.6136  0.3074 -1.8187
  232MOL0     H31281   9.858   8.382   6.581 -0.0583 -2.7458  3.9225
  232MOL0     H31282   9.969   8.266   6.608 -1.3387 -1.1390 -0.0106
  232MOL0     H31283  10.008   8.392   6.481 -1.3446  0.2370 -0.6410
  232MOL0     H31284   9.664   8.678   6.310  0.8772 -1.0240  0.6930
  232MOL0     H31285   9.497   8.855   6.262 -0.6908  0.3400 -1.3470
  232MOL0     H31286   9.283   8.805   5.887  0.6968  2.6089 -0.6631
  232MOL0     H31287   9.137   8.773   5.986  0.2772  0.7804  1.9912
  232MOL0     H31288   9.097   8.974   5.848  3.0222 -2.8917 -1.4358
  232MOL0     H31289   9.108   9.021   6.022 -0.8973 -0.5457  1.1235
  232MOL0     H31290   9.357   9.028   5.870  0.4534 -0.1054  1.2756
  232MOL0     H31291   9.315   9.115   6.014  0.1648 -0.3833 -0.0353
  232MOL0     H31292   9.224   9.169   5.729 -0.5865  0.2230  0.5773
  232MOL0     H31293   9.152   9.243   5.877 -0.2697  1.9106 -1.6750
  232MOL0     H31294   9.441   9.251   5.776  0.3413 -1.8268  1.7443
  232MOL0     H31295   9.394   9.326   5.927  0.1731 -2.1890  0.7383
  232MOL0     H31296   9.276   9.421   5.674 -1.2558  1.2933 -0.2519
  232MOL0     H31297   9.237   9.471   5.839 -0.4885 -1.9890 -0.4745
  232MOL0     H31298   9.500   9.505   5.682 -0.8792  2.6777 -1.5426
  232MOL0     H31299   9.491   9.533   5.855  0.2505  1.4701 -0.0282
  232MOL0     H31300   9.476   9.753   5.736  0.9539 -2.1573  3.0264
  232MOL0     H31301   9.320   9.718   5.808 -0.8432  1.9052 -1.0000
  232MOL0     H31302   9.285   8.600   6.012 -0.0296 -1.5979  0.7467
  232MOL0     H31303   9.465   8.413   6.045  1.9397  0.8089 -3.0992
  232MOL0     H31304   9.694   8.186   6.144  0.2861  1.1973  1.3642
  232MOL0     H31305   9.726   7.950   6.191 -1.6072 -0.9917  0.9621
  232MOL0     H31306   9.869   6.421   6.984  1.8372  1.4008 -2.2022
  232MOL0     H31307   9.674   6.277   6.906 -1.1667  0.3252 -1.1570
  232MOL0     H31308   9.295   6.174   6.735 -2.8554 -0.3976 -0.2250
  232MOL0     H31309   9.138   6.033   6.654  0.7992 -1.3819 -0.8045
  232MOL0     H31310   9.100   5.860   6.539  0.6076  1.6552  0.3940
  232MOL0     H31311   8.932   5.905   6.516  1.6658  0.7055  1.3984
  232MOL0     H31312   9.005   5.678   6.430  3.8146  0.4807 -0.0976
  232MOL0     H31313   9.110   5.756   6.318 -0.9016 -2.2931 -1.5192
  232MOL0     H31314   8.895   5.867   6.223 -0.3213 -0.5004 -1.7242
  232MOL0     H31315   8.805   5.751   6.319 -0.0470  0.0484 -1.4557
  232MOL0     H31316   8.866   5.576   6.193  2.0435 -1.5864 -0.7969
  232MOL0     H31317   9.029   5.614   6.176  0.1194  0.7551 -0.6600
  232MOL0     H31318   8.966   5.735   5.806 -0.4377 -1.2963 -1.0295
  232MOL0     H31319   9.215   6.167   6.253  1.1901  0.8068 -1.3164
  232MOL0     H31320   9.413   6.287   6.340 -0.3520  0.4092  0.0940
  233MOL0     O31321   6.853   6.259   1.849 -0.7691  0.2287  0.1928
  233MOL0     C31322   6.854   6.258   1.971  0.6175 -0.2765 -0.0655
  233MOL0     O31323   6.775   6.329   2.062 -0.5904  0.1239  0.7034
  233MOL0     C31324   6.666   6.394   2.014 -0.5603 -0.6988  0.6340
  233MOL0     C31325   6.672   6.529   1.987  0.5690 -0.0922 -0.0045
  233MOL0     C31326   6.549   6.599   1.945  0.1155  0.1464 -0.4990
  233MOL0     C31327   6.427   6.530   1.938 -0.4797  0.3720  0.4763
  233MOL0     O31328   6.315   6.607   1.904 -0.6343  0.4462  0.6372
  233MOL0     C31329   6.180   6.560   1.919  1.0159  0.7322  0.4635
  233MOL0     C31330   6.139   6.492   1.790  0.9666 -0.0002  0.0200
  233MOL0     C31331   5.990   6.433   1.802 -0.2298  1.1683  0.1005
  233MOL0     C31332   5.949   6.398   1.656  0.4382 -0.7336  0.1473
  233MOL0     C31333   5.804   6.331   1.655  0.0004  0.1351  0.4414
  233MOL0     C31334   5.675   6.423   1.656 -0.7591  0.6110 -0.1693
  233MOL0     C31335   5.669   6.518   1.538 -0.6551  0.3307  0.0843
  233MOL0     C31336   5.570   6.625   1.573 -0.3169 -0.3788  0.3379
  233MOL0     N31337   5.429   6.583   1.586 -0.5635 -0.4453 -0.4425
  233MOL0     C31338   5.358   6.519   1.498 -0.5147  0.4507  0.7964
  233MOL0     C31339   5.235   6.500   1.558 -0.2072  0.7235  1.1694
  233MOL0     C31340   5.122   6.418   1.507  0.6298 -0.1942  0.0838
  233MOL0     C31341   5.096   6.295   1.600 -1.1035 -0.6203 -0.5152
  233MOL0     C31342   5.213   6.200   1.598 -0.1568  0.3654 -0.6536
  233MOL0     C31343   5.167   6.099   1.707 -0.3062  0.2016 -0.1823
  233MOL0     O31344   5.246   5.984   1.697 -0.0768 -0.5317  0.0081
  233MOL0     C31345   5.377   6.006   1.730  0.4399 -0.3144 -1.0190
  233MOL0     C31346   5.423   6.069   1.846  0.1718  0.1505  0.6127
  233MOL0     C31347   5.564   6.079   1.866  0.7281  0.7849 -0.4352
  233MOL0     C31348   5.608   6.155   1.992  0.0998  0.5560  0.4764
  233MOL0     C31349   5.663   6.025   1.776  0.7623  0.2217 -0.2018
  233MOL0     C31350   5.803   6.017   1.797 -0.2045 -0.3285  0.0350
  233MOL0     O31351   5.884   6.023   1.687  0.0015  0.8475 -0.4774
  233MOL0     C31352   6.020   6.001   1.699  0.0668  0.7782  0.0211
  233MOL0     C31353   6.094   6.040   1.811  0.0297 -0.1200  0.1579
  233MOL0     C31354   6.215   5.978   1.835 -0.5961 -0.3093 -0.3518
  233MOL0     C31355   6.285   5.903   1.736  1.1089  0.0684  0.0809
  233MOL0     O31356   6.399   5.830   1.745  0.4990 -0.5405 -0.0664
  233MOL0     C31357   6.476   5.843   1.874  0.3882 -1.0646 -0.3877
  233MOL0     C31358   6.607   5.766   1.865  0.7639 -0.3850  0.8805
  233MOL0     C31359   6.698   5.828   1.759  0.8418 -0.0227  0.4654
  233MOL0     C31360   6.810   5.722   1.737  1.3030 -0.3415  0.6433
  233MOL0     C31361   6.918   5.774   1.648 -1.0788  0.1744 -0.1792
  233MOL0     C31362   7.005   5.660   1.591 -0.2971 -0.3140  0.7679
  233MOL0     C31363   7.117   5.721   1.509  0.1806  1.0182 -0.4245
  233MOL0     C31364   7.218   5.804   1.598 -0.0021  0.2168  0.6915
  233MOL0    Cl31365   7.299   5.710   1.725  0.3931 -0.3382 -0.9424
  233MOL0     C31366   6.215   5.879   1.615 -0.2297 -0.0493 -1.0609
  233MOL0     C31367   6.074   5.916   1.606  0.0132 -0.1895  0.5855
  233MOL0     O31368   5.843   5.977   1.911  0.6534  0.1895  0.6548
  233MOL0     C31369   5.617   5.951   1.664  0.4779 -1.2747  0.9483
  233MOL0     C31370   5.472   5.942   1.651  0.2688  0.7703  0.2400
  233MOL0     N31371   5.240   6.547   1.686 -0.2567  0.5111  0.0517
  233MOL0     N31372   5.358   6.611   1.699  0.6616 -0.6088 -0.3806
  233MOL0     C31373   6.424   6.390   1.954 -0.2712  0.0948 -0.0495
  233MOL0     C31374   6.547   6.322   1.983 -0.5667 -0.4624  0.1514
  233MOL0     C31375   6.945   6.153   2.039 -0.4262  0.0518  0.1056
  233MOL0     C31376   7.002   6.035   1.986  0.5334  0.5038 -0.2625
  233MOL0     C31377   7.089   5.953   2.051 -0.2527 -0.2101 -0.4882
  233MOL0     C31378   7.096   5.964   2.196 -0.2185  0.4337  1.2087
  233MOL0     O31379   7.161   5.858   2.263  0.0735  0.5970 -0.1115
  233MOL0     C31380   7.238   5.889   2.379  0.0858 -0.3566 -0.0654
  233MOL0     C31381   7.145   5.852   2.495 -0.0921 -0.7814 -0.0628
  233MOL0     C31382   7.167   5.701   2.534 -0.0688  0.7431  0.5019
  233MOL0     C31383   7.062   5.635   2.614  0.5947 -0.4659  0.2803
  233MOL0     C31384   7.039   5.706   2.738  0.6729  0.6926  0.4651
  233MOL0     C31385   6.994   5.749   2.838 -0.6531 -0.0449 -0.1908
  233MOL0     C31386   7.034   6.076   2.255  0.3987  0.7673 -0.6457
  233MOL0     C31387   6.960   6.169   2.175  0.2208 -0.0859 -0.3676
  233MOL0     H31388   6.762   6.586   2.006 -1.2994  2.7428  1.0623
  233MOL0     H31389   6.549   6.707   1.933 -0.1922  0.0766 -1.1340
  233MOL0     H31390   6.165   6.487   1.999 -2.3344 -1.7074 -2.1008
  233MOL0     H31391   6.111   6.640   1.950 -0.9823 -1.2689  1.4275
  233MOL0     H31392   6.147   6.566   1.709  1.3072 -1.4889 -1.3662
  233MOL0     H31393   6.203   6.407   1.765 -2.2588 -1.7998 -3.2616
  233MOL0     H31394   5.986   6.343   1.864 -0.2283  2.5268  2.1405
  233MOL0     H31395   5.919   6.499   1.852  0.0425  1.2204  0.4211
  233MOL0     H31396   5.945   6.496   1.608 -1.3054 -0.9981 -0.3243
  233MOL0     H31397   6.018   6.330   1.606 -2.5602 -2.9457 -1.2683
  233MOL0     H31398   5.805   6.268   1.565  0.1471  1.9821 -0.8952
  233MOL0     H31399   5.803   6.272   1.747 -0.8007 -1.0203 -0.2679
  233MOL0     H31400   5.594   6.351   1.641 -1.2553  1.4185 -1.5115
  233MOL0     H31401   5.676   6.482   1.748  0.7850  1.6468 -0.8109
  233MOL0     H31402   5.768   6.555   1.512  0.7473 -3.1117 -0.0272
  233MOL0     H31403   5.627   6.464   1.453 -0.8474  0.3390  0.1744
  233MOL0     H31404   5.572   6.699   1.492  1.4601 -1.6479 -0.8496
  233MOL0     H31405   5.614   6.664   1.665 -0.2378 -1.7434  0.8991
  233MOL0     H31406   5.397   6.476   1.407  1.1319  0.0664  1.6466
  233MOL0     H31407   5.034   6.483   1.501 -0.0212 -1.1559 -1.5216
  233MOL0     H31408   5.142   6.402   1.400  3.7395  2.3961  0.1244
  233MOL0     H31409   5.010   6.232   1.572  0.1273 -2.7905  0.3217
  233MOL0     H31410   5.082   6.333   1.701  2.3383  1.3447 -0.6441
  233MOL0     H31411   5.305   6.252   1.629  0.3469 -0.8563  0.0049
  233MOL0     H31412   5.230   6.160   1.498  1.3293  2.9736 -1.5315
  233MOL0     H31413   5.063   6.068   1.694 -0.0609 -0.8542  0.2238
  233MOL0     H31414   5.184   6.158   1.797  0.3242  1.9456 -1.3920
  233MOL0     H31415   5.344   6.107   1.911 -0.2029 -0.6795  0.6619
  233MOL0     H31416   5.516   6.182   2.045 -2.4054 -2.8282 -1.7489
  233MOL0     H31417   5.666   6.101   2.067  1.2532  1.4176  0.2315
  233MOL0     H31418   5.666   6.246   1.971 -2.7384  2.3423 -0.2320
  233MOL0     H31419   6.050   6.101   1.890  0.4050  2.1898 -1.3331
  233MOL0     H31420   6.253   5.984   1.936 -0.9760 -5.0274  0.3203
  233MOL0     H31421   6.512   5.945   1.893  0.1993 -1.1318  0.3498
  233MOL0     H31422   6.426   5.807   1.964  0.4086  4.3098  2.1611
  233MOL0     H31423   6.649   5.757   1.966  1.0318  3.5207  1.2986
  233MOL0     H31424   6.568   5.673   1.824  1.4001  0.9060 -3.1523
  233MOL0     H31425   6.735   5.926   1.789  0.1467  1.0219 -1.8834
  233MOL0     H31426   6.635   5.840   1.670  3.1279  0.7935 -1.1286
  233MOL0     H31427   6.853   5.698   1.834  1.4531 -2.3813  0.1169
  233MOL0     H31428   6.762   5.639   1.683 -0.6237  0.8334  0.4806
  233MOL0     H31429   6.984   5.841   1.704 -0.2292  1.7487 -2.8851
  233MOL0     H31430   6.875   5.822   1.560 -2.8703 -2.6681 -0.9799
  233MOL0     H31431   7.037   5.603   1.678 -1.7171 -0.3113  1.3232
  233MOL0     H31432   6.948   5.595   1.525  1.6998 -0.6971 -0.6710
  233MOL0     H31433   7.064   5.784   1.437  1.1140 -1.4043 -3.4249
  233MOL0     H31434   7.163   5.634   1.463  0.7550  0.2409  1.5135
  233MOL0     H31435   7.182   5.901   1.633 -2.2033  0.3169 -1.5269
  233MOL0     H31436   7.304   5.824   1.533  0.3621 -3.4968 -0.1854
  233MOL0     H31437   6.268   5.826   1.536 -0.4058  0.0689 -1.2617
  233MOL0     H31438   6.014   5.882   1.522 -1.4653 -2.0756  2.2929
  233MOL0     H31439   5.679   5.909   1.586  2.2108  2.0350  0.3423
  233MOL0     H31440   5.441   5.896   1.558  1.7515  1.7764 -0.8112
  233MOL0     H31441   6.332   6.332   1.952  0.9788 -1.9917 -2.4977
  233MOL0     H31442   6.543   6.214   1.988 -5.2879 -0.4908 -0.3767
  233MOL0     H31443   6.982   5.998   1.886  0.8372 -3.8750  1.0646
  233MOL0     H31444   7.133   5.870   1.996 -1.2415  0.8636 -3.0401
  233MOL0     H31445   7.334   5.836   2.384  1.0731  1.3232 -0.5141
  233MOL0     H31446   7.271   5.993   2.386  1.1497 -0.5988 -1.1354
  233MOL0     H31447   7.042   5.886   2.488  0.5359  1.1122 -0.8650
  233MOL0     H31448   7.168   5.921   2.577 -0.7560  0.6232 -1.0213
  233MOL0     H31449   7.262   5.690   2.588  0.6993  1.2306 -0.7083
  233MOL0     H31450   7.187   5.654   2.438  0.2089  3.1456 -0.6923
  233MOL0     H31451   7.085   5.528   2.623  0.9496 -0.3110  1.3891
  233MOL0     H31452   6.969   5.650   2.559 -0.6936  1.3357  2.7704
  233MOL0     H31453   6.947   5.783   2.928  0.5782 -0.6576  0.7110
  233MOL0     H31454   7.040   6.099   2.361 -0.4183 -2.1016  0.1091
  233MOL0     H31455   6.926   6.261   2.222 -2.9396 -2.0193  1.5055
  234MOL0     O31456   1.604   6.970   8.074 -0.6333  0.0114 -0.4327
  234MOL0     C31457   1.563   7.048   7.996  0.3868  0.1532  0.1424
  234MOL0     O31458   1.564   7.031   7.863 -0.1054 -0.2358  0.5038
  234MOL0     C31459   1.630   6.927   7.806 -0.1960  0.3378 -0.1232
  234MOL0     C31460   1.575   6.855   7.699 -0.1080 -0.3252  0.3810
  234MOL0     C31461   1.656   6.759   7.629 -0.3480  0.0871  0.6568
  234MOL0     C31462   1.785   6.731   7.680 -0.4963  0.2791 -0.1900
  234MOL0     O31463   1.865   6.638   7.617 -0.0013 -0.4462  0.3783
  234MOL0     C31464   1.824   6.497   7.622 -1.0921 -0.4357 -0.2772
  234MOL0     C31465   1.878   6.431   7.740  0.7825  0.6087 -0.3811
  234MOL0     C31466   2.007   6.350   7.722  0.5579 -0.5932  0.1640
  234MOL0     C31467   2.107   6.402   7.614  0.4324 -0.6580  1.2989
  234MOL0     C31468   2.175   6.281   7.556 -0.2104 -0.0037 -0.0523
  234MOL0     C31469   2.286   6.321   7.447 -0.3595  0.4389 -1.0126
  234MOL0     C31470   2.383   6.209   7.409  0.6529 -0.7162  0.0890
  234MOL0     C31471   2.319   6.106   7.311 -0.2848 -0.4197  0.2855
  234MOL0     N31472   2.262   6.159   7.188 -0.5360  1.3227  0.2770
  234MOL0     C31473   2.135   6.189   7.182  0.1325  0.6179 -0.2676
  234MOL0     C31474   2.112   6.255   7.067  0.1480  0.4635  0.1151
  234MOL0     C31475   1.984   6.312   7.029 -1.0527 -0.0825 -0.1075
  234MOL0     C31476   1.882   6.194   7.003 -0.1625  0.3403  0.5518
  234MOL0     C31477   1.770   6.249   6.915 -0.6662 -0.8745 -0.6636
  234MOL0     C31478   1.679   6.348   6.991  0.0564 -0.7724  0.8257
  234MOL0     O31479   1.573   6.381   6.903 -0.2501 -0.7556 -0.9188
  234MOL0     C31480   1.474   6.473   6.949  0.3560  0.5459  0.5789
  234MOL0     C31481   1.361   6.470   6.864  0.5833  0.2458  0.5031
  234MOL0     C31482   1.248   6.553   6.890 -0.4729 -0.2142 -0.4519
  234MOL0     C31483   1.130   6.533   6.796 -0.5264  0.4213 -0.9470
  234MOL0     C31484   1.244   6.633   7.005 -0.4898  0.2666  0.2561
  234MOL0     C31485   1.147   6.727   7.027  0.7071 -0.0150 -0.9003
  234MOL0     O31486   1.178   6.852   7.057  0.9341  0.2554 -0.1709
  234MOL0     C31487   1.097   6.937   7.132 -0.5791 -0.5273 -1.0043
  234MOL0     C31488   1.139   6.979   7.261  0.4444 -0.2963  0.9448
  234MOL0     C31489   1.054   7.079   7.326 -0.3631 -0.6439  0.8949
  234MOL0     C31490   0.952   7.146   7.261  0.0068  0.1479  0.2263
  234MOL0     O31491   0.890   7.233   7.347  0.4440 -0.1462  0.3522
  234MOL0     C31492   0.795   7.316   7.285 -0.1093 -0.4963  0.2907
  234MOL0     C31493   0.722   7.404   7.379  0.4712  0.2690 -0.1462
  234MOL0     C31494   0.612   7.483   7.315 -0.0888 -0.5081 -0.1940
  234MOL0     C31495   0.629   7.632   7.343 -0.0289  1.2897 -0.1937
  234MOL0     C31496   0.517   7.718   7.279 -0.1192 -0.0244 -0.6198
  234MOL0     C31497   0.525   7.856   7.337  0.0469 -0.3619 -0.0430
  234MOL0     C31498   0.393   7.928   7.302  0.2057  0.4883  0.1761
  234MOL0     C31499   0.386   8.079   7.360  0.3265 -0.3287  0.1306
  234MOL0    Cl31500   0.480   8.201   7.268  0.0692  0.0066 -0.2541
  234MOL0     C31501   0.913   7.101   7.135  0.4419  0.6493  0.0739
  234MOL0     C31502   0.982   6.995   7.074 -0.2798 -0.6788 -0.4241
  234MOL0     O31503   1.034   6.692   7.022 -0.3562  0.0511 -0.1123
  234MOL0     C31504   1.351   6.627   7.093  0.0122  0.8683 -0.4123
  234MOL0     C31505   1.463   6.554   7.067  0.0757 -0.3084 -0.0944
  234MOL0     N31506   2.237   6.254   7.005 -0.4764  0.1163  0.2955
  234MOL0     N31507   2.327   6.187   7.072  0.2642  0.4183 -0.5962
  234MOL0     C31508   1.834   6.793   7.792  0.1811 -0.1843 -0.8434
  234MOL0     C31509   1.756   6.886   7.854  0.8556 -0.0791 -0.1613
  234MOL0     C31510   1.515   7.176   8.065 -0.3551  0.7815  0.8966
  234MOL0     C31511   1.551   7.204   8.196 -0.4047 -0.8531  0.1384
  234MOL0     C31512   1.499   7.322   8.249 -0.2861  0.0304  0.3574
  234MOL0     C31513   1.433   7.420   8.168 -0.1252 -0.0093 -0.4576
  234MOL0     O31514   1.389   7.548   8.219  0.1206  0.0533  0.3834
  234MOL0     C31515   1.444   7.606   8.340 -0.3581 -0.1457 -0.7277
  234MOL0     C31516   1.594   7.621   8.332 -0.4695  0.2680  0.5621
  234MOL0     C31517   1.640   7.682   8.194  0.7928  0.6877  0.1383
  234MOL0     C31518   1.788   7.721   8.186  0.1068  0.2317 -0.5405
  234MOL0     C31519   1.826   7.861   8.203 -0.1354  0.3847  1.0114
  234MOL0     C31520   1.878   7.965   8.212 -0.5514 -0.6247 -0.1495
  234MOL0     C31521   1.408   7.377   8.038  1.0143 -1.2987  0.2817
  234MOL0     C31522   1.464   7.268   7.983  1.0604  0.4226 -0.6292
  234MOL0     H31523   1.483   6.884   7.649  0.8260  3.0239  0.3338
  234MOL0     H31524   1.622   6.702   7.543 -0.2873 -0.7812  1.1927
  234MOL0     H31525   1.715   6.499   7.625 -1.1313 -1.7152 -0.4497
  234MOL0     H31526   1.859   6.447   7.532  2.7319 -0.4735  1.0568
  234MOL0     H31527   1.895   6.509   7.816 -0.0733 -0.0073  0.4666
  234MOL0     H31528   1.810   6.360   7.787  2.8524 -3.5477 -3.1261
  234MOL0     H31529   2.060   6.353   7.818 -2.2833  0.8069  1.8323
  234MOL0     H31530   1.979   6.246   7.700 -0.7613 -0.2337  0.0795
  234MOL0     H31531   2.067   6.460   7.530  3.2681 -1.2966 -0.6184
  234MOL0     H31532   2.185   6.462   7.661 -0.9132  2.1392  0.2068
  234MOL0     H31533   2.220   6.231   7.642 -0.4531 -0.5897 -0.2572
  234MOL0     H31534   2.111   6.213   7.498  1.6346 -1.1300 -0.8770
  234MOL0     H31535   2.231   6.375   7.369 -1.9736  0.7250  0.2707
  234MOL0     H31536   2.350   6.393   7.497  1.6779 -1.7656 -0.2473
  234MOL0     H31537   2.479   6.245   7.372 -0.3712  0.5307 -1.4559
  234MOL0     H31538   2.401   6.154   7.502 -2.8247 -0.6194  0.9850
  234MOL0     H31539   2.235   6.056   7.361 -0.0376 -0.7634  0.3563
  234MOL0     H31540   2.400   6.035   7.299  0.3658  0.1618  1.0652
  234MOL0     H31541   2.059   6.179   7.258 -2.3145  2.4284 -2.2809
  234MOL0     H31542   1.941   6.392   7.091 -0.0166 -0.6921  1.4383
  234MOL0     H31543   2.008   6.357   6.932 -1.6597  0.9751  0.2101
  234MOL0     H31544   1.848   6.163   7.102  0.8784 -4.0458 -0.2463
  234MOL0     H31545   1.927   6.119   6.938 -0.6910 -0.1755  0.7798
  234MOL0     H31546   1.701   6.179   6.868 -0.7001  0.5441 -2.8401
  234MOL0     H31547   1.809   6.295   6.824 -1.4831  0.0564 -0.5472
  234MOL0     H31548   1.743   6.433   7.017  1.6368 -1.5862 -0.2147
  234MOL0     H31549   1.635   6.301   7.079  0.6562  0.4667  1.8114
  234MOL0     H31550   1.369   6.400   6.781  0.0180  0.7290  0.0388
  234MOL0     H31551   1.058   6.476   6.856 -1.0607  1.7489 -0.2597
  234MOL0     H31552   1.098   6.633   6.762  0.9986  1.3200  0.1563
  234MOL0     H31553   1.165   6.481   6.707 -1.6251  1.4749 -2.0533
  234MOL0     H31554   1.209   6.922   7.320  1.3039 -0.1861  0.0464
  234MOL0     H31555   1.070   7.101   7.431 -2.8271 -1.4579  1.4923
  234MOL0     H31556   0.844   7.385   7.216 -1.1408  1.8092  1.7639
  234MOL0     H31557   0.725   7.252   7.230  0.6880 -1.3926  0.2980
  234MOL0     H31558   0.689   7.347   7.466  0.2119  0.6213 -0.0100
  234MOL0     H31559   0.785   7.478   7.430 -1.8093 -0.3674  4.0435
  234MOL0     H31560   0.513   7.447   7.347 -0.7161  0.0928 -1.3632
  234MOL0     H31561   0.615   7.461   7.208  2.1325  1.0619 -0.5209
  234MOL0     H31562   0.629   7.650   7.451 -0.8632  0.0704  0.0317
  234MOL0     H31563   0.727   7.666   7.307  2.2054 -1.7456  2.4268
  234MOL0     H31564   0.415   7.677   7.272 -1.5113  3.0422 -0.1090
  234MOL0     H31565   0.538   7.726   7.172 -0.5295 -1.3030 -0.8145
  234MOL0     H31566   0.544   7.844   7.444 -1.0184  1.4338  0.4058
  234MOL0     H31567   0.614   7.908   7.301  0.9147 -1.0658  1.0468
  234MOL0     H31568   0.308   7.867   7.334 -0.2970  1.3280  0.4775
  234MOL0     H31569   0.385   7.924   7.193  2.6575  0.1257 -0.0635
  234MOL0     H31570   0.420   8.091   7.464 -0.4695  1.5674  0.2315
  234MOL0     H31571   0.282   8.113   7.367  0.1370 -1.1163  1.4271
  234MOL0     H31572   0.823   7.147   7.095  0.3226 -0.0630 -0.4817
  234MOL0     H31573   0.947   6.959   6.978 -1.6155  1.9916 -1.0420
  234MOL0     H31574   1.361   6.701   7.171  0.9089  1.7298 -1.3169
  234MOL0     H31575   1.549   6.566   7.132 -0.5545  0.9610  0.5280
  234MOL0     H31576   1.937   6.773   7.820  0.4792  2.7071  0.4638
  234MOL0     H31577   1.792   6.926   7.949  0.5460 -1.5763  0.6291
  234MOL0     H31578   1.607   7.136   8.259 -0.2085 -2.8912 -2.1029
  234MOL0     H31579   1.515   7.341   8.355  0.0866 -0.3572  0.3743
  234MOL0     H31580   1.405   7.707   8.358  0.7032  0.1857 -0.1822
  234MOL0     H31581   1.420   7.547   8.429 -0.3262  0.0234 -0.6060
  234MOL0     H31582   1.650   7.528   8.343  1.8454  1.5824  0.5037
  234MOL0     H31583   1.638   7.672   8.419  1.2174 -1.0232  0.5239
  234MOL0     H31584   1.576   7.767   8.171  2.0115  1.7168  0.4045
  234MOL0     H31585   1.621   7.620   8.105 -0.3670 -0.4962  1.1637
  234MOL0     H31586   1.834   7.697   8.089  2.7429  4.1532 -0.5108
  234MOL0     H31587   1.845   7.663   8.258  1.1332  2.2258  0.3282
  234MOL0     H31588   1.934   8.056   8.201  0.9492 -1.6203 -1.0803
  234MOL0     H31589   1.350   7.443   7.973  3.3423  0.6163 -0.0240
  234MOL0     H31590   1.450   7.237   7.880  0.4988 -0.4096 -0.3121
  235MOL0     O31591  11.046  10.136   8.011 -0.0065  0.4301  0.4210
  235MOL0     C31592  11.070  10.250   8.050  0.6070 -0.2649  0.7097
  235MOL0     O31593  10.996  10.324   8.152 -0.1410  0.2898  0.6512
  235MOL0     C31594  10.885  10.273   8.217 -0.2443  1.2365  1.6977
  235MOL0     C31595  10.887  10.136   8.248 -0.2650 -0.3966  0.0646
  235MOL0     C31596  10.776  10.088   8.314  0.1405 -0.1848  0.2882
  235MOL0     C31597  10.665  10.169   8.335  0.5479  0.6940 -1.0510
  235MOL0     O31598  10.555  10.110   8.393 -0.1883  1.2596  0.4222
  235MOL0     C31599  10.451  10.076   8.297 -0.1250  0.0559  0.0623
  235MOL0     C31600  10.344   9.983   8.366 -0.8564 -0.5811  0.7803
  235MOL0     C31601  10.215   9.990   8.280  0.2442 -0.4756 -0.1186
  235MOL0     C31602  10.104   9.882   8.317  0.0536 -0.6581  0.2788
  235MOL0     C31603   9.988   9.863   8.230  0.1642  0.3308  1.0056
  235MOL0     C31604   9.906   9.988   8.216  0.1574 -0.5956 -0.1777
  235MOL0     C31605   9.809   9.983   8.095 -0.9670 -1.0519  0.0690
  235MOL0     C31606   9.724  10.116   8.095 -0.2885  0.1506  0.2350
  235MOL0     N31607   9.625  10.103   7.987 -1.0300  0.3123 -0.0841
  235MOL0     C31608   9.650  10.046   7.862 -0.0692  0.2763 -0.7068
  235MOL0     C31609   9.532  10.050   7.800  1.4755 -0.3281  0.3906
  235MOL0     C31610   9.492   9.976   7.674  0.0142 -0.1398 -0.5210
  235MOL0     C31611   9.341   9.932   7.673 -0.4459 -0.6865  0.5325
  235MOL0     C31612   9.331   9.808   7.764 -0.7221 -0.0786  0.0962
  235MOL0     C31613   9.191   9.786   7.820 -0.1285  0.0850  0.1040
  235MOL0     O31614   9.207   9.651   7.875  0.2992 -0.0435 -0.6694
  235MOL0     C31615   9.091   9.609   7.942 -1.2479 -0.6224  0.4894
  235MOL0     C31616   8.965   9.664   7.930  0.4695 -0.1483 -0.3763
  235MOL0     C31617   8.858   9.623   8.008 -0.8749  0.4387  0.5544
  235MOL0     C31618   8.730   9.693   7.973  0.3729  0.3098  0.2219
  235MOL0     C31619   8.874   9.502   8.088  0.6123 -0.6419  0.4775
  235MOL0     C31620   8.754   9.430   8.149  0.0181  0.3486  0.5016
  235MOL0     O31621   8.776   9.307   8.205 -0.5021  0.5666  0.0741
  235MOL0     C31622   8.673   9.251   8.267  0.3241  0.0807 -0.2295
  235MOL0     C31623   8.623   9.302   8.387  0.0164  0.8526 -0.3169
  235MOL0     C31624   8.509   9.232   8.447 -0.3910  0.8956  0.5601
  235MOL0     C31625   8.463   9.117   8.379 -0.0532 -0.4396 -0.2425
  235MOL0     O31626   8.370   9.024   8.417 -0.0687 -0.0286  0.1569
  235MOL0     C31627   8.327   9.045   8.552  0.8705  0.6589  0.0814
  235MOL0     C31628   8.243   8.927   8.603  0.0444  0.2263  0.2796
  235MOL0     C31629   8.099   8.928   8.556  0.1213 -0.6276  0.4177
  235MOL0     C31630   8.031   8.790   8.559 -0.4320 -0.6735  0.6493
  235MOL0     C31631   7.889   8.787   8.507 -0.5021 -0.4325  0.7926
  235MOL0     C31632   7.854   8.642   8.468  0.6894  0.8233 -0.6000
  235MOL0     C31633   7.868   8.536   8.568 -0.0667 -0.0179 -0.7781
  235MOL0     C31634   7.820   8.399   8.530  0.0428 -0.1355 -0.7108
  235MOL0    Cl31635   7.854   8.339   8.362 -0.3355 -0.0950  0.3117
  235MOL0     C31636   8.505   9.080   8.251 -0.7236  0.7512 -0.4695
  235MOL0     C31637   8.612   9.150   8.193  0.2063  0.1165  0.3099
  235MOL0     O31638   8.644   9.492   8.147  0.5668 -0.0096  0.1680
  235MOL0     C31639   9.005   9.457   8.110 -0.2428  0.1999  0.7679
  235MOL0     C31640   9.112   9.502   8.029 -0.3263 -0.2710 -0.2610
  235MOL0     N31641   9.442  10.115   7.891  0.6939  0.2386 -1.1180
  235MOL0     N31642   9.496  10.139   7.999  0.2064 -0.3972 -0.3866
  235MOL0     C31643  10.658  10.304   8.298 -1.1245 -0.6157 -0.1604
  235MOL0     C31644  10.778  10.355   8.243  0.2768 -0.2737  0.7133
  235MOL0     C31645  11.190  10.319   7.987 -0.1390 -0.2307  0.4764
  235MOL0     C31646  11.243  10.434   8.053  0.5834  0.2370  0.5148
  235MOL0     C31647  11.357  10.497   8.000 -0.5228  0.5438 -1.0228
  235MOL0     C31648  11.422  10.451   7.891  0.1924 -0.2036 -0.2036
  235MOL0     O31649  11.527  10.527   7.840 -0.4138 -0.1239 -0.1603
  235MOL0     C31650  11.616  10.473   7.741 -0.6478  1.0970  0.2133
  235MOL0     C31651  11.702  10.587   7.685 -0.2459  0.6064 -0.4138
  235MOL0     C31652  11.806  10.543   7.583  0.3963  0.0685  0.2497
  235MOL0     C31653  11.769  10.433   7.495  0.0734  0.8400  0.2209
  235MOL0     C31654  11.886  10.407   7.408  0.3737  0.0606 -0.1736
  235MOL0     C31655  11.980  10.392   7.338 -1.0754  0.6388  1.0400
  235MOL0     C31656  11.366  10.339   7.822 -0.3051  0.6263  0.4962
  235MOL0     C31657  11.253  10.273   7.876 -0.6541 -0.5821 -0.5390
  235MOL0     H31658  10.972  10.071   8.231 -0.3773 -0.3984 -0.5015
  235MOL0     H31659  10.778   9.983   8.343 -0.3958 -0.1637  0.4122
  235MOL0     H31660  10.396  10.160   8.255 -1.0062 -1.3328 -1.7329
  235MOL0     H31661  10.506  10.019   8.221  2.9471  2.6113  0.1997
  235MOL0     H31662  10.377   9.879   8.372 -3.1602 -1.6836 -2.8101
  235MOL0     H31663  10.327  10.014   8.470 -3.1157  1.1115 -0.0077
  235MOL0     H31664  10.166  10.087   8.287  1.8882  0.5803 -2.2014
  235MOL0     H31665  10.245   9.975   8.176  0.8899  0.1080 -0.0217
  235MOL0     H31666  10.159   9.788   8.318  0.4431 -0.4360  1.3070
  235MOL0     H31667  10.073   9.903   8.419 -0.6431 -1.4502  0.2371
  235MOL0     H31668  10.017   9.827   8.131 -0.2654 -0.4649  1.1609
  235MOL0     H31669   9.917   9.790   8.270 -0.9983  0.2267 -1.1094
  235MOL0     H31670   9.840   9.991   8.304 -3.4912  1.9828 -2.7052
  235MOL0     H31671   9.967  10.079   8.221 -0.5931 -0.1228  3.1584
  235MOL0     H31672   9.857   9.967   7.998 -0.0924  1.9996 -0.0782
  235MOL0     H31673   9.741   9.905   8.132  0.8215 -2.5886  0.3174
  235MOL0     H31674   9.782  10.206   8.071  2.5067 -1.4613  0.4339
  235MOL0     H31675   9.675  10.134   8.191 -0.9896 -2.1641  0.3749
  235MOL0     H31676   9.745  10.005   7.830  0.0864 -3.9632  3.9507
  235MOL0     H31677   9.507  10.045   7.590 -3.7078  0.3289 -0.9889
  235MOL0     H31678   9.555   9.888   7.663 -3.2325 -2.8024  0.5953
  235MOL0     H31679   9.316   9.912   7.568  2.6972  1.7904 -0.8827
  235MOL0     H31680   9.285  10.021   7.704  1.3450  0.9038 -0.5862
  235MOL0     H31681   9.401   9.822   7.846 -0.6726  2.8836 -0.3770
  235MOL0     H31682   9.368   9.723   7.705 -1.4448  0.6805 -1.5048
  235MOL0     H31683   9.107   9.775   7.751 -2.9243 -0.1382  3.2776
  235MOL0     H31684   9.158   9.864   7.890 -0.2326  0.7106 -0.6230
  235MOL0     H31685   8.953   9.752   7.867  2.5360 -0.5423 -1.4053
  235MOL0     H31686   8.641   9.632   7.952 -1.3158  2.3569  1.0466
  235MOL0     H31687   8.715   9.765   8.054  0.9687 -1.0163  1.5479
  235MOL0     H31688   8.746   9.745   7.878 -1.3249  1.8068  0.6884
  235MOL0     H31689   8.668   9.386   8.439  0.6661  1.2065 -1.4252
  235MOL0     H31690   8.478   9.266   8.545  0.9462  0.1879  1.2549
  235MOL0     H31691   8.410   9.061   8.620  1.3506 -1.2511  0.0143
  235MOL0     H31692   8.265   9.134   8.569 -0.7001 -0.8127  2.8261
  235MOL0     H31693   8.295   8.836   8.572  2.8543  2.4397 -1.9958
  235MOL0     H31694   8.244   8.922   8.712 -0.4873  0.8983  0.3234
  235MOL0     H31695   8.100   8.958   8.451 -0.2463 -3.7015 -0.5573
  235MOL0     H31696   8.040   9.004   8.609 -1.8345 -0.5547 -1.6975
  235MOL0     H31697   8.090   8.719   8.500  1.6454 -0.8291  2.7420
  235MOL0     H31698   8.027   8.750   8.661 -0.0920 -1.5604  0.3231
  235MOL0     H31699   7.870   8.845   8.417 -0.1504 -1.9042 -0.2784
  235MOL0     H31700   7.837   8.816   8.599  0.5653 -2.5609  2.1722
  235MOL0     H31701   7.746   8.644   8.447  0.6934  0.2613 -0.7026
  235MOL0     H31702   7.908   8.625   8.374 -1.2634  0.1593 -1.6627
  235MOL0     H31703   7.820   8.565   8.662  2.1650  2.0331 -0.1762
  235MOL0     H31704   7.974   8.528   8.592 -0.0827  1.7917  0.0479
  235MOL0     H31705   7.714   8.396   8.557  0.2607 -2.7978  0.2025
  235MOL0     H31706   7.876   8.334   8.599 -0.2060  1.6687  1.2998
  235MOL0     H31707   8.477   8.980   8.219  2.0647 -0.4959  0.6222
  235MOL0     H31708   8.645   9.130   8.092  1.7364 -1.7009  1.0978
  235MOL0     H31709   9.022   9.370   8.172 -0.3225 -0.3124  0.0814
  235MOL0     H31710   9.213   9.463   8.020  1.4962  4.1440 -2.2277
  235MOL0     H31711  10.563  10.356   8.309  1.2188  3.6268  2.6637
  235MOL0     H31712  10.770  10.461   8.222  0.7084 -0.2746  0.5385
  235MOL0     H31713  11.213  10.493   8.138  3.1224  1.8754  0.3970
  235MOL0     H31714  11.391  10.581   8.059 -3.1368  1.9452 -1.3577
  235MOL0     H31715  11.686  10.404   7.789 -0.1778  1.3998 -0.0253
  235MOL0     H31716  11.570  10.418   7.658 -1.7417  0.1786  1.4018
  235MOL0     H31717  11.756  10.628   7.770 -1.6354 -1.2863  1.4985
  235MOL0     H31718  11.634  10.659   7.637  0.0916  0.9876 -0.3151
  235MOL0     H31719  11.889  10.503   7.642 -0.0278 -2.1033 -0.5573
  235MOL0     H31720  11.829  10.635   7.528 -0.0224  0.3452  0.5334
  235MOL0     H31721  11.695  10.475   7.426  0.6971  1.3294 -0.1613
  235MOL0     H31722  11.739  10.341   7.547  1.6945 -0.6496 -1.3568
  235MOL0     H31723  12.064  10.381   7.273 -1.1871 -0.4814  1.0612
  235MOL0     H31724  11.407  10.281   7.740  1.4901  2.0899  0.2949
  235MOL0     H31725  11.208  10.190   7.824  0.1391 -0.3006 -1.7169
  236MOL0     O31726   6.491   9.577  11.011 -0.0088 -0.1938  0.1893
  236MOL0     C31727   6.519   9.645  11.111  0.8251 -0.0100 -0.6112
  236MOL0     O31728   6.443   9.746  11.159  0.4770  0.3715 -0.5419
  236MOL0     C31729   6.313   9.750  11.112  0.2445 -0.3930 -0.6066
  236MOL0     C31730   6.267   9.815  10.995 -0.4036  0.0859  0.3598
  236MOL0     C31731   6.139   9.775  10.945  0.0242 -0.6177  0.7001
  236MOL0     C31732   6.057   9.681  11.006 -0.3157 -1.1544  0.1393
  236MOL0     O31733   5.955   9.645  10.926  0.3373 -0.2314 -0.6347
  236MOL0     C31734   5.840   9.583  10.987  0.2018  0.2690  0.1557
  236MOL0     C31735   5.753   9.519  10.887 -0.2680 -0.4696  0.5386
  236MOL0     C31736   5.664   9.608  10.795 -0.5137 -0.5066 -0.0582
  236MOL0     C31737   5.593   9.723  10.867  0.3372 -0.0929  0.2369
  236MOL0     C31738   5.463   9.768  10.814 -0.4558 -0.3202  0.2303
  236MOL0     C31739   5.473   9.832  10.675 -1.0903  0.1022  0.2652
  236MOL0     C31740   5.333   9.851  10.619 -0.1119  0.2204  0.1091
  236MOL0     C31741   5.333   9.921  10.485  0.0810  0.9816 -0.2367
  236MOL0     N31742   5.197   9.954  10.438 -0.9712  0.3111 -0.5942
  236MOL0     C31743   5.142  10.075  10.457  0.9100 -0.6211  0.4820
  236MOL0     C31744   5.018  10.069  10.401  0.6147  0.2674  0.8793
  236MOL0     C31745   4.919  10.186  10.414  0.0212 -0.1833 -0.7188
  236MOL0     C31746   4.877  10.254  10.278  0.7949  0.4228  0.0724
  236MOL0     C31747   4.762  10.179  10.221  0.8147  0.1590 -0.3296
  236MOL0     C31748   4.632  10.233  10.289  0.1938 -0.0354  0.4781
  236MOL0     O31749   4.599  10.371  10.275 -0.2609  0.0731 -1.1102
  236MOL0     C31750   4.469  10.404  10.238 -0.0200  0.7552 -0.4402
  236MOL0     C31751   4.361  10.338  10.285  0.9941  0.3249 -0.4283
  236MOL0     C31752   4.229  10.369  10.240  0.7677 -1.8456 -0.0052
  236MOL0     C31753   4.124  10.277  10.280  0.3428 -0.5245 -0.3405
  236MOL0     C31754   4.207  10.486  10.161  0.1778 -0.2480 -0.1759
  236MOL0     C31755   4.070  10.543  10.133 -0.4228 -0.2734  0.2612
  236MOL0     O31756   3.958  10.489  10.186  0.2942 -0.0455 -0.0030
  236MOL0     C31757   3.834  10.539  10.151 -0.4640  0.6130 -0.5486
  236MOL0     C31758   3.773  10.664  10.189 -0.1218  0.5073  0.1492
  236MOL0     C31759   3.650  10.691  10.137 -0.4718  0.0972  0.6081
  236MOL0     C31760   3.574  10.608  10.060  0.0700  0.2263  0.2754
  236MOL0     O31761   3.439  10.629  10.026 -0.3988 -0.7512  0.9208
  236MOL0     C31762   3.376  10.744  10.072  0.1898  0.0766  0.0716
  236MOL0     C31763   3.228  10.745  10.049  0.1192 -0.7465  0.6197
  236MOL0     C31764   3.146  10.844  10.145  0.2530 -0.6119 -0.5420
  236MOL0     C31765   2.997  10.837  10.107 -0.8793 -1.1370 -0.7449
  236MOL0     C31766   2.919  10.887  10.225 -0.1461 -0.1462  0.2128
  236MOL0     C31767   2.950  11.036  10.266  0.0361  0.3495  0.4257
  236MOL0     C31768   2.839  11.081  10.358  0.5928  1.0797 -0.1194
  236MOL0     C31769   2.858  11.234  10.374  0.2167  0.2369 -0.3291
  236MOL0    Cl31770   2.729  11.336  10.431  0.4692 -0.0768 -0.3290
  236MOL0     C31771   3.638  10.486  10.020 -1.5113 -0.3449  0.0437
  236MOL0     C31772   3.769  10.461  10.064  0.1142  0.3175  0.0564
  236MOL0     O31773   4.066  10.642  10.060 -0.4158  0.6569 -0.0156
  236MOL0     C31774   4.321  10.556  10.126 -0.9096 -0.1837  0.6271
  236MOL0     C31775   4.447  10.515  10.163 -0.4506 -0.1471  0.1581
  236MOL0     N31776   5.013   9.958  10.320 -0.0846  0.0444 -0.4032
  236MOL0     N31777   5.111   9.881  10.352 -0.2369  0.2164 -0.5100
  236MOL0     C31778   6.108   9.613  11.120  0.2678  0.6262  0.4852
  236MOL0     C31779   6.230   9.653  11.171 -0.0561  0.2604 -0.1911
  236MOL0     C31780   6.633   9.602  11.199 -0.2743 -1.4816 -0.7382
  236MOL0     C31781   6.708   9.488  11.160  0.5084 -0.1675  0.0635
  236MOL0     C31782   6.804   9.430  11.238  0.2706  0.4430  0.4959
  236MOL0     C31783   6.839   9.496  11.348  1.5539 -0.8502 -0.6486
  236MOL0     O31784   6.952   9.466  11.421  1.0017  0.7078 -0.0820
  236MOL0     C31785   6.945   9.339  11.484  0.6787 -0.2616 -0.0780
  236MOL0     C31786   6.907   9.359  11.634  0.5381  0.3603  1.1180
  236MOL0     C31787   6.951   9.243  11.722  1.1370 -0.6803  0.3379
  236MOL0     C31788   6.949   9.282  11.867  0.3132  0.6407 -0.2006
  236MOL0     C31789   6.812   9.319  11.911  0.4740  0.4251  0.0689
  236MOL0     C31790   6.703   9.338  11.954  0.5799  0.1132 -0.7749
  236MOL0     C31791   6.775   9.610  11.395 -0.2551 -0.0015 -0.2079
  236MOL0     C31792   6.674   9.665  11.319  0.2943  0.3880  0.0211
  236MOL0     H31793   6.330   9.887  10.945 -0.2845 -0.1463  0.1716
  236MOL0     H31794   6.110   9.826  10.854  3.5685 -0.1875 -0.3293
  236MOL0     H31795   5.866   9.509  11.063  0.5590  0.2175 -0.0137
  236MOL0     H31796   5.790   9.656  11.052 -1.8538  0.0654 -1.1161
  236MOL0     H31797   5.816   9.469  10.811 -1.9871 -0.5668 -0.8858
  236MOL0     H31798   5.688   9.451  10.942  0.3558 -1.2164  0.3889
  236MOL0     H31799   5.723   9.638  10.708  1.9383 -3.4550  0.4280
  236MOL0     H31800   5.590   9.540  10.751  0.3871 -1.3865 -0.2503
  236MOL0     H31801   5.582   9.684  10.968  1.8889  0.1502  0.5321
  236MOL0     H31802   5.659   9.810  10.870 -0.7431  0.8031 -0.9352
  236MOL0     H31803   5.386   9.690  10.823 -0.0729 -0.4872  2.8338
  236MOL0     H31804   5.415   9.836  10.884 -0.9752 -2.7814  2.4178
  236MOL0     H31805   5.518   9.931  10.689 -1.7809  0.4951 -0.2709
  236MOL0     H31806   5.523   9.767  10.602 -1.8688  2.7166 -2.7668
  236MOL0     H31807   5.289   9.750  10.620 -0.6703  0.4343 -0.8899
  236MOL0     H31808   5.277   9.905  10.695  1.6242  1.3867  0.5878
  236MOL0     H31809   5.361   9.848  10.409 -1.6438  0.0468 -0.0215
  236MOL0     H31810   5.402  10.006  10.486  0.6335  0.5579  1.5297
  236MOL0     H31811   5.176  10.157  10.520 -2.0621  0.4388  0.8815
  236MOL0     H31812   4.835  10.147  10.471  0.7671 -1.4079 -0.4287
  236MOL0     H31813   4.968  10.258  10.480 -1.0492  0.2041 -0.3126
  236MOL0     H31814   4.968  10.255  10.218  1.1379  1.4075  0.5907
  236MOL0     H31815   4.850  10.355  10.308  1.0970 -0.3141  3.2600
  236MOL0     H31816   4.778  10.072  10.241  1.4120  0.0813 -1.1873
  236MOL0     H31817   4.746  10.191  10.114  3.7691 -0.4571 -0.9258
  236MOL0     H31818   4.615  10.194  10.389  3.0207 -1.5081  0.4801
  236MOL0     H31819   4.556  10.173  10.238 -2.6203  1.8739  2.0961
  236MOL0     H31820   4.378  10.255  10.352  3.1640  0.6984 -0.4278
  236MOL0     H31821   4.085  10.281  10.382  3.2611  0.6023  0.8454
  236MOL0     H31822   4.043  10.269  10.207 -1.4311 -0.9653  1.5798
  236MOL0     H31823   4.172  10.179  10.282  3.2948  0.6647  4.2664
  236MOL0     H31824   3.832  10.739  10.241  0.0385 -0.6344  1.6966
  236MOL0     H31825   3.609  10.789  10.162 -1.7704 -0.4637  0.7477
  236MOL0     H31826   3.384  10.739  10.181 -1.0981  2.1915  0.3204
  236MOL0     H31827   3.420  10.839  10.039 -1.6386  0.6369 -0.8612
  236MOL0     H31828   3.197  10.766   9.946  0.5259 -1.1210  0.4158
  236MOL0     H31829   3.197  10.643  10.071 -0.8374 -1.2819 -2.6529
  236MOL0     H31830   3.180  10.948  10.131 -1.3825 -0.2019 -1.8024
  236MOL0     H31831   3.153  10.813  10.250 -2.3192  4.0672  1.3284
  236MOL0     H31832   2.975  10.897  10.019 -1.5209 -1.2274 -0.6576
  236MOL0     H31833   2.969  10.731  10.095  1.8640 -2.3702  2.2190
  236MOL0     H31834   2.933  10.819  10.310  0.1379  0.3346  0.5588
  236MOL0     H31835   2.814  10.865  10.209  0.0166 -1.8028  1.1385
  236MOL0     H31836   3.052  11.032  10.306 -0.2340 -0.9283  1.0374
  236MOL0     H31837   2.949  11.091  10.172  4.6754 -1.7607 -1.1430
  236MOL0     H31838   2.845  11.035  10.458  0.1792  0.5639 -0.3246
  236MOL0     H31839   2.740  11.058  10.319  0.4867 -0.5902  0.9859
  236MOL0     H31840   2.896  11.275  10.280 -0.7970  1.3399 -0.2777
  236MOL0     H31841   2.941  11.244  10.444  1.6044 -3.8810 -1.1359
  236MOL0     H31842   3.578  10.418   9.960 -3.1476  0.2534  0.9201
  236MOL0     H31843   3.813  10.376  10.012  0.9932  0.3356  0.7517
  236MOL0     H31844   4.321  10.644  10.063  1.5054  0.6956  1.7199
  236MOL0     H31845   4.535  10.572  10.133 -1.3194  0.7083 -0.8657
  236MOL0     H31846   6.043   9.538  11.165  0.5963  0.3068  0.4271
  236MOL0     H31847   6.276   9.611  11.260 -4.0638 -2.0157  1.0483
  236MOL0     H31848   6.680   9.433  11.070 -2.9027  0.9857  0.2937
  236MOL0     H31849   6.847   9.338  11.200 -2.2802 -0.7659  0.3115
  236MOL0     H31850   6.868   9.281  11.434  0.8039 -1.5491  1.1738
  236MOL0     H31851   7.043   9.290  11.485 -0.4436 -2.7179 -1.3086
  236MOL0     H31852   6.799   9.368  11.626  0.6417  0.4490 -0.6443
  236MOL0     H31853   6.957   9.447  11.674  0.8876  1.8029 -2.1762
  236MOL0     H31854   7.052   9.209  11.700  2.0900  1.9548  0.3046
  236MOL0     H31855   6.871   9.169  11.706 -2.3349  2.3943  2.0559
  236MOL0     H31856   7.018   9.353  11.914 -2.0549  0.5237  3.9301
  236MOL0     H31857   6.977   9.185  11.907 -1.1456  0.3788  0.2317
  236MOL0     H31858   6.599   9.348  11.977  0.1679  0.8304 -2.7322
  236MOL0     H31859   6.821   9.671  11.472 -0.5867 -0.6311  0.5061
  236MOL0     H31860   6.622   9.753  11.355  0.1112  1.3502 -2.3732
  237MOL0     O31861   5.081   7.770   5.982 -0.0474 -0.4951 -0.2655
  237MOL0     C31862   5.026   7.839   6.063  0.6847 -0.2325 -0.1181
  237MOL0     O31863   5.051   7.968   6.087 -0.5252 -0.3750  0.7215
  237MOL0     C31864   5.167   8.025   6.033  0.4792 -0.3885  0.0248
  237MOL0     C31865   5.161   8.135   5.947 -0.2340 -0.3758 -0.5901
  237MOL0     C31866   5.283   8.192   5.909  0.6396 -0.9168  0.2081
  237MOL0     C31867   5.407   8.148   5.947  0.5248 -0.2938 -0.5193
  237MOL0     O31868   5.530   8.201   5.921  0.2542 -0.2884  0.4493
  237MOL0     C31869   5.550   8.295   5.812  0.5321  0.1997 -0.7160
  237MOL0     C31870   5.570   8.224   5.681 -0.1672  1.0539 -0.1480
  237MOL0     C31871   5.690   8.129   5.672 -0.5403  1.0208  0.0893
  237MOL0     C31872   5.715   8.089   5.523  1.0672  1.1617 -0.6830
  237MOL0     C31873   5.853   8.029   5.500 -0.0404  0.7182  1.3137
  237MOL0     C31874   5.850   7.958   5.365  0.4036  0.3386 -0.4759
  237MOL0     C31875   5.979   7.891   5.343 -0.2366  0.3205 -0.2091
  237MOL0     C31876   5.977   7.799   5.215 -0.3717  0.2479 -0.0512
  237MOL0     N31877   5.873   7.691   5.230  0.5295 -0.7390 -0.0524
  237MOL0     C31878   5.762   7.679   5.152  0.3123  0.0554 -0.0653
  237MOL0     C31879   5.681   7.584   5.210 -0.3422 -0.2109  0.1122
  237MOL0     C31880   5.543   7.538   5.172  0.3889 -0.5087 -0.5533
  237MOL0     C31881   5.440   7.599   5.273 -1.0450  1.2233  0.0381
  237MOL0     C31882   5.291   7.560   5.244 -0.4824  0.0215 -0.2417
  237MOL0     C31883   5.259   7.419   5.303 -0.9888  0.7041  0.3076
  237MOL0     O31884   5.118   7.410   5.283  0.2525  0.7745 -0.1354
  237MOL0     C31885   5.039   7.341   5.369 -0.5544 -0.1231  0.1505
  237MOL0     C31886   4.906   7.321   5.337  0.8780 -0.0995  0.2065
  237MOL0     C31887   4.810   7.272   5.428  0.7743 -0.0329 -0.0866
  237MOL0     C31888   4.672   7.290   5.381 -0.8912  0.0892 -0.3815
  237MOL0     C31889   4.860   7.204   5.546 -0.1424  0.5971 -0.0119
  237MOL0     C31890   4.772   7.125   5.633 -0.2336  0.5809  0.1305
  237MOL0     O31891   4.841   7.026   5.706  0.3802  0.2623  0.3823
  237MOL0     C31892   4.753   6.939   5.773 -0.6684 -1.0041 -0.0265
  237MOL0     C31893   4.734   6.957   5.908 -0.7762  0.4874 -0.3191
  237MOL0     C31894   4.653   6.865   5.987 -0.6355 -0.5149  0.2836
  237MOL0     C31895   4.599   6.756   5.918 -0.7180 -0.2037  0.6011
  237MOL0     O31896   4.542   6.643   5.975  0.0111  0.1920  0.9066
  237MOL0     C31897   4.440   6.674   6.074 -0.9943 -0.1577 -0.0897
  237MOL0     C31898   4.309   6.631   6.012 -1.0067  0.1603  0.7556
  237MOL0     C31899   4.293   6.478   5.996 -0.0819 -0.9604  0.1330
  237MOL0     C31900   4.143   6.448   5.975  0.2883 -0.1354  0.1031
  237MOL0     C31901   4.139   6.295   5.953  0.5308 -0.9258  0.1867
  237MOL0     C31902   4.010   6.252   5.887  0.6653  0.2434 -0.5052
  237MOL0     C31903   4.003   6.105   5.843 -0.2274 -0.3511  0.1413
  237MOL0     C31904   4.039   6.003   5.948  0.1666  0.1283  0.2088
  237MOL0    Cl31905   3.920   5.997   6.069 -0.2894 -0.1140 -0.3377
  237MOL0     C31906   4.603   6.754   5.784 -0.3152 -0.3469  0.1724
  237MOL0     C31907   4.678   6.842   5.704 -0.8094 -0.0934  0.0023
  237MOL0     O31908   4.651   7.128   5.622  0.7178 -0.2796 -0.2973
  237MOL0     C31909   4.995   7.210   5.574 -0.4734  0.2859 -0.6793
  237MOL0     C31910   5.080   7.291   5.496 -0.5784  0.5169  0.3392
  237MOL0     N31911   5.748   7.540   5.325 -0.1774 -0.0766  0.1969
  237MOL0     N31912   5.857   7.609   5.335  0.7448  0.4795  0.1363
  237MOL0     C31913   5.410   8.040   6.025  0.5872  0.1428  0.2876
  237MOL0     C31914   5.289   7.970   6.064 -0.1629 -1.1684 -0.2773
  237MOL0     C31915   4.902   7.785   6.131  0.2383 -0.9069 -0.5821
  237MOL0     C31916   4.836   7.852   6.237 -0.7689 -0.4158  0.3871
  237MOL0     C31917   4.717   7.802   6.296  0.2221  0.7744  0.5274
  237MOL0     C31918   4.662   7.680   6.249  0.5622 -0.0278 -0.3221
  237MOL0     O31919   4.545   7.623   6.294  0.0575 -0.4925 -0.5906
  237MOL0     C31920   4.502   7.668   6.419 -0.0068 -0.2788 -0.0756
  237MOL0     C31921   4.600   7.625   6.527 -0.3428  0.8358 -0.4335
  237MOL0     C31922   4.592   7.477   6.559  0.8620 -0.1640  0.0370
  237MOL0     C31923   4.706   7.436   6.647  0.7845 -0.7824  0.5046
  237MOL0     C31924   4.669   7.460   6.783 -0.3672 -1.0476 -0.0277
  237MOL0     C31925   4.651   7.486   6.899 -0.7717  0.6129 -0.1153
  237MOL0     C31926   4.728   7.617   6.140  0.7158 -0.7166 -0.1536
  237MOL0     C31927   4.838   7.662   6.078  0.0453 -0.2030  0.7350
  237MOL0     H31928   5.061   8.164   5.915 -1.5500 -3.3494  0.3789
  237MOL0     H31929   5.279   8.276   5.840 -1.2286 -0.6907  0.5396
  237MOL0     H31930   5.458   8.354   5.811 -0.0294 -0.6525 -1.5998
  237MOL0     H31931   5.637   8.360   5.826 -0.1529  1.3625 -1.7222
  237MOL0     H31932   5.472   8.176   5.668  0.7453 -1.2109  0.7598
  237MOL0     H31933   5.587   8.299   5.604 -0.9720 -2.2191 -3.8611
  237MOL0     H31934   5.774   8.185   5.715  0.0176  1.7356 -1.8532
  237MOL0     H31935   5.663   8.036   5.724 -1.2253  0.4847 -1.1965
  237MOL0     H31936   5.650   8.004   5.499  3.1704 -0.6744 -0.2222
  237MOL0     H31937   5.696   8.173   5.455  0.9225  1.0296 -0.8072
  237MOL0     H31938   5.935   8.100   5.520  1.8346 -0.9241 -0.1334
  237MOL0     H31939   5.857   7.940   5.564 -2.7557  0.7061  1.5922
  237MOL0     H31940   5.766   7.888   5.359  2.0700 -1.7257 -0.8292
  237MOL0     H31941   5.846   8.024   5.278  4.5028 -1.8192 -2.6012
  237MOL0     H31942   6.056   7.967   5.323  0.2198 -0.3318 -0.9901
  237MOL0     H31943   6.020   7.830   5.424 -0.8340  0.2538  0.0469
  237MOL0     H31944   6.071   7.743   5.206 -0.0831  0.8930 -1.2461
  237MOL0     H31945   5.964   7.847   5.118  0.0596 -0.1627 -0.3138
  237MOL0     H31946   5.733   7.740   5.068  1.4794 -1.0677 -1.3343
  237MOL0     H31947   5.519   7.557   5.067  0.0982  1.0446 -0.2215
  237MOL0     H31948   5.539   7.429   5.180  2.5522 -0.5853  0.2022
  237MOL0     H31949   5.448   7.706   5.251 -1.2508  0.9611 -1.3879
  237MOL0     H31950   5.456   7.564   5.375  0.7132 -3.6582 -1.6157
  237MOL0     H31951   5.264   7.562   5.138  0.8705  2.2835 -0.6114
  237MOL0     H31952   5.228   7.641   5.283 -1.2441 -0.1812 -1.0200
  237MOL0     H31953   5.282   7.417   5.410 -1.7313 -1.2432  0.4814
  237MOL0     H31954   5.315   7.337   5.258 -1.2282 -0.6765  2.3796
  237MOL0     H31955   4.869   7.362   5.244 -0.6219 -0.4752  0.6085
  237MOL0     H31956   4.601   7.314   5.460 -0.4674  0.5689 -0.1397
  237MOL0     H31957   4.666   7.383   5.323 -0.7576  0.8844  0.8461
  237MOL0     H31958   4.646   7.203   5.321  0.8012  1.7799 -3.8888
  237MOL0     H31959   4.778   7.047   5.950 -1.4652  0.6290  0.1320
  237MOL0     H31960   4.649   6.855   6.095  1.1613 -1.8500  0.2833
  237MOL0     H31961   4.466   6.611   6.160 -1.3926  2.8201  2.4096
  237MOL0     H31962   4.433   6.777   6.112  0.4894 -0.3088  0.6532
  237MOL0     H31963   4.227   6.676   6.069 -0.3050  0.5739  1.4511
  237MOL0     H31964   4.302   6.666   5.908 -2.5967 -2.9302 -0.2885
  237MOL0     H31965   4.332   6.434   6.088 -1.0930  3.0159  2.7064
  237MOL0     H31966   4.351   6.435   5.913 -1.7748 -1.5208 -0.8011
  237MOL0     H31967   4.084   6.471   6.064 -0.3705  0.2032 -0.4051
  237MOL0     H31968   4.097   6.494   5.887 -5.2355 -1.9129  1.6593
  237MOL0     H31969   4.147   6.248   6.052 -1.1942 -0.9137  0.3659
  237MOL0     H31970   4.224   6.254   5.898 -0.6920 -2.2704 -0.7563
  237MOL0     H31971   3.934   6.275   5.963  0.5082 -2.8712  0.4282
  237MOL0     H31972   3.978   6.315   5.803 -1.9658  1.8757  1.5449
  237MOL0     H31973   4.069   6.089   5.757  0.4425  0.9818  0.3777
  237MOL0     H31974   3.901   6.088   5.806 -0.6870 -0.2741  1.3486
  237MOL0     H31975   4.140   6.016   5.987 -0.4944  2.0937  1.4076
  237MOL0     H31976   4.038   5.904   5.902 -1.0137  0.1575  0.1364
  237MOL0     H31977   4.549   6.670   5.743 -0.0946 -1.2656  1.6672
  237MOL0     H31978   4.672   6.831   5.596 -0.3413 -1.6215  0.1022
  237MOL0     H31979   5.029   7.165   5.667 -0.5831  0.3762 -0.5958
  237MOL0     H31980   5.181   7.310   5.532 -0.8338  2.3308  0.1530
  237MOL0     H31981   5.511   8.009   6.050  0.0840 -2.2779 -0.4265
  237MOL0     H31982   5.295   7.883   6.128 -0.2222  0.0195  1.4260
  237MOL0     H31983   4.885   7.944   6.268 -1.8060  0.2847  0.0167
  237MOL0     H31984   4.685   7.845   6.390 -0.1673 -0.4929  1.0065
  237MOL0     H31985   4.485   7.776   6.425 -0.3235 -0.2551 -1.2165
  237MOL0     H31986   4.406   7.622   6.446 -0.2960  0.7817  0.7608
  237MOL0     H31987   4.576   7.685   6.615 -0.7467  0.6514 -0.4177
  237MOL0     H31988   4.705   7.653   6.513 -0.3173  1.5115  0.9444
  237MOL0     H31989   4.593   7.412   6.471  2.5848  0.6778 -0.6173
  237MOL0     H31990   4.489   7.464   6.594  0.3993 -0.1663 -1.2792
  237MOL0     H31991   4.805   7.470   6.617  0.1663  0.5983 -0.0425
  237MOL0     H31992   4.708   7.326   6.644  0.5964 -0.7728 -1.3848
  237MOL0     H31993   4.648   7.506   7.004  1.6339  3.9115 -0.5001
  237MOL0     H31994   4.678   7.529   6.101 -0.2800 -0.5159  0.6011
  237MOL0     H31995   4.880   7.602   5.997 -2.1035 -1.2454  0.3326
  238MOL0     O31996   1.116   8.500   1.239  0.3241  0.1370 -0.3920
  238MOL0     C31997   1.216   8.454   1.181 -0.2222  0.2969  0.2350
  238MOL0     O31998   1.214   8.331   1.124  0.6638 -0.0124  0.3152
  238MOL0     C31999   1.097   8.273   1.107  0.7716  0.0537 -0.7470
  238MOL0     C32000   1.067   8.155   1.174  0.5259  0.6821  0.0161
  238MOL0     C32001   0.933   8.109   1.175 -0.0660 -0.1190 -0.7928
  238MOL0     C32002   0.830   8.160   1.103  0.3069 -0.9727 -0.2219
  238MOL0     O32003   0.705   8.105   1.111 -0.4393  0.6533  0.0460
  238MOL0     C32004   0.688   7.961   1.120 -1.3584 -0.1743  0.5078
  238MOL0     C32005   0.546   7.915   1.116 -0.1647  1.2010  0.4553
  238MOL0     C32006   0.524   7.767   1.161  0.4310  1.0133  0.8822
  238MOL0     C32007   0.377   7.734   1.169  0.2930  0.0258 -0.0609
  238MOL0     C32008   0.352   7.588   1.192  0.5490  0.3043  0.5181
  238MOL0     C32009   0.206   7.550   1.158  0.2756  0.0238  0.3314
  238MOL0     C32010   0.188   7.404   1.176  1.1636  0.5368  0.0847
  238MOL0     C32011   0.039   7.379   1.151 -0.7390 -0.0600  0.8486
  238MOL0     N32012   0.003   7.235   1.140 -0.8294  0.5161 -0.5389
  238MOL0     C32013   0.098   7.134   1.134 -0.1992  0.2201  0.9305
  238MOL0     C32014   0.025   7.018   1.156 -0.9591 -0.0437 -0.0060
  238MOL0     C32015   0.093   6.884   1.150 -0.0514 -0.8629  0.1755
  238MOL0     C32016   0.068   6.810   1.283  0.1642  0.4706  0.7135
  238MOL0     C32017   0.176   6.694   1.294 -0.6463 -0.2400 -0.8122
  238MOL0     C32018   0.167   6.596   1.407 -0.1604 -0.6161  0.8718
  238MOL0     O32019   0.167   6.673   1.532 -0.2973 -0.0080 -0.3268
  238MOL0     C32020   0.266   6.646   1.629 -0.2287  0.0654 -0.5224
  238MOL0     C32021   0.409   6.639   1.603  0.8516 -0.7778  0.3171
  238MOL0     C32022   0.504   6.646   1.708  0.3139 -0.2346  0.2026
  238MOL0     C32023   0.651   6.667   1.671 -0.1231 -0.1579 -0.5539
  238MOL0     C32024   0.462   6.654   1.851  0.9730  0.9561 -0.4407
  238MOL0     C32025   0.552   6.659   1.970 -0.4058  1.2504  0.5315
  238MOL0     O32026   0.684   6.681   1.940  0.0634 -0.1341 -0.3242
  238MOL0     C32027   0.761   6.680   2.046 -0.5828  1.1392  0.5364
  238MOL0     C32028   0.802   6.800   2.100  0.1932 -0.3126  0.7428
  238MOL0     C32029   0.889   6.805   2.209  0.2592 -0.7318 -0.5107
  238MOL0     C32030   0.945   6.692   2.259  0.6732  0.1359 -0.2759
  238MOL0     O32031   1.043   6.684   2.350 -0.1743  0.5359  0.5343
  238MOL0     C32032   1.114   6.805   2.387  0.5320 -0.3203  0.2369
  238MOL0     C32033   1.250   6.768   2.450  0.7104  0.3503  0.6636
  238MOL0     C32034   1.239   6.663   2.556  0.0737  0.2528 -0.4587
  238MOL0     C32035   1.345   6.691   2.666 -0.7670  0.3322  0.7759
  238MOL0     C32036   1.492   6.685   2.618 -0.1582 -0.9716  0.2684
  238MOL0     C32037   1.589   6.725   2.735  0.1562 -0.5600  0.0988
  238MOL0     C32038   1.734   6.687   2.697 -0.5515  0.3795  1.4414
  238MOL0     C32039   1.810   6.661   2.830 -0.1644 -0.3535 -0.0462
  238MOL0    Cl32040   1.985   6.602   2.804  0.2299  0.2046 -0.2595
  238MOL0     C32041   0.905   6.569   2.214 -0.0429  0.3081  0.7445
  238MOL0     C32042   0.814   6.568   2.109 -0.3769  0.7459 -0.7599
  238MOL0     O32043   0.506   6.641   2.079 -0.2027 -0.7870  0.2636
  238MOL0     C32044   0.321   6.639   1.869 -0.3762  1.3609  0.1867
  238MOL0     C32045   0.230   6.645   1.769 -0.2272  0.6904  1.3259
  238MOL0     N32046  -0.108   7.050   1.170  1.4912  0.9831  0.0740
  238MOL0     N32047  -0.115   7.179   1.165  0.4472 -1.0888  1.0827
  238MOL0     C32048   0.863   8.266   1.018  0.5719 -0.6799 -0.2730
  238MOL0     C32049   0.998   8.314   1.018  0.1931 -0.6043  0.0341
  238MOL0     C32050   1.338   8.540   1.159  0.6308 -0.0313 -0.8978
  238MOL0     C32051   1.451   8.482   1.090 -0.4559 -0.3929 -0.9604
  238MOL0     C32052   1.562   8.562   1.071 -1.1308 -0.8471  0.1323
  238MOL0     C32053   1.575   8.699   1.116 -0.5340  0.0614  0.0142
  238MOL0     O32054   1.680   8.777   1.076 -0.1615  0.0367 -0.7013
  238MOL0     C32055   1.804   8.717   1.028  0.6180 -0.6425  0.1522
  238MOL0     C32056   1.919   8.782   1.107 -0.0813  0.4593 -0.6909
  238MOL0     C32057   2.056   8.720   1.072  0.1238 -0.2809  0.9010
  238MOL0     C32058   2.181   8.804   1.136  1.2287  0.2991  0.3161
  238MOL0     C32059   2.185   8.944   1.095  0.5216 -0.5072  0.5657
  238MOL0     C32060   2.196   9.067   1.067  0.9219  0.5460  0.6563
  238MOL0     C32061   1.457   8.757   1.176 -0.2621  0.1481 -0.0403
  238MOL0     C32062   1.345   8.672   1.200  0.6471  0.7176  0.0017
  238MOL0     H32063   1.145   8.102   1.229 -1.5412 -1.9177  0.6414
  238MOL0     H32064   0.913   8.028   1.244  4.2985  0.8922  2.1248
  238MOL0     H32065   0.743   7.916   1.037 -1.6351  3.3986 -1.8310
  238MOL0     H32066   0.739   7.915   1.206  0.7023 -0.1289 -0.6104
  238MOL0     H32067   0.495   7.973   1.193  0.2240  0.3810  1.3494
  238MOL0     H32068   0.485   7.935   1.027 -0.9466  0.6647  0.8572
  238MOL0     H32069   0.563   7.697   1.086  0.4508 -0.1990  1.9884
  238MOL0     H32070   0.565   7.758   1.261 -0.8819  1.8936  1.5285
  238MOL0     H32071   0.336   7.794   1.251  2.5054 -1.8591  2.6191
  238MOL0     H32072   0.325   7.766   1.078 -2.6054 -0.0665  1.4560
  238MOL0     H32073   0.414   7.532   1.121 -3.1754 -1.5371 -1.5408
  238MOL0     H32074   0.396   7.552   1.285  2.9879 -2.2835 -1.4423
  238MOL0     H32075   0.136   7.613   1.215  0.8075 -0.2893  1.3580
  238MOL0     H32076   0.186   7.560   1.051 -2.3781  1.2803  0.8559
  238MOL0     H32077   0.254   7.342   1.115 -0.1946 -2.2743  1.3392
  238MOL0     H32078   0.208   7.381   1.281  1.7751  1.7925  0.2679
  238MOL0     H32079   0.014   7.427   1.056  2.6631 -0.1164 -0.2221
  238MOL0     H32080  -0.011   7.416   1.240  0.5227  0.3046  1.4379
  238MOL0     H32081   0.205   7.133   1.114 -0.3489  0.4621  0.1065
  238MOL0     H32082   0.039   6.836   1.068 -0.2282 -0.5027  0.0785
  238MOL0     H32083   0.201   6.897   1.139 -0.0672  1.1686  1.7655
  238MOL0     H32084  -0.033   6.768   1.281 -0.4555  1.9078 -0.6829
  238MOL0     H32085   0.091   6.880   1.364  3.4801 -0.7010  0.9231
  238MOL0     H32086   0.273   6.746   1.294 -0.5055 -0.4734  0.1005
  238MOL0     H32087   0.167   6.635   1.203 -1.5497  0.7322 -1.3695
  238MOL0     H32088   0.250   6.525   1.396 -2.0968 -2.6887 -2.0227
  238MOL0     H32089   0.071   6.543   1.409 -1.2472  1.2632  0.3538
  238MOL0     H32090   0.437   6.630   1.498 -0.5088  0.4562 -0.1846
  238MOL0     H32091   0.663   6.681   1.564  1.6338 -0.2710 -0.3911
  238MOL0     H32092   0.682   6.761   1.718 -3.6806  0.0301  1.8611
  238MOL0     H32093   0.721   6.590   1.705 -0.0250  0.6239  1.1438
  238MOL0     H32094   0.749   6.888   2.066 -0.2035 -1.4471 -1.7755
  238MOL0     H32095   0.912   6.904   2.249 -0.2227 -1.2084  1.0329
  238MOL0     H32096   1.137   6.873   2.304  1.2649  0.2427  0.8894
  238MOL0     H32097   1.053   6.861   2.458  1.3277  0.6013  0.2172
  238MOL0     H32098   1.319   6.737   2.371 -0.4896 -1.5341  0.3072
  238MOL0     H32099   1.305   6.852   2.495  3.3484 -1.2185  0.5640
  238MOL0     H32100   1.255   6.563   2.515 -1.2559 -0.9611  1.8418
  238MOL0     H32101   1.137   6.669   2.593  0.7784  1.6728  1.4359
  238MOL0     H32102   1.339   6.793   2.706  2.8449  1.5599 -1.3479
  238MOL0     H32103   1.333   6.613   2.742 -0.8804  1.5892  2.0994
  238MOL0     H32104   1.507   6.754   2.535  2.4287 -2.6054 -0.7593
  238MOL0     H32105   1.529   6.585   2.593  0.4381 -1.0287  1.3050
  238MOL0     H32106   1.588   6.832   2.756  0.4200 -0.6428  0.5529
  238MOL0     H32107   1.554   6.665   2.820 -0.1240 -3.4011 -1.8952
  238MOL0     H32108   1.780   6.776   2.653 -0.0810 -1.2257 -1.5764
  238MOL0     H32109   1.738   6.600   2.630 -0.0742  1.6743 -0.2635
  238MOL0     H32110   1.765   6.592   2.902  2.4377 -0.3453  1.7442
  238MOL0     H32111   1.820   6.757   2.883 -1.4864 -0.3767  0.2739
  238MOL0     H32112   0.957   6.477   2.239  0.0831 -0.4154 -1.8562
  238MOL0     H32113   0.784   6.467   2.080  0.0369  0.5449 -0.4938
  238MOL0     H32114   0.288   6.636   1.973 -2.6236  0.7046 -0.4913
  238MOL0     H32115   0.124   6.652   1.791 -0.4678 -0.4584  0.5951
  238MOL0     H32116   0.784   8.305   0.955  1.0599 -0.7375 -0.9325
  238MOL0     H32117   1.027   8.405   0.967  0.3700 -1.3393 -1.2246
  238MOL0     H32118   1.446   8.380   1.055 -1.9032  0.2102 -2.6259
  238MOL0     H32119   1.640   8.521   1.008 -2.4947  0.0879 -2.3095
  238MOL0     H32120   1.813   8.608   1.037 -0.9978 -0.6801  2.0507
  238MOL0     H32121   1.799   8.737   0.920 -2.1473  0.6090  0.4009
  238MOL0     H32122   1.906   8.779   1.216 -0.9622  0.1566 -0.7943
  238MOL0     H32123   1.916   8.883   1.067 -2.2068  0.8800  0.4125
  238MOL0     H32124   2.066   8.726   0.963  0.5873 -0.2490  0.9415
  238MOL0     H32125   2.073   8.621   1.115  0.8496 -0.5315  0.0718
  238MOL0     H32126   2.278   8.766   1.101  0.8989 -0.7242  0.4683
  238MOL0     H32127   2.157   8.819   1.241 -3.3560  0.5094 -0.5501
  238MOL0     H32128   2.195   9.172   1.046 -1.1265  0.3510 -0.4079
  238MOL0     H32129   1.453   8.862   1.205  3.0115  0.2721  0.3373
  238MOL0     H32130   1.262   8.718   1.253  1.2705  2.5780 -0.5609
  239MOL0     O32131   9.999   3.606   2.471  0.7295 -0.3674  0.0655
  239MOL0     C32132  10.001   3.517   2.388  0.8878 -0.0614 -0.4056
  239MOL0     O32133   9.908   3.425   2.354 -0.6429  0.4203 -0.2929
  239MOL0     C32134   9.785   3.425   2.411 -1.0227  0.6188  0.7727
  239MOL0     C32135   9.703   3.336   2.346  0.6431  0.0829 -0.4207
  239MOL0     C32136   9.580   3.297   2.409  1.0295  0.4254  0.4462
  239MOL0     C32137   9.528   3.366   2.519 -0.0219  0.6896 -0.1941
  239MOL0     O32138   9.398   3.335   2.557  0.7246 -0.6781  0.1988
  239MOL0     C32139   9.364   3.199   2.576  0.3531  0.2252 -0.1896
  239MOL0     C32140   9.238   3.198   2.672 -0.5312  0.3205 -0.8237
  239MOL0     C32141   9.106   3.240   2.597 -0.1416  1.9386 -0.3005
  239MOL0     C32142   9.083   3.393   2.594  0.0761 -1.0815 -0.6460
  239MOL0     C32143   8.964   3.430   2.497 -0.1763 -0.6923 -0.4945
  239MOL0     C32144   8.939   3.579   2.510 -0.0804 -1.0766 -0.8538
  239MOL0     C32145   8.794   3.607   2.474  0.6050 -0.8145  0.1423
  239MOL0     C32146   8.767   3.753   2.476  0.0496  0.3208 -0.5659
  239MOL0     N32147   8.792   3.797   2.622  0.3026 -0.1650 -0.2589
  239MOL0     C32148   8.690   3.793   2.706  0.3652 -0.1933 -0.4493
  239MOL0     C32149   8.736   3.850   2.823 -0.1429 -0.3506  0.3707
  239MOL0     C32150   8.650   3.871   2.938  0.2818  0.3063 -0.7162
  239MOL0     C32151   8.557   3.990   2.920  0.6464  0.3203 -0.2568
  239MOL0     C32152   8.481   4.017   3.046  0.5620 -1.6537 -1.3069
  239MOL0     C32153   8.408   4.148   3.031  0.0824  0.0204 -0.7017
  239MOL0     O32154   8.310   4.132   2.927 -0.7892 -0.7164  0.5249
  239MOL0     C32155   8.235   4.244   2.899  0.0925 -0.3122 -0.2361
  239MOL0     C32156   8.125   4.215   2.816 -0.1332 -0.0078  0.2265
  239MOL0     C32157   8.030   4.313   2.767 -0.3526 -1.3241 -0.6259
  239MOL0     C32158   7.909   4.283   2.676  0.4946 -0.6457 -0.9364
  239MOL0     C32159   8.046   4.447   2.819  0.8249 -0.2152  0.1649
  239MOL0     C32160   7.948   4.555   2.785  0.2863 -0.0688  0.7300
  239MOL0     O32161   8.003   4.670   2.732 -0.8995 -0.1790 -0.0098
  239MOL0     C32162   7.929   4.774   2.693  0.9680  0.1727 -0.1105
  239MOL0     C32163   7.937   4.814   2.557  0.0736 -0.2733  0.1759
  239MOL0     C32164   7.870   4.936   2.518 -1.1608  0.0705  0.3110
  239MOL0     C32165   7.795   5.003   2.606 -0.1010 -0.0642  0.2525
  239MOL0     O32166   7.742   5.119   2.556 -0.1280  0.4759  0.4640
  239MOL0     C32167   7.613   5.156   2.610 -0.0647 -0.5392  0.3472
  239MOL0     C32168   7.619   5.291   2.680  0.6603  0.0854 -0.2455
  239MOL0     C32169   7.669   5.414   2.591  0.0166  0.3890 -0.9563
  239MOL0     C32170   7.743   5.533   2.660  0.1728  0.5578 -0.4641
  239MOL0     C32171   7.648   5.596   2.767 -0.3098  0.3110 -0.9326
  239MOL0     C32172   7.563   5.704   2.710 -0.3383  0.1533 -0.0725
  239MOL0     C32173   7.485   5.794   2.805  0.0258 -1.0203  0.4910
  239MOL0     C32174   7.400   5.706   2.903  1.4323 -0.4622 -0.6770
  239MOL0    Cl32175   7.301   5.809   3.006  0.1547 -0.1656 -0.1372
  239MOL0     C32176   7.774   4.953   2.736  0.2708  0.4184  0.0063
  239MOL0     C32177   7.843   4.838   2.778 -0.0772 -0.0357  0.3223
  239MOL0     O32178   7.837   4.537   2.825  0.0699 -0.5457 -0.6195
  239MOL0     C32179   8.158   4.480   2.904  0.0402  0.4553  0.1652
  239MOL0     C32180   8.249   4.379   2.941  0.2514  0.1737  0.6065
  239MOL0     N32181   8.865   3.893   2.789 -0.1933 -0.3915 -0.5465
  239MOL0     N32182   8.895   3.874   2.670  0.2016  0.3378 -0.6232
  239MOL0     C32183   9.608   3.455   2.578 -0.9446 -0.3662  0.0751
  239MOL0     C32184   9.731   3.487   2.530 -0.1632 -0.3296  0.0301
  239MOL0     C32185  10.132   3.518   2.311 -0.2042  0.6855 -0.9562
  239MOL0     C32186  10.171   3.408   2.237 -1.5156  0.9653  0.2910
  239MOL0     C32187  10.286   3.398   2.161  0.2159  0.7191 -0.6055
  239MOL0     C32188  10.376   3.505   2.156 -0.6269 -0.5487  0.8336
  239MOL0     O32189  10.496   3.510   2.085 -0.1476  0.0747 -0.9136
  239MOL0     C32190  10.527   3.385   2.016  0.1674  0.1590  0.2175
  239MOL0     C32191  10.663   3.389   1.940 -0.0625 -0.5392 -0.4061
  239MOL0     C32192  10.769   3.483   1.994 -0.6736  0.5486 -0.2195
  239MOL0     C32193  10.832   3.451   2.129 -0.2363 -0.2837 -0.4787
  239MOL0     C32194  10.976   3.478   2.132  0.7135 -0.2662  0.0965
  239MOL0     C32195  11.090   3.508   2.144 -0.7190  0.2010 -0.3732
  239MOL0     C32196  10.340   3.623   2.234  0.3134  0.0138  0.1069
  239MOL0     C32197  10.220   3.629   2.312  0.7871  0.1549 -0.8433
  239MOL0     H32198   9.736   3.281   2.259  1.6088 -1.6733  0.9982
  239MOL0     H32199   9.522   3.220   2.358  0.3164  1.6260 -0.6002
  239MOL0     H32200   9.337   3.173   2.474 -1.1022  3.8589 -0.8990
  239MOL0     H32201   9.441   3.140   2.626  0.1802  0.5860  0.5206
  239MOL0     H32202   9.234   3.099   2.717 -0.5253  1.5419  2.0720
  239MOL0     H32203   9.265   3.270   2.750 -0.2726  2.1820 -2.5417
  239MOL0     H32204   9.111   3.206   2.493  1.3097 -0.7217  0.5435
  239MOL0     H32205   9.021   3.199   2.652  0.9167  2.4532  1.8226
  239MOL0     H32206   9.053   3.425   2.694 -1.9045  0.9550 -1.7938
  239MOL0     H32207   9.180   3.441   2.579 -0.7516  0.7478 -0.4802
  239MOL0     H32208   8.982   3.413   2.391 -0.0361  1.6052 -0.8981
  239MOL0     H32209   8.871   3.380   2.524  0.7043 -2.8396 -1.2047
  239MOL0     H32210   8.957   3.614   2.613  0.1999  0.7976 -1.5018
  239MOL0     H32211   9.003   3.646   2.453 -2.3927  0.0431 -2.2458
  239MOL0     H32212   8.764   3.569   2.376 -0.3356 -2.6806  1.1017
  239MOL0     H32213   8.722   3.563   2.544 -0.9217 -2.3936 -2.2642
  239MOL0     H32214   8.663   3.760   2.442 -0.7715 -3.0398  0.8193
  239MOL0     H32215   8.837   3.814   2.418  1.0874 -0.5591 -0.2699
  239MOL0     H32216   8.596   3.744   2.684 -0.8668  2.5805 -1.9658
  239MOL0     H32217   8.598   3.778   2.964 -0.2827  0.5668 -0.9091
  239MOL0     H32218   8.711   3.894   3.026 -1.2980 -2.4021  1.2547
  239MOL0     H32219   8.496   3.960   2.835 -1.9230  0.3798  1.4712
  239MOL0     H32220   8.615   4.079   2.894 -1.5847  1.0568 -3.1998
  239MOL0     H32221   8.556   4.019   3.126  0.6631 -0.6883 -1.4150
  239MOL0     H32222   8.413   3.933   3.063  2.9653 -3.8807 -2.1053
  239MOL0     H32223   8.486   4.223   3.012  1.5620 -1.2896 -0.0394
  239MOL0     H32224   8.365   4.185   3.124 -1.9488 -0.9686 -1.2009
  239MOL0     H32225   8.128   4.114   2.777  0.7045  0.8600 -2.1462
  239MOL0     H32226   7.921   4.184   2.630 -2.8664 -0.6741 -2.0237
  239MOL0     H32227   7.814   4.292   2.730  2.1474  0.7191  2.0114
  239MOL0     H32228   7.904   4.356   2.595 -0.6790  1.8448  1.2607
  239MOL0     H32229   8.007   4.758   2.496  2.2654  1.0432  1.3732
  239MOL0     H32230   7.892   4.973   2.418  2.5164  1.0036  1.2970
  239MOL0     H32231   7.538   5.159   2.530  0.5338  0.9840 -0.1978
  239MOL0     H32232   7.573   5.083   2.681 -0.3424 -1.1712 -0.4400
  239MOL0     H32233   7.516   5.311   2.709  1.0402  1.8196  0.0589
  239MOL0     H32234   7.686   5.283   2.766  0.0292  1.6637  0.4357
  239MOL0     H32235   7.586   5.446   2.527 -0.2379 -0.3066 -0.9876
  239MOL0     H32236   7.749   5.367   2.534 -0.7270 -3.1165  0.5899
  239MOL0     H32237   7.839   5.499   2.702  1.6388  4.3628 -0.3740
  239MOL0     H32238   7.766   5.615   2.593  3.1617 -0.8706 -1.3783
  239MOL0     H32239   7.717   5.639   2.841  1.5506 -0.2306 -2.2689
  239MOL0     H32240   7.587   5.531   2.830 -2.4459  1.6210 -1.5487
  239MOL0     H32241   7.624   5.776   2.655 -0.2605  1.5407  1.7244
  239MOL0     H32242   7.484   5.668   2.643 -0.9146  1.6069 -0.2236
  239MOL0     H32243   7.418   5.850   2.739  0.0601 -1.8398 -0.2484
  239MOL0     H32244   7.541   5.870   2.861 -3.4889  2.2899 -0.0118
  239MOL0     H32245   7.459   5.650   2.976  0.2153  1.5978  2.0396
  239MOL0     H32246   7.334   5.639   2.847  1.5704  0.0424 -1.4549
  239MOL0     H32247   7.707   5.003   2.805 -1.7726 -0.4515 -1.2598
  239MOL0     H32248   7.827   4.798   2.877  0.1668  1.7626  1.1382
  239MOL0     H32249   8.159   4.587   2.920 -0.7370  0.4956  0.0023
  239MOL0     H32250   8.343   4.404   2.989  1.3743  1.4331 -2.0443
  239MOL0     H32251   9.563   3.496   2.668 -0.6555 -4.1954  2.1903
  239MOL0     H32252   9.783   3.558   2.593  1.9977 -0.2431 -1.7345
  239MOL0     H32253  10.112   3.318   2.243 -0.3164  0.2413  3.1211
  239MOL0     H32254  10.297   3.300   2.115 -2.8740  0.1696 -0.4009
  239MOL0     H32255  10.531   3.308   2.093 -2.2200 -0.7040 -0.4215
  239MOL0     H32256  10.446   3.362   1.946 -0.3669 -1.2014  1.2290
  239MOL0     H32257  10.642   3.413   1.835  2.4447 -1.9483 -1.2965
  239MOL0     H32258  10.698   3.286   1.934 -0.3866 -0.6757 -0.0340
  239MOL0     H32259  10.738   3.588   1.993 -2.1043  0.1514 -0.9815
  239MOL0     H32260  10.854   3.476   1.927  0.7787 -1.9902  1.6995
  239MOL0     H32261  10.817   3.346   2.157  1.5582 -0.9036 -1.7102
  239MOL0     H32262  10.778   3.495   2.214  0.3199 -3.1622  1.5274
  239MOL0     H32263  11.187   3.549   2.166 -0.3151 -0.5478 -0.7244
  239MOL0     H32264  10.406   3.708   2.219  1.1023 -0.3703  1.3107
  239MOL0     H32265  10.197   3.706   2.385  0.4396  0.0338 -0.8223
  240MOL0     O32266   5.164   2.929  10.109 -0.6544  0.0537 -0.2578
  240MOL0     C32267   5.067   2.851  10.120  0.6258 -0.8045  0.6533
  240MOL0     O32268   4.939   2.892  10.129 -0.1121 -0.1955 -0.4535
  240MOL0     C32269   4.894   3.020  10.121  1.0259 -0.6690  0.1837
  240MOL0     C32270   4.779   3.046  10.196 -0.3131  0.2501  0.4362
  240MOL0     C32271   4.715   3.176  10.190 -0.0784  0.2938 -0.0574
  240MOL0     C32272   4.762   3.270  10.099 -0.5123  0.2378  0.6706
  240MOL0     O32273   4.707   3.391  10.065  0.0827  1.0615  0.1635
  240MOL0     C32274   4.577   3.417  10.118 -0.1231 -0.2105  0.5205
  240MOL0     C32275   4.472   3.326  10.047 -0.4128  0.0934 -0.4625
  240MOL0     C32276   4.338   3.392  10.065 -0.8560 -0.1724 -0.0419
  240MOL0     C32277   4.234   3.284  10.022  0.4151  0.4336  0.4426
  240MOL0     C32278   4.098   3.348  10.030  0.4783  0.9922 -0.0664
  240MOL0     C32279   4.031   3.361  10.173  0.5550 -0.0981  0.2714
  240MOL0     C32280   3.925   3.482  10.176 -0.7654  0.0988  0.5710
  240MOL0     C32281   3.789   3.437  10.179  0.0333 -0.4373  0.0821
  240MOL0     N32282   3.748   3.337  10.280  0.5082  0.2558  0.9923
  240MOL0     C32283   3.650   3.244  10.258  0.0139  0.2793  0.6283
  240MOL0     C32284   3.631   3.179  10.377  0.9431 -0.1059  0.2228
  240MOL0     C32285   3.534   3.069  10.407  0.0175 -0.1827  0.6582
  240MOL0     C32286   3.390   3.107  10.369  0.0486  0.0517 -0.5583
  240MOL0     C32287   3.326   3.223  10.435 -0.0893  0.4043 -0.2393
  240MOL0     C32288   3.313   3.196  10.586  0.4053  0.3032  0.9976
  240MOL0     O32289   3.250   3.313  10.641  0.2760  0.6869  0.0870
  240MOL0     C32290   3.114   3.296  10.654  0.9653  0.1181 -0.1006
  240MOL0     C32291   3.022   3.330  10.550 -0.7666 -0.1239 -0.2266
  240MOL0     C32292   2.891   3.335  10.588 -0.1470  0.2975  0.0267
  240MOL0     C32293   2.794   3.379  10.489  0.3889  0.6460  0.9055
  240MOL0     C32294   2.849   3.288  10.718 -0.2284 -0.6600  1.1103
  240MOL0     C32295   2.716   3.306  10.778 -0.1799 -0.0561  0.3154
  240MOL0     O32296   2.608   3.245  10.717  0.0460 -0.5112 -0.6729
  240MOL0     C32297   2.489   3.277  10.764 -0.4644 -1.0778  0.0938
  240MOL0     C32298   2.436   3.216  10.880  0.1110  0.7588 -0.4703
  240MOL0     C32299   2.305   3.248  10.924 -0.2865 -0.6340  0.5525
  240MOL0     C32300   2.221   3.329  10.848  0.3619  0.0418  0.1768
  240MOL0     O32301   2.092   3.361  10.900  0.0355  0.2495 -0.1694
  240MOL0     C32302   2.098   3.461  11.007  0.6864 -1.3461  0.5299
  240MOL0     C32303   1.997   3.415  11.120 -0.2916 -0.0125 -0.6292
  240MOL0     C32304   2.051   3.299  11.207  0.2292 -0.2317 -0.0745
  240MOL0     C32305   1.957   3.261  11.330 -0.6879  0.3617  1.0936
  240MOL0     C32306   1.981   3.118  11.377 -0.0330 -0.6101  0.4993
  240MOL0     C32307   1.907   3.091  11.512 -0.0100 -0.1982  0.2471
  240MOL0     C32308   1.914   2.941  11.541 -0.1986  0.5474 -0.2290
  240MOL0     C32309   1.847   2.909  11.681 -0.9701  0.1388  0.0832
  240MOL0    Cl32310   1.863   2.742  11.719 -0.0642  0.0141  0.0626
  240MOL0     C32311   2.265   3.372  10.722  1.0049  0.3812  0.2819
  240MOL0     C32312   2.398   3.357  10.687 -0.3914  0.9298 -1.2123
  240MOL0     O32313   2.717   3.373  10.879 -0.2469 -0.1507  0.2577
  240MOL0     C32314   2.942   3.237  10.805  0.1244 -0.8412  0.3992
  240MOL0     C32315   3.073   3.246  10.775  0.1249 -0.1025  0.5915
  240MOL0     N32316   3.721   3.229  10.470  0.4600  0.1400  0.3984
  240MOL0     N32317   3.789   3.324  10.412  0.3721  0.0711 -0.1356
  240MOL0     C32318   4.882   3.233  10.022 -0.6419 -0.8617 -0.5335
  240MOL0     C32319   4.942   3.110  10.026 -0.2027 -0.4131 -0.2029
  240MOL0     C32320   5.084   2.707  10.084 -0.4885 -0.1947 -0.0291
  240MOL0     C32321   4.975   2.622  10.080  0.1579 -0.0030  0.1000
  240MOL0     C32322   4.997   2.481  10.052  1.0142  0.2517 -0.5782
  240MOL0     C32323   5.118   2.432  10.022 -0.6822  0.1230  0.7486
  240MOL0     O32324   5.156   2.302   9.981  0.6886  0.2884 -0.5901
  240MOL0     C32325   5.049   2.202   9.970 -0.3687  0.5380 -0.3997
  240MOL0     C32326   5.049   2.119  10.100  0.3280  0.1943  0.7127
  240MOL0     C32327   4.938   2.009  10.088 -0.6332 -0.1282  0.5341
  240MOL0     C32328   4.914   1.920  10.210  0.1400 -0.1988 -0.4992
  240MOL0     C32329   4.892   1.997  10.336  0.7782 -0.4591 -0.0140
  240MOL0     C32330   4.886   2.056  10.446  0.5614  0.7054  0.0867
  240MOL0     C32331   5.228   2.516  10.028 -0.7874  0.2902 -0.1529
  240MOL0     C32332   5.214   2.651  10.057  0.1233 -0.7833 -0.7221
  240MOL0     H32333   4.749   2.972  10.270  1.9918 -3.0845 -1.6602
  240MOL0     H32334   4.625   3.185  10.250  0.6107 -1.3606  1.3262
  240MOL0     H32335   4.565   3.405  10.226  2.7387  0.1526  0.9506
  240MOL0     H32336   4.551   3.523  10.106 -1.1299 -0.4612  0.4213
  240MOL0     H32337   4.490   3.320   9.939  1.0413  1.2724 -0.3194
  240MOL0     H32338   4.472   3.230  10.100 -0.2127  0.4470  0.1884
  240MOL0     H32339   4.316   3.412  10.170  2.2060 -1.0654  0.8706
  240MOL0     H32340   4.333   3.486  10.009 -2.1441 -0.5786 -0.6471
  240MOL0     H32341   4.244   3.265   9.915  2.8346 -4.7995  1.2487
  240MOL0     H32342   4.234   3.182  10.063  0.1432  0.4046  0.3720
  240MOL0     H32343   4.097   3.443   9.977 -1.7541  1.7099  1.1344
  240MOL0     H32344   4.027   3.277   9.985  3.0206 -0.8522 -1.3990
  240MOL0     H32345   3.975   3.270  10.197  0.0068  0.2987  0.5335
  240MOL0     H32346   4.110   3.388  10.244 -1.3556  1.1362  2.0504
  240MOL0     H32347   3.950   3.545  10.261  0.0504 -0.0528  0.4478
  240MOL0     H32348   3.935   3.545  10.087  2.2824  0.7194  1.2637
  240MOL0     H32349   3.760   3.423  10.074  0.8819 -1.2648 -0.0590
  240MOL0     H32350   3.728   3.523  10.207  3.1461  1.9241  0.1032
  240MOL0     H32351   3.604   3.226  10.161  1.3624 -2.9155  0.4518
  240MOL0     H32352   3.569   2.984  10.348  0.3942 -0.4101  1.1960
  240MOL0     H32353   3.552   3.050  10.513  1.5383 -0.0371  0.4584
  240MOL0     H32354   3.327   3.021  10.394  0.8848 -0.3377  0.2486
  240MOL0     H32355   3.381   3.133  10.263 -1.9802 -0.1330 -0.4696
  240MOL0     H32356   3.234   3.232  10.377  0.8841 -1.2770 -2.1991
  240MOL0     H32357   3.385   3.315  10.428 -1.6344  1.3791 -0.8456
  240MOL0     H32358   3.410   3.166  10.627  0.4352 -1.5020 -0.2777
  240MOL0     H32359   3.239   3.117  10.600 -2.1301  2.2255 -0.6154
  240MOL0     H32360   3.049   3.351  10.447 -4.8915 -0.9493 -1.6412
  240MOL0     H32361   2.802   3.488  10.477  3.1196  0.5095  0.8657
  240MOL0     H32362   2.817   3.319  10.401 -0.4849 -0.0750  1.1612
  240MOL0     H32363   2.691   3.361  10.522  0.6241 -1.6676  0.5271
  240MOL0     H32364   2.496   3.137  10.925 -0.1707  0.4859 -0.5793
  240MOL0     H32365   2.275   3.204  11.019 -0.2205  1.6255  1.6867
  240MOL0     H32366   2.195   3.495  11.044  0.7424 -0.2704 -0.5419
  240MOL0     H32367   2.055   3.555  10.971  3.0119 -0.4269  0.0002
  240MOL0     H32368   1.962   3.493  11.188  0.6374 -1.4087  1.5366
  240MOL0     H32369   1.906   3.380  11.069 -1.6203 -0.0950  1.6957
  240MOL0     H32370   2.149   3.323  11.250  1.4812 -2.1526 -1.6669
  240MOL0     H32371   2.062   3.205  11.152  0.6559 -0.7328  0.8333
  240MOL0     H32372   1.960   3.333  11.413 -2.9436  1.0580  0.6275
  240MOL0     H32373   1.856   3.269  11.290 -0.0033 -0.7334 -0.9729
  240MOL0     H32374   2.090   3.107  11.382  0.1009  0.4570  0.1102
  240MOL0     H32375   1.930   3.061  11.299  0.2337 -0.7727  0.4404
  240MOL0     H32376   1.937   3.149  11.599  2.3339  0.8904 -1.1844
  240MOL0     H32377   1.808   3.126  11.483  1.0165  2.0269 -0.9081
  240MOL0     H32378   2.022   2.921  11.540  0.1155  2.0170 -2.7468
  240MOL0     H32379   1.866   2.881  11.464  2.6576 -1.0583 -0.8877
  240MOL0     H32380   1.746   2.951  11.679 -0.3813  1.6275 -0.2712
  240MOL0     H32381   1.908   2.955  11.760 -2.4309  0.6545  0.9585
  240MOL0     H32382   2.211   3.425  10.644  0.5704  0.5165  0.6703
  240MOL0     H32383   2.423   3.391  10.587  0.1387 -1.2378 -1.8706
  240MOL0     H32384   2.912   3.185  10.895 -2.1540 -1.5793 -0.7083
  240MOL0     H32385   3.146   3.201  10.842 -0.1521  1.5734  2.0981
  240MOL0     H32386   4.927   3.311   9.962  1.9452 -1.3565  0.6399
  240MOL0     H32387   5.032   3.083   9.970  0.1900  0.6295 -0.0898
  240MOL0     H32388   4.875   2.645  10.115  0.5400 -0.1942  1.3631
  240MOL0     H32389   4.907   2.422  10.035  2.0687 -2.0571  1.2738
  240MOL0     H32390   4.947   2.237   9.956 -1.2097 -1.1086  1.2261
  240MOL0     H32391   5.070   2.132   9.888 -0.9872 -0.9839  0.6979
  240MOL0     H32392   5.024   2.193  10.176  1.7015  1.2099  0.2360
  240MOL0     H32393   5.145   2.077  10.132  0.7582  1.4016  1.0651
  240MOL0     H32394   4.954   1.951   9.997 -1.4055 -0.1954  0.4304
  240MOL0     H32395   4.842   2.062  10.083  0.6705  2.3531  0.7610
  240MOL0     H32396   5.006   1.862  10.219 -0.9692 -2.2234 -1.4316
  240MOL0     H32397   4.827   1.853  10.202  0.3389 -0.9034  2.2669
  240MOL0     H32398   4.894   2.115  10.536 -0.5542  0.2221  0.5201
  240MOL0     H32399   5.327   2.477  10.008 -1.1523 -1.4394  1.1683
  240MOL0     H32400   5.311   2.699  10.061  0.6167 -1.5003 -2.8527
  241MOL0     O32401   8.616  10.746   5.460 -0.0946 -0.0398 -0.6184
  241MOL0     C32402   8.613  10.775   5.576 -0.2324 -0.3722 -0.4912
  241MOL0     O32403   8.518  10.848   5.638 -0.2502 -0.6873  0.6000
  241MOL0     C32404   8.414  10.915   5.583 -0.6819  0.1195  0.6950
  241MOL0     C32405   8.389  11.031   5.658  0.0646  0.1607 -0.3104
  241MOL0     C32406   8.286  11.113   5.617 -0.4638 -0.2124  0.1867
  241MOL0     C32407   8.195  11.070   5.517  0.5164 -0.3121 -0.2702
  241MOL0     O32408   8.085  11.135   5.470  0.1404  0.1922 -0.1171
  241MOL0     C32409   8.058  11.253   5.540  0.5944 -0.9092  0.8743
  241MOL0     C32410   7.928  11.317   5.487  0.5055  0.6717  0.4866
  241MOL0     C32411   7.801  11.243   5.548 -0.2207 -1.1076 -0.2990
  241MOL0     C32412   7.668  11.326   5.532 -0.8019  0.6185  0.7860
  241MOL0     C32413   7.540  11.273   5.595 -0.1709  0.0952 -0.2640
  241MOL0     C32414   7.495  11.147   5.534 -0.1879 -0.6044  0.8343
  241MOL0     C32415   7.347  11.129   5.562 -0.0437 -0.3023 -0.0497
  241MOL0     C32416   7.309  10.997   5.507  0.6567 -0.1275  0.0202
  241MOL0     N32417   7.162  11.004   5.500 -0.2639  0.6326  0.0460
  241MOL0     C32418   7.100  10.939   5.393 -0.2679 -0.4412  0.0374
  241MOL0     C32419   6.974  10.939   5.437  0.8779 -0.4527  0.0202
  241MOL0     C32420   6.855  10.903   5.347  0.0847  0.5627  0.6387
  241MOL0     C32421   6.728  10.983   5.382  0.7347 -0.5486 -0.8257
  241MOL0     C32422   6.659  11.032   5.255 -0.3395  0.2096  0.0968
  241MOL0     C32423   6.522  11.071   5.276  0.6630  0.2765  0.0024
  241MOL0     O32424   6.483  11.127   5.155 -0.0782 -1.0005 -0.6222
  241MOL0     C32425   6.350  11.144   5.133 -0.4228  0.2595 -0.0469
  241MOL0     C32426   6.241  11.124   5.225 -0.4363  0.8450  0.7732
  241MOL0     C32427   6.107  11.128   5.181 -0.2220  0.8293  0.6572
  241MOL0     C32428   5.989  11.130   5.280  1.1320  0.2329  0.1688
  241MOL0     C32429   6.090  11.155   5.047 -0.0369 -0.5437 -0.1374
  241MOL0     C32430   5.951  11.179   5.001  0.2603 -0.5185 -0.0806
  241MOL0     O32431   5.843  11.094   5.027 -0.5043  0.2300  0.4498
  241MOL0     C32432   5.721  11.121   4.985  0.7759 -0.7837 -0.0521
  241MOL0     C32433   5.645  11.211   5.062 -0.4304 -0.8666  0.2466
  241MOL0     C32434   5.504  11.233   5.040 -0.0632  0.4430  0.3575
  241MOL0     C32435   5.446  11.180   4.922  0.4210 -0.3237 -0.2938
  241MOL0     O32436   5.309  11.201   4.888  1.1995  0.1599  0.7200
  241MOL0     C32437   5.251  11.315   4.941 -0.8365 -0.1768 -0.3700
  241MOL0     C32438   5.113  11.321   4.879 -0.8148 -0.7309  0.4527
  241MOL0     C32439   5.023  11.429   4.955  0.6376  0.2285 -0.9261
  241MOL0     C32440   4.879  11.419   4.896  0.0273  0.5190 -0.5320
  241MOL0     C32441   4.768  11.497   4.981  0.7196 -0.3904 -0.5281
  241MOL0     C32442   4.759  11.653   4.985 -0.0893  1.3543  1.0597
  241MOL0     C32443   4.740  11.713   4.842  0.6798 -0.0526 -0.8784
  241MOL0     C32444   4.736  11.867   4.852 -0.3835  0.2447 -0.5000
  241MOL0    Cl32445   4.804  11.950   4.700  0.2394  0.5400  0.0363
  241MOL0     C32446   5.520  11.093   4.848  0.6105 -0.0160 -0.6703
  241MOL0     C32447   5.655  11.061   4.878  0.1295  0.7489 -0.7590
  241MOL0     O32448   5.934  11.295   4.948  0.5835 -0.2102 -1.0988
  241MOL0     C32449   6.191  11.184   4.954  0.1601  0.1992 -0.2083
  241MOL0     C32450   6.322  11.176   4.999 -0.2470  0.1873 -0.9159
  241MOL0     N32451   6.961  10.995   5.564  0.2989  0.0199  0.8260
  241MOL0     N32452   7.080  11.035   5.597  0.1633 -0.1440  0.6739
  241MOL0     C32453   8.212  10.938   5.471 -0.1684  0.0333 -0.0107
  241MOL0     C32454   8.323  10.864   5.497  0.5349 -0.2551 -0.8744
  241MOL0     C32455   8.727  10.734   5.651 -0.1989 -0.1479 -1.2349
  241MOL0     C32456   8.746  10.785   5.782  0.1004 -0.1086 -0.9868
  241MOL0     C32457   8.858  10.759   5.860 -0.2486 -0.8627  0.1387
  241MOL0     C32458   8.965  10.688   5.797  0.0284  0.3076  0.2716
  241MOL0     O32459   9.087  10.660   5.848  0.7118 -0.0098 -0.4908
  241MOL0     C32460   9.127  10.742   5.961  0.1642  0.1799  0.0898
  241MOL0     C32461   9.275  10.698   6.002 -0.2784 -0.0935  0.6068
  241MOL0     C32462   9.314  10.743   6.149  0.9139 -0.2094 -0.0330
  241MOL0     C32463   9.468  10.743   6.189  0.4990 -0.6194  0.6414
  241MOL0     C32464   9.497  10.840   6.297  0.2822  0.1677  0.8695
  241MOL0     C32465   9.540  10.914   6.380 -0.6367 -0.1624  0.7129
  241MOL0     C32466   8.952  10.638   5.664 -1.1806  0.3162 -0.3730
  241MOL0     C32467   8.830  10.657   5.598  1.1078  0.3625  0.5283
  241MOL0     H32468   8.465  11.067   5.727  0.1427  3.2079 -1.7988
  241MOL0     H32469   8.285  11.211   5.664  2.1619  0.2256 -0.5038
  241MOL0     H32470   8.039  11.247   5.647 -2.5353 -2.0541  0.3685
  241MOL0     H32471   8.137  11.327   5.526  1.5109 -1.6299  2.1154
  241MOL0     H32472   7.918  11.422   5.516 -1.2681  0.7364 -0.2078
  241MOL0     H32473   7.919  11.306   5.378 -0.0304  2.0197  0.3806
  241MOL0     H32474   7.785  11.144   5.503  2.2179 -1.5363 -0.3647
  241MOL0     H32475   7.829  11.224   5.652  0.3522  0.4940 -0.1396
  241MOL0     H32476   7.685  11.430   5.562 -0.5359  1.8292 -3.0085
  241MOL0     H32477   7.649  11.341   5.425  0.2615 -1.2121  0.2964
  241MOL0     H32478   7.566  11.263   5.701 -0.3353 -0.7139 -0.2951
  241MOL0     H32479   7.458  11.345   5.599 -2.2205 -2.1135 -0.2011
  241MOL0     H32480   7.506  11.165   5.427 -0.3514  1.3747  1.1014
  241MOL0     H32481   7.556  11.063   5.568  2.3593  0.9018  0.2314
  241MOL0     H32482   7.334  11.145   5.670 -3.5419  0.7842 -0.5101
  241MOL0     H32483   7.292  11.199   5.499 -0.4408 -1.8502 -1.4961
  241MOL0     H32484   7.347  10.911   5.562  1.5913 -0.9656 -1.8522
  241MOL0     H32485   7.358  10.981   5.411  0.2145 -1.4759 -0.0036
  241MOL0     H32486   7.139  10.904   5.298  3.7779  0.8974  0.9937
  241MOL0     H32487   6.877  10.920   5.242  2.0549  1.2829  1.1381
  241MOL0     H32488   6.836  10.795   5.356 -0.3124  0.2821 -2.5805
  241MOL0     H32489   6.747  11.072   5.442 -2.5134  0.1141 -0.6026
  241MOL0     H32490   6.662  10.921   5.443  0.3363 -0.0604 -0.7581
  241MOL0     H32491   6.653  10.960   5.173  0.4138  2.6436 -2.2434
  241MOL0     H32492   6.712  11.120   5.217  1.4273  0.1398  2.2153
  241MOL0     H32493   6.517  11.150   5.352 -2.1479  1.4148 -1.2654
  241MOL0     H32494   6.448  10.997   5.308 -1.5494  0.3649 -4.1878
  241MOL0     H32495   6.251  11.087   5.326 -1.5221 -1.6809  0.0372
  241MOL0     H32496   5.929  11.219   5.259 -0.2952 -0.4337  1.1619
  241MOL0     H32497   5.917  11.048   5.270  0.5309  0.7480  0.1493
  241MOL0     H32498   6.005  11.142   5.388 -3.6491  1.8520  0.9750
  241MOL0     H32499   5.697  11.248   5.149 -1.1395  1.6245 -0.2967
  241MOL0     H32500   5.448  11.299   5.105  0.2366  3.4465 -2.2464
  241MOL0     H32501   5.239  11.307   5.050 -2.5417 -0.4712 -0.5574
  241MOL0     H32502   5.319  11.398   4.921 -2.3043  0.8266 -1.3541
  241MOL0     H32503   5.134  11.349   4.775 -1.8723  2.1658  0.9152
  241MOL0     H32504   5.056  11.229   4.869 -1.4476 -0.3114  0.1709
  241MOL0     H32505   5.060  11.532   4.953 -1.5475  1.0766 -0.4136
  241MOL0     H32506   5.030  11.422   5.064 -0.8358  3.5391 -0.4854
  241MOL0     H32507   4.887  11.456   4.793  0.6981 -0.4067 -0.8287
  241MOL0     H32508   4.852  11.313   4.889  2.0664  0.0381 -2.0050
  241MOL0     H32509   4.779  11.480   5.089 -0.7746 -2.2444 -0.6182
  241MOL0     H32510   4.669  11.451   4.972  1.1094 -1.7591  1.4473
  241MOL0     H32511   4.672  11.678   5.046 -0.4530  0.7371  0.8025
  241MOL0     H32512   4.841  11.693   5.045  0.5336  1.3146  0.2517
  241MOL0     H32513   4.650  11.669   4.800  1.8062 -0.2918 -3.1809
  241MOL0     H32514   4.833  11.679   4.795  1.4576  0.7490  0.0413
  241MOL0     H32515   4.798  11.890   4.939 -1.3607  0.3260  0.2006
  241MOL0     H32516   4.633  11.899   4.872 -0.2147  0.0853  0.7330
  241MOL0     H32517   5.477  11.030   4.770 -1.1160  1.7027 -1.1834
  241MOL0     H32518   5.708  10.975   4.839 -0.8127  0.2112 -0.8797
  241MOL0     H32519   6.175  11.217   4.852  1.3701  0.7644 -0.2343
  241MOL0     H32520   6.401  11.180   4.925  1.5128 -4.6528  0.3411
  241MOL0     H32521   8.142  10.893   5.402 -0.6263  0.2512  0.3073
  241MOL0     H32522   8.339  10.762   5.462  1.7610 -0.1656 -0.6209
  241MOL0     H32523   8.670  10.848   5.827 -0.2224 -2.2535  1.7358
  241MOL0     H32524   8.865  10.811   5.955  0.4071  2.8813 -1.7549
  241MOL0     H32525   9.126  10.851   5.948  1.9899  0.4830  2.0177
  241MOL0     H32526   9.053  10.717   6.037  0.8496 -1.3381  0.3073
  241MOL0     H32527   9.346  10.733   5.926 -1.4017 -3.5812 -2.3702
  241MOL0     H32528   9.284  10.591   5.978 -3.0481  0.3967 -3.8368
  241MOL0     H32529   9.274  10.683   6.231  1.4529  3.4957  3.2342
  241MOL0     H32530   9.295  10.851   6.158  1.3808 -0.2270  1.3447
  241MOL0     H32531   9.523  10.784   6.104  0.2183  0.8358  1.1296
  241MOL0     H32532   9.517  10.647   6.207 -0.0941 -0.9871  0.3419
  241MOL0     H32533   9.582  10.981   6.452  1.5622  0.0904 -0.7198
  241MOL0     H32534   9.040  10.593   5.618 -0.0395  1.9012  0.1901
  241MOL0     H32535   8.825  10.620   5.496  1.2567 -1.5729  1.1922
  242MOL0     O32536   8.823  10.138   0.516  0.3698  0.5249 -0.0867
  242MOL0     C32537   8.872  10.026   0.523 -0.5335  0.5432  0.2571
  242MOL0     O32538   8.822   9.918   0.589 -0.7325  0.8939  0.0171
  242MOL0     C32539   8.712   9.922   0.663 -0.0731 -0.0910  0.5742
  242MOL0     C32540   8.608   9.835   0.622  0.1889  0.3249 -0.9406
  242MOL0     C32541   8.495   9.838   0.699 -0.3652  0.1605 -0.0047
  242MOL0     C32542   8.467   9.939   0.795 -0.2348  1.1262  0.0026
  242MOL0     O32543   8.344   9.943   0.857  0.5220  0.4945  0.2249
  242MOL0     C32544   8.273  10.069   0.841 -0.1088 -0.0547 -0.1880
  242MOL0     C32545   8.150  10.072   0.940  0.0329 -0.3119 -0.4317
  242MOL0     C32546   8.203  10.113   1.068 -0.3979 -0.0339 -0.1939
  242MOL0     C32547   8.188  10.266   1.087 -0.1742 -0.0314 -0.1761
  242MOL0     C32548   8.295  10.322   1.183 -0.0743 -0.1609  0.4174
  242MOL0     C32549   8.293  10.479   1.181 -0.3233  0.3770 -0.6068
  242MOL0     C32550   8.324  10.534   1.323 -0.1435  0.2154  0.4536
  242MOL0     C32551   8.297  10.695   1.324 -0.8741  0.0781 -0.1194
  242MOL0     N32552   8.159  10.721   1.283  0.3196  0.3610  0.5208
  242MOL0     C32553   8.050  10.665   1.339  0.4946  0.1357 -0.3154
  242MOL0     C32554   7.946  10.692   1.254 -1.0761  0.0340 -0.2865
  242MOL0     C32555   7.803  10.646   1.274 -0.3385 -0.6582 -0.9742
  242MOL0     C32556   7.788  10.494   1.251  0.3288 -1.4026  0.2898
  242MOL0     C32557   7.810  10.462   1.100 -0.3104  0.5482 -0.2731
  242MOL0     C32558   7.766  10.314   1.073  0.4081  0.0901 -0.0593
  242MOL0     O32559   7.628  10.294   1.108 -0.3247 -0.4320  0.4017
  242MOL0     C32560   7.576  10.171   1.088  0.4638 -0.0346  0.4505
  242MOL0     C32561   7.625  10.066   1.017 -0.1543  0.6121  0.0057
  242MOL0     C32562   7.543   9.954   0.991  0.9057 -0.7489  0.0400
  242MOL0     C32563   7.604   9.856   0.897  0.1622  0.3867  0.2206
  242MOL0     C32564   7.408   9.945   1.039 -0.0713  0.2175 -0.0486
  242MOL0     C32565   7.313   9.835   1.009 -0.1971  0.3152  0.1890
  242MOL0     O32566   7.186   9.864   0.974  0.0518 -0.9452 -0.6628
  242MOL0     C32567   7.093   9.775   0.939 -0.2339 -0.3168  0.1762
  242MOL0     C32568   7.132   9.666   0.864  0.0241 -1.0261  0.6221
  242MOL0     C32569   7.038   9.576   0.816 -0.0809  0.0048 -0.1029
  242MOL0     C32570   6.900   9.586   0.868 -0.1885 -0.4679  0.8840
  242MOL0     O32571   6.809   9.483   0.839  0.8113  0.0652 -0.3601
  242MOL0     C32572   6.683   9.495   0.906  0.1473  1.0675  0.3907
  242MOL0     C32573   6.615   9.361   0.925  0.1833 -0.4253 -0.2853
  242MOL0     C32574   6.708   9.241   0.969 -0.6557 -0.8930 -0.6441
  242MOL0     C32575   6.692   9.231   1.123 -0.2651 -0.0598  0.4693
  242MOL0     C32576   6.789   9.120   1.167 -0.3577  0.0254 -0.5404
  242MOL0     C32577   6.782   9.079   1.318 -0.3353  0.5267  0.0224
  242MOL0     C32578   6.651   9.012   1.347  0.4624  0.2646  1.0068
  242MOL0     C32579   6.644   8.960   1.482 -0.2208  0.6987 -0.5526
  242MOL0    Cl32580   6.702   9.064   1.616 -0.0229  0.3618  0.2475
  242MOL0     C32581   6.865   9.704   0.944  0.4303  0.1876 -0.9393
  242MOL0     C32582   6.958   9.796   0.974 -1.0280  0.1041 -0.2662
  242MOL0     O32583   7.359   9.721   1.039  0.9901 -0.3400  0.7071
  242MOL0     C32584   7.368  10.045   1.125 -0.0026 -0.1376 -1.0802
  242MOL0     C32585   7.446  10.158   1.139  0.3529 -0.0369  0.8227
  242MOL0     N32586   7.989  10.781   1.164 -0.2006 -0.0065 -0.0424
  242MOL0     N32587   8.116  10.792   1.173 -0.2010  0.0606  0.5138
  242MOL0     C32588   8.567  10.032   0.828 -0.6856  0.8501  0.0018
  242MOL0     C32589   8.692  10.017   0.760 -0.1286  0.6334  0.7907
  242MOL0     C32590   9.000   9.999   0.449 -0.6564  0.6557  0.2362
  242MOL0     C32591   9.080  10.109   0.408 -0.1462  0.5229 -0.5864
  242MOL0     C32592   9.201  10.093   0.338  0.0839  0.1817  0.3273
  242MOL0     C32593   9.250   9.967   0.315 -0.4350 -0.2301 -0.6628
  242MOL0     O32594   9.358   9.966   0.234 -0.5510  0.9067  0.0826
  242MOL0     C32595   9.467   9.871   0.261  1.0580 -0.1571  0.5770
  242MOL0     C32596   9.567   9.909   0.152  0.3066 -0.1640 -0.4295
  242MOL0     C32597   9.683   9.989   0.201 -0.4096 -1.0462 -0.1309
  242MOL0     C32598   9.772   9.925   0.305  0.0374  0.0558  0.0507
  242MOL0     C32599   9.835   9.797   0.270 -0.2181 -0.1469  0.5849
  242MOL0     C32600   9.880   9.697   0.232 -1.4228  0.3356 -0.2752
  242MOL0     C32601   9.179   9.855   0.360  0.0297  0.7627 -0.0823
  242MOL0     C32602   9.060   9.867   0.428  0.4534  0.1312  0.0124
  242MOL0     H32603   8.621   9.768   0.538  0.8892 -0.9864  0.1696
  242MOL0     H32604   8.429   9.753   0.680  1.8353 -1.1495 -2.2624
  242MOL0     H32605   8.333  10.158   0.859  1.1577 -1.3541  2.5536
  242MOL0     H32606   8.237  10.068   0.737 -2.4809 -2.4468  0.5125
  242MOL0     H32607   8.065  10.136   0.911  1.6871  2.1492 -0.1641
  242MOL0     H32608   8.103   9.975   0.955 -0.0030  0.1699  3.3643
  242MOL0     H32609   8.148  10.053   1.141  0.3395  1.5664  1.7786
  242MOL0     H32610   8.306  10.088   1.093 -0.1922  1.4002  0.5602
  242MOL0     H32611   8.191  10.333   1.001 -0.2261  0.8226  0.4775
  242MOL0     H32612   8.093  10.289   1.137  0.4909  0.9533  0.6776
  242MOL0     H32613   8.271  10.285   1.282  1.0204 -0.6414  0.5160
  242MOL0     H32614   8.396  10.283   1.167 -0.2587 -1.5318  2.3998
  242MOL0     H32615   8.369  10.514   1.110 -0.0987  0.2782 -0.4168
  242MOL0     H32616   8.198  10.515   1.141  1.1189  2.6500 -2.2408
  242MOL0     H32617   8.263  10.487   1.401  0.3782 -0.3502  0.5304
  242MOL0     H32618   8.433  10.525   1.337 -0.1157 -0.6443 -0.2204
  242MOL0     H32619   8.366  10.738   1.251 -0.6845  1.1681  0.6808
  242MOL0     H32620   8.323  10.739   1.420  2.4148 -2.2002  0.2175
  242MOL0     H32621   8.027  10.598   1.422 -0.6202 -2.3795 -2.5062
  242MOL0     H32622   7.780  10.671   1.378 -1.6470 -0.2752 -1.3280
  242MOL0     H32623   7.741  10.709   1.209  0.3132  1.7215  0.5971
  242MOL0     H32624   7.689  10.460   1.283  0.9093 -2.1690  1.3599
  242MOL0     H32625   7.869  10.447   1.309  1.3575 -0.9438 -0.7414
  242MOL0     H32626   7.917  10.476   1.082 -0.7545 -0.1318 -4.2255
  242MOL0     H32627   7.751  10.525   1.033  1.3064  0.4957 -1.8062
  242MOL0     H32628   7.819  10.244   1.138  0.1802 -1.0736 -1.0891
  242MOL0     H32629   7.783  10.295   0.966 -0.0031  0.2716 -0.1573
  242MOL0     H32630   7.720  10.064   0.966 -0.3697  1.5068 -0.4425
  242MOL0     H32631   7.702   9.821   0.931 -0.6360 -2.1610  0.0923
  242MOL0     H32632   7.542   9.771   0.870 -0.1850  0.1195  1.7720
  242MOL0     H32633   7.622   9.900   0.798 -1.4613  1.1026  0.2193
  242MOL0     H32634   7.235   9.662   0.832  0.2187  1.6229  0.7338
  242MOL0     H32635   7.070   9.489   0.759  1.3677  0.2741  0.2370
  242MOL0     H32636   6.681   9.523   1.011 -0.3010 -2.7693  1.5565
  242MOL0     H32637   6.625   9.566   0.847 -0.2726  0.1130 -0.3773
  242MOL0     H32638   6.525   9.372   0.986 -0.5488  0.4256 -1.4844
  242MOL0     H32639   6.579   9.320   0.831 -1.5149 -1.3954  0.7380
  242MOL0     H32640   6.812   9.270   0.952 -0.9358  0.5831  0.0350
  242MOL0     H32641   6.674   9.150   0.918 -2.2831 -2.7134  3.2255
  242MOL0     H32642   6.697   9.328   1.174  0.5196  1.7020 -2.6689
  242MOL0     H32643   6.590   9.194   1.138 -1.8078  2.3519 -2.8681
  242MOL0     H32644   6.885   9.173   1.162  0.1658 -0.7188  1.0827
  242MOL0     H32645   6.789   9.033   1.101  1.8834 -1.7146  1.5784
  242MOL0     H32646   6.864   9.009   1.336 -0.6586  0.1603  0.0656
  242MOL0     H32647   6.809   9.162   1.383 -0.9126 -1.4947  3.0456
  242MOL0     H32648   6.640   8.921   1.287  0.4213  0.0196  1.3875
  242MOL0     H32649   6.563   9.073   1.326 -0.0270 -1.3163 -2.1961
  242MOL0     H32650   6.697   8.865   1.492 -4.0314 -1.6765 -0.9639
  242MOL0     H32651   6.542   8.930   1.508  0.3043 -1.3652 -0.6560
  242MOL0     H32652   6.764   9.724   0.978  1.4316 -0.3127  2.8755
  242MOL0     H32653   6.932   9.886   1.028 -2.7440 -1.6085  1.9608
  242MOL0     H32654   7.269  10.041   1.171  0.6267 -0.9280  0.2794
  242MOL0     H32655   7.405  10.240   1.197 -0.3130 -0.7351  1.3532
  242MOL0     H32656   8.555  10.108   0.904 -0.8243  0.7336  0.0960
  242MOL0     H32657   8.776  10.082   0.782  0.8243 -0.7359  1.3877
  242MOL0     H32658   9.032  10.206   0.408 -1.2751  0.0116 -1.8769
  242MOL0     H32659   9.248  10.177   0.289  0.4413 -0.3498 -0.2544
  242MOL0     H32660   9.499   9.898   0.363 -0.0275  0.2209  0.8330
  242MOL0     H32661   9.434   9.769   0.245 -1.1269  0.4845  0.6664
  242MOL0     H32662   9.540   9.961   0.059  3.9891  0.9121 -1.0494
  242MOL0     H32663   9.593   9.805   0.129 -4.1273 -2.2397  2.4591
  242MOL0     H32664   9.650  10.091   0.223  3.5286  0.3910 -0.0426
  242MOL0     H32665   9.751  10.004   0.116 -0.0042 -0.4401  0.2892
  242MOL0     H32666   9.715   9.910   0.397  1.0842 -0.1804  0.6906
  242MOL0     H32667   9.850   9.998   0.329  0.4102 -0.2848 -0.1028
  242MOL0     H32668   9.937   9.609   0.215  1.3475  1.3233  2.7500
  242MOL0     H32669   9.214   9.757   0.329 -0.4275  0.1775  1.1693
  242MOL0     H32670   9.009   9.776   0.459 -1.9635  1.2610 -0.4219
  243MOL0     O32671   4.418   2.181   3.353 -0.0333 -0.0800  0.1045
  243MOL0     C32672   4.355   2.290   3.329 -0.8472  0.3738 -0.3330
  243MOL0     O32673   4.232   2.305   3.269  0.3319 -0.0413 -0.0823
  243MOL0     C32674   4.152   2.188   3.266 -0.2637 -1.5839  0.4469
  243MOL0     C32675   4.186   2.088   3.178 -0.0192 -0.2809  0.8928
  243MOL0     C32676   4.104   1.978   3.164 -0.2873 -0.0905 -0.3267
  243MOL0     C32677   3.974   1.977   3.224 -0.4991  0.2324  0.5039
  243MOL0     O32678   3.889   1.884   3.176  0.9214 -0.0944 -0.0897
  243MOL0     C32679   3.762   1.867   3.238 -0.7237 -0.5704 -0.6889
  243MOL0     C32680   3.703   1.745   3.175 -0.4603  0.1453  0.1242
  243MOL0     C32681   3.703   1.737   3.019  0.3371  0.4212 -0.6141
  243MOL0     C32682   3.666   1.871   2.950  0.2523 -0.7902 -0.9054
  243MOL0     C32683   3.721   1.889   2.805  0.3039 -0.6727 -0.6780
  243MOL0     C32684   3.650   1.791   2.715 -0.1111 -0.1849  0.5900
  243MOL0     C32685   3.495   1.800   2.698  0.3683  0.2258 -0.5771
  243MOL0     C32686   3.465   1.903   2.588  1.1869 -0.1894 -0.0060
  243MOL0     N32687   3.551   1.894   2.466  0.6615 -0.8518 -0.1244
  243MOL0     C32688   3.557   1.792   2.376  0.4599  0.2628  0.4147
  243MOL0     C32689   3.660   1.834   2.294  0.4204  0.3397 -1.1599
  243MOL0     C32690   3.712   1.781   2.169  0.5887  0.2845  0.5465
  243MOL0     C32691   3.603   1.732   2.075  0.4629  0.1472  0.1971
  243MOL0     C32692   3.520   1.851   2.025 -0.3330 -0.2523  0.7454
  243MOL0     C32693   3.372   1.843   2.039  0.2873  0.1609  0.1022
  243MOL0     O32694   3.329   1.836   2.176 -0.1125 -0.4882  0.3445
  243MOL0     C32695   3.275   1.952   2.224  0.5529 -0.1936 -0.3495
  243MOL0     C32696   3.134   1.976   2.239 -0.2426  0.0878 -0.5641
  243MOL0     C32697   3.083   2.089   2.304  0.1955  0.9286  0.2234
  243MOL0     C32698   2.933   2.087   2.325 -0.4456  0.1801 -1.2355
  243MOL0     C32699   3.173   2.197   2.334  0.3563 -0.1851  0.0819
  243MOL0     C32700   3.123   2.325   2.412 -0.5739 -0.0535  0.2641
  243MOL0     O32701   3.220   2.424   2.402 -0.5467 -0.5216  0.2274
  243MOL0     C32702   3.202   2.522   2.505 -0.2764 -0.5132  1.0383
  243MOL0     C32703   3.100   2.614   2.507  1.1144 -0.5515 -0.8333
  243MOL0     C32704   3.088   2.701   2.622 -0.1255  0.5323 -0.7422
  243MOL0     C32705   3.151   2.677   2.743  0.2473  0.0678 -0.2609
  243MOL0     O32706   3.133   2.753   2.860  0.2128 -0.5095 -0.6128
  243MOL0     C32707   3.099   2.896   2.846  0.1203  0.1107  0.1566
  243MOL0     C32708   3.136   2.959   2.976 -0.5577  0.2683  1.0694
  243MOL0     C32709   3.291   2.984   2.981 -0.4420  0.0028 -0.3918
  243MOL0     C32710   3.320   3.098   3.077 -0.1499 -0.0242  0.1198
  243MOL0     C32711   3.472   3.107   3.110 -0.5427  0.2828 -0.4269
  243MOL0     C32712   3.554   3.142   2.988 -0.5659 -1.3184 -0.2732
  243MOL0     C32713   3.531   3.289   2.935  1.3631 -0.5745  0.3670
  243MOL0     C32714   3.650   3.389   2.951  0.8712 -0.6801  0.4109
  243MOL0    Cl32715   3.682   3.462   2.788 -0.3834  0.2950 -0.4256
  243MOL0     C32716   3.244   2.577   2.741 -0.4569  0.7224 -0.3044
  243MOL0     C32717   3.272   2.503   2.621  0.2300 -0.4729 -0.2071
  243MOL0     O32718   3.026   2.328   2.489 -0.1503 -0.3824  0.2874
  243MOL0     C32719   3.313   2.176   2.312  0.1887 -1.1649 -0.1203
  243MOL0     C32720   3.365   2.059   2.257 -0.3385  0.6580 -0.5769
  243MOL0     N32721   3.708   1.950   2.342  0.5685 -0.3683 -0.0669
  243MOL0     N32722   3.645   1.992   2.446  0.3349  0.0104 -0.9033
  243MOL0     C32723   3.943   2.076   3.317  0.4573  0.2072 -0.8269
  243MOL0     C32724   4.029   2.177   3.333 -0.7831 -0.0989 -0.9112
  243MOL0     C32725   4.416   2.413   3.372  0.0134 -1.4728  0.3276
  243MOL0     C32726   4.335   2.534   3.366  0.1173  0.3574  0.3903
  243MOL0     C32727   4.388   2.654   3.401  0.3164  0.2553  0.2497
  243MOL0     C32728   4.521   2.659   3.463  0.6689 -0.3098 -1.4692
  243MOL0     O32729   4.582   2.777   3.505 -0.1024 -0.1001 -0.6763
  243MOL0     C32730   4.506   2.881   3.551 -0.5297  0.3798 -0.3553
  243MOL0     C32731   4.580   3.005   3.592 -0.2715  0.8129  0.6296
  243MOL0     C32732   4.490   3.116   3.647 -0.0788  0.1050  0.0615
  243MOL0     C32733   4.569   3.249   3.675 -0.1780  0.0523  1.3079
  243MOL0     C32734   4.613   3.307   3.545  0.3026  0.4868 -0.0937
  243MOL0     C32735   4.668   3.346   3.451 -0.5123 -0.7117  0.0231
  243MOL0     C32736   4.589   2.541   3.480 -0.5297 -0.1571 -0.2638
  243MOL0     C32737   4.542   2.419   3.436 -0.3849  0.1544  0.5987
  243MOL0     H32738   4.271   2.101   3.111  1.9769 -1.3453  3.0801
  243MOL0     H32739   4.128   1.913   3.081 -0.5838 -1.9503  0.9981
  243MOL0     H32740   3.761   1.854   3.347 -1.0431 -1.0500 -0.7459
  243MOL0     H32741   3.703   1.955   3.212  1.9595  1.0580 -1.6742
  243MOL0     H32742   3.763   1.658   3.201 -0.3007  0.0718 -0.4690
  243MOL0     H32743   3.602   1.737   3.216  0.2354  1.5616  2.3469
  243MOL0     H32744   3.802   1.702   2.989 -0.0624 -1.2544 -0.0869
  243MOL0     H32745   3.636   1.662   2.977  2.2682 -0.1547 -2.8571
  243MOL0     H32746   3.558   1.875   2.962  0.2193 -1.8454 -0.7801
  243MOL0     H32747   3.706   1.958   3.003 -1.2023 -0.4953 -0.2469
  243MOL0     H32748   3.706   1.992   2.773  0.7320 -0.9761 -1.9358
  243MOL0     H32749   3.828   1.872   2.817  0.3749  0.7888  1.1702
  243MOL0     H32750   3.698   1.775   2.618 -0.3022 -4.0698  0.9920
  243MOL0     H32751   3.667   1.699   2.771  0.1603 -0.5831 -0.1312
  243MOL0     H32752   3.459   1.704   2.661  6.2198 -3.0293  0.9636
  243MOL0     H32753   3.440   1.818   2.791 -0.6915 -1.1277 -0.9170
  243MOL0     H32754   3.490   2.001   2.629  0.8569 -0.2143  0.2575
  243MOL0     H32755   3.359   1.909   2.562  0.7618  1.7121  1.9308
  243MOL0     H32756   3.494   1.704   2.364 -1.4975  1.5278  0.9712
  243MOL0     H32757   3.779   1.856   2.125 -1.4160  1.4827 -0.6281
  243MOL0     H32758   3.754   1.685   2.199 -1.4109 -0.8493 -0.0964
  243MOL0     H32759   3.533   1.665   2.126 -2.4468  0.8840 -2.4624
  243MOL0     H32760   3.631   1.682   1.982 -0.2276 -0.8762  0.5295
  243MOL0     H32761   3.545   1.872   1.920 -2.6945 -1.5492 -0.1581
  243MOL0     H32762   3.561   1.933   2.085 -0.3103 -0.7723  1.4481
  243MOL0     H32763   3.346   1.747   1.994  2.5534  0.5891 -2.3496
  243MOL0     H32764   3.320   1.922   1.983 -2.0790 -1.0437  0.4889
  243MOL0     H32765   3.077   1.892   2.202 -0.1455  0.1732 -0.9157
  243MOL0     H32766   2.890   2.183   2.295 -1.1436  0.5238  0.7249
  243MOL0     H32767   2.890   2.005   2.266 -2.3766  1.6241 -1.9310
  243MOL0     H32768   2.913   2.085   2.432 -0.4228  2.5275 -1.1404
  243MOL0     H32769   3.041   2.615   2.416  0.5658 -0.5535 -0.4766
  243MOL0     H32770   3.006   2.773   2.622  0.3141  1.1588  1.9783
  243MOL0     H32771   3.148   2.938   2.758 -1.3935 -0.8108 -1.1741
  243MOL0     H32772   2.995   2.911   2.817  1.1870  0.3035 -4.2655
  243MOL0     H32773   3.088   3.058   2.980 -3.4647 -1.0377  1.5160
  243MOL0     H32774   3.101   2.899   3.060  2.3117 -1.4848  1.1236
  243MOL0     H32775   3.327   3.016   2.883 -0.0319  1.0543  0.0839
  243MOL0     H32776   3.349   2.896   3.010 -0.2579 -1.4642 -4.5166
  243MOL0     H32777   3.268   3.187   3.042 -0.9748  0.3889  2.2340
  243MOL0     H32778   3.275   3.063   3.171  1.0437 -0.8354  0.4156
  243MOL0     H32779   3.502   3.012   3.154 -0.2959  0.4039 -0.3336
  243MOL0     H32780   3.482   3.189   3.182 -0.3996 -0.7510  0.7507
  243MOL0     H32781   3.661   3.139   3.010 -0.7879  2.1352  2.1825
  243MOL0     H32782   3.530   3.069   2.911  0.1753 -0.8739 -0.9470
  243MOL0     H32783   3.432   3.328   2.961  0.8573 -0.7007 -1.2249
  243MOL0     H32784   3.509   3.287   2.828 -2.8270  2.7363  0.8615
  243MOL0     H32785   3.736   3.336   2.992  2.3278 -0.0676 -1.7031
  243MOL0     H32786   3.624   3.473   3.016  0.5299  2.2094 -3.1483
  243MOL0     H32787   3.290   2.546   2.834 -0.4569 -0.9233 -0.8216
  243MOL0     H32788   3.355   2.433   2.624  1.9844  1.5312  2.0857
  243MOL0     H32789   3.385   2.257   2.323  3.1394 -3.3402 -1.9431
  243MOL0     H32790   3.473   2.052   2.245 -0.1937 -1.6928  1.2848
  243MOL0     H32791   3.848   2.075   3.370  0.0421  1.3323 -1.5050
  243MOL0     H32792   4.008   2.252   3.410  0.2316 -0.2241 -0.5019
  243MOL0     H32793   4.235   2.539   3.324  0.7929  2.9434 -1.1645
  243MOL0     H32794   4.329   2.743   3.384  0.7447 -0.0838 -4.0485
  243MOL0     H32795   4.441   2.910   3.468  0.5607  1.0763 -0.9982
  243MOL0     H32796   4.443   2.855   3.637 -0.6843 -0.1720 -0.6301
  243MOL0     H32797   4.623   3.045   3.500 -0.5941  0.7258  0.4416
  243MOL0     H32798   4.663   2.989   3.662  0.7668 -1.4068 -0.9768
  243MOL0     H32799   4.457   3.095   3.749 -1.7019 -0.4188 -0.5365
  243MOL0     H32800   4.405   3.123   3.579 -0.8092 -0.3838  0.9155
  243MOL0     H32801   4.651   3.221   3.741 -0.8918 -4.7070  0.5273
  243MOL0     H32802   4.500   3.319   3.724 -0.6572  1.6063 -1.3861
  243MOL0     H32803   4.732   3.379   3.371  3.8622 -5.5374  1.0148
  243MOL0     H32804   4.690   2.555   3.518 -0.3010 -2.3333  0.0849
  243MOL0     H32805   4.596   2.327   3.453  0.9747  0.9002  0.5081
  244MOL0     O32806   2.285   8.847   9.914 -0.0396  0.0387 -0.1532
  244MOL0     C32807   2.305   8.818  10.030  0.3587 -0.1551  0.3075
  244MOL0     O32808   2.399   8.869  10.103 -0.0354 -0.1876  0.6312
  244MOL0     C32809   2.497   8.946  10.050 -0.8048 -0.8151  1.0213
  244MOL0     C32810   2.578   8.900   9.942 -0.3259 -0.3299  0.5025
  244MOL0     C32811   2.676   8.986   9.884 -0.3398  0.4202 -0.6168
  244MOL0     C32812   2.697   9.123   9.921 -0.0100  0.7777  0.3176
  244MOL0     O32813   2.807   9.182   9.865 -0.1855 -0.2134 -0.2398
  244MOL0     C32814   2.874   9.268   9.960  0.3204  0.0789 -0.0736
  244MOL0     C32815   3.013   9.302   9.913  0.2917 -0.3218  0.1229
  244MOL0     C32816   3.029   9.392   9.790 -0.0128  0.0316 -0.9383
  244MOL0     C32817   3.139   9.350   9.690 -0.4916  1.2185 -0.0825
  244MOL0     C32818   3.214   9.463   9.621 -0.2323 -0.1025  0.1562
  244MOL0     C32819   3.116   9.536   9.520 -0.4333 -0.5337 -0.2502
  244MOL0     C32820   3.077   9.462   9.401  0.8293  0.2006  0.5381
  244MOL0     C32821   2.986   9.537   9.299 -0.6836 -0.2089 -0.3698
  244MOL0     N32822   2.974   9.476   9.169  0.4189 -0.6183  0.7516
  244MOL0     C32823   2.907   9.360   9.137  0.3048 -0.5540  0.9661
  244MOL0     C32824   2.952   9.334   9.006 -0.5304 -0.6279 -0.3715
  244MOL0     C32825   2.912   9.203   8.936 -1.2036  0.2323  0.4342
  244MOL0     C32826   3.038   9.111   8.894  0.4145 -0.4655  0.6904
  244MOL0     C32827   3.010   8.966   8.897 -0.0201  0.3654  0.3141
  244MOL0     C32828   2.911   8.935   8.786  0.2181  0.2356  1.2192
  244MOL0     O32829   2.860   8.799   8.794 -0.2418  0.4734 -0.2902
  244MOL0     C32830   2.721   8.791   8.800  0.1518  0.3809  0.1579
  244MOL0     C32831   2.635   8.835   8.901  0.0777 -0.0629  0.6413
  244MOL0     C32832   2.494   8.806   8.893 -0.3024  0.5867 -0.4857
  244MOL0     C32833   2.407   8.850   9.000  0.1148 -0.0722  0.1353
  244MOL0     C32834   2.438   8.722   8.793 -0.6876  0.5428 -0.0267
  244MOL0     C32835   2.300   8.659   8.784 -0.4438 -0.4081  0.0895
  244MOL0     O32836   2.249   8.636   8.666 -0.1537  0.6422  0.2819
  244MOL0     C32837   2.119   8.596   8.654  0.2983  0.2512 -1.4032
  244MOL0     C32838   2.022   8.661   8.725 -0.2624 -1.0067 -0.6552
  244MOL0     C32839   1.888   8.632   8.727  1.1246  0.7187  0.3780
  244MOL0     C32840   1.848   8.532   8.633 -0.4541  0.0030 -0.1109
  244MOL0     O32841   1.715   8.485   8.610 -0.1613 -0.6055  0.1706
  244MOL0     C32842   1.605   8.538   8.679 -0.5307  0.7284  0.0466
  244MOL0     C32843   1.475   8.478   8.641 -0.6444  0.2183  0.3886
  244MOL0     C32844   1.374   8.529   8.743  0.6185 -0.2886  0.2665
  244MOL0     C32845   1.242   8.517   8.663  0.1581  0.2411  0.2184
  244MOL0     C32846   1.124   8.541   8.755  0.2251 -0.9779 -0.5668
  244MOL0     C32847   1.109   8.690   8.782  0.1094  0.5341  1.1499
  244MOL0     C32848   0.980   8.728   8.848  0.3639 -0.3838  0.4687
  244MOL0     C32849   0.856   8.736   8.747  0.1420  0.0924  0.6514
  244MOL0    Cl32850   0.869   8.839   8.610 -0.6456 -0.1652 -0.0896
  244MOL0     C32851   1.941   8.460   8.561  0.2197 -0.1662 -0.0181
  244MOL0     C32852   2.077   8.500   8.564  0.1262  0.2441  0.9910
  244MOL0     O32853   2.251   8.639   8.896  0.4747  0.4001 -0.2214
  244MOL0     C32854   2.527   8.690   8.690 -0.6378  0.5896  0.4824
  244MOL0     C32855   2.661   8.716   8.697  0.1136  0.3092  0.1530
  244MOL0     N32856   3.029   9.444   8.962  0.2043 -0.2440 -0.4119
  244MOL0     N32857   3.034   9.525   9.055 -0.1101 -0.2374 -1.1587
  244MOL0     C32858   2.609   9.165  10.026 -1.1536  0.6143  0.6031
  244MOL0     C32859   2.515   9.078  10.086  0.3541 -0.2071  0.5106
  244MOL0     C32860   2.202   8.741  10.108  0.3803  0.4090 -0.6633
  244MOL0     C32861   2.212   8.716  10.246  0.3756 -0.8977  0.2046
  244MOL0     C32862   2.099   8.656  10.308 -0.2592 -0.5232  0.2774
  244MOL0     C32863   1.988   8.619  10.239  0.3840 -1.1632  0.4696
  244MOL0     O32864   1.894   8.565  10.315 -0.3381 -0.3843 -0.5001
  244MOL0     C32865   1.805   8.478  10.248  0.3280 -0.0446  0.3942
  244MOL0     C32866   1.712   8.423  10.358  0.5118  0.4096  0.2767
  244MOL0     C32867   1.612   8.320  10.295 -0.8481 -0.8117  0.4253
  244MOL0     C32868   1.520   8.249  10.403 -0.8526 -0.3537  0.8914
  244MOL0     C32869   1.427   8.338  10.463  0.8304 -0.6756  0.1026
  244MOL0     C32870   1.338   8.417  10.496 -0.5860 -0.2677 -0.2752
  244MOL0     C32871   1.979   8.633  10.099 -0.6908 -0.3074 -0.1459
  244MOL0     C32872   2.091   8.690  10.039  0.2199  0.3865 -0.9985
  244MOL0     H32873   2.563   8.794   9.922 -4.0312  0.2435 -0.6763
  244MOL0     H32874   2.742   8.938   9.812  0.7289  1.4572 -0.3755
  244MOL0     H32875   2.824   9.365   9.961  1.6395  0.7949 -0.5265
  244MOL0     H32876   2.874   9.227  10.061 -0.7599  3.6013  1.5266
  244MOL0     H32877   3.050   9.349  10.004  2.5947 -2.9395  0.6763
  244MOL0     H32878   3.072   9.211   9.899  0.4324 -0.0702 -1.0153
  244MOL0     H32879   2.936   9.391   9.733 -0.9639  0.9562  0.5443
  244MOL0     H32880   3.057   9.491   9.829 -0.5477  0.6116 -1.9953
  244MOL0     H32881   3.207   9.284   9.746 -0.5838 -0.6839 -2.0762
  244MOL0     H32882   3.097   9.277   9.621  0.1973  0.8773 -0.1592
  244MOL0     H32883   3.249   9.537   9.694  0.3252 -1.4168  1.2588
  244MOL0     H32884   3.301   9.424   9.569  0.7710  1.0402  0.9082
  244MOL0     H32885   3.024   9.564   9.572 -1.2089 -1.2069 -1.2054
  244MOL0     H32886   3.160   9.630   9.485 -0.4501 -0.5384 -0.2856
  244MOL0     H32887   3.163   9.438   9.336 -1.4106 -0.5794 -2.3621
  244MOL0     H32888   3.024   9.374   9.437 -0.4580  1.3982  1.6691
  244MOL0     H32889   3.036   9.631   9.270  0.3905 -0.1898  1.4182
  244MOL0     H32890   2.885   9.557   9.335 -1.0838 -2.0900 -0.3478
  244MOL0     H32891   2.837   9.311   9.204  0.6548 -0.3701  1.4752
  244MOL0     H32892   2.840   9.143   8.992  0.5152 -0.4278  2.0194
  244MOL0     H32893   2.863   9.242   8.846  0.8474  0.2537 -0.7471
  244MOL0     H32894   3.124   9.123   8.961 -0.0383 -0.9432  1.3722
  244MOL0     H32895   3.082   9.144   8.799 -0.8337 -2.7763 -0.7813
  244MOL0     H32896   2.985   8.918   8.992 -0.1008 -2.2182 -0.9412
  244MOL0     H32897   3.106   8.919   8.875  1.0409  1.7627  1.7125
  244MOL0     H32898   2.966   8.955   8.694 -3.4173 -0.4159 -1.3031
  244MOL0     H32899   2.828   9.007   8.789 -1.1426 -1.2788  2.0919
  244MOL0     H32900   2.689   8.894   8.974  0.7700  2.5320 -1.7852
  244MOL0     H32901   2.306   8.877   8.969  0.8114 -1.1198 -3.5092
  244MOL0     H32902   2.399   8.766   9.070 -1.6026 -1.1783 -1.3173
  244MOL0     H32903   2.459   8.941   9.031  1.4538  0.1648 -2.5255
  244MOL0     H32904   2.054   8.752   8.776  0.3382 -0.8615 -1.2801
  244MOL0     H32905   1.808   8.685   8.780 -0.0718 -1.0511  0.4143
  244MOL0     H32906   1.623   8.506   8.782  0.9083  4.3765  1.0983
  244MOL0     H32907   1.600   8.647   8.677 -2.7010  0.7473  1.8704
  244MOL0     H32908   1.446   8.522   8.545 -1.7184  1.8659  1.4154
  244MOL0     H32909   1.480   8.369   8.637  0.0128  0.2533  0.0899
  244MOL0     H32910   1.390   8.634   8.766 -2.7792  0.3585  0.2057
  244MOL0     H32911   1.376   8.466   8.832  0.9080 -0.3917  0.1890
  244MOL0     H32912   1.235   8.584   8.577 -0.0776 -1.1948 -0.9122
  244MOL0     H32913   1.240   8.415   8.624 -1.2565 -0.4386  1.9328
  244MOL0     H32914   1.134   8.496   8.854 -1.9836  2.9369  1.6914
  244MOL0     H32915   1.034   8.502   8.707  1.0399 -2.2862 -1.0600
  244MOL0     H32916   1.187   8.721   8.852  0.5630  3.6761 -0.5342
  244MOL0     H32917   1.107   8.749   8.690 -0.4541  0.6737  1.2470
  244MOL0     H32918   1.004   8.828   8.884  0.7804 -0.9148  1.6984
  244MOL0     H32919   0.965   8.661   8.933 -0.8208  4.5166  4.6169
  244MOL0     H32920   0.770   8.769   8.806 -0.1489  0.7539 -0.1356
  244MOL0     H32921   0.837   8.633   8.714  2.8250  0.2464 -1.7836
  244MOL0     H32922   1.900   8.389   8.490 -1.9277  0.6165  0.3829
  244MOL0     H32923   2.157   8.458   8.504  0.1362 -0.3211  1.3865
  244MOL0     H32924   2.481   8.636   8.608  1.8650 -0.9175 -0.0632
  244MOL0     H32925   2.719   8.675   8.615  0.4342 -0.2104  0.6337
  244MOL0     H32926   2.638   9.260  10.069  1.3521  1.1451 -1.9694
  244MOL0     H32927   2.439   9.108  10.158  0.7874  0.4659  0.6998
  244MOL0     H32928   2.290   8.746  10.314  1.1993 -1.8429 -0.2854
  244MOL0     H32929   2.097   8.640  10.415  0.8727 -2.0759  0.1126
  244MOL0     H32930   1.743   8.526  10.172  0.5874  0.8130  0.7185
  244MOL0     H32931   1.870   8.405  10.199  1.2691  1.5427 -0.8089
  244MOL0     H32932   1.649   8.505  10.393  1.9211  2.0894 -0.9329
  244MOL0     H32933   1.773   8.370  10.432  0.0644  0.3851  0.6294
  244MOL0     H32934   1.661   8.242  10.237  0.3064 -0.7305  1.2507
  244MOL0     H32935   1.550   8.382  10.230  1.2747 -0.0803 -1.0006
  244MOL0     H32936   1.579   8.200  10.482 -0.2089  1.8869  1.8747
  244MOL0     H32937   1.458   8.176  10.352 -0.6479 -0.7762  1.2387
  244MOL0     H32938   1.259   8.476  10.538  1.3581  2.8993 -0.7037
  244MOL0     H32939   1.889   8.617  10.040 -0.9355  1.9874 -0.4961
  244MOL0     H32940   2.088   8.705   9.931  0.9887  2.0722 -0.8101
  245MOL0     O32941   8.784   3.240   3.375  0.1076  0.3650 -0.3800
  245MOL0     C32942   8.812   3.351   3.410  0.5500  0.0975 -0.7133
  245MOL0     O32943   8.727   3.460   3.417 -0.1866  0.1856  0.4668
  245MOL0     C32944   8.601   3.453   3.371  0.6968  0.4291  0.2320
  245MOL0     C32945   8.586   3.448   3.231  0.3425  0.9201 -0.2996
  245MOL0     C32946   8.473   3.506   3.174 -0.4698  0.1263 -0.8762
  245MOL0     C32947   8.365   3.537   3.252 -0.8760 -0.7565  0.5085
  245MOL0     O32948   8.255   3.586   3.181 -0.2931  0.4559 -0.2985
  245MOL0     C32949   8.131   3.610   3.251 -0.2234 -0.0802  0.0092
  245MOL0     C32950   8.112   3.758   3.286 -0.4521  0.1863 -0.5932
  245MOL0     C32951   7.965   3.792   3.334 -0.3054 -0.5021 -0.4038
  245MOL0     C32952   7.956   3.788   3.491 -0.1805  0.3352  0.7871
  245MOL0     C32953   7.847   3.890   3.556  0.0410 -0.4908  0.9992
  245MOL0     C32954   7.705   3.869   3.495 -0.9533 -0.1785  0.7792
  245MOL0     C32955   7.604   3.964   3.558  0.8099  0.6633  0.5784
  245MOL0     C32956   7.638   4.112   3.533  0.7439 -0.1760 -0.0734
  245MOL0     N32957   7.524   4.211   3.523  0.1947  0.0660 -0.1041
  245MOL0     C32958   7.449   4.229   3.413  1.0653  0.0356  0.5175
  245MOL0     C32959   7.370   4.335   3.440  0.1677 -0.2662  0.2490
  245MOL0     C32960   7.272   4.385   3.333 -0.2414 -0.1911  0.7264
  245MOL0     C32961   7.137   4.325   3.374 -0.7038  0.6764 -0.4159
  245MOL0     C32962   7.031   4.356   3.272  0.0552 -0.5687  0.1179
  245MOL0     C32963   6.883   4.331   3.306  0.6072 -0.0352 -0.1931
  245MOL0     O32964   6.860   4.201   3.357 -0.5662  0.1518  0.5990
  245MOL0     C32965   6.736   4.150   3.331 -0.2042 -0.1058  0.4329
  245MOL0     C32966   6.718   4.020   3.280  0.3375  0.6532 -0.0943
  245MOL0     C32967   6.583   3.957   3.262 -0.9934 -0.6981  0.1294
  245MOL0     C32968   6.568   3.811   3.234  0.1335  0.0451 -0.3687
  245MOL0     C32969   6.471   4.050   3.271  0.1207  0.2093  1.3063
  245MOL0     C32970   6.333   4.007   3.236 -1.0306  0.9708 -0.0677
  245MOL0     O32971   6.237   4.094   3.267  0.0813  0.0901  0.1140
  245MOL0     C32972   6.112   4.072   3.210  0.2471  0.0698 -0.5892
  245MOL0     C32973   6.035   3.959   3.234 -0.2256 -0.1787  1.0469
  245MOL0     C32974   5.902   3.962   3.194  0.2501 -0.5524  0.8383
  245MOL0     C32975   5.854   4.062   3.108 -0.1459  0.0265  0.0612
  245MOL0     O32976   5.723   4.045   3.073  0.5293 -0.0695  0.1100
  245MOL0     C32977   5.669   4.101   2.953  0.8696  1.5167 -0.3050
  245MOL0     C32978   5.705   4.023   2.833 -0.3447  0.4876 -0.3364
  245MOL0     C32979   5.618   4.076   2.716 -0.1432  0.4552 -0.9029
  245MOL0     C32980   5.664   4.016   2.585  0.1317 -0.3782  0.2364
  245MOL0     C32981   5.629   4.096   2.452 -0.1358  0.1164  0.0221
  245MOL0     C32982   5.477   4.080   2.427  0.2203 -0.2975 -0.0156
  245MOL0     C32983   5.431   3.958   2.359  0.4570 -0.4288 -0.1269
  245MOL0     C32984   5.283   3.985   2.307  0.5666  0.2434  0.1745
  245MOL0    Cl32985   5.218   3.821   2.272 -0.3106  0.3170 -0.0449
  245MOL0     C32986   5.931   4.174   3.073  0.4799  0.0817  0.2564
  245MOL0     C32987   6.061   4.175   3.129  0.1419 -0.2374  0.2635
  245MOL0     O32988   6.312   3.904   3.177  0.0646  0.1907 -0.1225
  245MOL0     C32989   6.489   4.177   3.315 -1.1854  0.1364  0.0846
  245MOL0     C32990   6.618   4.218   3.354  0.2712 -0.4720 -0.0449
  245MOL0     N32991   7.394   4.379   3.571 -0.6475  0.1663  0.5150
  245MOL0     N32992   7.484   4.298   3.621 -0.1634 -0.0872 -0.4982
  245MOL0     C32993   8.379   3.540   3.393  0.2285  0.1770 -0.5958
  245MOL0     C32994   8.491   3.486   3.445 -0.8508 -0.8785  0.3632
  245MOL0     C32995   8.957   3.359   3.446  0.0992 -0.3739 -0.3584
  245MOL0     C32996   9.030   3.251   3.473  0.9326  0.4196  0.4465
  245MOL0     C32997   9.166   3.267   3.515  1.0226  0.1331  0.4634
  245MOL0     C32998   9.226   3.388   3.519 -0.2698  0.4645  0.3741
  245MOL0     O32999   9.359   3.376   3.550 -0.3397  0.1627  0.2474
  245MOL0     C33000   9.426   3.497   3.567 -0.6421 -0.2773  0.3073
  245MOL0     C33001   9.502   3.542   3.430 -0.9123 -0.1452  0.2111
  245MOL0     C33002   9.615   3.645   3.454  0.4157 -0.4478 -0.0802
  245MOL0     C33003   9.586   3.766   3.541  0.2972  0.1948  0.1022
  245MOL0     C33004   9.482   3.848   3.478 -0.4334  0.1145 -0.0056
  245MOL0     C33005   9.403   3.924   3.422 -0.1663  0.2767  0.1439
  245MOL0     C33006   9.154   3.504   3.475 -0.2314  0.1904 -0.5487
  245MOL0     C33007   9.016   3.483   3.443 -0.1120 -0.1025 -0.6699
  245MOL0     H33008   8.671   3.406   3.179  0.6271 -0.6155  1.3161
  245MOL0     H33009   8.466   3.513   3.066  0.0887 -0.7634 -0.9868
  245MOL0     H33010   8.058   3.589   3.173  1.6194 -3.0187 -1.1093
  245MOL0     H33011   8.123   3.558   3.347 -0.1902 -0.0471  0.0295
  245MOL0     H33012   8.187   3.781   3.362 -0.7597  0.7006 -0.4412
  245MOL0     H33013   8.126   3.824   3.200  1.5024 -0.8505 -1.1162
  245MOL0     H33014   7.936   3.886   3.288  3.5790 -0.6622 -3.7483
  245MOL0     H33015   7.899   3.711   3.301  0.3852 -1.3015  0.1232
  245MOL0     H33016   7.935   3.681   3.503 -1.4526  0.3890 -0.6541
  245MOL0     H33017   8.049   3.808   3.545 -0.8099 -2.5137  3.1906
  245MOL0     H33018   7.849   3.877   3.664 -1.1703 -0.3903  1.0459
  245MOL0     H33019   7.875   3.989   3.520  0.5937 -1.2521 -0.8262
  245MOL0     H33020   7.711   3.873   3.385  0.4605 -2.4285  0.7064
  245MOL0     H33021   7.672   3.766   3.505  0.9838 -1.0599 -0.9658
  245MOL0     H33022   7.510   3.947   3.505  2.1575  0.5065 -1.9099
  245MOL0     H33023   7.588   3.947   3.665  1.3751  3.9442  1.3164
  245MOL0     H33024   7.698   4.120   3.443  0.3296  0.7745 -0.2764
  245MOL0     H33025   7.698   4.128   3.623 -1.8794 -2.2249  2.2288
  245MOL0     H33026   7.450   4.171   3.322  0.9208 -2.9793  2.3008
  245MOL0     H33027   7.253   4.492   3.319  0.8106  0.2181  2.1994
  245MOL0     H33028   7.309   4.339   3.241 -2.6625 -2.9685  0.9820
  245MOL0     H33029   7.105   4.374   3.466  2.7609 -0.2292  1.4616
  245MOL0     H33030   7.140   4.217   3.393  4.5789  0.4975 -0.7519
  245MOL0     H33031   7.056   4.301   3.181  0.2546 -1.1482  0.5109
  245MOL0     H33032   7.052   4.458   3.239 -1.8735 -0.9051 -2.4090
  245MOL0     H33033   6.825   4.354   3.216  1.4674 -0.5771 -0.8957
  245MOL0     H33034   6.861   4.407   3.382 -0.9482  1.2273 -1.8185
  245MOL0     H33035   6.809   3.963   3.265 -1.2389 -2.6431  1.7980
  245MOL0     H33036   6.475   3.795   3.289 -1.3519 -2.4718 -3.3401
  245MOL0     H33037   6.542   3.771   3.136  0.1866 -0.6593 -0.0987
  245MOL0     H33038   6.648   3.751   3.278 -0.5891 -0.6387  0.0160
  245MOL0     H33039   6.080   3.884   3.298 -1.0959 -2.0300 -0.3979
  245MOL0     H33040   5.849   3.873   3.226 -1.4810  0.8280  2.0578
  245MOL0     H33041   5.560   4.098   2.965  0.6880 -0.9778 -1.7774
  245MOL0     H33042   5.694   4.206   2.939 -1.7112  1.9494 -2.5672
  245MOL0     H33043   5.812   4.032   2.811 -0.1096 -0.7993  0.1917
  245MOL0     H33044   5.694   3.915   2.845 -0.9236  0.6843  1.0038
  245MOL0     H33045   5.638   4.184   2.713  0.6434  0.3247 -0.6268
  245MOL0     H33046   5.513   4.048   2.727  1.0671 -5.4772 -0.8103
  245MOL0     H33047   5.773   4.012   2.591  0.2359  1.7624  0.6327
  245MOL0     H33048   5.621   3.916   2.579  2.2021 -1.3394  0.7209
  245MOL0     H33049   5.685   4.055   2.368 -1.5012  1.8938 -1.8544
  245MOL0     H33050   5.643   4.204   2.463 -3.3490  0.7054 -0.5174
  245MOL0     H33051   5.419   4.099   2.518 -0.0590 -0.5133 -0.1469
  245MOL0     H33052   5.447   4.172   2.376  2.3980  2.2959  2.9722
  245MOL0     H33053   5.430   3.876   2.431  2.3238  1.7953  2.7198
  245MOL0     H33054   5.510   3.938   2.286  1.0912 -1.5815  0.8437
  245MOL0     H33055   5.283   4.047   2.218  1.4386 -1.0251 -0.7493
  245MOL0     H33056   5.212   4.018   2.384 -1.3868  0.0910 -1.4845
  245MOL0     H33057   5.880   4.256   3.023 -0.7915 -0.4991  0.5639
  245MOL0     H33058   6.121   4.266   3.131  0.2476 -0.2984  2.5586
  245MOL0     H33059   6.410   4.251   3.321 -1.7858 -0.0749 -3.2820
  245MOL0     H33060   6.619   4.316   3.400  1.8192 -1.1651  1.4885
  245MOL0     H33061   8.296   3.574   3.454  1.9431  2.9544  0.3313
  245MOL0     H33062   8.485   3.473   3.552 -2.3589  0.5288  0.4720
  245MOL0     H33063   8.984   3.153   3.482  1.3875  0.0795 -0.7912
  245MOL0     H33064   9.229   3.187   3.550  0.1104 -0.7323  0.1773
  245MOL0     H33065   9.365   3.581   3.602 -1.4148  1.1966 -3.9048
  245MOL0     H33066   9.502   3.490   3.645 -1.2949 -0.2712  0.9518
  245MOL0     H33067   9.419   3.579   3.370 -0.6949 -1.2969 -0.8420
  245MOL0     H33068   9.551   3.458   3.380 -0.2017  0.4146 -0.0454
  245MOL0     H33069   9.645   3.682   3.356  0.3840  2.3017  0.8664
  245MOL0     H33070   9.696   3.591   3.504 -2.0233 -4.1323  0.2388
  245MOL0     H33071   9.681   3.817   3.560 -0.2392  0.8624  1.0810
  245MOL0     H33072   9.548   3.737   3.640  0.5506 -0.0844  0.1228
  245MOL0     H33073   9.334   3.986   3.369 -0.7521 -0.7275 -0.2974
  245MOL0     H33074   9.181   3.607   3.454 -1.3433  1.1956  2.4574
  245MOL0     H33075   8.964   3.574   3.416  0.7504  0.6966  0.2526
  246MOL0     O33076   8.948   5.844   9.513  0.1808 -0.6073 -0.1780
  246MOL0     C33077   8.964   5.960   9.538 -0.5804  0.4601 -1.3479
  246MOL0     O33078   8.874   6.067   9.519  0.0663 -0.4080  0.0591
  246MOL0     C33079   8.746   6.060   9.457 -0.7651  0.3537 -0.5405
  246MOL0     C33080   8.662   6.180   9.466 -0.6379  0.6567 -0.3595
  246MOL0     C33081   8.536   6.192   9.399 -0.4424 -0.9929  0.4293
  246MOL0     C33082   8.494   6.077   9.325  0.4403  0.4957  0.8405
  246MOL0     O33083   8.374   6.076   9.258 -0.3934 -0.4418  0.3757
  246MOL0     C33084   8.305   6.201   9.252 -0.4122  0.0378 -1.0865
  246MOL0     C33085   8.166   6.216   9.171 -0.2846 -0.0977  0.5526
  246MOL0     C33086   8.179   6.152   9.031  0.5882  0.3780 -0.0830
  246MOL0     C33087   8.044   6.177   8.959  0.9126  0.1072  0.0815
  246MOL0     C33088   8.049   6.099   8.827 -0.1598 -0.3093  0.0017
  246MOL0     C33089   7.908   6.105   8.751  0.2328  0.0834  0.0644
  246MOL0     C33090   7.785   6.038   8.821 -0.0558  0.3927 -0.8745
  246MOL0     C33091   7.656   6.068   8.741  0.0516  0.0374  0.1861
  246MOL0     N33092   7.538   6.006   8.796  0.5250 -0.1467  0.3373
  246MOL0     C33093   7.453   6.072   8.879 -0.1975  0.0442 -0.3650
  246MOL0     C33094   7.352   5.983   8.915 -0.0457  0.3384  0.3903
  246MOL0     C33095   7.234   6.000   8.990 -0.1924 -1.5777  0.0277
  246MOL0     C33096   7.229   5.914   9.110  0.2180 -0.0686 -0.4188
  246MOL0     C33097   7.175   5.978   9.239 -0.7339  1.7309  1.0455
  246MOL0     C33098   7.045   6.061   9.246  0.2378 -0.6175 -0.0090
  246MOL0     O33099   7.011   6.112   9.378 -0.1493  0.2560  0.0348
  246MOL0     C33100   6.891   6.173   9.413 -0.0342  0.3082  0.2492
  246MOL0     C33101   6.851   6.221   9.540 -0.0393  0.1077 -0.6983
  246MOL0     C33102   6.738   6.295   9.568  0.2499 -0.3715 -0.9289
  246MOL0     C33103   6.709   6.315   9.713 -0.1345 -0.2017  0.3349
  246MOL0     C33104   6.653   6.330   9.460  0.4465  0.4667 -0.3102
  246MOL0     C33105   6.521   6.388   9.474  0.3970  0.7882  0.8555
  246MOL0     O33106   6.434   6.407   9.367  0.2880  1.0747  0.0701
  246MOL0     C33107   6.305   6.443   9.389 -0.4371 -0.1108 -0.2785
  246MOL0     C33108   6.265   6.579   9.396 -0.7055 -0.0442 -0.1507
  246MOL0     C33109   6.129   6.619   9.417 -0.2806  0.1191 -0.2593
  246MOL0     C33110   6.035   6.512   9.412  0.4076  0.2079  0.2616
  246MOL0     O33111   5.900   6.541   9.428  0.2426  0.5163 -0.6491
  246MOL0     C33112   5.855   6.654   9.356  1.1612 -0.4764 -0.2120
  246MOL0     C33113   5.703   6.648   9.373  0.3202  0.3118  0.8135
  246MOL0     C33114   5.657   6.635   9.522 -0.4275  0.4697  0.1386
  246MOL0     C33115   5.511   6.584   9.541  0.1679 -0.4259 -0.3627
  246MOL0     C33116   5.445   6.586   9.680 -0.2668  0.2447  0.6485
  246MOL0     C33117   5.511   6.482   9.775  0.6143  0.5070 -0.5902
  246MOL0     C33118   5.462   6.471   9.917  0.1522 -0.0419  0.4858
  246MOL0     C33119   5.311   6.429   9.911 -0.2174  0.8303  0.0464
  246MOL0    Cl33120   5.274   6.286   9.821  0.2298  0.2908 -0.2069
  246MOL0     C33121   6.075   6.383   9.393  0.6738 -0.1466  0.1853
  246MOL0     C33122   6.204   6.340   9.379 -0.4604 -0.1456  0.0006
  246MOL0     O33123   6.497   6.439   9.577  0.4173  0.7486  0.0441
  246MOL0     C33124   6.692   6.291   9.333 -0.4662  0.6061  0.5080
  246MOL0     C33125   6.808   6.212   9.310 -0.2678  0.3642  0.5755
  246MOL0     N33126   7.388   5.861   8.853  0.6943  0.6336  0.4166
  246MOL0     N33127   7.493   5.883   8.783 -0.6280  1.2721  0.0024
  246MOL0     C33128   8.576   5.967   9.311  0.0880 -0.3829  0.5908
  246MOL0     C33129   8.704   5.958   9.374  0.2151 -0.7902 -0.1516
  246MOL0     C33130   9.101   5.997   9.591 -0.0597  0.5816 -0.4872
  246MOL0     C33131   9.199   5.894   9.598 -0.1858 -1.1853  0.0827
  246MOL0     C33132   9.317   5.913   9.674 -0.1023 -0.7725  0.4394
  246MOL0     C33133   9.351   6.037   9.731  0.0346  0.4861  0.0929
  246MOL0     O33134   9.464   6.062   9.803 -0.0436 -0.1430  0.1099
  246MOL0     C33135   9.461   6.178   9.893 -0.8442  0.1697 -0.4021
  246MOL0     C33136   9.581   6.165   9.992 -0.8296  0.3920  0.0030
  246MOL0     C33137   9.540   6.253  10.113  0.4817 -1.0400  0.4519
  246MOL0     C33138   9.580   6.405  10.081  0.7265  0.4605 -0.2516
  246MOL0     C33139   9.455   6.492  10.079 -0.5451  0.4243 -0.9356
  246MOL0     C33140   9.351   6.542  10.086  0.0903 -1.0245 -0.6849
  246MOL0     C33141   9.264   6.145   9.697  0.5115 -0.2776 -0.1513
  246MOL0     C33142   9.142   6.127   9.625  0.3734  0.5881 -0.2359
  246MOL0     H33143   8.705   6.255   9.532  1.4917 -1.9359  1.4244
  246MOL0     H33144   8.477   6.282   9.415  0.7556  0.1900 -1.3775
  246MOL0     H33145   8.283   6.239   9.352 -0.6368  2.7941 -2.0948
  246MOL0     H33146   8.378   6.270   9.208  2.1192  0.2636  2.9532
  246MOL0     H33147   8.087   6.159   9.220 -1.1164 -1.4014 -2.0613
  246MOL0     H33148   8.147   6.324   9.164  0.6749  0.0704  0.4125
  246MOL0     H33149   8.258   6.195   8.968  1.9261  1.4476  2.2136
  246MOL0     H33150   8.196   6.044   9.035  0.2263  0.3649  1.5549
  246MOL0     H33151   7.959   6.136   9.016 -0.1275  0.0857 -1.4421
  246MOL0     H33152   8.023   6.282   8.936  0.5247  0.0746  0.2731
  246MOL0     H33153   8.125   6.152   8.769 -1.8862 -0.2627 -2.3739
  246MOL0     H33154   8.091   6.001   8.851 -0.4361 -0.3231  0.4250
  246MOL0     H33155   7.878   6.209   8.738 -1.8575 -0.1991  2.0084
  246MOL0     H33156   7.929   6.064   8.651  0.5625  0.9555 -0.2298
  246MOL0     H33157   7.799   5.930   8.828  0.8198  0.4303 -1.7737
  246MOL0     H33158   7.775   6.088   8.917 -1.1414 -2.7967  0.8262
  246MOL0     H33159   7.670   6.024   8.641  0.7010 -0.4228  0.4736
  246MOL0     H33160   7.650   6.177   8.735  1.8427  0.1685  0.1794
  246MOL0     H33161   7.463   6.167   8.930 -1.4324  0.9064 -1.6542
  246MOL0     H33162   7.236   6.105   9.023 -0.4405 -2.2132  2.2088
  246MOL0     H33163   7.153   5.989   8.918  0.2500  0.9289 -0.9767
  246MOL0     H33164   7.330   5.881   9.135  0.8727  1.1219 -1.3824
  246MOL0     H33165   7.171   5.821   9.113 -0.8499  0.5994  0.7227
  246MOL0     H33166   7.258   6.037   9.279  1.2042 -1.7195  2.5726
  246MOL0     H33167   7.163   5.892   9.305 -1.5870 -0.4571 -1.7978
  246MOL0     H33168   6.963   6.000   9.206  0.0143 -0.1627 -0.2635
  246MOL0     H33169   7.059   6.151   9.185  1.2580  0.6691  2.0000
  246MOL0     H33170   6.917   6.196   9.622 -1.2157  1.2339  0.6356
  246MOL0     H33171   6.614   6.270   9.744  0.5120 -3.0594 -1.3892
  246MOL0     H33172   6.780   6.265   9.779 -0.4943 -0.4540  0.5299
  246MOL0     H33173   6.707   6.423   9.730  1.3174 -0.1486  0.3373
  246MOL0     H33174   6.350   6.646   9.386  2.2118 -3.6106 -1.5092
  246MOL0     H33175   6.109   6.725   9.424  2.7346  0.7842 -0.4120
  246MOL0     H33176   5.891   6.747   9.402 -0.3380 -0.8617  1.8522
  246MOL0     H33177   5.877   6.652   9.249 -0.1684  5.5481 -0.9854
  246MOL0     H33178   5.666   6.738   9.322  2.7667 -0.8489 -3.4872
  246MOL0     H33179   5.667   6.560   9.320 -0.7391  0.5141  1.1729
  246MOL0     H33180   5.663   6.733   9.571  0.1716 -0.9190  3.1115
  246MOL0     H33181   5.723   6.565   9.575 -2.8476 -0.2835  2.3220
  246MOL0     H33182   5.460   6.656   9.476  0.9737  1.9944  1.5528
  246MOL0     H33183   5.497   6.484   9.498 -2.9731 -0.8137  1.2982
  246MOL0     H33184   5.341   6.556   9.663  0.1606 -1.3296  0.6926
  246MOL0     H33185   5.444   6.683   9.731  0.8384  0.3611  0.4617
  246MOL0     H33186   5.512   6.385   9.725  0.0480  0.3130 -0.2291
  246MOL0     H33187   5.615   6.511   9.795  0.7535 -0.2073 -0.2594
  246MOL0     H33188   5.462   6.565   9.974 -3.8826 -1.6631  3.6462
  246MOL0     H33189   5.522   6.399   9.973  2.0596  2.9519  2.5895
  246MOL0     H33190   5.249   6.510   9.874 -0.8656  0.2767 -0.1088
  246MOL0     H33191   5.277   6.403  10.012 -0.6385  1.9541  0.2023
  246MOL0     H33192   5.994   6.311   9.398 -1.4640  2.1581  1.6932
  246MOL0     H33193   6.233   6.235   9.376 -2.5407 -0.7445 -1.3025
  246MOL0     H33194   6.622   6.318   9.255 -0.3522  4.9931  1.6417
  246MOL0     H33195   6.822   6.171   9.210 -0.6972 -1.4000  1.1943
  246MOL0     H33196   8.551   5.873   9.263 -0.7070 -0.6920  1.5821
  246MOL0     H33197   8.747   5.858   9.370 -0.6581 -1.1252 -2.3700
  246MOL0     H33198   9.173   5.793   9.567 -1.1928 -0.8226 -0.2910
  246MOL0     H33199   9.387   5.830   9.682  0.6755 -0.1616  0.1662
  246MOL0     H33200   9.460   6.271   9.836 -0.5423  0.9217  0.8025
  246MOL0     H33201   9.366   6.170   9.947 -2.2578  0.1239 -2.7629
  246MOL0     H33202   9.673   6.186   9.937 -0.7444 -3.2479 -1.5694
  246MOL0     H33203   9.599   6.061  10.021  1.6637 -1.2219 -5.7408
  246MOL0     H33204   9.593   6.215  10.201  0.9361 -1.6101 -0.0589
  246MOL0     H33205   9.434   6.241  10.136 -0.0425  1.8732 -0.1124
  246MOL0     H33206   9.632   6.408   9.984  0.7773  0.0115 -0.2413
  246MOL0     H33207   9.644   6.449  10.158  0.2755  0.7294 -0.0270
  246MOL0     H33208   9.256   6.593  10.088  1.3858  1.6834 -2.5747
  246MOL0     H33209   9.279   6.245   9.734 -4.7213  0.3514  1.0893
  246MOL0     H33210   9.069   6.204   9.605  1.1647  1.1990 -0.8531
  247MOL0     O33211   0.579   7.742   3.652 -0.0790  0.0662 -0.1787
  247MOL0     C33212   0.636   7.743   3.545  0.2164  0.2855  0.1712
  247MOL0     O33213   0.639   7.843   3.452 -0.5030  0.5775  0.3326
  247MOL0     C33214   0.562   7.949   3.485  0.0324  0.4818  0.9479
  247MOL0     C33215   0.617   8.053   3.559  0.0706  0.3766 -1.1062
  247MOL0     C33216   0.531   8.145   3.616  0.3268 -0.4701  0.3420
  247MOL0     C33217   0.397   8.146   3.595  0.2193  0.0411  0.0517
  247MOL0     O33218   0.329   8.248   3.660  0.3684 -0.0947 -0.0944
  247MOL0     C33219   0.209   8.273   3.599 -0.1324 -0.0125 -0.9812
  247MOL0     C33220   0.082   8.236   3.677 -0.9059  0.0648 -0.6781
  247MOL0     C33221   0.080   8.312   3.819 -1.1346 -0.9380 -0.6111
  247MOL0     C33222  -0.032   8.258   3.911  0.3934  0.4418 -0.3270
  247MOL0     C33223  -0.025   8.338   4.046 -1.0347 -0.2298  0.0891
  247MOL0     C33224  -0.142   8.296   4.138  0.4762 -0.6307 -0.1216
  247MOL0     C33225  -0.134   8.336   4.280  0.5110  0.6329  0.6628
  247MOL0     C33226  -0.010   8.278   4.354 -1.3554  0.6152 -0.3876
  247MOL0     N33227  -0.028   8.288   4.496 -0.7694 -1.0304 -0.0745
  247MOL0     C33228  -0.118   8.222   4.569  0.4964  0.1368 -0.0894
  247MOL0     C33229  -0.117   8.283   4.698 -0.4974 -0.0429  1.0919
  247MOL0     C33230  -0.185   8.255   4.833 -0.0596  1.0644  1.6400
  247MOL0     C33231  -0.207   8.378   4.916 -0.2153 -0.6700  0.3639
  247MOL0     C33232  -0.317   8.480   4.863 -0.0569 -0.1448  0.1078
  247MOL0     C33233  -0.341   8.592   4.958 -0.1584  0.0601 -0.0268
  247MOL0     O33234  -0.389   8.556   5.084 -0.5131  0.2655  0.0840
  247MOL0     C33235  -0.503   8.615   5.132 -0.1824  0.3412  0.2282
  247MOL0     C33236  -0.574   8.532   5.219 -0.5691  0.1563  0.0487
  247MOL0     C33237  -0.677   8.590   5.290  0.5065  0.1015 -0.0692
  247MOL0     C33238  -0.753   8.506   5.386 -0.4579  0.3246  0.8938
  247MOL0     C33239  -0.720   8.722   5.260 -0.1069 -0.2460  0.4993
  247MOL0     C33240  -0.834   8.789   5.335 -0.5368  1.0318 -1.1353
  247MOL0     O33241  -0.883   8.882   5.257 -0.4644  0.0630 -0.1313
  247MOL0     C33242  -0.998   8.947   5.294  0.4278 -0.0834 -0.3297
  247MOL0     C33243  -0.981   9.067   5.357  0.3783 -0.3408  0.0908
  247MOL0     C33244  -1.100   9.135   5.407 -0.7390 -0.3880 -0.1750
  247MOL0     C33245  -1.232   9.086   5.394  0.1261  0.3817 -0.5585
  247MOL0     O33246  -1.337   9.167   5.441  0.4904  0.0156  0.0284
  247MOL0     C33247  -1.467   9.127   5.406 -0.4924 -0.2265  0.1428
  247MOL0     C33248  -1.562   9.218   5.485 -0.0237 -0.1756 -0.2502
  247MOL0     C33249  -1.545   9.366   5.446  0.5346 -0.4909  0.1033
  247MOL0     C33250  -1.631   9.473   5.515 -0.4987 -0.2459 -0.3378
  247MOL0     C33251  -1.560   9.609   5.520  0.3473  0.9234 -0.6478
  247MOL0     C33252  -1.653   9.705   5.589  0.1268  1.0943 -0.1120
  247MOL0     C33253  -1.567   9.821   5.631 -0.4990 -0.0284  0.0648
  247MOL0     C33254  -1.661   9.931   5.675 -0.7014  0.8941  0.1397
  247MOL0    Cl33255  -1.551  10.074   5.714 -0.3439  0.0883  0.1015
  247MOL0     C33256  -1.241   8.965   5.326 -0.0094 -0.3423 -1.0896
  247MOL0     C33257  -1.131   8.888   5.280 -0.1548 -0.1924 -0.0316
  247MOL0     O33258  -0.875   8.759   5.445  0.7082 -0.0849  0.1648
  247MOL0     C33259  -0.641   8.802   5.173  0.6602  0.5117 -0.7795
  247MOL0     C33260  -0.530   8.751   5.108 -0.5536 -1.0313 -1.2856
  247MOL0     N33261  -0.023   8.390   4.684  0.2135 -0.1371 -0.0382
  247MOL0     N33262   0.026   8.391   4.566 -0.3320 -0.6720  1.1070
  247MOL0     C33263   0.343   8.043   3.515  0.4412  0.2721 -0.8017
  247MOL0     C33264   0.425   7.944   3.471  0.6664 -0.8921  0.1213
  247MOL0     C33265   0.715   7.621   3.510 -0.0986 -0.3921 -0.2907
  247MOL0     C33266   0.731   7.515   3.595 -0.0284 -1.1402 -1.0662
  247MOL0     C33267   0.792   7.392   3.548  0.2183 -0.1561  0.4284
  247MOL0     C33268   0.834   7.374   3.416 -0.4272 -0.3634 -0.3661
  247MOL0     O33269   0.889   7.248   3.387  0.1573  0.0249  0.9707
  247MOL0     C33270   0.976   7.235   3.268  0.2949  1.0431 -0.0367
  247MOL0     C33271   1.122   7.285   3.284  0.3962  0.1792  0.5717
  247MOL0     C33272   1.184   7.264   3.429 -0.2284 -0.3549  0.0773
  247MOL0     C33273   1.333   7.313   3.421 -2.0000  0.0454 -0.8930
  247MOL0     C33274   1.407   7.287   3.543  0.7175 -0.2680 -0.4802
  247MOL0     C33275   1.488   7.255   3.629 -0.0111  0.0750  0.1984
  247MOL0     C33276   0.819   7.481   3.333 -0.5610 -0.1445 -0.5565
  247MOL0     C33277   0.755   7.600   3.374  0.1358 -0.1094  0.6812
  247MOL0     H33278   0.721   8.058   3.589 -0.4669  0.5942  0.8303
  247MOL0     H33279   0.561   8.225   3.684  0.9185  0.3489 -0.8409
  247MOL0     H33280   0.211   8.382   3.591 -1.7375  0.1395  0.2174
  247MOL0     H33281   0.203   8.236   3.496  1.1049 -1.5230 -0.5566
  247MOL0     H33282  -0.002   8.262   3.613 -1.6364 -1.3694 -0.3483
  247MOL0     H33283   0.082   8.127   3.688  1.6897  0.0781  0.1783
  247MOL0     H33284   0.173   8.305   3.875 -0.4372 -0.6138 -1.7045
  247MOL0     H33285   0.067   8.420   3.806 -0.2226 -0.1550  3.4844
  247MOL0     H33286  -0.131   8.268   3.867 -0.3434 -0.9406  0.9368
  247MOL0     H33287  -0.019   8.152   3.934 -3.6322  0.0579  0.9504
  247MOL0     H33288   0.070   8.321   4.098  0.9027  0.8418 -2.8462
  247MOL0     H33289  -0.022   8.447   4.034 -0.2540 -0.1453  0.9231
  247MOL0     H33290  -0.230   8.346   4.097 -0.8420 -1.1375  1.9577
  247MOL0     H33291  -0.145   8.188   4.123  0.0180 -0.2975 -3.0627
  247MOL0     H33292  -0.132   8.445   4.284  2.7398  0.6549  0.6052
  247MOL0     H33293  -0.226   8.312   4.333  0.8614 -2.4907  0.0459
  247MOL0     H33294   0.091   8.308   4.326 -0.9965  0.5074  0.7189
  247MOL0     H33295  -0.011   8.168   4.356  1.6821  0.5074 -0.5118
  247MOL0     H33296  -0.183   8.147   4.525 -1.8289  2.2525 -0.5280
  247MOL0     H33297  -0.284   8.212   4.818  0.1248  0.9344  0.7086
  247MOL0     H33298  -0.116   8.185   4.880  2.3532  2.5912  0.5752
  247MOL0     H33299  -0.115   8.436   4.929 -1.0878  0.8478  0.1049
  247MOL0     H33300  -0.237   8.343   5.015 -1.8406 -2.7637 -0.7905
  247MOL0     H33301  -0.412   8.430   4.841 -0.9046  2.0717 -1.6649
  247MOL0     H33302  -0.281   8.522   4.769 -0.6948 -0.1298 -0.1347
  247MOL0     H33303  -0.406   8.663   4.906  0.7512  0.9749  0.0425
  247MOL0     H33304  -0.245   8.644   4.967 -0.4508  0.2846  2.8972
  247MOL0     H33305  -0.544   8.429   5.236  1.7847  1.0633  1.9635
  247MOL0     H33306  -0.742   8.551   5.485 -2.1730 -0.3360  1.4246
  247MOL0     H33307  -0.859   8.525   5.368  0.0472  4.3109  1.2201
  247MOL0     H33308  -0.714   8.404   5.382  0.0577  0.5497 -2.2422
  247MOL0     H33309  -0.881   9.109   5.359 -0.2077  1.2044 -1.1822
  247MOL0     H33310  -1.100   9.238   5.441  1.4411 -1.1250  2.4788
  247MOL0     H33311  -1.479   9.149   5.299 -0.5618  2.6424  0.6454
  247MOL0     H33312  -1.485   9.022   5.430 -0.8999 -0.0229  0.7425
  247MOL0     H33313  -1.666   9.199   5.457 -0.2022 -0.7011  0.7479
  247MOL0     H33314  -1.550   9.199   5.591  2.9976  0.0568 -0.4632
  247MOL0     H33315  -1.550   9.380   5.338  1.0625 -0.6518  0.0531
  247MOL0     H33316  -1.441   9.387   5.473  1.4528 -3.0922 -0.9978
  247MOL0     H33317  -1.728   9.469   5.464  0.2587 -0.9315 -1.7729
  247MOL0     H33318  -1.641   9.440   5.619 -1.6819 -0.2726 -0.4453
  247MOL0     H33319  -1.551   9.655   5.422  1.2943 -0.7782 -1.4030
  247MOL0     H33320  -1.461   9.608   5.567 -0.0489  2.4570  0.2783
  247MOL0     H33321  -1.740   9.732   5.528 -0.3046 -0.1174 -0.0616
  247MOL0     H33322  -1.699   9.657   5.677 -0.2354  1.8951  0.1473
  247MOL0     H33323  -1.513   9.854   5.541  2.3890 -5.6400 -0.6806
  247MOL0     H33324  -1.497   9.794   5.711 -0.2573  0.2673 -0.0434
  247MOL0     H33325  -1.729   9.894   5.752  2.0478 -0.3887  2.1246
  247MOL0     H33326  -1.731   9.948   5.593  1.5358 -0.6807 -2.2682
  247MOL0     H33327  -1.331   8.906   5.307  0.4769 -1.0087 -1.3765
  247MOL0     H33328  -1.146   8.795   5.226  2.1106 -1.0617  0.7230
  247MOL0     H33329  -0.666   8.908   5.172  1.0803  0.6304 -2.5551
  247MOL0     H33330  -0.466   8.824   5.059  1.2202  0.1738  2.4991
  247MOL0     H33331   0.237   8.031   3.496  0.4902 -3.2938  0.4086
  247MOL0     H33332   0.389   7.878   3.393  1.1598  0.9902 -1.7972
  247MOL0     H33333   0.682   7.517   3.692  2.1151  2.7784  0.1754
  247MOL0     H33334   0.804   7.306   3.613 -1.2863 -0.7653 -0.0541
  247MOL0     H33335   0.990   7.126   3.262 -1.2798  0.7334  1.2936
  247MOL0     H33336   0.921   7.271   3.181 -0.4091  1.9065  0.7411
  247MOL0     H33337   1.113   7.393   3.271  0.2981 -0.0517 -1.5088
  247MOL0     H33338   1.193   7.252   3.209  0.3761 -0.6165  0.8964
  247MOL0     H33339   1.179   7.164   3.474 -1.3822 -0.6470 -0.6544
  247MOL0     H33340   1.127   7.326   3.498 -0.5748  0.2691 -0.7636
  247MOL0     H33341   1.346   7.420   3.406  3.3833 -0.0151  1.2523
  247MOL0     H33342   1.376   7.245   3.347 -0.4995 -1.3571  1.1574
  247MOL0     H33343   1.557   7.224   3.705 -1.6201 -4.1842  0.1799
  247MOL0     H33344   0.832   7.459   3.228 -1.1319  0.1237 -0.6906
  247MOL0     H33345   0.738   7.671   3.293  5.0904 -2.9983 -3.5430
  248MOL0     O33346   1.201   6.760   9.435 -0.6121 -0.8741  0.2986
  248MOL0     C33347   1.264   6.793   9.539 -0.0532  0.8040 -0.0880
  248MOL0     O33348   1.343   6.708   9.612 -0.9200 -0.1270 -0.3025
  248MOL0     C33349   1.377   6.582   9.563 -0.3549  0.5699 -0.3369
  248MOL0     C33350   1.350   6.467   9.635  0.5791  0.6441 -0.8799
  248MOL0     C33351   1.369   6.341   9.579  0.5652  0.3750  0.3817
  248MOL0     C33352   1.409   6.326   9.446 -0.1603 -1.1501  0.1927
  248MOL0     O33353   1.418   6.199   9.390 -0.2988 -0.1657 -0.9087
  248MOL0     C33354   1.361   6.185   9.266 -0.2095 -0.0420 -0.2580
  248MOL0     C33355   1.339   6.031   9.248 -0.3845  0.3740 -1.0304
  248MOL0     C33356   1.268   5.953   9.363  0.9898 -0.0557  0.3255
  248MOL0     C33357   1.161   6.048   9.413 -0.6639  0.3651 -0.3611
  248MOL0     C33358   1.051   5.970   9.487  0.0861  0.2046  0.5108
  248MOL0     C33359   0.985   6.053   9.609 -0.1551  0.7431 -0.6568
  248MOL0     C33360   0.877   5.960   9.663  0.3445 -0.0268 -0.4522
  248MOL0     C33361   0.810   6.010   9.797 -0.5490 -0.3843 -0.2287
  248MOL0     N33362   0.896   5.977   9.911 -1.2151 -0.0014 -0.3072
  248MOL0     C33363   1.025   6.027   9.940 -0.0280  0.8719 -0.2475
  248MOL0     C33364   1.059   5.969  10.059  1.5390 -0.1926 -0.1366
  248MOL0     C33365   1.181   5.987  10.134  0.5510 -0.4832  0.1933
  248MOL0     C33366   1.266   5.861  10.123  0.1001 -1.1418  0.3950
  248MOL0     C33367   1.407   5.896  10.184  0.0979  0.2952  0.7557
  248MOL0     C33368   1.494   5.779  10.146 -1.0316 -0.2751 -0.3961
  248MOL0     O33369   1.629   5.813  10.176 -0.2771 -0.4009 -0.1288
  248MOL0     C33370   1.670   5.799  10.306  0.2202  0.9465 -0.0005
  248MOL0     C33371   1.800   5.837  10.329  0.0946 -0.7451  1.4516
  248MOL0     C33372   1.871   5.820  10.446 -0.6250 -0.0276 -0.0823
  248MOL0     C33373   2.009   5.893  10.451 -0.0429  0.0664 -1.0124
  248MOL0     C33374   1.801   5.758  10.555  0.4992  0.7174 -0.3651
  248MOL0     C33375   1.860   5.726  10.686  0.2921 -0.1910 -0.5042
  248MOL0     O33376   1.993   5.690  10.683 -0.1827  0.1297 -0.8824
  248MOL0     C33377   2.063   5.665  10.800  0.0320  0.7700 -0.5599
  248MOL0     C33378   2.192   5.716  10.825 -0.0861  0.2606  0.1856
  248MOL0     C33379   2.262   5.677  10.938 -0.3699  0.0964  0.3789
  248MOL0     C33380   2.222   5.578  11.021  0.4068 -0.7138  0.1225
  248MOL0     O33381   2.298   5.542  11.125 -0.5958 -0.2002  0.3315
  248MOL0     C33382   2.434   5.586  11.146 -0.1680  0.0675  0.3927
  248MOL0     C33383   2.499   5.494  11.241 -0.1026 -0.2834  0.5530
  248MOL0     C33384   2.651   5.502  11.249 -0.1163  0.7730  0.1217
  248MOL0     C33385   2.712   5.377  11.168 -0.1241 -0.8476 -0.7930
  248MOL0     C33386   2.701   5.402  11.013 -1.3752  0.4054  0.2793
  248MOL0     C33387   2.769   5.289  10.933  1.0758  0.1520  0.2941
  248MOL0     C33388   2.711   5.263  10.796  0.1639 -0.1383 -0.8598
  248MOL0     C33389   2.757   5.122  10.755 -0.8294  0.2685  0.4205
  248MOL0    Cl33390   2.685   5.099  10.599  0.0986  0.2174 -0.1862
  248MOL0     C33391   2.092   5.526  10.998  0.4489  0.5517  0.0817
  248MOL0     C33392   2.015   5.573  10.891 -0.3924  0.8133  0.4754
  248MOL0     O33393   1.794   5.737  10.787 -0.1109 -0.2296 -0.9902
  248MOL0     C33394   1.665   5.726  10.544 -0.5119 -0.4029 -0.0822
  248MOL0     C33395   1.603   5.731  10.411 -0.4588 -0.4435 -0.8373
  248MOL0     N33396   0.954   5.893  10.107  0.7261  0.4978  0.7509
  248MOL0     N33397   0.861   5.900  10.012 -0.1729 -0.2843 -0.1064
  248MOL0     C33398   1.431   6.441   9.364 -0.0708 -0.8105 -0.7024
  248MOL0     C33399   1.426   6.568   9.433 -0.9367  0.5125 -0.0790
  248MOL0     C33400   1.262   6.937   9.580 -0.2581  0.5266  0.0774
  248MOL0     C33401   1.322   6.962   9.701 -0.1295 -0.2138 -0.4003
  248MOL0     C33402   1.327   7.092   9.749  0.9030 -0.2675  0.0827
  248MOL0     C33403   1.283   7.201   9.677  0.0530 -0.1895 -0.1842
  248MOL0     O33404   1.298   7.325   9.735  0.6996 -0.1864  0.3968
  248MOL0     C33405   1.257   7.445   9.669  0.2313 -0.5610  0.5699
  248MOL0     C33406   1.109   7.472   9.660  0.4126  0.0427 -0.4573
  248MOL0     C33407   1.054   7.497   9.798 -0.3746  0.7352 -0.2762
  248MOL0     C33408   0.896   7.528   9.781 -1.2802 -0.4937 -0.3559
  248MOL0     C33409   0.843   7.542   9.919  0.3272  0.0233  0.3135
  248MOL0     C33410   0.799   7.557  10.030 -0.6044 -0.1499 -0.2511
  248MOL0     C33411   1.222   7.179   9.554 -0.4434 -0.1764 -0.4079
  248MOL0     C33412   1.209   7.053   9.504 -0.9400  0.3472 -0.5416
  248MOL0     H33413   1.327   6.479   9.740  1.0281 -1.7261 -0.4447
  248MOL0     H33414   1.351   6.250   9.635 -0.8206 -0.7123 -1.6657
  248MOL0     H33415   1.261   6.230   9.263 -2.1426 -3.9827 -1.2281
  248MOL0     H33416   1.421   6.211   9.178  0.3163 -1.9320 -0.4886
  248MOL0     H33417   1.277   6.005   9.162 -2.3694  0.5945  0.2600
  248MOL0     H33418   1.438   5.986   9.241  0.1173  0.9677  1.3444
  248MOL0     H33419   1.228   5.857   9.328 -0.2843  0.7211 -0.4247
  248MOL0     H33420   1.339   5.923   9.441  0.5686 -2.4713 -0.1481
  248MOL0     H33421   1.212   6.111   9.486 -0.5418  1.6185 -1.4957
  248MOL0     H33422   1.125   6.118   9.337 -0.5939  3.1737  2.0152
  248MOL0     H33423   0.976   5.938   9.414 -0.1910  3.5722 -0.8678
  248MOL0     H33424   1.104   5.880   9.522 -2.6392 -1.5584  0.3969
  248MOL0     H33425   1.064   6.068   9.683 -1.2347  0.5361  0.5771
  248MOL0     H33426   0.958   6.152   9.573  0.3850  1.0528 -0.2228
  248MOL0     H33427   0.800   5.958   9.585 -1.4370 -2.8201  1.2138
  248MOL0     H33428   0.926   5.863   9.664  1.5280  0.5166  2.1010
  248MOL0     H33429   0.714   5.962   9.818  0.6404 -2.1997  1.3818
  248MOL0     H33430   0.805   6.119   9.784 -1.2874 -0.6909 -3.5199
  248MOL0     H33431   1.081   6.110   9.899  0.6216  0.2825 -0.5921
  248MOL0     H33432   1.234   6.072  10.090 -2.2909  1.3500  0.0797
  248MOL0     H33433   1.158   6.013  10.238 -0.1399 -0.6477  0.0861
  248MOL0     H33434   1.279   5.855  10.015 -0.5955  2.6818 -0.0617
  248MOL0     H33435   1.217   5.773  10.165 -1.2819 -1.6545 -2.0632
  248MOL0     H33436   1.396   5.917  10.291  1.3716 -4.2805  2.0054
  248MOL0     H33437   1.457   5.980  10.136  1.4669 -0.7320  0.3262
  248MOL0     H33438   1.497   5.765  10.037  1.7857  3.3933 -0.9492
  248MOL0     H33439   1.446   5.687  10.182 -1.2897  0.1415  0.3388
  248MOL0     H33440   1.862   5.882  10.251  0.3994 -2.4282  0.6867
  248MOL0     H33441   2.089   5.828  10.488  1.5824  2.3268 -0.3483
  248MOL0     H33442   2.043   5.919  10.351  1.6392 -1.1890 -0.8063
  248MOL0     H33443   2.002   5.978  10.520 -1.1983 -1.1717  0.4689
  248MOL0     H33444   2.236   5.778  10.747 -1.1203 -0.3838 -0.9612
  248MOL0     H33445   2.358   5.724  10.953  0.0339 -0.5646 -0.0485
  248MOL0     H33446   2.483   5.585  11.049 -0.5278 -0.7295  0.2207
  248MOL0     H33447   2.441   5.689  11.184  0.7226  0.1229  0.0958
  248MOL0     H33448   2.453   5.511  11.339  0.7825  0.1469  0.9013
  248MOL0     H33449   2.465   5.393  11.220  0.4327 -1.3557  4.1622
  248MOL0     H33450   2.674   5.486  11.354 -1.1339 -2.4692 -0.0419
  248MOL0     H33451   2.692   5.599  11.218  3.5541 -0.0684  1.7834
  248MOL0     H33452   2.820   5.379  11.188 -0.1310  0.4460 -0.7934
  248MOL0     H33453   2.670   5.281  11.201 -1.5850 -0.3198 -1.0381
  248MOL0     H33454   2.739   5.500  10.983 -2.4493  0.1971 -1.9834
  248MOL0     H33455   2.595   5.403  10.987 -1.2497 -0.1956 -0.3068
  248MOL0     H33456   2.876   5.304  10.920  0.9328  1.2324  0.2401
  248MOL0     H33457   2.759   5.194  10.987  1.7717  0.1704  0.4657
  248MOL0     H33458   2.757   5.332  10.723 -0.7940  0.6127 -0.7754
  248MOL0     H33459   2.604   5.280  10.782  0.4327 -0.0248 -3.4223
  248MOL0     H33460   2.718   5.043  10.821  0.1372  1.1304  2.1005
  248MOL0     H33461   2.862   5.105  10.732 -1.6356 -3.7394 -1.1552
  248MOL0     H33462   2.075   5.444  11.066  3.5103 -0.0542  0.2247
  248MOL0     H33463   1.922   5.524  10.864 -0.2148  1.2243 -0.9555
  248MOL0     H33464   1.622   5.680  10.632  0.0602  0.1086  0.4743
  248MOL0     H33465   1.504   5.688  10.406 -1.4249  0.8321  3.3050
  248MOL0     H33466   1.464   6.435   9.261  1.6705 -0.2893 -0.2092
  248MOL0     H33467   1.458   6.648   9.367  3.0159 -0.5020  0.3496
  248MOL0     H33468   1.357   6.879   9.761 -1.0789  0.8308  1.6949
  248MOL0     H33469   1.376   7.108   9.844  3.3798 -0.7245 -1.0320
  248MOL0     H33470   1.310   7.532   9.710 -0.3009  1.6878 -3.0489
  248MOL0     H33471   1.294   7.437   9.566  0.5627  0.7812  0.5720
  248MOL0     H33472   1.062   7.382   9.620 -0.9491 -0.9435  2.9819
  248MOL0     H33473   1.095   7.559   9.596  2.5413  0.0811 -0.9620
  248MOL0     H33474   1.102   7.583   9.845  0.9655  1.4883 -2.8076
  248MOL0     H33475   1.083   7.411   9.858 -1.2572 -1.7618 -3.1452
  248MOL0     H33476   0.843   7.451   9.724 -3.3282  2.5037 -2.8941
  248MOL0     H33477   0.884   7.620   9.723 -0.8128  0.3072  0.7924
  248MOL0     H33478   0.759   7.552  10.129 -0.7418 -2.0176 -0.3549
  248MOL0     H33479   1.170   7.258   9.500 -1.5907 -1.5125 -1.3197
  248MOL0     H33480   1.175   7.031   9.403  1.0534 -2.5706 -0.6990
  249MOL0     O33481   5.077   9.528   3.704 -0.0366 -0.3707  0.2495
  249MOL0     C33482   5.063   9.572   3.592  0.1472  0.7562  0.8345
  249MOL0     O33483   5.014   9.695   3.562  0.2530 -0.0989  0.7395
  249MOL0     C33484   4.965   9.781   3.657  0.3070 -0.2129  0.8026
  249MOL0     C33485   5.036   9.898   3.664 -0.0036 -0.5729  0.9919
  249MOL0     C33486   5.001   9.996   3.760  0.1057 -0.6063 -0.5386
  249MOL0     C33487   4.883   9.993   3.829 -0.2322  0.3888 -0.2697
  249MOL0     O33488   4.849  10.095   3.913  0.0834  0.1019 -0.3675
  249MOL0     C33489   4.726  10.086   3.985  0.8136  0.1685 -0.4226
  249MOL0     C33490   4.726  10.193   4.098  0.1185  1.0323 -0.0270
  249MOL0     C33491   4.852  10.185   4.191 -0.4825  0.0304  0.1526
  249MOL0     C33492   4.877  10.318   4.256 -0.3801  0.1615  1.1015
  249MOL0     C33493   5.016  10.331   4.310  0.4921  0.4388  0.3496
  249MOL0     C33494   5.045  10.471   4.351  0.2137  0.3060 -0.0601
  249MOL0     C33495   4.975  10.499   4.483 -1.1059  0.4228 -0.3994
  249MOL0     C33496   4.991  10.649   4.509  0.3260 -0.2411 -0.2905
  249MOL0     N33497   5.099  10.693   4.601  0.3091 -0.1712 -0.0978
  249MOL0     C33498   5.092  10.740   4.729 -0.1011  0.2331 -0.9934
  249MOL0     C33499   5.214  10.779   4.764  0.5225 -0.3898  0.5865
  249MOL0     C33500   5.261  10.826   4.900  0.3584 -0.1758  0.2366
  249MOL0     C33501   5.379  10.743   4.945 -0.0974  0.8067  0.2475
  249MOL0     C33502   5.411  10.731   5.094 -0.7023 -0.6084 -0.5344
  249MOL0     C33503   5.413  10.874   5.171  0.8836 -0.2669 -0.1651
  249MOL0     O33504   5.278  10.901   5.235  0.2811  0.1544  0.2677
  249MOL0     C33505   5.254  11.039   5.268 -0.3019  0.3159 -0.4679
  249MOL0     C33506   5.356  11.126   5.310  0.6000  0.9509 -0.0433
  249MOL0     C33507   5.336  11.259   5.349  0.0987 -0.0775 -0.2871
  249MOL0     C33508   5.460  11.333   5.399  0.7837 -0.6123  0.4210
  249MOL0     C33509   5.196  11.303   5.351 -0.6598  0.5143  0.2385
  249MOL0     C33510   5.162  11.435   5.400  0.0216 -0.4534  1.1621
  249MOL0     O33511   5.037  11.436   5.463 -0.2320 -0.3075 -0.1075
  249MOL0     C33512   5.009  11.561   5.509  0.4215  0.9617 -0.2257
  249MOL0     C33513   5.037  11.593   5.642 -0.3209  0.0780  0.3638
  249MOL0     C33514   5.008  11.717   5.697 -0.1699 -0.2448  0.8367
  249MOL0     C33515   4.955  11.825   5.623 -1.4943  0.4161 -0.2307
  249MOL0     O33516   4.910  11.941   5.686  0.0191  0.1116 -0.1708
  249MOL0     C33517   4.978  11.992   5.802  0.4455  0.0533 -0.4001
  249MOL0     C33518   4.944  12.136   5.830 -0.5444 -0.1090  0.4102
  249MOL0     C33519   5.023  12.179   5.952 -0.5082 -0.2339 -0.9294
  249MOL0     C33520   5.001  12.323   6.000  0.3050 -0.5026  0.3227
  249MOL0     C33521   5.064  12.344   6.141 -0.1374  0.3754  0.4081
  249MOL0     C33522   5.225  12.335   6.139 -0.5889  0.2482  0.4642
  249MOL0     C33523   5.286  12.328   6.277  0.3820  0.7549 -0.1973
  249MOL0     C33524   5.429  12.290   6.274 -0.5058  0.7073 -0.2648
  249MOL0    Cl33525   5.450  12.117   6.221  0.2322  0.1216  0.0966
  249MOL0     C33526   4.932  11.800   5.484  1.3350 -0.1024  0.2445
  249MOL0     C33527   4.947  11.667   5.432 -0.0181  0.3774 -0.3634
  249MOL0     O33528   5.226  11.535   5.375  0.6955  0.4383 -0.2523
  249MOL0     C33529   5.096  11.215   5.307  0.7256 -0.2911 -0.4520
  249MOL0     C33530   5.123  11.080   5.279  0.3324 -0.0148  0.2930
  249MOL0     N33531   5.300  10.750   4.661  0.0147  0.7433 -0.1393
  249MOL0     N33532   5.230  10.695   4.574  0.0095  0.1287  0.3632
  249MOL0     C33533   4.802   9.878   3.802  0.3053  0.1001  0.8292
  249MOL0     C33534   4.842   9.772   3.725 -0.7162 -0.5589 -0.1060
  249MOL0     C33535   5.122   9.513   3.470  0.4351 -0.7029  0.1228
  249MOL0     C33536   5.077   9.547   3.338 -0.8501  0.3280 -0.7859
  249MOL0     C33537   5.143   9.473   3.237  0.4930 -0.0312  0.7754
  249MOL0     C33538   5.240   9.372   3.246 -0.7558  0.1925 -0.4614
  249MOL0     O33539   5.304   9.293   3.145  0.5529 -0.8397 -0.2012
  249MOL0     C33540   5.257   9.308   3.004  0.3315 -0.5178 -0.6182
  249MOL0     C33541   5.381   9.288   2.907 -0.2951  1.0402  0.0540
  249MOL0     C33542   5.461   9.164   2.939  0.0045 -0.6177 -0.5189
  249MOL0     C33543   5.464   9.069   2.827 -0.5267 -0.8064  0.0811
  249MOL0     C33544   5.337   8.991   2.819  0.4950  0.3362 -0.6564
  249MOL0     C33545   5.233   8.923   2.816 -0.5515  0.2263  0.0411
  249MOL0     C33546   5.278   9.348   3.372  0.4473  0.1590 -0.9223
  249MOL0     C33547   5.211   9.407   3.480  0.2150  0.2161  0.8103
  249MOL0     H33548   5.134   9.917   3.621  0.5006  2.3429  3.0979
  249MOL0     H33549   5.063  10.085   3.760 -1.4784  0.5919  1.3318
  249MOL0     H33550   4.648  10.113   3.913  2.0281  1.8462 -1.1810
  249MOL0     H33551   4.725   9.990   4.037  0.0925  0.5287  0.2564
  249MOL0     H33552   4.719  10.284   4.037 -2.7012 -2.1318 -5.1131
  249MOL0     H33553   4.635  10.170   4.153  0.7215 -3.7189 -0.6427
  249MOL0     H33554   4.839  10.101   4.260 -3.8094 -0.8686 -1.3782
  249MOL0     H33555   4.942  10.161   4.133 -0.8636 -3.5131  0.8095
  249MOL0     H33556   4.857  10.394   4.180 -1.5620 -2.9233 -1.9264
  249MOL0     H33557   4.796  10.331   4.329 -1.1259 -0.8067  0.4746
  249MOL0     H33558   5.016  10.260   4.394 -3.3358  0.3162  0.4255
  249MOL0     H33559   5.102  10.309   4.246  2.4822 -2.1954  3.6046
  249MOL0     H33560   5.150  10.467   4.382  0.2128 -1.7022 -0.1813
  249MOL0     H33561   5.051  10.540   4.267 -0.0492 -1.4017 -1.5450
  249MOL0     H33562   4.870  10.474   4.464 -0.8153 -1.1610 -0.0608
  249MOL0     H33563   5.026  10.449   4.565 -0.0222  3.0112  0.6059
  249MOL0     H33564   4.897  10.687   4.549  0.5621  1.0843 -0.9417
  249MOL0     H33565   5.002  10.705   4.416 -1.7268 -0.5483 -0.7610
  249MOL0     H33566   5.010  10.726   4.798  1.4809 -0.6936  0.7963
  249MOL0     H33567   5.285  10.933   4.895  4.7427 -1.0592 -2.6262
  249MOL0     H33568   5.183  10.802   4.973  1.9664 -2.0078  1.4555
  249MOL0     H33569   5.468  10.768   4.886  0.5542 -2.7968 -0.4839
  249MOL0     H33570   5.367  10.643   4.904  5.1517  0.6218 -1.6371
  249MOL0     H33571   5.502  10.674   5.114 -1.3934 -1.9753 -1.1944
  249MOL0     H33572   5.344  10.661   5.145 -0.6909 -2.1400 -2.5066
  249MOL0     H33573   5.437  10.954   5.100 -3.7707  2.3984  0.7588
  249MOL0     H33574   5.485  10.872   5.253  0.7870  2.9044  0.1201
  249MOL0     H33575   5.461  11.099   5.305  1.5520  4.3791 -3.4466
  249MOL0     H33576   5.451  11.439   5.371  2.7049  0.1657  2.4285
  249MOL0     H33577   5.475  11.321   5.507  1.7685 -1.5985  0.1888
  249MOL0     H33578   5.550  11.295   5.350 -0.3121 -3.5763  0.5377
  249MOL0     H33579   5.085  11.517   5.703  0.7159  0.4446  0.0268
  249MOL0     H33580   5.035  11.739   5.800  1.1002  1.4912  0.1863
  249MOL0     H33581   4.946  11.937   5.891  2.7507  0.5893  0.8430
  249MOL0     H33582   5.084  11.963   5.803  0.4272 -0.0195 -0.5463
  249MOL0     H33583   4.976  12.178   5.734 -1.2676 -2.4222 -0.9170
  249MOL0     H33584   4.836  12.152   5.838 -1.1564 -3.5239  0.5520
  249MOL0     H33585   5.130  12.184   5.929 -0.5383  1.4662 -0.8519
  249MOL0     H33586   5.010  12.101   6.027 -0.5442 -0.7634 -1.4786
  249MOL0     H33587   5.047  12.391   5.927  4.2201 -2.2705  0.8627
  249MOL0     H33588   4.894  12.344   6.011  0.6639  1.6015  0.2823
  249MOL0     H33589   5.016  12.274   6.210 -1.3707  2.0630  1.3461
  249MOL0     H33590   5.033  12.447   6.162 -2.0954  0.3132 -1.9017
  249MOL0     H33591   5.260  12.245   6.088  0.2951  1.2691 -0.8216
  249MOL0     H33592   5.266  12.425   6.091  1.4182 -1.9434 -2.2167
  249MOL0     H33593   5.229  12.270   6.350  0.1805  2.9978  1.5512
  249MOL0     H33594   5.290  12.430   6.317  0.4001  0.2428  1.1468
  249MOL0     H33595   5.466  12.317   6.373 -1.1677  2.8544 -0.5658
  249MOL0     H33596   5.478  12.354   6.200  0.8663 -4.0645 -4.0025
  249MOL0     H33597   4.887  11.883   5.431 -1.3029 -0.1821  2.1435
  249MOL0     H33598   4.924  11.651   5.327  0.5203 -2.4540 -0.1213
  249MOL0     H33599   4.993  11.249   5.316  1.0840  1.8344 -3.1548
  249MOL0     H33600   5.041  11.013   5.255 -1.5549  2.3046 -0.2596
  249MOL0     H33601   4.700   9.885   3.840 -0.8588 -0.3366 -1.9794
  249MOL0     H33602   4.778   9.687   3.704  1.2451 -2.3214  0.7118
  249MOL0     H33603   5.009   9.631   3.339 -0.1608  0.8976 -0.2736
  249MOL0     H33604   5.105   9.481   3.135 -1.3368 -2.1252  1.2105
  249MOL0     H33605   5.182   9.230   2.988  0.7509 -1.2184  0.6644
  249MOL0     H33606   5.218   9.409   2.989  1.7112 -0.0454 -1.1800
  249MOL0     H33607   5.448   9.375   2.908  1.8534 -0.5310  0.5973
  249MOL0     H33608   5.343   9.282   2.805 -0.3875 -1.2068  0.1790
  249MOL0     H33609   5.414   9.117   3.026 -3.4809 -0.1359 -1.9503
  249MOL0     H33610   5.564   9.198   2.954  0.6269 -1.2028 -3.0505
  249MOL0     H33611   5.548   9.000   2.837  0.3274 -0.1273 -1.8361
  249MOL0     H33612   5.480   9.119   2.731  2.2981 -1.4800  0.1370
  249MOL0     H33613   5.165   8.841   2.827  2.8235 -2.6037  1.9478
  249MOL0     H33614   5.358   9.284   3.408  1.6919  1.7933 -0.6182
  249MOL0     H33615   5.241   9.371   3.578 -1.5944  1.4190  1.8498
  250MOL0     O33616   4.896   0.643   8.918 -1.0462 -0.1367  0.0692
  250MOL0     C33617   4.787   0.600   8.887  0.4536  0.4518  0.8292
  250MOL0     O33618   4.750   0.479   8.850  0.1566  0.8640  0.2031
  250MOL0     C33619   4.843   0.380   8.847 -0.4545  0.6305  0.1884
  250MOL0     C33620   4.898   0.337   8.727 -0.0899  0.2431  0.5610
  250MOL0     C33621   4.994   0.233   8.725  0.6104 -0.1280 -0.2684
  250MOL0     C33622   5.046   0.172   8.843  0.4225 -0.7990  0.6073
  250MOL0     O33623   5.140   0.081   8.837 -0.0427 -0.1004 -0.7223
  250MOL0     C33624   5.147  -0.018   8.939  1.2621 -0.7241  0.2917
  250MOL0     C33625   5.259  -0.111   8.905  0.5574  0.4616  0.0448
  250MOL0     C33626   5.388  -0.035   8.902  0.9044 -0.5870 -0.1839
  250MOL0     C33627   5.493  -0.129   8.875  0.5665 -0.5214 -1.0036
  250MOL0     C33628   5.621  -0.055   8.831  0.0389 -0.6192  0.9250
  250MOL0     C33629   5.738  -0.145   8.817  0.9714  0.5513  0.4818
  250MOL0     C33630   5.860  -0.070   8.765 -0.0284  0.2794 -0.7036
  250MOL0     C33631   5.910   0.023   8.878  0.1741 -0.5426 -0.1255
  250MOL0     N33632   6.053   0.049   8.865  0.2924  1.1189 -0.3420
  250MOL0     C33633   6.108   0.154   8.791  0.3939 -0.3377  0.6804
  250MOL0     C33634   6.238   0.138   8.777 -0.2993 -0.8916 -0.3848
  250MOL0     C33635   6.339   0.233   8.725 -0.0632  0.6275  0.2173
  250MOL0     C33636   6.411   0.296   8.838 -0.1412  0.4014 -1.2055
  250MOL0     C33637   6.502   0.416   8.796  0.0769  1.0981 -0.4208
  250MOL0     C33638   6.583   0.485   8.905 -0.2111  0.5680  0.1737
  250MOL0     O33639   6.513   0.602   8.949 -0.2970  0.1641  0.4338
  250MOL0     C33640   6.572   0.701   9.022 -0.1998 -0.3019  0.3145
  250MOL0     C33641   6.494   0.807   9.068 -0.1977 -0.7751  0.1953
  250MOL0     C33642   6.549   0.917   9.123  0.5403  0.1102  0.3224
  250MOL0     C33643   6.464   1.023   9.182  0.3498  0.8655 -1.0131
  250MOL0     C33644   6.694   0.920   9.141  0.2881  0.6557  0.0027
  250MOL0     C33645   6.776   1.020   9.214  0.4288 -0.6146  0.0031
  250MOL0     O33646   6.904   0.994   9.223 -0.1259  0.4490  0.6962
  250MOL0     C33647   6.999   1.072   9.280  0.1476  0.7953 -0.4145
  250MOL0     C33648   7.131   1.020   9.258 -0.2841 -0.1980  0.0538
  250MOL0     C33649   7.245   1.089   9.307 -1.0048  0.3457 -0.0695
  250MOL0     C33650   7.231   1.209   9.381  0.4223  0.0034 -0.6928
  250MOL0     O33651   7.339   1.283   9.419  0.4934  0.1271  0.3457
  250MOL0     C33652   7.304   1.356   9.544  0.5891 -0.1857  0.2962
  250MOL0     C33653   7.436   1.382   9.613 -0.1183 -0.7582  0.1969
  250MOL0     C33654   7.513   1.277   9.690 -0.0931  0.1734 -0.0460
  250MOL0     C33655   7.598   1.332   9.798 -0.6257 -0.9237  0.5800
  250MOL0     C33656   7.716   1.430   9.745 -0.6728  0.3020 -0.8830
  250MOL0     C33657   7.792   1.507   9.863 -0.2990 -0.1129  0.3897
  250MOL0     C33658   7.708   1.630   9.914 -0.3562  0.3222  0.0203
  250MOL0     C33659   7.791   1.704  10.019  0.1366  0.9467 -1.3134
  250MOL0    Cl33660   7.753   1.878  10.026 -0.5272 -0.2344 -0.0424
  250MOL0     C33661   7.100   1.259   9.393 -0.2245 -1.0436 -0.2775
  250MOL0     C33662   6.984   1.201   9.333 -0.4904  0.5119  0.4159
  250MOL0     O33663   6.717   1.114   9.261  0.0627  0.0792  0.4301
  250MOL0     C33664   6.765   0.806   9.099 -0.1984  0.2846  0.4832
  250MOL0     C33665   6.705   0.696   9.043  0.0134  0.3195  0.6917
  250MOL0     N33666   6.260   0.008   8.817 -0.0343  0.6049 -0.4363
  250MOL0     N33667   6.154  -0.044   8.875 -0.5643  0.5634 -0.5651
  250MOL0     C33668   4.996   0.221   8.966  0.4040  0.5717 -0.5821
  250MOL0     C33669   4.897   0.324   8.968  0.2405  0.2640  0.0100
  250MOL0     C33670   4.672   0.702   8.895  0.7718  0.3392  0.5637
  250MOL0     C33671   4.693   0.840   8.937 -0.2898  0.5678  0.8790
  250MOL0     C33672   4.584   0.927   8.937 -0.0157  0.0152  0.4903
  250MOL0     C33673   4.452   0.887   8.920  1.0717 -0.0222  0.0577
  250MOL0     O33674   4.374   0.994   8.939  0.4376 -0.0702 -0.3644
  250MOL0     C33675   4.230   0.974   8.934  0.2535  0.0781 -0.0686
  250MOL0     C33676   4.160   1.030   9.058  0.6973 -0.0640  0.2901
  250MOL0     C33677   4.011   0.999   9.052 -0.7995  0.1897 -1.2470
  250MOL0     C33678   3.943   1.038   9.193  0.6775 -0.9753  0.3411
  250MOL0     C33679   3.933   1.181   9.204 -0.4598 -0.1935 -0.0267
  250MOL0     C33680   3.911   1.299   9.223 -0.0320  0.3790 -0.7068
  250MOL0     C33681   4.433   0.753   8.862  0.4546  0.5778 -0.1713
  250MOL0     C33682   4.541   0.665   8.855  0.1977 -0.4263 -0.5272
  250MOL0     H33683   4.848   0.374   8.637 -0.7018  0.5193  1.0081
  250MOL0     H33684   5.043   0.190   8.638 -0.3142 -0.3381 -0.7042
  250MOL0     H33685   5.160   0.022   9.040  1.3735  0.2287 -0.0931
  250MOL0     H33686   5.051  -0.071   8.938 -1.0775  3.1022 -1.8571
  250MOL0     H33687   5.278  -0.188   8.980 -0.7602 -0.7694 -0.8134
  250MOL0     H33688   5.242  -0.150   8.804  0.4276  1.8934 -0.5148
  250MOL0     H33689   5.385   0.039   8.822  2.4867  2.7609  2.5478
  250MOL0     H33690   5.400   0.011   9.001  0.2023 -1.8022  0.4975
  250MOL0     H33691   5.515  -0.183   8.968 -0.3761  0.8386  0.0546
  250MOL0     H33692   5.466  -0.211   8.808 -1.8229 -2.2843  1.8618
  250MOL0     H33693   5.609   0.003   8.739 -0.9431  0.1695  1.5276
  250MOL0     H33694   5.637   0.018   8.911  0.0724 -0.8710  1.1474
  250MOL0     H33695   5.764  -0.187   8.915 -3.4273  1.7942  2.4134
  250MOL0     H33696   5.700  -0.223   8.751  0.9417  0.5842  0.4605
  250MOL0     H33697   5.940  -0.141   8.740  0.5964  0.2906  1.1456
  250MOL0     H33698   5.833  -0.026   8.668  0.2708  0.0314 -0.9039
  250MOL0     H33699   5.886  -0.031   8.970  0.1856 -2.1358 -1.0027
  250MOL0     H33700   5.852   0.116   8.875 -1.7401 -1.4693  3.0195
  250MOL0     H33701   6.054   0.243   8.760 -0.3276 -1.0622 -0.1653
  250MOL0     H33702   6.410   0.197   8.650  2.7605  2.0912  2.0120
  250MOL0     H33703   6.298   0.306   8.655 -1.3036 -1.9303 -1.8908
  250MOL0     H33704   6.466   0.227   8.902  1.5376  2.3143 -0.4750
  250MOL0     H33705   6.336   0.333   8.909  0.0433 -2.0672  0.3700
  250MOL0     H33706   6.441   0.489   8.742 -3.2325 -2.3362 -1.7413
  250MOL0     H33707   6.572   0.383   8.719 -1.7308 -0.4284 -1.4986
  250MOL0     H33708   6.683   0.503   8.865  0.0517 -1.5247 -0.2208
  250MOL0     H33709   6.603   0.409   8.980  1.8910  0.8119 -0.0886
  250MOL0     H33710   6.386   0.802   9.062 -0.2392  0.3392 -0.2729
  250MOL0     H33711   6.362   1.001   9.151  0.2959  0.1065 -0.3133
  250MOL0     H33712   6.452   1.021   9.291  0.2717 -0.9547 -1.0256
  250MOL0     H33713   6.503   1.120   9.150 -0.7046  1.7759  0.3591
  250MOL0     H33714   7.142   0.929   9.201 -0.3501  1.2595 -2.4261
  250MOL0     H33715   7.346   1.050   9.298 -0.6273  0.9964  1.1161
  250MOL0     H33716   7.257   1.453   9.523 -0.3583 -0.0057  2.8696
  250MOL0     H33717   7.234   1.315   9.618 -0.1440  1.0035  0.3015
  250MOL0     H33718   7.496   1.410   9.526 -3.0769  0.8031 -1.4886
  250MOL0     H33719   7.440   1.468   9.681 -0.1125  0.7317 -1.6195
  250MOL0     H33720   7.566   1.211   9.620 -2.1094 -0.3202 -1.1961
  250MOL0     H33721   7.439   1.217   9.744  0.0790  1.4123  1.6234
  250MOL0     H33722   7.531   1.387   9.865 -1.7357 -2.7307  1.0171
  250MOL0     H33723   7.639   1.255   9.863  2.6566 -1.6076 -2.0355
  250MOL0     H33724   7.679   1.504   9.674  0.2059 -0.1371 -1.8226
  250MOL0     H33725   7.795   1.371   9.697 -0.4966 -1.3540  1.2544
  250MOL0     H33726   7.805   1.441   9.950 -2.9916  0.7072  1.5006
  250MOL0     H33727   7.893   1.529   9.828 -0.2049 -2.9838 -1.6120
  250MOL0     H33728   7.615   1.594   9.960  0.6239 -0.3263  1.5466
  250MOL0     H33729   7.692   1.691   9.824 -0.2966 -1.3003 -1.1348
  250MOL0     H33730   7.900   1.697  10.006 -0.0760  1.7507 -4.2672
  250MOL0     H33731   7.773   1.648  10.111  0.7968  1.9549 -0.5506
  250MOL0     H33732   7.088   1.359   9.433 -1.7245 -0.1291 -2.7459
  250MOL0     H33733   6.885   1.244   9.331 -0.7455 -0.0600  0.6567
  250MOL0     H33734   6.873   0.800   9.093 -0.1398  1.5849 -0.2629
  250MOL0     H33735   6.752   0.603   9.014 -4.4413 -2.5803  1.7800
  250MOL0     H33736   5.005   0.155   9.052 -1.4709 -2.7029 -2.6948
  250MOL0     H33737   4.848   0.350   9.062 -3.2107 -0.0813 -1.5612
  250MOL0     H33738   4.794   0.870   8.961 -0.8073  3.3523 -0.0694
  250MOL0     H33739   4.598   1.028   8.975  1.4567 -0.6132  1.7484
  250MOL0     H33740   4.192   1.026   8.845 -1.3631 -0.6744  0.1532
  250MOL0     H33741   4.198   0.871   8.920 -0.9648  0.6474 -1.8505
  250MOL0     H33742   4.183   1.137   9.068  2.8907 -0.6855  3.2185
  250MOL0     H33743   4.202   0.976   9.143 -1.0190 -1.3116  0.3834
  250MOL0     H33744   3.994   0.893   9.032 -0.1177  0.1529 -1.6705
  250MOL0     H33745   3.960   1.052   8.970 -1.0254  3.4093  0.8211
  250MOL0     H33746   3.994   1.000   9.282  2.6058  1.5201  0.4129
  250MOL0     H33747   3.838   1.011   9.201 -1.1516  5.2415  4.7524
  250MOL0     H33748   3.897   1.404   9.238 -1.0396  0.2585 -0.7773
  250MOL0     H33749   4.334   0.720   8.831  0.5599 -0.3766  0.4928
  250MOL0     H33750   4.530   0.568   8.806 -0.1574 -0.0596 -1.1951
  251MOL0     O33751   7.221  10.985   8.698  0.7707  0.9391  0.3513
  251MOL0     C33752   7.103  10.984   8.670  0.6126 -0.8199  0.1144
  251MOL0     O33753   7.046  11.066   8.577  0.0483 -0.5730  0.9341
  251MOL0     C33754   7.094  11.182   8.518  0.2531  0.5049 -0.2428
  251MOL0     C33755   7.223  11.221   8.512 -0.1038  0.3303 -0.1260
  251MOL0     C33756   7.252  11.342   8.458  0.0596 -0.6407  0.4631
  251MOL0     C33757   7.167  11.422   8.384 -0.0429 -0.0909 -0.6984
  251MOL0     O33758   7.206  11.536   8.319  0.3386 -0.1825  0.1662
  251MOL0     C33759   7.158  11.562   8.192  0.9937  0.0286 -1.0163
  251MOL0     C33760   7.259  11.666   8.130 -0.0714  1.1551  0.5683
  251MOL0     C33761   7.241  11.658   7.981 -0.0517  0.4132 -0.2936
  251MOL0     C33762   7.328  11.752   7.898 -0.1683 -0.0272  0.3040
  251MOL0     C33763   7.398  11.667   7.793 -0.3014 -0.5816 -0.3836
  251MOL0     C33764   7.493  11.744   7.707  0.0354 -0.1634 -0.2145
  251MOL0     C33765   7.549  11.670   7.588  0.5831  0.5447  0.6826
  251MOL0     C33766   7.649  11.750   7.492 -0.0433 -0.2133 -0.3222
  251MOL0     N33767   7.768  11.787   7.570  0.2403  0.2923 -0.6470
  251MOL0     C33768   7.885  11.715   7.567 -0.2103  0.6400  0.1471
  251MOL0     C33769   7.973  11.774   7.649  0.3035 -0.4416 -0.2481
  251MOL0     C33770   8.108  11.735   7.691 -0.5882  0.0896  1.1298
  251MOL0     C33771   8.104  11.595   7.761 -0.8954 -0.3319 -1.0989
  251MOL0     C33772   8.252  11.552   7.816  0.2795  0.0234 -1.5401
  251MOL0     C33773   8.283  11.615   7.955  0.5860  0.5694  0.7324
  251MOL0     O33774   8.400  11.697   7.943 -0.7871 -0.0903 -0.2442
  251MOL0     C33775   8.521  11.629   7.929 -0.0787 -0.0822  0.6064
  251MOL0     C33776   8.564  11.509   7.988  1.0965  0.1322  0.1543
  251MOL0     C33777   8.693  11.473   7.987 -0.9144  1.0196 -0.0326
  251MOL0     C33778   8.722  11.339   8.052 -0.1662  0.0317 -0.8626
  251MOL0     C33779   8.794  11.549   7.923  0.2798  0.4601 -0.1700
  251MOL0     C33780   8.937  11.519   7.915 -0.4609 -0.6663  0.3607
  251MOL0     O33781   9.002  11.599   7.827  0.7702 -0.1836 -0.4206
  251MOL0     C33782   9.126  11.552   7.792 -0.3474 -0.8054  0.2006
  251MOL0     C33783   9.228  11.561   7.886  0.2279  0.2416  0.7350
  251MOL0     C33784   9.357  11.532   7.855  0.0076 -0.0392  0.0861
  251MOL0     C33785   9.388  11.487   7.724  0.8089  0.5742  0.3134
  251MOL0     O33786   9.519  11.456   7.703  0.3910  0.0818  0.0553
  251MOL0     C33787   9.551  11.405   7.580 -0.7465 -0.2909 -0.5854
  251MOL0     C33788   9.695  11.351   7.590 -0.1679  0.2490 -0.6973
  251MOL0     C33789   9.697  11.214   7.672 -0.1817  0.5005 -0.0468
  251MOL0     C33790   9.815  11.133   7.629 -0.0304 -0.3659 -0.1249
  251MOL0     C33791   9.847  11.022   7.725  0.4212 -0.3692  0.5744
  251MOL0     C33792   9.926  11.052   7.853  0.2240  0.5854  0.6655
  251MOL0     C33793   9.842  11.135   7.957  0.0923  0.3177 -0.5026
  251MOL0     C33794   9.918  11.126   8.087  0.1211 -1.4572 -0.1932
  251MOL0    Cl33795   9.866  11.239   8.215  0.3843  0.0438  0.4134
  251MOL0     C33796   9.283  11.463   7.631 -0.0860 -0.2884  0.5989
  251MOL0     C33797   9.152  11.502   7.663  0.0369 -0.0381  0.0912
  251MOL0     O33798   8.982  11.426   7.981 -0.3728  0.6605  0.2020
  251MOL0     C33799   8.744  11.667   7.855  0.2044  0.2670  0.4020
  251MOL0     C33800   8.614  11.708   7.856  0.7105  0.2218 -0.6666
  251MOL0     N33801   7.901  11.874   7.707  0.5690  0.3324  0.4329
  251MOL0     N33802   7.783  11.890   7.654 -1.0407 -0.4830 -0.4897
  251MOL0     C33803   7.030  11.377   8.388  0.5566 -0.3833  1.5779
  251MOL0     C33804   7.001  11.250   8.448  0.0529  0.6609  0.0839
  251MOL0     C33805   7.014  10.879   8.730 -0.9299  0.5026  0.1255
  251MOL0     C33806   7.057  10.806   8.836 -0.1795  0.6726 -0.9326
  251MOL0     C33807   6.980  10.702   8.899 -0.1989 -0.4801  0.2367
  251MOL0     C33808   6.844  10.694   8.853  0.6041 -0.0127 -0.4196
  251MOL0     O33809   6.755  10.590   8.887  0.2405  0.5962  0.4329
  251MOL0     C33810   6.726  10.560   9.020  0.7737 -0.7154 -0.2123
  251MOL0     C33811   6.584  10.499   9.019 -0.5715  0.3060  0.8061
  251MOL0     C33812   6.589  10.367   8.948  0.1511  0.2673  0.3420
  251MOL0     C33813   6.461  10.279   8.963 -0.1927 -0.3889  0.7677
  251MOL0     C33814   6.471  10.164   8.881 -0.4121  0.3356  0.3669
  251MOL0     C33815   6.456  10.067   8.806  0.5516 -0.1138  0.3137
  251MOL0     C33816   6.792  10.770   8.751 -0.1000  0.1704  0.3872
  251MOL0     C33817   6.883  10.862   8.686  0.9834 -0.1706  0.3791
  251MOL0     H33818   7.288  11.164   8.579  1.6043  0.0959 -1.8809
  251MOL0     H33819   7.355  11.369   8.481 -0.6213 -0.7442  4.2915
  251MOL0     H33820   7.146  11.467   8.140  0.0671  0.0856 -0.9109
  251MOL0     H33821   7.058  11.605   8.199  1.3334  0.6260  0.7519
  251MOL0     H33822   7.240  11.767   8.169 -1.8705  0.2689  2.1356
  251MOL0     H33823   7.364  11.644   8.153  0.1718 -1.4771 -2.3462
  251MOL0     H33824   7.256  11.555   7.947  0.5072  0.3693  0.0829
  251MOL0     H33825   7.139  11.693   7.961  0.3100 -0.1945 -3.9452
  251MOL0     H33826   7.264  11.829   7.853 -1.2700 -0.0290  1.8077
  251MOL0     H33827   7.403  11.807   7.956  0.0032 -0.3178  0.3597
  251MOL0     H33828   7.460  11.590   7.840 -1.1821 -1.1582 -0.1405
  251MOL0     H33829   7.320  11.631   7.724  0.6397 -1.0119 -1.2567
  251MOL0     H33830   7.452  11.837   7.668  0.7551  0.4921  0.5506
  251MOL0     H33831   7.578  11.765   7.774 -0.4213 -1.8983  0.9928
  251MOL0     H33832   7.600  11.587   7.638 -1.5185  1.3161  4.4529
  251MOL0     H33833   7.474  11.613   7.533  2.6298 -5.6105  3.3346
  251MOL0     H33834   7.605  11.841   7.450  1.0111  1.5201  2.1095
  251MOL0     H33835   7.671  11.680   7.412 -0.5537  0.0278 -0.6815
  251MOL0     H33836   7.903  11.633   7.498 -2.1980 -0.4400  0.8615
  251MOL0     H33837   8.172  11.733   7.603 -3.0571 -0.1098 -0.7691
  251MOL0     H33838   8.147  11.813   7.757 -0.6169  0.5996  0.5544
  251MOL0     H33839   8.067  11.523   7.689  2.1214 -2.3400 -0.8390
  251MOL0     H33840   8.029  11.601   7.841 -0.7189  0.9377 -1.0017
  251MOL0     H33841   8.329  11.572   7.741  0.6714 -1.4437 -1.5655
  251MOL0     H33842   8.254  11.443   7.830 -4.9983  0.0111  1.8850
  251MOL0     H33843   8.289  11.535   8.030  2.0889  3.8393  4.4163
  251MOL0     H33844   8.194  11.673   7.981 -0.3456  0.3624 -1.6962
  251MOL0     H33845   8.492  11.438   8.027 -0.5995  2.5509  1.7441
  251MOL0     H33846   8.636  11.296   8.104  1.3104 -1.5703  0.3936
  251MOL0     H33847   8.759  11.259   7.987 -3.5864  0.0802 -3.1052
  251MOL0     H33848   8.789  11.360   8.136 -0.1846  3.2890 -1.5423
  251MOL0     H33849   9.204  11.605   7.982 -2.6880 -1.5268  0.9484
  251MOL0     H33850   9.437  11.551   7.926  0.8349  3.6036 -1.6184
  251MOL0     H33851   9.488  11.321   7.549 -2.9087  0.8524  0.4817
  251MOL0     H33852   9.547  11.485   7.505 -0.3793 -0.1501 -0.4615
  251MOL0     H33853   9.732  11.340   7.488 -2.0889 -1.1206 -1.3119
  251MOL0     H33854   9.759  11.421   7.645 -0.9842 -0.5899  1.4327
  251MOL0     H33855   9.606  11.160   7.646 -0.9984  1.3856  0.8985
  251MOL0     H33856   9.700  11.241   7.778  1.1312  2.3734 -0.5059
  251MOL0     H33857   9.788  11.086   7.533 -1.1789 -0.6627  0.3177
  251MOL0     H33858   9.904  11.191   7.605 -0.9818  0.4942 -1.7457
  251MOL0     H33859   9.906  10.955   7.662 -4.7093 -2.2009 -2.9755
  251MOL0     H33860   9.755  10.970   7.755 -0.0852 -1.0707 -1.9813
  251MOL0     H33861   9.945  10.955   7.898 -0.4671  0.2329  0.2198
  251MOL0     H33862  10.021  11.100   7.827  0.6499 -0.0758  0.9854
  251MOL0     H33863   9.749  11.081   7.978  0.8902 -1.6882 -1.8074
  251MOL0     H33864   9.839  11.241   7.930 -1.6002  0.6772  0.8459
  251MOL0     H33865  10.020  11.161   8.070 -0.9075  2.8639  1.1712
  251MOL0     H33866   9.916  11.023   8.124 -0.3082 -1.3451  0.1076
  251MOL0     H33867   9.314  11.431   7.532 -0.7764 -1.8270  0.8569
  251MOL0     H33868   9.067  11.508   7.595 -0.3100 -2.1750  0.2753
  251MOL0     H33869   8.818  11.724   7.800 -0.0580  0.8299  0.6261
  251MOL0     H33870   8.597  11.810   7.822  2.8890  0.9436  0.2848
  251MOL0     H33871   6.947  11.430   8.343  1.5413  0.3760  0.5750
  251MOL0     H33872   6.901  11.211   8.458 -0.4276  1.8661  0.1367
  251MOL0     H33873   7.161  10.815   8.867 -0.5604  1.5481  0.1679
  251MOL0     H33874   7.002  10.633   8.981 -3.7603 -1.0845  0.8350
  251MOL0     H33875   6.788  10.485   9.069  0.4248 -1.9252 -1.5461
  251MOL0     H33876   6.731  10.655   9.075 -3.1317 -0.8752  0.7362
  251MOL0     H33877   6.514  10.570   8.974  0.2462  0.6634  0.0813
  251MOL0     H33878   6.546  10.478   9.120 -0.7154 -0.1492  0.6595
  251MOL0     H33879   6.675  10.309   8.981 -0.3190 -1.4588 -1.3204
  251MOL0     H33880   6.604  10.402   8.845 -0.7581  1.9598  0.7479
  251MOL0     H33881   6.374  10.336   8.929  2.9664  2.7264 -2.9541
  251MOL0     H33882   6.446  10.256   9.069 -0.3566  0.5112  0.9451
  251MOL0     H33883   6.436   9.990   8.734 -0.6998  0.8594 -0.4242
  251MOL0     H33884   6.691  10.778   8.712  0.6056  1.2329 -1.3236
  251MOL0     H33885   6.853  10.930   8.607 -1.7224  0.4511  1.8392
  252MOL0     O33886   3.893   9.969   2.804  0.2725 -0.0639 -0.1059
  252MOL0     C33887   3.817  10.070   2.817  0.2386  0.8336  0.1853
  252MOL0     O33888   3.706  10.077   2.896  0.4530 -0.2461  0.7964
  252MOL0     C33889   3.685   9.993   2.998  0.6019  0.2215  0.6791
  252MOL0     C33890   3.560   9.937   3.004 -0.8588 -0.9337 -0.8253
  252MOL0     C33891   3.539   9.831   3.096 -0.6157 -0.1326 -0.1817
  252MOL0     C33892   3.641   9.791   3.185 -0.6745 -0.2614  0.2648
  252MOL0     O33893   3.616   9.679   3.259 -0.3191 -0.2107  1.0790
  252MOL0     C33894   3.728   9.605   3.315 -1.0862  0.8623  0.3229
  252MOL0     C33895   3.820   9.556   3.197 -0.0452  0.4680 -0.0979
  252MOL0     C33896   3.902   9.451   3.266  0.8199  0.2954 -0.5449
  252MOL0     C33897   3.997   9.386   3.181  0.4901  0.3692 -0.6867
  252MOL0     C33898   4.119   9.336   3.265 -0.1371  0.6257  0.3497
  252MOL0     C33899   4.236   9.286   3.175 -0.5640  1.0067  0.0751
  252MOL0     C33900   4.370   9.282   3.239  0.2428  0.1147  0.0540
  252MOL0     C33901   4.470   9.268   3.126  0.4440  0.1257 -0.1604
  252MOL0     N33902   4.604   9.267   3.183  0.3129  0.0849  0.6097
  252MOL0     C33903   4.689   9.163   3.187 -0.2993  0.6023  0.4998
  252MOL0     C33904   4.816   9.217   3.206  0.3882  0.7114  0.0687
  252MOL0     C33905   4.945   9.144   3.189 -0.5778 -0.5722  0.5900
  252MOL0     C33906   4.941   9.009   3.107 -0.4680 -1.1913  0.6194
  252MOL0     C33907   4.894   9.027   2.957 -0.3513  0.5593 -0.7495
  252MOL0     C33908   4.843   8.897   2.902 -0.1561  0.5990  0.5685
  252MOL0     O33909   4.715   8.879   2.958 -0.0004 -0.3290 -0.0387
  252MOL0     C33910   4.597   8.934   2.899 -1.2371  0.7369  0.0520
  252MOL0     C33911   4.598   9.035   2.799  0.0290  0.1847 -0.1068
  252MOL0     C33912   4.481   9.082   2.744 -0.1692  1.2862 -0.3870
  252MOL0     C33913   4.497   9.169   2.617 -0.1500  0.5410 -0.6355
  252MOL0     C33914   4.361   9.043   2.802  0.5066  0.5525  0.4161
  252MOL0     C33915   4.232   9.116   2.772  0.0157  0.7822  0.6822
  252MOL0     O33916   4.136   9.116   2.876 -0.1174 -0.4928 -0.1318
  252MOL0     C33917   4.012   9.167   2.861 -0.0172 -0.2236  0.8033
  252MOL0     C33918   3.911   9.104   2.932 -0.3243 -0.3745  0.0687
  252MOL0     C33919   3.782   9.157   2.942 -0.4974  0.1511 -0.1789
  252MOL0     C33920   3.746   9.282   2.893  0.1064 -0.2551 -0.8614
  252MOL0     O33921   3.616   9.326   2.911 -0.8782  0.3203 -0.5170
  252MOL0     C33922   3.569   9.436   2.832  0.0829 -0.4858  1.0151
  252MOL0     C33923   3.420   9.469   2.863 -0.2834  0.7052 -0.1325
  252MOL0     C33924   3.358   9.536   2.736 -0.2129 -0.0625  0.8855
  252MOL0     C33925   3.226   9.610   2.750  0.8686  0.1174 -0.1843
  252MOL0     C33926   3.180   9.678   2.632  0.2161 -0.3201  0.5569
  252MOL0     C33927   3.275   9.769   2.548 -0.7009  0.3337  1.1963
  252MOL0     C33928   3.347   9.871   2.630 -1.1753  0.1994  0.2901
  252MOL0     C33929   3.457   9.938   2.557 -1.1356  0.5635 -0.1689
  252MOL0    Cl33930   3.418  10.008   2.401 -0.0232 -0.7921  0.3323
  252MOL0     C33931   3.844   9.345   2.824 -1.3357 -0.4398  0.9782
  252MOL0     C33932   3.981   9.296   2.808 -0.1370  0.2965  0.6752
  252MOL0     O33933   4.209   9.166   2.657 -0.0389 -0.5554  0.0558
  252MOL0     C33934   4.360   8.942   2.905  0.0645 -0.6508  0.4336
  252MOL0     C33935   4.479   8.885   2.950 -0.4876 -0.4273 -0.0204
  252MOL0     N33936   4.803   9.360   3.225 -1.0454  0.2099 -0.3242
  252MOL0     N33937   4.675   9.381   3.219 -0.4365 -0.3190 -0.5598
  252MOL0     C33938   3.764   9.856   3.179  1.2730  0.1808 -1.0560
  252MOL0     C33939   3.783   9.961   3.085 -0.3060  0.1747 -0.3849
  252MOL0     C33940   3.861  10.193   2.745 -0.3449  0.5198 -0.8440
  252MOL0     C33941   3.768  10.291   2.707  0.6907 -0.6880  0.1542
  252MOL0     C33942   3.809  10.394   2.630 -0.2534  0.3585 -0.2368
  252MOL0     C33943   3.941  10.392   2.575  0.0154 -0.5989 -0.1246
  252MOL0     O33944   3.995  10.493   2.496  1.0079  1.1530  0.2407
  252MOL0     C33945   3.916  10.607   2.456  0.6027  0.2994 -0.4507
  252MOL0     C33946   3.977  10.672   2.324 -0.6784  0.0178  0.6950
  252MOL0     C33947   3.993  10.558   2.217  0.3200  0.3821  0.2933
  252MOL0     C33948   4.101  10.601   2.120  0.6589 -0.5843  0.1014
  252MOL0     C33949   4.238  10.577   2.152 -0.8452 -0.1230  0.1015
  252MOL0     C33950   4.354  10.559   2.188  0.0879 -0.3362 -0.5920
  252MOL0     C33951   4.040  10.305   2.624 -0.1434  0.4270 -0.6490
  252MOL0     C33952   3.995  10.198   2.701 -0.3781 -0.0831 -0.1290
  252MOL0     H33953   3.490   9.973   2.930 -1.2848  3.1079  1.2788
  252MOL0     H33954   3.448   9.772   3.093 -0.4708 -0.3811  0.2009
  252MOL0     H33955   3.788   9.652   3.394 -0.9440 -1.3923  1.6203
  252MOL0     H33956   3.685   9.514   3.358 -1.9378  0.4861 -1.2338
  252MOL0     H33957   3.762   9.510   3.117 -1.0702 -1.5583  1.7226
  252MOL0     H33958   3.878   9.633   3.145  0.2924  0.1445 -0.2085
  252MOL0     H33959   3.947   9.502   3.351 -2.0500 -2.7025  3.1279
  252MOL0     H33960   3.840   9.370   3.305  0.3958 -0.7301 -3.1141
  252MOL0     H33961   3.945   9.302   3.132  2.0567  0.1447 -2.0268
  252MOL0     H33962   4.032   9.451   3.100  2.2431 -0.2100 -0.4283
  252MOL0     H33963   4.137   9.410   3.344 -0.1853 -1.1375  2.0809
  252MOL0     H33964   4.106   9.241   3.317 -0.2062  0.0854 -0.6481
  252MOL0     H33965   4.216   9.189   3.128 -1.2802  1.5286 -0.7371
  252MOL0     H33966   4.251   9.356   3.092  1.4316  0.0899 -0.4055
  252MOL0     H33967   4.378   9.382   3.282  2.0235  1.5301 -3.2396
  252MOL0     H33968   4.385   9.194   3.302 -0.5769 -1.4088 -1.7944
  252MOL0     H33969   4.464   9.355   3.059  1.2407 -0.5994 -1.2224
  252MOL0     H33970   4.454   9.181   3.061 -0.0481 -1.5950  2.1452
  252MOL0     H33971   4.673   9.058   3.163  1.9831  0.2269  0.3463
  252MOL0     H33972   5.012   9.212   3.136 -2.1289 -0.5346 -1.4400
  252MOL0     H33973   4.967   9.115   3.292  3.1698 -1.1717 -0.2197
  252MOL0     H33974   4.869   8.946   3.160  0.2714 -0.6175  2.4067
  252MOL0     H33975   5.038   8.958   3.117  1.1284  1.5769  0.3063
  252MOL0     H33976   4.975   9.069   2.896 -1.6678  1.5778 -1.8608
  252MOL0     H33977   4.819   9.106   2.950 -3.8125 -2.3268  0.9629
  252MOL0     H33978   4.893   8.806   2.936 -2.1728 -1.6599 -2.0310
  252MOL0     H33979   4.849   8.895   2.793 -5.0777 -1.3850  0.0921
  252MOL0     H33980   4.690   9.078   2.761  0.1798 -0.3513 -0.3565
  252MOL0     H33981   4.474   9.272   2.646 -0.8346 -0.2862  2.0582
  252MOL0     H33982   4.601   9.162   2.583  0.1379 -2.3548  0.5771
  252MOL0     H33983   4.425   9.138   2.541  0.0614  1.5311 -1.2639
  252MOL0     H33984   3.942   9.024   2.998  1.7549  1.3207  1.3012
  252MOL0     H33985   3.706   9.115   3.007 -2.6583  4.3850  0.3782
  252MOL0     H33986   3.645   9.515   2.846  0.5415 -0.7669  0.1609
  252MOL0     H33987   3.582   9.412   2.726  1.9456 -1.8538  1.4936
  252MOL0     H33988   3.365   9.375   2.877  0.0852  0.8540  2.9387
  252MOL0     H33989   3.425   9.523   2.958  0.8444  0.9298 -0.3120
  252MOL0     H33990   3.361   9.449   2.670  1.7786  1.7269 -1.5371
  252MOL0     H33991   3.440   9.605   2.712  0.1468 -0.2212  1.6135
  252MOL0     H33992   3.147   9.539   2.777 -0.4006  1.6481  0.2916
  252MOL0     H33993   3.241   9.683   2.830 -1.9923  1.9435 -1.1819
  252MOL0     H33994   3.094   9.743   2.651  2.5036  2.9580  0.5269
  252MOL0     H33995   3.152   9.605   2.556  0.1355  0.2664  0.0052
  252MOL0     H33996   3.349   9.696   2.515  1.4259  0.7513  4.5620
  252MOL0     H33997   3.218   9.817   2.467 -1.2747 -1.7726  0.2955
  252MOL0     H33998   3.391   9.821   2.717  0.9885 -0.6678 -1.2022
  252MOL0     H33999   3.271   9.946   2.652 -0.1722  2.4303 -3.0774
  252MOL0     H34000   3.533   9.864   2.531 -1.2747  1.1738 -2.5229
  252MOL0     H34001   3.505  10.018   2.614  0.7386  0.2209 -1.1592
  252MOL0     H34002   3.827   9.441   2.777  1.1298  0.0604  0.9786
  252MOL0     H34003   4.064   9.347   2.759  1.0747 -0.5427  1.7823
  252MOL0     H34004   4.261   8.911   2.939 -0.4873  1.7410  1.1791
  252MOL0     H34005   4.469   8.815   3.032 -0.8625 -1.7152 -1.1286
  252MOL0     H34006   3.851   9.819   3.233  0.1425 -0.8371  0.1500
  252MOL0     H34007   3.882  10.004   3.074 -0.6465  0.9560 -0.4279
  252MOL0     H34008   3.664  10.283   2.734  0.5205 -3.2251 -0.9480
  252MOL0     H34009   3.735  10.471   2.608 -0.7025 -0.6362 -2.6283
  252MOL0     H34010   3.814  10.581   2.427 -0.0833  3.0450 -0.7540
  252MOL0     H34011   3.911  10.670   2.545 -0.5125 -2.1710  1.3335
  252MOL0     H34012   4.072  10.716   2.356 -1.4649  3.4228 -1.1576
  252MOL0     H34013   3.914  10.758   2.303  0.6396  1.1337  1.1605
  252MOL0     H34014   3.902  10.542   2.159  0.4631 -0.5151  0.3085
  252MOL0     H34015   4.005  10.459   2.263 -0.1939  0.7513  1.2558
  252MOL0     H34016   4.082  10.707   2.100 -0.7653 -0.8242  0.0885
  252MOL0     H34017   4.087  10.533   2.035  1.7218 -0.0336 -0.5331
  252MOL0     H34018   4.458  10.538   2.202 -0.2725 -3.4107 -1.7427
  252MOL0     H34019   4.141  10.323   2.589 -1.0898  0.1571 -3.7851
  252MOL0     H34020   4.061  10.115   2.725  2.1051  1.5627 -0.9032
  253MOL0     O34021  10.026   2.901   4.468  0.0162  0.0716  0.2541
  253MOL0     C34022   9.985   2.794   4.509 -1.0012  0.8239  0.1260
  253MOL0     O34023  10.044   2.708   4.592  0.5030  0.4000  0.6409
  253MOL0     C34024  10.136   2.749   4.682 -0.6582 -1.0954  0.1244
  253MOL0     C34025  10.205   2.649   4.739  0.6674 -0.0143 -0.6968
  253MOL0     C34026  10.316   2.668   4.828 -0.2222  0.0531 -0.0457
  253MOL0     C34027  10.353   2.803   4.853 -0.5653 -0.0381 -0.0872
  253MOL0     O34028  10.462   2.833   4.938  0.4280 -0.1742 -0.3165
  253MOL0     C34029  10.501   2.734   5.030 -0.5445 -1.1355 -0.6221
  253MOL0     C34030  10.588   2.804   5.133 -0.4398 -0.3198 -0.7547
  253MOL0     C34031  10.737   2.818   5.082 -1.1119 -0.2245  0.3906
  253MOL0     C34032  10.804   2.932   5.172 -0.4637  0.5387  0.1072
  253MOL0     C34033  10.811   2.898   5.320 -0.0516  0.6551  0.8541
  253MOL0     C34034  10.859   3.017   5.402  0.4410 -1.3340  0.0944
  253MOL0     C34035  10.858   2.990   5.564 -0.2090 -0.0761  0.4181
  253MOL0     C34036  10.950   3.086   5.638  0.0847  0.3487 -0.4590
  253MOL0     N34037  10.909   3.110   5.779  0.1965  0.4324 -0.2329
  253MOL0     C34038  10.857   3.014   5.864  0.6271 -0.2835 -0.6020
  253MOL0     C34039  10.827   3.084   5.980  0.7276  0.4012 -0.0205
  253MOL0     C34040  10.743   3.031   6.090  0.0785 -0.9164 -0.7056
  253MOL0     C34041  10.676   3.149   6.168 -0.1501 -0.9760  0.3446
  253MOL0     C34042  10.549   3.224   6.112 -0.0113  0.0492  0.6390
  253MOL0     C34043  10.525   3.347   6.194 -0.2482  0.3195 -0.4369
  253MOL0     O34044  10.603   3.463   6.154 -0.2100 -0.3556  0.4694
  253MOL0     C34045  10.547   3.538   6.054  0.0231  0.0638 -0.4528
  253MOL0     C34046  10.625   3.571   5.944 -0.8566 -0.0343 -0.2101
  253MOL0     C34047  10.572   3.661   5.847 -0.1484 -0.2828  0.6113
  253MOL0     C34048  10.662   3.694   5.727  0.2253  1.2188  0.1450
  253MOL0     C34049  10.448   3.718   5.862 -0.3748  0.7111  0.1925
  253MOL0     C34050  10.374   3.796   5.761  0.1533 -0.2114 -0.7261
  253MOL0     O34051  10.429   3.784   5.632 -0.0896  0.0370 -0.2370
  253MOL0     C34052  10.383   3.857   5.522  0.3519  0.5501  0.6236
  253MOL0     C34053  10.314   3.983   5.534  0.0145 -0.2042  0.3659
  253MOL0     C34054  10.269   4.052   5.420 -0.0887 -0.3691  0.3641
  253MOL0     C34055  10.285   4.000   5.293  0.8519  0.4752 -0.4081
  253MOL0     O34056  10.224   4.068   5.188  0.5918  0.3226 -0.2201
  253MOL0     C34057  10.194   4.001   5.071  0.8565 -0.1413  0.7869
  253MOL0     C34058  10.098   4.089   4.996 -0.2770 -0.5319  0.3356
  253MOL0     C34059  10.160   4.213   4.935 -0.1368 -0.3292 -0.4770
  253MOL0     C34060  10.163   4.209   4.778 -0.2927  0.5435  0.3149
  253MOL0     C34061  10.240   4.081   4.729  0.0825  0.3414 -0.4619
  253MOL0     C34062  10.280   4.086   4.589 -0.0089  0.2252 -0.4538
  253MOL0     C34063  10.417   4.147   4.548 -0.4162  0.1486  0.2419
  253MOL0     C34064  10.423   4.128   4.398  0.7154 -0.5853 -1.1477
  253MOL0    Cl34065  10.338   4.246   4.293  0.1579 -0.1275 -0.1743
  253MOL0     C34066  10.341   3.872   5.276  0.0441 -0.5002  0.3854
  253MOL0     C34067  10.398   3.807   5.388 -0.2463 -0.1147 -0.3008
  253MOL0     O34068  10.277   3.855   5.792  0.0660 -0.6361 -0.4457
  253MOL0     C34069  10.379   3.692   5.983 -0.0263  0.2398  0.8497
  253MOL0     C34070  10.429   3.604   6.078  0.3080 -0.3012 -0.7781
  253MOL0     N34071  10.871   3.214   5.970 -0.5043  0.3147  0.2698
  253MOL0     N34072  10.907   3.230   5.847 -0.1973 -0.2663 -0.6455
  253MOL0     C34073  10.278   2.907   4.796 -0.2573 -0.1438  0.6103
  253MOL0     C34074  10.167   2.881   4.712 -0.1758 -0.4994 -1.1215
  253MOL0     C34075   9.855   2.753   4.450 -0.3886 -0.8921  0.2416
  253MOL0     C34076   9.821   2.796   4.320  0.9112 -0.1378 -0.7334
  253MOL0     C34077   9.699   2.764   4.263  0.2077  0.3287 -0.2277
  253MOL0     C34078   9.606   2.692   4.329  0.5099  0.2310 -0.0439
  253MOL0     O34079   9.471   2.657   4.292 -0.1747 -0.4691  0.4050
  253MOL0     C34080   9.419   2.726   4.178 -0.2910  0.3987 -0.6066
  253MOL0     C34081   9.350   2.854   4.230 -0.0321  0.7055  0.0341
  253MOL0     C34082   9.251   2.845   4.343  0.2990 -0.8713 -0.1250
  253MOL0     C34083   9.181   2.980   4.372 -0.4851 -0.9106  0.1339
  253MOL0     C34084   9.085   2.979   4.476  0.1586  0.8515  0.3584
  253MOL0     C34085   9.013   2.939   4.569  1.0596 -0.0257  0.9582
  253MOL0     C34086   9.639   2.640   4.455  0.1854  0.0515 -1.1514
  253MOL0     C34087   9.765   2.671   4.514 -0.4814 -0.2535 -0.2910
  253MOL0     H34088  10.165   2.550   4.719  0.3312  0.2496 -1.3345
  253MOL0     H34089  10.364   2.588   4.882  1.8449  0.3732 -1.3202
  253MOL0     H34090  10.413   2.695   5.082  0.0364  0.5890  1.8133
  253MOL0     H34091  10.555   2.665   4.964  1.1886 -2.4814  2.0101
  253MOL0     H34092  10.547   2.899   5.170  1.3239  0.1176  0.2274
  253MOL0     H34093  10.601   2.742   5.222 -1.2274  0.1272 -0.3081
  253MOL0     H34094  10.795   2.726   5.090 -0.1864 -0.0604 -3.0028
  253MOL0     H34095  10.742   2.834   4.974 -2.6654 -0.6485  0.2323
  253MOL0     H34096  10.904   2.949   5.133 -2.2377  0.8462 -5.0886
  253MOL0     H34097  10.747   3.025   5.161 -0.4856  0.4916 -0.1708
  253MOL0     H34098  10.721   2.852   5.361 -0.6662 -1.5539 -2.5594
  253MOL0     H34099  10.883   2.816   5.329 -1.0992 -0.3890  0.0642
  253MOL0     H34100  10.962   3.037   5.371 -0.1590 -1.3774 -2.0464
  253MOL0     H34101  10.799   3.104   5.374  1.7563 -0.1736  0.7517
  253MOL0     H34102  10.761   2.992   5.614 -0.3312 -2.7557  0.4386
  253MOL0     H34103  10.890   2.886   5.572 -3.5586 -1.1255  2.4044
  253MOL0     H34104  10.937   3.182   5.587 -3.7322  1.3356  1.9531
  253MOL0     H34105  11.050   3.041   5.631  0.7622  1.8477 -0.8843
  253MOL0     H34106  10.836   2.913   5.831  1.3164 -0.0203 -1.9378
  253MOL0     H34107  10.669   2.960   6.054 -1.5657  0.7808 -0.8382
  253MOL0     H34108  10.804   2.977   6.162 -4.1263  1.3586  5.4133
  253MOL0     H34109  10.756   3.219   6.195 -0.7014 -0.2792  0.1919
  253MOL0     H34110  10.630   3.102   6.256  1.5139 -0.8206  1.3483
  253MOL0     H34111  10.461   3.159   6.123  0.6107 -1.2193 -1.4083
  253MOL0     H34112  10.548   3.243   6.005 -0.7123  4.2105  1.2398
  253MOL0     H34113  10.550   3.332   6.300  1.8036  3.7173 -0.2871
  253MOL0     H34114  10.417   3.354   6.181 -0.2075 -0.8259 -1.5125
  253MOL0     H34115  10.728   3.537   5.940 -0.4715  1.1638 -0.6382
  253MOL0     H34116  10.662   3.803   5.723  1.2789  1.2405  0.2547
  253MOL0     H34117  10.760   3.649   5.747 -1.2371 -2.3995 -0.0462
  253MOL0     H34118  10.627   3.648   5.634  1.3575  0.6634 -0.0282
  253MOL0     H34119  10.299   4.025   5.633 -1.9700 -2.7886  1.2894
  253MOL0     H34120  10.211   4.142   5.434 -1.1661 -1.3686  2.9630
  253MOL0     H34121  10.289   3.992   5.018  1.0521  1.4232  0.8286
  253MOL0     H34122  10.157   3.899   5.086 -0.2262 -0.0546 -0.9844
  253MOL0     H34123  10.049   4.024   4.923  2.4402 -1.6687 -0.5677
  253MOL0     H34124  10.013   4.128   5.053 -0.1922  0.1950 -0.0149
  253MOL0     H34125  10.258   4.232   4.979 -1.3958  0.9168  1.9797
  253MOL0     H34126  10.105   4.301   4.968 -0.9302 -0.5909 -1.0396
  253MOL0     H34127  10.060   4.212   4.742 -0.0411  1.2632 -0.3651
  253MOL0     H34128  10.214   4.300   4.747 -1.2807  1.2571  0.7287
  253MOL0     H34129  10.193   3.984   4.747  0.5490  0.1791 -0.0828
  253MOL0     H34130  10.329   4.074   4.794 -0.5827 -1.9021  0.3189
  253MOL0     H34131  10.280   3.983   4.552 -1.0411  0.3890 -0.9429
  253MOL0     H34132  10.198   4.136   4.535 -1.8094 -1.2025  0.8522
  253MOL0     H34133  10.512   4.108   4.584 -0.2994 -2.8332 -2.7758
  253MOL0     H34134  10.418   4.252   4.578  0.4932 -0.1786  1.4188
  253MOL0     H34135  10.389   4.027   4.374 -0.4752 -0.4956  0.0250
  253MOL0     H34136  10.529   4.139   4.376  0.9054 -2.0618 -1.0717
  253MOL0     H34137  10.357   3.839   5.174 -0.8292  1.2860 -0.3640
  253MOL0     H34138  10.463   3.720   5.385  0.8486  0.5222  2.1578
  253MOL0     H34139  10.282   3.733   6.011 -0.6183  0.7251 -1.6782
  253MOL0     H34140  10.370   3.595   6.169  0.7639  1.5997 -0.2544
  253MOL0     H34141  10.325   3.002   4.816  0.3048 -0.4134  0.5843
  253MOL0     H34142  10.113   2.961   4.661 -0.7314 -1.0393 -1.3894
  253MOL0     H34143   9.890   2.849   4.256  0.1377 -0.8307 -2.1857
  253MOL0     H34144   9.680   2.786   4.159 -0.1554 -2.7348 -0.8807
  253MOL0     H34145   9.493   2.765   4.109 -0.2633 -0.6202 -1.1756
  253MOL0     H34146   9.362   2.654   4.118  1.5379  1.2910 -3.5772
  253MOL0     H34147   9.304   2.894   4.139  0.1901  1.5630  0.2965
  253MOL0     H34148   9.425   2.926   4.264 -0.9500  1.0074  1.4991
  253MOL0     H34149   9.312   2.821   4.430  1.7563  1.4067 -0.4434
  253MOL0     H34150   9.178   2.768   4.316  0.5600 -0.5209 -1.9874
  253MOL0     H34151   9.143   3.021   4.278 -2.7308  0.1809  1.4515
  253MOL0     H34152   9.256   3.053   4.406 -0.5743 -1.2703  1.1496
  253MOL0     H34153   8.950   2.901   4.647  0.1439  0.6162  0.5500
  253MOL0     H34154   9.560   2.602   4.519 -0.4823  1.8441 -0.8405
  253MOL0     H34155   9.789   2.631   4.613 -1.0159  1.9924  0.8130
  254MOL0     O34156   1.819   3.891   6.423 -0.6851  0.7096 -0.0651
  254MOL0     C34157   1.873   3.990   6.453  0.8441 -0.5793 -0.4874
  254MOL0     O34158   1.808   4.104   6.476 -0.1224 -0.1343  0.6750
  254MOL0     C34159   1.679   4.116   6.442 -0.0727 -0.1307 -0.0362
  254MOL0     C34160   1.599   4.147   6.546  0.8457 -0.7176  0.1171
  254MOL0     C34161   1.457   4.173   6.524 -0.3158  0.6352 -0.6985
  254MOL0     C34162   1.400   4.156   6.397 -1.3087 -0.0604  0.1665
  254MOL0     O34163   1.274   4.155   6.357  0.0635 -0.0743 -0.3137
  254MOL0     C34164   1.175   4.164   6.459  0.1647  0.4216  0.5272
  254MOL0     C34165   1.047   4.169   6.384  0.1033  0.2130 -0.0820
  254MOL0     C34166   0.922   4.160   6.467  0.5307  0.9042 -0.1492
  254MOL0     C34167   0.804   4.159   6.365 -0.2369  0.0421  0.6275
  254MOL0     C34168   0.667   4.153   6.447 -0.2440 -0.0321  0.3159
  254MOL0     C34169   0.641   4.291   6.494  0.4191 -0.0642 -0.1712
  254MOL0     C34170   0.501   4.298   6.566 -0.6678 -0.0843 -0.2951
  254MOL0     C34171   0.467   4.452   6.598 -0.2525  0.0616  0.7141
  254MOL0     N34172   0.398   4.512   6.484 -0.2578  0.7904  0.2757
  254MOL0     C34173   0.266   4.554   6.475 -0.2064 -0.2462  0.0246
  254MOL0     C34174   0.260   4.624   6.360  0.0691 -0.1814  0.5600
  254MOL0     C34175   0.130   4.682   6.315  0.4716 -0.1387  0.1170
  254MOL0     C34176   0.146   4.829   6.289 -0.8709  0.6470 -0.3210
  254MOL0     C34177   0.031   4.897   6.223 -0.7279  0.0463 -0.3686
  254MOL0     C34178  -0.092   4.907   6.316  0.7178  0.0890  0.3694
  254MOL0     O34179  -0.201   4.976   6.253 -0.6796  0.0745  0.5722
  254MOL0     C34180  -0.239   5.094   6.301  0.3264  0.2059 -0.3339
  254MOL0     C34181  -0.155   5.206   6.283  0.3789  0.8868  1.0254
  254MOL0     C34182  -0.201   5.338   6.290  0.3287 -0.1213 -0.7013
  254MOL0     C34183  -0.101   5.453   6.260  0.7480  0.9959 -0.6331
  254MOL0     C34184  -0.335   5.358   6.333 -0.8946  0.2042 -0.3646
  254MOL0     C34185  -0.390   5.489   6.380 -0.7813  0.2031  1.2604
  254MOL0     O34186  -0.332   5.601   6.332  0.8445 -0.4443  0.1457
  254MOL0     C34187  -0.373   5.717   6.389  0.0696 -0.1761  0.2965
  254MOL0     C34188  -0.507   5.753   6.389  0.5255 -0.2695  0.6931
  254MOL0     C34189  -0.546   5.886   6.434 -0.6781 -0.6435  0.4509
  254MOL0     C34190  -0.456   5.975   6.491 -0.5031 -0.5342 -0.3436
  254MOL0     O34191  -0.509   6.095   6.540  0.1952  0.0319  0.0456
  254MOL0     C34192  -0.424   6.206   6.568  0.5876  0.6520  0.0808
  254MOL0     C34193  -0.499   6.341   6.577  0.7531  0.0686 -0.1908
  254MOL0     C34194  -0.619   6.326   6.668  0.3371  0.6678  0.4219
  254MOL0     C34195  -0.667   6.466   6.702  0.0127  0.6706 -0.4403
  254MOL0     C34196  -0.799   6.452   6.781 -0.5611 -0.1709  0.4389
  254MOL0     C34197  -0.837   6.580   6.864  0.6288  0.6849 -0.4022
  254MOL0     C34198  -0.824   6.712   6.790  0.1045 -0.1284 -0.0995
  254MOL0     C34199  -0.938   6.817   6.823  0.5332 -0.5409  0.1811
  254MOL0    Cl34200  -0.909   6.865   6.997  0.3701  0.0756 -0.4685
  254MOL0     C34201  -0.319   5.928   6.496  0.0462 -1.0734 -0.2853
  254MOL0     C34202  -0.280   5.807   6.445  0.4177 -0.4006  0.6430
  254MOL0     O34203  -0.473   5.478   6.470 -1.1874  0.8993  0.4257
  254MOL0     C34204  -0.416   5.245   6.331 -0.3795 -0.6800 -1.1087
  254MOL0     C34205  -0.375   5.110   6.323  0.4340 -1.1099  0.8292
  254MOL0     N34206   0.389   4.634   6.311  0.4080 -0.2069 -0.1281
  254MOL0     N34207   0.469   4.568   6.384  0.1794 -1.1268  0.7078
  254MOL0     C34208   1.487   4.131   6.288  0.2308 -0.4055 -0.2992
  254MOL0     C34209   1.623   4.120   6.306 -0.0518 -0.5488  0.1770
  254MOL0     C34210   2.019   3.970   6.474 -1.4088 -0.0320  0.3403
  254MOL0     C34211   2.091   3.864   6.415 -0.1841 -0.5184 -1.0691
  254MOL0     C34212   2.228   3.845   6.441  0.2186 -0.7409 -1.1404
  254MOL0     C34213   2.295   3.932   6.525 -0.2173  0.4614 -0.6403
  254MOL0     O34214   2.427   3.894   6.536  0.1144  0.3798 -0.7198
  254MOL0     C34215   2.508   3.972   6.619  0.1508  0.2832  0.5470
  254MOL0     C34216   2.634   3.904   6.671  0.4960 -0.3300 -0.0220
  254MOL0     C34217   2.683   3.992   6.791 -0.2947  0.6912 -0.6130
  254MOL0     C34218   2.809   3.928   6.849  0.4050  0.0673  0.2174
  254MOL0     C34219   2.792   3.793   6.909  0.7549  0.5454  0.9895
  254MOL0     C34220   2.776   3.680   6.945  0.1237 -0.1527  0.6001
  254MOL0     C34221   2.227   4.031   6.589  0.4826 -0.7534 -0.5745
  254MOL0     C34222   2.091   4.047   6.558  0.7260  0.3160  0.0235
  254MOL0     H34223   1.659   4.160   6.635  1.6632 -2.1760 -0.1935
  254MOL0     H34224   1.394   4.191   6.611  1.9210  1.3197  0.8770
  254MOL0     H34225   1.183   4.068   6.509 -2.8709  0.2867  0.9511
  254MOL0     H34226   1.182   4.240   6.537  3.1452 -0.4186  1.1790
  254MOL0     H34227   1.043   4.266   6.333  1.3492  0.5623  0.4596
  254MOL0     H34228   1.046   4.093   6.305  2.4861  1.3007 -1.2798
  254MOL0     H34229   0.934   4.062   6.515  1.3230  0.1780 -1.7776
  254MOL0     H34230   0.914   4.241   6.541 -1.3145  0.5153  0.1220
  254MOL0     H34231   0.809   4.240   6.292 -0.5916  0.8394  1.4734
  254MOL0     H34232   0.828   4.073   6.301  3.9034  2.2340 -1.1515
  254MOL0     H34233   0.582   4.118   6.386 -0.2051  1.9966 -0.9974
  254MOL0     H34234   0.675   4.085   6.533  2.2430 -1.3600 -0.8734
  254MOL0     H34235   0.720   4.329   6.560 -0.5397 -0.6346  1.3733
  254MOL0     H34236   0.638   4.349   6.402  3.4741 -3.1957 -2.5317
  254MOL0     H34237   0.437   4.251   6.490  2.0636 -1.7683 -1.6793
  254MOL0     H34238   0.494   4.248   6.663 -1.7856  1.4370  0.4575
  254MOL0     H34239   0.558   4.504   6.630 -0.3365  0.0739  0.9364
  254MOL0     H34240   0.396   4.459   6.681 -0.1557 -1.5144  0.9470
  254MOL0     H34241   0.184   4.545   6.546 -1.1539  0.1416 -0.9850
  254MOL0     H34242   0.083   4.635   6.228  1.1236 -1.6965  0.5735
  254MOL0     H34243   0.055   4.673   6.395  0.7407  1.5289  0.5827
  254MOL0     H34244   0.220   4.818   6.209 -2.8103  1.6046 -2.3534
  254MOL0     H34245   0.185   4.882   6.377 -1.5161 -1.0783  1.0736
  254MOL0     H34246   0.001   4.840   6.134  0.9900 -1.4134 -0.0742
  254MOL0     H34247   0.064   5.001   6.210  1.2339 -0.0778  2.6610
  254MOL0     H34248  -0.055   4.965   6.401 -1.7975  1.8315  0.3628
  254MOL0     H34249  -0.113   4.800   6.328  1.2380 -0.1932 -0.9620
  254MOL0     H34250  -0.052   5.187   6.253 -0.0036  0.3369 -0.0063
  254MOL0     H34251  -0.092   5.513   6.351  3.8469 -2.4748  1.6515
  254MOL0     H34252  -0.004   5.409   6.238  2.0696  3.6409 -0.5108
  254MOL0     H34253  -0.144   5.514   6.180 -0.3865 -0.9169 -1.5635
  254MOL0     H34254  -0.592   5.699   6.350 -0.6806  0.9106  1.5785
  254MOL0     H34255  -0.649   5.911   6.411 -0.8344  0.3060  2.0235
  254MOL0     H34256  -0.359   6.200   6.656  1.8175  0.1113 -0.8369
  254MOL0     H34257  -0.351   6.212   6.487  1.2809  1.8274  0.7576
  254MOL0     H34258  -0.433   6.415   6.624 -0.0565  2.1610 -2.1821
  254MOL0     H34259  -0.524   6.377   6.477  1.1400  0.7806 -0.0407
  254MOL0     H34260  -0.586   6.269   6.755 -1.3687  0.8685  1.2289
  254MOL0     H34261  -0.705   6.279   6.620 -0.1714  1.1211  0.8792
  254MOL0     H34262  -0.583   6.508   6.757  0.2141 -1.9104  1.3696
  254MOL0     H34263  -0.698   6.523   6.614 -0.7837 -2.7071 -2.5309
  254MOL0     H34264  -0.786   6.358   6.836 -0.2312 -1.1301 -1.2035
  254MOL0     H34265  -0.887   6.438   6.716 -3.3882 -0.9904  4.0785
  254MOL0     H34266  -0.940   6.574   6.900  0.3914  0.1309 -1.1378
  254MOL0     H34267  -0.784   6.586   6.959 -0.5054  1.9998  0.1785
  254MOL0     H34268  -0.825   6.694   6.682 -0.6950  1.2827 -0.3538
  254MOL0     H34269  -0.731   6.765   6.814  0.3758 -0.1750 -0.9952
  254MOL0     H34270  -1.037   6.770   6.817 -0.0261  0.5626  0.3778
  254MOL0     H34271  -0.937   6.907   6.760  0.7953  0.1888  1.2108
  254MOL0     H34272  -0.237   5.992   6.527  1.2424 -2.3947 -0.6046
  254MOL0     H34273  -0.173   5.789   6.443  0.1373 -2.2483  0.3060
  254MOL0     H34274  -0.523   5.249   6.352 -0.6184 -2.0426 -1.9110
  254MOL0     H34275  -0.449   5.032   6.310 -2.0545  1.0738  1.2391
  254MOL0     H34276   1.443   4.105   6.192  0.3446  0.0495 -0.4823
  254MOL0     H34277   1.692   4.107   6.223  0.6646 -1.1594  0.8490
  254MOL0     H34278   2.020   3.805   6.358 -0.8513 -1.6550  0.8370
  254MOL0     H34279   2.284   3.759   6.406  3.2213  0.7580 -0.3144
  254MOL0     H34280   2.543   4.059   6.564  0.0776 -0.7480 -1.1968
  254MOL0     H34281   2.444   3.986   6.707  0.1885 -3.8102  1.4187
  254MOL0     H34282   2.715   3.901   6.598  3.5987 -2.9682  3.1730
  254MOL0     H34283   2.617   3.803   6.708 -0.0234 -0.1082  0.3660
  254MOL0     H34284   2.607   3.994   6.869 -0.5748 -0.1337 -0.8550
  254MOL0     H34285   2.707   4.092   6.755 -0.8314  0.5611 -1.3646
  254MOL0     H34286   2.862   3.994   6.918  0.8593 -1.6614  1.5820
  254MOL0     H34287   2.866   3.912   6.757 -2.1438  3.5066 -2.2248
  254MOL0     H34288   2.766   3.577   6.974  1.0193  0.2031  2.2871
  254MOL0     H34289   2.282   4.098   6.654  0.6728  0.6301 -2.0925
  254MOL0     H34290   2.046   4.123   6.621  0.8271 -0.7796  1.4781
  255MOL0     O34291   4.005   9.431   3.868 -0.5708 -0.0838  0.5039
  255MOL0     C34292   4.064   9.445   3.760  0.7259  0.3153 -0.6343
  255MOL0     O34293   4.010   9.510   3.646 -0.4547  0.4279 -0.3105
  255MOL0     C34294   3.880   9.558   3.661  0.0897  0.0105 -0.2572
  255MOL0     C34295   3.779   9.468   3.628  0.0295  0.5337 -0.2254
  255MOL0     C34296   3.647   9.491   3.661  0.7770  0.2688 -0.1054
  255MOL0     C34297   3.612   9.610   3.715  0.0651 -0.2085  0.5819
  255MOL0     O34298   3.476   9.636   3.738 -0.4175 -0.1841  0.4310
  255MOL0     C34299   3.432   9.730   3.842 -0.0694 -0.5053  0.7501
  255MOL0     C34300   3.299   9.668   3.879 -0.6346 -1.0395  0.2021
  255MOL0     C34301   3.219   9.736   3.995 -0.0898 -0.0906 -0.8527
  255MOL0     C34302   3.208   9.891   3.966 -0.2115 -1.2159  0.2143
  255MOL0     C34303   3.137   9.959   4.084  0.2510 -0.4632  0.2392
  255MOL0     C34304   3.040  10.071   4.030 -0.2861 -0.3160 -0.4114
  255MOL0     C34305   2.911  10.007   3.979 -0.5827 -0.2318  0.1143
  255MOL0     C34306   2.821  10.122   3.937  0.3383  0.5516  0.4717
  255MOL0     N34307   2.689  10.061   3.909  0.0809  0.2384 -0.0825
  255MOL0     C34308   2.645  10.028   3.784  0.5648 -0.5034  0.2650
  255MOL0     C34309   2.514   9.999   3.794 -0.0394  0.3476  0.3773
  255MOL0     C34310   2.426   9.934   3.685 -0.1647 -0.1977  0.3568
  255MOL0     C34311   2.298  10.004   3.673 -0.1472  0.0045  0.5713
  255MOL0     C34312   2.196   9.964   3.782  0.7845  0.1010  0.3850
  255MOL0     C34313   2.056   9.993   3.744  0.6826 -0.2746  0.6176
  255MOL0     O34314   2.005   9.894   3.650 -0.3996 -0.9548 -0.2055
  255MOL0     C34315   1.869   9.867   3.639 -0.4034 -0.6880 -1.3739
  255MOL0     C34316   1.840   9.754   3.566 -0.2942 -0.3963 -0.5777
  255MOL0     C34317   1.705   9.711   3.533 -1.3492 -0.1549  0.0341
  255MOL0     C34318   1.685   9.579   3.465 -0.5107 -0.0229 -0.5198
  255MOL0     C34319   1.605   9.798   3.587 -0.4230 -0.3589 -0.9235
  255MOL0     C34320   1.460   9.773   3.573 -0.7936  0.2393 -0.6530
  255MOL0     O34321   1.388   9.877   3.617 -0.0967 -0.3268 -0.7278
  255MOL0     C34322   1.257   9.891   3.564 -0.5838  0.1260  0.7843
  255MOL0     C34323   1.234   9.988   3.468  0.8027 -0.4764  0.0542
  255MOL0     C34324   1.105  10.020   3.426  0.2764 -0.2270 -0.4357
  255MOL0     C34325   0.999   9.959   3.487  0.0468 -0.4089  0.9190
  255MOL0     O34326   0.878   9.987   3.434 -0.3413 -0.0368 -0.1867
  255MOL0     C34327   0.762   9.902   3.466 -0.6732  0.1774 -0.4346
  255MOL0     C34328   0.651   9.946   3.378  0.2377 -0.0059 -0.2951
  255MOL0     C34329   0.522   9.856   3.408  0.4848 -0.3734 -0.2449
  255MOL0     C34330   0.393   9.909   3.349 -0.1913  0.1859 -0.0937
  255MOL0     C34331   0.274   9.837   3.401  0.9997 -0.9801 -0.7358
  255MOL0     C34332   0.138   9.897   3.367 -0.5273 -0.4277 -0.2858
  255MOL0     C34333   0.024   9.804   3.417 -0.3216  0.8279 -0.0636
  255MOL0     C34334  -0.099   9.874   3.395 -0.2705  0.3183  0.2653
  255MOL0    Cl34335  -0.114  10.015   3.506  0.1568  0.3431 -0.4855
  255MOL0     C34336   1.018   9.868   3.589  0.1462  0.1915  0.1508
  255MOL0     C34337   1.147   9.833   3.621 -0.4110  0.0208 -0.1529
  255MOL0     O34338   1.421   9.674   3.510  0.5532  0.2223  0.3663
  255MOL0     C34339   1.641   9.899   3.684 -0.2792  0.2742  0.1267
  255MOL0     C34340   1.772   9.943   3.699  0.7243  0.4466  0.5342
  255MOL0     N34341   2.477  10.020   3.928  0.2534  0.6215  0.0926
  255MOL0     N34342   2.583  10.048   3.993 -0.5644  0.5602  0.9533
  255MOL0     C34343   3.710   9.701   3.749 -0.7036 -0.1855 -0.3265
  255MOL0     C34344   3.843   9.666   3.734 -0.6576 -0.2580 -0.1883
  255MOL0     C34345   4.199   9.382   3.736 -0.1376 -0.0908 -0.9471
  255MOL0     C34346   4.265   9.299   3.828 -0.3180  0.0218  0.3679
  255MOL0     C34347   4.391   9.244   3.800  0.3275  0.9950 -1.2735
  255MOL0     C34348   4.465   9.269   3.691 -0.0584 -0.1202 -0.6480
  255MOL0     O34349   4.601   9.234   3.684  0.3774  0.3313  0.5502
  255MOL0     C34350   4.683   9.261   3.570 -0.4130 -0.2909  0.5306
  255MOL0     C34351   4.827   9.213   3.590  0.1677  0.1984 -1.1758
  255MOL0     C34352   4.826   9.071   3.607  0.6710 -1.1606 -0.4961
  255MOL0     C34353   4.951   9.025   3.675  0.3533 -0.0812 -0.4089
  255MOL0     C34354   5.080   9.044   3.604  0.9452 -0.4216  0.4934
  255MOL0     C34355   5.173   9.069   3.531 -0.1740  0.5704 -0.4428
  255MOL0     C34356   4.406   9.355   3.597  0.9639  0.8934  0.1010
  255MOL0     C34357   4.277   9.409   3.616 -0.4539 -0.4436  0.0758
  255MOL0     H34358   3.795   9.380   3.567 -1.7321  0.9993 -1.4511
  255MOL0     H34359   3.572   9.414   3.654  0.2406  0.7139  0.6319
  255MOL0     H34360   3.510   9.747   3.917  3.4830 -0.5005 -2.6334
  255MOL0     H34361   3.409   9.829   3.801 -2.3652 -0.7945  1.1965
  255MOL0     H34362   3.225   9.692   3.802 -0.2902  0.1409  0.2337
  255MOL0     H34363   3.317   9.560   3.884  0.9960 -1.0253 -2.8699
  255MOL0     H34364   3.128   9.678   4.011 -1.4516  2.2034  0.4136
  255MOL0     H34365   3.263   9.736   4.095  0.7212  3.1563 -1.0833
  255MOL0     H34366   3.299   9.950   3.955 -0.0865 -1.8146 -3.1044
  255MOL0     H34367   3.148   9.895   3.875 -2.6086 -1.1771  1.7144
  255MOL0     H34368   3.072   9.890   4.137  0.0986  0.0218  0.6867
  255MOL0     H34369   3.209  10.005   4.152 -1.2049  1.0893  0.7967
  255MOL0     H34370   3.016  10.146   4.106  0.7295  0.4415 -0.8188
  255MOL0     H34371   3.091  10.106   3.940  1.4236 -0.0049  0.6396
  255MOL0     H34372   2.920   9.942   3.891  1.9803 -0.2462  0.3227
  255MOL0     H34373   2.865   9.958   4.066 -1.0917 -2.1454 -1.1637
  255MOL0     H34374   2.862  10.155   3.841 -3.6430  1.8770 -0.9624
  255MOL0     H34375   2.818  10.195   4.018 -0.2891  0.8473  0.1918
  255MOL0     H34376   2.702  10.026   3.691 -0.7124  1.4881 -0.6163
  255MOL0     H34377   2.480   9.937   3.590 -0.0448  1.1645  0.4421
  255MOL0     H34378   2.418   9.825   3.689  3.0947 -0.5539  0.0127
  255MOL0     H34379   2.252   9.974   3.578  3.0986  1.7150 -1.7312
  255MOL0     H34380   2.324  10.111   3.668  1.3461 -0.3629 -0.0254
  255MOL0     H34381   2.211  10.014   3.878 -2.0674  1.2722  0.3338
  255MOL0     H34382   2.212   9.857   3.799 -1.9912 -0.2192  1.5542
  255MOL0     H34383   2.038  10.090   3.697  3.5551 -0.6225 -1.4639
  255MOL0     H34384   2.004   9.985   3.840  2.7693  0.5101  1.8930
  255MOL0     H34385   1.922   9.686   3.544 -0.9242 -1.3668 -0.0612
  255MOL0     H34386   1.770   9.513   3.484  0.4184  1.1204 -0.6795
  255MOL0     H34387   1.604   9.527   3.518 -1.3682 -0.3979 -2.1071
  255MOL0     H34388   1.655   9.566   3.360 -1.1838 -3.3359 -0.0492
  255MOL0     H34389   1.322  10.022   3.414  0.5309 -1.9415 -1.3947
  255MOL0     H34390   1.080  10.086   3.344 -0.6842  2.1743  1.6613
  255MOL0     H34391   0.778   9.795   3.447 -2.0632 -0.2871  0.8184
  255MOL0     H34392   0.743   9.917   3.572  0.1182  2.5006 -0.5648
  255MOL0     H34393   0.625  10.048   3.409 -4.7568 -1.6000  1.8175
  255MOL0     H34394   0.675   9.935   3.272 -2.2197 -1.6819 -0.7706
  255MOL0     H34395   0.513   9.846   3.517  2.8226 -0.8275 -0.0442
  255MOL0     H34396   0.533   9.752   3.375 -2.6858 -1.1850  0.8587
  255MOL0     H34397   0.386  10.014   3.377  0.8470 -0.1720  1.6890
  255MOL0     H34398   0.391   9.895   3.241  3.3704 -0.2090 -0.2057
  255MOL0     H34399   0.281   9.831   3.510  1.8825 -3.2077 -0.8677
  255MOL0     H34400   0.275   9.738   3.355  3.2136 -1.6635  0.6290
  255MOL0     H34401   0.126   9.990   3.423  0.3128  0.2366 -1.1943
  255MOL0     H34402   0.132   9.913   3.259  1.8587 -2.0255 -0.7190
  255MOL0     H34403   0.039   9.792   3.525  0.6723  2.5051  0.0360
  255MOL0     H34404   0.040   9.716   3.355  2.5077  2.7118 -2.2554
  255MOL0     H34405  -0.188   9.812   3.406  0.4653 -0.7043  0.5694
  255MOL0     H34406  -0.091   9.917   3.295  1.3289 -2.2554 -0.7998
  255MOL0     H34407   0.939   9.834   3.654  0.2813 -3.0074 -1.1555
  255MOL0     H34408   1.170   9.766   3.703 -2.1653  1.3188  1.4869
  255MOL0     H34409   1.572   9.957   3.744  0.4003 -0.4575  1.6830
  255MOL0     H34410   1.794  10.026   3.766 -1.7352  0.7354  1.0904
  255MOL0     H34411   3.699   9.793   3.805 -1.9154 -1.5136  1.7460
  255MOL0     H34412   3.924   9.724   3.778 -0.2442 -2.4307  2.1743
  255MOL0     H34413   4.216   9.279   3.922  1.6273 -1.3449  1.1492
  255MOL0     H34414   4.435   9.179   3.876 -1.0359  1.8676  0.3400
  255MOL0     H34415   4.639   9.223   3.477  1.4876 -0.4439 -0.3443
  255MOL0     H34416   4.694   9.368   3.551  0.0686 -0.4368 -0.0317
  255MOL0     H34417   4.851   9.274   3.678  0.2625  1.0972 -1.8094
  255MOL0     H34418   4.888   9.247   3.506 -0.3787  2.5690 -0.7026
  255MOL0     H34419   4.807   9.023   3.511 -2.7784 -2.9278  0.8971
  255MOL0     H34420   4.746   9.054   3.679  1.4047  0.7822  0.8408
  255MOL0     H34421   4.933   8.918   3.690  0.3431  0.0945  0.9415
  255MOL0     H34422   4.963   9.081   3.769 -2.2983  0.4263 -0.2900
  255MOL0     H34423   5.260   9.085   3.472 -0.4366  0.5852 -0.8294
  255MOL0     H34424   4.457   9.388   3.508 -1.5505 -0.4442 -1.9643
  255MOL0     H34425   4.231   9.468   3.538  0.3906 -1.0522 -0.9213
  256MOL0     O34426   5.343   8.725   7.771  0.9910  0.1640  0.3331
  256MOL0     C34427   5.345   8.821   7.847 -0.1056 -0.1499 -0.2831
  256MOL0     O34428   5.247   8.924   7.851 -0.4062  0.0955  0.0164
  256MOL0     C34429   5.140   8.928   7.770  1.0637 -0.1477  0.1689
  256MOL0     C34430   5.135   8.880   7.637  0.6356  1.7884 -0.8119
  256MOL0     C34431   5.028   8.909   7.551  0.2906  0.4682  0.6783
  256MOL0     C34432   4.919   8.989   7.600  0.0140  0.7945 -0.3683
  256MOL0     O34433   4.812   9.026   7.525 -0.0385  0.2348  0.3426
  256MOL0     C34434   4.807   9.011   7.383 -0.5690 -0.6457  0.1207
  256MOL0     C34435   4.727   8.883   7.347  0.0912 -0.9638  0.4922
  256MOL0     C34436   4.703   8.870   7.194 -0.3958  0.2905 -0.7126
  256MOL0     C34437   4.617   8.744   7.167 -0.4410  0.3456  0.2773
  256MOL0     C34438   4.476   8.764   7.218  0.1771 -0.0708 -0.6342
  256MOL0     C34439   4.385   8.661   7.162  1.1496 -0.6482  0.1539
  256MOL0     C34440   4.241   8.682   7.209  0.0316 -0.0111  0.4544
  256MOL0     C34441   4.220   8.657   7.365 -0.2095 -0.9319  0.2746
  256MOL0     N34442   4.076   8.674   7.400 -0.4528 -0.1335  0.2049
  256MOL0     C34443   3.999   8.787   7.378  0.0243  0.9576 -0.7422
  256MOL0     C34444   3.878   8.754   7.423  0.0402  0.8248  0.3023
  256MOL0     C34445   3.756   8.840   7.446  0.1895 -0.1404 -0.0808
  256MOL0     C34446   3.743   8.897   7.590  0.2350 -0.5161  0.4958
  256MOL0     C34447   3.809   8.816   7.697  0.4879 -0.5794  0.4804
  256MOL0     C34448   3.783   8.871   7.834 -0.1245  0.1342 -0.2787
  256MOL0     O34449   3.648   8.837   7.882 -0.0945 -0.1662 -0.6623
  256MOL0     C34450   3.604   8.908   7.988 -0.6835  0.6517  0.4288
  256MOL0     C34451   3.471   8.941   7.988 -0.3307 -0.3655  0.4281
  256MOL0     C34452   3.403   9.006   8.089  0.2233  1.1502 -0.0278
  256MOL0     C34453   3.257   9.058   8.054 -0.4666 -0.5468  0.7647
  256MOL0     C34454   3.476   9.040   8.202 -0.4273  0.0988 -0.2822
  256MOL0     C34455   3.415   9.095   8.325 -0.9575  0.4118 -0.0981
  256MOL0     O34456   3.498   9.181   8.397  0.3114  0.1937  0.2432
  256MOL0     C34457   3.447   9.215   8.527 -0.0970 -0.5684  0.7808
  256MOL0     C34458   3.528   9.187   8.632 -0.4891 -0.8104 -0.1009
  256MOL0     C34459   3.498   9.221   8.770  0.2772  0.0710  0.6961
  256MOL0     C34460   3.381   9.288   8.797 -0.0512  0.3978  0.6019
  256MOL0     O34461   3.344   9.321   8.922  0.3066  0.3345  0.2219
  256MOL0     C34462   3.412   9.256   9.029  0.4143  0.1446 -0.2055
  256MOL0     C34463   3.353   9.314   9.153  0.4858  0.2256  1.0895
  256MOL0     C34464   3.437   9.272   9.272  0.3877 -0.2977 -0.6065
  256MOL0     C34465   3.410   9.123   9.315 -0.2768  0.1947 -0.4612
  256MOL0     C34466   3.322   9.119   9.438  0.4318  0.2445  0.4289
  256MOL0     C34467   3.313   8.970   9.495 -1.2455 -0.2222  0.4182
  256MOL0     C34468   3.217   8.967   9.610 -0.6105 -0.2283  0.1544
  256MOL0     C34469   3.178   8.830   9.656  0.9557  0.5181  0.5643
  256MOL0    Cl34470   3.058   8.814   9.781 -0.1346 -0.5213 -0.2201
  256MOL0     C34471   3.302   9.325   8.683  0.4300  0.5286 -0.1017
  256MOL0     C34472   3.328   9.284   8.553 -0.8549  0.5825 -0.0659
  256MOL0     O34473   3.296   9.076   8.351  0.1763  0.1360  0.5158
  256MOL0     C34474   3.611   8.995   8.210  0.3046  0.4434 -0.6352
  256MOL0     C34475   3.678   8.929   8.103  0.5228 -0.0412  0.1405
  256MOL0     N34476   3.884   8.620   7.461 -0.4456  0.3485  0.2224
  256MOL0     N34477   3.999   8.569   7.447 -0.4116  1.1150 -0.2258
  256MOL0     C34478   4.924   9.038   7.727  1.3960  0.3642  0.6153
  256MOL0     C34479   5.031   9.005   7.813  1.4327  0.3796 -0.1581
  256MOL0     C34480   5.471   8.842   7.915  0.3043  0.1789 -0.7161
  256MOL0     C34481   5.587   8.757   7.906 -1.0472 -0.5453  0.0113
  256MOL0     C34482   5.695   8.790   7.982 -0.6513  0.4434  0.6805
  256MOL0     C34483   5.694   8.894   8.069  0.1640  0.8251  1.2161
  256MOL0     O34484   5.801   8.927   8.148 -0.0608 -0.6259  0.1930
  256MOL0     C34485   5.901   8.833   8.202  0.6459  0.7540  1.3365
  256MOL0     C34486   6.015   8.854   8.103 -0.5050  0.2579  1.0701
  256MOL0     C34487   6.086   8.993   8.107  1.3092 -0.0739  0.1300
  256MOL0     C34488   6.157   9.020   7.969  0.2436 -0.2219 -0.1492
  256MOL0     C34489   6.256   9.129   7.979 -0.1781  0.6256  0.3947
  256MOL0     C34490   6.334   9.223   7.990  0.3490 -0.8480 -0.6548
  256MOL0     C34491   5.582   8.977   8.076  0.3282 -0.1760 -0.3595
  256MOL0     C34492   5.470   8.948   8.010  0.0070 -0.2769  1.3272
  256MOL0     H34493   5.215   8.821   7.593 -0.2113 -0.1636  0.1505
  256MOL0     H34494   5.045   8.876   7.449  2.9926  1.6912  0.6628
  256MOL0     H34495   4.760   9.099   7.339 -1.8640 -0.5761  1.5573
  256MOL0     H34496   4.912   9.000   7.353  0.7790  2.0965  3.1716
  256MOL0     H34497   4.790   8.804   7.388 -0.3505 -1.1749  0.7725
  256MOL0     H34498   4.634   8.886   7.405  0.5543  0.0571  1.2225
  256MOL0     H34499   4.652   8.961   7.164 -0.3276  0.3825 -0.5555
  256MOL0     H34500   4.802   8.852   7.151  0.9885 -0.7282  2.5729
  256MOL0     H34501   4.616   8.731   7.058 -2.4756  1.2168  0.1506
  256MOL0     H34502   4.661   8.661   7.222  0.5876  1.4052  1.1094
  256MOL0     H34503   4.480   8.776   7.327  2.3705 -1.0613 -0.5535
  256MOL0     H34504   4.442   8.866   7.194  2.1521  1.5498  2.6850
  256MOL0     H34505   4.399   8.682   7.055 -3.0278  1.4904 -0.1692
  256MOL0     H34506   4.398   8.555   7.185 -4.0340 -0.8091  4.3337
  256MOL0     H34507   4.224   8.790   7.196 -1.6056 -0.3298 -0.2168
  256MOL0     H34508   4.183   8.624   7.138  0.2954  1.6958 -1.2497
  256MOL0     H34509   4.282   8.719   7.431  0.2682 -1.5833  0.4543
  256MOL0     H34510   4.256   8.557   7.391  1.0521 -0.9318 -1.3187
  256MOL0     H34511   4.036   8.874   7.326  0.2225  0.2236 -1.8687
  256MOL0     H34512   3.770   8.909   7.363  1.6965 -1.2951 -0.8455
  256MOL0     H34513   3.660   8.794   7.420 -1.7378  1.2346  3.7495
  256MOL0     H34514   3.637   8.900   7.616  0.8419 -1.0300  3.3472
  256MOL0     H34515   3.787   8.997   7.593 -0.5378  0.0764 -2.9738
  256MOL0     H34516   3.917   8.810   7.684  0.8536 -1.3001  3.2293
  256MOL0     H34517   3.768   8.715   7.695 -0.8798 -0.0394 -0.4382
  256MOL0     H34518   3.802   8.978   7.843  3.8498 -0.4203 -0.3366
  256MOL0     H34519   3.856   8.832   7.905 -1.6841  0.6974  1.7097
  256MOL0     H34520   3.419   8.916   7.897 -0.0197  3.1582 -0.8650
  256MOL0     H34521   3.233   9.040   7.949  0.1389 -0.5790  0.6303
  256MOL0     H34522   3.186   9.011   8.123  0.6066 -2.2257  0.7816
  256MOL0     H34523   3.260   9.166   8.072 -0.7735 -0.5130  0.6220
  256MOL0     H34524   3.623   9.143   8.603  0.5352  1.4125 -0.3277
  256MOL0     H34525   3.576   9.198   8.842  3.0578  0.2712 -2.0126
  256MOL0     H34526   3.398   9.149   9.010 -0.6287  0.7021 -3.0484
  256MOL0     H34527   3.519   9.275   9.035  0.9959 -2.3384 -1.4869
  256MOL0     H34528   3.364   9.421   9.133 -0.8333  0.5112  1.8265
  256MOL0     H34529   3.246   9.299   9.168  0.5355 -1.4720  0.0487
  256MOL0     H34530   3.407   9.331   9.359  3.0630  2.1979 -1.2358
  256MOL0     H34531   3.544   9.283   9.252  0.5596 -1.5864 -0.4724
  256MOL0     H34532   3.375   9.068   9.227  0.6857 -0.0250 -0.7152
  256MOL0     H34533   3.501   9.076   9.353 -2.0104 -3.0459  0.0343
  256MOL0     H34534   3.218   9.137   9.409 -0.1173 -0.3765  1.8792
  256MOL0     H34535   3.358   9.184   9.518  0.8593  0.8201 -0.2268
  256MOL0     H34536   3.279   8.912   9.409  0.8563 -0.1645 -0.5158
  256MOL0     H34537   3.412   8.934   9.523 -1.4426 -1.1389 -0.0459
  256MOL0     H34538   3.130   9.025   9.580 -1.0381  0.2675  2.2227
  256MOL0     H34539   3.259   9.013   9.700 -2.7666  0.7744  0.6992
  256MOL0     H34540   3.268   8.779   9.693  1.4131  1.8398  1.3470
  256MOL0     H34541   3.143   8.773   9.569  1.0303 -1.1840  1.5954
  256MOL0     H34542   3.221   9.394   8.704 -0.0860 -0.8173  2.7070
  256MOL0     H34543   3.260   9.307   8.471 -1.1926  0.1540  0.0931
  256MOL0     H34544   3.659   9.011   8.306  0.5142  2.1739 -1.0005
  256MOL0     H34545   3.777   8.884   8.100  0.4953 -0.0844 -2.8212
  256MOL0     H34546   4.835   9.082   7.771  1.6246 -0.4647  1.9904
  256MOL0     H34547   5.018   9.039   7.915  0.3882 -0.4057 -0.0099
  256MOL0     H34548   5.585   8.670   7.842 -0.4234 -1.9766  1.8550
  256MOL0     H34549   5.793   8.746   7.962 -1.4827 -0.9947 -0.4231
  256MOL0     H34550   5.931   8.844   8.307 -0.7015 -0.7317  1.9225
  256MOL0     H34551   5.864   8.732   8.186  0.6717  1.1415 -1.7147
  256MOL0     H34552   5.975   8.839   8.002  0.9807 -2.5343  0.8072
  256MOL0     H34553   6.094   8.780   8.114 -1.9017 -1.0005  3.4936
  256MOL0     H34554   6.158   8.999   8.190 -2.7944  1.6143  4.0053
  256MOL0     H34555   6.015   9.071   8.136  0.2696 -2.4222  4.9115
  256MOL0     H34556   6.076   9.039   7.897  0.5645  1.4545 -0.1016
  256MOL0     H34557   6.203   8.924   7.944 -2.4197 -2.0241  1.3230
  256MOL0     H34558   6.394   9.309   8.014  0.3738 -1.2293  0.7105
  256MOL0     H34559   5.577   9.058   8.148 -0.7721  0.9018 -1.5920
  256MOL0     H34560   5.377   9.005   8.013 -0.4530 -1.0610  2.4916
  257MOL0     O34561   9.090   8.154   7.344  0.0494  0.0414 -0.7920
  257MOL0     C34562   9.167   8.123   7.250 -0.0047 -0.1103  0.4060
  257MOL0     O34563   9.135   8.099   7.117  0.6157  0.0570  0.0502
  257MOL0     C34564   9.043   8.190   7.059  0.6893 -0.1189  0.5647
  257MOL0     C34565   8.985   8.303   7.119 -0.5323 -0.3785 -0.3063
  257MOL0     C34566   8.885   8.374   7.053 -0.1165  0.3021 -0.6144
  257MOL0     C34567   8.844   8.344   6.927 -0.7189 -0.5087  0.0037
  257MOL0     O34568   8.753   8.421   6.871  0.0125  0.6120 -0.2998
  257MOL0     C34569   8.612   8.389   6.913 -0.5727 -0.5991  0.1569
  257MOL0     C34570   8.501   8.502   6.908 -0.6347  0.4468 -0.0164
  257MOL0     C34571   8.482   8.562   6.767  0.0926  0.6374 -0.2870
  257MOL0     C34572   8.465   8.462   6.652  0.3219  0.3786 -0.3300
  257MOL0     C34573   8.399   8.543   6.539  0.8621 -0.4683  0.2671
  257MOL0     C34574   8.373   8.461   6.415  0.1590 -0.0805 -0.3514
  257MOL0     C34575   8.306   8.549   6.307 -0.2406 -0.1512  0.6789
  257MOL0     C34576   8.265   8.456   6.191  0.4937  0.2770 -0.1829
  257MOL0     N34577   8.369   8.430   6.097 -0.6132 -0.5349 -0.0797
  257MOL0     C34578   8.427   8.311   6.056  0.6851  0.7936 -0.9530
  257MOL0     C34579   8.504   8.337   5.957 -0.5496 -0.3024 -0.7589
  257MOL0     C34580   8.595   8.248   5.881 -0.4142 -0.0565 -1.0043
  257MOL0     C34581   8.729   8.313   5.866 -0.7194  0.2547  0.7181
  257MOL0     C34582   8.809   8.357   5.990  0.4299  0.3375  0.1471
  257MOL0     C34583   8.896   8.251   6.052  0.4618  0.1942  0.1602
  257MOL0     O34584   8.829   8.127   6.079 -0.0586  0.4854 -0.3207
  257MOL0     C34585   8.791   8.110   6.210  0.2929  0.5032  0.0847
  257MOL0     C34586   8.748   7.983   6.248  0.6245  0.2432  1.1785
  257MOL0     C34587   8.705   7.951   6.381  1.0058  0.5503 -0.0191
  257MOL0     C34588   8.675   7.809   6.411  0.0396 -1.3078 -0.7021
  257MOL0     C34589   8.693   8.057   6.474  0.2443  0.1140  0.0325
  257MOL0     C34590   8.644   8.031   6.614 -0.3627 -0.4317 -0.5857
  257MOL0     O34591   8.695   7.915   6.675  0.4059 -0.7298 -0.1108
  257MOL0     C34592   8.633   7.865   6.786  0.0761 -0.1742 -0.4728
  257MOL0     C34593   8.651   7.726   6.799 -0.1316  0.6583  0.3538
  257MOL0     C34594   8.582   7.655   6.902 -0.3913 -0.0043  0.0717
  257MOL0     C34595   8.496   7.715   6.989 -0.4516 -0.2820  0.4598
  257MOL0     O34596   8.426   7.634   7.079  0.2116 -0.5062 -0.2635
  257MOL0     C34597   8.463   7.505   7.133 -0.0961 -0.2824  0.7857
  257MOL0     C34598   8.348   7.443   7.203  0.2765 -0.6680 -0.7260
  257MOL0     C34599   8.369   7.300   7.243 -0.0556 -0.2637 -0.6592
  257MOL0     C34600   8.282   7.252   7.360  0.4908  1.1450  0.8981
  257MOL0     C34601   8.222   7.118   7.338  0.1271 -0.3259  0.5386
  257MOL0     C34602   8.084   7.121   7.265 -0.9161 -0.8217 -0.3639
  257MOL0     C34603   8.014   6.992   7.275  0.1995  0.2819 -0.1699
  257MOL0     C34604   7.857   7.010   7.254 -0.8525 -0.1298  0.0690
  257MOL0    Cl34605   7.806   7.100   7.392 -0.0520 -0.1507 -0.0638
  257MOL0     C34606   8.480   7.848   6.974 -0.5786 -0.1260  1.1574
  257MOL0     C34607   8.538   7.923   6.875  0.0121 -0.8585 -0.0860
  257MOL0     O34608   8.584   8.127   6.668 -0.1532  0.8542  0.5691
  257MOL0     C34609   8.722   8.180   6.432 -0.1842 -0.5431  0.4582
  257MOL0     C34610   8.773   8.210   6.309 -0.2196  0.3300  0.6147
  257MOL0     N34611   8.484   8.466   5.931  0.3162  0.6263 -0.4528
  257MOL0     N34612   8.405   8.528   6.009 -1.1542  0.1202 -1.0526
  257MOL0     C34613   8.894   8.223   6.871 -0.6236 -0.1356  0.1350
  257MOL0     C34614   8.990   8.142   6.940  1.1331 -0.5560 -0.2172
  257MOL0     C34615   9.302   8.135   7.288 -0.4214 -0.2546  0.3426
  257MOL0     C34616   9.351   8.121   7.416 -0.7337  0.9513 -0.2375
  257MOL0     C34617   9.489   8.112   7.447  0.1646 -0.6785  0.2982
  257MOL0     C34618   9.582   8.130   7.345 -0.4003  0.9096 -0.3337
  257MOL0     O34619   9.717   8.144   7.371  0.8522  0.0638  0.1347
  257MOL0     C34620   9.778   8.113   7.493  0.2154  1.2595 -0.8483
  257MOL0     C34621   9.928   8.111   7.501 -0.1443 -0.1716  0.0548
  257MOL0     C34622   9.985   8.015   7.402 -0.6774  0.5118  0.0412
  257MOL0     C34623  10.131   7.976   7.445  0.2992  0.4267  0.2236
  257MOL0     C34624  10.206   7.896   7.345  0.1779  0.4433 -0.1156
  257MOL0     C34625  10.263   7.822   7.264 -0.5670 -0.1953  0.0998
  257MOL0     C34626   9.534   8.158   7.214  0.0381  0.3550 -0.4338
  257MOL0     C34627   9.398   8.169   7.187  0.3998 -0.0656 -0.2680
  257MOL0     H34628   9.003   8.351   7.215 -5.9519  2.2610 -0.2161
  257MOL0     H34629   8.845   8.460   7.106  1.5734 -0.3790  2.0140
  257MOL0     H34630   8.576   8.296   6.867 -0.0859 -0.5401 -0.3531
  257MOL0     H34631   8.625   8.370   7.021  4.7725  1.8972  0.2392
  257MOL0     H34632   8.412   8.446   6.941 -1.8785  3.2952  1.8134
  257MOL0     H34633   8.529   8.580   6.979 -1.6127  1.6665 -0.9268
  257MOL0     H34634   8.392   8.624   6.773 -1.8464 -1.7134 -2.6732
  257MOL0     H34635   8.560   8.634   6.741 -0.5639  1.0111 -1.2938
  257MOL0     H34636   8.548   8.399   6.621 -1.9645 -3.1820  0.2109
  257MOL0     H34637   8.393   8.389   6.689  1.0851  0.4382  1.3936
  257MOL0     H34638   8.303   8.584   6.573 -0.0309 -2.2356  0.0281
  257MOL0     H34639   8.472   8.619   6.511 -1.2875  2.1447  1.3143
  257MOL0     H34640   8.466   8.423   6.374  0.4537 -0.3487  0.5460
  257MOL0     H34641   8.305   8.383   6.452  0.0936  0.9431  1.8766
  257MOL0     H34642   8.215   8.598   6.341 -1.6203 -2.5962  0.7402
  257MOL0     H34643   8.384   8.614   6.266 -0.2742  0.7747  2.0392
  257MOL0     H34644   8.183   8.502   6.136 -2.6387 -2.3379  1.9307
  257MOL0     H34645   8.223   8.362   6.229  1.5313 -0.3998 -0.6493
  257MOL0     H34646   8.407   8.221   6.113 -2.6302  1.8997 -0.1272
  257MOL0     H34647   8.613   8.153   5.933  0.8486  0.3934 -0.5792
  257MOL0     H34648   8.551   8.215   5.786 -2.9491 -2.9633  0.9827
  257MOL0     H34649   8.728   8.396   5.795  0.7316 -0.5324 -0.2819
  257MOL0     H34650   8.790   8.240   5.812  0.6595  1.4612  0.5716
  257MOL0     H34651   8.735   8.399   6.057 -2.7421 -0.2796 -2.7109
  257MOL0     H34652   8.881   8.436   5.967  0.8780  0.1996  1.0457
  257MOL0     H34653   8.959   8.283   6.136 -1.1887  0.9958  1.1467
  257MOL0     H34654   8.971   8.228   5.976  0.4528 -2.3515  0.8451
  257MOL0     H34655   8.741   7.902   6.177 -1.3374 -1.4287  3.1257
  257MOL0     H34656   8.759   7.771   6.471 -0.8018  1.6481  2.7098
  257MOL0     H34657   8.580   7.802   6.465 -2.0099  3.9389 -2.9286
  257MOL0     H34658   8.661   7.755   6.317 -2.7528 -1.4407 -0.2986
  257MOL0     H34659   8.727   7.676   6.739 -0.0251  0.8602  0.3176
  257MOL0     H34660   8.593   7.547   6.908 -1.9686 -0.4515 -2.9488
  257MOL0     H34661   8.485   7.437   7.051  0.6691  0.1437  0.6332
  257MOL0     H34662   8.553   7.507   7.195  1.4780 -2.7111 -1.2569
  257MOL0     H34663   8.326   7.504   7.291  1.4512  2.0369 -2.1510
  257MOL0     H34664   8.256   7.446   7.143 -0.3282 -0.9738  0.1651
  257MOL0     H34665   8.477   7.288   7.261 -0.1971  1.6077  2.0861
  257MOL0     H34666   8.334   7.241   7.158 -2.0212 -2.5443  1.5796
  257MOL0     H34667   8.348   7.242   7.446 -2.8145 -0.3986  3.5090
  257MOL0     H34668   8.200   7.321   7.383  0.1306  0.2727  2.3898
  257MOL0     H34669   8.203   7.087   7.441 -0.8750 -1.3603  0.0687
  257MOL0     H34670   8.298   7.050   7.299 -0.3322 -0.8594  0.5710
  257MOL0     H34671   8.026   7.199   7.315 -0.2122 -0.3353 -0.2901
  257MOL0     H34672   8.111   7.145   7.162  2.4640  0.1743  0.6354
  257MOL0     H34673   8.023   6.952   7.376 -1.4485 -0.8956 -0.4486
  257MOL0     H34674   8.059   6.924   7.202 -2.2720 -1.2698 -0.3379
  257MOL0     H34675   7.807   6.913   7.244 -1.4731  0.2508 -0.6414
  257MOL0     H34676   7.837   7.076   7.169  1.0313 -0.7062 -0.8680
  257MOL0     H34677   8.413   7.888   7.049  0.0878 -0.9029  2.2138
  257MOL0     H34678   8.501   8.025   6.874 -1.7070 -1.4088  1.3444
  257MOL0     H34679   8.704   8.260   6.504 -0.3778 -1.1860  1.1433
  257MOL0     H34680   8.787   8.313   6.275 -1.0714 -0.4312 -2.3611
  257MOL0     H34681   8.852   8.192   6.776 -0.4319  1.4962 -0.5133
  257MOL0     H34682   9.006   8.043   6.896 -2.9194  0.0015 -3.5879
  257MOL0     H34683   9.289   8.099   7.502  2.1151 -2.2282  1.2493
  257MOL0     H34684   9.520   8.102   7.551 -1.2139 -2.0413  0.6147
  257MOL0     H34685   9.743   8.187   7.566  1.8022 -0.4500  1.8113
  257MOL0     H34686   9.737   8.015   7.521 -0.5916  0.0675 -5.4672
  257MOL0     H34687   9.959   8.092   7.604  0.0583  2.0139  0.4460
  257MOL0     H34688   9.972   8.206   7.468 -0.0607 -0.1186  0.3228
  257MOL0     H34689   9.986   8.059   7.301  0.1119  1.0682  0.2845
  257MOL0     H34690   9.935   7.918   7.406  2.0083 -0.9575  0.5940
  257MOL0     H34691  10.125   7.911   7.533  2.3863 -0.1698 -0.0102
  257MOL0     H34692  10.181   8.069   7.474 -2.3087  1.1419  2.9631
  257MOL0     H34693  10.306   7.753   7.194  0.6248  0.4401  0.1815
  257MOL0     H34694   9.605   8.174   7.134  2.0133  0.3080  1.2337
  257MOL0     H34695   9.368   8.161   7.083 -2.5521 -0.4945  0.5266
  258MOL0     O34696   8.220   5.394   9.458 -0.5562  0.1610 -0.3012
  258MOL0     C34697   8.319   5.464   9.434 -0.0618 -0.1175  1.0961
  258MOL0     O34698   8.316   5.571   9.346 -0.0901 -0.2118 -0.2137
  258MOL0     C34699   8.212   5.596   9.256 -0.1168  0.4568  0.2071
  258MOL0     C34700   8.180   5.729   9.226  0.4260  0.7464 -0.6632
  258MOL0     C34701   8.081   5.753   9.127 -0.2794 -0.7267  0.5699
  258MOL0     C34702   8.010   5.652   9.068 -0.2311 -0.3187 -0.4480
  258MOL0     O34703   7.907   5.677   8.990 -0.2021  0.0118  0.9492
  258MOL0     C34704   7.802   5.584   8.979 -0.4818 -0.1355 -0.7956
  258MOL0     C34705   7.728   5.617   8.854  0.2055  0.5553  0.2182
  258MOL0     C34706   7.817   5.587   8.738  0.1616 -0.7468  0.4041
  258MOL0     C34707   7.756   5.596   8.597 -0.1069  0.4898 -0.2222
  258MOL0     C34708   7.857   5.570   8.487  0.1578 -0.4123  0.8997
  258MOL0     C34709   7.962   5.673   8.484 -0.0047 -0.7511 -0.6727
  258MOL0     C34710   8.051   5.645   8.365  1.3388 -0.5518 -0.3881
  258MOL0     C34711   8.162   5.753   8.346  0.0665  0.4126  0.2521
  258MOL0     N34712   8.102   5.888   8.339 -0.2930  0.6474  0.0830
  258MOL0     C34713   7.989   5.917   8.270 -0.0704 -0.2012 -0.4470
  258MOL0     C34714   7.948   6.040   8.300  0.2997 -0.9035 -0.2990
  258MOL0     C34715   7.808   6.074   8.263 -1.1701 -0.9565 -0.5163
  258MOL0     C34716   7.766   6.223   8.257  0.4864  0.3542 -0.1141
  258MOL0     C34717   7.803   6.312   8.382 -0.3091  0.2487  1.1975
  258MOL0     C34718   7.754   6.454   8.358 -0.0115 -0.2391 -0.0341
  258MOL0     O34719   7.620   6.477   8.305  0.0250 -0.5266 -0.0041
  258MOL0     C34720   7.516   6.454   8.384  0.2974  0.4302  0.8271
  258MOL0     C34721   7.390   6.467   8.327  0.6829  0.0483 -0.2473
  258MOL0     C34722   7.277   6.454   8.402  0.9898 -0.0961 -0.3820
  258MOL0     C34723   7.146   6.456   8.323 -0.6727  0.5786  0.5457
  258MOL0     C34724   7.287   6.417   8.542  0.3543 -0.1904  0.3017
  258MOL0     C34725   7.168   6.400   8.628 -0.4851  1.1414  0.3321
  258MOL0     O34726   7.036   6.438   8.593  0.0844 -0.1092 -0.0201
  258MOL0     C34727   6.925   6.427   8.675 -0.4560 -0.0902 -0.1978
  258MOL0     C34728   6.897   6.310   8.745  1.2143  0.2161 -0.2529
  258MOL0     C34729   6.790   6.304   8.839 -0.0491  0.5896 -0.1546
  258MOL0     C34730   6.698   6.416   8.845 -0.3357 -0.5462  0.0988
  258MOL0     O34731   6.586   6.396   8.915  0.1052 -0.6662  0.4036
  258MOL0     C34732   6.506   6.512   8.953 -0.1628  0.2957 -0.1741
  258MOL0     C34733   6.379   6.456   9.019  0.8811  0.1250 -0.1747
  258MOL0     C34734   6.275   6.571   9.010 -0.0135  1.0993  0.1619
  258MOL0     C34735   6.134   6.518   9.045 -0.4144  0.3546  0.3950
  258MOL0     C34736   6.071   6.447   8.923  0.4556 -0.7785 -0.8999
  258MOL0     C34737   5.917   6.460   8.921 -0.4743 -0.6500  0.4368
  258MOL0     C34738   5.857   6.385   9.035  0.3031 -0.6252 -0.8057
  258MOL0     C34739   5.702   6.377   9.031  0.5897  0.1012 -0.6385
  258MOL0    Cl34740   5.644   6.296   9.176 -0.1579  0.1788  0.4340
  258MOL0     C34741   6.735   6.532   8.772 -0.4184 -0.2205 -0.2239
  258MOL0     C34742   6.846   6.540   8.690  0.4482  0.4636  0.1000
  258MOL0     O34743   7.186   6.343   8.730  0.3030  0.0129 -0.1625
  258MOL0     C34744   7.413   6.395   8.601  0.0321  0.3314  0.2570
  258MOL0     C34745   7.521   6.427   8.521  0.2980 -0.8550  0.7498
  258MOL0     N34746   8.046   6.095   8.384  0.4391  0.4074 -0.3580
  258MOL0     N34747   8.143   6.004   8.408  0.0679  0.2449  0.2979
  258MOL0     C34748   8.041   5.520   9.105  1.0379  0.5341  0.2771
  258MOL0     C34749   8.148   5.491   9.181 -0.9953 -0.1158 -0.1373
  258MOL0     C34750   8.436   5.456   9.516 -1.0377  0.1425  0.0823
  258MOL0     C34751   8.562   5.476   9.459 -0.1516 -0.1281  0.3582
  258MOL0     C34752   8.673   5.494   9.542 -0.4992  0.0392 -0.3610
  258MOL0     C34753   8.658   5.490   9.681  0.5610 -0.5396  0.1964
  258MOL0     O34754   8.758   5.516   9.771 -0.1738  2.1232 -0.4709
  258MOL0     C34755   8.863   5.602   9.734  0.5510 -0.6238 -0.2499
  258MOL0     C34756   8.970   5.591   9.839  0.0697  0.3409 -0.4634
  258MOL0     C34757   9.043   5.450   9.843  0.3825 -0.5217 -0.5032
  258MOL0     C34758   9.173   5.446   9.930 -0.5161 -0.0390 -0.5527
  258MOL0     C34759   9.138   5.451  10.078  0.7115  0.0993 -0.0718
  258MOL0     C34760   9.091   5.449  10.191  0.1758  0.7670  0.3828
  258MOL0     C34761   8.537   5.453   9.725  1.0663  0.5800 -0.5857
  258MOL0     C34762   8.416   5.433   9.652  0.5486 -1.2454  0.5156
  258MOL0     H34763   8.234   5.818   9.258 -0.1318  1.1350 -0.7921
  258MOL0     H34764   8.071   5.852   9.082 -0.1901 -0.5621  0.9137
  258MOL0     H34765   7.828   5.478   8.969 -0.9533 -0.5978  2.1116
  258MOL0     H34766   7.745   5.594   9.072  1.2693 -1.1745  0.4345
  258MOL0     H34767   7.639   5.554   8.854  0.2509  0.3774 -2.1100
  258MOL0     H34768   7.704   5.723   8.848  1.9967  1.0748  1.3898
  258MOL0     H34769   7.905   5.651   8.748  0.4429 -0.6010 -2.2330
  258MOL0     H34770   7.850   5.483   8.734 -1.9158 -1.4378 -2.8716
  258MOL0     H34771   7.663   5.539   8.594  0.9450 -1.3277  0.3641
  258MOL0     H34772   7.716   5.698   8.593 -1.9481 -0.2409 -1.6431
  258MOL0     H34773   7.908   5.474   8.496  1.4642  0.2123  0.3892
  258MOL0     H34774   7.815   5.583   8.387  2.0866  0.6404  0.1746
  258MOL0     H34775   7.925   5.775   8.497 -1.7848 -1.5046  0.7073
  258MOL0     H34776   8.024   5.662   8.574 -1.7367 -0.4133  0.6201
  258MOL0     H34777   8.101   5.549   8.381  0.0438 -1.6546 -2.4311
  258MOL0     H34778   7.987   5.640   8.276  0.9822 -0.5844 -0.1345
  258MOL0     H34779   8.206   5.728   8.250 -1.1647  0.2361 -0.2946
  258MOL0     H34780   8.236   5.751   8.426  2.3270  0.4297 -1.7398
  258MOL0     H34781   7.938   5.848   8.204 -0.2949 -0.2376 -0.2336
  258MOL0     H34782   7.790   6.038   8.162  1.3364  1.6673 -2.0329
  258MOL0     H34783   7.737   6.036   8.338 -0.5651  0.2723  0.7126
  258MOL0     H34784   7.659   6.223   8.237 -0.2232 -1.0044  3.0300
  258MOL0     H34785   7.830   6.268   8.180 -0.2168 -1.0200 -1.5611
  258MOL0     H34786   7.910   6.309   8.402  0.2056 -0.2063 -1.3045
  258MOL0     H34787   7.761   6.271   8.475 -1.0835  1.8412  1.5851
  258MOL0     H34788   7.814   6.503   8.280  1.0960 -0.7833  0.4500
  258MOL0     H34789   7.791   6.515   8.440  0.3258  0.4202 -0.6665
  258MOL0     H34790   7.389   6.490   8.221 -0.3405  3.2365  0.3493
  258MOL0     H34791   7.080   6.524   8.377  0.3408  0.3884  2.0865
  258MOL0     H34792   7.162   6.487   8.219 -1.5457  0.3821  0.3474
  258MOL0     H34793   7.112   6.352   8.321 -2.5831  1.1152  1.8648
  258MOL0     H34794   6.976   6.237   8.752  2.7766  1.9964  3.7718
  258MOL0     H34795   6.774   6.214   8.898 -0.8414  1.7002  1.4132
  258MOL0     H34796   6.557   6.574   9.028 -1.0905  2.0710 -0.9650
  258MOL0     H34797   6.487   6.578   8.868  0.4490 -0.3191 -0.8032
  258MOL0     H34798   6.354   6.363   8.967  3.1422 -1.0798  0.7760
  258MOL0     H34799   6.391   6.429   9.125 -0.5904 -0.5674 -0.1611
  258MOL0     H34800   6.277   6.621   8.912 -1.9702 -0.9874 -1.0565
  258MOL0     H34801   6.295   6.641   9.091  1.1453  0.6203  0.3069
  258MOL0     H34802   6.133   6.457   9.136 -0.7820  0.9915  0.8326
  258MOL0     H34803   6.077   6.607   9.075  2.4922  2.7680 -0.7214
  258MOL0     H34804   6.108   6.347   8.944 -1.1721 -0.5800  4.1271
  258MOL0     H34805   6.107   6.498   8.833  1.8558  0.7426  0.4415
  258MOL0     H34806   5.893   6.566   8.908 -0.0110 -0.6236 -0.2317
  258MOL0     H34807   5.878   6.407   8.833 -0.0814 -1.3631  0.6833
  258MOL0     H34808   5.890   6.442   9.122 -0.9305  0.8875 -1.2830
  258MOL0     H34809   5.898   6.284   9.033  2.0892  0.0296  0.4192
  258MOL0     H34810   5.671   6.307   8.952  0.5335  2.4127 -2.7861
  258MOL0     H34811   5.644   6.470   9.032 -0.4888 -0.5373  1.1357
  258MOL0     H34812   6.674   6.622   8.773 -1.3054 -0.8108  0.3641
  258MOL0     H34813   6.881   6.633   8.646  1.6555 -0.6368 -1.3669
  258MOL0     H34814   7.432   6.362   8.702  2.4377 -0.8340 -0.4927
  258MOL0     H34815   7.616   6.403   8.569  2.3539 -1.6932 -3.2245
  258MOL0     H34816   8.000   5.428   9.065  1.0989  0.7275 -0.2414
  258MOL0     H34817   8.182   5.389   9.196  1.4807  0.5040 -1.2093
  258MOL0     H34818   8.575   5.489   9.352 -2.5431  1.3788  0.1605
  258MOL0     H34819   8.767   5.512   9.489 -0.4818  2.0100  0.2629
  258MOL0     H34820   8.909   5.589   9.635 -2.0686  3.5707 -2.3179
  258MOL0     H34821   8.825   5.705   9.731  1.6038 -0.1537  1.1785
  258MOL0     H34822   8.919   5.607   9.934 -5.0562  0.2064 -2.8706
  258MOL0     H34823   9.041   5.669   9.811  0.4845 -0.3364 -1.3655
  258MOL0     H34824   9.079   5.416   9.746  3.0053 -0.4686  0.3856
  258MOL0     H34825   8.971   5.373   9.871  1.9073 -2.4332 -1.6269
  258MOL0     H34826   9.226   5.537   9.898 -0.1319 -0.8094 -2.2135
  258MOL0     H34827   9.234   5.358   9.908  1.6016  1.2409 -0.1213
  258MOL0     H34828   9.039   5.421  10.280 -2.1147 -2.5662 -1.7991
  258MOL0     H34829   8.528   5.453   9.834 -1.1058  0.8447 -0.7161
  258MOL0     H34830   8.320   5.411   9.695 -0.3089  1.1975  0.0177
  259MOL0     O34831   1.162   5.961   3.540  0.1886  0.4403 -0.7211
  259MOL0     C34832   1.257   5.969   3.462 -1.3583 -0.2774  0.1453
  259MOL0     O34833   1.261   6.019   3.336 -0.1749 -0.0421  0.0201
  259MOL0     C34834   1.149   6.047   3.261 -0.3593 -1.2780 -0.1008
  259MOL0     C34835   1.036   6.113   3.313 -1.2446 -0.3583  0.3933
  259MOL0     C34836   0.931   6.159   3.232 -0.8190  0.3409  0.3768
  259MOL0     C34837   0.937   6.145   3.095 -0.8996 -0.2999  0.1098
  259MOL0     O34838   0.833   6.206   3.026 -0.1369  0.7246 -0.2593
  259MOL0     C34839   0.824   6.173   2.886  0.4424 -0.4894 -0.2881
  259MOL0     C34840   0.718   6.251   2.816 -0.3921 -0.2131 -0.0407
  259MOL0     C34841   0.717   6.216   2.670 -0.7369 -0.6803  0.6080
  259MOL0     C34842   0.631   6.322   2.599 -0.6198 -0.4860 -0.1296
  259MOL0     C34843   0.640   6.302   2.444  0.0734 -0.1113  0.2180
  259MOL0     C34844   0.518   6.349   2.373 -0.4592  0.6144  0.1708
  259MOL0     C34845   0.523   6.319   2.220 -0.3020 -0.3623 -0.3172
  259MOL0     C34846   0.400   6.350   2.141  0.9014  0.1434  0.3872
  259MOL0     N34847   0.303   6.227   2.149 -0.0435 -0.4238 -0.5236
  259MOL0     C34848   0.330   6.096   2.121 -0.2662  0.0778 -0.9721
  259MOL0     C34849   0.211   6.029   2.127 -0.0884  0.6695  0.0411
  259MOL0     C34850   0.215   5.874   2.096 -0.4432 -1.3655  0.0776
  259MOL0     C34851   0.143   5.800   2.211 -0.2921  0.2073 -0.0014
  259MOL0     C34852   0.185   5.650   2.224  0.8816 -0.0350  0.0835
  259MOL0     C34853   0.146   5.589   2.359 -0.5533 -0.8927 -0.0195
  259MOL0     O34854   0.008   5.611   2.374 -0.3612 -0.0924  0.2426
  259MOL0     C34855  -0.015   5.679   2.490  0.1595 -0.0081  0.4031
  259MOL0     C34856  -0.071   5.808   2.497  0.5745  0.8014 -0.0096
  259MOL0     C34857  -0.097   5.878   2.609  0.4913 -0.1396 -0.5793
  259MOL0     C34858  -0.165   6.006   2.585 -0.9468  0.2096 -0.5237
  259MOL0     C34859  -0.047   5.826   2.741 -0.0544  1.0385  0.1843
  259MOL0     C34860  -0.058   5.888   2.881  1.1567  1.1650  0.5958
  259MOL0     O34861  -0.125   6.008   2.886 -0.3721 -0.0143  0.6708
  259MOL0     C34862  -0.134   6.065   3.012  0.4958 -0.1499  0.2025
  259MOL0     C34863  -0.095   6.197   3.022 -0.2620  0.3666  0.2024
  259MOL0     C34864  -0.110   6.273   3.140 -0.0155  0.3109  0.2941
  259MOL0     C34865  -0.180   6.205   3.246  0.9322 -0.7585  0.4118
  259MOL0     O34866  -0.182   6.288   3.353  0.0500  0.2752 -0.2727
  259MOL0     C34867  -0.312   6.314   3.413  1.6072 -0.5762 -0.3732
  259MOL0     C34868  -0.272   6.365   3.551 -0.0817  0.1963 -0.1899
  259MOL0     C34869  -0.397   6.421   3.626  0.3928 -0.5724  0.9379
  259MOL0     C34870  -0.381   6.421   3.778  0.3497  0.6628 -1.0387
  259MOL0     C34871  -0.297   6.544   3.832 -0.4053 -0.3884 -1.0432
  259MOL0     C34872  -0.316   6.568   3.981  0.5215 -0.3357 -0.0391
  259MOL0     C34873  -0.255   6.709   4.022  0.1341  0.9027  0.1846
  259MOL0     C34874  -0.329   6.759   4.143  0.6237  0.8245 -0.2958
  259MOL0    Cl34875  -0.233   6.876   4.238 -0.0118  0.2183  0.2540
  259MOL0     C34876  -0.221   6.073   3.237  0.0389  0.2012  1.1740
  259MOL0     C34877  -0.200   6.002   3.115 -0.5134  0.7389 -0.2513
  259MOL0     O34878   0.000   5.827   2.976  0.0762 -0.4099 -0.4159
  259MOL0     C34879   0.011   5.697   2.729 -0.0181 -0.5516  0.5314
  259MOL0     C34880   0.026   5.625   2.612  0.1277  0.1147 -0.0374
  259MOL0     N34881   0.116   6.119   2.159 -0.2798 -0.0867  0.3509
  259MOL0     N34882   0.171   6.236   2.172  0.2901  0.2697 -0.2531
  259MOL0     C34883   1.047   6.072   3.040 -0.6525  0.3376 -0.0121
  259MOL0     C34884   1.150   6.025   3.122 -0.2882  1.0942  0.1026
  259MOL0     C34885   1.385   5.913   3.522 -0.3219 -0.7509 -0.3337
  259MOL0     C34886   1.484   5.852   3.436 -0.0115  0.0032  0.6586
  259MOL0     C34887   1.598   5.801   3.484  0.3377  0.4271  0.0307
  259MOL0     C34888   1.620   5.805   3.625 -0.0808  0.2078  0.1939
  259MOL0     O34889   1.731   5.759   3.689  0.6881  0.5315  0.1069
  259MOL0     C34890   1.806   5.658   3.629 -0.2067  0.3077  0.9798
  259MOL0     C34891   1.867   5.554   3.732 -0.4478  0.3914  0.2534
  259MOL0     C34892   1.959   5.622   3.841 -0.1825  0.2428 -0.2238
  259MOL0     C34893   1.908   5.606   3.981 -1.1549  0.1668 -1.0414
  259MOL0     C34894   1.778   5.664   4.020 -0.0389  0.7676  0.7830
  259MOL0     C34895   1.678   5.734   4.029 -0.2973  0.2692  0.1209
  259MOL0     C34896   1.523   5.859   3.716  0.2375  0.3776  0.1686
  259MOL0     C34897   1.408   5.909   3.663 -0.1853  0.8264  0.8067
  259MOL0     H34898   1.021   6.131   3.419 -2.1912  0.7688  0.0795
  259MOL0     H34899   0.845   6.193   3.287 -0.3074  0.3122  1.2088
  259MOL0     H34900   0.917   6.192   2.832 -0.7474  3.8002 -1.2323
  259MOL0     H34901   0.795   6.068   2.878 -2.4629  0.1731  0.1951
  259MOL0     H34902   0.621   6.226   2.861 -0.3885  1.6931  1.1514
  259MOL0     H34903   0.736   6.356   2.841 -0.7574  0.1508 -1.2104
  259MOL0     H34904   0.819   6.207   2.630 -0.7079 -0.4290  0.6210
  259MOL0     H34905   0.682   6.113   2.660  1.6868 -1.4477 -0.9068
  259MOL0     H34906   0.524   6.326   2.622 -1.0237  2.5105 -1.9644
  259MOL0     H34907   0.660   6.426   2.620 -0.6366 -0.5811  0.3773
  259MOL0     H34908   0.724   6.356   2.398 -2.1060  3.0717 -0.3936
  259MOL0     H34909   0.666   6.197   2.429 -0.0412  0.0138 -0.9732
  259MOL0     H34910   0.432   6.293   2.412  0.8873 -2.1386 -0.5100
  259MOL0     H34911   0.499   6.454   2.396 -0.4784  0.9386 -1.2775
  259MOL0     H34912   0.607   6.378   2.182  1.6589 -1.3475  2.2118
  259MOL0     H34913   0.554   6.216   2.200 -0.5894 -0.8225  1.4346
  259MOL0     H34914   0.419   6.374   2.036 -0.0292  3.1464  0.8077
  259MOL0     H34915   0.364   6.436   2.198  4.1282  0.4305  2.2606
  259MOL0     H34916   0.423   6.040   2.110 -1.1257 -1.1795 -2.1467
  259MOL0     H34917   0.175   5.862   1.995  0.9352 -2.0708 -0.4116
  259MOL0     H34918   0.319   5.847   2.076 -1.2686 -4.5850 -0.4331
  259MOL0     H34919   0.034   5.809   2.199 -0.3648 -0.1457  0.3680
  259MOL0     H34920   0.170   5.839   2.309 -0.4436 -0.3782  0.2810
  259MOL0     H34921   0.293   5.641   2.213  1.2618  2.5748  0.8136
  259MOL0     H34922   0.128   5.600   2.145  2.4143  0.6964 -1.5415
  259MOL0     H34923   0.204   5.637   2.437  0.6389 -2.3684  0.0448
  259MOL0     H34924   0.181   5.485   2.354  1.3773 -0.2352 -0.9147
  259MOL0     H34925  -0.101   5.850   2.401  1.2321  0.6471 -0.2913
  259MOL0     H34926  -0.257   5.998   2.526  2.0688 -2.3341 -5.6839
  259MOL0     H34927  -0.175   6.059   2.680 -0.6567  0.2142 -0.4940
  259MOL0     H34928  -0.101   6.066   2.520  2.7132  0.2184  2.7232
  259MOL0     H34929  -0.065   6.244   2.929 -1.4095  0.2975 -0.2197
  259MOL0     H34930  -0.081   6.377   3.150  2.0481 -0.1527 -0.3516
  259MOL0     H34931  -0.365   6.388   3.351  0.8394 -2.6192 -2.2879
  259MOL0     H34932  -0.375   6.225   3.417  2.4225 -1.1737 -0.6278
  259MOL0     H34933  -0.223   6.288   3.611 -1.3309  0.3962  1.1200
  259MOL0     H34934  -0.203   6.450   3.550  0.6341 -0.3846 -0.5325
  259MOL0     H34935  -0.488   6.370   3.595  0.1630  0.6185 -0.5045
  259MOL0     H34936  -0.410   6.528   3.607  1.8251 -0.1485  2.1697
  259MOL0     H34937  -0.481   6.417   3.822  1.7798 -0.0625  2.5205
  259MOL0     H34938  -0.323   6.332   3.806  3.5343  3.1187  0.8707
  259MOL0     H34939  -0.304   6.636   3.773  2.6102 -0.7946 -2.1944
  259MOL0     H34940  -0.196   6.508   3.812 -0.3691  0.2960 -2.1212
  259MOL0     H34941  -0.424   6.577   3.995  0.3933 -0.2965 -1.0440
  259MOL0     H34942  -0.266   6.484   4.032  1.5647  0.3505  0.1136
  259MOL0     H34943  -0.272   6.776   3.937  0.2612 -0.1383 -0.6894
  259MOL0     H34944  -0.146   6.701   4.035  0.1440  1.4171  0.4419
  259MOL0     H34945  -0.341   6.665   4.196  1.4047 -0.1677 -1.8025
  259MOL0     H34946  -0.421   6.815   4.125 -0.4891 -0.8855 -0.1085
  259MOL0     H34947  -0.274   6.023   3.318  1.0725  0.5935  2.1143
  259MOL0     H34948  -0.241   5.902   3.110 -0.7027  0.8503 -1.1315
  259MOL0     H34949   0.053   5.638   2.810  0.5356  0.0094  0.6613
  259MOL0     H34950   0.076   5.529   2.608 -0.9922 -0.6036  1.9786
  259MOL0     H34951   1.071   6.071   2.934  1.4165 -0.3718  0.4109
  259MOL0     H34952   1.246   5.991   3.083  0.5039 -1.4440  3.7103
  259MOL0     H34953   1.460   5.853   3.330 -4.4219  1.8757  1.4385
  259MOL0     H34954   1.673   5.761   3.415 -1.7779 -2.4451 -0.7825
  259MOL0     H34955   1.744   5.605   3.557 -0.0019 -0.9200  1.6713
  259MOL0     H34956   1.891   5.697   3.573  1.2844 -1.2375  2.0634
  259MOL0     H34957   1.925   5.486   3.669 -0.1670 -0.3252  1.2563
  259MOL0     H34958   1.789   5.497   3.783  0.3408 -2.1229 -1.1564
  259MOL0     H34959   1.961   5.730   3.822  0.1105  0.1222 -0.9348
  259MOL0     H34960   2.059   5.579   3.830 -0.8959 -2.5523  2.8178
  259MOL0     H34961   1.982   5.647   4.051 -2.5061  3.4810 -1.3754
  259MOL0     H34962   1.903   5.497   3.992 -1.4132  0.2316 -0.4691
  259MOL0     H34963   1.594   5.800   4.041 -0.8543  0.0065 -1.9177
  259MOL0     H34964   1.542   5.866   3.823 -0.5284 -1.9160  0.5256
  259MOL0     H34965   1.328   5.945   3.726  0.6359  1.8316  1.3040
  260MOL0     O34966   3.303   4.712   7.120 -0.1429  0.0027  0.5079
  260MOL0     C34967   3.276   4.824   7.151 -0.2651 -0.6469  0.4603
  260MOL0     O34968   3.354   4.941   7.142 -0.3520 -0.1459  1.1600
  260MOL0     C34969   3.487   4.925   7.102  0.4854  0.5615  0.2892
  260MOL0     C34970   3.575   4.826   7.155  0.4827  0.0796  0.6300
  260MOL0     C34971   3.708   4.825   7.119  0.6367  0.0555 -0.4507
  260MOL0     C34972   3.759   4.916   7.021 -0.1831  0.6597 -0.8293
  260MOL0     O34973   3.897   4.917   7.002 -0.2410  0.1010  0.4802
  260MOL0     C34974   3.958   5.029   6.940  0.5383 -0.3006  0.3698
  260MOL0     C34975   4.105   5.022   6.939 -0.4593  0.4568  0.7417
  260MOL0     C34976   4.160   4.922   6.823 -0.0390 -0.8990 -1.3914
  260MOL0     C34977   4.308   4.944   6.808 -1.3260 -0.9098  0.0571
  260MOL0     C34978   4.365   4.907   6.669 -0.2182  0.4377 -0.7005
  260MOL0     C34979   4.315   4.776   6.607 -0.6278 -0.1530  0.7928
  260MOL0     C34980   4.411   4.741   6.484 -0.7774  0.1652  1.2858
  260MOL0     C34981   4.394   4.817   6.351  1.2184 -0.3265 -0.1753
  260MOL0     N34982   4.461   4.757   6.233 -0.3107 -0.3262 -0.1191
  260MOL0     C34983   4.600   4.722   6.227  0.4298  0.1145  0.6682
  260MOL0     C34984   4.615   4.704   6.094  0.0365 -0.1116  0.5487
  260MOL0     C34985   4.746   4.665   6.034 -0.5020 -0.9783  0.4791
  260MOL0     C34986   4.805   4.765   5.928  1.0892  0.7220 -0.8802
  260MOL0     C34987   4.823   4.906   5.979 -0.1509  0.0372  0.6588
  260MOL0     C34988   4.918   4.899   6.095 -0.2956  0.0413  0.1143
  260MOL0     O34989   4.852   4.899   6.228 -0.2178 -0.5412  0.6064
  260MOL0     C34990   4.924   4.878   6.342 -0.0274 -0.3678 -0.0247
  260MOL0     C34991   4.853   4.850   6.454 -0.3285 -0.0681  0.1627
  260MOL0     C34992   4.921   4.812   6.571 -0.0226 -0.1119 -0.0040
  260MOL0     C34993   4.833   4.779   6.692  0.2125  0.3933 -0.3518
  260MOL0     C34994   5.066   4.797   6.569  1.1800  0.4760  0.4780
  260MOL0     C34995   5.148   4.768   6.680 -0.5672  0.1241  0.0562
  260MOL0     O34996   5.270   4.703   6.657  0.3464  0.3062  0.3114
  260MOL0     C34997   5.361   4.708   6.754  0.0682 -0.8357 -0.4402
  260MOL0     C34998   5.401   4.825   6.830 -0.1122  0.5157  0.5908
  260MOL0     C34999   5.516   4.829   6.907 -0.5505 -0.5095  0.1673
  260MOL0     C35000   5.590   4.711   6.930  1.2366 -0.5121  0.3679
  260MOL0     O35001   5.696   4.719   7.023 -0.4290 -0.5231  0.1621
  260MOL0     C35002   5.820   4.644   6.986  0.7082  0.5430 -0.2001
  260MOL0     C35003   5.902   4.647   7.111  0.2048  0.4617  0.2772
  260MOL0     C35004   6.052   4.624   7.075  1.3079 -0.0901 -0.1481
  260MOL0     C35005   6.130   4.567   7.192  1.1507  0.1843 -0.4308
  260MOL0     C35006   6.274   4.534   7.164 -0.5882  0.1026  0.8994
  260MOL0     C35007   6.353   4.663   7.123 -0.6456  0.8055 -0.5586
  260MOL0     C35008   6.512   4.659   7.131  0.3725  0.7780  0.3838
  260MOL0     C35009   6.572   4.755   7.027  0.1612 -0.2706  0.7057
  260MOL0    Cl35010   6.752   4.740   7.030  0.5446 -0.3735 -0.1230
  260MOL0     C35011   5.550   4.594   6.860 -0.4978  0.1139 -1.1826
  260MOL0     C35012   5.432   4.591   6.774 -0.8968  0.9697  0.0134
  260MOL0     O35013   5.109   4.807   6.788  0.1570  0.2089 -0.7641
  260MOL0     C35014   5.131   4.815   6.446  0.0214 -1.4986 -0.0038
  260MOL0     C35015   5.062   4.863   6.338 -0.5171 -0.3868  0.0954
  260MOL0     N35016   4.509   4.736   6.023  0.1587 -0.8503  0.1643
  260MOL0     N35017   4.416   4.775   6.101  0.3136  0.2327  0.0639
  260MOL0     C35018   3.673   5.008   6.969  1.3776 -0.5401  0.2721
  260MOL0     C35019   3.534   5.011   7.001 -0.2505 -0.1091  0.6488
  260MOL0     C35020   3.123   4.840   7.172 -0.2804 -0.3738  0.4378
  260MOL0     C35021   3.072   4.969   7.190  1.1527  0.7212  0.6901
  260MOL0     C35022   2.930   4.991   7.202 -0.5716  0.0477 -0.3469
  260MOL0     C35023   2.843   4.882   7.204 -0.0592 -1.0888  0.6957
  260MOL0     O35024   2.711   4.914   7.226  0.4012  0.2330 -0.0991
  260MOL0     C35025   2.604   4.818   7.204 -0.9410 -0.1370 -0.0097
  260MOL0     C35026   2.558   4.737   7.320 -0.0093 -0.6816  0.0636
  260MOL0     C35027   2.498   4.598   7.280  0.1415  0.6733  0.1715
  260MOL0     C35028   2.388   4.594   7.177  0.3631 -0.2098 -0.0598
  260MOL0     C35029   2.267   4.680   7.208 -0.8305 -0.0398  0.0527
  260MOL0     C35030   2.175   4.751   7.233 -0.6675 -0.1032 -0.3106
  260MOL0     C35031   2.893   4.751   7.175  0.2662 -0.2413 -0.4158
  260MOL0     C35032   3.036   4.729   7.182 -0.2489 -0.3539  0.4314
  260MOL0     H35033   3.542   4.765   7.238 -1.7813  1.3043  0.7315
  260MOL0     H35034   3.763   4.740   7.157 -2.4826 -2.5331 -1.2815
  260MOL0     H35035   3.928   5.054   6.838  3.8827  0.9118 -0.4780
  260MOL0     H35036   3.929   5.110   7.007  4.7475 -0.1285  2.3045
  260MOL0     H35037   4.156   5.119   6.934  2.2634 -0.9584 -1.7817
  260MOL0     H35038   4.129   4.975   7.035 -0.0578 -0.6442  0.1203
  260MOL0     H35039   4.131   4.818   6.843  2.4462 -1.9581 -2.8784
  260MOL0     H35040   4.121   4.947   6.724 -1.1971  2.9760 -0.1222
  260MOL0     H35041   4.328   5.051   6.805 -0.5540 -1.0645 -1.3251
  260MOL0     H35042   4.348   4.889   6.893 -0.3154 -1.4866 -0.7603
  260MOL0     H35043   4.331   4.990   6.607 -5.6160 -1.6463 -1.0927
  260MOL0     H35044   4.474   4.896   6.676 -0.2523 -2.0634 -2.4340
  260MOL0     H35045   4.313   4.704   6.690  1.0172 -0.6339  0.4652
  260MOL0     H35046   4.212   4.795   6.576 -0.5435  0.1667  0.7095
  260MOL0     H35047   4.515   4.751   6.516 -0.7751 -1.2580  1.7949
  260MOL0     H35048   4.393   4.634   6.465 -1.5216  0.6511 -1.0845
  260MOL0     H35049   4.426   4.921   6.362 -0.0055  0.1673 -1.0812
  260MOL0     H35050   4.286   4.813   6.337  0.9456  0.0314  1.6233
  260MOL0     H35051   4.671   4.714   6.309 -0.1449 -0.7885  1.0908
  260MOL0     H35052   4.827   4.649   6.106  0.6982 -0.6846 -0.7644
  260MOL0     H35053   4.720   4.571   5.985 -2.3285 -1.0076  1.4442
  260MOL0     H35054   4.743   4.782   5.839  1.6652  2.0958 -1.0447
  260MOL0     H35055   4.900   4.717   5.901  1.1425  0.4504 -0.2125
  260MOL0     H35056   4.729   4.952   6.010  0.0811  0.6557  0.4521
  260MOL0     H35057   4.865   4.974   5.905 -0.7786 -0.2339  0.0418
  260MOL0     H35058   4.982   4.988   6.089 -0.6456  0.6557  3.6268
  260MOL0     H35059   4.989   4.817   6.085 -0.0184  0.3781 -0.8085
  260MOL0     H35060   4.744   4.854   6.457 -0.3066 -0.1160  1.8565
  260MOL0     H35061   4.873   4.702   6.759  0.3517  0.3870 -0.4410
  260MOL0     H35062   4.828   4.873   6.748 -0.0798  0.6769 -0.8524
  260MOL0     H35063   4.733   4.752   6.658  0.8715 -0.6774 -1.5203
  260MOL0     H35064   5.342   4.915   6.825  2.3297  2.2227  0.9074
  260MOL0     H35065   5.539   4.926   6.950 -0.3199 -0.7131  0.5127
  260MOL0     H35066   5.805   4.541   6.952 -0.4614  0.3830  0.7585
  260MOL0     H35067   5.881   4.690   6.908  1.0545 -3.2521 -2.4528
  260MOL0     H35068   5.898   4.748   7.153 -0.6111  1.6298 -2.4171
  260MOL0     H35069   5.869   4.574   7.186  2.4105 -2.0550 -1.0626
  260MOL0     H35070   6.084   4.725   7.048  2.6027 -0.9711 -2.0915
  260MOL0     H35071   6.071   4.554   6.994 -0.5507 -1.2430  0.3518
  260MOL0     H35072   6.115   4.635   7.276 -2.5866  0.6679 -1.3143
  260MOL0     H35073   6.084   4.473   7.223 -3.0116  1.8970 -0.7791
  260MOL0     H35074   6.284   4.467   7.078 -1.2119  0.8383  0.2245
  260MOL0     H35075   6.321   4.478   7.245 -0.3749 -2.1241 -0.6629
  260MOL0     H35076   6.314   4.677   7.021  0.2507 -4.0147 -1.8112
  260MOL0     H35077   6.319   4.748   7.183 -3.7881 -1.2581  0.8600
  260MOL0     H35078   6.541   4.555   7.109  1.2398  1.5512 -2.5506
  260MOL0     H35079   6.545   4.680   7.233  1.8773 -1.3085  0.4102
  260MOL0     H35080   6.536   4.853   7.062 -4.5477 -2.5085  3.0027
  260MOL0     H35081   6.526   4.725   6.933  0.0865  0.6868  0.4179
  260MOL0     H35082   5.609   4.506   6.884 -2.4667 -0.9165  0.0934
  260MOL0     H35083   5.396   4.505   6.719 -1.0348  2.0036 -1.6004
  260MOL0     H35084   5.239   4.807   6.434  0.7559  1.8976  2.7217
  260MOL0     H35085   5.107   4.891   6.243 -2.0421 -1.2795 -0.9314
  260MOL0     H35086   3.689   5.088   6.897 -4.4287 -0.2847 -1.2065
  260MOL0     H35087   3.471   5.092   6.966  1.2239  0.4843 -0.7916
  260MOL0     H35088   3.150   5.044   7.196  1.9706  0.1143 -1.5168
  260MOL0     H35089   2.889   5.089   7.226 -0.3069  0.4092 -1.3210
  260MOL0     H35090   2.536   4.893   7.163  1.1271  2.0267  0.3413
  260MOL0     H35091   2.635   4.746   7.127  1.1590 -0.0742  0.7125
  260MOL0     H35092   2.489   4.798   7.379  3.7220  2.1464  1.8724
  260MOL0     H35093   2.639   4.697   7.382  1.8084  0.0069 -1.7649
  260MOL0     H35094   2.458   4.559   7.374  0.2359  0.6348  0.1953
  260MOL0     H35095   2.579   4.533   7.247  1.4342  1.1710  2.1783
  260MOL0     H35096   2.360   4.489   7.175  0.6411 -0.3251  1.0103
  260MOL0     H35097   2.434   4.625   7.083 -0.4350  4.7242  0.9140
  260MOL0     H35098   2.105   4.829   7.256 -0.0265  0.9879 -1.8513
  260MOL0     H35099   2.822   4.671   7.162 -0.6260  0.5731 -0.6445
  260MOL0     H35100   3.068   4.625   7.185 -2.2895 -1.1391 -1.7087
  261MOL0     O35101   0.915   0.861   4.891  0.2002  0.2184 -0.1573
  261MOL0     C35102   0.849   0.812   4.798  0.4493 -0.0747 -0.1634
  261MOL0     O35103   0.882   0.820   4.666  0.4901 -0.9100 -0.0074
  261MOL0     C35104   1.021   0.834   4.645  0.7671  0.4110  0.1360
  261MOL0     C35105   1.069   0.963   4.600  0.2147  0.5579 -0.6807
  261MOL0     C35106   1.199   0.992   4.589 -0.5198  1.2611  0.1011
  261MOL0     C35107   1.296   0.888   4.620  1.3679 -0.4678  0.5345
  261MOL0     O35108   1.424   0.905   4.575 -0.4085 -0.1815 -0.2566
  261MOL0     C35109   1.436   0.884   4.433  0.0078  0.7254  0.4024
  261MOL0     C35110   1.581   0.875   4.382 -0.2562  0.6098 -0.1995
  261MOL0     C35111   1.688   0.979   4.438  0.6447  0.1045 -0.0890
  261MOL0     C35112   1.818   0.949   4.369  0.7186 -0.2218  0.4946
  261MOL0     C35113   1.930   1.042   4.394 -0.3808 -0.2765  0.6174
  261MOL0     C35114   2.052   0.991   4.326  0.0190  0.1544  0.1602
  261MOL0     C35115   2.153   1.094   4.338 -0.4196 -0.4820  0.1409
  261MOL0     C35116   2.285   1.027   4.284  0.1680 -0.0198  0.4373
  261MOL0     N35117   2.410   1.098   4.331  0.8358 -0.6514  0.3535
  261MOL0     C35118   2.508   1.060   4.417  0.2298  0.2224 -0.1426
  261MOL0     C35119   2.621   1.123   4.380 -0.0345  0.4758 -0.3160
  261MOL0     C35120   2.749   1.123   4.459 -0.2238 -0.1908  0.3915
  261MOL0     C35121   2.851   1.036   4.381  0.1076 -0.1311  0.0443
  261MOL0     C35122   2.936   1.117   4.296  0.0498  0.1309  1.3466
  261MOL0     C35123   3.021   1.035   4.204 -0.5658 -0.1428  0.0109
  261MOL0     O35124   3.121   1.121   4.143 -0.0205 -0.2949 -0.2635
  261MOL0     C35125   3.240   1.140   4.200  0.3947  0.0214  0.9989
  261MOL0     C35126   3.325   1.035   4.254 -0.6889  0.3565  1.4067
  261MOL0     C35127   3.453   1.063   4.308 -0.5396 -0.3624  0.3261
  261MOL0     C35128   3.538   0.948   4.343 -0.5249  0.1735  0.6207
  261MOL0     C35129   3.503   1.202   4.319  0.3629  0.8337  0.6753
  261MOL0     C35130   3.634   1.236   4.382  0.4170  0.4545 -0.3233
  261MOL0     O35131   3.728   1.142   4.373 -0.7721 -0.2260  0.1097
  261MOL0     C35132   3.847   1.147   4.450  0.1534 -0.0004 -0.8951
  261MOL0     C35133   3.959   1.098   4.381  0.2884  0.1358 -0.3133
  261MOL0     C35134   4.083   1.099   4.439 -0.7628  0.1057  0.8470
  261MOL0     C35135   4.102   1.143   4.569  0.2914  0.2111 -0.0971
  261MOL0     O35136   4.233   1.136   4.617 -0.0408 -0.2507 -0.5179
  261MOL0     C35137   4.272   1.209   4.741  0.0937  0.6616  0.8484
  261MOL0     C35138   4.426   1.214   4.722  0.3680  0.6835  0.4089
  261MOL0     C35139   4.465   1.309   4.611 -0.2165 -0.3732  1.1465
  261MOL0     C35140   4.614   1.308   4.577  0.3942  0.2641 -0.4652
  261MOL0     C35141   4.655   1.426   4.489  0.1229  0.0568 -0.2297
  261MOL0     C35142   4.814   1.444   4.490  0.1373  1.0548  0.0078
  261MOL0     C35143   4.860   1.557   4.392 -0.0342  0.4728  0.9173
  261MOL0     C35144   5.019   1.541   4.373  1.0046  0.3956  0.4004
  261MOL0    Cl35145   5.110   1.495   4.522  0.5889 -0.4469  0.0902
  261MOL0     C35146   3.990   1.195   4.637 -0.1078  0.8075  0.7279
  261MOL0     C35147   3.863   1.192   4.585  0.1986 -0.6687  0.2755
  261MOL0     O35148   3.646   1.341   4.435  0.5047  0.4010  0.6914
  261MOL0     C35149   3.412   1.298   4.269 -0.7605 -1.0137 -1.2987
  261MOL0     C35150   3.284   1.276   4.208  0.4811  0.7978  0.4176
  261MOL0     N35151   2.591   1.205   4.271 -0.5001  0.4489  0.3200
  261MOL0     N35152   2.468   1.186   4.244 -0.0260 -0.3446 -0.5766
  261MOL0     C35153   1.252   0.776   4.685  0.7122  0.6171 -0.8544
  261MOL0     C35154   1.120   0.752   4.694 -0.9838 -0.2199  0.2438
  261MOL0     C35155   0.721   0.753   4.828  0.6281  0.6780 -0.3924
  261MOL0     C35156   0.686   0.687   4.948  1.1191  0.1415  0.6825
  261MOL0     C35157   0.549   0.647   4.972  0.5232 -0.7188 -0.5740
  261MOL0     C35158   0.449   0.669   4.874 -0.0507  0.4324  0.8884
  261MOL0     O35159   0.315   0.641   4.905 -0.0062  0.3970  1.1947
  261MOL0     C35160   0.220   0.737   4.846 -0.0571 -0.2956  0.0587
  261MOL0     C35161   0.244   0.875   4.893 -0.3604 -0.0682  0.2032
  261MOL0     C35162   0.207   0.902   5.036 -0.0955  0.2229 -0.4978
  261MOL0     C35163   0.275   1.040   5.080  0.9974 -0.1401 -0.1025
  261MOL0     C35164   0.424   1.025   5.103  0.6503  0.2123 -0.0392
  261MOL0     C35165   0.534   1.012   5.108 -0.4661  0.4532 -0.1440
  261MOL0     C35166   0.493   0.718   4.751  0.2153  0.0859 -0.6958
  261MOL0     C35167   0.616   0.769   4.734  0.4132 -0.9117  0.5668
  261MOL0     H35168   0.998   1.043   4.582 -2.5665 -1.4877  0.3056
  261MOL0     H35169   1.243   1.083   4.548  0.5631  0.7222  0.0464
  261MOL0     H35170   1.387   0.791   4.404  0.0225  1.0684 -0.7656
  261MOL0     H35171   1.386   0.959   4.371 -1.0034  0.3892  0.7947
  261MOL0     H35172   1.604   0.769   4.397 -2.1797  0.2192  0.2220
  261MOL0     H35173   1.578   0.893   4.274  1.0605 -1.3169 -0.6219
  261MOL0     H35174   1.650   1.075   4.403 -1.1051 -1.2848 -2.2749
  261MOL0     H35175   1.697   0.981   4.547  0.7517 -0.6457 -0.0747
  261MOL0     H35176   1.862   0.851   4.390  0.5581 -0.6501 -0.9915
  261MOL0     H35177   1.792   0.944   4.262 -0.6263  2.5665  0.6168
  261MOL0     H35178   1.907   1.143   4.359  2.8048 -0.1357 -1.5545
  261MOL0     H35179   1.948   1.051   4.502 -0.7033  2.5227  0.5206
  261MOL0     H35180   2.076   0.906   4.390 -0.0004  0.8621  1.1382
  261MOL0     H35181   2.024   0.962   4.224 -1.6876 -3.0796  1.3990
  261MOL0     H35182   2.123   1.182   4.280  0.3100 -0.2206  0.1548
  261MOL0     H35183   2.163   1.135   4.440 -0.3281  2.1042 -0.8273
  261MOL0     H35184   2.281   1.000   4.178  0.1386 -0.5821  0.5740
  261MOL0     H35185   2.289   0.935   4.343  0.0577  0.9629  2.0447
  261MOL0     H35186   2.505   0.992   4.502  1.9558 -0.0633 -0.2686
  261MOL0     H35187   2.786   1.225   4.471  0.7357 -0.0908 -2.4835
  261MOL0     H35188   2.736   1.093   4.563  0.9439  0.9232  0.8842
  261MOL0     H35189   2.803   0.952   4.331  1.4901 -1.3837  0.7427
  261MOL0     H35190   2.922   0.997   4.455  0.2312 -1.6099 -0.8306
  261MOL0     H35191   3.009   1.175   4.354  1.7904  0.8267 -1.3154
  261MOL0     H35192   2.882   1.189   4.233  0.6737  0.2391  0.9170
  261MOL0     H35193   2.964   0.978   4.130  0.9819  0.4358 -1.7052
  261MOL0     H35194   3.075   0.961   4.263 -0.7841  0.0502  0.4556
  261MOL0     H35195   3.290   0.933   4.239  0.0703  0.0796  1.4976
  261MOL0     H35196   3.632   0.961   4.289 -0.2058 -0.4644  1.0130
  261MOL0     H35197   3.566   0.940   4.449  1.4546  1.1168  0.2273
  261MOL0     H35198   3.491   0.855   4.312  0.1188 -0.9538  2.8480
  261MOL0     H35199   3.948   1.054   4.282  0.0746 -0.2676 -0.1173
  261MOL0     H35200   4.166   1.059   4.383 -0.8300  0.4789  0.4742
  261MOL0     H35201   4.240   1.314   4.740  2.4568  1.4367  1.3960
  261MOL0     H35202   4.246   1.160   4.835 -3.1311 -1.4393 -0.9387
  261MOL0     H35203   4.466   1.247   4.818 -0.2119  0.8787  0.5867
  261MOL0     H35204   4.466   1.114   4.705 -2.2712 -0.6072  1.2436
  261MOL0     H35205   4.429   1.407   4.642  4.1726  1.1162  2.1099
  261MOL0     H35206   4.415   1.276   4.519 -2.3585  0.2726  2.0173
  261MOL0     H35207   4.657   1.324   4.676 -2.2168 -1.2530  1.0273
  261MOL0     H35208   4.647   1.219   4.522  0.1426  0.0016 -0.1924
  261MOL0     H35209   4.616   1.525   4.516  3.6760  0.9935  2.1729
  261MOL0     H35210   4.623   1.390   4.391  1.9677 -3.9464  0.4252
  261MOL0     H35211   4.841   1.483   4.589 -0.5877 -1.0146  1.0736
  261MOL0     H35212   4.854   1.345   4.469  1.2440  1.4409  0.2610
  261MOL0     H35213   4.855   1.654   4.442  1.4204  0.4494  1.1395
  261MOL0     H35214   4.805   1.556   4.297 -3.2179 -0.7571  2.6096
  261MOL0     H35215   5.073   1.628   4.334  0.4794  0.1500 -0.9211
  261MOL0     H35216   5.034   1.464   4.297 -3.8988 -1.4923  0.9613
  261MOL0     H35217   4.015   1.225   4.738 -0.9998 -2.9364  2.2483
  261MOL0     H35218   3.764   1.224   4.618 -0.6305 -3.4070  0.7095
  261MOL0     H35219   3.437   1.404   4.268 -3.0977 -0.4140 -1.3046
  261MOL0     H35220   3.209   1.352   4.190 -2.9513 -2.1059  1.3824
  261MOL0     H35221   1.327   0.700   4.701  0.2479  0.2670 -0.3134
  261MOL0     H35222   1.082   0.658   4.733 -2.1885  0.7207  1.4291
  261MOL0     H35223   0.754   0.685   5.033  1.2013  0.2843  0.6203
  261MOL0     H35224   0.534   0.610   5.073  2.5538  1.3731  0.5896
  261MOL0     H35225   0.223   0.726   4.737  0.7634 -0.1820  0.0614
  261MOL0     H35226   0.117   0.711   4.871 -0.1041  0.1721  0.3502
  261MOL0     H35227   0.186   0.947   4.835  0.2892 -0.0991 -0.5035
  261MOL0     H35228   0.347   0.909   4.878 -0.4431 -0.4108 -1.2930
  261MOL0     H35229   0.239   0.825   5.106 -1.6340 -0.9541 -1.0221
  261MOL0     H35230   0.098   0.915   5.041 -0.3178 -0.9200 -1.7990
  261MOL0     H35231   0.239   1.071   5.178  1.6789 -0.7507  0.3521
  261MOL0     H35232   0.240   1.118   5.012  0.1178 -0.0122  0.4760
  261MOL0     H35233   0.640   1.001   5.113 -0.5212  0.1635  0.4743
  261MOL0     H35234   0.421   0.731   4.671 -0.8274 -1.7492 -0.1255
  261MOL0     H35235   0.613   0.807   4.632 -1.7448 -0.5230  0.7447
  262MOL0     O35236   9.311   8.625   8.724 -0.7419  0.5435  0.4821
  262MOL0     C35237   9.285   8.740   8.706 -0.1771 -0.7478  0.2733
  262MOL0     O35238   9.162   8.793   8.736 -1.0145  0.8538 -0.2190
  262MOL0     C35239   9.062   8.708   8.757  0.4845  0.2428 -0.4481
  262MOL0     C35240   9.041   8.657   8.889 -0.3333  0.2296 -0.3155
  262MOL0     C35241   8.935   8.571   8.916  0.0715 -0.4898  0.8859
  262MOL0     C35242   8.850   8.530   8.819  0.4757  0.3487 -0.5335
  262MOL0     O35243   8.736   8.455   8.852 -0.1554  0.1919  0.0195
  262MOL0     C35244   8.677   8.376   8.751  0.1453  0.3928  0.9436
  262MOL0     C35245   8.578   8.279   8.807  0.4741 -0.0638 -0.1051
  262MOL0     C35246   8.630   8.192   8.923 -0.2397 -0.6386  0.7542
  262MOL0     C35247   8.535   8.079   8.962  0.6861  0.7219  0.0350
  262MOL0     C35248   8.440   8.115   9.075  0.7842 -0.4799  0.5198
  262MOL0     C35249   8.334   8.008   9.106  0.5838  0.6156  1.3956
  262MOL0     C35250   8.248   7.970   8.977 -0.8450  0.5664 -0.1228
  262MOL0     C35251   8.140   7.890   9.035  0.5458  0.2478 -0.6477
  262MOL0     N35252   8.043   7.853   8.933 -0.2625 -0.2218  0.6311
  262MOL0     C35253   7.914   7.920   8.923 -0.4681 -0.1969  0.4115
  262MOL0     C35254   7.867   7.883   8.800 -0.5445 -0.0143  0.0098
  262MOL0     C35255   7.735   7.919   8.726 -0.0310 -0.6380 -0.8177
  262MOL0     C35256   7.699   8.066   8.761  0.0423 -0.2188  0.1933
  262MOL0     C35257   7.578   8.128   8.697 -0.4923 -0.1379  0.9977
  262MOL0     C35258   7.459   8.023   8.697 -0.8203 -0.6767  0.6216
  262MOL0     O35259   7.350   8.104   8.649 -0.3287 -0.6242 -0.7357
  262MOL0     C35260   7.236   8.055   8.609  0.5930  0.6278  0.2717
  262MOL0     C35261   7.132   8.149   8.568 -0.3466 -0.8170  0.3879
  262MOL0     C35262   6.997   8.109   8.539  0.1134 -0.1350 -0.5705
  262MOL0     C35263   6.900   8.211   8.493 -0.0106 -0.9934 -0.0040
  262MOL0     C35264   6.967   7.966   8.544 -0.8458 -0.0609  0.2809
  262MOL0     C35265   6.844   7.908   8.508  0.0985  0.0470  0.5191
  262MOL0     O35266   6.853   7.830   8.397  0.3118  0.7559  0.0041
  262MOL0     C35267   6.756   7.737   8.364  0.6389  0.0255  0.8164
  262MOL0     C35268   6.704   7.639   8.451 -0.7562  0.3383 -0.2308
  262MOL0     C35269   6.604   7.551   8.408 -0.2716 -0.4348 -0.4553
  262MOL0     C35270   6.545   7.560   8.277  0.2676 -0.2084  0.1244
  262MOL0     O35271   6.434   7.484   8.244  0.0699 -0.3679 -0.2874
  262MOL0     C35272   6.345   7.543   8.145 -0.2643 -0.0202 -0.1698
  262MOL0     C35273   6.224   7.451   8.151 -0.4142  0.3855  0.5635
  262MOL0     C35274   6.139   7.452   8.282  0.3630 -0.6939  0.0100
  262MOL0     C35275   6.168   7.337   8.383 -0.3492  0.3492 -0.4232
  262MOL0     C35276   6.078   7.338   8.510  0.0285  0.2566 -1.1879
  262MOL0     C35277   5.940   7.260   8.487 -0.1518  0.2475  0.4437
  262MOL0     C35278   5.866   7.249   8.617 -0.3036  0.0350  0.7813
  262MOL0     C35279   5.747   7.160   8.616  0.6518 -0.2447 -0.0551
  262MOL0    Cl35280   5.626   7.245   8.522 -0.0515  0.5814 -0.0871
  262MOL0     C35281   6.606   7.647   8.181  0.4011 -0.0858  0.5749
  262MOL0     C35282   6.705   7.736   8.232 -0.4425 -0.0717  0.6369
  262MOL0     O35283   6.743   7.938   8.565  0.2726 -0.5366 -0.0370
  262MOL0     C35284   7.069   7.872   8.593 -0.5240 -0.0485  0.3790
  262MOL0     C35285   7.201   7.921   8.627  0.5467  0.8936  1.2132
  262MOL0     N35286   7.967   7.813   8.738 -0.0429 -0.2924  0.3829
  262MOL0     N35287   8.068   7.787   8.816  0.3615 -0.2672  0.1248
  262MOL0     C35288   8.875   8.574   8.682  0.0036 -0.3957 -0.1377
  262MOL0     C35289   8.981   8.657   8.653  0.2905 -0.1069 -0.1385
  262MOL0     C35290   9.386   8.834   8.663  1.8589 -0.3975  0.9741
  262MOL0     C35291   9.524   8.792   8.651 -0.2138 -1.2331 -1.5530
  262MOL0     C35292   9.619   8.886   8.615 -0.4594  0.5939 -0.1986
  262MOL0     C35293   9.575   9.014   8.576 -0.0323 -0.1409 -0.6300
  262MOL0     O35294   9.678   9.100   8.558 -0.7300  0.0272  0.1900
  262MOL0     C35295   9.693   9.171   8.684 -0.1717  0.1750 -0.1675
  262MOL0     C35296   9.814   9.262   8.672 -0.5979  0.0501  0.1316
  262MOL0     C35297   9.773   9.397   8.637  0.1722 -0.3665 -0.4578
  262MOL0     C35298   9.849   9.461   8.523  0.2766 -0.6387 -0.7807
  262MOL0     C35299   9.822   9.603   8.524 -0.4642  0.6501  0.3318
  262MOL0     C35300   9.791   9.718   8.520  0.3229  0.6993  0.1665
  262MOL0     C35301   9.446   9.052   8.577  0.3593 -0.6286 -0.0884
  262MOL0     C35302   9.352   8.967   8.624 -0.1357  0.1013  0.0275
  262MOL0     H35303   9.084   8.694   8.982 -1.3252 -3.2882  1.7505
  262MOL0     H35304   8.906   8.539   9.016 -2.6368 -3.4245 -0.6622
  262MOL0     H35305   8.623   8.433   8.674  1.7380 -1.7743 -1.9744
  262MOL0     H35306   8.764   8.327   8.707 -0.0602  2.3353 -1.8664
  262MOL0     H35307   8.491   8.334   8.845 -2.4371 -3.6909 -0.8280
  262MOL0     H35308   8.550   8.214   8.723 -2.6273 -0.0731  0.7931
  262MOL0     H35309   8.731   8.158   8.896 -1.1553 -2.4606 -0.5886
  262MOL0     H35310   8.647   8.259   9.008  2.2219  2.0237 -1.6001
  262MOL0     H35311   8.484   8.046   8.871  0.7971 -1.4839  0.7156
  262MOL0     H35312   8.593   7.996   9.004 -0.3611  0.0929  0.2774
  262MOL0     H35313   8.508   8.129   9.160  1.7558  2.5502 -0.6331
  262MOL0     H35314   8.387   8.210   9.063 -1.8703 -2.0066 -0.5331
  262MOL0     H35315   8.380   7.917   9.147  0.5669 -0.9016 -1.6830
  262MOL0     H35316   8.273   8.055   9.185  2.9911 -0.9140  4.3861
  262MOL0     H35317   8.205   8.056   8.925 -1.1768  1.5137  1.6195
  262MOL0     H35318   8.310   7.912   8.909 -0.9982  0.7198 -0.3962
  262MOL0     H35319   8.090   7.936   9.121 -1.7131 -1.1035 -1.1470
  262MOL0     H35320   8.194   7.803   9.074  0.6935  0.4653 -0.3665
  262MOL0     H35321   7.855   7.977   8.994 -5.1676 -0.8059 -2.5502
  262MOL0     H35322   7.753   7.907   8.619 -0.6715 -0.4605 -0.9495
  262MOL0     H35323   7.653   7.849   8.746  0.2187 -0.4060  1.2537
  262MOL0     H35324   7.786   8.129   8.742 -0.4944  0.7738  0.9320
  262MOL0     H35325   7.686   8.065   8.869  2.0361 -0.8609  0.4734
  262MOL0     H35326   7.599   8.150   8.592  0.9679  1.7681  1.6158
  262MOL0     H35327   7.553   8.227   8.736  1.8208  0.3673  1.3556
  262MOL0     H35328   7.439   7.980   8.796  0.6472 -4.7563 -0.6806
  262MOL0     H35329   7.481   7.949   8.620  1.7702 -0.5012  1.0987
  262MOL0     H35330   7.163   8.253   8.564 -0.3237 -0.8119  0.7458
  262MOL0     H35331   6.840   8.159   8.418 -0.5986  1.4328 -1.3168
  262MOL0     H35332   6.833   8.238   8.576  0.4070  0.9479 -0.2407
  262MOL0     H35333   6.945   8.295   8.440  0.8033 -2.0803 -1.0833
  262MOL0     H35334   6.756   7.642   8.546  0.4117 -0.2968 -0.8270
  262MOL0     H35335   6.573   7.489   8.491  2.3188 -1.2902 -0.0318
  262MOL0     H35336   6.314   7.642   8.181 -3.0903 -0.9795  0.2492
  262MOL0     H35337   6.391   7.547   8.046 -0.2089  0.3916 -0.1294
  262MOL0     H35338   6.155   7.475   8.070 -0.6647 -3.2712 -0.4554
  262MOL0     H35339   6.256   7.347   8.137 -0.1679  0.1906  2.3917
  262MOL0     H35340   6.033   7.445   8.257  0.1571 -0.3788  0.7770
  262MOL0     H35341   6.140   7.556   8.315 -1.0016  0.2639 -2.6788
  262MOL0     H35342   6.169   7.241   8.330 -3.1672  0.2525 -0.4291
  262MOL0     H35343   6.271   7.349   8.418 -0.4967  2.3300 -0.5633
  262MOL0     H35344   6.060   7.443   8.535  0.5648  1.1459 -4.1620
  262MOL0     H35345   6.146   7.279   8.573  2.5161  2.3472 -1.7665
  262MOL0     H35346   5.878   7.316   8.417 -0.4857  0.0384  0.5678
  262MOL0     H35347   5.957   7.158   8.451 -0.0513  0.6630 -0.7253
  262MOL0     H35348   5.839   7.348   8.653  2.7971  0.6994  1.5749
  262MOL0     H35349   5.932   7.206   8.693  0.1327  1.4437  1.2387
  262MOL0     H35350   5.706   7.128   8.712  0.2766 -0.8519 -0.4135
  262MOL0     H35351   5.771   7.068   8.563  1.8176  1.0461 -1.8559
  262MOL0     H35352   6.583   7.640   8.075  1.2085  0.2529  0.3649
  262MOL0     H35353   6.744   7.809   8.162 -0.7515 -1.0929 -0.6390
  262MOL0     H35354   7.042   7.767   8.593 -1.3659  0.0408 -3.4543
  262MOL0     H35355   7.266   7.848   8.676 -0.1539  0.5384  1.6247
  262MOL0     H35356   8.814   8.533   8.603  3.6221 -1.4348 -2.6210
  262MOL0     H35357   8.993   8.698   8.553 -2.0380  2.7009  0.5670
  262MOL0     H35358   9.547   8.686   8.665 -1.6055 -2.2719 -5.5766
  262MOL0     H35359   9.722   8.852   8.603 -1.2362 -1.2088 -2.3754
  262MOL0     H35360   9.605   9.227   8.714 -1.1339 -0.5429 -1.5433
  262MOL0     H35361   9.719   9.099   8.762  1.1307 -0.2299 -0.9373
  262MOL0     H35362   9.881   9.216   8.598 -2.1758  1.1552 -2.0955
  262MOL0     H35363   9.857   9.265   8.773 -0.2131 -0.0738 -0.0281
  262MOL0     H35364   9.752   9.463   8.721 -1.9498 -0.6747 -0.6919
  262MOL0     H35365   9.673   9.383   8.595 -0.0028  1.8389 -0.8765
  262MOL0     H35366   9.822   9.418   8.426 -0.8566  1.0506 -1.2554
  262MOL0     H35367   9.957   9.445   8.530 -0.0138 -2.8045 -0.5042
  262MOL0     H35368   9.774   9.822   8.500 -0.8029  0.7268  1.1239
  262MOL0     H35369   9.416   9.148   8.538 -1.2916 -1.9803 -2.3851
  262MOL0     H35370   9.248   8.998   8.623 -1.1618 -2.9715 -0.4626
  263MOL0     O35371   3.685   9.909   6.285 -0.2209 -0.0385 -0.1620
  263MOL0     C35372   3.679   9.789   6.333  0.1011 -0.8548  0.7623
  263MOL0     O35373   3.580   9.751   6.419  0.4202  1.1984  0.2279
  263MOL0     C35374   3.500   9.843   6.481  1.1827 -0.6696  0.1682
  263MOL0     C35375   3.369   9.798   6.510 -0.5053 -0.1842 -0.4933
  263MOL0     C35376   3.273   9.883   6.575  0.8209  0.2934 -0.2032
  263MOL0     C35377   3.304  10.007   6.627  0.2476  1.0614  0.5193
  263MOL0     O35378   3.210  10.084   6.689  0.4504 -0.3832  0.1138
  263MOL0     C35379   3.159  10.045   6.821 -0.8423  0.1139 -0.2985
  263MOL0     C35380   3.099  10.170   6.865  0.1252 -0.5831 -0.3338
  263MOL0     C35381   2.992  10.146   6.970 -0.5224  0.1082  0.6053
  263MOL0     C35382   2.895  10.263   6.990  0.9462 -0.3491 -0.3465
  263MOL0     C35383   2.763  10.221   7.054 -0.3889 -0.5146 -0.3979
  263MOL0     C35384   2.677  10.337   7.098  0.3331 -0.2947 -0.4144
  263MOL0     C35385   2.548  10.286   7.148  0.6842  0.5708 -0.3525
  263MOL0     C35386   2.457  10.401   7.207  0.3068 -0.3288 -0.1902
  263MOL0     N35387   2.323  10.354   7.235  0.7905  0.4837  0.7552
  263MOL0     C35388   2.215  10.348   7.152  0.4534  0.0071 -0.3561
  263MOL0     C35389   2.122  10.270   7.210  0.6743 -0.0940 -0.5139
  263MOL0     C35390   1.999  10.202   7.170 -0.0949  0.8854  0.8236
  263MOL0     C35391   2.029  10.142   7.021 -0.6383 -0.3008  0.3981
  263MOL0     C35392   2.124  10.018   7.028  0.3326  0.1016 -0.1243
  263MOL0     C35393   2.177   9.969   6.898 -1.2902  0.3274  0.2066
  263MOL0     O35394   2.289  10.051   6.858  0.3948 -0.1603  0.6187
  263MOL0     C35395   2.375   9.998   6.764 -0.5426  1.1578  0.0245
  263MOL0     C35396   2.500   9.951   6.802  0.4348 -0.9522 -0.5007
  263MOL0     C35397   2.595   9.908   6.703 -0.1230  0.2250  0.5496
  263MOL0     C35398   2.743   9.898   6.747  0.1259 -0.0608  0.0322
  263MOL0     C35399   2.558   9.884   6.566  0.2704 -0.3087 -1.3293
  263MOL0     C35400   2.634   9.803   6.469 -0.1855  0.2544  0.1583
  263MOL0     O35401   2.744   9.744   6.510  0.4031  0.3909  0.8248
  263MOL0     C35402   2.866   9.727   6.444 -0.2104  0.2644 -0.0940
  263MOL0     C35403   2.940   9.620   6.483  0.6055 -0.4158  0.1206
  263MOL0     C35404   3.051   9.574   6.405  0.0258  0.5873 -0.1747
  263MOL0     C35405   3.100   9.636   6.289  1.1465 -0.9698 -0.2258
  263MOL0     O35406   3.204   9.596   6.206 -0.3967  0.9298  0.4775
  263MOL0     C35407   3.280   9.477   6.253  0.4581 -0.2456 -0.1865
  263MOL0     C35408   3.411   9.477   6.188 -0.1562  0.2881  0.3075
  263MOL0     C35409   3.394   9.431   6.043  0.2771  0.5625  0.3177
  263MOL0     C35410   3.535   9.390   5.991 -0.2126  0.2342 -0.0136
  263MOL0     C35411   3.531   9.372   5.840  0.4892 -0.7887 -0.3089
  263MOL0     C35412   3.656   9.293   5.786  0.7652  0.0719 -0.5678
  263MOL0     C35413   3.791   9.361   5.808  0.2017 -1.3545 -0.1983
  263MOL0     C35414   3.888   9.256   5.735 -0.9495 -0.7258  0.2394
  263MOL0    Cl35415   3.878   9.101   5.821  0.1019 -0.0617  0.2266
  263MOL0     C35416   3.023   9.752   6.251 -0.4426  0.3460 -0.5381
  263MOL0     C35417   2.909   9.794   6.326  0.1648 -0.1541  0.0271
  263MOL0     O35418   2.605   9.815   6.350  0.1347  0.3284  0.2767
  263MOL0     C35419   2.428   9.926   6.536  0.2806  0.5266  0.3169
  263MOL0     C35420   2.340   9.977   6.630 -0.1125 -0.0640 -0.6588
  263MOL0     N35421   2.166  10.236   7.341  0.3368  0.1621  0.2424
  263MOL0     N35422   2.273  10.297   7.352 -0.2675 -0.1940 -0.9223
  263MOL0     C35423   3.429  10.053   6.596 -0.5718  1.1110 -1.1766
  263MOL0     C35424   3.524   9.975   6.522  0.5138 -0.6354  0.2346
  263MOL0     C35425   3.793   9.699   6.294 -0.4757  0.0665 -0.4611
  263MOL0     C35426   3.779   9.561   6.264  0.1234 -0.7808 -0.9462
  263MOL0     C35427   3.881   9.473   6.238 -0.1243  0.2511 -0.0230
  263MOL0     C35428   4.008   9.517   6.228 -0.8631  0.3308  0.3205
  263MOL0     O35429   4.125   9.447   6.188  0.1146 -0.3449 -0.4925
  263MOL0     C35430   4.152   9.308   6.224  0.5605  0.9820 -0.0353
  263MOL0     C35431   4.242   9.251   6.120 -1.0933  0.3710  0.0394
  263MOL0     C35432   4.174   9.242   5.988  0.7356 -0.0929  0.1002
  263MOL0     C35433   4.259   9.169   5.877 -0.0689 -0.2221 -0.8544
  263MOL0     C35434   4.393   9.226   5.867 -0.3407 -0.7242  0.3202
  263MOL0     C35435   4.499   9.289   5.867  0.1522  0.7277  0.3313
  263MOL0     C35436   4.031   9.655   6.259  0.0755 -0.5090 -0.2369
  263MOL0     C35437   3.927   9.744   6.293  0.1691  0.2705  0.6579
  263MOL0     H35438   3.355   9.694   6.482  1.9170 -1.8153  3.5156
  263MOL0     H35439   3.171   9.847   6.573  1.2692 -1.0133 -0.8662
  263MOL0     H35440   3.079   9.974   6.797  0.7542 -2.0831  0.4996
  263MOL0     H35441   3.239  10.008   6.887  0.7294  0.1022 -2.1165
  263MOL0     H35442   3.172  10.231   6.918 -0.1959  0.1368 -0.7106
  263MOL0     H35443   3.053  10.215   6.777  1.6327 -0.0767 -0.9032
  263MOL0     H35444   2.938  10.054   6.946  1.2883 -1.0117  0.6574
  263MOL0     H35445   3.037  10.111   7.063 -0.4258 -1.8252 -0.1285
  263MOL0     H35446   2.946  10.335   7.055  1.2353 -1.8098  1.0946
  263MOL0     H35447   2.882  10.301   6.888 -2.2228 -0.4260 -0.0731
  263MOL0     H35448   2.713  10.152   6.986 -0.8329 -0.3885 -0.1993
  263MOL0     H35449   2.792  10.168   7.145  1.8653  2.9512  1.1574
  263MOL0     H35450   2.722  10.396   7.178 -0.9499 -0.4258  0.4366
  263MOL0     H35451   2.665  10.394   7.005 -1.5734 -2.9943 -1.9607
  263MOL0     H35452   2.482  10.237   7.076 -2.0937  1.4390  1.4157
  263MOL0     H35453   2.558  10.216   7.231  0.2190  4.0062  2.9015
  263MOL0     H35454   2.456  10.481   7.133 -1.8567  0.4570  0.5961
  263MOL0     H35455   2.506  10.430   7.301 -3.1893  0.4745  1.5589
  263MOL0     H35456   2.203  10.385   7.051  2.3975 -0.1681 -0.6804
  263MOL0     H35457   1.978  10.121   7.240  4.0874 -0.8061  0.4334
  263MOL0     H35458   1.925  10.283   7.171  0.3719  1.3244  0.5940
  263MOL0     H35459   2.080  10.214   6.957 -0.0726 -2.4425 -1.7159
  263MOL0     H35460   1.930  10.109   6.987 -0.2292 -2.7229  1.3131
  263MOL0     H35461   2.087   9.934   7.086  0.7585 -0.2661 -0.3776
  263MOL0     H35462   2.213  10.050   7.084 -0.2579  0.7931  0.4451
  263MOL0     H35463   2.096   9.970   6.825 -1.1529 -0.9639  0.0260
  263MOL0     H35464   2.215   9.870   6.924 -1.1578  0.4757  0.5959
  263MOL0     H35465   2.534   9.971   6.903 -0.6399 -1.2256 -0.0687
  263MOL0     H35466   2.781   9.797   6.766  0.3920 -0.2449 -1.3657
  263MOL0     H35467   2.807   9.943   6.670 -0.2167 -0.9336 -0.7865
  263MOL0     H35468   2.741   9.951   6.843 -1.6429 -0.2193  0.1095
  263MOL0     H35469   2.912   9.566   6.573 -0.3612  0.7921  0.5756
  263MOL0     H35470   3.100   9.482   6.436 -1.4663  0.3026  1.4540
  263MOL0     H35471   3.294   9.484   6.361 -0.1025 -3.7774  0.2329
  263MOL0     H35472   3.233   9.380   6.232  0.1548 -0.1081 -0.1595
  263MOL0     H35473   3.465   9.572   6.197  0.6367 -0.1463  0.2183
  263MOL0     H35474   3.470   9.400   6.238  0.1463 -0.1037 -0.6273
  263MOL0     H35475   3.353   9.517   5.990 -0.3327 -1.1884 -2.2692
  263MOL0     H35476   3.330   9.342   6.035  2.8767 -1.2682 -4.0302
  263MOL0     H35477   3.621   9.455   6.009 -0.2041  0.8673 -2.0015
  263MOL0     H35478   3.555   9.287   6.022 -2.2593 -0.0115  0.6360
  263MOL0     H35479   3.515   9.470   5.793 -0.3845 -0.5808  0.3961
  263MOL0     H35480   3.440   9.318   5.813  0.5939 -0.2796 -1.7918
  263MOL0     H35481   3.645   9.197   5.837  0.9231 -0.6408 -1.8405
  263MOL0     H35482   3.636   9.283   5.679  1.9872  0.4521 -0.8412
  263MOL0     H35483   3.823   9.378   5.911  2.0195  2.5257 -1.2196
  263MOL0     H35484   3.786   9.454   5.750 -1.6362 -2.0483 -1.2220
  263MOL0     H35485   3.982   9.311   5.740 -1.0960 -0.4914  0.4063
  263MOL0     H35486   3.863   9.249   5.628  0.6424 -0.4102 -0.1717
  263MOL0     H35487   3.044   9.791   6.152 -1.5902 -2.5463 -2.0446
  263MOL0     H35488   2.838   9.865   6.285  0.7475 -1.8014 -4.4882
  263MOL0     H35489   2.378   9.914   6.441 -1.0621 -0.0939  1.0718
  263MOL0     H35490   2.248  10.023   6.597 -1.0125 -2.7463 -2.2289
  263MOL0     H35491   3.458  10.155   6.620 -0.2579  0.8344 -0.3705
  263MOL0     H35492   3.621  10.014   6.492  2.6609 -3.8517  2.3906
  263MOL0     H35493   3.678   9.521   6.268  0.8993 -2.8547  2.6560
  263MOL0     H35494   3.873   9.365   6.232  2.9090 -0.1183  0.9121
  263MOL0     H35495   4.192   9.303   6.326  0.6384  0.6069 -0.0809
  263MOL0     H35496   4.064   9.244   6.211 -1.9586  4.5862 -2.3902
  263MOL0     H35497   4.280   9.151   6.145  1.2538  0.8367 -1.3925
  263MOL0     H35498   4.331   9.314   6.110 -0.1030 -1.0175 -0.1664
  263MOL0     H35499   4.138   9.334   5.942 -1.8876 -2.5595 -3.3412
  263MOL0     H35500   4.081   9.185   5.994  0.9326 -0.6351 -1.6566
  263MOL0     H35501   4.215   9.168   5.777 -0.4778  0.5464 -0.6913
  263MOL0     H35502   4.273   9.066   5.911 -3.4156 -0.5910 -0.2449
  263MOL0     H35503   4.575   9.364   5.866 -0.4801  1.4449  1.7871
  263MOL0     H35504   4.133   9.692   6.261  0.7335 -2.2272  1.7203
  263MOL0     H35505   3.949   9.850   6.306  0.6443  0.3412 -0.5139
  264MOL0     O35506   8.480   1.436  10.232 -0.4184 -1.0814 -0.0577
  264MOL0     C35507   8.510   1.485  10.122 -0.0638  0.9062 -1.0532
  264MOL0     O35508   8.490   1.424   9.998 -0.1257 -0.8834 -0.2602
  264MOL0     C35509   8.432   1.297   9.986 -0.0675 -0.6510  0.1907
  264MOL0     C35510   8.357   1.222  10.077 -1.2339  0.1970 -0.0762
  264MOL0     C35511   8.326   1.091  10.056  0.1819  0.2733  0.3746
  264MOL0     C35512   8.353   1.031   9.939 -0.1870  0.3543 -0.2025
  264MOL0     O35513   8.291   0.906   9.934 -0.3579 -0.4011  0.8288
  264MOL0     C35514   8.321   0.818   9.822 -0.1685  0.6706  0.0619
  264MOL0     C35515   8.353   0.691   9.901 -0.4281  0.3481 -0.0114
  264MOL0     C35516   8.243   0.608   9.952  0.8509  0.5759  0.1154
  264MOL0     C35517   8.165   0.540   9.843  0.9772  0.7549  0.4447
  264MOL0     C35518   8.066   0.443   9.907 -0.0312  0.2156 -0.2386
  264MOL0     C35519   7.974   0.401   9.788  0.1718 -0.0673 -0.1331
  264MOL0     C35520   7.851   0.319   9.829 -0.0623 -0.2374 -0.0167
  264MOL0     C35521   7.887   0.190   9.891  0.2011  0.4849 -0.2159
  264MOL0     N35522   7.988   0.107   9.823 -0.6946 -0.3023 -0.1288
  264MOL0     C35523   7.984   0.058   9.695 -0.5808 -0.1402  0.0437
  264MOL0     C35524   8.086  -0.026   9.689  0.4100  0.0468 -0.2137
  264MOL0     C35525   8.155  -0.107   9.581 -0.2050 -0.8550 -0.6595
  264MOL0     C35526   8.076  -0.241   9.537  0.0897 -0.4312  0.0683
  264MOL0     C35527   7.935  -0.213   9.468  0.5098  0.6464  0.9186
  264MOL0     C35528   7.907  -0.334   9.369 -0.0097 -0.4184  0.5822
  264MOL0     O35529   7.912  -0.458   9.447  0.0081  1.1015 -0.3491
  264MOL0     C35530   7.842  -0.562   9.389 -0.1371  0.0455 -0.2123
  264MOL0     C35531   7.907  -0.677   9.345 -0.1894 -0.4273 -0.4634
  264MOL0     C35532   7.840  -0.784   9.291 -0.1499 -1.3937  0.1637
  264MOL0     C35533   7.916  -0.905   9.253  0.0092  0.0551  0.3069
  264MOL0     C35534   7.693  -0.782   9.293  0.4441 -0.7389  0.2469
  264MOL0     C35535   7.604  -0.892   9.233  0.5940  0.5068  0.0685
  264MOL0     O35536   7.474  -0.864   9.211  0.0018  0.3124 -0.9984
  264MOL0     C35537   7.377  -0.958   9.203  0.0764  0.6243 -0.2169
  264MOL0     C35538   7.368  -1.054   9.303 -0.1910  0.0337  0.1880
  264MOL0     C35539   7.256  -1.132   9.301 -0.2124  0.3747  0.3950
  264MOL0     C35540   7.153  -1.144   9.199 -0.4772  0.4845 -0.6671
  264MOL0     O35541   7.042  -1.237   9.191  0.7096 -0.2400 -0.3263
  264MOL0     C35542   7.021  -1.324   9.305  1.0114  0.3135  0.4811
  264MOL0     C35543   6.912  -1.432   9.272 -0.0818 -0.0775  0.0967
  264MOL0     C35544   6.772  -1.375   9.252  0.0798  0.3178  0.5351
  264MOL0     C35545   6.673  -1.489   9.230  0.8036 -0.1735  0.3270
  264MOL0     C35546   6.534  -1.432   9.206 -0.1400 -0.5132 -0.4712
  264MOL0     C35547   6.440  -1.547   9.199 -0.0063 -0.3212 -0.0999
  264MOL0     C35548   6.303  -1.489   9.167  1.0551  0.1658 -0.3345
  264MOL0     C35549   6.211  -1.587   9.105 -0.4141 -0.9905  0.1556
  264MOL0    Cl35550   6.039  -1.517   9.087  0.0325 -0.3051 -0.1211
  264MOL0     C35551   7.167  -1.041   9.104  0.7642  0.4262 -0.3517
  264MOL0     C35552   7.281  -0.958   9.094  0.9604 -0.4568  0.7277
  264MOL0     O35553   7.648  -1.006   9.211  0.0371  0.1733  0.4238
  264MOL0     C35554   7.630  -0.666   9.339  0.2900 -0.0893 -0.3746
  264MOL0     C35555   7.702  -0.561   9.388  0.8427  0.3384 -0.4141
  264MOL0     N35556   8.143  -0.024   9.814 -0.2716  0.8713 -0.1799
  264MOL0     N35557   8.088   0.055   9.891  0.0024  0.2625  0.2151
  264MOL0     C35558   8.406   1.108   9.837 -0.8478  0.3374 -0.1820
  264MOL0     C35559   8.458   1.241   9.864 -1.1502  0.1491  0.0818
  264MOL0     C35560   8.576   1.618  10.120 -0.8326 -0.1829  0.6826
  264MOL0     C35561   8.588   1.699  10.000  0.7510  0.7486  0.0698
  264MOL0     C35562   8.646   1.815  10.000  0.0387 -0.2521  0.2178
  264MOL0     C35563   8.704   1.871  10.113 -0.6861  1.1896 -0.6586
  264MOL0     O35564   8.775   1.986  10.098 -0.1830  0.1472 -0.1397
  264MOL0     C35565   8.850   2.053  10.205  0.7093 -0.1429  0.2396
  264MOL0     C35566   8.973   1.973  10.251 -0.1382  0.1518 -0.8440
  264MOL0     C35567   9.043   2.046  10.371 -0.4303 -0.3316  0.4888
  264MOL0     C35568   9.162   1.967  10.421 -1.2326 -0.7928 -0.2582
  264MOL0     C35569   9.209   2.029  10.543 -0.4839  0.3983  0.4419
  264MOL0     C35570   9.264   2.074  10.639 -0.0529 -0.1658 -0.2799
  264MOL0     C35571   8.693   1.797  10.233 -0.1589  0.3239 -0.2632
  264MOL0     C35572   8.633   1.669  10.241  0.0561 -0.6104  0.9011
  264MOL0     H35573   8.323   1.276  10.166 -3.0199  1.5043 -1.4891
  264MOL0     H35574   8.271   1.037  10.133  2.1647  2.2138  3.3615
  264MOL0     H35575   8.237   0.798   9.754  0.4454 -1.4702 -0.1350
  264MOL0     H35576   8.400   0.835   9.748 -1.2893  0.9731 -1.1092
  264MOL0     H35577   8.407   0.629   9.829 -1.6033  1.1909 -1.7018
  264MOL0     H35578   8.431   0.705   9.975 -1.5809 -0.2867  1.3733
  264MOL0     H35579   8.288   0.536  10.022 -0.4537  2.0281  2.6027
  264MOL0     H35580   8.184   0.672  10.017  0.8760 -0.6829  1.4457
  264MOL0     H35581   8.128   0.622   9.781  4.9163  0.4133 -2.7107
  264MOL0     H35582   8.223   0.472   9.781  2.2848  0.6650  1.7044
  264MOL0     H35583   8.125   0.361   9.949  0.9367  1.3650  0.6986
  264MOL0     H35584   8.009   0.492   9.987  0.2415  1.4435 -0.7787
  264MOL0     H35585   7.942   0.497   9.745 -2.1366  0.6870  2.9615
  264MOL0     H35586   8.033   0.341   9.718 -0.6582  0.4853 -1.3551
  264MOL0     H35587   7.786   0.379   9.893  1.5529  1.9319 -0.3117
  264MOL0     H35588   7.792   0.294   9.740  1.1635 -0.9592 -0.6480
  264MOL0     H35589   7.791   0.141   9.911  1.2968 -1.5737  0.3268
  264MOL0     H35590   7.927   0.205   9.992 -1.5175 -5.0878  1.6779
  264MOL0     H35591   7.909   0.071   9.618 -1.4774  0.1383  0.9535
  264MOL0     H35592   8.170  -0.042   9.494 -1.4802 -1.0609 -1.0579
  264MOL0     H35593   8.248  -0.154   9.613 -0.0232 -1.7371 -2.3441
  264MOL0     H35594   8.060  -0.296   9.630  1.2666 -2.6060 -0.9568
  264MOL0     H35595   8.145  -0.298   9.475  1.4881 -1.3917  2.4062
  264MOL0     H35596   7.931  -0.123   9.406 -0.8384  0.3886  0.5746
  264MOL0     H35597   7.864  -0.206   9.551  1.4019 -0.7393  1.8353
  264MOL0     H35598   7.968  -0.355   9.281  1.5484  1.6424  1.1042
  264MOL0     H35599   7.804  -0.320   9.335  0.3751  0.5540 -0.2418
  264MOL0     H35600   8.012  -0.688   9.369  1.7337  3.8924 -5.0568
  264MOL0     H35601   7.899  -0.976   9.335 -1.2802 -0.0644 -0.0344
  264MOL0     H35602   7.887  -0.946   9.156  3.2741 -0.7173 -0.4607
  264MOL0     H35603   8.019  -0.876   9.233 -0.3065  0.2367 -1.1161
  264MOL0     H35604   7.439  -1.064   9.384  1.5861  2.1974 -0.9727
  264MOL0     H35605   7.247  -1.203   9.382 -1.1022  0.6878  0.5788
  264MOL0     H35606   7.114  -1.374   9.333 -0.7821 -4.8903 -1.5690
  264MOL0     H35607   6.980  -1.265   9.387 -0.5583 -0.6687  0.4288
  264MOL0     H35608   6.943  -1.483   9.181  1.9513  2.3629 -0.7104
  264MOL0     H35609   6.919  -1.496   9.361  0.7976  0.1314  0.1892
  264MOL0     H35610   6.786  -1.315   9.162 -0.2979 -0.3835  0.0022
  264MOL0     H35611   6.738  -1.313   9.336 -4.5829 -2.3118  0.9304
  264MOL0     H35612   6.689  -1.553   9.143 -0.7305  0.8171 -0.7402
  264MOL0     H35613   6.672  -1.547   9.323 -1.7422  1.3877  1.3728
  264MOL0     H35614   6.534  -1.382   9.109  0.7685 -1.6850 -1.0881
  264MOL0     H35615   6.521  -1.352   9.279  4.3447 -1.0223  1.1972
  264MOL0     H35616   6.470  -1.614   9.118 -0.2536 -1.2699  0.5702
  264MOL0     H35617   6.440  -1.601   9.294  0.6425  1.1408  0.7635
  264MOL0     H35618   6.312  -1.409   9.093 -2.5455 -0.6151 -1.8394
  264MOL0     H35619   6.267  -1.445   9.260 -0.2512  1.8851 -1.6108
  264MOL0     H35620   6.207  -1.679   9.165  1.2415  1.2868  4.1860
  264MOL0     H35621   6.257  -1.627   9.014 -0.4791  0.9290 -0.7529
  264MOL0     H35622   7.087  -1.055   9.032 -0.0706  1.8146  0.2682
  264MOL0     H35623   7.281  -0.893   9.007 -2.1555 -2.5605 -1.0291
  264MOL0     H35624   7.522  -0.652   9.344  0.1803  2.4649 -4.5703
  264MOL0     H35625   7.644  -0.477   9.424 -0.7013 -0.7710 -0.2123
  264MOL0     H35626   8.419   1.055   9.743 -2.9316 -1.8941  0.7152
  264MOL0     H35627   8.502   1.302   9.785 -1.7434 -0.0268 -0.3963
  264MOL0     H35628   8.564   1.648   9.907  1.2200 -0.1482  0.4215
  264MOL0     H35629   8.650   1.867   9.905  1.1521  0.1928  0.4900
  264MOL0     H35630   8.874   2.155  10.174  0.5464 -0.9157 -2.7681
  264MOL0     H35631   8.782   2.069  10.289 -2.4702 -3.4043 -1.3993
  264MOL0     H35632   9.033   1.969  10.160 -0.6248  0.5569 -1.1884
  264MOL0     H35633   8.944   1.873  10.284  0.9509  0.7645  2.4223
  264MOL0     H35634   8.966   2.056  10.448  0.5474 -2.5885  1.8597
  264MOL0     H35635   9.060   2.151  10.346 -3.4004 -0.0426 -0.7730
  264MOL0     H35636   9.234   1.966  10.339 -0.4885  1.6915  0.2620
  264MOL0     H35637   9.135   1.862  10.434  0.7399 -1.2318  0.8451
  264MOL0     H35638   9.307   2.122  10.725  3.4245 -1.6331 -0.9973
  264MOL0     H35639   8.733   1.845  10.323 -0.9608 -2.5759  1.7792
  264MOL0     H35640   8.613   1.614  10.332 -0.0915 -0.5863  0.8830
  265MOL0     O35641   1.660   2.656   2.805  0.2702 -0.0925  0.5958
  265MOL0     C35642   1.672   2.767   2.862  0.2870 -0.0698 -0.2534
  265MOL0     O35643   1.585   2.812   2.959  0.2709 -0.2195 -0.3707
  265MOL0     C35644   1.486   2.732   3.023  0.1502 -0.6288  0.4443
  265MOL0     C35645   1.377   2.797   3.082 -1.1859 -0.0914  0.2894
  265MOL0     C35646   1.271   2.723   3.138  0.8162  0.0840  0.0543
  265MOL0     C35647   1.265   2.585   3.148  0.7279  0.2976 -0.0895
  265MOL0     O35648   1.158   2.516   3.203 -0.6028 -0.5020 -0.3664
  265MOL0     C35649   1.032   2.558   3.157 -0.4191  0.0822  0.6048
  265MOL0     C35650   0.921   2.455   3.168  0.7684 -1.0500 -0.2108
  265MOL0     C35651   0.781   2.509   3.120  0.3745 -0.0367  0.0763
  265MOL0     C35652   0.784   2.509   2.965  0.0662  0.1444 -0.7788
  265MOL0     C35653   0.646   2.519   2.913  0.2629 -0.7170 -0.2498
  265MOL0     C35654   0.625   2.498   2.760  0.2075  0.9297 -0.0614
  265MOL0     C35655   0.484   2.565   2.715 -0.8802  0.2017  0.4084
  265MOL0     C35656   0.363   2.502   2.776  0.5761 -1.0599  0.3952
  265MOL0     N35657   0.240   2.541   2.707  0.5212 -0.5908 -0.4107
  265MOL0     C35658   0.179   2.663   2.709 -0.6958 -0.4757  0.2132
  265MOL0     C35659   0.055   2.645   2.664  0.4915  0.2339 -0.3013
  265MOL0     C35660  -0.065   2.739   2.653 -0.2190  0.3529 -0.0562
  265MOL0     C35661  -0.148   2.709   2.522 -0.1201 -0.3709 -1.1579
  265MOL0     C35662  -0.254   2.807   2.485  0.1798 -0.3893 -0.3595
  265MOL0     C35663  -0.379   2.807   2.570  0.0219  0.2789 -0.1208
  265MOL0     O35664  -0.491   2.850   2.486  0.4264 -0.6180 -1.0749
  265MOL0     C35665  -0.609   2.836   2.563 -0.1467 -0.0013  0.6411
  265MOL0     C35666  -0.688   2.714   2.562  0.4177 -0.6404 -0.2112
  265MOL0     C35667  -0.805   2.711   2.638  0.9407  0.5536  1.2124
  265MOL0     C35668  -0.880   2.578   2.634 -0.2404 -0.0738  0.3612
  265MOL0     C35669  -0.849   2.817   2.713  0.7225  0.9532 -0.0320
  265MOL0     C35670  -0.975   2.819   2.809  0.3756 -0.1112  0.8584
  265MOL0     O35671  -1.072   2.721   2.804 -0.2976 -0.0410 -0.6324
  265MOL0     C35672  -1.120   2.679   2.927  0.8581  0.1857  0.3159
  265MOL0     C35673  -1.255   2.641   2.933 -1.0211 -0.0830 -0.4062
  265MOL0     C35674  -1.318   2.617   3.054  0.2763  0.0011 -0.0940
  265MOL0     C35675  -1.250   2.626   3.171  0.9545  0.3225 -0.6859
  265MOL0     O35676  -1.309   2.578   3.281 -0.1384 -0.7961 -0.4913
  265MOL0     C35677  -1.303   2.671   3.394  1.0987 -0.2450 -0.1766
  265MOL0     C35678  -1.439   2.749   3.387  0.7260 -1.0859  0.3083
  265MOL0     C35679  -1.568   2.658   3.396  0.3470  0.1804  0.4213
  265MOL0     C35680  -1.649   2.683   3.274  0.8204  0.5380  0.1642
  265MOL0     C35681  -1.777   2.601   3.268 -0.1481  0.2898 -0.5056
  265MOL0     C35682  -1.856   2.616   3.142 -0.3260 -0.5305  0.1740
  265MOL0     C35683  -1.957   2.503   3.118  0.4268  0.1721 -0.2894
  265MOL0     C35684  -2.049   2.470   3.242 -0.5593  0.3655 -0.6497
  265MOL0    Cl35685  -2.132   2.607   3.316  0.5347 -0.1854 -0.0594
  265MOL0     C35686  -1.111   2.646   3.168 -0.7299 -0.5118 -0.7879
  265MOL0     C35687  -1.047   2.679   3.047  0.3469  1.2372 -0.4185
  265MOL0     O35688  -0.970   2.899   2.897 -0.2058 -0.3564 -0.4024
  265MOL0     C35689  -0.763   2.930   2.720 -0.6410 -0.6278  0.5229
  265MOL0     C35690  -0.645   2.943   2.649  1.3580  0.3022  0.2689
  265MOL0     N35691   0.049   2.507   2.628 -0.6755 -0.4954  0.3901
  265MOL0     N35692   0.157   2.450   2.653 -0.0820 -0.1433 -0.1608
  265MOL0     C35693   1.383   2.523   3.094  0.0949  0.2008  0.3822
  265MOL0     C35694   1.487   2.594   3.026  0.7558 -1.0539 -0.8865
  265MOL0     C35695   1.773   2.852   2.802 -0.2535  0.2782  0.2008
  265MOL0     C35696   1.791   2.971   2.870  0.1692  0.0967 -0.1186
  265MOL0     C35697   1.879   3.069   2.828  0.0276 -0.2411 -1.2627
  265MOL0     C35698   1.959   3.051   2.716 -0.0676 -0.4144 -0.3413
  265MOL0     O35699   2.056   3.136   2.661 -0.2352  0.3238 -0.2447
  265MOL0     C35700   2.074   3.269   2.713  0.5139 -0.1447 -0.6340
  265MOL0     C35701   2.162   3.358   2.626  0.3690  0.1843  0.3756
  265MOL0     C35702   2.248   3.449   2.716  0.0172 -0.3372 -0.3976
  265MOL0     C35703   2.310   3.556   2.623  0.1678 -0.7173 -0.9644
  265MOL0     C35704   2.421   3.506   2.555 -0.0362 -0.5498  0.2965
  265MOL0     C35705   2.520   3.467   2.498  0.8591 -0.4455  0.4626
  265MOL0     C35706   1.936   2.934   2.638  0.9404  0.4730  0.4927
  265MOL0     C35707   1.856   2.833   2.692  0.6852 -0.0806  0.2328
  265MOL0     H35708   1.378   2.905   3.094  1.2132  0.3713 -2.8282
  265MOL0     H35709   1.193   2.781   3.188 -1.1672 -2.8370  0.5850
  265MOL0     H35710   0.990   2.637   3.221 -1.9473 -2.7312  3.3710
  265MOL0     H35711   1.048   2.589   3.053  0.7751 -0.6988  0.5369
  265MOL0     H35712   0.960   2.366   3.118 -0.0670 -1.3843 -0.2946
  265MOL0     H35713   0.900   2.418   3.269  2.0458 -0.3680  0.3234
  265MOL0     H35714   0.709   2.434   3.155 -0.2328  1.1987  1.6118
  265MOL0     H35715   0.749   2.605   3.160 -2.4281  1.0216 -4.0947
  265MOL0     H35716   0.846   2.587   2.922  2.1587 -0.9407  0.1148
  265MOL0     H35717   0.826   2.415   2.927  3.1188 -1.2950  4.9984
  265MOL0     H35718   0.585   2.442   2.962  0.4890 -0.5197  0.3546
  265MOL0     H35719   0.613   2.619   2.942 -0.3880 -0.9817 -0.0353
  265MOL0     H35720   0.715   2.529   2.706  1.6079 -0.5525  1.3049
  265MOL0     H35721   0.620   2.390   2.743  0.7680  0.7116  1.0601
  265MOL0     H35722   0.480   2.671   2.742  0.7935  0.5216 -0.4592
  265MOL0     H35723   0.488   2.566   2.606  2.5289  1.4818  0.4176
  265MOL0     H35724   0.365   2.544   2.877  3.0118  1.9631 -0.7559
  265MOL0     H35725   0.376   2.393   2.770 -1.5138 -1.2594 -1.5440
  265MOL0     H35726   0.211   2.756   2.754 -0.2090 -1.1561  1.3020
  265MOL0     H35727  -0.131   2.723   2.739  0.1844 -0.0316  0.1866
  265MOL0     H35728  -0.049   2.848   2.650 -0.8080  0.4237 -1.1724
  265MOL0     H35729  -0.195   2.610   2.524  0.1167 -0.5068 -2.1073
  265MOL0     H35730  -0.071   2.696   2.446 -0.7831 -0.9274 -1.7536
  265MOL0     H35731  -0.289   2.797   2.382 -1.2127  0.0141  0.0649
  265MOL0     H35732  -0.208   2.905   2.494  0.1281 -0.4014  0.0570
  265MOL0     H35733  -0.375   2.880   2.652  1.7846  1.8532 -1.5260
  265MOL0     H35734  -0.403   2.708   2.608 -0.0647  0.7308  1.0544
  265MOL0     H35735  -0.656   2.632   2.498 -0.6023 -0.4649 -0.9919
  265MOL0     H35736  -0.983   2.596   2.603 -0.3821  0.4637  1.0925
  265MOL0     H35737  -0.842   2.516   2.553 -4.6633 -0.9377 -1.3195
  265MOL0     H35738  -0.885   2.524   2.729  0.4467  1.9546  1.6335
  265MOL0     H35739  -1.315   2.655   2.844 -1.3814 -0.6062 -0.2526
  265MOL0     H35740  -1.420   2.581   3.057  1.5102 -3.9252  0.1514
  265MOL0     H35741  -1.319   2.609   3.483  0.6354  0.1107 -0.0046
  265MOL0     H35742  -1.219   2.740   3.406  0.2308  0.3908  4.2037
  265MOL0     H35743  -1.446   2.822   3.467 -0.1174 -2.0503  1.1410
  265MOL0     H35744  -1.439   2.799   3.289  3.6226  1.9152  1.6471
  265MOL0     H35745  -1.632   2.675   3.484  2.5365  1.0653  1.9436
  265MOL0     H35746  -1.538   2.553   3.398 -0.4120 -0.0346  1.6404
  265MOL0     H35747  -1.681   2.786   3.256 -0.2353  0.0222 -1.0597
  265MOL0     H35748  -1.585   2.644   3.195 -0.0518 -0.6691  0.0161
  265MOL0     H35749  -1.834   2.649   3.348  0.3003  1.6035 -0.9575
  265MOL0     H35750  -1.746   2.497   3.282 -0.1043  0.1029 -1.8744
  265MOL0     H35751  -1.902   2.715   3.143 -1.1696 -0.8306 -2.1819
  265MOL0     H35752  -1.790   2.620   3.055 -1.2204  2.0847 -0.4568
  265MOL0     H35753  -1.900   2.416   3.084 -1.3917 -0.8522 -0.9010
  265MOL0     H35754  -2.022   2.542   3.039 -0.4552 -1.6436 -0.5255
  265MOL0     H35755  -1.988   2.425   3.320 -0.2646 -1.8047 -2.0579
  265MOL0     H35756  -2.128   2.398   3.220 -0.3020 -1.0428  2.4583
  265MOL0     H35757  -1.054   2.644   3.261 -1.4715  1.1576 -0.2524
  265MOL0     H35758  -0.939   2.690   3.048  0.4047  0.7592 -0.7168
  265MOL0     H35759  -0.791   3.015   2.782 -1.1214  0.4527 -1.1091
  265MOL0     H35760  -0.584   3.031   2.627 -1.4953  2.3624 -0.0508
  265MOL0     H35761   1.378   2.415   3.099  1.7556  0.1713  3.2582
  265MOL0     H35762   1.570   2.535   2.987  0.9892 -1.2490 -0.1187
  265MOL0     H35763   1.730   3.003   2.953  0.5135  1.7218 -0.4643
  265MOL0     H35764   1.872   3.158   2.891  0.1928 -1.8220  1.1373
  265MOL0     H35765   1.973   3.309   2.707  0.0626 -1.1196  0.1341
  265MOL0     H35766   2.097   3.271   2.820 -0.2342 -3.6291 -0.2893
  265MOL0     H35767   2.091   3.407   2.559 -1.5108 -0.8065  1.5649
  265MOL0     H35768   2.226   3.295   2.563 -0.7958  0.3236 -1.0030
  265MOL0     H35769   2.321   3.399   2.780  1.0598  1.6654  0.0323
  265MOL0     H35770   2.176   3.493   2.786  0.2538  0.5236 -0.6974
  265MOL0     H35771   2.348   3.640   2.682  0.1355 -1.9911  0.9446
  265MOL0     H35772   2.240   3.589   2.545  2.1360  0.3786 -2.3748
  265MOL0     H35773   2.593   3.432   2.428 -0.6823  0.1908 -1.5621
  265MOL0     H35774   1.986   2.910   2.545 -1.7261 -3.3006 -0.1787
  265MOL0     H35775   1.857   2.737   2.641  3.5456 -0.1848  0.3575
  266MOL0     O35776   6.625   8.398   6.358 -0.4659 -0.7358 -0.7726
  266MOL0     C35777   6.690   8.311   6.301  0.0608  0.3521  0.3896
  266MOL0     O35778   6.674   8.177   6.307  0.3763  0.3341  0.4559
  266MOL0     C35779   6.575   8.114   6.390  0.2344 -0.1805  0.2042
  266MOL0     C35780   6.445   8.161   6.410 -0.1844 -0.0035  0.5527
  266MOL0     C35781   6.354   8.100   6.491  0.1243  0.4403 -0.2989
  266MOL0     C35782   6.389   7.978   6.546 -0.2572  0.2445 -1.1724
  266MOL0     O35783   6.302   7.904   6.633  0.3908  0.0624  0.3268
  266MOL0     C35784   6.355   7.814   6.724 -0.2588  0.5107 -0.4416
  266MOL0     C35785   6.244   7.749   6.802 -0.1470  0.3738  0.2866
  266MOL0     C35786   6.145   7.846   6.848 -0.8239 -0.3667  0.6077
  266MOL0     C35787   6.047   7.772   6.946 -0.7002 -0.2705 -0.4156
  266MOL0     C35788   5.950   7.869   7.012 -0.2174  0.0589  0.0428
  266MOL0     C35789   5.844   7.778   7.085 -0.2452 -0.2754  0.3625
  266MOL0     C35790   5.778   7.855   7.195  0.1958 -0.4736 -0.3915
  266MOL0     C35791   5.664   7.932   7.142  0.5935  0.3539  0.7472
  266MOL0     N35792   5.567   7.982   7.240 -0.4073 -0.3231  0.1191
  266MOL0     C35793   5.589   8.081   7.324  0.3114  0.0349  0.4346
  266MOL0     C35794   5.470   8.098   7.391  0.0918  0.0487  0.2135
  266MOL0     C35795   5.447   8.210   7.500  0.5324  0.0616  0.7972
  266MOL0     C35796   5.570   8.284   7.544  0.8437  0.0556 -0.5175
  266MOL0     C35797   5.529   8.376   7.661 -1.5900  0.1053  0.0022
  266MOL0     C35798   5.519   8.305   7.799 -0.0731 -0.0895 -0.5335
  266MOL0     O35799   5.614   8.200   7.807  0.5249 -0.5189 -0.1463
  266MOL0     C35800   5.721   8.245   7.874  0.5298 -0.2076  0.1690
  266MOL0     C35801   5.809   8.334   7.814 -0.4116  0.5607  0.1967
  266MOL0     C35802   5.919   8.384   7.880  0.2557 -0.2009 -0.2885
  266MOL0     C35803   6.015   8.485   7.810 -0.0500  0.3331  0.7658
  266MOL0     C35804   5.932   8.359   8.020  0.2945  0.8388  0.7887
  266MOL0     C35805   6.035   8.404   8.108 -0.4388 -0.4624  0.0598
  266MOL0     O35806   6.161   8.394   8.058  0.2971  0.6698 -0.4848
  266MOL0     C35807   6.260   8.435   8.147 -0.5686 -0.2549 -0.1755
  266MOL0     C35808   6.322   8.350   8.244  0.4062 -0.4928  0.2992
  266MOL0     C35809   6.430   8.410   8.325  0.4546 -0.2205 -0.1013
  266MOL0     C35810   6.491   8.527   8.292  0.1502  0.8856  0.3876
  266MOL0     O35811   6.597   8.572   8.367  0.2546 -0.0963 -0.5518
  266MOL0     C35812   6.713   8.623   8.300 -0.1281  0.1172 -0.6624
  266MOL0     C35813   6.830   8.523   8.308 -0.4183 -0.5995 -0.5054
  266MOL0     C35814   6.958   8.610   8.275 -0.2241 -0.4872  0.8298
  266MOL0     C35815   7.071   8.521   8.285 -1.0889 -0.0288 -0.0634
  266MOL0     C35816   7.207   8.553   8.212 -0.1106  0.7292  0.4075
  266MOL0     C35817   7.318   8.459   8.254  0.4413  0.8606  0.9316
  266MOL0     C35818   7.427   8.462   8.148  0.9589 -0.9943 -0.4232
  266MOL0     C35819   7.559   8.415   8.212 -0.2689  0.4762 -0.2198
  266MOL0    Cl35820   7.540   8.247   8.252 -0.3882  0.2918 -0.2516
  266MOL0     C35821   6.438   8.598   8.188 -0.0403 -0.4235 -0.3563
  266MOL0     C35822   6.319   8.560   8.119 -0.5561  0.3998 -0.5735
  266MOL0     O35823   5.999   8.445   8.218 -0.3501  0.1565  0.3765
  266MOL0     C35824   5.848   8.262   8.071 -0.0242  0.2163  0.0508
  266MOL0     C35825   5.743   8.203   8.003  0.1359 -0.0985 -0.0800
  266MOL0     N35826   5.372   8.019   7.334  0.0042 -0.3287  0.2990
  266MOL0     N35827   5.440   7.945   7.239  0.7707 -0.3494 -0.0704
  266MOL0     C35828   6.516   7.919   6.508 -0.2458 -0.1130 -0.3640
  266MOL0     C35829   6.610   7.987   6.440  0.5581 -0.5437 -0.5096
  266MOL0     C35830   6.785   8.369   6.210 -0.0863  0.4133  1.2676
  266MOL0     C35831   6.807   8.508   6.187  0.7429  0.6069 -0.1755
  266MOL0     C35832   6.899   8.552   6.099 -0.1841  0.4512  0.3016
  266MOL0     C35833   6.990   8.466   6.030  0.3562  0.5526  0.4371
  266MOL0     O35834   7.096   8.511   5.956 -0.1519  0.4431 -0.2225
  266MOL0     C35835   7.117   8.644   5.917  0.0305  0.1253  0.2662
  266MOL0     C35836   7.268   8.655   5.894 -0.5376  0.3512 -0.0868
  266MOL0     C35837   7.318   8.797   5.908  0.4685 -0.4702  0.8545
  266MOL0     C35838   7.466   8.792   5.885  0.0970 -0.3297  0.3445
  266MOL0     C35839   7.505   8.903   5.797 -0.0737  0.2472 -0.1859
  266MOL0     C35840   7.543   9.007   5.742 -0.2904 -0.7500 -0.1783
  266MOL0     C35841   6.976   8.331   6.063  1.4370  0.8124  0.1587
  266MOL0     C35842   6.868   8.278   6.144 -0.5096 -0.5887 -0.8778
  266MOL0     H35843   6.409   8.250   6.360 -0.5505  1.3724  3.1422
  266MOL0     H35844   6.251   8.134   6.490  0.1106  0.3973 -0.4570
  266MOL0     H35845   6.414   7.734   6.678  0.3781 -0.6978  2.2982
  266MOL0     H35846   6.411   7.871   6.799 -3.1502 -1.1033  3.3023
  266MOL0     H35847   6.198   7.670   6.742  2.9219 -0.9649 -0.5265
  266MOL0     H35848   6.292   7.703   6.889  1.3253  2.5819  0.7109
  266MOL0     H35849   6.201   7.929   6.892 -1.3737 -0.7696  2.1538
  266MOL0     H35850   6.095   7.893   6.764  2.1520  1.7970 -0.1207
  266MOL0     H35851   6.001   7.692   6.888 -0.9074 -2.1167  2.1776
  266MOL0     H35852   6.103   7.735   7.032  2.0709  2.7101 -0.7191
  266MOL0     H35853   6.019   7.938   7.062  2.7913 -2.2116 -0.6526
  266MOL0     H35854   5.901   7.926   6.932 -1.9580 -0.4576  0.6902
  266MOL0     H35855   5.779   7.728   7.013  1.5043 -4.3213  1.3028
  266MOL0     H35856   5.898   7.699   7.137  2.6204  1.8235  0.8099
  266MOL0     H35857   5.751   7.784   7.274 -3.2279 -0.2571 -1.2191
  266MOL0     H35858   5.855   7.921   7.235  0.4718 -1.0950  0.1135
  266MOL0     H35859   5.600   7.861   7.089 -0.6267  2.6837 -1.0802
  266MOL0     H35860   5.689   8.010   7.070 -1.2432  0.4489  0.1700
  266MOL0     H35861   5.680   8.138   7.338  0.4070  0.4453 -1.5332
  266MOL0     H35862   5.370   8.275   7.458 -2.1914 -4.0786 -1.2791
  266MOL0     H35863   5.398   8.172   7.590 -0.1693 -0.8598  0.0465
  266MOL0     H35864   5.604   8.343   7.457  0.4554 -1.2584 -1.5944
  266MOL0     H35865   5.653   8.218   7.568 -0.4182 -0.3423  3.5250
  266MOL0     H35866   5.441   8.438   7.640 -2.6395  0.2989  4.0639
  266MOL0     H35867   5.609   8.449   7.653 -1.9688  0.3106 -5.2220
  266MOL0     H35868   5.417   8.266   7.803  0.0083 -0.5525  5.0392
  266MOL0     H35869   5.542   8.382   7.874 -0.8325 -1.6130  1.3554
  266MOL0     H35870   5.783   8.358   7.712  0.7792 -0.8418 -0.4890
  266MOL0     H35871   6.093   8.435   7.752  0.2801  0.0849  1.4113
  266MOL0     H35872   5.944   8.541   7.749 -1.0899 -0.9306  0.7491
  266MOL0     H35873   6.069   8.549   7.880 -0.5838  0.9722  0.5976
  266MOL0     H35874   6.275   8.253   8.255  0.8682 -1.4285 -4.1101
  266MOL0     H35875   6.467   8.347   8.406  2.4904  0.3101 -0.5680
  266MOL0     H35876   6.703   8.632   8.191 -0.2259 -0.1483 -0.6784
  266MOL0     H35877   6.745   8.720   8.338  1.0566  0.9355 -3.4488
  266MOL0     H35878   6.835   8.482   8.409 -1.3736 -2.8551 -1.3071
  266MOL0     H35879   6.816   8.439   8.239  0.6475 -4.4830  3.5555
  266MOL0     H35880   6.981   8.688   8.347  3.8413 -1.1347  0.4826
  266MOL0     H35881   6.946   8.655   8.176 -3.3790  0.1919  1.3950
  266MOL0     H35882   7.086   8.510   8.393  0.7687 -1.1558 -0.3935
  266MOL0     H35883   7.039   8.422   8.251  0.9657 -1.1060  0.9122
  266MOL0     H35884   7.237   8.656   8.236 -2.1284  1.5190 -0.2538
  266MOL0     H35885   7.199   8.567   8.104  2.0509  1.1557  0.2604
  266MOL0     H35886   7.352   8.476   8.357  0.7775  0.8510  0.8232
  266MOL0     H35887   7.281   8.356   8.250 -0.2721  1.1285 -3.0261
  266MOL0     H35888   7.459   8.562   8.117  1.5414 -2.2526 -4.3493
  266MOL0     H35889   7.385   8.405   8.065  0.4656  0.2198 -1.0252
  266MOL0     H35890   7.579   8.479   8.298  1.2370  0.5894 -0.6364
  266MOL0     H35891   7.642   8.425   8.142 -0.7549  1.9875 -0.6124
  266MOL0     H35892   6.472   8.699   8.170  1.8867 -0.8247  0.7620
  266MOL0     H35893   6.270   8.625   8.047 -3.9600 -1.8121 -0.5004
  266MOL0     H35894   5.860   8.234   8.175 -1.8433  1.4846  0.6363
  266MOL0     H35895   5.689   8.126   8.057  0.3140  1.0956  1.9050
  266MOL0     H35896   6.551   7.822   6.541  2.5025  0.2318 -1.9950
  266MOL0     H35897   6.708   7.942   6.426  0.9372  0.7761 -2.3661
  266MOL0     H35898   6.742   8.580   6.235 -2.5713 -0.4544 -2.6754
  266MOL0     H35899   6.907   8.660   6.088  2.4310  0.5059  1.8265
  266MOL0     H35900   7.049   8.673   5.836 -0.1345  1.6111  0.9022
  266MOL0     H35901   7.092   8.709   6.001  1.0814 -2.6487  2.9333
  266MOL0     H35902   7.291   8.613   5.796 -2.8212 -3.4598  0.8268
  266MOL0     H35903   7.325   8.594   5.965 -0.8681  0.2960  0.1315
  266MOL0     H35904   7.293   8.835   6.007  0.8093 -1.9738  1.5451
  266MOL0     H35905   7.271   8.858   5.830 -0.4875 -2.3035 -0.0812
  266MOL0     H35906   7.496   8.697   5.841 -0.8872  0.5301 -2.4468
  266MOL0     H35907   7.530   8.778   5.972  2.2191  1.5523 -0.8123
  266MOL0     H35908   7.589   9.090   5.691  0.8688 -1.9442 -1.1330
  266MOL0     H35909   7.042   8.259   6.016 -1.1289 -2.7341  1.4830
  266MOL0     H35910   6.845   8.171   6.142 -2.3562 -0.2249 -1.5000
  267MOL0     O35911  10.309   7.853  10.237  0.2109 -0.4116 -0.0687
  267MOL0     C35912  10.292   7.974  10.264 -0.3206  0.7330 -0.4546
  267MOL0     O35913  10.187   8.045  10.208 -0.5325 -0.0853  0.5961
  267MOL0     C35914  10.099   7.989  10.123  0.7512  0.6666  0.2478
  267MOL0     C35915   9.961   8.000  10.151 -0.2194  0.8908  0.6791
  267MOL0     C35916   9.865   7.941  10.068  0.5333  0.6314  0.3566
  267MOL0     C35917   9.909   7.873   9.947  0.4197  0.2593 -0.0610
  267MOL0     O35918   9.822   7.804   9.864 -0.2994 -0.6215 -0.4989
  267MOL0     C35919   9.727   7.892   9.802  0.1318 -0.2509  0.0397
  267MOL0     C35920   9.650   7.837   9.684 -0.9885  0.1393  0.6293
  267MOL0     C35921   9.576   7.944   9.603  0.0939  0.3318 -0.2084
  267MOL0     C35922   9.494   7.869   9.509 -0.1878  0.3101  0.3807
  267MOL0     C35923   9.393   7.964   9.428 -0.3335 -0.1254 -0.8299
  267MOL0     C35924   9.325   7.909   9.306  0.5184 -0.0349 -0.9516
  267MOL0     C35925   9.423   7.839   9.209 -0.2542  0.5315 -0.0747
  267MOL0     C35926   9.356   7.833   9.075 -0.0638  0.4702 -0.4519
  267MOL0     N35927   9.421   7.750   8.974  0.3275 -0.4298 -0.2251
  267MOL0     C35928   9.385   7.749   8.846  0.3736 -0.0138  0.2481
  267MOL0     C35929   9.458   7.651   8.787 -0.0974 -0.4910 -0.5552
  267MOL0     C35930   9.443   7.617   8.646  0.3201 -0.1596 -0.3322
  267MOL0     C35931   9.315   7.538   8.625  0.6546 -0.6311 -0.2532
  267MOL0     C35932   9.271   7.535   8.476 -0.0104  0.1019  0.3884
  267MOL0     C35933   9.144   7.459   8.444  0.2236  0.1844  0.4524
  267MOL0     O35934   9.024   7.531   8.473 -0.1351  0.0973 -0.2700
  267MOL0     C35935   8.899   7.495   8.422  1.0052  0.2688 -0.0669
  267MOL0     C35936   8.880   7.371   8.362  0.3093  0.4532  0.6579
  267MOL0     C35937   8.745   7.329   8.329 -0.2786 -0.1164 -0.8076
  267MOL0     C35938   8.734   7.186   8.262 -0.9565 -0.1116  0.0510
  267MOL0     C35939   8.630   7.415   8.352 -0.2291 -0.3103 -0.0348
  267MOL0     C35940   8.489   7.387   8.315  1.0892  0.6404 -0.8292
  267MOL0     O35941   8.406   7.497   8.291 -0.4090 -0.9107 -0.2680
  267MOL0     C35942   8.271   7.487   8.280 -0.0383 -0.1386 -0.4567
  267MOL0     C35943   8.206   7.561   8.177  0.5540  0.4497 -0.5239
  267MOL0     C35944   8.065   7.553   8.174 -0.7543 -0.8354  0.7844
  267MOL0     C35945   7.986   7.491   8.272  0.3690 -0.1987  0.0671
  267MOL0     O35946   7.847   7.484   8.264  0.6809  1.0512 -0.1265
  267MOL0     C35947   7.782   7.363   8.311 -0.4761 -0.0893  0.1160
  267MOL0     C35948   7.628   7.375   8.294  0.7620 -0.1483  0.3794
  267MOL0     C35949   7.578   7.425   8.156 -0.9143  0.4385  0.2526
  267MOL0     C35950   7.431   7.432   8.151  0.1010 -1.0892 -0.2147
  267MOL0     C35951   7.381   7.463   8.016  0.0346  0.0849  0.4905
  267MOL0     C35952   7.433   7.608   7.958 -1.4925  0.1654 -0.7902
  267MOL0     C35953   7.383   7.621   7.814 -0.1193  0.0316  0.5956
  267MOL0     C35954   7.409   7.761   7.754  0.3504 -0.4784  0.5544
  267MOL0    Cl35955   7.581   7.801   7.764 -0.2844  0.0207  0.0407
  267MOL0     C35956   8.053   7.423   8.378  0.7197  0.5317 -0.2740
  267MOL0     C35957   8.194   7.415   8.379  0.0027 -0.3666 -0.4747
  267MOL0     O35958   8.451   7.267   8.307  0.2346  0.3566 -0.1722
  267MOL0     C35959   8.650   7.536   8.410 -0.3203  0.0567 -0.6149
  267MOL0     C35960   8.782   7.571   8.446  0.4505  0.1930 -0.7972
  267MOL0     N35961   9.533   7.586   8.884  0.2525  1.0314  0.3553
  267MOL0     N35962   9.512   7.651   8.994  0.2520  0.1865  0.6806
  267MOL0     C35963  10.043   7.881   9.912  0.0839  0.6664 -0.2498
  267MOL0     C35964  10.136   7.931  10.000 -0.6251  0.0754 -0.3493
  267MOL0     C35965  10.382   8.033  10.366 -0.2189 -0.0627  0.2669
  267MOL0     C35966  10.459   7.949  10.448 -0.4172  0.2231  0.6561
  267MOL0     C35967  10.549   8.011  10.548  0.6970  0.2860 -0.1373
  267MOL0     C35968  10.547   8.146  10.563 -0.3818 -0.0782  0.2120
  267MOL0     O35969  10.629   8.214  10.649 -0.0263  0.9914 -0.8062
  267MOL0     C35970  10.770   8.183  10.665 -0.1907 -0.0517  0.2774
  267MOL0     C35971  10.849   8.308  10.669  0.5093  0.1582 -0.2788
  267MOL0     C35972  11.000   8.276  10.672  0.6009 -0.0051  0.0745
  267MOL0     C35973  11.066   8.289  10.531 -0.6534 -0.4164 -0.7312
  267MOL0     C35974  11.212   8.297  10.540 -0.6118 -0.6889 -0.9710
  267MOL0     C35975  11.331   8.324  10.536 -0.0102  0.0604 -0.0565
  267MOL0     C35976  10.467   8.227  10.476  0.0185  0.4124  0.0721
  267MOL0     C35977  10.396   8.170  10.373  0.0758  1.2098  0.1513
  267MOL0     H35978   9.915   8.036  10.243  1.0851  0.3498  1.5781
  267MOL0     H35979   9.761   7.954  10.095 -0.0817 -2.9098  0.2117
  267MOL0     H35980   9.665   7.934   9.882 -0.8524 -0.2709 -0.6971
  267MOL0     H35981   9.780   7.984   9.774 -1.3424  0.4121 -0.6736
  267MOL0     H35982   9.727   7.796   9.618 -0.1648 -0.8021  2.1172
  267MOL0     H35983   9.587   7.750   9.706  1.1334 -1.0765  2.2510
  267MOL0     H35984   9.513   7.994   9.678  0.9301 -0.1044  0.8013
  267MOL0     H35985   9.649   8.011   9.557 -1.4068 -0.5207 -4.2697
  267MOL0     H35986   9.560   7.825   9.434  0.6139  0.4384  0.9910
  267MOL0     H35987   9.437   7.791   9.560  0.2410  0.6539  1.4184
  267MOL0     H35988   9.320   8.005   9.500  1.6800  1.4390  0.4444
  267MOL0     H35989   9.459   8.044   9.393  2.1908 -2.2122 -1.1113
  267MOL0     H35990   9.257   7.827   9.330  1.6972 -0.8215 -0.1880
  267MOL0     H35991   9.267   7.992   9.263 -0.6218 -0.3331 -0.0492
  267MOL0     H35992   9.525   7.877   9.200  0.6483 -1.0013  2.6144
  267MOL0     H35993   9.444   7.739   9.249 -0.1117 -1.1045 -3.8544
  267MOL0     H35994   9.357   7.936   9.039  1.3240  0.2190 -1.1828
  267MOL0     H35995   9.251   7.803   9.078 -0.8259  2.8800 -0.9330
  267MOL0     H35996   9.305   7.797   8.790  1.6537  1.1882 -0.5953
  267MOL0     H35997   9.443   7.716   8.598  1.1283 -0.0534 -0.1384
  267MOL0     H35998   9.531   7.562   8.611  0.3472 -0.9301  0.8763
  267MOL0     H35999   9.234   7.580   8.685  0.7187 -0.6755 -0.1351
  267MOL0     H36000   9.338   7.441   8.669  2.5172 -0.5361 -0.9277
  267MOL0     H36001   9.356   7.492   8.421 -0.5895 -1.7351  0.8649
  267MOL0     H36002   9.258   7.640   8.447  2.2139 -0.1303 -1.7676
  267MOL0     H36003   9.160   7.364   8.496 -1.9956  1.2537  3.3334
  267MOL0     H36004   9.147   7.444   8.336  2.2264 -0.5079  0.5609
  267MOL0     H36005   8.955   7.296   8.338 -2.7208 -2.4167 -0.6266
  267MOL0     H36006   8.663   7.127   8.321  1.1331 -1.4049  1.4237
  267MOL0     H36007   8.694   7.195   8.160  0.8838 -2.5891 -0.9976
  267MOL0     H36008   8.829   7.133   8.250 -0.9917  0.1141 -1.4877
  267MOL0     H36009   8.260   7.614   8.099 -0.4626  0.4556 -1.2416
  267MOL0     H36010   8.014   7.607   8.095 -2.3514 -2.1383  0.8738
  267MOL0     H36011   7.822   7.288   8.242 -0.9346  1.8821 -2.4410
  267MOL0     H36012   7.809   7.337   8.414 -0.0445  0.4858  0.1533
  267MOL0     H36013   7.576   7.281   8.317 -2.1912  1.6955  1.9363
  267MOL0     H36014   7.597   7.440   8.376  1.6170 -1.0106  1.4025
  267MOL0     H36015   7.627   7.364   8.080 -0.9154 -0.6804  1.1247
  267MOL0     H36016   7.623   7.525   8.149  1.2400 -0.3715  1.4406
  267MOL0     H36017   7.387   7.336   8.180  1.1418 -0.6958  3.1595
  267MOL0     H36018   7.388   7.504   8.221  1.2821 -0.3439 -0.2261
  267MOL0     H36019   7.272   7.469   8.014  0.0458  0.8846  1.6461
  267MOL0     H36020   7.414   7.385   7.946 -1.8524 -0.2980 -0.0272
  267MOL0     H36021   7.401   7.693   8.019  1.4279  3.4516 -3.4888
  267MOL0     H36022   7.541   7.624   7.961 -1.9143  3.8198 -0.5264
  267MOL0     H36023   7.277   7.598   7.812  0.5053 -3.3132 -1.0773
  267MOL0     H36024   7.421   7.545   7.745  0.3769  1.4712 -0.7746
  267MOL0     H36025   7.345   7.827   7.813 -2.7213 -1.5504 -1.3287
  267MOL0     H36026   7.376   7.764   7.650  2.1537  1.0874 -0.0139
  267MOL0     H36027   7.999   7.365   8.452 -1.1039 -2.0598 -3.3535
  267MOL0     H36028   8.241   7.354   8.454  0.0688  1.5902  1.1548
  267MOL0     H36029   8.572   7.608   8.430 -1.0626 -1.2658  1.7335
  267MOL0     H36030   8.797   7.663   8.502 -0.1376 -1.2791  1.9613
  267MOL0     H36031  10.069   7.842   9.814 -2.5838  0.9604 -1.1527
  267MOL0     H36032  10.240   7.919   9.972 -1.1034 -1.0019 -1.7522
  267MOL0     H36033  10.441   7.842  10.443 -2.7597  0.6095 -2.2851
  267MOL0     H36034  10.616   7.953  10.610 -2.4319 -0.4706  2.8054
  267MOL0     H36035  10.785   8.125  10.757  0.0013  1.2502  1.0930
  267MOL0     H36036  10.798   8.115  10.584 -0.0185  0.4920 -0.1255
  267MOL0     H36037  10.822   8.381  10.746 -4.2296 -0.5268 -1.0176
  267MOL0     H36038  10.831   8.358  10.573  0.4029  0.7329  0.0354
  267MOL0     H36039  11.022   8.182  10.725 -0.1314  1.1016  2.4472
  267MOL0     H36040  11.048   8.349  10.738 -1.2070  0.2802  1.1211
  267MOL0     H36041  11.016   8.372  10.480 -0.1393 -1.0880 -2.4141
  267MOL0     H36042  11.053   8.199  10.470 -3.9895 -2.2008  2.2673
  267MOL0     H36043  11.428   8.372  10.540 -2.5039  5.9669  0.5982
  267MOL0     H36044  10.464   8.334  10.498 -0.5397  0.6549 -1.1276
  267MOL0     H36045  10.346   8.232  10.299 -3.3577 -1.9748 -0.4891
  268MOL0     O36046   2.946   7.232   6.082  1.0270 -0.0409 -0.0314
  268MOL0     C36047   2.987   7.334   6.133 -0.4604 -0.4504 -0.4870
  268MOL0     O36048   2.926   7.400   6.245 -0.2142  0.3687  0.0605
  268MOL0     C36049   2.791   7.377   6.265 -0.1094  0.1540  0.1398
  268MOL0     C36050   2.707   7.484   6.254  0.3063 -0.1627  0.3993
  268MOL0     C36051   2.573   7.481   6.286 -0.7061 -0.9420 -0.5492
  268MOL0     C36052   2.515   7.363   6.335 -0.2367  0.0674 -0.6095
  268MOL0     O36053   2.392   7.353   6.387  0.0304  0.0087  0.4951
  268MOL0     C36054   2.316   7.465   6.420 -0.2212 -0.1187  0.2595
  268MOL0     C36055   2.243   7.506   6.297 -0.0114 -0.3778  0.8584
  268MOL0     C36056   2.153   7.632   6.316 -0.0686 -0.3906 -0.9125
  268MOL0     C36057   2.061   7.642   6.424  0.3882 -0.5261  0.3142
  268MOL0     C36058   1.996   7.788   6.439 -0.4151  0.4264  0.3419
  268MOL0     C36059   1.888   7.821   6.347 -0.4815 -0.3669  0.2865
  268MOL0     C36060   1.839   7.962   6.367 -0.2911  0.0775  0.1764
  268MOL0     C36061   1.755   8.017   6.250 -0.8037 -0.0402  0.4419
  268MOL0     N36062   1.618   7.971   6.264  0.3877 -0.2318  0.6209
  268MOL0     C36063   1.515   8.057   6.294 -0.9099 -0.1743  0.3176
  268MOL0     C36064   1.400   8.006   6.248 -0.1817  0.5384  0.2781
  268MOL0     C36065   1.262   8.060   6.258 -0.1829  0.4922  1.3310
  268MOL0     C36066   1.252   8.209   6.254 -0.4154  1.3748 -0.9639
  268MOL0     C36067   1.308   8.277   6.132 -0.0772  0.5706 -0.6953
  268MOL0     C36068   1.255   8.409   6.097 -0.2667 -0.3433  0.1736
  268MOL0     O36069   1.292   8.493   6.202 -0.2798  0.8882  0.0363
  268MOL0     C36070   1.215   8.604   6.219 -0.2971 -0.0567  0.3984
  268MOL0     C36071   1.220   8.674   6.338 -0.6703  0.8001  0.4571
  268MOL0     C36072   1.135   8.789   6.357 -0.0922  0.5260  0.2218
  268MOL0     C36073   1.149   8.881   6.480 -0.1986 -0.4396 -0.3930
  268MOL0     C36074   1.052   8.835   6.249 -0.3544  0.5287 -0.1749
  268MOL0     C36075   0.973   8.948   6.261  0.4166 -0.1384 -0.8484
  268MOL0     O36076   0.905   8.973   6.382  0.5924 -0.4983  0.1506
  268MOL0     C36077   0.822   9.087   6.385  0.0045 -0.5637 -0.6899
  268MOL0     C36078   0.823   9.154   6.513  1.1239 -0.1045 -0.4895
  268MOL0     C36079   0.751   9.277   6.529 -0.4019 -0.2691  0.0180
  268MOL0     C36080   0.672   9.323   6.428 -0.7711 -0.0176  0.5523
  268MOL0     O36081   0.604   9.434   6.466  0.4021  0.1436  0.6461
  268MOL0     C36082   0.496   9.484   6.384  0.6001  0.5663  0.1720
  268MOL0     C36083   0.409   9.573   6.475  1.2898 -0.2523 -1.2258
  268MOL0     C36084   0.335   9.479   6.571  1.3552 -0.7355 -0.0963
  268MOL0     C36085   0.286   9.550   6.697  0.5287  0.0533  0.2140
  268MOL0     C36086   0.170   9.650   6.683 -0.7421  0.0425 -0.6133
  268MOL0     C36087   0.180   9.755   6.787  0.1491  0.0898  0.6598
  268MOL0     C36088   0.184   9.704   6.932  0.4138  0.0065  0.6325
  268MOL0     C36089   0.071   9.608   6.959  0.2040  0.0774  0.2180
  268MOL0    Cl36090   0.035   9.595   7.136 -0.3932  0.2690 -0.2061
  268MOL0     C36091   0.656   9.259   6.308  0.4064  0.4874 -0.2581
  268MOL0     C36092   0.728   9.142   6.290 -0.2280  0.5065  0.3309
  268MOL0     O36093   0.963   9.018   6.161  0.3289 -0.0169 -0.1163
  268MOL0     C36094   1.052   8.768   6.124  0.5255 -0.9101 -1.0615
  268MOL0     C36095   1.128   8.655   6.113 -0.4622  0.5904  0.1666
  268MOL0     N36096   1.432   7.881   6.201  0.1281  1.1452  0.4001
  268MOL0     N36097   1.562   7.867   6.198 -0.4126  0.1647  0.2411
  268MOL0     C36098   2.601   7.248   6.347  0.8261  0.5306 -0.1424
  268MOL0     C36099   2.740   7.254   6.312 -0.7234  0.4694 -0.0487
  268MOL0     C36100   3.103   7.404   6.082  0.6402 -0.7107 -0.8842
  268MOL0     C36101   3.158   7.381   5.948 -0.0073  0.9818  0.8861
  268MOL0     C36102   3.299   7.411   5.926 -0.0845 -0.3167 -0.6581
  268MOL0     C36103   3.356   7.498   6.022 -0.6743  0.1520 -0.4424
  268MOL0     O36104   3.488   7.530   6.008  0.0080 -0.3367 -0.4516
  268MOL0     C36105   3.537   7.658   6.051 -0.1209 -0.1139  0.3371
  268MOL0     C36106   3.689   7.665   6.020  0.6319  0.2137 -0.1541
  268MOL0     C36107   3.708   7.668   5.868  0.4838  1.0248  0.5761
  268MOL0     C36108   3.853   7.658   5.823  0.9001  0.2855  0.4479
  268MOL0     C36109   3.917   7.541   5.877 -0.3660  0.1352 -0.0390
  268MOL0     C36110   3.960   7.451   5.949 -0.0735  0.2393 -0.2562
  268MOL0     C36111   3.290   7.541   6.135  0.3071  0.1829 -0.0906
  268MOL0     C36112   3.177   7.484   6.172 -0.5137 -0.8220  0.4625
  268MOL0     H36113   2.759   7.574   6.223  0.1088  0.9371  3.0010
  268MOL0     H36114   2.514   7.572   6.282 -1.1804 -1.2541 -3.6703
  268MOL0     H36115   2.249   7.446   6.504  0.8231 -1.0432  0.9237
  268MOL0     H36116   2.390   7.544   6.435  2.4526 -2.4334  0.2044
  268MOL0     H36117   2.314   7.525   6.216 -1.3721  1.0942 -0.0525
  268MOL0     H36118   2.177   7.423   6.272  0.4620 -0.0420 -1.7489
  268MOL0     H36119   2.222   7.714   6.340  1.6583 -2.2228  0.7873
  268MOL0     H36120   2.108   7.653   6.218  2.4710  1.7841 -1.7380
  268MOL0     H36121   1.977   7.571   6.419 -1.5114  1.7053 -1.7514
  268MOL0     H36122   2.112   7.633   6.520 -2.2398 -0.8355  1.7699
  268MOL0     H36123   1.967   7.790   6.544 -0.2941 -3.2439  0.5731
  268MOL0     H36124   2.069   7.869   6.431 -2.5862  2.5440  0.9255
  268MOL0     H36125   1.915   7.808   6.242 -0.2605  1.9997 -0.0080
  268MOL0     H36126   1.804   7.751   6.356  1.6626 -3.7347 -2.9846
  268MOL0     H36127   1.785   7.967   6.462  3.0603  2.2336  2.2045
  268MOL0     H36128   1.928   8.021   6.392  1.6503 -2.8214  0.5369
  268MOL0     H36129   1.807   7.984   6.159 -0.0290 -0.8464  1.1589
  268MOL0     H36130   1.770   8.125   6.253  1.2494 -0.1322 -2.2515
  268MOL0     H36131   1.524   8.159   6.330  0.1565 -0.3119  0.4693
  268MOL0     H36132   1.199   8.027   6.175  4.0953 -2.4813 -1.1461
  268MOL0     H36133   1.215   8.023   6.349  0.4041 -2.2638  0.6206
  268MOL0     H36134   1.291   8.254   6.345 -0.4121 -0.9258  0.2371
  268MOL0     H36135   1.146   8.233   6.256 -0.7656  0.1310 -2.3582
  268MOL0     H36136   1.288   8.216   6.044  3.8648 -3.4225  0.7947
  268MOL0     H36137   1.416   8.282   6.148  0.4481 -2.6788 -2.5535
  268MOL0     H36138   1.147   8.406   6.082 -0.6040 -2.1039  2.2613
  268MOL0     H36139   1.299   8.456   6.009  0.6268  2.5753  2.0526
  268MOL0     H36140   1.292   8.657   6.417  1.8872  1.3309 -1.6465
  268MOL0     H36141   1.217   8.831   6.549  0.4953  0.3857 -0.4666
  268MOL0     H36142   1.191   8.977   6.449  0.5622 -0.3502  0.8696
  268MOL0     H36143   1.054   8.899   6.531  0.8070  0.5432  1.2147
  268MOL0     H36144   0.889   9.099   6.580  0.9227 -0.9492 -0.9610
  268MOL0     H36145   0.759   9.338   6.619 -0.7775  0.8663 -0.6960
  268MOL0     H36146   0.531   9.545   6.300  2.9061 -2.1456 -1.0165
  268MOL0     H36147   0.427   9.409   6.344 -0.3969  0.1790  2.4560
  268MOL0     H36148   0.478   9.639   6.528  1.0033  0.8098 -2.1414
  268MOL0     H36149   0.340   9.634   6.417  1.8955  1.3999 -0.2965
  268MOL0     H36150   0.405   9.398   6.596 -1.9030 -4.8235 -2.9446
  268MOL0     H36151   0.249   9.426   6.529 -0.1314 -1.8109  3.8620
  268MOL0     H36152   0.256   9.468   6.762 -0.6795  1.5278  1.5877
  268MOL0     H36153   0.375   9.598   6.739  3.5113 -2.6315 -2.5297
  268MOL0     H36154   0.072   9.603   6.693 -2.7585  4.1718  1.6364
  268MOL0     H36155   0.171   9.701   6.586  0.2956 -1.0578 -1.2120
  268MOL0     H36156   0.270   9.813   6.768  0.0063  0.0408 -0.2218
  268MOL0     H36157   0.102   9.828   6.763  1.2778  2.1025  2.6929
  268MOL0     H36158   0.192   9.790   7.000  1.4565  0.9561 -0.6265
  268MOL0     H36159   0.283   9.658   6.941  1.1418  1.8560  3.2664
  268MOL0     H36160   0.107   9.520   6.906 -1.9460 -0.9790  0.4028
  268MOL0     H36161  -0.011   9.635   6.892  0.9591  1.8434 -0.0520
  268MOL0     H36162   0.585   9.294   6.234 -0.1378  2.2639  1.0164
  268MOL0     H36163   0.730   9.094   6.193 -0.8487 -1.7273  1.3651
  268MOL0     H36164   0.981   8.799   6.049  0.5558  0.6364 -0.4971
  268MOL0     H36165   1.108   8.605   6.019 -5.5677  1.6188  0.4277
  268MOL0     H36166   2.570   7.155   6.393 -2.5203  0.4026 -2.3219
  268MOL0     H36167   2.809   7.173   6.334  0.1731  1.7501  2.1979
  268MOL0     H36168   3.113   7.312   5.877  0.6010  0.6059  0.8553
  268MOL0     H36169   3.366   7.369   5.851  1.4127  1.0986 -0.1864
  268MOL0     H36170   3.482   7.727   5.987  0.6388 -1.3762 -1.8083
  268MOL0     H36171   3.515   7.684   6.154 -1.9301  2.3003 -0.5659
  268MOL0     H36172   3.742   7.585   6.072 -1.7934 -0.7587  0.9643
  268MOL0     H36173   3.727   7.758   6.064 -0.8024  0.7248  0.0596
  268MOL0     H36174   3.667   7.758   5.822  2.8333  2.0295  0.2925
  268MOL0     H36175   3.663   7.580   5.822  2.8857  0.8337 -1.6071
  268MOL0     H36176   3.897   7.746   5.870 -0.8463  0.9606  0.9179
  268MOL0     H36177   3.858   7.673   5.715 -2.8779  1.4318  0.2763
  268MOL0     H36178   4.004   7.380   6.016  1.0600 -0.4980 -1.7339
  268MOL0     H36179   3.347   7.598   6.208  1.2638  2.1587 -2.2829
  268MOL0     H36180   3.143   7.508   6.273  0.6571 -1.0955  0.9421
  269MOL0     O36181   6.236   0.989   4.221  0.3237  0.2702  0.0652
  269MOL0     C36182   6.120   1.012   4.181 -0.1958 -0.5346 -0.3420
  269MOL0     O36183   6.004   0.946   4.224 -0.1870  0.6772  0.4632
  269MOL0     C36184   6.017   0.853   4.323 -0.8533  0.0962 -0.2623
  269MOL0     C36185   6.010   0.893   4.452  0.2976 -0.0900 -0.1735
  269MOL0     C36186   6.008   0.793   4.558 -0.4051 -0.4263  0.2059
  269MOL0     C36187   6.007   0.658   4.533 -0.5590  0.1075  0.0452
  269MOL0     O36188   5.986   0.575   4.644 -0.8109  0.2570  0.4256
  269MOL0     C36189   6.024   0.439   4.638  0.2680 -0.4616  0.5678
  269MOL0     C36190   6.050   0.390   4.780  0.2955  0.2710  0.8245
  269MOL0     C36191   5.915   0.357   4.850  0.1170  0.1806 -0.5732
  269MOL0     C36192   5.934   0.249   4.954  0.0046  0.0607  0.4237
  269MOL0     C36193   5.799   0.202   5.017  1.0390  1.2294  0.1627
  269MOL0     C36194   5.732   0.302   5.109 -0.6469 -0.5397  0.5573
  269MOL0     C36195   5.605   0.238   5.185 -0.5827  1.0401 -0.1085
  269MOL0     C36196   5.491   0.201   5.088  0.0692  0.1753  0.9141
  269MOL0     N36197   5.436   0.322   5.015  0.2889 -0.0102  0.1309
  269MOL0     C36198   5.316   0.381   5.057  0.0404  0.2698  0.7835
  269MOL0     C36199   5.304   0.488   4.977 -0.1698 -0.2358  0.9681
  269MOL0     C36200   5.196   0.598   4.983  0.0934 -0.0167  0.4160
  269MOL0     C36201   5.173   0.665   4.849 -0.4043 -0.5305  0.3304
  269MOL0     C36202   5.274   0.766   4.811 -0.4341 -0.2973 -0.2928
  269MOL0     C36203   5.246   0.855   4.684  0.3300  0.6700 -0.1440
  269MOL0     O36204   5.259   0.793   4.560  0.0765 -0.5817 -1.0325
  269MOL0     C36205   5.225   0.857   4.440  0.5885  0.3797 -0.6104
  269MOL0     C36206   5.178   0.988   4.449  0.1417 -0.1021  0.6465
  269MOL0     C36207   5.131   1.066   4.337 -0.2822  0.2474  1.3644
  269MOL0     C36208   5.094   1.216   4.351 -0.2300 -0.1403  0.0663
  269MOL0     C36209   5.131   0.996   4.211 -0.0252 -0.0393  0.4097
  269MOL0     C36210   5.100   1.063   4.082 -0.8864 -0.9345  0.4362
  269MOL0     O36211   5.125   0.985   3.973 -0.1471 -0.4062 -0.3586
  269MOL0     C36212   5.101   1.027   3.839  0.1941 -0.1168 -0.0710
  269MOL0     C36213   4.974   1.012   3.778 -0.1678  0.2079 -0.0167
  269MOL0     C36214   4.955   1.041   3.643  0.3614 -0.4600  0.0739
  269MOL0     C36215   5.061   1.068   3.560 -0.5156 -0.2299 -0.1396
  269MOL0     O36216   5.042   1.083   3.426  0.0450  0.3026  0.1249
  269MOL0     C36217   5.047   1.222   3.391 -0.4256 -0.5213  0.8303
  269MOL0     C36218   5.101   1.232   3.251 -0.3001  0.8630  0.3062
  269MOL0     C36219   5.252   1.203   3.231 -0.0185  0.0045  0.0017
  269MOL0     C36220   5.277   1.163   3.082  0.1663 -0.0735 -0.1418
  269MOL0     C36221   5.418   1.151   3.036  0.0218  0.1955 -0.2471
  269MOL0     C36222   5.428   1.108   2.891 -0.6235 -0.7431 -0.3451
  269MOL0     C36223   5.563   1.059   2.849  0.0916  0.0013 -1.4175
  269MOL0     C36224   5.691   1.117   2.892 -0.4406 -0.0556 -0.3562
  269MOL0    Cl36225   5.837   1.016   2.816 -0.2637  0.2343 -0.6952
  269MOL0     C36226   5.188   1.078   3.627 -0.4381 -0.7569 -0.0474
  269MOL0     C36227   5.215   1.056   3.760  0.5889 -0.8254 -0.5624
  269MOL0     O36228   5.049   1.174   4.075  0.9458 -0.4211 -0.1851
  269MOL0     C36229   5.165   0.859   4.204 -0.0120 -0.3675 -0.0597
  269MOL0     C36230   5.215   0.792   4.317 -0.2984  0.3039 -0.2762
  269MOL0     N36231   5.404   0.480   4.887  0.1728 -0.5478  0.0686
  269MOL0     N36232   5.490   0.393   4.920 -0.5947 -0.7229  0.3118
  269MOL0     C36233   5.997   0.625   4.400 -0.0886  0.1902  0.2152
  269MOL0     C36234   6.011   0.716   4.296 -0.0956 -0.4114  0.2469
  269MOL0     C36235   6.099   1.122   4.087 -0.0132  0.4114  0.0518
  269MOL0     C36236   6.207   1.189   4.026 -0.0135  0.2564 -0.2048
  269MOL0     C36237   6.183   1.288   3.929 -1.0666  0.1013 -1.3037
  269MOL0     C36238   6.054   1.309   3.888  0.0437 -0.5905  0.1366
  269MOL0     O36239   6.037   1.405   3.788 -0.1292  0.3693  0.0001
  269MOL0     C36240   5.935   1.378   3.691  0.2116 -0.5236  0.4349
  269MOL0     C36241   5.952   1.456   3.568 -0.4183 -0.0844 -0.1062
  269MOL0     C36242   6.075   1.412   3.487  0.3159 -0.6087  0.5185
  269MOL0     C36243   6.198   1.499   3.515 -0.4294  0.7870  0.1292
  269MOL0     C36244   6.315   1.459   3.440 -0.4006  0.7438 -0.1658
  269MOL0     C36245   6.417   1.428   3.373  0.0599 -0.6941 -0.0661
  269MOL0     C36246   5.950   1.234   3.938 -0.5264  0.0359  0.7699
  269MOL0     C36247   5.970   1.145   4.038 -0.0918  0.7065  0.2370
  269MOL0     H36248   5.995   0.999   4.469 -4.4929 -0.6525  0.7531
  269MOL0     H36249   6.023   0.824   4.661  0.5192 -0.2699  0.0299
  269MOL0     H36250   5.952   0.378   4.583 -0.4766  1.5073 -0.7412
  269MOL0     H36251   6.117   0.421   4.584  0.8241  1.6304  0.7432
  269MOL0     H36252   6.117   0.303   4.776  1.0919  0.9001 -1.5503
  269MOL0     H36253   6.104   0.466   4.837  0.0248  1.0817  0.0270
  269MOL0     H36254   5.901   0.455   4.896 -2.5585  1.4169 -3.5939
  269MOL0     H36255   5.828   0.333   4.789  0.7381 -1.2754 -0.9128
  269MOL0     H36256   5.971   0.156   4.909 -1.3396 -0.5334  0.4990
  269MOL0     H36257   5.997   0.281   5.037  0.8688  2.2351 -0.9786
  269MOL0     H36258   5.738   0.174   4.931  2.5531 -1.9282 -0.0442
  269MOL0     H36259   5.827   0.112   5.072  1.0529  1.3765  0.4008
  269MOL0     H36260   5.796   0.335   5.192 -0.7807 -0.1986  0.5223
  269MOL0     H36261   5.705   0.387   5.047  1.1899  1.9487  2.9247
  269MOL0     H36262   5.634   0.143   5.231 -1.6629  0.3081 -0.9117
  269MOL0     H36263   5.578   0.311   5.262 -0.2535  0.8155  0.2268
  269MOL0     H36264   5.412   0.164   5.154  2.3255 -0.5195  3.3724
  269MOL0     H36265   5.521   0.118   5.024 -0.0140 -1.1604  2.5271
  269MOL0     H36266   5.249   0.357   5.139 -1.6530  0.4701 -0.4871
  269MOL0     H36267   5.101   0.547   5.005 -0.3099  0.3614 -0.4218
  269MOL0     H36268   5.215   0.674   5.059 -1.8077  1.6457 -0.6737
  269MOL0     H36269   5.072   0.707   4.852 -0.8168 -1.5391  1.2688
  269MOL0     H36270   5.174   0.598   4.763 -0.1211  0.5236 -0.5099
  269MOL0     H36271   5.370   0.717   4.793  0.3500  0.9946  0.2279
  269MOL0     H36272   5.284   0.832   4.898 -1.3230  0.3723 -0.6800
  269MOL0     H36273   5.316   0.939   4.691 -0.0141  1.3392 -3.1773
  269MOL0     H36274   5.146   0.899   4.693  0.1386  0.6539 -1.7970
  269MOL0     H36275   5.186   1.048   4.538  0.4891  1.3174 -0.3060
  269MOL0     H36276   5.093   1.242   4.457 -1.3597 -0.8096  0.2351
  269MOL0     H36277   5.168   1.274   4.295 -3.1863  1.1447 -2.7796
  269MOL0     H36278   4.995   1.238   4.311  1.1173  3.4618 -1.7022
  269MOL0     H36279   4.888   0.992   3.842  0.3894  3.3665  1.9299
  269MOL0     H36280   4.853   1.034   3.609  0.8371  1.0109 -1.8749
  269MOL0     H36281   4.947   1.266   3.395 -0.8414 -1.2587 -0.6273
  269MOL0     H36282   5.108   1.282   3.460 -1.8365  2.8668 -0.6125
  269MOL0     H36283   5.051   1.163   3.182  0.8535 -0.1494  0.4503
  269MOL0     H36284   5.078   1.333   3.215 -1.4636  0.7739  0.7735
  269MOL0     H36285   5.294   1.123   3.293 -1.6212 -0.8292  0.0799
  269MOL0     H36286   5.312   1.290   3.258 -0.9044 -0.3797  3.7769
  269MOL0     H36287   5.218   1.073   3.063  0.7776 -0.0062 -2.7974
  269MOL0     H36288   5.231   1.231   3.009 -1.9645 -1.9858 -0.6947
  269MOL0     H36289   5.467   1.077   3.100 -1.1026 -0.2372  0.1334
  269MOL0     H36290   5.479   1.241   3.044 -0.5268  0.4792  0.9968
  269MOL0     H36291   5.372   1.015   2.877  1.0493 -1.6340 -1.5046
  269MOL0     H36292   5.389   1.176   2.815 -0.3642 -1.9428 -1.5895
  269MOL0     H36293   5.578   1.076   2.742  3.4107 -0.3595 -1.1186
  269MOL0     H36294   5.567   0.952   2.869 -4.0639  0.3573  3.4430
  269MOL0     H36295   5.686   1.135   3.000  0.0125  0.9759 -0.5011
  269MOL0     H36296   5.698   1.215   2.845 -1.0209  0.5489  0.7671
  269MOL0     H36297   5.270   1.086   3.555  0.1913 -0.7843  0.6479
  269MOL0     H36298   5.315   1.032   3.794  1.0658 -1.4575 -2.3072
  269MOL0     H36299   5.155   0.801   4.112  0.0633  0.3860 -0.5477
  269MOL0     H36300   5.233   0.685   4.306 -0.2361  0.2967 -0.1089
  269MOL0     H36301   5.966   0.525   4.371 -0.4577 -0.0292  1.3164
  269MOL0     H36302   6.002   0.689   4.191  3.9498 -0.7754 -0.1620
  269MOL0     H36303   6.309   1.178   4.062  0.1919 -2.2189 -1.3446
  269MOL0     H36304   6.264   1.343   3.882 -0.2986  2.0314  1.9569
  269MOL0     H36305   5.942   1.273   3.661  1.6846  0.2268 -2.1721
  269MOL0     H36306   5.835   1.399   3.730 -1.3129 -0.5041 -3.1191
  269MOL0     H36307   5.964   1.562   3.591  4.3815 -0.8137  2.0396
  269MOL0     H36308   5.860   1.450   3.509 -0.4736 -0.4375  0.0093
  269MOL0     H36309   6.050   1.417   3.381  2.2400 -0.8649  0.0134
  269MOL0     H36310   6.109   1.313   3.518  3.1872  0.3193  0.6562
  269MOL0     H36311   6.214   1.507   3.623  0.0733 -0.3679  0.1580
  269MOL0     H36312   6.178   1.601   3.480 -4.2840  2.6622  6.2254
  269MOL0     H36313   6.507   1.394   3.325 -0.0641 -1.2386  0.0823
  269MOL0     H36314   5.851   1.241   3.894  0.2620 -2.4767 -1.6725
  269MOL0     H36315   5.882   1.103   4.088  1.4362 -3.4927 -0.1881
  270MOL0     O36316   8.283   1.742   1.085 -0.1616 -0.5736  0.2668
  270MOL0     C36317   8.207   1.664   1.020 -0.2222  0.1722  0.0389
  270MOL0     O36318   8.166   1.537   1.055  0.4101 -0.0073 -0.6156
  270MOL0     C36319   8.235   1.479   1.164  0.6592  0.3109 -0.3887
  270MOL0     C36320   8.378   1.497   1.175 -0.6041 -0.7570  0.4969
  270MOL0     C36321   8.445   1.414   1.258 -1.4880 -0.7455 -0.5849
  270MOL0     C36322   8.380   1.320   1.338  1.1819 -0.2906  0.1490
  270MOL0     O36323   8.446   1.226   1.423 -0.1285  0.3530  0.5594
  270MOL0     C36324   8.588   1.205   1.415  0.1440  1.2699  0.0967
  270MOL0     C36325   8.600   1.074   1.495  0.4261 -0.8918  0.6618
  270MOL0     C36326   8.721   1.070   1.582  0.8482 -0.4908  0.3225
  270MOL0     C36327   8.703   1.155   1.714 -0.3373 -0.6975 -0.5462
  270MOL0     C36328   8.811   1.254   1.735 -0.2117  0.5809  0.3746
  270MOL0     C36329   8.946   1.178   1.759  0.7138 -0.1516  0.0524
  270MOL0     C36330   9.041   1.243   1.863  0.1626  1.0718  0.2126
  270MOL0     C36331   9.055   1.395   1.863 -0.4820  0.3009 -0.1158
  270MOL0     N36332   9.151   1.424   1.759 -0.2604 -0.0897  0.2698
  270MOL0     C36333   9.267   1.370   1.725 -0.1828  1.2618 -0.6618
  270MOL0     C36334   9.330   1.433   1.618 -0.5164 -0.7615 -0.8648
  270MOL0     C36335   9.473   1.412   1.567 -0.1633 -0.4729  0.4263
  270MOL0     C36336   9.488   1.501   1.444  0.5281 -0.5987  0.0838
  270MOL0     C36337   9.409   1.467   1.321  0.7736 -0.6317  0.3697
  270MOL0     C36338   9.426   1.581   1.222  0.8456 -0.6328  0.8337
  270MOL0     O36339   9.387   1.555   1.090  0.5225  0.7136  0.1802
  270MOL0     C36340   9.253   1.513   1.074  0.0791 -0.4356 -1.0892
  270MOL0     C36341   9.149   1.557   1.160 -0.5320 -0.4843 -0.0489
  270MOL0     C36342   9.016   1.506   1.161  0.3413 -0.0431  0.1338
  270MOL0     C36343   8.924   1.569   1.264  0.3123 -0.5692 -0.6000
  270MOL0     C36344   8.979   1.422   1.047 -0.6027  0.0661 -0.4714
  270MOL0     C36345   8.839   1.366   1.022 -0.5790  0.5011 -0.1503
  270MOL0     O36346   8.816   1.309   0.897  0.6551 -0.4744  0.3059
  270MOL0     C36347   8.702   1.264   0.847  0.4648 -0.4623  0.2514
  270MOL0     C36348   8.574   1.286   0.902  0.3996 -0.7970  0.1849
  270MOL0     C36349   8.463   1.237   0.825 -0.0142 -0.7038 -1.4737
  270MOL0     C36350   8.477   1.168   0.707 -0.9929  0.0836 -0.3865
  270MOL0     O36351   8.373   1.107   0.638  0.2067  0.9535  0.0131
  270MOL0     C36352   8.240   1.098   0.701 -0.6221 -0.6915 -0.2637
  270MOL0     C36353   8.149   0.994   0.645  0.6875  0.1639 -0.3354
  270MOL0     C36354   8.191   0.847   0.649  0.4388  0.1230 -0.0432
  270MOL0     C36355   8.191   0.771   0.518 -0.5561  0.2786 -0.8702
  270MOL0     C36356   8.323   0.792   0.433  0.1060  0.6042  0.5499
  270MOL0     C36357   8.426   0.679   0.471  0.2801 -0.5392 -0.1162
  270MOL0     C36358   8.550   0.682   0.380  0.2331 -0.2106  1.0921
  270MOL0     C36359   8.666   0.772   0.428 -0.0748  0.7123  0.1461
  270MOL0    Cl36360   8.777   0.803   0.290 -0.0727 -0.4063  0.0804
  270MOL0     C36361   8.608   1.141   0.657  0.3594  0.0422 -0.1994
  270MOL0     C36362   8.712   1.197   0.723 -0.1069 -0.1741 -0.5925
  270MOL0     O36363   8.757   1.368   1.111 -0.3751 -0.6026 -0.6002
  270MOL0     C36364   9.077   1.391   0.952  0.5368  0.6365 -0.1109
  270MOL0     C36365   9.208   1.441   0.969 -0.1901  0.3054  0.4665
  270MOL0     N36366   9.249   1.535   1.595 -0.1314 -0.8026  0.1398
  270MOL0     N36367   9.147   1.530   1.678  0.6906  0.3040 -0.3961
  270MOL0     C36368   8.241   1.298   1.327  0.1168  0.4713  0.0417
  270MOL0     C36369   8.173   1.381   1.240 -0.1757 -0.1874  0.9423
  270MOL0     C36370   8.147   1.730   0.901 -0.5916 -0.3212  0.6294
  270MOL0     C36371   8.162   1.865   0.875 -0.5406 -0.5775 -0.2260
  270MOL0     C36372   8.102   1.930   0.766 -0.0702  0.0595  0.0991
  270MOL0     C36373   8.023   1.849   0.685 -0.2600 -0.7025 -0.0658
  270MOL0     O36374   7.953   1.909   0.587  0.6970 -0.3800  0.6876
  270MOL0     C36375   7.960   1.858   0.448  0.1000  0.3467  0.2785
  270MOL0     C36376   8.075   1.903   0.377  0.0079  0.0912 -0.5903
  270MOL0     C36377   8.091   2.057   0.336 -0.3184  0.7033  0.7709
  270MOL0     C36378   8.116   2.160   0.442  0.3262  0.1028 -0.0455
  270MOL0     C36379   8.256   2.129   0.491  1.1076  0.5267 -0.5169
  270MOL0     C36380   8.371   2.098   0.507  0.4106  0.2617  0.5709
  270MOL0     C36381   8.004   1.713   0.706 -0.8385  0.1475 -0.1957
  270MOL0     C36382   8.074   1.652   0.810 -0.0480  0.4013  0.5729
  270MOL0     H36383   8.442   1.557   1.111 -1.4110 -1.6138 -1.1859
  270MOL0     H36384   8.553   1.424   1.254 -1.4595  0.3749  1.5179
  270MOL0     H36385   8.623   1.195   1.312 -3.8935 -0.0800 -1.3490
  270MOL0     H36386   8.635   1.290   1.465 -0.4440  0.3937  2.2459
  270MOL0     H36387   8.504   1.060   1.546 -0.6869  2.7850 -0.0706
  270MOL0     H36388   8.606   0.999   1.417  0.0825  2.6302 -3.0909
  270MOL0     H36389   8.749   0.967   1.605 -0.3198 -0.8039  0.4418
  270MOL0     H36390   8.803   1.106   1.520  0.8504 -0.3450  0.4102
  270MOL0     H36391   8.614   1.219   1.714  1.5540  2.1267  0.8941
  270MOL0     H36392   8.698   1.085   1.798  4.6852 -0.2296  0.4227
  270MOL0     H36393   8.816   1.312   1.642  0.2385  1.2343  0.8001
  270MOL0     H36394   8.778   1.318   1.817 -0.8864 -0.7944  1.2047
  270MOL0     H36395   8.914   1.083   1.801 -0.8506  0.2866 -0.0941
  270MOL0     H36396   8.994   1.160   1.662  0.3328  0.1754 -0.1982
  270MOL0     H36397   9.006   1.220   1.964 -0.1706  0.6609  0.0012
  270MOL0     H36398   9.134   1.186   1.856 -0.2933  0.4748 -1.4054
  270MOL0     H36399   9.094   1.425   1.960  4.3993 -0.5202 -1.5501
  270MOL0     H36400   8.958   1.441   1.843 -0.7276  0.6993  1.8125
  270MOL0     H36401   9.308   1.279   1.767 -0.7185  2.2837  2.3167
  270MOL0     H36402   9.552   1.437   1.638  0.3528 -3.3639  0.9955
  270MOL0     H36403   9.488   1.309   1.533 -3.8352 -0.7247 -0.8761
  270MOL0     H36404   9.594   1.496   1.419  0.5489  0.9784 -0.2196
  270MOL0     H36405   9.463   1.605   1.469 -4.4528 -0.5431 -3.4871
  270MOL0     H36406   9.303   1.459   1.347  0.3236  1.7366 -0.4637
  270MOL0     H36407   9.444   1.371   1.284 -1.7177 -0.3948 -3.1797
  270MOL0     H36408   9.530   1.616   1.226  0.6554 -0.1543  2.6147
  270MOL0     H36409   9.374   1.665   1.269  0.6362 -1.6549  2.5179
  270MOL0     H36410   9.174   1.638   1.229 -1.0432 -0.5360  0.2020
  270MOL0     H36411   8.888   1.670   1.240  3.7451  0.8335 -0.4289
  270MOL0     H36412   8.839   1.506   1.289 -0.5520  0.6476 -0.4144
  270MOL0     H36413   8.982   1.576   1.356 -0.7131 -1.3179  0.1178
  270MOL0     H36414   8.556   1.344   0.992 -0.5648  2.8693 -2.1389
  270MOL0     H36415   8.370   1.276   0.865  1.3897  3.0108 -1.4496
  270MOL0     H36416   8.245   1.089   0.810 -0.4333  1.7925  0.0037
  270MOL0     H36417   8.191   1.192   0.674  1.3882 -0.1151 -2.1706
  270MOL0     H36418   8.048   0.999   0.687 -0.2738  0.2475 -2.5232
  270MOL0     H36419   8.133   1.030   0.543 -2.2975  0.4339  0.1341
  270MOL0     H36420   8.116   0.793   0.708 -0.2673  0.6572 -0.4441
  270MOL0     H36421   8.286   0.838   0.704 -0.9754  1.2810  2.7927
  270MOL0     H36422   8.165   0.665   0.528 -0.3251  0.3847  1.3067
  270MOL0     H36423   8.110   0.812   0.457 -1.6793  0.3124  0.5934
  270MOL0     H36424   8.373   0.889   0.444 -0.1438  0.6777  1.0834
  270MOL0     H36425   8.293   0.772   0.330 -0.1505 -0.6509  0.8608
  270MOL0     H36426   8.458   0.696   0.574  0.9160  0.9594 -0.5301
  270MOL0     H36427   8.385   0.578   0.473  0.6710 -0.7771 -2.1109
  270MOL0     H36428   8.513   0.716   0.282  1.0177  0.0180  0.8678
  270MOL0     H36429   8.587   0.581   0.362 -0.3519 -0.4923  1.4637
  270MOL0     H36430   8.625   0.863   0.471 -4.1590 -0.0606 -1.6215
  270MOL0     H36431   8.721   0.715   0.503  1.0762 -1.2915 -2.0662
  270MOL0     H36432   8.608   1.067   0.578 -0.4009 -1.1843  0.9009
  270MOL0     H36433   8.813   1.177   0.686 -0.1863 -1.2304 -0.2818
  270MOL0     H36434   9.071   1.343   0.855  0.2643  0.9775 -0.2611
  270MOL0     H36435   9.281   1.429   0.889 -0.0455 -1.2888  0.8025
  270MOL0     H36436   8.190   1.224   1.388 -0.4957  2.8418  2.6410
  270MOL0     H36437   8.070   1.345   1.235 -0.1932 -0.6935  3.5498
  270MOL0     H36438   8.228   1.928   0.935 -1.4696  0.1488  0.0534
  270MOL0     H36439   8.115   2.036   0.751 -0.0613 -0.0409 -0.6612
  270MOL0     H36440   7.963   1.748   0.455  1.7652  0.4513  2.6649
  270MOL0     H36441   7.864   1.867   0.397 -0.1443 -2.7245 -0.0180
  270MOL0     H36442   8.073   1.848   0.283  1.0354 -0.0474 -0.5404
  270MOL0     H36443   8.166   1.873   0.428 -0.9264 -2.0328 -0.0651
  270MOL0     H36444   8.002   2.096   0.286  0.6294  5.1649  2.1095
  270MOL0     H36445   8.175   2.061   0.265  3.0601 -2.4056  4.1343
  270MOL0     H36446   8.041   2.155   0.522  1.3481  1.7262  1.0837
  270MOL0     H36447   8.111   2.254   0.386  3.8755  0.5125  0.1042
  270MOL0     H36448   8.473   2.073   0.528  1.0997  1.6231 -0.8801
  270MOL0     H36449   7.946   1.659   0.633 -2.9582  2.8296 -0.6594
  270MOL0     H36450   8.044   1.548   0.822 -0.1675  0.3820  0.1186
  271MOL0     O36451   8.407   6.390   3.242  0.9728 -0.3813  0.3438
  271MOL0     C36452   8.466   6.401   3.128  0.2965  0.9045 -0.6989
  271MOL0     O36453   8.596   6.447   3.107  0.6694 -0.6653  0.1786
  271MOL0     C36454   8.674   6.467   3.218  0.1910 -0.0849  0.0042
  271MOL0     C36455   8.661   6.588   3.287  0.0025 -0.1103  0.4286
  271MOL0     C36456   8.755   6.604   3.388 -1.4527  0.3063 -0.0517
  271MOL0     C36457   8.841   6.504   3.425 -0.0180  0.1519  0.9691
  271MOL0     O36458   8.932   6.520   3.523 -0.2744 -0.1049  0.4417
  271MOL0     C36459   8.946   6.641   3.595  0.0435 -0.7180  0.9379
  271MOL0     C36460   9.065   6.642   3.692  0.6873  0.0468 -0.0046
  271MOL0     C36461   9.084   6.785   3.753 -0.3753 -0.2372  0.0631
  271MOL0     C36462   9.007   6.797   3.883  0.7998  0.9541  0.2162
  271MOL0     C36463   9.069   6.709   4.001 -0.7599  0.1532 -0.1455
  271MOL0     C36464   9.208   6.760   4.060  0.6976 -0.0905 -0.6335
  271MOL0     C36465   9.243   6.682   4.188  0.0308 -0.5236  0.2024
  271MOL0     C36466   9.354   6.768   4.257  0.7127 -0.3068  0.1314
  271MOL0     N36467   9.403   6.702   4.384 -0.7470 -0.2096  0.5091
  271MOL0     C36468   9.322   6.648   4.484  0.0892  0.2679  0.0787
  271MOL0     C36469   9.411   6.573   4.556  0.1185  0.8320  0.1921
  271MOL0     C36470   9.391   6.536   4.703 -0.1622  0.1967 -0.3779
  271MOL0     C36471   9.252   6.557   4.758  1.4686 -0.0631 -0.4910
  271MOL0     C36472   9.246   6.499   4.897  0.0301  0.1094  0.1215
  271MOL0     C36473   9.109   6.444   4.951 -0.0200  0.0669  1.0672
  271MOL0     O36474   9.048   6.357   4.862  0.5147 -0.3326 -0.0921
  271MOL0     C36475   9.068   6.225   4.864  0.9769 -0.5902  0.4066
  271MOL0     C36476   9.004   6.146   4.780 -0.2418  0.4351 -0.1109
  271MOL0     C36477   9.015   6.004   4.777 -0.0604  0.6970 -1.0083
  271MOL0     C36478   8.923   5.935   4.674 -0.1615  0.8425 -0.3251
  271MOL0     C36479   9.112   5.939   4.860 -0.7085  0.0707 -0.3654
  271MOL0     C36480   9.146   5.794   4.852 -0.0042  0.1207  0.6617
  271MOL0     O36481   9.210   5.744   4.957 -0.2369 -0.2177  0.2637
  271MOL0     C36482   9.270   5.618   4.935 -0.1695 -1.1696  0.6717
  271MOL0     C36483   9.230   5.512   5.012 -0.3065 -0.3973 -0.5842
  271MOL0     C36484   9.279   5.382   5.001 -0.0273 -1.2029 -0.3657
  271MOL0     C36485   9.394   5.358   4.925 -0.8754 -0.2299  0.8716
  271MOL0     O36486   9.445   5.232   4.918 -0.6119  0.0222 -0.1548
  271MOL0     C36487   9.512   5.202   4.793 -0.7141 -0.2588 -0.5183
  271MOL0     C36488   9.537   5.051   4.799 -0.7758  0.6267  0.0991
  271MOL0     C36489   9.421   4.953   4.833 -0.8383 -0.2489  0.0489
  271MOL0     C36490   9.466   4.815   4.789  0.2914 -0.3258  0.0151
  271MOL0     C36491   9.344   4.726   4.805  0.0432 -0.1134 -0.9287
  271MOL0     C36492   9.301   4.700   4.942  0.5395  0.0643  0.6701
  271MOL0     C36493   9.152   4.647   4.941 -0.4932  0.0961  0.2370
  271MOL0     C36494   9.109   4.616   5.081  0.1185  0.1040 -0.0233
  271MOL0    Cl36495   8.945   4.549   5.065  0.1127 -0.7205 -0.1878
  271MOL0     C36496   9.452   5.472   4.853  0.2213  0.1680 -0.5034
  271MOL0     C36497   9.389   5.600   4.860  0.8559 -0.2770  0.7210
  271MOL0     O36498   9.111   5.723   4.753 -0.3624  0.4787  1.0261
  271MOL0     C36499   9.183   6.026   4.949 -0.2486 -0.4205  0.2160
  271MOL0     C36500   9.164   6.164   4.951 -1.1782 -0.4110 -0.2135
  271MOL0     N36501   9.537   6.584   4.492 -0.1206  0.5248 -0.6596
  271MOL0     N36502   9.533   6.660   4.384  0.3767  0.2520 -0.2340
  271MOL0     C36503   8.867   6.390   3.346  0.2374  0.6577  0.0659
  271MOL0     C36504   8.779   6.375   3.244 -0.4006  0.0143  0.2396
  271MOL0     C36505   8.395   6.358   3.000 -0.5269 -0.5887 -0.2894
  271MOL0     C36506   8.467   6.346   2.882  0.2834 -0.0107 -0.1245
  271MOL0     C36507   8.423   6.278   2.772  0.0066  1.4051  0.1834
  271MOL0     C36508   8.293   6.225   2.771 -0.9576  0.7697 -0.6013
  271MOL0     O36509   8.254   6.143   2.667  0.2076 -0.7071 -0.1795
  271MOL0     C36510   8.288   6.003   2.676  0.4286  0.3431 -0.0650
  271MOL0     C36511   8.314   5.962   2.529 -0.4948  0.2013  0.3048
  271MOL0     C36512   8.378   5.824   2.525 -0.1748 -0.1861 -0.1467
  271MOL0     C36513   8.423   5.775   2.384 -0.1218 -0.0487 -0.7193
  271MOL0     C36514   8.501   5.654   2.407  0.3960 -0.3609  0.0234
  271MOL0     C36515   8.545   5.544   2.419  0.1225 -0.0260  0.1911
  271MOL0     C36516   8.208   6.248   2.879  0.3878  0.1000 -0.9096
  271MOL0     C36517   8.267   6.310   2.995  0.0357 -0.0016  0.4289
  271MOL0     H36518   8.578   6.657   3.284  1.3913  1.6100 -0.2325
  271MOL0     H36519   8.750   6.692   3.452 -2.1895 -1.9549  3.2732
  271MOL0     H36520   8.961   6.718   3.519  2.6960 -3.0297 -1.0978
  271MOL0     H36521   8.856   6.671   3.648 -1.0400 -2.1805  0.0011
  271MOL0     H36522   9.040   6.563   3.764  1.7700 -0.4752 -0.1836
  271MOL0     H36523   9.154   6.627   3.631  1.5963  0.0571  1.2759
  271MOL0     H36524   9.190   6.798   3.774  0.6278 -1.6108 -3.5020
  271MOL0     H36525   9.057   6.867   3.686  0.9205  0.8162  0.7870
  271MOL0     H36526   8.996   6.900   3.917  2.0206  0.5499  1.9367
  271MOL0     H36527   8.904   6.767   3.860  1.4572 -1.6311  0.3342
  271MOL0     H36528   8.998   6.705   4.085  0.0556 -0.8003  0.5217
  271MOL0     H36529   9.092   6.611   3.960 -0.1064  0.3717 -0.3163
  271MOL0     H36530   9.292   6.738   3.994  0.9523 -1.1859  0.0293
  271MOL0     H36531   9.202   6.868   4.069 -1.4927 -0.2096  0.0509
  271MOL0     H36532   9.158   6.689   4.257  0.4208 -0.8762  0.7191
  271MOL0     H36533   9.283   6.580   4.178 -0.1260 -0.5223 -0.5097
  271MOL0     H36534   9.323   6.871   4.272  5.3523  1.4126 -0.5251
  271MOL0     H36535   9.435   6.769   4.184  0.6866 -1.9247  0.0334
  271MOL0     H36536   9.214   6.655   4.496 -0.2306 -2.5339 -0.4515
  271MOL0     H36537   9.433   6.437   4.722  1.6421  1.2759  1.8085
  271MOL0     H36538   9.451   6.608   4.760  0.5093  0.8231 -1.8201
  271MOL0     H36539   9.177   6.497   4.704 -0.9159  1.2759  1.1363
  271MOL0     H36540   9.218   6.661   4.759  0.4057 -0.3929 -0.4408
  271MOL0     H36541   9.271   6.574   4.973  0.7436  2.2448 -2.0949
  271MOL0     H36542   9.325   6.423   4.905  0.7149  0.9508  1.9245
  271MOL0     H36543   9.030   6.519   4.959 -0.1231  0.5512 -2.8105
  271MOL0     H36544   9.130   6.414   5.054  3.6265  2.0684  1.1115
  271MOL0     H36545   8.935   6.186   4.706 -2.0647 -4.3838 -1.4361
  271MOL0     H36546   8.871   6.016   4.622  2.2462  1.6943 -1.5796
  271MOL0     H36547   8.976   5.871   4.603 -0.1920  1.6262 -1.0631
  271MOL0     H36548   8.850   5.878   4.732 -1.7324  3.9704  1.0107
  271MOL0     H36549   9.139   5.524   5.071 -1.0048 -2.2558 -1.2049
  271MOL0     H36550   9.224   5.306   5.055 -0.3312  0.6745  2.1735
  271MOL0     H36551   9.450   5.216   4.704 -1.7413 -0.0234  0.2168
  271MOL0     H36552   9.603   5.261   4.779 -1.5481  1.8940  2.1345
  271MOL0     H36553   9.595   5.025   4.710 -2.2720  1.6554 -1.2470
  271MOL0     H36554   9.601   5.043   4.887 -1.3729  3.3510  0.8940
  271MOL0     H36555   9.339   4.988   4.769 -0.0645  2.8839  0.5903
  271MOL0     H36556   9.405   4.967   4.940 -0.3987 -2.9656  0.5343
  271MOL0     H36557   9.499   4.820   4.685 -0.7706 -2.0402 -0.4575
  271MOL0     H36558   9.538   4.775   4.860 -1.7695 -3.9169  0.3497
  271MOL0     H36559   9.364   4.630   4.755  0.2544  0.6725 -2.4089
  271MOL0     H36560   9.262   4.771   4.749  0.4303  0.1416 -1.3009
  271MOL0     H36561   9.370   4.626   4.984 -0.6517 -2.4637 -1.5439
  271MOL0     H36562   9.300   4.794   4.998  2.2760  0.6074 -0.1529
  271MOL0     H36563   9.141   4.551   4.891 -1.2100  0.2790  0.0311
  271MOL0     H36564   9.089   4.720   4.889 -0.4301  3.9184  4.8361
  271MOL0     H36565   9.110   4.714   5.130  0.8954  0.2957 -0.3909
  271MOL0     H36566   9.175   4.546   5.132  1.2086 -0.3304 -1.9084
  271MOL0     H36567   9.526   5.446   4.777  0.4688  1.9892 -0.9274
  271MOL0     H36568   9.419   5.687   4.802 -2.6712  1.5954  1.4040
  271MOL0     H36569   9.264   5.985   5.009  0.2093  0.8972  0.5302
  271MOL0     H36570   9.231   6.212   5.022 -1.6900  1.9353 -1.1990
  271MOL0     H36571   8.940   6.325   3.393  0.4846  2.0931  1.7814
  271MOL0     H36572   8.781   6.294   3.172  0.8103 -1.1291  1.4911
  271MOL0     H36573   8.572   6.373   2.885 -0.1283  1.7555 -0.6604
  271MOL0     H36574   8.487   6.245   2.691 -0.3616  1.5911 -0.1902
  271MOL0     H36575   8.378   5.998   2.737 -0.6443  4.2255  2.1489
  271MOL0     H36576   8.204   5.948   2.717  0.4442  0.8259  0.6284
  271MOL0     H36577   8.377   6.034   2.476  1.7810 -1.9651 -0.1449
  271MOL0     H36578   8.214   5.952   2.485 -0.2562  0.4117 -0.2877
  271MOL0     H36579   8.307   5.755   2.572 -1.1586  0.5052 -0.5876
  271MOL0     H36580   8.470   5.827   2.583 -0.9189  0.6247  1.0235
  271MOL0     H36581   8.498   5.852   2.363 -1.2345  0.9972 -0.9547
  271MOL0     H36582   8.346   5.785   2.306 -0.3498  2.2011 -0.2811
  271MOL0     H36583   8.582   5.444   2.430 -0.5518 -0.3134 -0.0903
  271MOL0     H36584   8.111   6.199   2.879  0.7947 -0.7206 -1.6151
  271MOL0     H36585   8.224   6.320   3.094  0.2095  1.2509  0.3892
  272MOL0     O36586   3.672   5.738   1.575 -0.6060 -0.3218  0.5626
  272MOL0     C36587   3.701   5.823   1.495 -1.0802 -0.1927 -1.0343
  272MOL0     O36588   3.633   5.872   1.389 -0.4661  0.4782 -0.1157
  272MOL0     C36589   3.511   5.819   1.368 -0.0794  0.3165  0.0681
  272MOL0     C36590   3.392   5.870   1.429  0.9695  0.5637  0.7191
  272MOL0     C36591   3.258   5.820   1.392 -0.4633  0.6311 -0.5914
  272MOL0     C36592   3.253   5.703   1.317  0.0949  0.3248  0.3053
  272MOL0     O36593   3.136   5.635   1.283 -0.3000  0.4314 -0.2893
  272MOL0     C36594   3.011   5.699   1.294  0.1909  0.3099  1.2319
  272MOL0     C36595   2.899   5.622   1.223 -0.9258 -0.2561  0.0188
  272MOL0     C36596   2.948   5.574   1.081  0.0194 -0.0827 -0.0412
  272MOL0     C36597   2.846   5.510   0.992  0.3052 -0.0164  0.6250
  272MOL0     C36598   2.892   5.446   0.865 -0.2931  0.6256 -0.0516
  272MOL0     C36599   2.774   5.403   0.781  0.5376  0.8569 -0.8336
  272MOL0     C36600   2.825   5.295   0.671  0.5949  0.2090  0.1011
  272MOL0     C36601   2.709   5.222   0.604  0.2252 -0.3785 -0.2686
  272MOL0     N36602   2.750   5.106   0.522  0.1569  0.1795  0.0485
  272MOL0     C36603   2.880   5.070   0.483 -0.2848  0.1435  0.4174
  272MOL0     C36604   2.874   4.958   0.414  0.1209 -0.7018 -0.7489
  272MOL0     C36605   2.993   4.871   0.385  0.5887  0.1846  0.2823
  272MOL0     C36606   2.997   4.833   0.249 -0.3595  0.7059  0.9449
  272MOL0     C36607   3.109   4.733   0.206 -0.1393  0.8650  1.1632
  272MOL0     C36608   3.249   4.796   0.187 -0.0913  0.0253 -0.3700
  272MOL0     O36609   3.326   4.781   0.311  0.1843 -0.1814  0.5742
  272MOL0     C36610   3.463   4.813   0.303 -0.2579 -0.3068 -0.0185
  272MOL0     C36611   3.546   4.825   0.185 -0.1373  0.2826  0.0756
  272MOL0     C36612   3.681   4.863   0.186 -0.5118  0.6291  0.4592
  272MOL0     C36613   3.751   4.852   0.048 -1.1265 -0.5076 -1.3189
  272MOL0     C36614   3.735   4.911   0.303  0.2299 -1.1892 -0.8044
  272MOL0     C36615   3.860   4.973   0.314 -1.7774  0.5564  0.3598
  272MOL0     O36616   3.931   4.961   0.437  0.8842  0.2961  0.4846
  272MOL0     C36617   4.038   5.036   0.470  0.5516 -0.1415  0.8233
  272MOL0     C36618   4.042   5.069   0.608 -0.0228  0.4461  0.7164
  272MOL0     C36619   4.154   5.140   0.652 -0.1495  0.7213  0.2068
  272MOL0     C36620   4.269   5.144   0.568 -0.1656  0.6337  0.7011
  272MOL0     O36621   4.385   5.205   0.604 -0.3511 -0.1552  0.0349
  272MOL0     C36622   4.396   5.268   0.730 -0.2552  0.1003  0.2594
  272MOL0     C36623   4.533   5.333   0.736 -0.0311  1.1370 -0.2990
  272MOL0     C36624   4.570   5.458   0.657  0.5108 -0.5405  1.4070
  272MOL0     C36625   4.536   5.457   0.511  0.0827  0.1240 -0.3131
  272MOL0     C36626   4.581   5.571   0.423 -0.3528 -0.5202  0.3892
  272MOL0     C36627   4.498   5.698   0.447 -0.1354 -0.0051 -0.2092
  272MOL0     C36628   4.567   5.815   0.376  0.0146 -1.1630  0.8709
  272MOL0     C36629   4.517   5.817   0.229  0.3000  0.2247 -0.1589
  272MOL0    Cl36630   4.341   5.865   0.204 -0.3430 -0.1412 -0.2966
  272MOL0     C36631   4.266   5.100   0.434  0.1894 -0.1222  0.3425
  272MOL0     C36632   4.148   5.052   0.383  0.5997  0.2114 -0.2333
  272MOL0     O36633   3.887   5.051   0.223  0.8184  0.3787  0.0373
  272MOL0     C36634   3.658   4.907   0.425  0.2687  0.5332  1.1252
  272MOL0     C36635   3.528   4.851   0.414 -0.3030  0.1517 -1.3826
  272MOL0     N36636   2.737   4.922   0.408  0.0992  0.2802  0.1343
  272MOL0     N36637   2.668   5.014   0.476  0.2031 -0.6227  0.0085
  272MOL0     C36638   3.366   5.648   1.267 -0.1568 -0.3170 -0.4350
  272MOL0     C36639   3.494   5.698   1.296 -0.0585 -0.0933  0.9551
  272MOL0     C36640   3.838   5.878   1.505 -0.2910 -0.1508 -0.8999
  272MOL0     C36641   3.910   5.851   1.628 -0.8069 -0.2629 -0.6557
  272MOL0     C36642   4.040   5.898   1.644 -0.4627 -0.3993  0.1081
  272MOL0     C36643   4.111   5.964   1.551  0.7314  0.0826 -0.0342
  272MOL0     O36644   4.243   5.985   1.580 -0.2538 -0.1617 -0.5529
  272MOL0     C36645   4.327   6.022   1.469  0.3178 -0.3646 -0.0187
  272MOL0     C36646   4.466   6.070   1.519 -0.4601 -0.0753 -0.2077
  272MOL0     C36647   4.458   6.185   1.613 -0.3958 -0.7982 -0.6434
  272MOL0     C36648   4.441   6.316   1.546 -0.0306 -0.5303  0.5440
  272MOL0     C36649   4.451   6.424   1.653 -0.2541 -0.1459  0.2180
  272MOL0     C36650   4.454   6.515   1.735  0.0158  0.5180 -0.3069
  272MOL0     C36651   4.048   5.984   1.424 -0.0408 -0.5382  0.1218
  272MOL0     C36652   3.912   5.939   1.404 -0.1675 -0.0267 -0.4995
  272MOL0     H36653   3.384   5.954   1.498  1.0940  0.0231  1.4033
  272MOL0     H36654   3.170   5.859   1.442 -0.3761 -0.4070  0.4095
  272MOL0     H36655   2.991   5.707   1.401 -2.6066 -1.7266  0.9808
  272MOL0     H36656   3.030   5.789   1.236 -0.2009 -1.8000 -2.5437
  272MOL0     H36657   2.880   5.532   1.282  1.4318  1.7356  4.2303
  272MOL0     H36658   2.813   5.688   1.231 -1.6855 -1.1275 -0.7587
  272MOL0     H36659   2.993   5.654   1.022 -1.1956  0.4502 -0.2612
  272MOL0     H36660   3.025   5.502   1.111 -2.8107 -1.2193  5.8690
  272MOL0     H36661   2.794   5.431   1.046 -1.5365 -0.3341 -1.5084
  272MOL0     H36662   2.767   5.580   0.966  0.0965 -0.1398  0.9267
  272MOL0     H36663   2.951   5.519   0.809  2.3848 -1.7703 -0.5474
  272MOL0     H36664   2.959   5.367   0.898  0.3060  0.5939 -1.2829
  272MOL0     H36665   2.693   5.362   0.842  0.8009 -0.3729 -1.2775
  272MOL0     H36666   2.741   5.487   0.720  2.7636  0.5944 -2.5514
  272MOL0     H36667   2.890   5.349   0.602 -1.1809  1.4334 -0.7211
  272MOL0     H36668   2.882   5.218   0.722 -1.5470 -1.3914  0.1999
  272MOL0     H36669   2.648   5.282   0.536  1.8735  2.6657  0.7450
  272MOL0     H36670   2.642   5.184   0.681 -0.0297  0.6394  0.0302
  272MOL0     H36671   2.968   5.125   0.516 -2.0460  2.1902  2.0372
  272MOL0     H36672   3.084   4.920   0.419  1.6286 -2.0635  0.9779
  272MOL0     H36673   2.975   4.791   0.457 -3.8357  0.1791 -0.5440
  272MOL0     H36674   3.009   4.927   0.193  2.4612  0.2535  0.6452
  272MOL0     H36675   2.898   4.795   0.225 -0.5563  0.4482  2.0955
  272MOL0     H36676   3.075   4.695   0.110 -0.6464  1.1650  1.2221
  272MOL0     H36677   3.107   4.656   0.283 -3.3539 -0.4635 -0.0920
  272MOL0     H36678   3.241   4.901   0.158  0.8963 -0.0043 -0.7916
  272MOL0     H36679   3.302   4.741   0.109  0.2333 -0.8237  0.4353
  272MOL0     H36680   3.497   4.798   0.093  2.2762 -0.2727 -1.1354
  272MOL0     H36681   3.704   4.912  -0.030 -0.0222 -1.1115 -2.4773
  272MOL0     H36682   3.856   4.883   0.049 -0.6525 -1.9786 -2.4688
  272MOL0     H36683   3.747   4.747   0.017 -1.3967 -1.0234  0.3540
  272MOL0     H36684   3.958   5.042   0.670 -0.0666  0.5466  0.7019
  272MOL0     H36685   4.151   5.169   0.757 -4.3566  3.5233 -0.4213
  272MOL0     H36686   4.330   5.354   0.741 -1.3503 -0.8672  1.6603
  272MOL0     H36687   4.379   5.206   0.819  1.1732  1.1551  1.3178
  272MOL0     H36688   4.560   5.357   0.839 -0.1431 -1.1662  0.3269
  272MOL0     H36689   4.604   5.252   0.716  2.6195  2.9585  1.1556
  272MOL0     H36690   4.678   5.475   0.672  0.3738  0.4505  1.3392
  272MOL0     H36691   4.518   5.543   0.701  0.9300  1.6098 -1.9226
  272MOL0     H36692   4.587   5.368   0.472 -2.0424 -1.4764  0.3787
  272MOL0     H36693   4.431   5.427   0.504  0.5763 -3.0884  2.8167
  272MOL0     H36694   4.551   5.553   0.319 -1.1028  0.4964  0.4225
  272MOL0     H36695   4.688   5.590   0.435 -0.2202 -0.9750 -0.0205
  272MOL0     H36696   4.390   5.690   0.427 -0.5080  1.0854  1.2132
  272MOL0     H36697   4.495   5.722   0.554 -1.4416  1.9658 -0.6298
  272MOL0     H36698   4.675   5.824   0.390  0.0554  2.2917 -0.7292
  272MOL0     H36699   4.524   5.907   0.415  1.1661  1.8587 -4.1134
  272MOL0     H36700   4.526   5.723   0.174  2.2170 -0.3970  1.0964
  272MOL0     H36701   4.571   5.890   0.169 -2.3419  0.7731 -2.0457
  272MOL0     H36702   4.356   5.112   0.375 -0.9892  1.8604 -1.1777
  272MOL0     H36703   4.156   5.018   0.280 -1.0918 -0.9743 -0.0074
  272MOL0     H36704   3.698   4.931   0.523 -1.8585  0.7436  1.9890
  272MOL0     H36705   3.473   4.848   0.508  3.7338  1.7903  1.3491
  272MOL0     H36706   3.360   5.554   1.214  2.3719 -1.1044  0.4967
  272MOL0     H36707   3.582   5.644   1.262  0.2666  2.1605 -2.3268
  272MOL0     H36708   3.884   5.789   1.714 -0.3499 -1.3549 -1.2783
  272MOL0     H36709   4.099   5.869   1.731 -1.2364 -1.9408  0.1582
  272MOL0     H36710   4.338   5.946   1.391  0.3820  0.5427 -0.9094
  272MOL0     H36711   4.277   6.108   1.423  1.7606  0.8003  0.5137
  272MOL0     H36712   4.516   6.088   1.424 -2.2399  0.2078 -1.1369
  272MOL0     H36713   4.512   5.984   1.568  1.0893  1.0064  0.3026
  272MOL0     H36714   4.550   6.194   1.673 -0.7593 -0.7574 -0.0885
  272MOL0     H36715   4.375   6.169   1.682  0.6255 -0.4506  0.7163
  272MOL0     H36716   4.345   6.316   1.493 -0.0703 -4.2508  0.3115
  272MOL0     H36717   4.514   6.328   1.465 -0.6929 -0.1145 -0.0064
  272MOL0     H36718   4.473   6.603   1.793 -1.9396  0.1067  1.0606
  272MOL0     H36719   4.099   6.028   1.338  0.6603 -1.0484  0.2716
  272MOL0     H36720   3.866   5.951   1.306 -1.1134  1.6212  0.1013
  273MOL0     O36721   4.506   9.545   0.740 -0.6396  0.0476  0.7524
  273MOL0     C36722   4.624   9.519   0.744 -0.9478 -0.0240 -0.7493
  273MOL0     O36723   4.675   9.406   0.781 -0.3785 -0.4858  0.2372
  273MOL0     C36724   4.597   9.294   0.811  0.6051 -0.9230 -0.0686
  273MOL0     C36725   4.480   9.279   0.889  0.2611 -0.3716  0.2169
  273MOL0     C36726   4.411   9.162   0.919 -0.1605  0.3110 -0.5820
  273MOL0     C36727   4.456   9.044   0.861  0.3215 -0.6637 -0.3421
  273MOL0     O36728   4.410   8.916   0.883 -0.4471 -0.2959 -0.9307
  273MOL0     C36729   4.302   8.899   0.981  0.0743  0.4587  0.0227
  273MOL0     C36730   4.260   8.748   0.976  0.1748 -0.5282  0.0834
  273MOL0     C36731   4.143   8.731   0.871  0.0410  0.0528  0.1924
  273MOL0     C36732   4.085   8.593   0.908 -0.3459  0.7925 -0.5132
  273MOL0     C36733   3.983   8.542   0.802  0.0544  0.2507  0.1337
  273MOL0     C36734   3.963   8.393   0.804  0.1914 -0.0271  0.4037
  273MOL0     C36735   3.850   8.340   0.710 -0.1247 -0.1514 -0.1811
  273MOL0     C36736   3.815   8.189   0.743 -0.8541  0.1308  0.2164
  273MOL0     N36737   3.911   8.109   0.668 -0.3753  0.1918  0.2982
  273MOL0     C36738   3.889   8.081   0.530 -0.9823 -0.0974 -0.4973
  273MOL0     C36739   4.000   8.017   0.493  0.3578  1.0262  0.1683
  273MOL0     C36740   4.033   7.946   0.358  1.3244  0.5534 -0.5946
  273MOL0     C36741   4.105   8.036   0.262  0.2569 -0.6615 -0.0613
  273MOL0     C36742   4.002   8.131   0.188  0.3688 -0.0577  0.7858
  273MOL0     C36743   4.039   8.166   0.039  0.7223  0.2931 -0.7220
  273MOL0     O36744   4.077   8.047  -0.026 -0.5886  1.8360  0.0863
  273MOL0     C36745   4.109   8.052  -0.164 -0.0816 -0.1548 -0.6012
  273MOL0     C36746   4.045   8.140  -0.256  0.5803  0.3801  0.5038
  273MOL0     C36747   4.065   8.147  -0.390  0.4560  0.1510  0.3600
  273MOL0     C36748   3.986   8.248  -0.466 -0.2140  0.0960  0.0549
  273MOL0     C36749   4.158   8.057  -0.452 -0.1377  0.0659 -0.7476
  273MOL0     C36750   4.195   8.050  -0.591  1.4857  0.5052 -0.2672
  273MOL0     O36751   4.271   7.933  -0.630 -0.6864  0.0252 -0.2473
  273MOL0     C36752   4.291   7.919  -0.768  1.0882  0.2515  0.5407
  273MOL0     C36753   4.174   7.897  -0.847  0.7008  0.3576 -1.2911
  273MOL0     C36754   4.180   7.888  -0.981 -0.2094  0.3319  0.4955
  273MOL0     C36755   4.305   7.891  -1.039 -0.1235 -0.2317  0.4190
  273MOL0     O36756   4.329   7.875  -1.179 -0.2594  0.6521 -0.4999
  273MOL0     C36757   4.220   7.861  -1.271 -0.6585 -0.9562  0.0790
  273MOL0     C36758   4.266   7.793  -1.402 -0.0595  0.3960 -0.7259
  273MOL0     C36759   4.387   7.859  -1.468  0.4280 -0.5818 -0.4113
  273MOL0     C36760   4.418   7.790  -1.598  0.7529  0.0840 -0.7218
  273MOL0     C36761   4.514   7.864  -1.679 -0.2742 -0.6565  0.5249
  273MOL0     C36762   4.661   7.832  -1.641  0.0039 -1.0294  0.0942
  273MOL0     C36763   4.728   7.726  -1.721  0.2285 -0.5347 -0.2196
  273MOL0     C36764   4.877   7.709  -1.690  0.0652  1.0699  0.0010
  273MOL0    Cl36765   4.884   7.657  -1.522 -0.3275 -0.1618 -0.1381
  273MOL0     C36766   4.422   7.920  -0.968 -0.1612 -0.2290  0.3450
  273MOL0     C36767   4.409   7.937  -0.834 -0.0502 -0.1405 -0.0671
  273MOL0     O36768   4.158   8.131  -0.672 -0.5948 -0.0755 -0.2189
  273MOL0     C36769   4.213   7.960  -0.361 -1.0144 -0.1134 -0.5594
  273MOL0     C36770   4.184   7.955  -0.225 -0.6884 -0.1543 -1.0136
  273MOL0     N36771   4.087   8.008   0.602 -0.1932  0.2860 -0.0356
  273MOL0     N36772   4.034   8.066   0.702 -0.3435 -1.1729  0.5486
  273MOL0     C36773   4.574   9.058   0.786 -0.0588  0.1058 -0.9992
  273MOL0     C36774   4.639   9.177   0.757 -0.0968 -0.4762  0.2432
  273MOL0     C36775   4.709   9.623   0.695 -0.6087 -0.5400 -0.2119
  273MOL0     C36776   4.844   9.611   0.698 -0.5854  0.1955 -0.0916
  273MOL0     C36777   4.929   9.710   0.652 -0.1630 -0.3741 -0.3389
  273MOL0     C36778   4.879   9.834   0.607  0.0957  0.2629  0.6231
  273MOL0     O36779   4.960   9.943   0.567 -0.0029 -0.4441  0.0312
  273MOL0     C36780   5.101   9.939   0.602 -0.0109 -0.0023  0.6614
  273MOL0     C36781   5.164  10.072   0.550  0.3988  0.4356  0.8839
  273MOL0     C36782   5.084  10.200   0.585  0.4042 -0.5349  0.0074
  273MOL0     C36783   5.163  10.334   0.567  0.7342  0.8307  0.1377
  273MOL0     C36784   5.081  10.447   0.573 -0.2639 -0.1035  0.7696
  273MOL0     C36785   5.016  10.554   0.559 -0.1715 -0.4461  0.3734
  273MOL0     C36786   4.745   9.845   0.585 -0.3507 -0.1764 -0.3986
  273MOL0     C36787   4.657   9.739   0.626 -0.3595 -0.1751 -1.1454
  273MOL0     H36788   4.458   9.371   0.942  2.6316  0.0665  0.5783
  273MOL0     H36789   4.327   9.167   0.988  0.2228 -0.5348 -0.0423
  273MOL0     H36790   4.338   8.920   1.082 -1.6596  1.0814  0.5417
  273MOL0     H36791   4.224   8.973   0.962  1.1065  1.3146 -1.0901
  273MOL0     H36792   4.343   8.680   0.959  3.0634  3.4442 -4.2364
  273MOL0     H36793   4.213   8.713   1.069 -1.9796 -2.4072 -1.5968
  273MOL0     H36794   4.063   8.805   0.874  0.1743  0.2307 -0.3826
  273MOL0     H36795   4.180   8.734   0.768  2.9217  2.2502  1.1489
  273MOL0     H36796   4.164   8.519   0.923 -1.9182 -0.4567  2.3996
  273MOL0     H36797   4.037   8.566   1.002 -1.0560 -4.1586 -1.9734
  273MOL0     H36798   3.889   8.590   0.830  0.0495 -0.2156  0.9754
  273MOL0     H36799   4.018   8.565   0.701 -1.1585 -2.3682 -0.9619
  273MOL0     H36800   4.055   8.345   0.770 -0.3043 -0.9527  0.3216
  273MOL0     H36801   3.953   8.359   0.908  2.5981 -0.8565  0.4239
  273MOL0     H36802   3.764   8.403   0.736 -0.8871 -0.7749 -1.1288
  273MOL0     H36803   3.883   8.355   0.607 -0.0559 -0.3489 -0.1880
  273MOL0     H36804   3.711   8.165   0.719 -1.4971  1.6196  1.3803
  273MOL0     H36805   3.829   8.180   0.851 -0.7711 -1.0329  0.1214
  273MOL0     H36806   3.796   8.117   0.487  1.2392  1.5880 -4.4142
  273MOL0     H36807   4.103   7.863   0.369  2.2706  1.2863 -1.0482
  273MOL0     H36808   3.948   7.893   0.313  0.7194 -0.7970  1.9011
  273MOL0     H36809   4.155   7.971   0.191  0.9814 -1.6572  1.3097
  273MOL0     H36810   4.173   8.107   0.310 -1.2349  0.2653  0.8021
  273MOL0     H36811   3.998   8.226   0.241 -2.8487  2.8431 -3.8948
  273MOL0     H36812   3.901   8.089   0.175  0.2939  1.0025 -4.9198
  273MOL0     H36813   4.127   8.231   0.028  1.0774 -0.5492 -3.3747
  273MOL0     H36814   3.953   8.214  -0.008 -0.3593  1.7537  2.4408
  273MOL0     H36815   3.961   8.202  -0.224  0.5386  1.5627 -1.7031
  273MOL0     H36816   4.046   8.336  -0.490  0.2694 -0.2617 -0.0515
  273MOL0     H36817   3.940   8.204  -0.555 -2.5643 -1.4216  1.8899
  273MOL0     H36818   3.903   8.294  -0.412 -0.5591  1.2562 -1.4122
  273MOL0     H36819   4.079   7.891  -0.794  1.8417 -0.9178  0.7631
  273MOL0     H36820   4.086   7.885  -1.036 -0.6489  0.1113  1.2443
  273MOL0     H36821   4.141   7.793  -1.238 -1.7069  0.3638  0.3693
  273MOL0     H36822   4.168   7.955  -1.293  0.3957 -0.5739 -0.8814
  273MOL0     H36823   4.286   7.686  -1.389 -3.2824  0.0232  3.2831
  273MOL0     H36824   4.175   7.791  -1.463 -2.3978  1.1807  2.5019
  273MOL0     H36825   4.475   7.853  -1.404  0.7581  0.6827 -0.7203
  273MOL0     H36826   4.361   7.964  -1.481  3.5326  0.4452  0.7696
  273MOL0     H36827   4.439   7.686  -1.575 -1.1172 -0.8628 -2.8388
  273MOL0     H36828   4.319   7.789  -1.646 -1.5123  2.7524  3.2871
  273MOL0     H36829   4.499   7.972  -1.694  1.0659 -0.3998  0.8743
  273MOL0     H36830   4.499   7.833  -1.783 -0.2418 -1.0155  0.6283
  273MOL0     H36831   4.725   7.914  -1.676  2.0146 -1.9765  1.3712
  273MOL0     H36832   4.669   7.827  -1.532  3.8244  0.5368  0.0583
  273MOL0     H36833   4.720   7.744  -1.829 -0.3861  2.9076  0.2857
  273MOL0     H36834   4.679   7.632  -1.693  3.0242 -0.9654  4.1909
  273MOL0     H36835   4.932   7.803  -1.704  2.3062  0.2330  2.2806
  273MOL0     H36836   4.914   7.635  -1.762  0.2849  2.9292 -1.8870
  273MOL0     H36837   4.509   7.949  -1.026 -0.2389 -0.0790  0.3055
  273MOL0     H36838   4.502   7.951  -0.780 -0.2008  0.1449  0.1178
  273MOL0     H36839   4.290   7.897  -0.404 -1.0260  0.8089 -1.9838
  273MOL0     H36840   4.245   7.887  -0.166 -1.6058 -1.0092 -1.0123
  273MOL0     H36841   4.615   8.974   0.731 -0.6386 -0.5177 -0.4918
  273MOL0     H36842   4.729   9.192   0.698  1.4095 -1.6092  2.1198
  273MOL0     H36843   4.886   9.516   0.729 -0.3921 -0.0129 -0.9775
  273MOL0     H36844   5.037   9.710   0.651  0.0746  4.9744 -0.0139
  273MOL0     H36845   5.106   9.927   0.711  1.9814 -0.5173  0.5611
  273MOL0     H36846   5.161   9.859   0.558 -0.4396  0.0049  0.0568
  273MOL0     H36847   5.167  10.060   0.441 -0.2802  0.5036  0.8571
  273MOL0     H36848   5.268  10.076   0.584  1.7459 -2.1281 -2.3423
  273MOL0     H36849   5.057  10.175   0.688 -0.0640 -0.2876 -0.0546
  273MOL0     H36850   5.001  10.207   0.513 -0.7516 -0.5573  1.3057
  273MOL0     H36851   5.217  10.328   0.472  1.4680 -1.0309  0.6396
  273MOL0     H36852   5.242  10.339   0.643  2.6156 -2.2799 -1.4457
  273MOL0     H36853   4.971  10.648   0.533  1.8947  0.5393  0.1471
  273MOL0     H36854   4.713   9.940   0.543  2.6557  0.9798 -0.2933
  273MOL0     H36855   4.551   9.742   0.604  0.0542  2.3084 -3.2962
  274MOL0     O36856  10.827  10.913   6.400  0.1316  0.7812  0.3081
  274MOL0     C36857  10.796  10.972   6.301  0.1661  0.0128  0.0993
  274MOL0     O36858  10.876  11.010   6.201 -0.4961 -0.2421  0.2199
  274MOL0     C36859  10.988  10.929   6.186 -0.0935  0.1884 -0.3368
  274MOL0     C36860  11.092  10.967   6.275 -0.1263  1.1604 -0.6062
  274MOL0     C36861  11.216  10.904   6.276 -0.0568  0.1599 -0.6898
  274MOL0     C36862  11.236  10.803   6.179  0.5944  0.3264  0.6232
  274MOL0     O36863  11.351  10.728   6.167  0.3388 -0.1126 -0.7055
  274MOL0     C36864  11.418  10.695   6.286 -0.1539 -0.3398  0.4362
  274MOL0     C36865  11.543  10.611   6.264 -0.2830 -0.2226 -0.2399
  274MOL0     C36866  11.596  10.556   6.400 -0.0041 -0.1310 -0.1124
  274MOL0     C36867  11.749  10.545   6.395  0.0896 -1.1343  0.3096
  274MOL0     C36868  11.812  10.474   6.511  0.2276 -0.2849  0.6336
  274MOL0     C36869  11.957  10.437   6.496  0.7351  0.3643 -0.5498
  274MOL0     C36870  12.023  10.407   6.632  0.6366  0.6838 -0.3237
  274MOL0     C36871  12.174  10.384   6.623 -0.1040 -0.2835  0.2502
  274MOL0     N36872  12.201  10.267   6.539 -0.4377  0.6565 -0.2503
  274MOL0     C36873  12.164  10.136   6.561 -0.2385  0.8276  0.5836
  274MOL0     C36874  12.230  10.062   6.464 -0.0876  0.4228 -0.9157
  274MOL0     C36875  12.242   9.902   6.465  0.1591  0.1569 -1.0197
  274MOL0     C36876  12.211   9.859   6.604  0.8182  0.2981 -0.9993
  274MOL0     C36877  12.229   9.709   6.613  0.0333 -0.7762 -1.1897
  274MOL0     C36878  12.198   9.661   6.754 -0.1061  0.5242 -0.5280
  274MOL0     O36879  12.233   9.743   6.864 -0.4823 -0.7446  0.2021
  274MOL0     C36880  12.133   9.752   6.956  0.0117 -0.2891  0.0645
  274MOL0     C36881  12.148   9.685   7.074  0.3738  0.7579 -0.6820
  274MOL0     C36882  12.040   9.692   7.173 -0.1673 -0.7391  0.4381
  274MOL0     C36883  12.056   9.600   7.297  0.4365 -0.0425  0.3629
  274MOL0     C36884  11.933   9.784   7.155 -0.7428  0.4733 -0.8804
  274MOL0     C36885  11.838   9.822   7.259  0.3725  0.1843  0.7069
  274MOL0     O36886  11.765   9.929   7.231  0.6685 -0.5792 -0.7213
  274MOL0     C36887  11.667   9.961   7.322 -0.0728 -0.1493  1.1686
  274MOL0     C36888  11.557   9.880   7.332 -0.2952 -0.1469  0.3867
  274MOL0     C36889  11.451   9.922   7.416 -0.3518  1.0208 -0.0795
  274MOL0     C36890  11.454  10.043   7.483  0.6942 -0.9320  0.1916
  274MOL0     O36891  11.366  10.081   7.579  0.9976 -0.3785 -0.2823
  274MOL0     C36892  11.241  10.021   7.589  1.2998  0.3635  0.3959
  274MOL0     C36893  11.243   9.921   7.706 -0.8044 -0.1613  1.3108
  274MOL0     C36894  11.113   9.834   7.711 -0.7699  0.3475  0.8632
  274MOL0     C36895  10.990   9.915   7.762 -0.0807 -1.2370  0.3331
  274MOL0     C36896  10.855   9.839   7.720 -0.4080 -0.3316 -0.3675
  274MOL0     C36897  10.729   9.931   7.729  0.7684 -0.1029 -0.0324
  274MOL0     C36898  10.706   9.998   7.867  0.3160 -0.8208 -0.1221
  274MOL0     C36899  10.574  10.037   7.919  0.7887 -0.3293  0.2040
  274MOL0    Cl36900  10.469   9.893   7.975  0.1878 -0.1656 -0.1142
  274MOL0     C36901  11.557  10.128   7.451 -0.5014 -0.6895  0.5796
  274MOL0     C36902  11.665  10.090   7.371 -0.1720  0.1556  0.4490
  274MOL0     O36903  11.835   9.759   7.359 -0.6508 -0.2910 -0.9985
  274MOL0     C36904  11.917   9.834   7.025  0.6462 -1.4772 -0.7141
  274MOL0     C36905  12.022   9.820   6.927 -1.1384  0.3734  0.4502
  274MOL0     N36906  12.308  10.151   6.392  0.5417  0.0838  0.0308
  274MOL0     N36907  12.282  10.270   6.428  0.1579  0.1391  0.2140
  274MOL0     C36908  11.130  10.766   6.085 -0.4858  0.4727  0.2689
  274MOL0     C36909  11.008  10.823   6.094 -0.8394 -0.3994  0.2350
  274MOL0     C36910  10.653  11.020   6.299  0.1941  1.1760  0.2742
  274MOL0     C36911  10.554  10.989   6.400 -0.7004  0.4930  0.0843
  274MOL0     C36912  10.417  10.999   6.374  0.2981 -0.1130 -0.0308
  274MOL0     C36913  10.371  11.046   6.253  0.0629 -0.7035  0.1331
  274MOL0     O36914  10.234  11.041   6.221 -0.5332 -0.9533 -0.0188
  274MOL0     C36915  10.148  10.965   6.307 -0.9445 -0.0766 -0.0703
  274MOL0     C36916  10.011  10.968   6.244  0.4170 -0.7974 -0.4453
  274MOL0     C36917   9.904  10.932   6.355  0.3419  0.2696 -1.4109
  274MOL0     C36918   9.899  11.035   6.467 -0.9461  0.4333 -0.0312
  274MOL0     C36919   9.866  11.173   6.426  0.8307  0.5101 -0.2833
  274MOL0     C36920   9.824  11.280   6.389  0.1952 -0.0441  0.0484
  274MOL0     C36921  10.466  11.081   6.154 -0.4390 -0.1042  0.5294
  274MOL0     C36922  10.604  11.079   6.176  0.4257  0.5513  0.0726
  274MOL0     H36923  11.078  11.049   6.345 -1.5921 -1.1970  2.0513
  274MOL0     H36924  11.299  10.919   6.344  0.6527  0.6115 -1.6311
  274MOL0     H36925  11.452  10.786   6.336 -1.4819  0.0615  0.6504
  274MOL0     H36926  11.358  10.639   6.359 -0.9681 -0.9746 -0.6820
  274MOL0     H36927  11.507  10.539   6.190 -0.8630 -0.4783  0.2779
  274MOL0     H36928  11.620  10.668   6.211 -1.9309  1.6220 -0.7905
  274MOL0     H36929  11.570  10.624   6.482 -1.3393 -1.4052  0.5764
  274MOL0     H36930  11.548  10.458   6.411 -1.2661 -0.0621 -3.6491
  274MOL0     H36931  11.791  10.489   6.311  0.7224  0.6737 -0.6255
  274MOL0     H36932  11.787  10.646   6.375  0.8115 -2.0350 -3.9500
  274MOL0     H36933  11.803  10.545   6.594  2.8887 -0.3556  1.0734
  274MOL0     H36934  11.758  10.381   6.529 -1.9402  0.7818 -0.0335
  274MOL0     H36935  11.966  10.345   6.437  0.3843 -0.0394  0.0176
  274MOL0     H36936  12.017  10.516   6.450 -3.2630  3.4332 -0.9986
  274MOL0     H36937  12.019  10.492   6.700 -1.0711  0.6163 -0.2973
  274MOL0     H36938  11.974  10.322   6.680 -0.5428  1.8656  0.6758
  274MOL0     H36939  12.211  10.367   6.724 -0.2769 -0.1043  0.3449
  274MOL0     H36940  12.226  10.471   6.582 -1.2387 -0.1899 -1.0848
  274MOL0     H36941  12.092  10.110   6.638  0.2629 -0.5843  0.6107
  274MOL0     H36942  12.192   9.847   6.385 -2.3696 -1.3638  1.4165
  274MOL0     H36943  12.349   9.878   6.463  0.4876  0.8258  2.2589
  274MOL0     H36944  12.111   9.880   6.643  0.9554  3.3226 -2.0003
  274MOL0     H36945  12.278   9.913   6.672 -2.1103  2.0977  0.6652
  274MOL0     H36946  12.323   9.669   6.574  1.1369 -1.3315  1.7541
  274MOL0     H36947  12.141   9.674   6.558 -3.6098  1.6334  2.4696
  274MOL0     H36948  12.246   9.564   6.770 -0.5870  0.4634  0.6287
  274MOL0     H36949  12.092   9.638   6.753  0.2764 -2.2562  3.0105
  274MOL0     H36950  12.238   9.626   7.078 -1.1273 -1.5675  1.4986
  274MOL0     H36951  12.072   9.655   7.390  0.3496 -1.2308  1.0896
  274MOL0     H36952  11.965   9.540   7.309  1.3991 -2.3006 -2.4607
  274MOL0     H36953  12.134   9.526   7.281  1.2096  1.0965 -1.5920
  274MOL0     H36954  11.548   9.784   7.283  0.0451 -0.9648  1.8821
  274MOL0     H36955  11.367   9.855   7.434  0.8938 -0.5071  0.3393
  274MOL0     H36956  11.157  10.091   7.596  2.4019  1.7842 -0.1286
  274MOL0     H36957  11.216   9.971   7.495 -1.2165  0.5280  0.8905
  274MOL0     H36958  11.335   9.863   7.702  0.2011  1.4236  0.0879
  274MOL0     H36959  11.259   9.981   7.797 -2.1152  1.0224  0.7949
  274MOL0     H36960  11.120   9.749   7.780  1.9424 -0.4599 -0.2620
  274MOL0     H36961  11.100   9.808   7.606 -0.8452 -1.5593  1.3015
  274MOL0     H36962  10.990   9.928   7.871 -1.1594 -0.7932  0.2899
  274MOL0     H36963  10.992  10.017   7.724  0.7758 -1.1761  0.5218
  274MOL0     H36964  10.838   9.749   7.780 -0.4346 -0.1822 -0.1512
  274MOL0     H36965  10.857   9.788   7.623  2.1571 -0.8002 -0.1408
  274MOL0     H36966  10.744  10.011   7.656  0.1648  1.1707  1.1773
  274MOL0     H36967  10.645   9.873   7.691  2.9164 -2.3984 -1.5600
  274MOL0     H36968  10.765  10.090   7.864 -1.0152  0.0836  0.4203
  274MOL0     H36969  10.745   9.929   7.942  0.8523 -2.8004 -2.1040
  274MOL0     H36970  10.525  10.090   7.836  1.6093 -0.9246 -0.6913
  274MOL0     H36971  10.586  10.103   8.005 -0.3053 -0.4107  0.4294
  274MOL0     H36972  11.549  10.230   7.486 -0.2949 -1.0900  1.8271
  274MOL0     H36973  11.744  10.159   7.342 -1.2336  0.9344 -0.6925
  274MOL0     H36974  11.826   9.885   6.998 -0.8245 -3.3678  0.4317
  274MOL0     H36975  12.012   9.853   6.824  1.3744 -2.4564 -0.8630
  274MOL0     H36976  11.139  10.674   6.027 -0.8109  0.8180 -0.3370
  274MOL0     H36977  10.928  10.800   6.025  0.9943  0.0058 -2.1409
  274MOL0     H36978  10.584  10.937   6.491 -1.0801 -0.6508 -0.4229
  274MOL0     H36979  10.360  10.964   6.459  0.2165 -0.4216 -0.2121
  274MOL0     H36980  10.183  10.861   6.309 -2.1283 -0.7941 -4.7200
  274MOL0     H36981  10.143  11.012   6.406 -3.8294  0.3547 -0.3450
  274MOL0     H36982  10.015  10.891   6.166  1.0139 -2.3145  1.0133
  274MOL0     H36983   9.994  11.067   6.201  1.6490 -1.2179 -2.0384
  274MOL0     H36984   9.937  10.838   6.400  1.5895  1.6028  0.5900
  274MOL0     H36985   9.812  10.920   6.297  1.4064 -1.2858 -2.8932
  274MOL0     H36986   9.987  11.036   6.532 -1.2770 -1.1960  0.4860
  274MOL0     H36987   9.810  11.007   6.525  0.9538 -2.3347  1.8224
  274MOL0     H36988   9.777  11.369   6.352 -1.2674  0.7162  3.3176
  274MOL0     H36989  10.420  11.117   6.063 -0.3773 -0.6189  0.2898
  274MOL0     H36990  10.680  11.113   6.106 -1.0964  1.2298 -1.2929
  275MOL0     O36991   5.445   6.626   5.084  0.1473 -0.4149  0.3961
  275MOL0     C36992   5.523   6.559   5.149 -0.3814 -0.0646 -0.4005
  275MOL0     O36993   5.490   6.454   5.243  0.9255  0.3900  0.2509
  275MOL0     C36994   5.371   6.383   5.233  1.1629 -0.1401  0.0073
  275MOL0     C36995   5.289   6.376   5.107  0.2546 -0.5056  0.3088
  275MOL0     C36996   5.170   6.313   5.114 -0.1451 -0.2576 -0.4572
  275MOL0     C36997   5.130   6.234   5.226  0.8066 -0.2429  0.1200
  275MOL0     O36998   5.003   6.183   5.205 -0.3071  0.0652 -0.4524
  275MOL0     C36999   4.959   6.055   5.268 -0.1653  0.3863 -0.2803
  275MOL0     C37000   4.825   6.007   5.234  0.1485  0.0829  0.6375
  275MOL0     C37001   4.712   6.096   5.297  0.9271  0.9933  0.4366
  275MOL0     C37002   4.580   6.053   5.220  0.2293  0.2709 -0.1872
  275MOL0     C37003   4.467   6.154   5.229 -0.0179  1.4949  0.2464
  275MOL0     C37004   4.416   6.170   5.369  0.1595 -0.5803  0.2743
  275MOL0     C37005   4.283   6.252   5.383 -0.1552 -0.1996 -0.6948
  275MOL0     C37006   4.242   6.287   5.528 -0.1755 -0.5232 -0.2342
  275MOL0     N37007   4.172   6.419   5.531  1.0537  0.7171 -0.2669
  275MOL0     C37008   4.235   6.539   5.555  0.1595  0.2819  0.2083
  275MOL0     C37009   4.142   6.629   5.579 -0.0795 -0.7071  0.1519
  275MOL0     C37010   4.162   6.777   5.602  0.4656 -0.8543 -0.0419
  275MOL0     C37011   4.309   6.840   5.586  0.0962  0.3677 -1.2382
  275MOL0     C37012   4.337   6.854   5.438 -0.3985 -0.0564  0.4718
  275MOL0     C37013   4.482   6.905   5.405  0.3420  1.0146 -0.5971
  275MOL0     O37014   4.492   6.893   5.259 -0.1068  0.0099  0.4867
  275MOL0     C37015   4.604   6.922   5.198 -1.1835 -0.5185 -0.0534
  275MOL0     C37016   4.610   6.908   5.061  0.1469  0.0671 -0.0624
  275MOL0     C37017   4.720   6.928   4.983 -0.7506  0.1701 -0.4563
  275MOL0     C37018   4.705   6.909   4.827 -0.1959  0.7933 -0.7371
  275MOL0     C37019   4.844   6.980   5.052 -0.0103 -0.4843 -0.2123
  275MOL0     C37020   4.974   7.010   4.995 -0.7310 -0.2009 -1.1689
  275MOL0     O37021   5.088   6.997   5.076 -0.1185 -0.1004 -0.1627
  275MOL0     C37022   5.217   7.033   5.027  0.3566 -0.5897  0.4819
  275MOL0     C37023   5.232   7.175   5.008  0.0216  0.8298 -0.6718
  275MOL0     C37024   5.357   7.225   4.965 -0.3297 -0.3641 -0.0028
  275MOL0     C37025   5.465   7.135   4.935 -0.8424  0.2755 -1.1836
  275MOL0     O37026   5.585   7.180   4.872  0.0787  0.3127 -0.8134
  275MOL0     C37027   5.657   7.288   4.929 -0.3328 -0.0608  0.6004
  275MOL0     C37028   5.740   7.356   4.825 -0.0969 -0.2302 -0.6251
  275MOL0     C37029   5.836   7.452   4.885  1.0340 -0.4243 -0.3769
  275MOL0     C37030   5.905   7.550   4.789  0.2826  0.3905  0.0916
  275MOL0     C37031   5.999   7.644   4.860 -0.3742  0.3037 -0.9388
  275MOL0     C37032   6.133   7.574   4.899  0.4903 -0.2250 -0.2738
  275MOL0     C37033   6.235   7.681   4.919  0.8356 -0.1927  0.0064
  275MOL0     C37034   6.346   7.661   4.818  0.2492  0.0669 -0.7201
  275MOL0    Cl37035   6.410   7.493   4.812 -0.3489 -0.3936 -0.1592
  275MOL0     C37036   5.440   6.993   4.957  0.5574  0.8845  0.2737
  275MOL0     C37037   5.317   6.948   5.011  0.0988  0.0089 -0.0461
  275MOL0     O37038   4.981   7.047   4.878  0.2003 -0.0600  0.4589
  275MOL0     C37039   4.835   6.993   5.190  0.4209  0.6347  0.3430
  275MOL0     C37040   4.720   6.958   5.265 -0.4017  0.1684  0.1251
  275MOL0     N37041   4.019   6.564   5.585 -0.7411 -0.3287  0.0690
  275MOL0     N37042   4.037   6.435   5.549 -0.1070 -0.4055  0.0601
  275MOL0     C37043   5.209   6.245   5.346  0.0957  0.6454  0.2255
  275MOL0     C37044   5.327   6.317   5.347 -0.3534 -0.6379  0.0740
  275MOL0     C37045   5.670   6.576   5.120  0.0622  0.2212  0.9730
  275MOL0     C37046   5.756   6.476   5.150  0.8187 -0.0877 -0.3614
  275MOL0     C37047   5.889   6.494   5.118 -0.4505  0.2622  0.2636
  275MOL0     C37048   5.950   6.612   5.069  0.6430  0.1241  0.6655
  275MOL0     O37049   6.074   6.625   5.023 -0.6958  1.0413  0.8919
  275MOL0     C37050   6.155   6.721   5.091 -0.3994  0.1446 -0.7517
  275MOL0     C37051   6.266   6.667   5.177 -0.4495  0.4050  0.2012
  275MOL0     C37052   6.219   6.600   5.306 -0.0733  0.3295 -0.1426
  275MOL0     C37053   6.340   6.529   5.371  0.0145  0.0996  0.2539
  275MOL0     C37054   6.361   6.393   5.318  0.2966  0.8613  0.7293
  275MOL0     C37055   6.379   6.276   5.290 -0.4582  0.0621  0.5392
  275MOL0     C37056   5.857   6.713   5.046 -0.6071  0.4516  0.3441
  275MOL0     C37057   5.720   6.698   5.065  0.8255 -0.3764 -0.1698
  275MOL0     H37058   5.323   6.435   5.023  0.6699  0.9994  1.4900
  275MOL0     H37059   5.115   6.292   5.022  0.3448 -0.5681 -0.6846
  275MOL0     H37060   5.036   5.984   5.234  1.7284  2.2785 -0.1862
  275MOL0     H37061   4.965   6.055   5.377  1.7110 -0.7920 -0.3266
  275MOL0     H37062   4.830   6.025   5.126 -0.0221  0.5215  0.7047
  275MOL0     H37063   4.808   5.899   5.244  1.8213 -1.1042 -5.1004
  275MOL0     H37064   4.710   6.087   5.406  0.4135 -2.5207  0.2349
  275MOL0     H37065   4.724   6.199   5.260  1.8577  0.9465  0.5998
  275MOL0     H37066   4.598   6.037   5.113 -1.7013  1.6125 -0.7620
  275MOL0     H37067   4.552   5.954   5.258  1.2972 -0.7542 -1.9128
  275MOL0     H37068   4.498   6.251   5.188  4.8266  0.8243  1.7251
  275MOL0     H37069   4.383   6.115   5.170  1.0027  0.5899 -0.6534
  275MOL0     H37070   4.409   6.074   5.420 -2.5408 -0.4740  0.2568
  275MOL0     H37071   4.498   6.222   5.419 -0.1047  1.0848 -0.9197
  275MOL0     H37072   4.295   6.348   5.333 -0.4330  0.1092 -0.1741
  275MOL0     H37073   4.193   6.213   5.334 -3.0670  2.5072  2.0636
  275MOL0     H37074   4.324   6.290   5.601 -0.6991 -2.8584  0.5293
  275MOL0     H37075   4.174   6.208   5.561 -1.2428  0.9722  1.3042
  275MOL0     H37076   4.340   6.566   5.555  0.8713 -1.8265  3.6970
  275MOL0     H37077   4.106   6.826   5.522  2.1100 -2.2094 -2.1137
  275MOL0     H37078   4.113   6.799   5.697 -4.0550 -3.0575 -1.5908
  275MOL0     H37079   4.387   6.783   5.637  3.1360  2.5867 -3.0781
  275MOL0     H37080   4.331   6.937   5.632 -0.6444 -0.3035  0.6610
  275MOL0     H37081   4.272   6.922   5.382 -3.5793 -4.5013 -1.7978
  275MOL0     H37082   4.325   6.754   5.394 -2.7667  0.2104  0.3988
  275MOL0     H37083   4.558   6.843   5.453 -0.8898 -1.1749 -1.3533
  275MOL0     H37084   4.486   7.002   5.456 -0.7143 -0.3217  2.2143
  275MOL0     H37085   4.519   6.864   5.020 -1.7223  4.4384 -1.2304
  275MOL0     H37086   4.640   6.823   4.808  0.4331  0.2903 -0.6228
  275MOL0     H37087   4.647   6.991   4.784 -2.6029 -0.5437 -0.2244
  275MOL0     H37088   4.800   6.904   4.774  0.5699 -2.0297  0.7334
  275MOL0     H37089   5.149   7.238   5.039  0.7252  1.6528 -0.4074
  275MOL0     H37090   5.376   7.331   4.953 -2.2408  0.9080  5.4748
  275MOL0     H37091   5.587   7.351   4.985 -0.8204  0.7014 -0.8200
  275MOL0     H37092   5.730   7.256   5.003  2.1148  1.1963 -1.1500
  275MOL0     H37093   5.800   7.282   4.772  0.9402  1.4576 -1.8978
  275MOL0     H37094   5.677   7.410   4.754  1.1511  2.2116  0.0357
  275MOL0     H37095   5.914   7.388   4.927  1.1008 -1.3261 -1.8164
  275MOL0     H37096   5.793   7.506   4.970  0.7741  0.8599 -1.2856
  275MOL0     H37097   5.968   7.498   4.716  1.2980 -0.6057  1.6323
  275MOL0     H37098   5.831   7.612   4.738 -1.1907  0.1584  1.8420
  275MOL0     H37099   5.951   7.687   4.948  0.0146  0.8169 -0.9726
  275MOL0     H37100   6.027   7.725   4.792  1.9546 -0.0972 -0.5544
  275MOL0     H37101   6.122   7.517   4.992 -2.1223 -2.1011 -1.6204
  275MOL0     H37102   6.165   7.500   4.826  0.1075 -2.8351  2.0436
  275MOL0     H37103   6.279   7.662   5.018 -0.6769  0.1122  0.7618
  275MOL0     H37104   6.193   7.781   4.908 -1.4671 -1.1455 -0.4641
  275MOL0     H37105   6.424   7.735   4.841 -2.1608  2.5590 -0.0550
  275MOL0     H37106   6.314   7.695   4.719  1.0676 -0.4818 -1.1795
  275MOL0     H37107   5.511   6.919   4.922 -0.8816  0.6059 -2.3296
  275MOL0     H37108   5.300   6.843   5.032 -3.8299  0.9029  2.2874
  275MOL0     H37109   4.927   7.025   5.238  2.3910 -2.4161 -1.0662
  275MOL0     H37110   4.719   6.957   5.374  1.6039  2.1996  0.2281
  275MOL0     H37111   5.199   6.186   5.437  2.3209 -1.1119 -0.5732
  275MOL0     H37112   5.389   6.323   5.436 -1.6011 -1.6296  1.0407
  275MOL0     H37113   5.720   6.388   5.202  0.4326 -0.0355 -0.5363
  275MOL0     H37114   5.963   6.416   5.130  0.5758  1.1897  0.0955
  275MOL0     H37115   6.200   6.785   5.015  4.3436  0.3749  1.8063
  275MOL0     H37116   6.093   6.784   5.155  0.6500  0.3207  0.1323
  275MOL0     H37117   6.322   6.753   5.213 -1.3942  1.7692 -1.4458
  275MOL0     H37118   6.333   6.609   5.113  0.6774  0.4702  1.2779
  275MOL0     H37119   6.129   6.542   5.286  0.8172 -2.2276  2.5414
  275MOL0     H37120   6.190   6.679   5.377 -0.7919  1.3158 -1.4709
  275MOL0     H37121   6.327   6.518   5.479  2.3861 -0.7495  0.5360
  275MOL0     H37122   6.433   6.585   5.354 -0.2435  0.5757  0.4215
  275MOL0     H37123   6.397   6.172   5.272  0.5796 -0.2441  2.9502
  275MOL0     H37124   5.888   6.813   5.018 -0.4231  0.6031  1.0544
  275MOL0     H37125   5.656   6.785   5.055  1.5877  0.6920  2.9729
  276MOL0     O37126   0.197   6.640   3.431  0.5636  0.1097  0.6168
  276MOL0     C37127   0.173   6.517   3.439  0.5896 -0.6344 -0.5984
  276MOL0     O37128   0.163   6.433   3.327  0.3780  0.2686 -0.3841
  276MOL0     C37129   0.179   6.496   3.201 -1.2725 -0.1160 -0.1033
  276MOL0     C37130   0.286   6.470   3.124  0.1047 -0.3371  0.6509
  276MOL0     C37131   0.301   6.530   2.998 -0.3656  0.1162 -0.6953
  276MOL0     C37132   0.194   6.600   2.941 -0.6238  0.4976  1.1710
  276MOL0     O37133   0.213   6.644   2.811  0.0348 -0.2441 -0.4162
  276MOL0     C37134   0.273   6.772   2.821  0.9633  0.0579 -0.2268
  276MOL0     C37135   0.211   6.871   2.726  0.6363 -0.2530  0.5858
  276MOL0     C37136   0.065   6.899   2.782 -0.5382  0.5151  0.4359
  276MOL0     C37137   0.009   7.007   2.686  0.4006  0.2458 -0.1332
  276MOL0     C37138  -0.115   7.072   2.751  0.0133  0.8115  0.3750
  276MOL0     C37139  -0.192   7.174   2.666 -0.9059  0.1216 -0.6694
  276MOL0     C37140  -0.274   7.271   2.750  0.4928 -0.0104 -0.1076
  276MOL0     C37141  -0.364   7.362   2.659  0.4059  0.5902  0.1380
  276MOL0     N37142  -0.291   7.398   2.531 -0.0482  0.9126 -0.0380
  276MOL0     C37143  -0.317   7.326   2.415 -0.2006 -0.3772 -0.7801
  276MOL0     C37144  -0.254   7.394   2.321 -0.6764 -0.8051  0.5345
  276MOL0     C37145  -0.277   7.345   2.182 -0.1068  0.2554  0.3648
  276MOL0     C37146  -0.140   7.285   2.134 -0.8695  0.2543  0.0906
  276MOL0     C37147  -0.147   7.246   1.984 -0.2840  0.6772 -0.3998
  276MOL0     C37148  -0.271   7.167   1.945  0.4534  0.6070 -0.2910
  276MOL0     O37149  -0.367   7.263   1.917 -0.3556 -0.6380  0.9925
  276MOL0     C37150  -0.494   7.218   1.869 -0.0203 -0.3210 -0.0330
  276MOL0     C37151  -0.569   7.313   1.794  0.1095  0.1326 -0.0946
  276MOL0     C37152  -0.705   7.277   1.765  0.0722 -0.4222 -0.1704
  276MOL0     C37153  -0.770   7.393   1.688  0.3529 -0.2330 -0.9063
  276MOL0     C37154  -0.757   7.149   1.803 -0.9263 -0.2414 -0.8047
  276MOL0     C37155  -0.886   7.091   1.752 -0.1659  0.2419 -0.1401
  276MOL0     O37156  -0.896   6.959   1.715 -0.3748 -0.0009 -0.4428
  276MOL0     C37157  -1.006   6.931   1.639  0.2836 -0.0794  1.4109
  276MOL0     C37158  -0.982   6.860   1.515  0.9303 -0.2231  0.0040
  276MOL0     C37159  -1.095   6.837   1.425  0.7034  0.8130 -0.0126
  276MOL0     C37160  -1.227   6.872   1.471 -0.6579  1.4021 -0.7729
  276MOL0     O37161  -1.339   6.829   1.402 -0.0894 -0.1948  0.2722
  276MOL0     C37162  -1.475   6.861   1.433 -0.5825 -0.0208  0.9943
  276MOL0     C37163  -1.575   6.754   1.393 -0.5494 -0.3715  0.1969
  276MOL0     C37164  -1.714   6.815   1.358 -0.5671 -0.4988  0.9543
  276MOL0     C37165  -1.798   6.701   1.315 -0.3321 -0.9790  0.3502
  276MOL0     C37166  -1.948   6.737   1.299  0.3991  0.7003  0.4345
  276MOL0     C37167  -2.022   6.617   1.241 -0.5264 -0.8104 -0.7852
  276MOL0     C37168  -2.172   6.644   1.209 -0.1039  0.2174 -0.4836
  276MOL0     C37169  -2.237   6.517   1.148 -0.3044  0.3522  0.1037
  276MOL0    Cl37170  -2.147   6.475   0.998 -0.2804  0.0426  0.5138
  276MOL0     C37171  -1.242   6.935   1.597 -0.3085  0.5933  1.3364
  276MOL0     C37172  -1.136   6.965   1.676  0.1620  0.7325 -0.0019
  276MOL0     O37173  -0.975   7.173   1.750 -0.0012  0.3044 -0.6954
  276MOL0     C37174  -0.677   7.064   1.880  0.2553 -0.0216 -0.9084
  276MOL0     C37175  -0.549   7.099   1.914  0.4959 -0.0308  0.7100
  276MOL0     N37176  -0.191   7.511   2.382  0.0639 -0.1791  0.2863
  276MOL0     N37177  -0.222   7.512   2.512  0.0036  0.4545  0.2644
  276MOL0     C37178   0.089   6.638   3.022  0.4925  0.9407 -0.7940
  276MOL0     C37179   0.082   6.575   3.140  1.0533  0.6316 -1.0234
  276MOL0     C37180   0.154   6.460   3.570 -0.3656  0.6310  0.5285
  276MOL0     C37181   0.123   6.537   3.678  0.7981 -0.3850 -0.0271
  276MOL0     C37182   0.075   6.476   3.797 -0.2187 -0.2253 -0.0380
  276MOL0     C37183   0.086   6.342   3.822  0.2747  0.9173  1.0253
  276MOL0     O37184   0.037   6.308   3.947 -0.1907  0.0068 -0.3708
  276MOL0     C37185   0.036   6.173   3.983  0.1083  0.2589  0.3871
  276MOL0     C37186   0.168   6.093   3.991  0.1104 -1.5372  0.6277
  276MOL0     C37187   0.255   6.128   4.113  0.4443 -0.0764  0.3313
  276MOL0     C37188   0.197   6.063   4.239  0.2174 -0.4854 -0.8987
  276MOL0     C37189   0.299   6.069   4.346  0.7624  0.2618  0.3076
  276MOL0     C37190   0.369   6.067   4.444  0.4335 -0.7016 -0.7722
  276MOL0     C37191   0.120   6.260   3.710  0.1675 -0.8012  0.2429
  276MOL0     C37192   0.157   6.317   3.588 -0.2965  0.9079  0.6381
  276MOL0     H37193   0.362   6.403   3.162  0.6567 -1.3994 -2.0700
  276MOL0     H37194   0.395   6.515   2.947 -0.9486 -4.1724 -0.9088
  276MOL0     H37195   0.273   6.804   2.926 -2.9882 -0.1549 -0.0127
  276MOL0     H37196   0.379   6.758   2.797  0.7867 -1.5235 -0.1773
  276MOL0     H37197   0.267   6.964   2.736 -0.8898  0.9964 -1.7094
  276MOL0     H37198   0.200   6.836   2.623 -2.3112  0.8566  0.4112
  276MOL0     H37199   0.006   6.807   2.778 -1.5970  0.8492  4.3347
  276MOL0     H37200   0.078   6.931   2.885 -0.7042 -3.2715  1.7806
  276MOL0     H37201   0.086   7.082   2.664  0.6310 -0.0755 -0.4316
  276MOL0     H37202  -0.020   6.970   2.587 -0.9883  0.7610  0.0602
  276MOL0     H37203  -0.177   6.989   2.787  0.5016  1.5596  3.1686
  276MOL0     H37204  -0.091   7.116   2.849 -0.2943  0.4395  0.6206
  276MOL0     H37205  -0.113   7.220   2.605  0.5079  0.5679  1.4007
  276MOL0     H37206  -0.261   7.131   2.594 -0.9219  2.4323 -2.1351
  276MOL0     H37207  -0.342   7.218   2.817 -1.4801  0.6492 -1.5022
  276MOL0     H37208  -0.209   7.332   2.814  0.5803  1.5643 -1.6215
  276MOL0     H37209  -0.392   7.453   2.713 -3.3867  0.7107 -1.7166
  276MOL0     H37210  -0.461   7.315   2.640 -1.0782  2.5101  2.4701
  276MOL0     H37211  -0.377   7.237   2.397  1.3242 -1.1791 -2.2590
  276MOL0     H37212  -0.362   7.276   2.189 -0.2910  0.6650  3.4372
  276MOL0     H37213  -0.310   7.432   2.125  2.1432  3.6632  3.7974
  276MOL0     H37214  -0.119   7.194   2.191  0.2164  0.2202 -0.3301
  276MOL0     H37215  -0.060   7.354   2.162 -2.8992  1.7097  2.6642
  276MOL0     H37216  -0.059   7.188   1.954 -0.9222  0.1966 -1.4293
  276MOL0     H37217  -0.153   7.334   1.919  2.0566  1.5409  0.4694
  276MOL0     H37218  -0.295   7.104   2.032 -2.5696  1.5997 -0.2966
  276MOL0     H37219  -0.235   7.114   1.856 -0.3948 -2.4898  1.0748
  276MOL0     H37220  -0.540   7.415   1.773  0.0231  0.1764 -0.0034
  276MOL0     H37221  -0.878   7.391   1.672  0.3975  0.3951 -1.3089
  276MOL0     H37222  -0.761   7.485   1.746  0.0363 -0.1331 -1.0095
  276MOL0     H37223  -0.721   7.407   1.592 -0.2645 -1.5917 -1.4451
  276MOL0     H37224  -0.887   6.827   1.472  1.1892 -0.9882  1.1082
  276MOL0     H37225  -1.084   6.789   1.328  1.9705 -0.0947  0.5424
  276MOL0     H37226  -1.493   6.890   1.537 -3.8962 -0.2260  0.5960
  276MOL0     H37227  -1.516   6.942   1.372 -4.9738 -0.4916  2.9696
  276MOL0     H37228  -1.541   6.685   1.314  1.1924 -0.4737  0.9891
  276MOL0     H37229  -1.597   6.686   1.476  2.9316  0.4531  1.9776
  276MOL0     H37230  -1.694   6.889   1.280 -1.2878  0.1172  1.3333
  276MOL0     H37231  -1.755   6.871   1.443 -1.5653  0.7988 -0.3446
  276MOL0     H37232  -1.752   6.667   1.222  1.6787  0.2505  0.8188
  276MOL0     H37233  -1.788   6.616   1.383  1.1181  1.0999  2.9108
  276MOL0     H37234  -1.956   6.828   1.239 -1.1319  1.6889  2.0445
  276MOL0     H37235  -1.989   6.757   1.398  0.0222 -1.3139  0.7160
  276MOL0     H37236  -1.968   6.583   1.152  0.1606 -0.9936 -0.3099
  276MOL0     H37237  -2.016   6.540   1.319 -1.0070  0.8321  0.9554
  276MOL0     H37238  -2.181   6.720   1.131  3.1970 -0.4735 -1.7017
  276MOL0     H37239  -2.219   6.675   1.303  2.6984 -0.6075  1.3029
  276MOL0     H37240  -2.343   6.532   1.126 -0.2282  0.4617 -0.1882
  276MOL0     H37241  -2.235   6.436   1.222 -0.3594 -1.0641 -1.3863
  276MOL0     H37242  -1.340   6.958   1.639 -1.2114 -0.6210 -0.0197
  276MOL0     H37243  -1.153   7.011   1.772  0.2916  0.4909  0.1384
  276MOL0     H37244  -0.711   6.964   1.902 -1.9428  1.4367  3.6091
  276MOL0     H37245  -0.497   7.030   1.980  3.6678  0.5110 -1.0459
  276MOL0     H37246   0.009   6.708   3.005  1.6253  2.5015  0.0329
  276MOL0     H37247  -0.007   6.604   3.196  1.0602 -0.3463 -0.4782
  276MOL0     H37248   0.120   6.645   3.674  0.9531 -0.3342 -4.4288
  276MOL0     H37249   0.024   6.531   3.875 -1.9806 -1.0033 -0.5805
  276MOL0     H37250  -0.018   6.185   4.078 -0.6269  0.8844 -0.0904
  276MOL0     H37251  -0.035   6.123   3.916  0.0456  1.1158 -0.1947
  276MOL0     H37252   0.224   6.113   3.899 -0.4832  0.8478  0.7326
  276MOL0     H37253   0.145   5.986   3.996 -2.1118 -1.1524 -0.3109
  276MOL0     H37254   0.275   6.234   4.130 -0.4437  0.2944 -0.7785
  276MOL0     H37255   0.347   6.073   4.092  0.7971  0.9015 -0.7951
  276MOL0     H37256   0.180   5.958   4.216  0.2949 -0.5503 -0.6608
  276MOL0     H37257   0.105   6.105   4.281  0.3051 -2.2228  1.1587
  276MOL0     H37258   0.418   6.050   4.538 -1.1615  0.0373  0.2476
  276MOL0     H37259   0.122   6.152   3.724 -0.2508 -0.5432  2.7363
  276MOL0     H37260   0.188   6.250   3.508 -1.1408  0.8148  0.3767
  277MOL0     O37261   9.791   2.487   8.006 -0.7083  0.1240  0.1428
  277MOL0     C37262   9.832   2.606   8.009 -0.4995  0.5625  0.1917
  277MOL0     O37263   9.788   2.699   8.099 -0.0236  0.3061  0.2267
  277MOL0     C37264   9.659   2.671   8.141  0.7445  0.1634 -1.2938
  277MOL0     C37265   9.566   2.765   8.100 -0.2064  0.4706  0.4721
  277MOL0     C37266   9.427   2.755   8.128 -0.6233 -0.0817 -0.5232
  277MOL0     C37267   9.382   2.650   8.208  0.1085  0.1192 -0.0753
  277MOL0     O37268   9.259   2.641   8.255  0.5151 -0.3640 -0.9889
  277MOL0     C37269   9.142   2.700   8.194  0.1126  1.2679  0.7118
  277MOL0     C37270   9.061   2.595   8.116  0.1083 -0.5876  0.0767
  277MOL0     C37271   8.979   2.505   8.214 -0.0704 -0.2449 -0.2525
  277MOL0     C37272   8.978   2.362   8.170  0.3280  0.3108 -0.0171
  277MOL0     C37273   8.908   2.281   8.280  0.3609  0.1068  0.5397
  277MOL0     C37274   8.914   2.127   8.248  0.0576 -0.1476  0.4180
  277MOL0     C37275   8.800   2.086   8.151 -1.8251  0.4829  0.1885
  277MOL0     C37276   8.655   2.102   8.201  0.3355 -0.0798  1.3194
  277MOL0     N37277   8.608   1.980   8.269 -0.7716  0.3884  0.1126
  277MOL0     C37278   8.598   1.961   8.402 -0.7008 -0.8487  0.4837
  277MOL0     C37279   8.543   1.837   8.423 -0.3206  0.1464 -0.4424
  277MOL0     C37280   8.495   1.778   8.558 -0.0564 -0.7564 -0.2095
  277MOL0     C37281   8.352   1.729   8.535  0.8950 -0.5224 -0.2903
  277MOL0     C37282   8.302   1.702   8.674 -0.1397  0.5049 -0.3242
  277MOL0     C37283   8.172   1.621   8.668  0.1432 -0.3739 -0.8148
  277MOL0     O37284   8.068   1.709   8.615 -0.0089  0.0995 -0.6363
  277MOL0     C37285   7.934   1.672   8.631 -0.2051  0.0111  0.3564
  277MOL0     C37286   7.889   1.559   8.689  0.5147  0.8077 -0.1686
  277MOL0     C37287   7.754   1.518   8.685 -0.2022  0.5059 -0.0040
  277MOL0     C37288   7.724   1.392   8.745  0.4183 -0.4563  0.2795
  277MOL0     C37289   7.651   1.608   8.631 -1.0171  0.1846 -0.2545
  277MOL0     C37290   7.502   1.586   8.616 -0.0848  0.8612 -0.1394
  277MOL0     O37291   7.425   1.693   8.578  0.3041 -0.2734 -0.3076
  277MOL0     C37292   7.287   1.669   8.587 -0.2988 -0.8048  0.7133
  277MOL0     C37293   7.234   1.689   8.711  0.8568 -0.4809 -0.5146
  277MOL0     C37294   7.102   1.656   8.737  0.2389 -0.4682  0.4578
  277MOL0     C37295   7.023   1.615   8.628 -0.1200 -0.1098 -0.0533
  277MOL0     O37296   6.884   1.616   8.641 -0.2795 -0.6677 -0.1406
  277MOL0     C37297   6.807   1.523   8.562 -0.1424 -0.3834 -0.4304
  277MOL0     C37298   6.707   1.595   8.473 -0.8482  1.2677  1.1596
  277MOL0     C37299   6.580   1.524   8.430  0.3063 -0.2754 -0.2154
  277MOL0     C37300   6.452   1.586   8.483  0.1248  0.3748 -0.5922
  277MOL0     C37301   6.324   1.529   8.419 -0.0410  0.6384 -0.7783
  277MOL0     C37302   6.301   1.553   8.274 -0.6484 -0.0619 -0.5809
  277MOL0     C37303   6.190   1.460   8.221  0.5806  0.5981  0.4136
  277MOL0     C37304   6.212   1.422   8.069 -0.7377 -0.1115 -0.3072
  277MOL0    Cl37305   6.359   1.302   8.057  0.2087 -0.3608 -0.1083
  277MOL0     C37306   7.081   1.602   8.492  0.3261  0.4234 -0.3626
  277MOL0     C37307   7.216   1.621   8.480  0.7130 -0.1047 -0.2124
  277MOL0     O37308   7.454   1.476   8.648 -0.1883 -0.2221  0.5559
  277MOL0     C37309   7.701   1.730   8.579 -0.3261  0.4148 -0.4025
  277MOL0     C37310   7.838   1.761   8.581  1.4299  0.1246  0.1144
  277MOL0     N37311   8.534   1.777   8.298  0.5980 -0.1600  1.1141
  277MOL0     N37312   8.571   1.863   8.209  0.6899  0.1211  0.7194
  277MOL0     C37313   9.482   2.561   8.267  0.5886  0.6400  0.8470
  277MOL0     C37314   9.618   2.564   8.230 -0.5484  0.5229  0.3686
  277MOL0     C37315   9.942   2.656   7.921  0.0366  0.3963 -0.9427
  277MOL0     C37316   9.999   2.781   7.952  1.0909 -0.2816 -0.0856
  277MOL0     C37317  10.106   2.825   7.871 -0.2546  0.4807  0.1023
  277MOL0     C37318  10.159   2.753   7.770  0.2914 -0.4388  0.1104
  277MOL0     O37319  10.263   2.813   7.712 -0.5792 -0.8441  0.3389
  277MOL0     C37320  10.332   2.732   7.611  0.4508  1.0858  0.0992
  277MOL0     C37321  10.449   2.641   7.664  0.0705 -0.1191 -0.7605
  277MOL0     C37322  10.526   2.720   7.774  0.2020 -0.9217  0.4131
  277MOL0     C37323  10.628   2.824   7.716  0.4968  0.5432 -0.9140
  277MOL0     C37324  10.748   2.754   7.665 -1.4237 -0.1978 -0.4541
  277MOL0     C37325  10.853   2.704   7.623 -0.2949 -0.1161 -0.0310
  277MOL0     C37326  10.097   2.626   7.746 -0.8664 -0.6130  0.8362
  277MOL0     C37327   9.984   2.578   7.815  1.2514 -0.6092 -1.2186
  277MOL0     H37328   9.604   2.851   8.046  2.6391 -0.7432  0.3239
  277MOL0     H37329   9.359   2.826   8.082 -1.1762 -1.7033 -2.3523
  277MOL0     H37330   9.084   2.746   8.275  0.9686 -1.9487  3.3886
  277MOL0     H37331   9.179   2.776   8.125 -0.0727  0.5344 -0.2104
  277MOL0     H37332   8.989   2.655   8.060 -0.3831 -1.7860 -0.5919
  277MOL0     H37333   9.119   2.540   8.041 -0.7488  3.7368 -4.2345
  277MOL0     H37334   9.020   2.522   8.314 -0.1029 -0.2264 -0.2417
  277MOL0     H37335   8.876   2.539   8.232  0.7121  0.6881  3.3369
  277MOL0     H37336   8.928   2.345   8.075 -0.4100  0.5898  0.3159
  277MOL0     H37337   9.082   2.331   8.153  1.0101  2.1467  0.5530
  277MOL0     H37338   8.969   2.290   8.371 -1.4118  1.0553  1.6899
  277MOL0     H37339   8.810   2.321   8.310  0.9235 -0.0463  2.8082
  277MOL0     H37340   9.017   2.108   8.216 -0.6107 -0.3352 -1.8026
  277MOL0     H37341   8.896   2.069   8.340  0.1202  1.8592  1.7552
  277MOL0     H37342   8.814   2.148   8.062  1.1193  1.9427  1.5150
  277MOL0     H37343   8.831   1.985   8.123 -1.0809  0.8867 -0.5072
  277MOL0     H37344   8.589   2.120   8.116  3.3621 -0.0103 -1.2064
  277MOL0     H37345   8.638   2.189   8.265  1.9772  1.1714  0.1644
  277MOL0     H37346   8.622   2.025   8.486  3.5411 -0.1909 -0.9779
  277MOL0     H37347   8.564   1.699   8.590  3.1123  1.6348 -0.6951
  277MOL0     H37348   8.499   1.854   8.636 -1.1451 -2.1473  1.2745
  277MOL0     H37349   8.359   1.647   8.464  3.3872  1.8942 -3.0890
  277MOL0     H37350   8.288   1.808   8.494 -0.2819 -0.2191  1.9554
  277MOL0     H37351   8.286   1.793   8.734  0.7930  1.1132 -0.9628
  277MOL0     H37352   8.379   1.642   8.723 -0.3787 -1.0146 -1.7228
  277MOL0     H37353   8.153   1.575   8.766 -1.1268 -0.8898 -1.2785
  277MOL0     H37354   8.176   1.535   8.600  1.8335 -1.2399  0.3040
  277MOL0     H37355   7.970   1.497   8.726  0.5711  2.4583  2.7531
  277MOL0     H37356   7.732   1.310   8.673  4.0239  0.8161 -0.9963
  277MOL0     H37357   7.792   1.384   8.829 -1.5864  1.7687  2.2907
  277MOL0     H37358   7.627   1.400   8.795 -0.4452  0.5042 -1.4578
  277MOL0     H37359   7.294   1.741   8.785  0.6024 -0.0010 -0.6424
  277MOL0     H37360   7.058   1.679   8.834 -0.5883 -0.9371  0.2003
  277MOL0     H37361   6.873   1.465   8.498  2.0846 -0.0700  1.4500
  277MOL0     H37362   6.753   1.458   8.632  0.4360 -2.4495 -1.8309
  277MOL0     H37363   6.683   1.681   8.536  2.7906 -0.1106  4.9242
  277MOL0     H37364   6.756   1.631   8.383 -2.0879 -0.1838 -0.1462
  277MOL0     H37365   6.576   1.421   8.467 -1.4616  0.4871  1.9897
  277MOL0     H37366   6.576   1.528   8.321 -1.4606  1.2344 -0.1447
  277MOL0     H37367   6.451   1.572   8.591  3.9251  1.0301 -0.3159
  277MOL0     H37368   6.452   1.696   8.478  1.3738  0.4027 -0.3866
  277MOL0     H37369   6.237   1.557   8.479  0.2406 -0.7714  0.3430
  277MOL0     H37370   6.326   1.421   8.434  1.1967  0.6457 -0.7622
  277MOL0     H37371   6.267   1.657   8.265  0.6495  0.7288  2.4302
  277MOL0     H37372   6.391   1.546   8.213 -0.3787  1.0043 -0.3277
  277MOL0     H37373   6.089   1.501   8.226 -1.9280 -4.7315 -0.2196
  277MOL0     H37374   6.185   1.371   8.284 -0.5618  0.4361  0.1224
  277MOL0     H37375   6.239   1.510   8.009 -0.4390  0.4885  0.6704
  277MOL0     H37376   6.126   1.384   8.013 -3.3188  0.1317  3.1460
  277MOL0     H37377   7.021   1.599   8.402  1.9185  1.7854 -1.5510
  277MOL0     H37378   7.268   1.593   8.389  0.0956 -3.9932  0.4508
  277MOL0     H37379   7.636   1.811   8.550 -2.2322 -1.2991 -1.1587
  277MOL0     H37380   7.862   1.857   8.537  1.1541  0.8775  1.5404
  277MOL0     H37381   9.441   2.484   8.332 -0.3273  0.0426 -0.3778
  277MOL0     H37382   9.687   2.494   8.276  2.4849  3.1842  0.3218
  277MOL0     H37383   9.960   2.827   8.042 -0.8126 -0.5605 -0.7228
  277MOL0     H37384  10.158   2.917   7.892  1.4219  0.0864 -1.9996
  277MOL0     H37385  10.251   2.684   7.554 -2.2566  3.7422  1.3956
  277MOL0     H37386  10.378   2.792   7.532  3.6752 -2.8074 -1.3098
  277MOL0     H37387  10.521   2.633   7.583  0.1101 -1.5380 -0.5974
  277MOL0     H37388  10.417   2.542   7.698  1.0452  0.0539  0.7628
  277MOL0     H37389  10.590   2.642   7.818 -1.7301 -3.9753 -1.7571
  277MOL0     H37390  10.462   2.764   7.851 -1.5147  0.3500 -1.6274
  277MOL0     H37391  10.651   2.893   7.798 -1.4221  0.4385 -0.2488
  277MOL0     H37392  10.578   2.886   7.641 -0.0393  0.9457 -0.2351
  277MOL0     H37393  10.933   2.644   7.586  0.6504  0.4261  1.0680
  277MOL0     H37394  10.114   2.564   7.659  1.8883  0.8756  0.1606
  277MOL0     H37395   9.935   2.483   7.795 -1.5626  0.4778  0.0256
  278MOL0     O37396   3.027   5.270   3.083  0.0433  1.3081 -0.2586
  278MOL0     C37397   3.141   5.228   3.099 -0.1455  0.0572 -0.4278
  278MOL0     O37398   3.242   5.273   3.028 -0.2601 -0.5784 -0.8480
  278MOL0     C37399   3.227   5.362   2.920 -0.9012  1.2873 -0.0194
  278MOL0     C37400   3.340   5.436   2.892  0.3408 -0.2896 -0.0458
  278MOL0     C37401   3.348   5.537   2.804 -0.1799 -0.5227  0.1804
  278MOL0     C37402   3.228   5.577   2.736 -0.9458  0.0225 -0.2563
  278MOL0     O37403   3.218   5.685   2.651  0.2544  0.2344 -0.2651
  278MOL0     C37404   3.337   5.719   2.584 -0.1980  0.5126 -0.7192
  278MOL0     C37405   3.318   5.833   2.488  0.0317 -0.7749  0.1774
  278MOL0     C37406   3.286   5.964   2.554  0.9147  0.5712 -0.2405
  278MOL0     C37407   3.206   6.046   2.443 -0.5910 -0.9376 -0.2127
  278MOL0     C37408   3.209   6.201   2.486 -0.4489  0.2775 -0.2949
  278MOL0     C37409   3.085   6.221   2.575  0.2146  0.5024  0.5460
  278MOL0     C37410   3.060   6.371   2.616 -0.2376 -0.4722 -0.2260
  278MOL0     C37411   2.933   6.379   2.713 -0.2474 -0.6240 -0.1623
  278MOL0     N37412   2.966   6.358   2.854  0.1643  0.0022 -0.2473
  278MOL0     C37413   3.049   6.441   2.926 -0.9172 -0.1042 -0.5733
  278MOL0     C37414   3.079   6.366   3.028 -0.4066  0.9708  0.6874
  278MOL0     C37415   3.173   6.405   3.144 -0.0469  1.1616  0.2646
  278MOL0     C37416   3.114   6.378   3.290  1.1982  0.7386 -0.4059
  278MOL0     C37417   3.222   6.385   3.399  0.0903 -0.6807 -0.0456
  278MOL0     C37418   3.303   6.521   3.405 -0.1422 -0.6793  0.5337
  278MOL0     O37419   3.392   6.497   3.519 -0.3087 -0.6341 -0.3379
  278MOL0     C37420   3.387   6.576   3.631 -0.1014 -0.2675  0.3859
  278MOL0     C37421   3.452   6.530   3.749 -0.0377 -0.1163 -0.7557
  278MOL0     C37422   3.460   6.604   3.863 -0.4518 -0.5710 -1.0454
  278MOL0     C37423   3.516   6.544   3.994  0.1185 -0.2858  0.0357
  278MOL0     C37424   3.406   6.735   3.864 -0.0845 -0.1202  0.0815
  278MOL0     C37425   3.405   6.807   3.992 -0.2377 -0.2250 -0.8097
  278MOL0     O37426   3.514   6.860   4.054 -0.5883 -0.1229 -0.6884
  278MOL0     C37427   3.478   6.950   4.158 -0.2143 -0.2877  0.4479
  278MOL0     C37428   3.513   6.929   4.283 -0.2216  0.1241  0.1405
  278MOL0     C37429   3.467   7.017   4.386 -0.3429 -0.4994  1.8693
  278MOL0     C37430   3.378   7.126   4.350 -0.3079  1.7966  0.3150
  278MOL0     O37431   3.341   7.214   4.446  0.8176  0.8704  0.4521
  278MOL0     C37432   3.400   7.230   4.573 -0.3492  0.1307  0.0038
  278MOL0     C37433   3.426   7.378   4.608 -0.2179  0.0278  0.3843
  278MOL0     C37434   3.518   7.398   4.725  1.1321 -0.8465  0.8445
  278MOL0     C37435   3.486   7.342   4.859  0.2533  0.5630 -0.5147
  278MOL0     C37436   3.578   7.387   4.972 -0.0743 -0.9013  0.4849
  278MOL0     C37437   3.724   7.357   4.945 -0.4625 -0.7805 -0.6794
  278MOL0     C37438   3.812   7.378   5.073  0.0817  0.6684 -0.1035
  278MOL0     C37439   3.954   7.354   5.060 -0.7377 -0.2424 -0.0588
  278MOL0    Cl37440   3.972   7.196   4.989 -0.1696  0.2213 -0.0795
  278MOL0     C37441   3.351   7.144   4.222 -0.1680 -0.4533  0.3350
  278MOL0     C37442   3.399   7.062   4.129 -0.8779 -0.4831 -0.5282
  278MOL0     O37443   3.301   6.777   4.051 -1.4214  0.2571  0.2677
  278MOL0     C37444   3.343   6.784   3.747  0.0852 -0.3718  0.3887
  278MOL0     C37445   3.335   6.706   3.630  1.1647 -0.6564  0.1998
  278MOL0     N37446   3.024   6.243   3.014  0.1381 -0.0270  0.0026
  278MOL0     N37447   2.944   6.232   2.914 -0.5529  0.0918  0.0418
  278MOL0     C37448   3.111   5.504   2.765  0.1248  0.7521 -1.0044
  278MOL0     C37449   3.111   5.393   2.851  0.3821  0.2987  0.5950
  278MOL0     C37450   3.185   5.140   3.213  0.6068  0.4681 -0.1353
  278MOL0     C37451   3.116   5.026   3.235  0.0040  0.2502  0.2694
  278MOL0     C37452   3.156   4.922   3.320  0.2809  0.6348  1.0766
  278MOL0     C37453   3.274   4.939   3.397 -0.1397 -0.6813  0.1701
  278MOL0     O37454   3.334   4.849   3.477  0.5430 -0.1028 -0.1083
  278MOL0     C37455   3.274   4.721   3.484  0.5624  0.5306 -0.1118
  278MOL0     C37456   3.305   4.642   3.358 -0.1931  0.0244 -0.2506
  278MOL0     C37457   3.448   4.585   3.344  0.2532  0.3149 -0.0517
  278MOL0     C37458   3.556   4.685   3.389  0.5364  0.7236  0.4281
  278MOL0     C37459   3.681   4.626   3.334  0.1147 -0.2954  0.0255
  278MOL0     C37460   3.781   4.578   3.280  0.2617  0.3753 -0.3065
  278MOL0     C37461   3.346   5.059   3.382  0.4124 -0.2285 -0.2280
  278MOL0     C37462   3.294   5.163   3.296  0.4846 -0.2949 -0.3859
  278MOL0     H37463   3.436   5.427   2.942  1.2566 -0.3076 -1.7451
  278MOL0     H37464   3.440   5.593   2.813 -2.0597  2.4243  3.3681
  278MOL0     H37465   3.404   5.754   2.662 -3.2885  3.4822  0.8891
  278MOL0     H37466   3.382   5.633   2.533  0.6853  0.7733 -0.3912
  278MOL0     H37467   3.406   5.844   2.423 -0.7029  1.7846 -0.5026
  278MOL0     H37468   3.235   5.812   2.420 -0.1728  2.7634 -0.8657
  278MOL0     H37469   3.215   5.945   2.635 -0.3455  0.8087 -1.2483
  278MOL0     H37470   3.370   6.011   2.606  0.6485  0.1327  0.6049
  278MOL0     H37471   3.259   6.034   2.348 -0.3113 -0.3401 -0.1341
  278MOL0     H37472   3.110   5.996   2.423  1.0364 -3.5992 -2.1099
  278MOL0     H37473   3.292   6.229   2.551  0.1527 -0.6693 -0.6328
  278MOL0     H37474   3.205   6.272   2.403 -0.8165  0.0690 -0.4584
  278MOL0     H37475   2.998   6.183   2.522 -1.6243  1.7526  2.4795
  278MOL0     H37476   3.101   6.157   2.662  2.8592 -0.4764 -0.5703
  278MOL0     H37477   3.151   6.397   2.672 -0.3187 -0.7975  0.0567
  278MOL0     H37478   3.046   6.441   2.533 -1.8619  2.0345  1.9711
  278MOL0     H37479   2.859   6.300   2.697  1.3979 -3.0960  3.2531
  278MOL0     H37480   2.903   6.484   2.703 -1.8784 -0.9996  0.4106
  278MOL0     H37481   3.100   6.536   2.910 -1.2565  0.8068  2.9144
  278MOL0     H37482   3.268   6.352   3.130 -1.2132 -0.4070 -2.6156
  278MOL0     H37483   3.184   6.514   3.140 -0.6430  1.2039 -2.7577
  278MOL0     H37484   3.076   6.275   3.285 -1.9132  1.8510 -2.5817
  278MOL0     H37485   3.031   6.444   3.317 -0.1861 -0.9011 -0.4262
  278MOL0     H37486   3.297   6.308   3.382  0.3280 -0.9957  2.1516
  278MOL0     H37487   3.177   6.378   3.499 -0.6974  1.2897 -0.2054
  278MOL0     H37488   3.224   6.594   3.427 -0.3618  0.5705 -3.4994
  278MOL0     H37489   3.359   6.542   3.314  2.7075  0.8549  2.4753
  278MOL0     H37490   3.500   6.433   3.743 -1.1346 -0.6272 -1.5588
  278MOL0     H37491   3.583   6.619   4.038  2.4314 -0.0929 -3.3966
  278MOL0     H37492   3.436   6.520   4.065  1.1164 -2.8757  0.3754
  278MOL0     H37493   3.575   6.456   3.966  2.5649  0.5902  2.0691
  278MOL0     H37494   3.576   6.844   4.306  0.7068 -0.7452 -4.6946
  278MOL0     H37495   3.512   6.999   4.483 -0.3658  0.5855  2.0962
  278MOL0     H37496   3.339   7.185   4.652  1.7630 -0.7632  1.2261
  278MOL0     H37497   3.495   7.177   4.573 -0.1814  0.4252  0.3393
  278MOL0     H37498   3.459   7.415   4.510 -0.4079  2.8765  1.2973
  278MOL0     H37499   3.327   7.425   4.618  0.2183  1.2454 -0.6606
  278MOL0     H37500   3.535   7.503   4.748  0.5641 -0.9474  1.8118
  278MOL0     H37501   3.618   7.360   4.701  0.9585 -0.6338 -0.2614
  278MOL0     H37502   3.381   7.369   4.874  0.0557  0.0280 -0.8896
  278MOL0     H37503   3.489   7.233   4.852  1.2322  0.6694 -2.4929
  278MOL0     H37504   3.546   7.336   5.063  0.4898  1.6367  2.2351
  278MOL0     H37505   3.568   7.495   4.986  0.9310 -0.5424 -1.2579
  278MOL0     H37506   3.732   7.251   4.917  2.0702 -0.8104 -0.1173
  278MOL0     H37507   3.763   7.409   4.857  1.6896  1.8850  1.6638
  278MOL0     H37508   3.778   7.298   5.139  1.8896 -0.4954 -0.5207
  278MOL0     H37509   3.801   7.479   5.115 -3.6693 -0.2502  1.5620
  278MOL0     H37510   3.997   7.364   5.160 -0.3787 -1.9985 -0.0132
  278MOL0     H37511   3.994   7.440   5.005 -1.7943  0.4800  0.2752
  278MOL0     H37512   3.300   7.238   4.207 -2.1623 -0.7044  4.2521
  278MOL0     H37513   3.379   7.077   4.023  1.9400  0.1114 -1.0507
  278MOL0     H37514   3.312   6.887   3.728  0.2168 -0.3339  0.3827
  278MOL0     H37515   3.316   6.752   3.533  0.4621 -2.0019 -0.3245
  278MOL0     H37516   3.013   5.527   2.724 -0.3921 -4.3861 -3.4170
  278MOL0     H37517   3.018   5.341   2.870 -0.7806  1.6571 -1.1117
  278MOL0     H37518   3.027   5.010   3.174 -1.6011 -2.8279  3.0354
  278MOL0     H37519   3.085   4.839   3.318 -2.0755  2.4313  3.0853
  278MOL0     H37520   3.302   4.657   3.568  0.9219 -0.1446 -0.7392
  278MOL0     H37521   3.168   4.721   3.512  1.2159 -3.1579  3.0552
  278MOL0     H37522   3.284   4.686   3.260 -1.4283 -2.6857 -1.3006
  278MOL0     H37523   3.236   4.557   3.362 -1.9832  1.4543  1.1503
  278MOL0     H37524   3.462   4.558   3.239  1.5534  2.2547 -0.4339
  278MOL0     H37525   3.450   4.492   3.402 -0.3338  0.1178 -0.3389
  278MOL0     H37526   3.555   4.694   3.498  2.7280 -0.0898  0.5603
  278MOL0     H37527   3.547   4.783   3.342 -1.3304  0.6241  0.5206
  278MOL0     H37528   3.861   4.530   3.227  1.0762  0.0717  1.1434
  278MOL0     H37529   3.438   5.069   3.438 -0.1506  1.1284  0.5016
  278MOL0     H37530   3.341   5.260   3.287  1.0197 -0.6559 -1.8531
  279MOL0     O37531   3.213   8.809   1.889 -0.2015  0.1160 -0.4565
  279MOL0     C37532   3.319   8.761   1.925  0.4964 -0.6167 -0.6657
  279MOL0     O37533   3.353   8.721   2.050  0.3020  0.5255 -0.6874
  279MOL0     C37534   3.253   8.740   2.140  0.2688 -0.0742  0.3901
  279MOL0     C37535   3.116   8.720   2.120 -0.4968  0.5652 -0.3642
  279MOL0     C37536   3.032   8.741   2.227  0.7710  0.4978 -0.5626
  279MOL0     C37537   3.077   8.796   2.349 -1.1247 -0.1193  0.3543
  279MOL0     O37538   2.987   8.801   2.447 -0.2799  0.0092 -0.1470
  279MOL0     C37539   3.031   8.781   2.586  0.4759 -0.4142 -0.1891
  279MOL0     C37540   2.911   8.735   2.667  0.6051 -0.8170  0.5823
  279MOL0     C37541   2.828   8.864   2.721  1.0514  0.2843  1.1213
  279MOL0     C37542   2.683   8.816   2.725  0.3103 -0.4359  0.2108
  279MOL0     C37543   2.583   8.933   2.755  0.1940 -0.3174  0.2507
  279MOL0     C37544   2.577   8.977   2.902  0.1091 -0.8465 -0.2825
  279MOL0     C37545   2.484   9.094   2.920  0.5794 -0.2922  0.0400
  279MOL0     C37546   2.490   9.142   3.063  1.0146  0.2070 -0.0961
  279MOL0     N37547   2.396   9.252   3.097  0.3492 -0.2962  0.0518
  279MOL0     C37548   2.267   9.263   3.044 -0.1146 -1.5690  0.9157
  279MOL0     C37549   2.239   9.397   3.069 -0.5721 -0.4540 -0.6447
  279MOL0     C37550   2.115   9.461   3.020 -0.4160 -0.6198  0.3714
  279MOL0     C37551   2.107   9.501   2.871  0.3828  0.3651 -0.1681
  279MOL0     C37552   1.973   9.565   2.833 -0.8055 -0.4702 -0.9655
  279MOL0     C37553   1.949   9.587   2.681  0.0935 -0.0311 -0.8905
  279MOL0     O37554   2.020   9.697   2.632 -0.8830  0.6936  0.3590
  279MOL0     C37555   1.959   9.765   2.525  0.5697  0.1225  0.0152
  279MOL0     C37556   1.924   9.693   2.406  0.7619 -0.1535  0.3005
  279MOL0     C37557   1.855   9.753   2.305 -0.3398 -0.4064  0.2006
  279MOL0     C37558   1.838   9.683   2.169 -0.1612  0.4327 -0.1201
  279MOL0     C37559   1.832   9.890   2.313  0.2959 -0.3050  0.3673
  279MOL0     C37560   1.758   9.974   2.207  0.0577  0.3404 -0.9180
  279MOL0     O37561   1.788  10.105   2.202 -0.3446 -0.8955  0.0239
  279MOL0     C37562   1.699  10.188   2.138  0.0652  0.5394  1.0107
  279MOL0     C37563   1.658  10.182   2.002  0.6873  0.0506 -0.1428
  279MOL0     C37564   1.550  10.258   1.956 -0.1530 -0.0764  0.2050
  279MOL0     C37565   1.488  10.338   2.045  0.0245 -0.0370  0.6843
  279MOL0     O37566   1.382  10.406   1.984 -0.4799 -0.8319  0.2016
  279MOL0     C37567   1.289  10.489   2.053  0.5564 -0.2850 -0.3438
  279MOL0     C37568   1.330  10.633   2.047  0.5383 -0.4601 -0.2770
  279MOL0     C37569   1.255  10.714   2.151  0.2578 -0.2499 -0.6202
  279MOL0     C37570   1.314  10.849   2.161  0.1657  0.2789  0.5167
  279MOL0     C37571   1.269  10.924   2.291 -0.7833 -0.7904  0.0874
  279MOL0     C37572   1.373  11.020   2.324 -0.2703 -0.7447 -0.0092
  279MOL0     C37573   1.362  11.071   2.470 -1.0022 -0.5421  0.0970
  279MOL0     C37574   1.224  11.095   2.523 -0.2912 -0.0056  0.4060
  279MOL0    Cl37575   1.220  11.177   2.677 -0.7027 -0.1365 -0.3666
  279MOL0     C37576   1.527  10.351   2.178  0.1221  0.5285  0.1889
  279MOL0     C37577   1.631  10.273   2.229  0.6658  0.5900  0.0585
  279MOL0     O37578   1.662   9.924   2.144  0.4657 -0.0085 -1.1096
  279MOL0     C37579   1.877   9.960   2.423 -0.6591 -0.3278  0.1027
  279MOL0     C37580   1.922   9.898   2.540 -0.1601  0.1204 -0.1274
  279MOL0     N37581   2.353   9.463   3.118 -0.9600 -0.8253 -0.4397
  279MOL0     N37582   2.440   9.376   3.142  0.3694  1.0044  0.7007
  279MOL0     C37583   3.215   8.810   2.369 -0.2429 -0.0355  0.2671
  279MOL0     C37584   3.305   8.789   2.259  0.4033  0.0618 -0.5643
  279MOL0     C37585   3.410   8.741   1.812 -0.4566 -0.7781  0.6759
  279MOL0     C37586   3.531   8.680   1.848  0.1041  0.2958 -1.0337
  279MOL0     C37587   3.623   8.641   1.750  0.7148 -0.4111  0.6822
  279MOL0     C37588   3.591   8.655   1.614 -1.2019  0.0241 -0.6652
  279MOL0     O37589   3.686   8.603   1.529  0.3452  0.3642  0.2878
  279MOL0     C37590   3.648   8.610   1.392 -0.7088  0.3845 -0.3934
  279MOL0     C37591   3.749   8.543   1.311  0.1055 -0.2794  0.1413
  279MOL0     C37592   3.736   8.568   1.159  0.6070 -0.1466  0.3785
  279MOL0     C37593   3.617   8.505   1.085 -0.0030 -0.1186 -1.3606
  279MOL0     C37594   3.590   8.565   0.958 -1.6521  0.7341  0.4053
  279MOL0     C37595   3.550   8.603   0.853  0.0158  0.3380  0.0604
  279MOL0     C37596   3.472   8.723   1.581 -0.2921  0.8556  0.7620
  279MOL0     C37597   3.385   8.759   1.675  0.7648 -0.0547  0.7326
  279MOL0     H37598   3.077   8.686   2.024  0.1649  0.1634 -0.4973
  279MOL0     H37599   2.933   8.707   2.201  0.8498  0.8136 -1.2975
  279MOL0     H37600   3.105   8.701   2.594  2.3101  0.7513 -3.7436
  279MOL0     H37601   3.067   8.876   2.627 -1.9998  0.3284  0.4093
  279MOL0     H37602   2.852   8.664   2.609 -0.7959 -0.8288  1.9512
  279MOL0     H37603   2.936   8.686   2.762 -2.8816 -0.2685  1.9194
  279MOL0     H37604   2.862   8.899   2.819  0.7781  0.1104  1.2798
  279MOL0     H37605   2.841   8.944   2.647  0.9890 -0.8703 -0.1832
  279MOL0     H37606   2.653   8.767   2.633 -1.8082  1.5280 -0.2308
  279MOL0     H37607   2.678   8.745   2.808  2.3092  0.0710  0.8493
  279MOL0     H37608   2.605   9.018   2.690 -2.0228 -0.4644 -0.7818
  279MOL0     H37609   2.485   8.893   2.727 -0.7044 -0.6235  3.3764
  279MOL0     H37610   2.548   8.893   2.966  2.9140  0.2567  2.7032
  279MOL0     H37611   2.672   9.017   2.938 -1.4981  2.5617  0.5688
  279MOL0     H37612   2.502   9.179   2.853  0.1440  0.7297  1.1815
  279MOL0     H37613   2.386   9.054   2.892  0.4038  1.6188 -2.4258
  279MOL0     H37614   2.593   9.173   3.085  0.3591  1.9876  0.6136
  279MOL0     H37615   2.476   9.054   3.127  0.5936  0.2728 -0.0953
  279MOL0     H37616   2.207   9.186   2.997 -1.0439 -0.7605  0.7380
  279MOL0     H37617   2.034   9.388   3.024  0.4470 -1.9504 -3.1453
  279MOL0     H37618   2.094   9.545   3.087 -0.5630 -0.3964  0.0434
  279MOL0     H37619   2.111   9.408   2.812 -0.2608 -1.0162  1.8643
  279MOL0     H37620   2.188   9.567   2.841 -0.7251  0.6625 -2.8985
  279MOL0     H37621   1.964   9.659   2.888  1.3200 -1.5423  1.4324
  279MOL0     H37622   1.888   9.500   2.856 -0.6818 -0.2844  0.0851
  279MOL0     H37623   1.843   9.609   2.668 -0.1192  0.0255  0.8433
  279MOL0     H37624   1.972   9.492   2.630  0.7277  0.3746 -1.3884
  279MOL0     H37625   1.959   9.593   2.385 -0.8104 -0.6774  0.1072
  279MOL0     H37626   1.829   9.749   2.082 -1.0329  0.0206 -0.3592
  279MOL0     H37627   1.919   9.611   2.154  1.6959  1.8168  2.5106
  279MOL0     H37628   1.744   9.628   2.174 -0.4595  0.9425 -0.0135
  279MOL0     H37629   1.706  10.111   1.936 -2.3757 -2.1615 -0.2020
  279MOL0     H37630   1.516  10.241   1.855  1.4619  1.1636 -0.5918
  279MOL0     H37631   1.192  10.480   2.003  0.6687  0.2242 -0.6640
  279MOL0     H37632   1.276  10.453   2.155 -0.7391  2.3616  0.4890
  279MOL0     H37633   1.437  10.640   2.065  0.4953 -1.2711  0.3518
  279MOL0     H37634   1.312  10.669   1.945 -0.1686 -2.3605 -0.8673
  279MOL0     H37635   1.270  10.666   2.248 -0.4288 -1.5502 -1.1267
  279MOL0     H37636   1.151  10.724   2.117  0.5899  2.7638 -1.0426
  279MOL0     H37637   1.422  10.834   2.165  0.0427 -0.3644  3.0223
  279MOL0     H37638   1.285  10.905   2.072 -0.9140  0.0604  0.7174
  279MOL0     H37639   1.264  10.837   2.358  0.1749  1.3830  3.2555
  279MOL0     H37640   1.167  10.963   2.292  0.5209  3.0756 -0.7685
  279MOL0     H37641   1.475  10.980   2.321 -0.5071 -1.6693  2.1768
  279MOL0     H37642   1.366  11.107   2.258  0.2051 -0.4042  0.3803
  279MOL0     H37643   1.411  11.168   2.482  0.9476 -1.5362  0.5031
  279MOL0     H37644   1.418  11.003   2.535  1.0562 -0.4779 -1.5113
  279MOL0     H37645   1.177  10.996   2.535 -0.5919  0.2440  1.3355
  279MOL0     H37646   1.165  11.151   2.450  0.9977  1.2509  0.2971
  279MOL0     H37647   1.474  10.415   2.248  0.7567  0.3266  0.8712
  279MOL0     H37648   1.648  10.256   2.335  1.3321  3.1232  0.4410
  279MOL0     H37649   1.851  10.065   2.422 -1.8825 -0.5942 -1.6253
  279MOL0     H37650   1.966   9.952   2.624  3.7593 -0.5110 -1.5491
  279MOL0     H37651   3.263   8.839   2.462  0.8452  1.0029 -0.5822
  279MOL0     H37652   3.409   8.820   2.259 -0.0222  1.5642 -0.0522
  279MOL0     H37653   3.563   8.654   1.949 -3.0672 -0.3028 -0.0810
  279MOL0     H37654   3.721   8.610   1.783  0.3888 -0.8257  1.2738
  279MOL0     H37655   3.556   8.560   1.360  0.8136 -1.7097 -1.7634
  279MOL0     H37656   3.641   8.715   1.362 -2.0434 -0.1860 -2.2574
  279MOL0     H37657   3.756   8.436   1.332  0.3030  0.0297  1.7853
  279MOL0     H37658   3.845   8.577   1.351 -1.3101  0.5814  3.1060
  279MOL0     H37659   3.827   8.544   1.103  0.6955  2.7736 -0.9053
  279MOL0     H37660   3.733   8.677   1.152 -1.1105 -0.2405 -0.8564
  279MOL0     H37661   3.532   8.524   1.152  0.1311 -4.9084  0.5432
  279MOL0     H37662   3.633   8.398   1.075  1.3273  0.1185 -1.9092
  279MOL0     H37663   3.525   8.641   0.756  2.5532 -1.4476 -1.4355
  279MOL0     H37664   3.439   8.753   1.482 -1.9551  0.8695  1.2966
  279MOL0     H37665   3.296   8.811   1.639 -2.5610 -5.2590  0.3683
  280MOL0     O37666  10.910   7.408   9.339 -0.5056 -0.1001 -0.4338
  280MOL0     C37667  11.028   7.416   9.374 -0.2406  0.3555  0.8516
  280MOL0     O37668  11.078   7.408   9.497  0.8552  0.8485  0.1093
  280MOL0     C37669  10.988   7.391   9.599 -0.1879  0.0342  0.1339
  280MOL0     C37670  10.894   7.288   9.594 -0.4720  0.6561 -0.1632
  280MOL0     C37671  10.816   7.262   9.705  0.1361 -0.3863  0.2382
  280MOL0     C37672  10.822   7.348   9.809  0.3303  0.2159  0.5688
  280MOL0     O37673  10.732   7.315   9.902  0.2295 -0.3410 -0.1213
  280MOL0     C37674  10.599   7.371   9.888  0.3214 -0.5107  0.0078
  280MOL0     C37675  10.497   7.289   9.811 -0.3852  1.0563 -0.6930
  280MOL0     C37676  10.442   7.174   9.899 -0.6363 -0.5437 -0.3351
  280MOL0     C37677  10.358   7.085   9.809 -0.2250  0.0983  0.7274
  280MOL0     C37678  10.299   6.969   9.894  0.1133 -0.1238  0.5444
  280MOL0     C37679  10.175   7.021   9.968  0.5441  0.3091 -0.5366
  280MOL0     C37680  10.124   6.927  10.075 -0.0616  0.4384 -0.2104
  280MOL0     C37681   9.974   6.945  10.089  0.3377  0.1202 -0.3396
  280MOL0     N37682   9.898   6.868   9.993 -0.0278  0.0144 -1.0722
  280MOL0     C37683   9.873   6.730   9.997  0.2737  0.5558  0.3313
  280MOL0     C37684   9.826   6.698   9.871  0.3687  0.0362  0.2679
  280MOL0     C37685   9.768   6.569   9.809  0.0885 -0.3631  0.3362
  280MOL0     C37686   9.815   6.556   9.663  0.1885 -0.2498  0.4687
  280MOL0     C37687   9.841   6.419   9.613 -1.1487  0.5356  0.6241
  280MOL0     C37688   9.748   6.376   9.502 -0.3854  0.2138 -0.8114
  280MOL0     O37689   9.619   6.365   9.557 -0.6138 -0.6975 -0.2048
  280MOL0     C37690   9.518   6.382   9.464  0.9682 -0.9944  0.5882
  280MOL0     C37691   9.468   6.510   9.438  0.9181  0.9177 -0.1092
  280MOL0     C37692   9.343   6.523   9.358 -1.0171  0.4020  0.2382
  280MOL0     C37693   9.312   6.673   9.332 -0.4940  0.5253  0.5137
  280MOL0     C37694   9.278   6.407   9.313  0.1102  0.2717  0.7737
  280MOL0     C37695   9.155   6.405   9.221  0.1176  0.1328 -0.2566
  280MOL0     O37696   9.069   6.307   9.255 -0.2778  0.1767  0.1649
  280MOL0     C37697   8.984   6.275   9.160  0.9034  0.0576  0.5176
  280MOL0     C37698   8.847   6.270   9.194  0.0505  0.0049  0.3278
  280MOL0     C37699   8.745   6.240   9.102  0.6640  0.6048  0.4362
  280MOL0     C37700   8.777   6.207   8.969 -0.9018 -0.2579 -0.6406
  280MOL0     O37701   8.680   6.176   8.878  0.3645  0.5990  1.0539
  280MOL0     C37702   8.543   6.143   8.920 -0.6433  0.0479 -0.2233
  280MOL0     C37703   8.469   6.059   8.816 -0.0134  0.7966  0.3135
  280MOL0     C37704   8.468   5.910   8.841 -0.0024 -0.3377  0.1858
  280MOL0     C37705   8.403   5.821   8.735  0.4526  0.0545  0.3498
  280MOL0     C37706   8.389   5.678   8.779  0.1207 -0.3287  0.0915
  280MOL0     C37707   8.362   5.594   8.655  0.1585 -0.0564  0.0668
  280MOL0     C37708   8.318   5.452   8.705  0.5380 -0.0736  0.2139
  280MOL0     C37709   8.166   5.438   8.716 -0.0043 -0.2881 -1.0036
  280MOL0    Cl37710   8.132   5.294   8.825  0.4575 -0.1709  0.0253
  280MOL0     C37711   8.911   6.196   8.930  0.4060  0.2818 -0.5581
  280MOL0     C37712   9.015   6.226   9.030  0.7640 -0.7494  0.5368
  280MOL0     O37713   9.132   6.492   9.138  0.0774  0.8728 -0.2570
  280MOL0     C37714   9.338   6.280   9.347 -0.0107  0.9813  0.4501
  280MOL0     C37715   9.461   6.270   9.412  0.0653  0.5486  0.3428
  280MOL0     N37716   9.822   6.821   9.800  0.5824 -0.2681  0.1556
  280MOL0     N37717   9.869   6.914   9.872 -0.1833 -0.1108  0.7307
  280MOL0     C37718  10.917   7.451   9.818  0.2249  0.0973 -0.3637
  280MOL0     C37719  10.999   7.466   9.712 -0.3856  0.1743  0.6316
  280MOL0     C37720  11.123   7.411   9.267 -0.7798  0.6557  0.5258
  280MOL0     C37721  11.101   7.350   9.141  0.4457 -0.4803  0.6940
  280MOL0     C37722  11.190   7.364   9.037  0.4739  0.2895 -0.5835
  280MOL0     C37723  11.302   7.443   9.049  0.7210  0.2807  0.1012
  280MOL0     O37724  11.389   7.456   8.943 -0.2256  0.5809 -0.3766
  280MOL0     C37725  11.485   7.561   8.956 -0.4722 -0.1069  0.3188
  280MOL0     C37726  11.611   7.492   9.018 -0.6971 -0.4167 -0.7309
  280MOL0     C37727  11.699   7.444   8.900  1.3945  0.0952 -0.1363
  280MOL0     C37728  11.815   7.362   8.949 -0.2520 -0.4452 -0.9471
  280MOL0     C37729  11.774   7.225   9.004  0.6109  0.3214  0.1554
  280MOL0     C37730  11.740   7.124   9.058  0.1126 -0.1552  1.4797
  280MOL0     C37731  11.333   7.487   9.176 -0.7490 -0.1414 -0.4843
  280MOL0     C37732  11.247   7.471   9.284  0.6296  0.0076  0.9922
  280MOL0     H37733  10.884   7.217   9.513  0.1312 -0.2272  0.5165
  280MOL0     H37734  10.737   7.187   9.703 -1.4792  1.1846  1.4824
  280MOL0     H37735  10.559   7.392   9.987 -0.9633 -1.6421 -0.2468
  280MOL0     H37736  10.610   7.467   9.837 -1.0877  0.5481  1.5812
  280MOL0     H37737  10.418   7.362   9.790 -0.3075  1.8029  1.4330
  280MOL0     H37738  10.549   7.254   9.721  1.2255  1.9775 -0.1580
  280MOL0     H37739  10.531   7.124   9.939  0.0746  0.3521 -0.7647
  280MOL0     H37740  10.388   7.212   9.986  1.1248 -0.5561  0.8303
  280MOL0     H37741  10.285   7.136   9.746 -0.2478  3.6279  3.2980
  280MOL0     H37742  10.413   7.040   9.726 -1.6413  4.7724 -3.2471
  280MOL0     H37743  10.270   6.886   9.828 -0.1259 -0.5858  1.2246
  280MOL0     H37744  10.372   6.930   9.965  0.4134 -0.1842  0.2063
  280MOL0     H37745  10.197   7.114  10.021  1.4231 -1.1893  1.9001
  280MOL0     H37746  10.097   7.032   9.892 -0.7024  0.7426  0.7774
  280MOL0     H37747  10.143   6.822  10.056 -2.1659  0.3691 -2.4868
  280MOL0     H37748  10.175   6.957  10.167 -2.0043  0.8327  0.8075
  280MOL0     H37749   9.941   7.048  10.070 -0.4288  0.0325  0.4439
  280MOL0     H37750   9.951   6.926  10.194  0.4750 -1.3498 -0.5622
  280MOL0     H37751   9.884   6.663  10.082  1.1648  3.4129  2.6460
  280MOL0     H37752   9.803   6.490   9.875 -0.0301 -1.3982 -0.7949
  280MOL0     H37753   9.659   6.565   9.810  0.0772 -0.3906 -0.4012
  280MOL0     H37754   9.910   6.608   9.653 -1.3983  3.0181  1.1429
  280MOL0     H37755   9.739   6.604   9.600 -1.5392 -0.1764  2.4804
  280MOL0     H37756   9.835   6.352   9.699 -0.8246  1.4811  1.4060
  280MOL0     H37757   9.944   6.396   9.584 -0.9593 -0.1493  1.7889
  280MOL0     H37758   9.770   6.275   9.466  0.2506 -0.5581  1.5130
  280MOL0     H37759   9.761   6.437   9.412  1.2542 -0.7463 -1.2665
  280MOL0     H37760   9.506   6.609   9.458  2.8162  0.3737 -0.7948
  280MOL0     H37761   9.394   6.719   9.276 -1.3344 -0.5746 -1.7296
  280MOL0     H37762   9.221   6.685   9.273 -0.4838 -1.9324 -0.1105
  280MOL0     H37763   9.303   6.720   9.431  1.9770  0.0152  1.0508
  280MOL0     H37764   8.819   6.292   9.296 -1.7637 -0.2840 -0.0792
  280MOL0     H37765   8.645   6.235   9.143  0.6205 -2.7203  0.2097
  280MOL0     H37766   8.542   6.097   9.019  0.1513  2.3985  0.9564
  280MOL0     H37767   8.484   6.233   8.940 -2.5409 -1.5435  1.7548
  280MOL0     H37768   8.365   6.094   8.812 -0.2230  0.1627  0.1633
  280MOL0     H37769   8.523   6.077   8.722 -0.7634 -0.5410 -0.4017
  280MOL0     H37770   8.423   5.876   8.935  1.7097 -2.5834  0.2639
  280MOL0     H37771   8.572   5.880   8.850 -0.6257 -2.9344 -0.2521
  280MOL0     H37772   8.303   5.863   8.721  0.1637 -1.1318 -1.7196
  280MOL0     H37773   8.468   5.829   8.647  1.0511 -0.7569  0.7026
  280MOL0     H37774   8.310   5.676   8.854  2.1588  0.8847  2.3993
  280MOL0     H37775   8.476   5.655   8.841  0.9090  3.1938  0.5107
  280MOL0     H37776   8.285   5.638   8.591  0.6413  1.0447  0.2282
  280MOL0     H37777   8.449   5.589   8.589  0.1292 -1.0618  0.0858
  280MOL0     H37778   8.363   5.422   8.800  2.3502  0.4773 -0.4273
  280MOL0     H37779   8.352   5.379   8.631 -0.0708  0.4172 -0.5614
  280MOL0     H37780   8.122   5.429   8.616 -0.2526  2.3594 -1.1874
  280MOL0     H37781   8.125   5.535   8.744 -2.0586 -1.8282  1.7060
  280MOL0     H37782   8.940   6.157   8.833 -0.3653  0.0622 -0.7144
  280MOL0     H37783   9.119   6.221   8.998  0.4966  0.6644 -0.6640
  280MOL0     H37784   9.300   6.189   9.301 -0.5906  1.8599 -0.8797
  280MOL0     H37785   9.493   6.170   9.438 -3.6602 -0.6828  0.8138
  280MOL0     H37786  10.926   7.521   9.900  0.0510  0.9803 -1.0871
  280MOL0     H37787  11.066   7.552   9.710 -2.6996  2.1015 -1.2724
  280MOL0     H37788  11.024   7.276   9.123  0.1820 -0.0536  0.0014
  280MOL0     H37789  11.171   7.299   8.952  0.0009  0.2404 -0.4420
  280MOL0     H37790  11.521   7.603   8.862 -2.3105  1.4881  0.2819
  280MOL0     H37791  11.450   7.647   9.013 -3.1988 -1.3149  0.6227
  280MOL0     H37792  11.573   7.409   9.077  0.8327  1.0841  2.6877
  280MOL0     H37793  11.669   7.561   9.080 -0.4374 -0.7067 -0.6484
  280MOL0     H37794  11.738   7.533   8.849  1.7477 -0.7738 -1.4027
  280MOL0     H37795  11.645   7.377   8.832  0.4220  0.9301 -0.2182
  280MOL0     H37796  11.862   7.424   9.026 -1.0572 -1.5895  0.5159
  280MOL0     H37797  11.882   7.341   8.865  1.2627 -1.9440  0.5675
  280MOL0     H37798  11.717   7.027   9.097  0.1124 -0.4519  0.7562
  280MOL0     H37799  11.428   7.533   9.205  0.1143 -2.5082  0.6644
  280MOL0     H37800  11.282   7.521   9.374  1.8121  0.1468  0.4622
  281MOL0     O37801   0.997   9.073   7.868  0.3038  0.0198  1.4957
  281MOL0     C37802   0.920   9.155   7.820 -0.8692  0.6369  0.6476
  281MOL0     O37803   0.846   9.249   7.892 -0.1412  0.3442 -0.3695
  281MOL0     C37804   0.876   9.251   8.028 -0.2054  0.0730  0.7244
  281MOL0     C37805   0.841   9.152   8.117 -0.1157 -0.1812  0.1187
  281MOL0     C37806   0.884   9.168   8.252  0.1636 -1.1795  0.3811
  281MOL0     C37807   0.945   9.282   8.306 -0.5225  1.0789 -0.5996
  281MOL0     O37808   0.983   9.293   8.434  0.0637 -0.5918  0.4535
  281MOL0     C37809   0.979   9.182   8.523 -0.0727 -0.6839  0.1664
  281MOL0     C37810   1.027   9.223   8.659  1.1572  0.0726  0.2398
  281MOL0     C37811   1.008   9.119   8.765 -0.5745  0.5935  0.6681
  281MOL0     C37812   1.048   9.174   8.904  0.0876 -0.3441  0.1327
  281MOL0     C37813   1.086   9.071   9.008  0.3236 -1.0451  0.9159
  281MOL0     C37814   1.101   9.155   9.140  0.6993 -0.5545 -0.5879
  281MOL0     C37815   0.967   9.186   9.215 -0.7823  0.1807 -0.8814
  281MOL0     C37816   0.982   9.223   9.363 -0.2364  0.5355 -1.1430
  281MOL0     N37817   1.011   9.368   9.393 -0.2526 -0.0960 -0.9599
  281MOL0     C37818   1.121   9.431   9.439  0.2331  0.6892 -0.2740
  281MOL0     C37819   1.085   9.553   9.485  0.3256 -0.4781 -0.4586
  281MOL0     C37820   1.169   9.668   9.531  0.5642 -0.0524 -0.0380
  281MOL0     C37821   1.232   9.638   9.668 -0.0494  0.8665  0.7349
  281MOL0     C37822   1.145   9.560   9.766 -0.3823  0.0501  1.1836
  281MOL0     C37823   1.015   9.645   9.801  0.0066  0.0558  0.2310
  281MOL0     O37824   0.949   9.580   9.913  0.0432 -0.1033  0.2867
  281MOL0     C37825   0.877   9.463   9.894  0.7627 -0.4346 -0.0718
  281MOL0     C37826   0.835   9.395  10.009  0.4151  0.1372  0.6824
  281MOL0     C37827   0.768   9.273  10.008 -0.7086  0.3426  0.2162
  281MOL0     C37828   0.733   9.206  10.141 -0.7580 -0.7513  0.0838
  281MOL0     C37829   0.721   9.225   9.885  0.5373 -0.2285  0.5064
  281MOL0     C37830   0.635   9.102   9.863 -0.2985  0.4232  0.7759
  281MOL0     O37831   0.656   9.024   9.746 -0.0979  0.6684 -0.9891
  281MOL0     C37832   0.596   8.897   9.745  0.6363 -0.8202  0.4471
  281MOL0     C37833   0.599   8.806   9.849  0.2100 -0.2881 -0.4720
  281MOL0     C37834   0.555   8.674   9.833 -0.0616 -1.0548  0.4629
  281MOL0     C37835   0.505   8.630   9.707  0.2079 -0.1093 -0.2817
  281MOL0     O37836   0.477   8.495   9.703 -0.3606 -0.2061 -0.2091
  281MOL0     C37837   0.438   8.426   9.585  0.0053 -0.0518 -0.6533
  281MOL0     C37838   0.524   8.300   9.572  0.3084 -0.9960 -0.2473
  281MOL0     C37839   0.505   8.194   9.675  0.2018  0.9809  1.0295
  281MOL0     C37840   0.360   8.137   9.665 -0.2171  1.0446  0.3140
  281MOL0     C37841   0.340   8.029   9.778  0.0444  0.4348  0.6528
  281MOL0     C37842   0.431   7.908   9.765  0.0034  0.0354 -0.1825
  281MOL0     C37843   0.370   7.799   9.842  0.2888  0.2904  0.4788
  281MOL0     C37844   0.475   7.699   9.883 -0.3184 -0.3522  0.0214
  281MOL0    Cl37845   0.527   7.619   9.732  0.2736 -0.1143  0.1357
  281MOL0     C37846   0.501   8.717   9.601  0.6245 -0.6640  0.5422
  281MOL0     C37847   0.536   8.856   9.623 -0.7332  0.4785  0.9982
  281MOL0     O37848   0.543   9.082   9.942 -0.6677 -0.5942 -0.5942
  281MOL0     C37849   0.765   9.293   9.768  0.6557  0.2054 -0.5950
  281MOL0     C37850   0.833   9.417   9.773 -0.0101  0.0826 -0.2423
  281MOL0     N37851   0.949   9.566   9.465 -0.5780  0.0999  0.3442
  281MOL0     N37852   0.910   9.453   9.408  0.9411  0.5347 -0.7090
  281MOL0     C37853   0.974   9.384   8.214  0.2465 -0.0811  0.2151
  281MOL0     C37854   0.937   9.368   8.079 -0.3031 -0.5182  0.6282
  281MOL0     C37855   0.911   9.159   7.667  0.2107 -0.1280  0.0130
  281MOL0     C37856   0.974   9.059   7.589 -0.2542 -0.3069  0.9914
  281MOL0     C37857   0.974   9.066   7.452 -0.4517  0.7510  0.6470
  281MOL0     C37858   0.907   9.168   7.388 -0.6743  0.7257  0.6470
  281MOL0     O37859   0.914   9.160   7.248  0.2241  0.4158  0.1680
  281MOL0     C37860   0.880   9.264   7.154 -0.5629  0.2858  0.8420
  281MOL0     C37861   0.731   9.257   7.129 -0.5980  0.1878  0.7254
  281MOL0     C37862   0.711   9.293   6.975 -0.5846 -0.2020  0.2462
  281MOL0     C37863   0.570   9.260   6.940 -0.4471  0.0175  0.2348
  281MOL0     C37864   0.473   9.334   7.016  0.5065  0.7671  1.0964
  281MOL0     C37865   0.397   9.395   7.090 -0.3423  0.1602 -0.3123
  281MOL0     C37866   0.837   9.266   7.456 -0.0491 -0.3225 -0.3061
  281MOL0     C37867   0.845   9.266   7.598  0.9428 -0.6677 -0.6414
  281MOL0     H37868   0.795   9.062   8.077  0.2840 -0.1992 -0.3066
  281MOL0     H37869   0.873   9.075   8.308  3.1314 -1.3713  0.8369
  281MOL0     H37870   0.883   9.130   8.525  0.6886 -2.3249 -2.0705
  281MOL0     H37871   1.045   9.101   8.489  1.9556  0.7196  0.5909
  281MOL0     H37872   1.136   9.232   8.653  1.5400 -3.4055 -0.0393
  281MOL0     H37873   0.986   9.319   8.693  2.2037  0.7249 -0.2843
  281MOL0     H37874   0.905   9.083   8.762  0.1355 -2.2093  3.5471
  281MOL0     H37875   1.058   9.026   8.736 -2.4638  0.4485 -2.6023
  281MOL0     H37876   1.129   9.246   8.889  0.1295 -0.3327  0.4225
  281MOL0     H37877   0.964   9.234   8.941 -1.0120 -0.7895 -1.5117
  281MOL0     H37878   1.000   9.004   8.997 -2.5458  2.7403 -2.6800
  281MOL0     H37879   1.178   9.024   8.971  1.2467  0.4721  1.1685
  281MOL0     H37880   1.169   9.091   9.197  0.1448 -1.4454 -0.9076
  281MOL0     H37881   1.157   9.247   9.118  1.5266  0.0361  3.2926
  281MOL0     H37882   0.915   9.265   9.159 -0.8278  0.2382 -0.7609
  281MOL0     H37883   0.916   9.089   9.212 -0.0599 -0.1805 -2.4205
  281MOL0     H37884   1.058   9.164   9.414  1.8448  4.1347  0.2570
  281MOL0     H37885   0.884   9.196   9.405  0.3316 -0.1738 -0.2442
  281MOL0     H37886   1.224   9.398   9.429 -0.1595 -0.4740 -0.6484
  281MOL0     H37887   1.237   9.690   9.449 -3.5137  4.1095 -2.7788
  281MOL0     H37888   1.114   9.762   9.537 -0.6673 -0.7763  0.5836
  281MOL0     H37889   1.266   9.736   9.701 -0.2473  0.6515  1.6093
  281MOL0     H37890   1.321   9.574   9.667 -0.9609 -0.6072  3.5835
  281MOL0     H37891   1.206   9.551   9.856  0.6768 -1.6728  0.3334
  281MOL0     H37892   1.120   9.461   9.727  0.3868  0.4417 -0.3751
  281MOL0     H37893   0.947   9.653   9.716 -4.9326 -0.4131  3.7088
  281MOL0     H37894   1.037   9.745   9.838 -2.6645  0.6141  0.5260
  281MOL0     H37895   0.860   9.444  10.103  1.6125  2.0753 -0.5653
  281MOL0     H37896   0.639   9.244  10.182  0.0045  0.4977  0.7052
  281MOL0     H37897   0.730   9.097  10.125 -0.3996 -0.7565  0.0505
  281MOL0     H37898   0.814   9.225  10.211  0.0571 -0.2697 -0.9518
  281MOL0     H37899   0.635   8.840   9.946  2.5661 -1.2213 -0.9595
  281MOL0     H37900   0.559   8.612   9.921 -0.4648  0.8735  1.9094
  281MOL0     H37901   0.333   8.395   9.591 -1.7756  5.1390 -0.3462
  281MOL0     H37902   0.459   8.486   9.496  3.1541 -1.4389 -0.9624
  281MOL0     H37903   0.515   8.258   9.471 -1.4748 -1.3797  0.0413
  281MOL0     H37904   0.627   8.336   9.583  0.5280 -1.8584  0.6482
  281MOL0     H37905   0.523   8.242   9.772  0.1465  1.8303  0.6285
  281MOL0     H37906   0.577   8.113   9.661 -1.8969 -0.5468 -2.1202
  281MOL0     H37907   0.279   8.210   9.677  0.0661  1.3795  0.2150
  281MOL0     H37908   0.347   8.092   9.567  0.8468  1.6254 -0.1199
  281MOL0     H37909   0.236   7.995   9.772  0.1671 -0.6272  3.1574
  281MOL0     H37910   0.344   8.077   9.876 -0.3223  2.6445 -0.3491
  281MOL0     H37911   0.451   7.878   9.662  0.2904 -1.1711  0.2067
  281MOL0     H37912   0.527   7.930   9.814  0.2569 -0.9121 -0.2340
  281MOL0     H37913   0.288   7.749   9.790  0.9705 -1.4807  1.0232
  281MOL0     H37914   0.328   7.833   9.938 -2.2873  3.6262 -1.6238
  281MOL0     H37915   0.424   7.634   9.955  0.4098  0.7289  1.5717
  281MOL0     H37916   0.569   7.729   9.932  0.1488 -1.5142 -0.1227
  281MOL0     H37917   0.453   8.686   9.509 -0.2138  3.1074 -0.4728
  281MOL0     H37918   0.527   8.917   9.534 -0.5229 -0.9199 -0.0187
  281MOL0     H37919   0.740   9.262   9.667 -0.6272 -0.7809  0.0005
  281MOL0     H37920   0.859   9.462   9.677 -2.0054 -0.8998 -1.3101
  281MOL0     H37921   1.010   9.478   8.254 -3.0096  1.2199  0.3470
  281MOL0     H37922   0.962   9.451   8.013 -0.1947 -0.9782  0.0907
  281MOL0     H37923   1.023   8.974   7.637  0.1977 -1.3232 -1.1623
  281MOL0     H37924   1.018   8.980   7.404 -0.9976  0.3052  0.9242
  281MOL0     H37925   0.920   9.353   7.204 -2.0936 -0.6101  3.8997
  281MOL0     H37926   0.929   9.246   7.058 -0.6528 -1.9575  1.1824
  281MOL0     H37927   0.681   9.336   7.186 -3.5621 -0.0835 -1.2956
  281MOL0     H37928   0.699   9.161   7.171  1.9999 -0.0371  2.4316
  281MOL0     H37929   0.790   9.249   6.913 -0.9962 -0.8041  0.1324
  281MOL0     H37930   0.725   9.396   6.944  2.9049 -1.4234 -2.9685
  281MOL0     H37931   0.556   9.153   6.956  0.5625  0.0361  1.3770
  281MOL0     H37932   0.552   9.271   6.832  2.4595 -2.2348 -0.6170
  281MOL0     H37933   0.340   9.449   7.162  0.3730 -0.3269  0.6414
  281MOL0     H37934   0.784   9.345   7.404  1.7163 -0.8627 -3.1583
  281MOL0     H37935   0.814   9.354   7.652  1.3448 -1.0544  0.2313
  282MOL0     O37936   9.937   1.008   3.417  0.2863  0.2571 -0.6407
  282MOL0     C37937   9.867   1.061   3.334 -0.8103 -0.2353  0.6082
  282MOL0     O37938   9.736   1.103   3.350  0.0289 -0.0584  0.0640
  282MOL0     C37939   9.645   1.047   3.437  0.0827  0.1788 -0.8667
  282MOL0     C37940   9.661   0.935   3.515  0.6850  0.0343  0.3697
  282MOL0     C37941   9.560   0.898   3.607  0.0908 -0.3191  0.8234
  282MOL0     C37942   9.443   0.973   3.611 -1.1705  0.5565 -0.2611
  282MOL0     O37943   9.349   0.929   3.699  0.9670 -0.3989 -0.2252
  282MOL0     C37944   9.223   0.995   3.696 -0.0821  0.6543 -0.0837
  282MOL0     C37945   9.132   0.912   3.780  0.8534 -0.0763 -0.5726
  282MOL0     C37946   9.045   1.005   3.863 -0.1403 -0.0131 -0.3076
  282MOL0     C37947   8.952   1.101   3.784  1.2619  1.1474  1.1555
  282MOL0     C37948   8.838   1.026   3.724 -0.1582  0.3935 -0.2519
  282MOL0     C37949   8.724   1.091   3.647 -0.2333 -0.6926 -0.2255
  282MOL0     C37950   8.589   1.102   3.731 -1.2993  0.6617 -0.2270
  282MOL0     C37951   8.468   1.142   3.658 -0.3096  0.5844  0.6992
  282MOL0     N37952   8.462   1.275   3.618  0.2584  0.0807 -0.0690
  282MOL0     C37953   8.501   1.325   3.493  0.6798  0.1562 -0.0503
  282MOL0     C37954   8.438   1.446   3.494  0.0706 -0.0615 -0.1385
  282MOL0     C37955   8.437   1.535   3.380  0.3671  0.1177  0.0786
  282MOL0     C37956   8.335   1.469   3.271  0.5349  0.5199  0.3456
  282MOL0     C37957   8.190   1.464   3.314 -0.0245  0.3305 -0.2267
  282MOL0     C37958   8.101   1.389   3.217 -0.0097 -0.1505  0.1175
  282MOL0     O37959   8.169   1.305   3.123 -0.3191 -0.4108 -0.5506
  282MOL0     C37960   8.131   1.175   3.137  0.0296  0.3659  0.4182
  282MOL0     C37961   8.000   1.134   3.136  0.0261  0.5531 -0.1962
  282MOL0     C37962   7.967   0.996   3.140 -0.4404 -0.2066 -0.7124
  282MOL0     C37963   7.817   0.955   3.148 -0.5258  0.1276 -0.0363
  282MOL0     C37964   8.070   0.903   3.145 -0.5331  1.3484 -1.1190
  282MOL0     C37965   8.061   0.754   3.154  0.8352  0.4055  0.3451
  282MOL0     O37966   8.118   0.697   3.272 -0.8085  0.5144 -0.0410
  282MOL0     C37967   8.079   0.563   3.297  0.0440  0.0504  0.2255
  282MOL0     C37968   7.978   0.546   3.391  0.5797 -0.2691 -1.0868
  282MOL0     C37969   7.938   0.411   3.418  0.8257 -0.7745 -0.0299
  282MOL0     C37970   7.995   0.296   3.347 -0.4799 -0.6926  0.8811
  282MOL0     O37971   7.951   0.172   3.361  0.4207  0.3689  0.0107
  282MOL0     C37972   7.818   0.142   3.402 -0.2294 -0.1996  0.7793
  282MOL0     C37973   7.791  -0.014   3.367  0.1384 -0.1693  0.5946
  282MOL0     C37974   7.891  -0.100   3.444  0.1349  0.0799 -0.2921
  282MOL0     C37975   7.844  -0.249   3.429  0.9572  0.2184  0.0036
  282MOL0     C37976   7.943  -0.324   3.515  0.1713 -0.3374  0.6164
  282MOL0     C37977   7.899  -0.473   3.529 -0.2523  0.0319 -0.5653
  282MOL0     C37978   8.002  -0.544   3.618  0.7712  0.4623  0.0958
  282MOL0     C37979   7.943  -0.667   3.678  0.7447  0.3146 -0.4460
  282MOL0    Cl37980   7.893  -0.777   3.553 -0.3430  0.1700  0.0334
  282MOL0     C37981   8.102   0.323   3.260 -0.6666 -0.0662 -0.2133
  282MOL0     C37982   8.125   0.453   3.225 -0.0241  0.5473 -0.0828
  282MOL0     O37983   7.997   0.694   3.065  0.0832 -0.7434 -0.2114
  282MOL0     C37984   8.205   0.951   3.147 -0.2881  0.5973  0.0723
  282MOL0     C37985   8.232   1.085   3.134 -0.9947 -0.1827 -0.5220
  282MOL0     N37986   8.376   1.469   3.614 -0.0341  0.2384  0.0245
  282MOL0     N37987   8.398   1.367   3.687  0.3571  0.1614  0.9466
  282MOL0     C37988   9.420   1.081   3.521 -0.3793  0.4589 -0.6401
  282MOL0     C37989   9.525   1.115   3.434  0.3460  0.0534 -0.2924
  282MOL0     C37990   9.924   1.094   3.204  0.1764 -0.3924 -0.7413
  282MOL0     C37991   9.870   1.199   3.129  0.7739  0.4908 -0.1196
  282MOL0     C37992   9.949   1.242   3.013  1.4431  0.8369  0.3864
  282MOL0     C37993  10.068   1.181   2.967  0.4326 -0.1334 -0.3379
  282MOL0     O37994  10.127   1.221   2.848 -0.3283 -0.6910 -0.3447
  282MOL0     C37995  10.265   1.262   2.862 -0.2721 -0.5562  0.6971
  282MOL0     C37996  10.265   1.399   2.933 -0.2409  0.0088 -0.2599
  282MOL0     C37997  10.413   1.451   2.919 -0.5338  0.5948 -0.2474
  282MOL0     C37998  10.525   1.367   2.983 -0.2815  0.0649 -0.6994
  282MOL0     C37999  10.651   1.438   2.962  0.2429  0.6393  0.2634
  282MOL0     C38000  10.755   1.481   2.928 -1.0570 -0.2250  1.0193
  282MOL0     C38001  10.113   1.067   3.040 -0.4826  0.2419  0.5635
  282MOL0     C38002  10.045   1.036   3.162  0.7212 -0.5053  0.3292
  282MOL0     H38003   9.752   0.877   3.507  0.7918  0.4501 -2.2683
  282MOL0     H38004   9.581   0.816   3.675  0.2880 -1.3970 -0.5159
  282MOL0     H38005   9.233   1.095   3.739  0.6515 -0.5127  2.6658
  282MOL0     H38006   9.181   1.011   3.597  0.8796  0.0383 -0.6085
  282MOL0     H38007   9.079   0.835   3.723  0.3072 -1.1960  1.3224
  282MOL0     H38008   9.197   0.866   3.855  0.2690 -0.6046 -0.3788
  282MOL0     H38009   8.984   0.937   3.924  0.6604 -0.2651  0.2312
  282MOL0     H38010   9.100   1.067   3.935 -0.1177 -1.0909  0.6400
  282MOL0     H38011   8.903   1.176   3.847 -2.9762  0.3137 -0.7661
  282MOL0     H38012   9.006   1.148   3.701  1.2169 -0.8538 -0.0897
  282MOL0     H38013   8.885   0.947   3.665 -0.2853  0.6859 -0.7477
  282MOL0     H38014   8.795   0.977   3.812  0.7486  1.9288  1.1009
  282MOL0     H38015   8.754   1.195   3.633 -3.4797  0.7531  2.1844
  282MOL0     H38016   8.708   1.039   3.552 -0.0515 -1.7158  0.2819
  282MOL0     H38017   8.572   1.003   3.774  0.6196  0.1602 -0.5230
  282MOL0     H38018   8.599   1.167   3.818 -2.0134 -1.1569  1.2988
  282MOL0     H38019   8.383   1.123   3.724 -0.2547  0.7952  0.8293
  282MOL0     H38020   8.454   1.084   3.566  0.9582 -1.0352  1.4773
  282MOL0     H38021   8.558   1.282   3.412 -1.1736 -1.2700 -0.6685
  282MOL0     H38022   8.406   1.637   3.403  3.0602  1.7246 -2.6339
  282MOL0     H38023   8.540   1.546   3.345  1.0518 -0.9614  1.6426
  282MOL0     H38024   8.369   1.367   3.252 -0.1826  0.0508  1.4689
  282MOL0     H38025   8.336   1.528   3.179 -0.0649  3.4762  2.1309
  282MOL0     H38026   8.163   1.570   3.323  1.0983  0.7916 -1.7848
  282MOL0     H38027   8.175   1.416   3.411  0.0236 -0.7969 -0.7634
  282MOL0     H38028   8.044   1.453   3.148 -2.5142 -0.8854  1.3822
  282MOL0     H38029   8.028   1.347   3.286  4.0119 -1.4915  4.0072
  282MOL0     H38030   7.924   1.211   3.129  0.1493  0.6523 -0.4639
  282MOL0     H38031   7.787   0.931   3.251  0.9426 -2.5897 -0.1479
  282MOL0     H38032   7.752   1.030   3.102  0.9548  0.5379 -1.5535
  282MOL0     H38033   7.806   0.865   3.087 -3.0720 -0.8280  1.6362
  282MOL0     H38034   7.925   0.634   3.425  2.7803  0.7784 -0.1656
  282MOL0     H38035   7.854   0.377   3.479  1.4873 -2.0339  0.2224
  282MOL0     H38036   7.803   0.151   3.510 -0.2506  2.5650  0.6085
  282MOL0     H38037   7.744   0.205   3.352  1.3116  0.7179 -0.4232
  282MOL0     H38038   7.688  -0.028   3.399  0.5050 -1.4733  1.3091
  282MOL0     H38039   7.784  -0.037   3.260 -0.3160  0.3160  0.5200
  282MOL0     H38040   7.884  -0.086   3.553 -0.1016 -2.6234  0.1054
  282MOL0     H38041   7.989  -0.075   3.402 -0.0616  2.1664  0.3517
  282MOL0     H38042   7.749  -0.275   3.475  1.4744  0.7910  1.4524
  282MOL0     H38043   7.835  -0.290   3.328  0.6077 -1.9380  0.8548
  282MOL0     H38044   7.931  -0.286   3.617  1.0435 -1.7416  1.2674
  282MOL0     H38045   8.046  -0.312   3.481  0.4833 -3.1460  0.2870
  282MOL0     H38046   7.798  -0.481   3.570  0.2833 -0.5299  0.7025
  282MOL0     H38047   7.898  -0.528   3.435  0.4426 -2.1248  0.6231
  282MOL0     H38048   8.036  -0.483   3.702 -0.4277  1.5842 -0.2054
  282MOL0     H38049   8.084  -0.580   3.554 -0.9972 -2.0768 -0.9365
  282MOL0     H38050   7.858  -0.636   3.740  2.7803  3.5032  1.0360
  282MOL0     H38051   8.016  -0.713   3.744  1.8908  2.2940 -0.2429
  282MOL0     H38052   8.152   0.239   3.214  0.0486  0.2550 -0.0381
  282MOL0     H38053   8.192   0.465   3.141  0.6873  1.1797  0.5607
  282MOL0     H38054   8.280   0.880   3.181 -1.9551 -1.3381 -0.1127
  282MOL0     H38055   8.339   1.097   3.150 -0.8952 -0.3942 -1.0040
  282MOL0     H38056   9.337   1.151   3.534  1.3452  2.4572  0.2848
  282MOL0     H38057   9.519   1.199   3.367 -2.2786  0.1560 -0.0119
  282MOL0     H38058   9.775   1.247   3.151  2.0365  3.6119 -0.8818
  282MOL0     H38059   9.908   1.326   2.958  0.4555  1.0825  1.4782
  282MOL0     H38060  10.315   1.192   2.929 -0.2046  0.3609  1.6351
  282MOL0     H38061  10.327   1.268   2.772  1.8718 -2.9989  1.8607
  282MOL0     H38062  10.244   1.399   3.041  3.0802  3.7052  0.6134
  282MOL0     H38063  10.194   1.475   2.900 -0.8640 -1.9204 -3.9129
  282MOL0     H38064  10.419   1.547   2.970  2.7195  1.2672 -1.6311
  282MOL0     H38065  10.439   1.458   2.813  0.9937 -1.3560 -0.0645
  282MOL0     H38066  10.541   1.268   2.939 -2.5102  0.3357 -2.3055
  282MOL0     H38067  10.492   1.368   3.087  0.6023  1.6680 -0.4015
  282MOL0     H38068  10.850   1.527   2.910 -0.8291 -1.8484 -2.9951
  282MOL0     H38069  10.203   1.016   3.007 -0.7345 -1.1708  1.9503
  282MOL0     H38070  10.085   0.952   3.218  1.6888 -1.3783 -1.6103
  283MOL0     O38071   4.926   5.086   2.966 -0.0782  0.1780  0.1637
  283MOL0     C38072   4.909   5.166   2.881  0.1523 -0.2978  0.6114
  283MOL0     O38073   4.788   5.208   2.836 -0.1655 -0.1814 -0.0861
  283MOL0     C38074   4.685   5.178   2.912  0.8672 -1.1362  0.3238
  283MOL0     C38075   4.666   5.214   3.049  0.5588 -0.5440 -0.8807
  283MOL0     C38076   4.558   5.181   3.129 -0.1672 -0.0981  0.1013
  283MOL0     C38077   4.458   5.108   3.075  0.5867 -0.1174  0.0965
  283MOL0     O38078   4.361   5.069   3.162  0.5667 -0.4206 -0.0472
  283MOL0     C38079   4.226   5.023   3.116 -0.6021  0.0072 -0.4224
  283MOL0     C38080   4.130   5.047   3.228  1.1739 -0.4340 -0.5723
  283MOL0     C38081   3.990   4.995   3.218 -0.0279  0.1736 -0.5119
  283MOL0     C38082   3.910   5.069   3.115  0.1766 -0.2255 -0.2423
  283MOL0     C38083   3.768   5.015   3.119 -0.9855  0.0680 -0.2512
  283MOL0     C38084   3.669   5.081   3.025  0.3063 -0.2128 -1.1306
  283MOL0     C38085   3.544   4.990   2.998 -1.1742 -0.2372  0.2834
  283MOL0     C38086   3.575   4.871   2.915 -0.1679 -0.1068  0.1475
  283MOL0     N38087   3.452   4.801   2.886  0.6829  0.6765  0.5195
  283MOL0     C38088   3.398   4.712   2.972 -0.3064 -0.1376 -0.0924
  283MOL0     C38089   3.272   4.689   2.933  0.6255 -0.4266  0.7466
  283MOL0     C38090   3.169   4.593   2.996  0.2901  0.3767 -0.4284
  283MOL0     C38091   3.039   4.663   3.032 -1.4098 -0.0539 -0.1227
  283MOL0     C38092   2.966   4.576   3.134  0.1989 -0.5086 -0.7980
  283MOL0     C38093   2.820   4.625   3.159 -0.1476  0.3414  0.1878
  283MOL0     O38094   2.802   4.757   3.204 -0.4913 -0.3189  0.7419
  283MOL0     C38095   2.674   4.809   3.212 -0.1948  0.1033  0.1437
  283MOL0     C38096   2.555   4.740   3.227 -0.5736  0.4853 -0.1869
  283MOL0     C38097   2.428   4.795   3.251  0.8440  1.0848  0.7142
  283MOL0     C38098   2.320   4.699   3.295 -0.3575  0.2324 -0.7712
  283MOL0     C38099   2.421   4.929   3.241  1.0577  0.0436  0.5729
  283MOL0     C38100   2.296   5.007   3.267 -0.0330  0.2094  0.0021
  283MOL0     O38101   2.248   5.077   3.155  0.3444 -0.1917 -0.3910
  283MOL0     C38102   2.113   5.117   3.139 -0.6061  0.5877 -0.5922
  283MOL0     C38103   2.004   5.057   3.196  0.2833  0.1839  0.5510
  283MOL0     C38104   1.868   5.094   3.164 -0.1611 -0.1938 -0.7718
  283MOL0     C38105   1.844   5.195   3.072  0.1471 -0.5633 -0.3875
  283MOL0     O38106   1.721   5.231   3.034  0.2904  0.0509 -0.1091
  283MOL0     C38107   1.611   5.136   3.048 -0.7195 -0.1363  0.2489
  283MOL0     C38108   1.490   5.187   2.985  0.0907  0.0516 -0.4301
  283MOL0     C38109   1.364   5.093   2.989  0.0021 -0.1311  0.5744
  283MOL0     C38110   1.312   5.074   3.124 -0.7581  0.5438 -0.7604
  283MOL0     C38111   1.211   4.952   3.136 -0.1459  0.4048 -0.3548
  283MOL0     C38112   1.173   4.928   3.286  0.1064 -0.9924 -0.0317
  283MOL0     C38113   1.089   4.803   3.307  0.1035 -0.4171  0.8705
  283MOL0     C38114   1.163   4.684   3.243 -0.5957 -0.1693 -0.9859
  283MOL0    Cl38115   1.114   4.657   3.077 -0.2945  0.2277  0.3553
  283MOL0     C38116   1.952   5.263   3.019 -1.2615 -0.5025 -0.3851
  283MOL0     C38117   2.082   5.222   3.048  0.7322 -0.3607  0.1485
  283MOL0     O38118   2.241   4.997   3.377  0.4764  0.4080 -0.1167
  283MOL0     C38119   2.538   4.999   3.217 -1.2005 -0.6574 -0.4580
  283MOL0     C38120   2.662   4.943   3.204 -0.2419 -0.1338  0.6536
  283MOL0     N38121   3.250   4.765   2.821 -0.8383  0.5056 -1.1213
  283MOL0     N38122   3.359   4.838   2.796  0.7987  0.7203 -0.5692
  283MOL0     C38123   4.468   5.067   2.942 -0.0688  0.4337  0.0472
  283MOL0     C38124   4.575   5.106   2.865 -0.8192  0.3623  0.5112
  283MOL0     C38125   5.031   5.232   2.829 -0.1101 -0.5349 -0.0208
  283MOL0     C38126   5.154   5.204   2.890 -0.3471  0.5584 -0.5577
  283MOL0     C38127   5.268   5.280   2.852  0.5397  0.7458 -0.4119
  283MOL0     C38128   5.258   5.367   2.743 -0.4720  0.4005 -0.5194
  283MOL0     O38129   5.366   5.440   2.692  0.3977  1.0696 -0.3471
  283MOL0     C38130   5.480   5.477   2.777  0.2576  0.3870  0.4775
  283MOL0     C38131   5.566   5.580   2.712  0.6918 -0.6143 -0.5694
  283MOL0     C38132   5.648   5.543   2.595  0.6472 -0.3393 -0.4277
  283MOL0     C38133   5.749   5.660   2.578 -1.1366 -0.0212  0.0052
  283MOL0     C38134   5.859   5.644   2.488  0.1044 -0.4323  0.0199
  283MOL0     C38135   5.952   5.633   2.407  0.1231 -0.3422 -0.3034
  283MOL0     C38136   5.136   5.384   2.674 -0.2937 -0.2077  0.8640
  283MOL0     C38137   5.023   5.318   2.712  0.7943 -0.1000 -0.5948
  283MOL0     H38138   4.745   5.269   3.099  0.0352 -0.6840  0.1238
  283MOL0     H38139   4.565   5.214   3.232  5.3610  1.8148 -0.5485
  283MOL0     H38140   4.196   5.089   3.034 -0.4765  1.2728  0.5197
  283MOL0     H38141   4.245   4.917   3.096 -0.1352 -0.3768  1.7887
  283MOL0     H38142   4.163   5.017   3.328  1.6679  1.4867 -0.1147
  283MOL0     H38143   4.135   5.156   3.232  0.7922 -0.4377  0.3740
  283MOL0     H38144   3.999   4.887   3.200  0.9994 -0.3931  2.7115
  283MOL0     H38145   3.942   4.999   3.316 -0.5300 -0.7458 -0.7071
  283MOL0     H38146   3.906   5.176   3.137  0.2273  0.0302 -1.4042
  283MOL0     H38147   3.960   5.046   3.020  3.1508 -0.8465  1.3498
  283MOL0     H38148   3.775   4.910   3.088  0.2400  0.4088 -1.2075
  283MOL0     H38149   3.723   5.031   3.217 -0.3320 -0.4088  0.1273
  283MOL0     H38150   3.640   5.178   3.065  0.3928  0.1006 -1.8178
  283MOL0     H38151   3.724   5.109   2.935  2.4307 -2.2074 -0.5654
  283MOL0     H38152   3.487   4.965   3.088 -0.5013 -3.1251  0.0048
  283MOL0     H38153   3.472   5.052   2.944  0.2775  2.1718  0.9326
  283MOL0     H38154   3.643   4.799   2.964  1.5440  1.7226  0.5877
  283MOL0     H38155   3.616   4.910   2.821 -1.0428  0.1452 -0.1311
  283MOL0     H38156   3.450   4.671   3.058 -0.9643 -2.5270 -0.7654
  283MOL0     H38157   3.158   4.512   2.923  0.4874 -0.8914  0.9070
  283MOL0     H38158   3.211   4.552   3.088  0.1468  0.9640 -0.0947
  283MOL0     H38159   2.986   4.676   2.937 -1.3762  0.9921 -0.0048
  283MOL0     H38160   3.056   4.764   3.069 -0.6468  1.1343 -3.3228
  283MOL0     H38161   3.013   4.596   3.230 -2.6463  1.1589  0.3505
  283MOL0     H38162   2.960   4.467   3.120 -1.4229 -0.5489 -0.0323
  283MOL0     H38163   2.782   4.550   3.230 -1.0517  0.3071 -0.3231
  283MOL0     H38164   2.766   4.614   3.065  1.1502  1.4998 -0.7256
  283MOL0     H38165   2.566   4.632   3.226 -0.4340  0.5020 -0.5473
  283MOL0     H38166   2.220   4.742   3.291 -0.4085  0.0446 -1.6278
  283MOL0     H38167   2.316   4.612   3.230 -0.8237  0.5769 -1.2076
  283MOL0     H38168   2.343   4.664   3.397  0.7895 -1.6841 -1.6304
  283MOL0     H38169   2.016   4.967   3.256 -1.0166 -0.3838  0.0160
  283MOL0     H38170   1.787   5.033   3.202 -0.8294  1.0876 -0.0709
  283MOL0     H38171   1.629   5.034   3.012  1.4039  0.3601 -0.2359
  283MOL0     H38172   1.594   5.123   3.155  0.5322  1.0050  0.6040
  283MOL0     H38173   1.478   5.284   3.034  7.4466  1.7463 -0.8554
  283MOL0     H38174   1.510   5.206   2.879 -2.7652  0.2926 -1.0118
  283MOL0     H38175   1.391   4.993   2.955  4.5238  0.7111  1.0274
  283MOL0     H38176   1.282   5.130   2.927  2.0469  3.7244 -0.2195
  283MOL0     H38177   1.400   5.047   3.182  1.5587 -0.9954 -4.6229
  283MOL0     H38178   1.280   5.171   3.163  2.8582  1.7763 -0.4748
  283MOL0     H38179   1.265   4.868   3.090 -0.9257 -1.1142  1.3769
  283MOL0     H38180   1.121   4.967   3.076  0.3344  0.0400 -1.1887
  283MOL0     H38181   1.269   4.910   3.335  1.1856  1.7241 -0.9345
  283MOL0     H38182   1.120   5.016   3.324  0.6362 -1.3309  1.5562
  283MOL0     H38183   0.997   4.825   3.253  0.5567 -0.2492  0.1552
  283MOL0     H38184   1.054   4.793   3.410 -2.3759 -1.2733  0.0272
  283MOL0     H38185   1.132   4.598   3.302 -0.3928 -0.9496 -2.0013
  283MOL0     H38186   1.271   4.698   3.254 -0.8745  0.0023  3.4687
  283MOL0     H38187   1.928   5.351   2.960  0.2626 -0.6688 -1.3170
  283MOL0     H38188   2.162   5.282   3.004  1.3242 -0.3140  1.2513
  283MOL0     H38189   2.530   5.106   3.199  1.3335 -0.6304 -1.9486
  283MOL0     H38190   2.747   5.007   3.181  0.6528 -2.5953 -3.8814
  283MOL0     H38191   4.404   4.986   2.906  1.9653 -1.6693  0.8891
  283MOL0     H38192   4.576   5.080   2.760 -1.5753  1.9630  0.0720
  283MOL0     H38193   5.171   5.129   2.967  1.4527 -0.2754 -1.7079
  283MOL0     H38194   5.359   5.256   2.906  0.2677  0.7978  0.0675
  283MOL0     H38195   5.444   5.512   2.875 -1.8836 -1.5672  0.4656
  283MOL0     H38196   5.533   5.383   2.791  0.0309  0.0322 -0.8970
  283MOL0     H38197   5.631   5.628   2.786 -1.4297  1.5503  0.0290
  283MOL0     H38198   5.502   5.665   2.683 -0.9633 -1.2884  0.8929
  283MOL0     H38199   5.578   5.537   2.511 -0.0907  0.6650  0.0963
  283MOL0     H38200   5.698   5.448   2.617  0.6203 -0.7786 -2.0997
  283MOL0     H38201   5.789   5.702   2.671 -1.0679  2.1423 -0.9360
  283MOL0     H38202   5.689   5.747   2.549 -2.1917 -0.6619  0.2262
  283MOL0     H38203   6.029   5.611   2.336  0.3486 -0.4580 -0.0247
  283MOL0     H38204   5.133   5.439   2.580 -1.0788 -1.7320 -0.0404
  283MOL0     H38205   4.928   5.321   2.659  0.0413  0.4559  0.7223
  284MOL0     O38206  10.030   4.233   0.116 -0.2435  0.0631  0.9230
  284MOL0     C38207  10.094   4.130   0.117 -0.0339 -0.0956  0.6153
  284MOL0     O38208  10.047   3.999   0.142 -0.0270 -0.8632 -0.0921
  284MOL0     C38209   9.907   3.997   0.148  0.0838 -0.4317  1.0987
  284MOL0     C38210   9.835   3.934   0.052 -1.2163  1.1987  1.3494
  284MOL0     C38211   9.698   3.939   0.046  0.8527  0.7461 -0.7328
  284MOL0     C38212   9.628   4.007   0.148 -0.2409  0.5120  0.1120
  284MOL0     O38213   9.491   4.002   0.130 -0.6605  0.4799  0.6404
  284MOL0     C38214   9.414   4.109   0.190  1.6585 -0.5614 -0.4099
  284MOL0     C38215   9.283   4.040   0.232  0.4968  0.3702 -0.2655
  284MOL0     C38216   9.300   3.952   0.359 -0.1111 -0.6267  0.2055
  284MOL0     C38217   9.187   3.854   0.384  1.0762 -0.2219  0.6602
  284MOL0     C38218   9.041   3.907   0.370 -0.4961 -0.2109 -0.6527
  284MOL0     C38219   8.936   3.809   0.430  0.0279  0.1133  0.5900
  284MOL0     C38220   8.801   3.856   0.470 -0.1770  0.6681  0.0975
  284MOL0     C38221   8.721   3.731   0.499  0.9233 -0.1447  0.7598
  284MOL0     N38222   8.740   3.702   0.638  0.0365  0.0650  0.1388
  284MOL0     C38223   8.679   3.762   0.744 -0.5692  0.5785  0.5893
  284MOL0     C38224   8.692   3.674   0.847 -0.0381  0.3566 -0.3204
  284MOL0     C38225   8.631   3.682   0.982 -0.2839 -1.1153 -0.1393
  284MOL0     C38226   8.482   3.646   0.969  0.0473 -0.0948 -0.6473
  284MOL0     C38227   8.437   3.639   1.111  0.6989 -0.4101 -0.2548
  284MOL0     C38228   8.315   3.549   1.135 -0.7526 -0.3595  0.5780
  284MOL0     O38229   8.290   3.559   1.273  0.8697  0.3385  0.1482
  284MOL0     C38230   8.164   3.558   1.320 -0.1606  0.5131  0.4549
  284MOL0     C38231   8.055   3.507   1.256 -0.5587  0.0906  0.6331
  284MOL0     C38232   7.932   3.512   1.315  0.1067  0.5742 -0.0667
  284MOL0     C38233   7.820   3.468   1.230  0.1291  0.0808 -1.0433
  284MOL0     C38234   7.910   3.554   1.451 -0.9970 -0.2749 -0.0103
  284MOL0     C38235   7.780   3.557   1.526  0.6154  0.2994 -0.0528
  284MOL0     O38236   7.781   3.616   1.649  0.4554  0.0779 -0.1665
  284MOL0     C38237   7.667   3.628   1.726  0.2186 -0.2865 -0.2361
  284MOL0     C38238   7.538   3.603   1.691 -0.1394 -0.0909  0.5717
  284MOL0     C38239   7.427   3.622   1.772 -0.4394 -0.7782 -0.6594
  284MOL0     C38240   7.449   3.687   1.898 -0.4227  0.1788  0.4047
  284MOL0     O38241   7.330   3.730   1.955  0.1524 -0.2731 -0.4524
  284MOL0     C38242   7.336   3.818   2.066  0.7423 -0.4767 -0.6408
  284MOL0     C38243   7.331   3.726   2.193  0.1192  0.7041  0.0423
  284MOL0     C38244   7.298   3.804   2.324  0.1066 -0.9793  0.0072
  284MOL0     C38245   7.354   3.718   2.432 -0.2650 -0.0121 -0.3907
  284MOL0     C38246   7.347   3.779   2.570  0.2467 -1.4518 -0.0074
  284MOL0     C38247   7.381   3.666   2.682  0.1849  0.2177 -0.2270
  284MOL0     C38248   7.336   3.711   2.821 -1.2324  0.0579 -0.2994
  284MOL0     C38249   7.354   3.611   2.930 -0.1460 -0.5227 -0.5624
  284MOL0    Cl38250   7.532   3.596   2.972 -0.1724 -0.0752  0.2666
  284MOL0     C38251   7.573   3.722   1.936 -0.0396  0.1092 -0.5673
  284MOL0     C38252   7.683   3.690   1.850  0.2842  0.0752  0.5632
  284MOL0     O38253   7.687   3.520   1.460 -0.0371  0.3998  0.4521
  284MOL0     C38254   8.023   3.596   1.510  0.6038 -1.0388 -0.3885
  284MOL0     C38255   8.151   3.597   1.449 -0.1479  0.5687 -0.4875
  284MOL0     N38256   8.746   3.549   0.800  0.1960 -0.0342 -0.2181
  284MOL0     N38257   8.768   3.571   0.675 -0.2039 -0.2088 -0.4722
  284MOL0     C38258   9.698   4.053   0.261 -0.6658  0.5731  0.3012
  284MOL0     C38259   9.836   4.052   0.258 -0.5313 -0.2581 -0.0356
  284MOL0     C38260  10.242   4.150   0.092  0.0329 -0.0887 -0.7369
  284MOL0     C38261  10.289   4.272   0.051  0.9797 -0.2234 -0.0219
  284MOL0     C38262  10.424   4.285   0.036  0.1787  0.2864  0.4803
  284MOL0     C38263  10.514   4.176   0.033  0.8445  0.2247 -0.0877
  284MOL0     O38264  10.647   4.207   0.012 -0.9824  0.7399  0.3115
  284MOL0     C38265  10.730   4.081   0.006 -0.2133  0.5143  0.1487
  284MOL0     C38266  10.884   4.108  -0.016  0.0197 -0.0153 -0.9370
  284MOL0     C38267  10.964   3.976   0.007 -0.2796 -0.6572 -1.1870
  284MOL0     C38268  10.935   3.846  -0.081  0.3113  0.1744  0.0202
  284MOL0     C38269  11.040   3.752  -0.031  0.3138  0.1015  0.6792
  284MOL0     C38270  11.112   3.664   0.010 -0.2411 -0.3298  0.7726
  284MOL0     C38271  10.462   4.052   0.062  0.7474 -0.3058  0.7075
  284MOL0     C38272  10.332   4.038   0.108  0.5838 -0.5961  0.0349
  284MOL0     H38273   9.883   3.886  -0.033  0.2298  1.7774  1.8026
  284MOL0     H38274   9.639   3.886  -0.028  0.3080 -0.1562  0.3167
  284MOL0     H38275   9.462   4.138   0.284 -1.1920 -0.8876  1.3042
  284MOL0     H38276   9.388   4.188   0.120 -3.3382 -2.0806 -0.7130
  284MOL0     H38277   9.212   4.123   0.243  1.8293  2.6734 -5.5079
  284MOL0     H38278   9.244   3.976   0.151  0.7808 -1.2281  0.8224
  284MOL0     H38279   9.399   3.906   0.352  1.6244  2.9308 -0.8866
  284MOL0     H38280   9.304   4.015   0.448  1.3628  2.0661 -1.6014
  284MOL0     H38281   9.210   3.775   0.313  4.5608  1.6641 -0.5816
  284MOL0     H38282   9.203   3.821   0.488 -1.8511  0.7024  1.4887
  284MOL0     H38283   9.026   4.001   0.424 -4.1123  1.8662 -4.5967
  284MOL0     H38284   9.010   3.927   0.266 -1.7496  2.9713  0.2186
  284MOL0     H38285   8.937   3.731   0.354  1.3366  1.1447 -0.4915
  284MOL0     H38286   8.974   3.757   0.519 -2.6349  1.2033  2.5140
  284MOL0     H38287   8.786   3.918   0.559 -2.8503 -2.4510  2.0562
  284MOL0     H38288   8.755   3.923   0.396  0.4126  2.0734  0.9632
  284MOL0     H38289   8.747   3.645   0.437 -2.1559 -0.5643 -0.1021
  284MOL0     H38290   8.616   3.756   0.481  1.0505 -0.0723  0.0830
  284MOL0     H38291   8.632   3.860   0.739 -0.3069  0.7096  0.6554
  284MOL0     H38292   8.687   3.625   1.057  2.3840  1.4910  0.0112
  284MOL0     H38293   8.637   3.787   1.013 -0.6087 -1.1008 -0.1164
  284MOL0     H38294   8.481   3.548   0.920  0.8236 -0.1180 -0.6389
  284MOL0     H38295   8.430   3.725   0.914 -0.8173  0.7356  1.2710
  284MOL0     H38296   8.412   3.743   1.133 -0.9241 -0.6641 -0.7443
  284MOL0     H38297   8.520   3.613   1.177  0.2656 -0.5503  0.2406
  284MOL0     H38298   8.343   3.447   1.104  0.5920 -0.5639  2.3023
  284MOL0     H38299   8.235   3.589   1.073 -0.9287 -3.1739 -1.2287
  284MOL0     H38300   8.076   3.459   1.161  0.5146 -0.5996  1.1993
  284MOL0     H38301   7.849   3.438   1.129 -2.3269  2.3601 -2.5587
  284MOL0     H38302   7.760   3.389   1.276  2.0227 -0.3931  0.7609
  284MOL0     H38303   7.750   3.548   1.206 -1.0031 -0.1893  1.1525
  284MOL0     H38304   7.514   3.582   1.587  1.3362  2.7932 -0.4761
  284MOL0     H38305   7.328   3.617   1.728 -1.0665  0.0809  0.6007
  284MOL0     H38306   7.420   3.889   2.066 -1.4122  2.4223  2.8319
  284MOL0     H38307   7.246   3.878   2.053  1.4683  0.4771 -1.4175
  284MOL0     H38308   7.257   3.646   2.188 -0.0735  0.7611  1.5674
  284MOL0     H38309   7.433   3.686   2.195  0.2926  0.9985 -1.4302
  284MOL0     H38310   7.191   3.808   2.344 -0.1599  2.9834 -1.3723
  284MOL0     H38311   7.350   3.898   2.344 -2.4816  0.4085  0.5375
  284MOL0     H38312   7.303   3.622   2.437 -0.5046  0.1544  0.7456
  284MOL0     H38313   7.461   3.693   2.425  0.4992  3.2364 -2.9787
  284MOL0     H38314   7.245   3.816   2.581  0.5339  0.9313 -3.6419
  284MOL0     H38315   7.407   3.871   2.574 -1.7028 -0.0872 -0.9302
  284MOL0     H38316   7.326   3.573   2.665 -0.1913  0.9150 -3.3654
  284MOL0     H38317   7.490   3.656   2.677  0.2749  0.9411  0.0692
  284MOL0     H38318   7.233   3.746   2.823 -0.3428  3.2344  3.8828
  284MOL0     H38319   7.415   3.782   2.847  0.6313 -1.4447 -1.5162
  284MOL0     H38320   7.313   3.511   2.913 -0.3484 -1.2822  3.3516
  284MOL0     H38321   7.288   3.654   3.007 -0.8325 -0.3024 -1.2615
  284MOL0     H38322   7.602   3.787   2.019  1.1331  0.6809 -1.4003
  284MOL0     H38323   7.781   3.734   1.859 -0.0767  2.3100 -3.6377
  284MOL0     H38324   8.013   3.628   1.613  0.8350 -2.1064 -0.0108
  284MOL0     H38325   8.236   3.631   1.508 -0.9651  0.7894  0.5926
  284MOL0     H38326   9.654   4.096   0.351  3.6583  2.6715  1.6881
  284MOL0     H38327   9.893   4.097   0.338 -1.7855 -0.3411  0.9381
  284MOL0     H38328  10.225   4.357   0.034  0.3405 -1.3126 -4.3241
  284MOL0     H38329  10.470   4.383   0.031 -1.1751  1.0117  1.7443
  284MOL0     H38330  10.722   4.018   0.096  1.2576  2.6858  1.9425
  284MOL0     H38331  10.690   4.025  -0.079 -0.3753  2.6783 -1.2651
  284MOL0     H38332  10.931   4.185   0.047  2.9620 -0.1213 -2.7856
  284MOL0     H38333  10.897   4.147  -0.117  1.5878  0.1837 -0.6935
  284MOL0     H38334  10.954   3.940   0.110  2.2103 -2.6368 -1.5338
  284MOL0     H38335  11.066   4.007  -0.020 -1.0530 -0.1341 -3.7850
  284MOL0     H38336  10.949   3.865  -0.187 -1.5639 -0.0919 -0.3050
  284MOL0     H38337  10.833   3.808  -0.071  0.8998 -1.0014  2.4058
  284MOL0     H38338  11.169   3.573   0.017 -2.2812 -1.6354  1.7163
  284MOL0     H38339  10.523   3.962   0.065  0.0321 -0.7864  3.0076
  284MOL0     H38340  10.299   3.944   0.150  0.0115 -0.0511  0.8291
  285MOL0     O38341   5.321   5.283   9.039  0.0244  0.0569 -0.0875
  285MOL0     C38342   5.321   5.321   8.922 -1.5413  1.6186 -0.1905
  285MOL0     O38343   5.217   5.299   8.828 -0.0816  0.5556  0.0176
  285MOL0     C38344   5.090   5.261   8.864  0.9422  0.1927 -0.0629
  285MOL0     C38345   4.995   5.238   8.761 -0.5161  0.3612  0.1283
  285MOL0     C38346   4.867   5.188   8.785  0.3319 -0.8148  0.4913
  285MOL0     C38347   4.812   5.189   8.912 -0.3912  0.9289  0.0679
  285MOL0     O38348   4.688   5.147   8.904  0.1129  0.4882  0.6493
  285MOL0     C38349   4.608   5.168   9.022 -0.1404 -0.8943 -0.2383
  285MOL0     C38350   4.469   5.174   8.973  0.3391  0.1736 -0.4945
  285MOL0     C38351   4.372   5.238   9.070  0.3599 -0.0405  0.7195
  285MOL0     C38352   4.360   5.164   9.204  0.4621  0.3354  0.0286
  285MOL0     C38353   4.251   5.237   9.289  0.0160 -1.8244  0.1058
  285MOL0     C38354   4.205   5.153   9.413 -0.1709  0.0448 -0.1711
  285MOL0     C38355   4.133   5.231   9.519  0.1519 -0.2323  0.1735
  285MOL0     C38356   3.998   5.276   9.460 -1.2411  0.3807 -0.0098
  285MOL0     N38357   3.919   5.173   9.391 -0.4162  0.4175  0.2653
  285MOL0     C38358   3.869   5.064   9.463  0.0120  0.1843  0.2125
  285MOL0     C38359   3.799   4.996   9.360 -0.1181 -0.7690  0.5705
  285MOL0     C38360   3.730   4.872   9.366 -0.4696  0.6463  0.0473
  285MOL0     C38361   3.594   4.897   9.438  0.6912  0.0023 -0.0561
  285MOL0     C38362   3.502   4.951   9.322  1.1368  0.4014 -0.3075
  285MOL0     C38363   3.350   4.936   9.378  0.3812 -0.1134 -0.0760
  285MOL0     O38364   3.268   4.952   9.269  0.9172 -0.1157  0.3550
  285MOL0     C38365   3.138   5.001   9.281 -0.5538  0.3935  0.0977
  285MOL0     C38366   3.078   5.012   9.157 -0.6060 -0.1878 -0.5656
  285MOL0     C38367   2.952   5.057   9.146 -0.5959 -0.4499 -0.5769
  285MOL0     C38368   2.888   5.058   9.014 -1.1160  0.3237  1.2194
  285MOL0     C38369   2.880   5.095   9.264  0.4559 -0.0890  0.3638
  285MOL0     C38370   2.739   5.152   9.267 -0.0525 -1.1830  0.2548
  285MOL0     O38371   2.663   5.141   9.375 -0.0158 -0.5706 -0.3289
  285MOL0     C38372   2.544   5.223   9.379 -0.6785  0.6652  0.7833
  285MOL0     C38373   2.542   5.357   9.351  0.2250 -0.1803 -0.2423
  285MOL0     C38374   2.417   5.429   9.363  0.4355 -0.7440 -0.0374
  285MOL0     C38375   2.292   5.370   9.386 -0.7646 -0.3584  0.4709
  285MOL0     O38376   2.173   5.437   9.383 -0.2616  0.1699 -0.7551
  285MOL0     C38377   2.068   5.371   9.454 -0.0953 -0.7612  0.0326
  285MOL0     C38378   1.944   5.457   9.445  0.0344  0.4804 -0.4460
  285MOL0     C38379   1.834   5.423   9.542  0.3005 -0.7728  0.3640
  285MOL0     C38380   1.803   5.275   9.551  0.5757  0.2317  0.2021
  285MOL0     C38381   1.655   5.251   9.569  0.1763  0.3628  0.8044
  285MOL0     C38382   1.607   5.106   9.613  0.5616 -0.3617 -0.3292
  285MOL0     C38383   1.470   5.088   9.679  0.1690  0.9597  0.0122
  285MOL0     C38384   1.465   5.136   9.829 -0.8871  0.0060 -0.3586
  285MOL0    Cl38385   1.567   5.035   9.946 -0.2445 -0.1561  0.1586
  285MOL0     C38386   2.300   5.237   9.425 -0.2199 -0.3732 -0.2455
  285MOL0     C38387   2.423   5.161   9.419 -0.2826 -0.4526 -0.3479
  285MOL0     O38388   2.700   5.190   9.161  0.7756 -0.0828 -0.2599
  285MOL0     C38389   2.936   5.077   9.392 -0.6054  0.3585  0.4476
  285MOL0     C38390   3.069   5.028   9.403  0.0636 -1.0736  0.6380
  285MOL0     N38391   3.799   5.069   9.249  0.3053  0.3648  0.9736
  285MOL0     N38392   3.868   5.176   9.266  0.4110  0.7909 -0.1451
  285MOL0     C38393   4.906   5.213   9.020  0.0621  0.3503  0.3750
  285MOL0     C38394   5.038   5.252   9.001  0.0597  0.5724 -0.3514
  285MOL0     C38395   5.443   5.387   8.873  0.5850  0.4704  0.2520
  285MOL0     C38396   5.557   5.377   8.950 -0.4221  0.5694  0.1905
  285MOL0     C38397   5.677   5.423   8.894 -0.1799  0.1313 -0.3112
  285MOL0     C38398   5.689   5.478   8.764 -0.2780  0.3590 -0.0581
  285MOL0     O38399   5.808   5.519   8.722  1.4162 -0.5547  0.7569
  285MOL0     C38400   5.838   5.556   8.587 -0.1133 -0.3727 -0.5524
  285MOL0     C38401   5.990   5.569   8.573  0.3179  0.0522  0.4018
  285MOL0     C38402   6.070   5.441   8.579  0.0914 -0.9673 -0.7076
  285MOL0     C38403   6.211   5.500   8.581  0.3393  0.0979 -0.2940
  285MOL0     C38404   6.308   5.394   8.610 -0.3716 -0.1459 -0.3736
  285MOL0     C38405   6.393   5.319   8.643 -0.0839  0.2519 -0.1495
  285MOL0     C38406   5.575   5.491   8.690 -0.7660 -0.1113 -0.1108
  285MOL0     C38407   5.455   5.442   8.742  0.4295 -0.3252 -0.0418
  285MOL0     H38408   5.025   5.247   8.657 -2.1760 -0.9606 -0.5118
  285MOL0     H38409   4.791   5.171   8.709  1.2050  4.0075 -1.8640
  285MOL0     H38410   4.636   5.085   9.088  0.6313  0.8253  1.6911
  285MOL0     H38411   4.631   5.262   9.072 -0.6765 -0.6983 -0.3606
  285MOL0     H38412   4.466   5.233   8.880  4.1079  2.0615  0.3590
  285MOL0     H38413   4.439   5.072   8.949 -1.6685  0.6256 -0.1320
  285MOL0     H38414   4.409   5.341   9.083 -1.3835  0.9061 -1.2448
  285MOL0     H38415   4.272   5.240   9.025  0.6487  1.8619  0.0522
  285MOL0     H38416   4.326   5.062   9.189  1.6568 -0.4549  2.1060
  285MOL0     H38417   4.454   5.151   9.259  0.3313 -2.4092 -0.2668
  285MOL0     H38418   4.284   5.333   9.331 -0.1123 -1.5538 -0.4003
  285MOL0     H38419   4.172   5.266   9.219  1.5534 -0.5541 -1.2000
  285MOL0     H38420   4.148   5.065   9.383  1.1204 -0.8172 -0.1580
  285MOL0     H38421   4.293   5.105   9.456  0.1026 -0.4915 -1.2998
  285MOL0     H38422   4.102   5.171   9.606 -3.3551  0.8090 -0.1759
  285MOL0     H38423   4.194   5.314   9.556 -1.6603  3.0585 -3.5730
  285MOL0     H38424   4.017   5.367   9.402 -0.8620  1.4515  1.7127
  285MOL0     H38425   3.937   5.316   9.542  2.8761  0.9300  3.1156
  285MOL0     H38426   3.875   5.049   9.571 -0.8195 -0.8368  0.1356
  285MOL0     H38427   3.716   4.836   9.263 -3.2848  0.2434  0.4915
  285MOL0     H38428   3.781   4.786   9.412 -2.9002 -1.2956 -0.6890
  285MOL0     H38429   3.595   4.964   9.524 -0.1223 -0.5285  0.3771
  285MOL0     H38430   3.556   4.800   9.473 -2.2236  0.9053 -0.3961
  285MOL0     H38431   3.514   4.885   9.235  3.5834  0.4592 -0.1031
  285MOL0     H38432   3.522   5.056   9.303  0.4071  1.1012  2.3440
  285MOL0     H38433   3.330   5.014   9.452  4.6182  0.9274  0.2649
  285MOL0     H38434   3.321   4.846   9.433 -2.1278 -0.1779 -1.3777
  285MOL0     H38435   3.137   4.996   9.067  1.7272  3.3535  0.1235
  285MOL0     H38436   2.939   4.998   8.939 -0.9438  2.0893 -0.1305
  285MOL0     H38437   2.784   5.025   9.021 -0.6629 -1.0567  1.7813
  285MOL0     H38438   2.880   5.158   8.970 -4.5988 -0.7794 -1.0277
  285MOL0     H38439   2.632   5.415   9.334  0.8436 -0.3904  1.9120
  285MOL0     H38440   2.411   5.535   9.343 -2.2192 -0.7712  0.3100
  285MOL0     H38441   2.047   5.274   9.408 -2.5694  0.9254 -2.8094
  285MOL0     H38442   2.091   5.361   9.560 -0.5938  2.7904  0.5926
  285MOL0     H38443   1.982   5.556   9.473 -0.6177  1.1301 -1.7626
  285MOL0     H38444   1.907   5.468   9.342 -2.7857 -0.8163  0.3411
  285MOL0     H38445   1.744   5.473   9.505  1.7438 -0.2068 -2.7192
  285MOL0     H38446   1.871   5.465   9.636 -1.8891 -1.1889  1.4873
  285MOL0     H38447   1.826   5.214   9.463 -3.6535  0.2115 -1.1035
  285MOL0     H38448   1.861   5.229   9.632  1.2040  1.4752  0.4844
  285MOL0     H38449   1.594   5.285   9.485  1.6498  3.9051  0.9609
  285MOL0     H38450   1.619   5.309   9.655  1.4657  0.1015  1.5476
  285MOL0     H38451   1.615   5.032   9.533 -0.1943  0.5466 -1.2710
  285MOL0     H38452   1.679   5.069   9.686 -0.5977  0.2183  1.1586
  285MOL0     H38453   1.439   4.984   9.692 -1.4678  1.2327 -1.4032
  285MOL0     H38454   1.390   5.132   9.619  0.5478 -0.4690 -1.6185
  285MOL0     H38455   1.360   5.129   9.861 -0.6522  1.4337  0.8432
  285MOL0     H38456   1.499   5.238   9.847 -1.1218 -0.1630  1.2685
  285MOL0     H38457   2.210   5.184   9.455 -2.7418  2.7932 -1.6090
  285MOL0     H38458   2.412   5.055   9.440  0.0473  0.1943  3.9064
  285MOL0     H38459   2.882   5.099   9.483  0.1886  2.6833  0.4181
  285MOL0     H38460   3.110   5.019   9.503 -0.9844 -2.8667  0.9663
  285MOL0     H38461   4.875   5.203   9.124 -2.4921  1.5217 -0.2013
  285MOL0     H38462   5.087   5.267   9.097 -2.1733 -0.4842  1.0381
  285MOL0     H38463   5.565   5.314   9.038  1.5325  0.1203 -0.2647
  285MOL0     H38464   5.772   5.413   8.946 -0.3958 -0.3753 -0.0068
  285MOL0     H38465   5.814   5.488   8.504  2.8882 -2.1113 -0.1387
  285MOL0     H38466   5.791   5.652   8.564 -0.4193 -1.0439 -3.0741
  285MOL0     H38467   6.026   5.645   8.643 -2.5130  1.1056  0.8495
  285MOL0     H38468   6.012   5.607   8.473  0.7935  0.2602  0.5815
  285MOL0     H38469   6.051   5.376   8.493 -3.6208  0.8846 -1.4853
  285MOL0     H38470   6.038   5.385   8.668 -0.5386  1.6855  0.8335
  285MOL0     H38471   6.224   5.585   8.649 -0.9854 -0.8112  1.1664
  285MOL0     H38472   6.229   5.541   8.481  0.8487  3.0837  0.8914
  285MOL0     H38473   6.471   5.254   8.676 -2.6410 -1.2490  3.6662
  285MOL0     H38474   5.576   5.522   8.586 -1.9622 -1.2499 -0.5029
  285MOL0     H38475   5.361   5.459   8.691 -1.0637  2.0021  3.1209
  286MOL0     O38476   6.983   4.963   1.440 -0.5614  0.5555 -0.2663
  286MOL0     C38477   7.004   4.985   1.316 -0.4693  0.4899  0.4034
  286MOL0     O38478   6.919   4.950   1.217 -0.1666  0.2773  0.3604
  286MOL0     C38479   6.801   4.874   1.234 -0.6343 -0.1368  0.6501
  286MOL0     C38480   6.779   4.768   1.321 -1.4627  0.6575 -0.6397
  286MOL0     C38481   6.655   4.707   1.325 -0.2188  1.2272  0.5361
  286MOL0     C38482   6.551   4.754   1.246  0.3791  0.1424  0.0224
  286MOL0     O38483   6.421   4.709   1.256  0.5669  0.8348 -0.0736
  286MOL0     C38484   6.363   4.739   1.378  0.0680  0.9161  1.1843
  286MOL0     C38485   6.215   4.704   1.366 -0.2164 -0.0978 -0.2387
  286MOL0     C38486   6.148   4.683   1.498 -1.2293  1.3003  0.1747
  286MOL0     C38487   6.004   4.646   1.493 -0.1425 -0.1149 -0.4012
  286MOL0     C38488   5.970   4.609   1.637  0.1782 -0.0530  0.1942
  286MOL0     C38489   5.825   4.557   1.643 -0.3150 -0.8313 -0.4034
  286MOL0     C38490   5.764   4.621   1.774 -0.0457  0.6140  0.0697
  286MOL0     C38491   5.617   4.583   1.792 -0.0432  0.2891 -0.0838
  286MOL0     N38492   5.585   4.636   1.929 -0.1798  0.4683  0.7686
  286MOL0     C38493   5.556   4.770   1.963  0.9705 -0.1657  0.0260
  286MOL0     C38494   5.566   4.765   2.102  0.4052  0.4652  0.4326
  286MOL0     C38495   5.548   4.873   2.201 -0.2614  0.1097 -0.2469
  286MOL0     C38496   5.405   4.891   2.227 -0.0602 -0.3087 -0.9791
  286MOL0     C38497   5.313   4.899   2.107  0.1233 -0.2209  0.5986
  286MOL0     C38498   5.175   4.954   2.143  0.2498  0.8833  0.3768
  286MOL0     O38499   5.105   4.988   2.020  0.1273 -0.8548 -0.2192
  286MOL0     C38500   4.962   4.983   2.008 -0.2091 -0.2866  0.0086
  286MOL0     C38501   4.902   5.001   1.883  0.0016 -0.9574 -0.0520
  286MOL0     C38502   4.764   5.010   1.862  0.1827  0.2439 -0.3754
  286MOL0     C38503   4.712   5.042   1.726  0.0068  0.4660 -0.6139
  286MOL0     C38504   4.683   4.986   1.978 -0.6527 -0.4974 -0.0746
  286MOL0     C38505   4.534   4.982   1.964  0.6597  0.4686 -0.5562
  286MOL0     O38506   4.477   4.930   1.847 -0.5652 -0.0247 -0.3712
  286MOL0     C38507   4.343   4.954   1.825 -1.6492  0.3518  0.5464
  286MOL0     C38508   4.251   4.853   1.826  0.2610 -0.6342 -0.4835
  286MOL0     C38509   4.112   4.882   1.822  0.2409 -0.0278  0.1252
  286MOL0     C38510   4.065   5.011   1.802  0.1205  0.2987  0.3378
  286MOL0     O38511   3.938   5.038   1.803 -0.4340 -0.0314 -0.2396
  286MOL0     C38512   3.837   4.946   1.811  0.2647  0.8161 -0.0793
  286MOL0     C38513   3.715   5.034   1.807 -0.1341  0.1847  1.2643
  286MOL0     C38514   3.579   4.947   1.821 -0.3760 -0.4788 -0.0729
  286MOL0     C38515   3.511   4.962   1.958 -0.7925  0.8212 -0.4924
  286MOL0     C38516   3.391   4.871   1.978 -0.1910  1.0815 -0.7488
  286MOL0     C38517   3.265   4.930   2.035 -0.0616  0.3205  0.9412
  286MOL0     C38518   3.150   4.837   2.019 -0.6342 -0.0730 -0.7301
  286MOL0     C38519   3.018   4.904   2.000 -0.3754 -0.7538 -0.0103
  286MOL0    Cl38520   2.903   4.778   1.948 -0.3685 -0.0045 -0.1333
  286MOL0     C38521   4.155   5.116   1.790 -0.3929 -0.1131 -0.7362
  286MOL0     C38522   4.293   5.087   1.794  0.5857  0.5050 -0.6047
  286MOL0     O38523   4.473   5.044   2.054  0.4889  0.0318 -0.2109
  286MOL0     C38524   4.737   4.978   2.101 -0.3538  0.3023 -0.1520
  286MOL0     C38525   4.873   4.983   2.111  0.4463  0.6323 -0.5732
  286MOL0     N38526   5.576   4.640   2.154  0.1466  0.8408  0.6284
  286MOL0     N38527   5.585   4.563   2.045  0.0633  0.3776 -0.0737
  286MOL0     C38528   6.575   4.862   1.163  0.9676  0.0026 -0.7402
  286MOL0     C38529   6.701   4.917   1.152  0.3062  0.0117 -0.1009
  286MOL0     C38530   7.136   5.026   1.271 -0.0997 -0.5071  0.4701
  286MOL0     C38531   7.169   5.059   1.136 -1.3193 -1.1615 -0.0158
  286MOL0     C38532   7.299   5.116   1.102  0.8460 -0.4381  0.2435
  286MOL0     C38533   7.396   5.124   1.201  0.3297  0.0647  0.1412
  286MOL0     O38534   7.510   5.183   1.182 -0.2109 -0.3780 -0.6182
  286MOL0     C38535   7.595   5.137   1.076 -1.3159 -0.0807  0.0813
  286MOL0     C38536   7.644   5.257   0.984  0.0288 -0.8016  0.1548
  286MOL0     C38537   7.531   5.354   0.935 -0.2755  0.4016  0.1769
  286MOL0     C38538   7.610   5.478   0.876 -0.8352  0.5078 -0.3181
  286MOL0     C38539   7.518   5.579   0.831  1.0813 -0.6488 -0.0908
  286MOL0     C38540   7.433   5.662   0.802 -0.1373 -0.1227 -1.2351
  286MOL0     C38541   7.376   5.071   1.330 -0.1368  0.3004  0.2145
  286MOL0     C38542   7.247   5.020   1.362  0.5889  0.4931  0.3069
  286MOL0     H38543   6.848   4.734   1.396 -1.6128  1.8622  0.0679
  286MOL0     H38544   6.606   4.633   1.387 -1.9463 -0.3611 -2.4693
  286MOL0     H38545   6.412   4.679   1.455  2.8532 -0.3859 -1.3789
  286MOL0     H38546   6.364   4.846   1.401  0.9314  0.9487  1.0142
  286MOL0     H38547   6.173   4.789   1.310 -1.8761 -1.8831 -1.8699
  286MOL0     H38548   6.207   4.616   1.302 -0.1464  0.0644 -0.4748
  286MOL0     H38549   6.200   4.595   1.536 -1.0775  0.9789 -0.7463
  286MOL0     H38550   6.161   4.767   1.567 -3.1928  0.5186  1.6100
  286MOL0     H38551   5.946   4.736   1.473  1.1244  1.5327  2.5781
  286MOL0     H38552   5.988   4.558   1.431 -1.2260 -2.0327  2.3922
  286MOL0     H38553   6.042   4.539   1.680 -0.7190  0.4786  2.7369
  286MOL0     H38554   5.978   4.700   1.697  0.1269 -1.5189  2.5328
  286MOL0     H38555   5.763   4.603   1.565 -1.0390  2.1596  1.7682
  286MOL0     H38556   5.820   4.448   1.635  0.4313 -0.8537 -0.6352
  286MOL0     H38557   5.824   4.585   1.858 -0.3361  0.6501  0.2951
  286MOL0     H38558   5.764   4.730   1.765 -0.9993  0.5946 -0.3224
  286MOL0     H38559   5.589   4.477   1.791 -0.5894  0.4337 -0.6385
  286MOL0     H38560   5.557   4.637   1.719 -0.0913  2.1306  1.2621
  286MOL0     H38561   5.525   4.854   1.901 -1.4690 -0.5264  0.6698
  286MOL0     H38562   5.590   4.837   2.296 -0.0280 -0.3984 -0.5392
  286MOL0     H38563   5.607   4.960   2.170  0.9607 -0.8395 -0.6762
  286MOL0     H38564   5.396   4.980   2.290 -0.9698 -0.7647 -0.4255
  286MOL0     H38565   5.375   4.801   2.283 -0.8713 -0.1413 -1.1344
  286MOL0     H38566   5.296   4.803   2.058 -0.0695 -0.2248  0.6697
  286MOL0     H38567   5.365   4.967   2.039  3.3344  0.1694  3.2011
  286MOL0     H38568   5.187   5.030   2.222 -1.1995  0.5463  0.9391
  286MOL0     H38569   5.112   4.874   2.181 -0.7771  0.5321 -1.9262
  286MOL0     H38570   4.966   5.005   1.796 -0.7983 -0.8983 -0.6587
  286MOL0     H38571   4.666   5.141   1.732 -0.4778  0.1953  4.7493
  286MOL0     H38572   4.795   5.043   1.654 -1.8048  2.9411 -2.8985
  286MOL0     H38573   4.637   4.971   1.688 -2.8272  2.3013  1.1526
  286MOL0     H38574   4.285   4.750   1.826  0.6314 -0.5119 -0.3941
  286MOL0     H38575   4.053   4.792   1.811 -1.5161  1.0139  0.5141
  286MOL0     H38576   3.838   4.870   1.733 -3.8274  3.4867 -3.1434
  286MOL0     H38577   3.829   4.893   1.907 -0.6735  0.8414 -0.1317
  286MOL0     H38578   3.715   5.112   1.883 -1.2326  1.4973 -0.0229
  286MOL0     H38579   3.722   5.079   1.708  3.5812 -1.5811  0.5533
  286MOL0     H38580   3.600   4.840   1.809 -0.6307 -0.6499  0.9436
  286MOL0     H38581   3.502   4.977   1.749 -1.2533  0.1065  1.0892
  286MOL0     H38582   3.590   4.950   2.032 -1.5223  0.9265  0.3169
  286MOL0     H38583   3.471   5.063   1.978  0.0199  0.6659  2.3126
  286MOL0     H38584   3.436   4.797   2.045 -1.7010  0.4483 -0.3943
  286MOL0     H38585   3.361   4.819   1.887  0.5009 -1.5590  0.4046
  286MOL0     H38586   3.268   4.948   2.143  0.2342  0.3912  0.9236
  286MOL0     H38587   3.249   5.021   1.977 -1.0041 -0.5153 -0.1515
  286MOL0     H38588   3.151   4.770   2.106 -3.0490  0.6821 -0.0592
  286MOL0     H38589   3.150   4.781   1.925 -3.0910  1.4419 -1.7356
  286MOL0     H38590   3.016   4.985   1.926  0.0912 -1.1534 -0.4641
  286MOL0     H38591   2.980   4.949   2.093  1.4984  1.3976 -0.1866
  286MOL0     H38592   4.116   5.215   1.771 -0.2259  0.2250  0.6179
  286MOL0     H38593   4.357   5.174   1.780  1.0199  0.3981  0.5598
  286MOL0     H38594   4.678   4.961   2.190  1.3843 -0.5016  0.8801
  286MOL0     H38595   4.914   4.988   2.211 -2.1220 -0.3990  0.6250
  286MOL0     H38596   6.487   4.895   1.109  3.1486  2.4958 -3.0128
  286MOL0     H38597   6.697   5.010   1.096 -0.4521 -1.0033 -1.7896
  286MOL0     H38598   7.106   5.066   1.048  1.2076 -1.3433 -1.9753
  286MOL0     H38599   7.316   5.162   1.005 -0.5419  0.2825  0.3182
  286MOL0     H38600   7.679   5.084   1.121 -1.5423 -0.1924  0.3783
  286MOL0     H38601   7.539   5.069   1.012 -2.2572  0.2894  0.4835
  286MOL0     H38602   7.687   5.220   0.891  1.2775  0.3277  0.2549
  286MOL0     H38603   7.707   5.319   1.048 -0.8636  1.2359 -0.8482
  286MOL0     H38604   7.479   5.387   1.025  0.3370  0.5500  0.4853
  286MOL0     H38605   7.455   5.315   0.867  0.7698  1.5832 -1.7427
  286MOL0     H38606   7.674   5.437   0.798  0.6557 -0.6420  1.4348
  286MOL0     H38607   7.681   5.517   0.950  2.8862 -2.6700 -1.8756
  286MOL0     H38608   7.362   5.738   0.778 -0.3905 -0.1134 -0.5000
  286MOL0     H38609   7.456   5.054   1.402 -0.3899 -0.1566  0.3912
  286MOL0     H38610   7.232   4.971   1.458 -1.3620  0.0077 -0.2118
  287MOL0     O38611   9.740   3.295   6.427  0.0890  0.7363  0.1088
  287MOL0     C38612   9.735   3.229   6.316 -0.0655  0.7467  0.4038
  287MOL0     O38613   9.847   3.181   6.245 -0.0252  0.6437  0.8089
  287MOL0     C38614   9.970   3.188   6.312 -0.5693 -0.0002  1.3413
  287MOL0     C38615  10.009   3.085   6.394 -0.6139 -0.5838  0.0007
  287MOL0     C38616  10.143   3.079   6.448  0.5188  0.6769 -0.3444
  287MOL0     C38617  10.232   3.193   6.426  0.5363  0.7295  0.4912
  287MOL0     O38618  10.363   3.181   6.453 -0.7687 -0.6467 -0.1860
  287MOL0     C38619  10.411   3.075   6.538 -0.4369 -0.3344 -0.8602
  287MOL0     C38620  10.545   3.122   6.589 -1.0991 -0.3186 -0.2422
  287MOL0     C38621  10.554   3.238   6.681 -0.7750 -0.1492 -0.1407
  287MOL0     C38622  10.700   3.279   6.706  0.4849 -0.0013  0.6509
  287MOL0     C38623  10.711   3.368   6.821  0.8566 -0.9178 -0.4798
  287MOL0     C38624  10.854   3.424   6.843 -1.0920  0.0008 -0.0472
  287MOL0     C38625  10.907   3.507   6.728 -0.2115  0.1623 -0.2483
  287MOL0     C38626  11.043   3.575   6.761 -0.1580 -0.5823  0.1357
  287MOL0     N38627  11.138   3.495   6.836 -0.4437  0.8263 -0.5166
  287MOL0     C38628  11.189   3.367   6.804  0.7896 -0.4839  0.2547
  287MOL0     C38629  11.249   3.327   6.915 -0.2315  0.2868  0.1172
  287MOL0     C38630  11.318   3.203   6.957 -0.4644  0.7202  0.1475
  287MOL0     C38631  11.251   3.071   6.919  1.3130  0.0890 -0.4934
  287MOL0     C38632  11.096   3.066   6.945  0.5091 -0.1516 -0.3000
  287MOL0     C38633  11.035   2.948   6.886 -0.4163  0.3456  0.1662
  287MOL0     O38634  11.034   2.970   6.744 -0.5939  0.5272  0.0797
  287MOL0     C38635  10.936   2.900   6.680 -0.2873  0.0016 -0.0217
  287MOL0     C38636  10.880   2.778   6.722 -0.6073  0.7050  1.2234
  287MOL0     C38637  10.789   2.716   6.642  0.8572 -0.1656  0.4081
  287MOL0     C38638  10.733   2.588   6.700  0.0172 -0.4667 -0.0120
  287MOL0     C38639  10.747   2.771   6.521 -0.3841 -0.5015 -0.3602
  287MOL0     C38640  10.652   2.701   6.435  0.7114 -0.2569  0.6200
  287MOL0     O38641  10.549   2.780   6.371 -0.2406 -0.1672  0.1101
  287MOL0     C38642  10.428   2.733   6.324 -0.2098 -0.7964 -0.6282
  287MOL0     C38643  10.379   2.600   6.318  0.0173  0.0893 -0.0039
  287MOL0     C38644  10.264   2.565   6.248  0.2372  0.2081  0.1259
  287MOL0     C38645  10.185   2.660   6.192  0.1201  0.4674 -0.1925
  287MOL0     O38646  10.064   2.634   6.138 -0.6127  0.3722  0.9731
  287MOL0     C38647   9.968   2.642   6.245 -0.0740  0.4464  0.0878
  287MOL0     C38648   9.838   2.674   6.179  0.1039  0.6301 -0.7798
  287MOL0     C38649   9.713   2.689   6.273  0.0361  0.6214  0.5770
  287MOL0     C38650   9.734   2.819   6.353  1.0811 -0.4295 -0.5950
  287MOL0     C38651   9.607   2.836   6.446 -0.9776 -0.1366  0.7925
  287MOL0     C38652   9.607   2.957   6.541  0.2480 -1.1106 -0.9899
  287MOL0     C38653   9.480   2.931   6.624 -0.3488 -0.3009 -0.1894
  287MOL0     C38654   9.459   3.039   6.737 -0.3696 -0.4318 -0.0279
  287MOL0    Cl38655   9.324   2.970   6.840 -0.1756  0.1728  0.1202
  287MOL0     C38656  10.235   2.792   6.194 -0.4759 -0.9590 -0.1368
  287MOL0     C38657  10.360   2.820   6.248  0.1099 -0.4872 -0.0420
  287MOL0     O38658  10.665   2.580   6.416 -0.6965 -0.5312  0.2986
  287MOL0     C38659  10.798   2.895   6.487  0.3493  0.4437 -0.5814
  287MOL0     C38660  10.893   2.959   6.559  0.1996  0.1977  0.5101
  287MOL0     N38661  11.224   3.423   7.008 -0.1863 -0.7603 -0.5475
  287MOL0     N38662  11.163   3.526   6.964 -0.1505  0.4060 -0.2992
  287MOL0     C38663  10.186   3.306   6.354  0.4880 -0.0578 -0.8146
  287MOL0     C38664  10.064   3.296   6.299  0.6475  0.5314  0.1956
  287MOL0     C38665   9.603   3.196   6.260  0.1352  0.0525 -0.7119
  287MOL0     C38666   9.604   3.140   6.134 -0.0598  0.2699  0.3592
  287MOL0     C38667   9.487   3.112   6.076  0.1374  0.4549 -0.2240
  287MOL0     C38668   9.368   3.128   6.142 -0.2167  0.4087  1.6747
  287MOL0     O38669   9.248   3.095   6.089 -0.5194 -0.4510  0.5985
  287MOL0     C38670   9.236   2.957   6.043  1.2007  0.5341  0.1089
  287MOL0     C38671   9.114   2.898   6.106  0.3549 -0.6640  0.4614
  287MOL0     C38672   9.138   2.829   6.236  0.0343 -0.8126 -0.5410
  287MOL0     C38673   9.112   2.919   6.359 -0.3959  0.0767  0.5531
  287MOL0     C38674   9.145   2.839   6.475  0.2612 -0.5247 -0.6663
  287MOL0     C38675   9.160   2.753   6.563 -0.8236 -0.6735  0.4146
  287MOL0     C38676   9.361   3.197   6.267 -1.0496  0.4640 -0.5763
  287MOL0     C38677   9.479   3.224   6.325 -0.3518 -0.6970  0.1486
  287MOL0     H38678   9.940   3.003   6.410 -1.1121 -0.1852 -0.0926
  287MOL0     H38679  10.168   2.993   6.509 -1.2495  0.7834  0.6064
  287MOL0     H38680  10.347   3.053   6.624  1.3289  2.2958  1.2744
  287MOL0     H38681  10.431   2.989   6.473  2.7008 -1.0310  0.8141
  287MOL0     H38682  10.599   3.038   6.633  0.6958  1.3012  0.7783
  287MOL0     H38683  10.600   3.137   6.496 -3.4342 -1.1849 -1.8816
  287MOL0     H38684  10.493   3.318   6.638  1.4302  0.5366 -2.2193
  287MOL0     H38685  10.514   3.207   6.778  0.1962 -2.2320 -0.3441
  287MOL0     H38686  10.761   3.190   6.722  1.3587  0.7506  1.7014
  287MOL0     H38687  10.734   3.318   6.610 -0.4558 -3.5855 -1.3259
  287MOL0     H38688  10.650   3.459   6.815  2.8681  0.3648 -4.1473
  287MOL0     H38689  10.684   3.311   6.910  0.8075 -0.2756 -0.0723
  287MOL0     H38690  10.867   3.470   6.942  0.9361 -1.5667  0.5003
  287MOL0     H38691  10.916   3.335   6.861 -2.5763 -0.5873  2.7654
  287MOL0     H38692  10.926   3.436   6.647 -1.8385 -1.5331  0.7838
  287MOL0     H38693  10.828   3.581   6.714 -1.5855 -1.6697 -2.9685
  287MOL0     H38694  11.027   3.666   6.820  1.3357  0.5190 -1.0842
  287MOL0     H38695  11.093   3.616   6.673 -0.2544 -0.9193 -0.0816
  287MOL0     H38696  11.181   3.320   6.707  3.2029 -1.1557  0.2998
  287MOL0     H38697  11.415   3.202   6.907 -0.2197  1.8687  0.5666
  287MOL0     H38698  11.341   3.213   7.064  1.6447  0.4395 -0.2355
  287MOL0     H38699  11.307   2.990   6.968 -0.6872 -0.5325  0.8699
  287MOL0     H38700  11.279   3.051   6.815  0.4764 -3.2842 -0.1764
  287MOL0     H38701  11.045   3.160   6.924 -0.1283 -1.0143 -2.8902
  287MOL0     H38702  11.082   3.057   7.054  3.9709  1.4858  0.4444
  287MOL0     H38703  10.934   2.935   6.925 -1.0190  0.0686 -1.4065
  287MOL0     H38704  11.090   2.856   6.912  1.2111  0.8932 -1.1260
  287MOL0     H38705  10.911   2.728   6.814 -1.9474 -2.4103  0.1227
  287MOL0     H38706  10.775   2.498   6.655 -1.0629 -1.9127  1.7506
  287MOL0     H38707  10.750   2.583   6.808 -2.9769  1.4816  0.6855
  287MOL0     H38708  10.625   2.574   6.694 -0.1710 -0.6217  2.5656
  287MOL0     H38709  10.423   2.521   6.378 -2.1961 -0.4528  1.0234
  287MOL0     H38710  10.233   2.461   6.244  1.4487 -0.1689  0.1417
  287MOL0     H38711   9.959   2.544   6.294 -0.9846  0.7363  0.5453
  287MOL0     H38712   9.987   2.718   6.322  1.2561  1.3079 -1.0404
  287MOL0     H38713   9.859   2.771   6.132  0.8395  1.5856  1.3751
  287MOL0     H38714   9.830   2.590   6.109  0.8438  1.6538 -2.1517
  287MOL0     H38715   9.699   2.601   6.336  0.4731 -0.5675 -0.9100
  287MOL0     H38716   9.622   2.704   6.213  1.5604  1.0073 -1.7872
  287MOL0     H38717   9.826   2.814   6.412  0.4380  0.6756  0.5417
  287MOL0     H38718   9.754   2.906   6.290  1.3667  0.0752  0.1705
  287MOL0     H38719   9.603   2.754   6.519 -1.8304 -0.1241  0.7707
  287MOL0     H38720   9.513   2.838   6.390 -1.3118 -1.5858  1.2441
  287MOL0     H38721   9.688   2.951   6.615 -1.3240  1.0696  1.0455
  287MOL0     H38722   9.607   3.052   6.488  0.2273 -1.2547 -1.2504
  287MOL0     H38723   9.482   2.829   6.662 -2.1758 -0.0606  0.6543
  287MOL0     H38724   9.393   2.936   6.558  0.5199 -0.9321 -1.4210
  287MOL0     H38725   9.424   3.136   6.699 -1.7942  1.1521  4.5665
  287MOL0     H38726   9.549   3.036   6.799  0.0320  1.9601 -0.3990
  287MOL0     H38727  10.188   2.877   6.146  2.5556  1.7579  1.3014
  287MOL0     H38728  10.409   2.916   6.241  0.0986 -0.6086 -2.5318
  287MOL0     H38729  10.751   2.938   6.400 -4.0612  1.0176  1.8354
  287MOL0     H38730  10.923   3.055   6.517  2.2781 -1.4757 -2.1357
  287MOL0     H38731  10.246   3.396   6.350  0.7698 -0.2675 -1.3658
  287MOL0     H38732  10.029   3.387   6.252  3.3620 -0.7215 -5.0220
  287MOL0     H38733   9.687   3.108   6.070 -1.1547 -0.2221 -0.8572
  287MOL0     H38734   9.481   3.058   5.982  3.1048  1.2576 -0.9798
  287MOL0     H38735   9.234   2.955   5.934 -0.1367  1.0772  0.1119
  287MOL0     H38736   9.327   2.902   6.068  2.9324  2.2630 -2.0094
  287MOL0     H38737   9.076   2.819   6.040 -1.6926  1.6512 -1.3174
  287MOL0     H38738   9.037   2.975   6.118 -0.4175 -1.7671  3.1090
  287MOL0     H38739   9.243   2.797   6.244  0.7502  1.1211 -1.5042
  287MOL0     H38740   9.076   2.739   6.235  1.1883 -1.6477 -1.4072
  287MOL0     H38741   9.007   2.948   6.351 -1.1986 -3.0219 -2.3992
  287MOL0     H38742   9.186   3.000   6.350  0.3633 -0.7482 -1.2208
  287MOL0     H38743   9.179   2.692   6.649  1.6346 -1.6562 -0.7046
  287MOL0     H38744   9.270   3.221   6.322 -0.0253  2.9281  0.1677
  287MOL0     H38745   9.462   3.270   6.422  0.1734  0.1569 -0.1451
  288MOL0     O38746   0.820   2.986   8.519 -0.1980 -0.2105  0.0457
  288MOL0     C38747   0.863   2.938   8.412 -0.4526  0.3928 -0.0533
  288MOL0     O38748   0.831   2.808   8.367 -0.8305 -0.7956 -0.5388
  288MOL0     C38749   0.736   2.740   8.437 -0.3056  1.0543 -0.2056
  288MOL0     C38750   0.748   2.717   8.573 -1.3472 -0.3622 -0.3538
  288MOL0     C38751   0.645   2.645   8.642  0.6659  0.4918 -0.1713
  288MOL0     C38752   0.525   2.608   8.574  0.0656 -0.9377  0.5190
  288MOL0     O38753   0.405   2.573   8.636 -0.1414  0.2378 -0.1701
  288MOL0     C38754   0.411   2.520   8.766 -0.3765 -1.5510  0.5465
  288MOL0     C38755   0.274   2.473   8.809  0.1910 -0.7740  0.5463
  288MOL0     C38756   0.183   2.595   8.843  0.6551 -0.2903  0.1590
  288MOL0     C38757   0.044   2.547   8.875  0.2690 -0.2699 -0.1373
  288MOL0     C38758  -0.035   2.654   8.957  0.6011 -0.2394  0.9295
  288MOL0     C38759  -0.100   2.778   8.892  0.8100  0.5678  0.7610
  288MOL0     C38760  -0.158   2.746   8.756  0.8526 -0.8289  1.0924
  288MOL0     C38761  -0.232   2.864   8.697  0.6028  0.1989  0.4550
  288MOL0     N38762  -0.281   2.834   8.560 -0.4815  0.2025 -0.2758
  288MOL0     C38763  -0.215   2.865   8.446  1.3425 -0.2362 -1.2886
  288MOL0     C38764  -0.297   2.831   8.345 -1.0056  0.0519 -0.1397
  288MOL0     C38765  -0.281   2.894   8.207 -0.8091 -0.0990 -0.7684
  288MOL0     C38766  -0.402   2.979   8.156 -0.2095  0.6838 -0.4789
  288MOL0     C38767  -0.433   3.097   8.235  0.4713 -1.0386 -0.8060
  288MOL0     C38768  -0.544   3.172   8.178  0.3555  0.0164 -0.0655
  288MOL0     O38769  -0.666   3.126   8.237  0.2283 -0.2423  0.2979
  288MOL0     C38770  -0.718   3.213   8.319  0.1703  0.3683 -0.1247
  288MOL0     C38771  -0.776   3.332   8.277 -0.6477 -0.4766  0.1647
  288MOL0     C38772  -0.841   3.428   8.348  0.8454  0.6775 -0.0175
  288MOL0     C38773  -0.894   3.552   8.280  1.3120  1.2906  0.1855
  288MOL0     C38774  -0.837   3.412   8.487  1.3014  0.7739 -0.1094
  288MOL0     C38775  -0.903   3.508   8.583  0.5463 -0.6165  0.3595
  288MOL0     O38776  -0.911   3.643   8.545  0.7337 -0.4842 -0.0117
  288MOL0     C38777  -0.971   3.733   8.627 -0.2980 -0.0113 -0.5608
  288MOL0     C38778  -0.913   3.762   8.752 -0.0781 -0.9098 -0.7313
  288MOL0     C38779  -0.977   3.856   8.842  0.4854 -0.2068  1.8901
  288MOL0     C38780  -1.110   3.910   8.806 -0.2054 -0.5020  0.3468
  288MOL0     O38781  -1.182   4.004   8.875  0.0762 -0.2626  0.3442
  288MOL0     C38782  -1.120   4.063   8.995  0.5723  0.6806  0.5818
  288MOL0     C38783  -1.211   4.166   9.065  0.7837  0.5462  0.4078
  288MOL0     C38784  -1.313   4.098   9.163 -0.9054 -0.4215  0.1315
  288MOL0     C38785  -1.396   4.199   9.246 -0.0945 -0.7938  0.3428
  288MOL0     C38786  -1.529   4.227   9.183 -0.4654  0.0375  0.6869
  288MOL0     C38787  -1.623   4.112   9.223 -0.0409  0.4287  0.9224
  288MOL0     C38788  -1.732   4.099   9.113 -0.5476  0.3280 -0.5505
  288MOL0     C38789  -1.817   4.221   9.090  0.5985  0.2036  0.9807
  288MOL0    Cl38790  -1.945   4.155   8.980  0.2783 -0.1539 -0.2251
  288MOL0     C38791  -1.165   3.871   8.686  0.2625 -0.6634  0.2989
  288MOL0     C38792  -1.103   3.787   8.598 -0.6955  0.5371 -0.1106
  288MOL0     O38793  -0.938   3.468   8.691  0.3153 -0.3403  0.0349
  288MOL0     C38794  -0.776   3.295   8.539 -0.1620  0.5914  0.0689
  288MOL0     C38795  -0.719   3.195   8.454 -1.3221 -0.7529 -1.3351
  288MOL0     N38796  -0.411   2.770   8.398 -0.3114  0.6638  0.0726
  288MOL0     N38797  -0.401   2.780   8.535  0.0664  0.1792 -0.2218
  288MOL0     C38798   0.513   2.633   8.439 -0.1482 -0.1211 -0.0441
  288MOL0     C38799   0.619   2.698   8.369  0.1657 -0.4841 -0.7407
  288MOL0     C38800   0.961   3.013   8.323  0.6059  0.6101 -0.4328
  288MOL0     C38801   1.007   2.959   8.195 -0.2024 -0.3071 -0.7768
  288MOL0     C38802   1.106   3.032   8.126 -0.1780 -0.3904 -0.1795
  288MOL0     C38803   1.157   3.154   8.172  0.5649 -0.2340 -0.0841
  288MOL0     O38804   1.253   3.225   8.101  0.5014  0.2878  0.0735
  288MOL0     C38805   1.350   3.147   8.025 -0.1532 -0.3969  0.0630
  288MOL0     C38806   1.499   3.180   8.055 -0.9720 -0.1243 -0.4919
  288MOL0     C38807   1.593   3.079   7.983  0.6755 -0.9788  1.3274
  288MOL0     C38808   1.738   3.124   7.971 -0.6070  0.7565  0.1501
  288MOL0     C38809   1.797   3.158   8.098 -0.0272  0.5045 -0.5580
  288MOL0     C38810   1.875   3.169   8.196  0.9300 -0.0904 -0.6224
  288MOL0     C38811   1.099   3.213   8.289 -0.0703  0.2419  0.2125
  288MOL0     C38812   1.014   3.139   8.371 -0.5452 -0.2727  0.1699
  288MOL0     H38813   0.838   2.743   8.628 -1.4219 -3.0589  1.2360
  288MOL0     H38814   0.648   2.636   8.751 -2.0297  1.8845  0.0884
  288MOL0     H38815   0.466   2.427   8.751  1.2971 -0.4586 -0.4388
  288MOL0     H38816   0.451   2.592   8.838 -3.1484  0.0059  0.6733
  288MOL0     H38817   0.227   2.415   8.729 -3.7491 -0.1362  2.1299
  288MOL0     H38818   0.267   2.394   8.884  0.9455 -0.5525  0.8597
  288MOL0     H38819   0.223   2.649   8.929  0.4988  1.9642 -1.0924
  288MOL0     H38820   0.169   2.661   8.756 -1.0919  0.4302  0.9472
  288MOL0     H38821  -0.023   2.514   8.796  1.1768  0.3228 -1.1804
  288MOL0     H38822   0.068   2.461   8.939 -2.0275 -1.4320 -0.7454
  288MOL0     H38823  -0.119   2.606   9.008  0.9957  1.3162  3.1945
  288MOL0     H38824   0.018   2.685   9.047 -3.8585 -0.3314  3.9170
  288MOL0     H38825  -0.175   2.811   8.964  1.0190  0.4382  1.0406
  288MOL0     H38826  -0.026   2.858   8.889  0.7907  0.6012  1.1666
  288MOL0     H38827  -0.071   2.714   8.696 -0.9460 -2.3297 -0.8723
  288MOL0     H38828  -0.234   2.669   8.771  2.0190 -2.2200  0.2500
  288MOL0     H38829  -0.174   2.957   8.695 -0.1725  0.6855 -0.5002
  288MOL0     H38830  -0.320   2.893   8.754 -0.4604 -1.3930 -0.3263
  288MOL0     H38831  -0.132   2.934   8.435  1.1267 -0.0445 -1.7235
  288MOL0     H38832  -0.193   2.959   8.201 -0.5042 -0.2528  1.2532
  288MOL0     H38833  -0.273   2.814   8.134 -1.7736 -1.9994  1.1132
  288MOL0     H38834  -0.486   2.909   8.156  0.5201 -0.2015  0.3226
  288MOL0     H38835  -0.378   3.008   8.054 -1.2157  0.4866 -0.7819
  288MOL0     H38836  -0.344   3.160   8.243  0.6452 -1.4179  0.5336
  288MOL0     H38837  -0.447   3.075   8.342  1.5670 -0.2524 -0.4815
  288MOL0     H38838  -0.536   3.143   8.072 -1.7955 -2.3970  0.3283
  288MOL0     H38839  -0.521   3.277   8.192  2.9553 -0.4645 -0.2833
  288MOL0     H38840  -0.764   3.346   8.169  1.8972  0.9478  0.5383
  288MOL0     H38841  -0.833   3.639   8.307 -1.0377  2.8616  0.7060
  288MOL0     H38842  -0.907   3.536   8.172 -2.3190  1.0462  0.5561
  288MOL0     H38843  -0.998   3.559   8.312  1.3285 -1.2786  1.0374
  288MOL0     H38844  -0.818   3.718   8.781 -0.2482  0.1395  1.5609
  288MOL0     H38845  -0.919   3.887   8.928  1.9749  3.0410 -0.1243
  288MOL0     H38846  -1.084   3.982   9.059 -1.1984  0.1793  0.9908
  288MOL0     H38847  -1.030   4.110   8.955  0.4640 -0.8984 -1.7142
  288MOL0     H38848  -1.143   4.228   9.123  0.3696  0.0913  1.4024
  288MOL0     H38849  -1.266   4.228   8.994  1.5248 -0.0914 -0.7574
  288MOL0     H38850  -1.252   4.034   9.228  2.6333  0.8034 -1.6833
  288MOL0     H38851  -1.379   4.034   9.104  1.3397 -1.2312 -1.6988
  288MOL0     H38852  -1.406   4.155   9.345 -1.1529 -2.5152 -0.4902
  288MOL0     H38853  -1.335   4.290   9.254 -0.7210 -0.5738  4.7979
  288MOL0     H38854  -1.508   4.229   9.075  1.7151  0.8338  1.0800
  288MOL0     H38855  -1.571   4.326   9.206  1.8708  1.8624 -2.0986
  288MOL0     H38856  -1.569   4.017   9.223 -3.4804 -2.0380 -4.4436
  288MOL0     H38857  -1.664   4.125   9.323  1.2403 -1.5164  1.7560
  288MOL0     H38858  -1.794   4.013   9.138  2.2866 -1.0751  2.3011
  288MOL0     H38859  -1.674   4.070   9.025 -0.6141 -1.0487 -0.1657
  288MOL0     H38860  -1.776   4.313   9.048 -3.6974  1.3579 -1.2868
  288MOL0     H38861  -1.869   4.251   9.181 -1.9169  2.0375 -0.9499
  288MOL0     H38862  -1.265   3.910   8.673  1.0498  0.7899 -2.0239
  288MOL0     H38863  -1.144   3.775   8.499  0.2527 -1.2293 -0.3216
  288MOL0     H38864  -0.779   3.279   8.646  0.9709  2.7138  0.4713
  288MOL0     H38865  -0.674   3.102   8.487  2.2166  1.1745 -0.1932
  288MOL0     H38866   0.426   2.593   8.388 -0.8600 -0.1623  1.1631
  288MOL0     H38867   0.591   2.720   8.266 -1.3276  0.3955 -0.1731
  288MOL0     H38868   0.963   2.866   8.159 -1.1390 -0.2474  0.1770
  288MOL0     H38869   1.138   2.994   8.029  1.4844 -1.7969  0.8640
  288MOL0     H38870   1.336   3.041   8.045 -0.4256 -0.2302  0.8101
  288MOL0     H38871   1.316   3.168   7.923  2.4339 -0.3013 -0.8316
  288MOL0     H38872   1.508   3.173   8.164 -0.4187 -1.0394 -0.5911
  288MOL0     H38873   1.527   3.282   8.025  0.8513 -1.1641 -2.6310
  288MOL0     H38874   1.551   3.054   7.885 -0.9556 -0.9244  1.9719
  288MOL0     H38875   1.586   2.988   8.043 -2.3874 -1.4815  0.3957
  288MOL0     H38876   1.746   3.213   7.909  1.2869  0.1000 -0.6393
  288MOL0     H38877   1.803   3.050   7.924 -0.4878  0.0657  1.3487
  288MOL0     H38878   1.943   3.182   8.278 -2.4984  2.1821  2.1599
  288MOL0     H38879   1.130   3.313   8.319  1.7966 -0.1008 -0.4367
  288MOL0     H38880   0.982   3.192   8.460 -0.6734  2.7221 -1.5320
  289MOL0     O38881  11.213   6.445   6.251  0.6093 -0.1148 -0.1448
  289MOL0     C38882  11.103   6.412   6.209 -0.1699 -1.3346 -0.7580
  289MOL0     O38883  11.067   6.305   6.140  0.2016 -0.1940  0.1420
  289MOL0     C38884  11.156   6.201   6.125  0.2989  1.4577  1.1090
  289MOL0     C38885  11.295   6.205   6.099  0.7702 -0.1360  0.4824
  289MOL0     C38886  11.371   6.088   6.080  0.1931  0.6095  0.3262
  289MOL0     C38887  11.304   5.961   6.089 -0.8903  0.0563  0.5265
  289MOL0     O38888  11.362   5.837   6.074 -0.3479 -0.1509  0.7869
  289MOL0     C38889  11.500   5.829   6.060  0.4733  0.3371 -0.1093
  289MOL0     C38890  11.571   5.850   6.198 -0.6661 -0.2284 -0.0088
  289MOL0     C38891  11.689   5.757   6.241  0.5553 -1.0569 -1.0903
  289MOL0     C38892  11.658   5.601   6.240  0.2909 -0.6200  0.0174
  289MOL0     C38893  11.753   5.520   6.334  0.0402 -0.2875 -0.3558
  289MOL0     C38894  11.712   5.372   6.331 -0.3692  0.1865  0.4007
  289MOL0     C38895  11.771   5.275   6.443 -0.8907 -0.5735 -0.2174
  289MOL0     C38896  11.758   5.325   6.592  0.2780  0.6027 -0.0749
  289MOL0     N38897  11.613   5.342   6.637  0.6013  0.1517 -0.0342
  289MOL0     C38898  11.527   5.450   6.619  0.4086  0.4724 -0.2874
  289MOL0     C38899  11.401   5.399   6.645 -0.7551 -0.0099  0.4721
  289MOL0     C38900  11.278   5.486   6.649 -0.9025 -0.0428 -0.2243
  289MOL0     C38901  11.244   5.542   6.783 -0.1948 -0.3038 -0.5084
  289MOL0     C38902  11.116   5.633   6.769  0.4649 -0.3550 -0.7822
  289MOL0     C38903  11.041   5.649   6.902 -0.1257  0.2943 -0.6240
  289MOL0     O38904  10.943   5.751   6.904 -0.2936  0.4542  0.3931
  289MOL0     C38905  10.832   5.740   6.823 -0.3510  0.2045  0.6694
  289MOL0     C38906  10.776   5.616   6.792  0.7250 -1.6089  0.1291
  289MOL0     C38907  10.661   5.599   6.723 -0.0032 -0.2988 -0.7250
  289MOL0     C38908  10.617   5.462   6.706  0.9524  0.2894  0.3911
  289MOL0     C38909  10.589   5.722   6.683  0.1458  0.2574 -0.0175
  289MOL0     C38910  10.461   5.729   6.613  0.6973  0.6796  0.0024
  289MOL0     O38911  10.432   5.615   6.522 -0.1181  0.6696 -0.6495
  289MOL0     C38912  10.338   5.611   6.423 -0.1369  0.3324 -1.5282
  289MOL0     C38913  10.331   5.726   6.347  0.0746 -0.3873  0.6795
  289MOL0     C38914  10.224   5.735   6.254 -0.2288 -0.8789  0.6279
  289MOL0     C38915  10.138   5.628   6.228 -0.6800 -1.3727  0.4072
  289MOL0     O38916  10.036   5.649   6.149  0.4788  0.5988  0.1326
  289MOL0     C38917   9.948   5.548   6.117  0.6354 -0.1655 -0.4977
  289MOL0     C38918   9.856   5.597   6.007 -0.5061 -0.5682  0.8264
  289MOL0     C38919   9.804   5.740   6.025  0.4078  0.7059 -0.6807
  289MOL0     C38920   9.672   5.751   5.956  0.4973  0.0519 -0.2985
  289MOL0     C38921   9.629   5.896   5.916 -0.1239 -0.5969  0.5022
  289MOL0     C38922   9.477   5.899   5.898 -0.8319  0.3020  0.5129
  289MOL0     C38923   9.448   6.047   5.881 -0.6760 -0.3676 -0.3987
  289MOL0     C38924   9.300   6.072   5.859 -0.0311 -0.6396 -0.3904
  289MOL0    Cl38925   9.267   5.992   5.703 -0.2841  0.1833  0.1170
  289MOL0     C38926  10.166   5.512   6.293 -0.7639 -0.1150  0.1679
  289MOL0     C38927  10.268   5.495   6.389 -0.2937 -0.1513  0.5023
  289MOL0     O38928  10.384   5.827   6.629 -0.2062  0.5792  0.2890
  289MOL0     C38929  10.646   5.848   6.725  0.6117 -0.5942  0.6220
  289MOL0     C38930  10.766   5.864   6.789 -0.4797  0.2243  0.4267
  289MOL0     N38931  11.409   5.268   6.677  0.9809  0.3114  0.4530
  289MOL0     N38932  11.536   5.231   6.673 -0.9673 -0.0265  0.2691
  289MOL0     C38933  11.172   5.958   6.123  0.5872 -0.0236 -0.7351
  289MOL0     C38934  11.101   6.078   6.147 -0.5044  0.3251 -0.2080
  289MOL0     C38935  10.994   6.499   6.244 -0.2018 -0.3241  1.0159
  289MOL0     C38936  10.868   6.493   6.192 -0.0972  0.1872  0.3172
  289MOL0     C38937  10.768   6.579   6.242 -0.8013  0.6749  1.0807
  289MOL0     C38938  10.790   6.661   6.343 -0.2019  0.7970  0.6561
  289MOL0     O38939  10.689   6.750   6.386 -0.4773 -0.2837  0.2591
  289MOL0     C38940  10.739   6.870   6.457  0.3267 -0.0195 -0.9251
  289MOL0     C38941  10.643   6.984   6.440  0.2808 -0.3194  0.5024
  289MOL0     C38942  10.495   6.946   6.446  0.0573  0.2026  0.6951
  289MOL0     C38943  10.397   7.055   6.451  0.6969  0.1210  0.3921
  289MOL0     C38944  10.381   7.113   6.583 -0.5143  0.1889  0.4566
  289MOL0     C38945  10.357   7.173   6.679 -0.1339 -0.7590 -0.0287
  289MOL0     C38946  10.923   6.663   6.401  0.4167 -0.0362  0.4510
  289MOL0     C38947  11.023   6.590   6.352  0.5219  0.1387 -0.0897
  289MOL0     H38948  11.343   6.302   6.095  2.1316 -0.8201 -0.3843
  289MOL0     H38949  11.477   6.100   6.059 -0.2141  1.6721 -1.3120
  289MOL0     H38950  11.542   5.732   6.034 -0.6060 -0.0084 -0.6073
  289MOL0     H38951  11.545   5.884   5.977  1.1250 -1.1895 -0.8136
  289MOL0     H38952  11.615   5.950   6.198  0.8670 -0.7937  3.0588
  289MOL0     H38953  11.496   5.848   6.278 -0.6096  3.6791  0.3311
  289MOL0     H38954  11.776   5.790   6.183  1.3049  2.2786  1.5892
  289MOL0     H38955  11.704   5.793   6.343  1.5511  0.3747 -1.7080
  289MOL0     H38956  11.560   5.582   6.283 -0.4003  0.6987 -0.8999
  289MOL0     H38957  11.648   5.549   6.144  1.8133  0.3967 -0.7348
  289MOL0     H38958  11.855   5.530   6.296  0.4612 -2.3905  0.0680
  289MOL0     H38959  11.751   5.559   6.437 -0.3444  3.2324 -1.5699
  289MOL0     H38960  11.603   5.365   6.325 -0.4623  1.5894 -0.1708
  289MOL0     H38961  11.748   5.323   6.240 -2.8338 -1.2220  0.1037
  289MOL0     H38962  11.726   5.175   6.436 -0.4986 -1.1347  3.5398
  289MOL0     H38963  11.877   5.270   6.415 -0.5856  2.8590 -0.0652
  289MOL0     H38964  11.816   5.410   6.627  0.8823  0.1159  0.1282
  289MOL0     H38965  11.795   5.241   6.652 -1.6048 -0.3590 -0.1583
  289MOL0     H38966  11.548   5.551   6.585  3.5119  0.6491  1.7579
  289MOL0     H38967  11.300   5.568   6.581  1.7989  0.4218  1.0981
  289MOL0     H38968  11.193   5.430   6.609  1.3728 -1.8563 -2.8793
  289MOL0     H38969  11.321   5.603   6.830 -3.5648  3.4527  0.7357
  289MOL0     H38970  11.217   5.457   6.846 -1.7045  1.4903  1.4262
  289MOL0     H38971  11.051   5.600   6.688  0.2211  1.2408 -1.2599
  289MOL0     H38972  11.137   5.735   6.737  2.1490 -0.7104 -0.9385
  289MOL0     H38973  11.115   5.672   6.979 -0.4431 -0.0309 -0.2151
  289MOL0     H38974  10.993   5.561   6.945  0.2707  0.6074  0.4753
  289MOL0     H38975  10.832   5.531   6.828  1.5299 -0.9832  0.3720
  289MOL0     H38976  10.519   5.444   6.660  1.3546 -0.3418 -0.2285
  289MOL0     H38977  10.683   5.416   6.632 -2.8307 -0.5123 -2.8610
  289MOL0     H38978  10.624   5.409   6.802  2.0395  1.8971  1.2486
  289MOL0     H38979  10.397   5.808   6.371  1.1478 -1.5320  1.7716
  289MOL0     H38980  10.202   5.829   6.203  0.3699 -1.9190 -1.7111
  289MOL0     H38981  10.001   5.460   6.079 -0.7626 -0.3951 -2.0273
  289MOL0     H38982   9.898   5.513   6.208  0.2356 -0.0941 -0.6866
  289MOL0     H38983   9.899   5.611   5.907 -0.1153 -0.8168  0.9575
  289MOL0     H38984   9.783   5.516   5.995 -0.1646 -0.5982 -1.7429
  289MOL0     H38985   9.869   5.818   5.985 -1.0234  1.6626 -1.2270
  289MOL0     H38986   9.799   5.751   6.133 -0.0002  0.3783 -0.6637
  289MOL0     H38987   9.677   5.696   5.861 -0.6605 -1.6262  0.5660
  289MOL0     H38988   9.592   5.717   6.023  0.9761  0.1656  0.3358
  289MOL0     H38989   9.678   5.916   5.820 -2.5106 -2.3824 -1.2469
  289MOL0     H38990   9.671   5.965   5.989  3.2791 -0.0776 -1.7058
  289MOL0     H38991   9.439   5.842   5.812 -3.5977 -2.6009  3.4118
  289MOL0     H38992   9.427   5.871   5.991 -1.0910  2.6310  1.1264
  289MOL0     H38993   9.496   6.101   5.799 -2.9121  0.8075 -1.0416
  289MOL0     H38994   9.482   6.085   5.978 -0.8496 -2.4542  0.5173
  289MOL0     H38995   9.269   6.177   5.867 -3.2146 -1.5303  0.6316
  289MOL0     H38996   9.239   6.022   5.935 -2.0249  2.2264  0.0608
  289MOL0     H38997  10.112   5.419   6.280 -1.2068  0.3016 -1.1086
  289MOL0     H38998  10.277   5.400   6.442  1.3904 -0.4605 -0.2623
  289MOL0     H38999  10.589   5.940   6.714 -0.6439 -1.3053  0.9886
  289MOL0     H39000  10.814   5.959   6.811  1.1931 -0.5906  0.3863
  289MOL0     H39001  11.131   5.858   6.134  1.0408 -0.8837 -5.2199
  289MOL0     H39002  10.993   6.074   6.159 -1.0562 -0.9139 -4.1588
  289MOL0     H39003  10.859   6.422   6.111 -3.0252 -0.9891  1.5580
  289MOL0     H39004  10.674   6.580   6.187 -0.5117 -2.5903  0.3269
  289MOL0     H39005  10.742   6.853   6.565 -1.8547  7.1610  0.8448
  289MOL0     H39006  10.834   6.912   6.421  0.4254  0.7698  0.2175
  289MOL0     H39007  10.665   7.025   6.340 -2.8330  1.2945  0.3507
  289MOL0     H39008  10.668   7.055   6.519  0.7168 -1.6383  1.5917
  289MOL0     H39009  10.465   6.872   6.522 -2.3206  0.5040  0.1252
  289MOL0     H39010  10.479   6.889   6.354 -0.6029  1.8063 -0.2126
  289MOL0     H39011  10.299   7.030   6.410  0.0739  2.4751  0.2612
  289MOL0     H39012  10.432   7.135   6.385  1.2954 -0.1386  0.3901
  289MOL0     H39013  10.334   7.238   6.761  1.9777  2.6704 -1.9388
  289MOL0     H39014  10.955   6.724   6.485  2.5066 -1.6093  0.8762
  289MOL0     H39015  11.118   6.588   6.406 -0.1430 -3.2284  1.2356
  290MOL0     O39016   8.282  10.914   9.645  0.2676 -0.1494  0.0357
  290MOL0     C39017   8.331  10.876   9.752 -0.3259  0.6176 -0.2163
  290MOL0     O39018   8.265  10.793   9.838  0.1180  0.2168 -0.6148
  290MOL0     C39019   8.136  10.757   9.829 -0.6124  0.9588 -1.0639
  290MOL0     C39020   8.046  10.777   9.725  0.4255  0.4783  0.6402
  290MOL0     C39021   7.923  10.711   9.733 -0.8425 -0.5160  0.1726
  290MOL0     C39022   7.877  10.638   9.844 -0.1310  0.1246  0.6203
  290MOL0     O39023   7.751  10.589   9.864 -0.6341 -0.2303 -0.3153
  290MOL0     C39024   7.687  10.517   9.762  0.3688  0.4393  0.1702
  290MOL0     C39025   7.585  10.595   9.683 -0.6479  0.2822 -0.5384
  290MOL0     C39026   7.489  10.498   9.616 -0.0909 -0.2742 -0.6147
  290MOL0     C39027   7.370  10.468   9.704 -0.0542  0.4793  0.7066
  290MOL0     C39028   7.290  10.338   9.663  0.2444  0.2206  0.1813
  290MOL0     C39029   7.169  10.332   9.761 -0.0150  0.7160  0.2499
  290MOL0     C39030   7.060  10.233   9.694 -0.2032 -0.3428 -0.0454
  290MOL0     C39031   6.926  10.244   9.781 -0.6406 -0.4070  0.3255
  290MOL0     N39032   6.831  10.149   9.733  0.8905  0.0756 -0.2955
  290MOL0     C39033   6.711  10.116   9.796 -0.2973 -0.0478 -0.3483
  290MOL0     C39034   6.668  10.010   9.725 -0.0712 -0.3283 -0.5755
  290MOL0     C39035   6.539   9.933   9.733  0.6250  0.2630  0.3287
  290MOL0     C39036   6.552   9.781   9.703  0.1786 -0.3303 -0.3664
  290MOL0     C39037   6.429   9.699   9.741  0.5442  0.0642 -0.2158
  290MOL0     C39038   6.454   9.554   9.672  1.1855 -0.0742 -0.0887
  290MOL0     O39039   6.355   9.453   9.688  0.2135  0.0166 -0.3628
  290MOL0     C39040   6.230   9.485   9.639 -0.8065  0.6368 -0.0969
  290MOL0     C39041   6.198   9.575   9.537  0.4890 -0.2975  0.2576
  290MOL0     C39042   6.070   9.623   9.504  0.2129  0.5702 -0.6118
  290MOL0     C39043   6.052   9.729   9.404  0.3787  0.6880 -0.7394
  290MOL0     C39044   5.959   9.556   9.566  0.3884  0.1020 -0.3433
  290MOL0     C39045   5.808   9.590   9.543 -0.6904 -0.0916 -0.8633
  290MOL0     O39046   5.721   9.515   9.624  0.0258  0.4087 -1.0320
  290MOL0     C39047   5.588   9.543   9.615 -0.5968 -0.4565 -0.8454
  290MOL0     C39048   5.519   9.634   9.698 -0.0630 -0.0076 -0.6378
  290MOL0     C39049   5.380   9.643   9.699  0.5068 -0.0029 -0.2790
  290MOL0     C39050   5.301   9.565   9.619 -1.0662  0.1854  0.1349
  290MOL0     O39051   5.166   9.576   9.627  1.0412 -0.2788 -0.6691
  290MOL0     C39052   5.082   9.476   9.575 -0.1700  0.8223 -0.3088
  290MOL0     C39053   4.930   9.482   9.595 -0.5304 -0.0911  0.1276
  290MOL0     C39054   4.865   9.369   9.516  0.5428 -0.0109  1.0551
  290MOL0     C39055   4.738   9.327   9.587 -0.0438  0.4492 -0.1612
  290MOL0     C39056   4.696   9.184   9.557 -0.1880  0.6763  0.6542
  290MOL0     C39057   4.548   9.156   9.560 -0.3633 -0.5983 -0.2243
  290MOL0     C39058   4.513   9.112   9.702  0.2482  0.5464 -0.3840
  290MOL0     C39059   4.367   9.142   9.738  0.1652  0.1385 -0.1974
  290MOL0    Cl39060   4.251   9.033   9.673 -0.0328  0.2529  0.1130
  290MOL0     C39061   5.368   9.468   9.546 -1.1819  1.1503 -0.0581
  290MOL0     C39062   5.502   9.448   9.552 -0.3227 -0.7249 -0.1049
  290MOL0     O39063   5.774   9.651   9.437  0.2270 -0.4731  0.3488
  290MOL0     C39064   5.989   9.468   9.674 -0.0702  0.0220  0.0875
  290MOL0     C39065   6.119   9.423   9.706  0.0968 -0.1993  0.0521
  290MOL0     N39066   6.735  10.003   9.607  0.0572 -0.5015  0.2464
  290MOL0     N39067   6.835  10.075   9.620 -0.8317 -0.6024  0.0848
  290MOL0     C39068   7.971  10.620   9.945  0.1104  0.4201 -0.2578
  290MOL0     C39069   8.101  10.680   9.940  0.5793  0.1824  0.5476
  290MOL0     C39070   8.470  10.923   9.772  0.1438  0.2552 -0.5051
  290MOL0     C39071   8.514  10.920   9.904 -0.4238  0.6546  0.2582
  290MOL0     C39072   8.635  10.965   9.937 -0.3480 -0.2734  0.0953
  290MOL0     C39073   8.724  11.025   9.844  0.7192  0.4498  0.4133
  290MOL0     O39074   8.849  11.077   9.880  0.2933  1.0455 -0.6328
  290MOL0     C39075   8.906  11.083  10.010 -0.0343 -0.6520  0.3575
  290MOL0     C39076   9.011  11.201  10.031  0.4951  0.2257  0.0837
  290MOL0     C39077   8.951  11.337  10.062 -1.4486  0.2622  0.4443
  290MOL0     C39078   9.052  11.445  10.093  0.6076 -0.3645 -0.1892
  290MOL0     C39079   9.135  11.416  10.208 -0.7486 -0.1808  0.3245
  290MOL0     C39080   9.216  11.393  10.303 -1.2163 -1.5784  0.1635
  290MOL0     C39081   8.676  11.037   9.716  0.5950  0.4941  0.2478
  290MOL0     C39082   8.550  10.992   9.679  0.0389 -0.4222  0.9599
  290MOL0     H39083   8.064  10.824   9.628 -2.9811 -0.9470 -0.8299
  290MOL0     H39084   7.860  10.710   9.644 -1.5099  1.8590  0.5474
  290MOL0     H39085   7.761  10.465   9.699  1.2827  0.2455  1.3767
  290MOL0     H39086   7.635  10.432   9.808  1.2771 -0.9484 -1.2204
  290MOL0     H39087   7.527  10.660   9.749  0.0176 -1.8878  2.3842
  290MOL0     H39088   7.643  10.651   9.610  1.3090  0.0489  0.7786
  290MOL0     H39089   7.453  10.541   9.522 -1.6850  1.1187  0.5694
  290MOL0     H39090   7.548  10.407   9.602 -1.5272 -1.7104  2.0287
  290MOL0     H39091   7.397  10.452   9.809 -0.5348 -0.8585  0.6403
  290MOL0     H39092   7.309  10.559   9.702  0.5062  0.8484 -0.8743
  290MOL0     H39093   7.245  10.358   9.565 -0.1967 -0.4558  0.2375
  290MOL0     H39094   7.357  10.253   9.670 -0.2455 -0.0841  1.5140
  290MOL0     H39095   7.201  10.299   9.860  0.1510 -2.0611 -0.6449
  290MOL0     H39096   7.118  10.429   9.766  0.2279  0.7814  1.6716
  290MOL0     H39097   7.039  10.261   9.591  1.1281 -1.6123 -0.7046
  290MOL0     H39098   7.102  10.132   9.700  1.5924  0.3150 -0.8244
  290MOL0     H39099   6.886  10.345   9.765  0.0569 -0.6479 -4.1497
  290MOL0     H39100   6.950  10.217   9.884  0.9606 -2.0519 -0.4180
  290MOL0     H39101   6.659  10.160   9.880  2.2161  0.2411  1.1454
  290MOL0     H39102   6.495   9.953   9.831  0.9204  3.0242 -0.0123
  290MOL0     H39103   6.464   9.972   9.664  1.6374  2.0280  0.1663
  290MOL0     H39104   6.646   9.741   9.740 -0.1208  0.3258  1.2340
  290MOL0     H39105   6.566   9.759   9.597  1.3249 -1.0874 -0.0686
  290MOL0     H39106   6.338   9.752   9.709  1.3743  0.6171 -1.7930
  290MOL0     H39107   6.435   9.681   9.848  0.4504 -2.7001 -0.6091
  290MOL0     H39108   6.543   9.520   9.725 -0.3096 -2.5664  1.0386
  290MOL0     H39109   6.474   9.564   9.565 -0.2046  0.5937 -0.3126
  290MOL0     H39110   6.275   9.625   9.479  1.5773 -0.0658  1.8430
  290MOL0     H39111   6.042   9.695   9.301 -1.4006  4.3613 -1.9608
  290MOL0     H39112   5.971   9.797   9.432  1.9567  1.1850  3.3641
  290MOL0     H39113   6.140   9.793   9.418  0.3109  0.3721  1.7457
  290MOL0     H39114   5.573   9.689   9.775 -2.0782  0.1386  0.7311
  290MOL0     H39115   5.342   9.714   9.772  0.8914  0.9996 -1.0365
  290MOL0     H39116   5.104   9.462   9.469 -2.4967  0.0146 -0.7341
  290MOL0     H39117   5.116   9.384   9.624  0.2473  0.9047 -0.4376
  290MOL0     H39118   4.915   9.480   9.704  1.2273  2.5324  0.5188
  290MOL0     H39119   4.904   9.577   9.549  0.8135 -0.9650 -2.6334
  290MOL0     H39120   4.931   9.282   9.523  1.7536  0.8609  0.7974
  290MOL0     H39121   4.854   9.392   9.410  1.9745  1.7900  1.2558
  290MOL0     H39122   4.749   9.356   9.691 -0.2831 -3.6623  1.1833
  290MOL0     H39123   4.660   9.393   9.546 -1.4379 -0.5438  0.8300
  290MOL0     H39124   4.750   9.111   9.618  3.3260 -0.0010 -2.8560
  290MOL0     H39125   4.731   9.169   9.455 -0.6449  1.4752  0.3698
  290MOL0     H39126   4.483   9.241   9.538 -2.3583 -1.4156  2.1157
  290MOL0     H39127   4.529   9.077   9.486 -2.5251 -0.2480 -0.1049
  290MOL0     H39128   4.575   9.172   9.770  0.1078  2.1573 -1.6056
  290MOL0     H39129   4.543   9.009   9.719  1.3934  0.0461 -4.4501
  290MOL0     H39130   4.344   9.242   9.699  1.1575 -0.4483 -2.4419
  290MOL0     H39131   4.345   9.142   9.845 -2.3697 -2.1524 -0.6153
  290MOL0     H39132   5.316   9.398   9.481  0.4653 -0.4267  0.2469
  290MOL0     H39133   5.546   9.363   9.501  2.7310  0.2753  0.6707
  290MOL0     H39134   5.909   9.432   9.738 -1.1765  1.0858 -0.6706
  290MOL0     H39135   6.139   9.356   9.789 -0.8218 -1.5937 -0.8008
  290MOL0     H39136   7.948  10.565  10.035 -3.1058  1.5470 -0.2406
  290MOL0     H39137   8.186  10.659  10.004  0.6387  1.5443  0.9374
  290MOL0     H39138   8.459  10.892   9.993  0.6675 -0.1991  0.6854
  290MOL0     H39139   8.677  10.959  10.037  0.7215 -3.2637 -0.4497
  290MOL0     H39140   8.824  11.104  10.079 -0.9108 -0.1791 -0.7995
  290MOL0     H39141   8.955  10.988  10.034 -1.8559 -1.5444  0.7245
  290MOL0     H39142   9.062  11.213   9.935 -1.7367  0.8812 -1.0925
  290MOL0     H39143   9.084  11.168  10.106  0.0473 -1.0043  0.0138
  290MOL0     H39144   8.886  11.327  10.150  0.9803 -1.4615  2.1745
  290MOL0     H39145   8.892  11.369   9.976  0.0744 -0.4315 -0.9030
  290MOL0     H39146   9.001  11.537  10.124  0.1295  0.0513 -2.0511
  290MOL0     H39147   9.106  11.473  10.002  0.0417  2.7208  0.3221
  290MOL0     H39148   9.280  11.364  10.384 -0.5981 -1.7173 -0.3702
  290MOL0     H39149   8.738  11.090   9.645 -3.8128  4.4867 -1.1316
  290MOL0     H39150   8.533  11.001   9.572  2.5098 -1.2178  0.4540
  291MOL0     O39151   6.605  10.003  11.058  0.3821 -0.6454 -0.4792
  291MOL0     C39152   6.717   9.963  11.032 -0.3120  0.7450 -0.5343
  291MOL0     O39153   6.757   9.924  10.910 -0.1682  0.0388 -0.5923
  291MOL0     C39154   6.666   9.920  10.812  1.1482  0.1541  0.1267
  291MOL0     C39155   6.646  10.033  10.731 -0.7440  0.4901 -0.0622
  291MOL0     C39156   6.542  10.032  10.641  0.2367 -0.4750  0.2486
  291MOL0     C39157   6.457   9.923  10.620  0.1930  0.4531 -0.8311
  291MOL0     O39158   6.358   9.917  10.522  0.1466  0.4709 -0.3118
  291MOL0     C39159   6.267  10.036  10.523 -0.7229  0.2883 -0.4799
  291MOL0     C39160   6.163  10.029  10.419  0.2448 -0.0242  0.6272
  291MOL0     C39161   6.075   9.904  10.437 -0.1161 -0.0885 -0.3965
  291MOL0     C39162   5.952   9.908  10.332 -0.0687  0.5707 -0.0807
  291MOL0     C39163   5.845   9.816  10.387  0.6008  0.0994 -0.1803
  291MOL0     C39164   5.752   9.767  10.265 -0.4003 -0.0727  0.2521
  291MOL0     C39165   5.675   9.891  10.200 -0.3603  0.9710 -1.1107
  291MOL0     C39166   5.625   9.853  10.066 -0.0479  0.1176  0.6336
  291MOL0     N39167   5.528   9.749  10.063 -0.1893 -0.6993 -0.5288
  291MOL0     C39168   5.398   9.772  10.078  0.0094 -0.1281 -0.2177
  291MOL0     C39169   5.333   9.652  10.069 -0.3880  0.1456 -0.2263
  291MOL0     C39170   5.192   9.611  10.080  0.3443 -0.5260  0.6068
  291MOL0     C39171   5.094   9.724  10.020 -0.3005 -0.2048 -0.5616
  291MOL0     C39172   4.952   9.701  10.060 -0.1063  0.0560  0.0351
  291MOL0     C39173   4.863   9.819  10.008 -0.5821  0.9634 -0.9754
  291MOL0     O39174   4.850   9.812   9.870  0.3154  0.4865  0.2083
  291MOL0     C39175   4.755   9.736   9.808  0.6339  0.2587  0.4083
  291MOL0     C39176   4.660   9.644   9.862  0.5636 -0.1267  0.2778
  291MOL0     C39177   4.561   9.577   9.780  0.3902 -0.7833 -0.8767
  291MOL0     C39178   4.485   9.466   9.845 -0.7265 -0.4125 -0.3164
  291MOL0     C39179   4.549   9.623   9.642  0.0801  0.2496 -0.4434
  291MOL0     C39180   4.433   9.577   9.560 -0.2208  0.2450  0.0650
  291MOL0     O39181   4.431   9.627   9.437  0.2309  0.0911  0.8202
  291MOL0     C39182   4.330   9.590   9.351 -1.0562  0.4822 -0.8622
  291MOL0     C39183   4.224   9.677   9.326 -0.4679  0.0000  0.5833
  291MOL0     C39184   4.125   9.649   9.223 -0.0831 -0.6108 -0.7819
  291MOL0     C39185   4.127   9.530   9.155  0.0318  0.6942 -0.4603
  291MOL0     O39186   4.022   9.488   9.074 -0.5979 -0.2803 -0.2077
  291MOL0     C39187   3.903   9.573   9.053  1.1445  0.9683 -0.1232
  291MOL0     C39188   3.821   9.502   8.949 -0.3370  0.1593  1.9463
  291MOL0     C39189   3.680   9.556   8.943 -0.0396  0.6697 -0.4308
  291MOL0     C39190   3.649   9.690   8.876  0.9551 -0.1399  0.1027
  291MOL0     C39191   3.493   9.709   8.877  0.5762 -0.8127  0.0603
  291MOL0     C39192   3.434   9.718   9.011 -0.3204  0.4893  0.8663
  291MOL0     C39193   3.297   9.787   8.997 -0.5016 -1.1967 -0.3125
  291MOL0     C39194   3.303   9.940   9.000 -0.2546 -0.1833 -0.8449
  291MOL0    Cl39195   3.385   9.992   9.152  0.5783  0.4175  0.2030
  291MOL0     C39196   4.228   9.437   9.175 -1.0086 -0.5570 -0.1788
  291MOL0     C39197   4.334   9.476   9.278 -0.5481  0.1067 -0.5855
  291MOL0     O39198   4.351   9.490   9.596 -0.2017  0.3562 -1.0345
  291MOL0     C39199   4.630   9.708   9.588  0.3335 -0.8981 -0.1897
  291MOL0     C39200   4.722   9.767   9.673  0.0130  0.0996  0.0688
  291MOL0     N39201   5.434   9.556  10.048 -0.3826 -0.3944 -0.5234
  291MOL0     N39202   5.546   9.617  10.049 -0.3175  0.5517  0.4387
  291MOL0     C39203   6.473   9.812  10.703 -0.8171  0.1208 -0.5651
  291MOL0     C39204   6.577   9.816  10.797  0.0863  0.6618  0.0132
  291MOL0     C39205   6.808   9.956  11.148  0.7925 -0.5468  0.0926
  291MOL0     C39206   6.943   9.932  11.136  0.6853  0.0177 -0.5102
  291MOL0     C39207   7.024   9.927  11.250 -0.1058  0.3482  0.1074
  291MOL0     C39208   6.977   9.954  11.379  0.0501 -0.2631 -0.4775
  291MOL0     O39209   7.051   9.957  11.496 -0.1645 -0.0964 -0.0029
  291MOL0     C39210   7.180   9.893  11.504 -0.7101  0.2616 -0.6374
  291MOL0     C39211   7.240   9.900  11.647 -0.0309  0.2255  0.6362
  291MOL0     C39212   7.277  10.038  11.700 -0.5347  0.8914 -0.0292
  291MOL0     C39213   7.379  10.034  11.813 -0.3251 -0.0332  0.4860
  291MOL0     C39214   7.341   9.935  11.914  0.4642 -0.0151 -0.3803
  291MOL0     C39215   7.304   9.839  11.984  0.4281 -0.3989 -0.1424
  291MOL0     C39216   6.838   9.991  11.390 -0.6521  0.5103 -0.4991
  291MOL0     C39217   6.762   9.988  11.276 -0.1624  0.3877 -0.4234
  291MOL0     H39218   6.722  10.110  10.742  0.6235 -1.0808  2.6121
  291MOL0     H39219   6.540  10.117  10.574  2.5950 -1.1538 -0.7741
  291MOL0     H39220   6.224  10.060  10.621  0.5808  1.3084 -0.1372
  291MOL0     H39221   6.342  10.114  10.507 -0.0609  0.6360  3.3614
  291MOL0     H39222   6.099  10.117  10.417  0.3001  0.0049  0.0501
  291MOL0     H39223   6.217  10.019  10.325 -0.4166  1.1312  0.1090
  291MOL0     H39224   6.133   9.812  10.441 -0.1455 -0.1011 -0.1965
  291MOL0     H39225   6.043   9.919  10.541 -2.9243  2.0614 -1.4457
  291MOL0     H39226   5.924  10.014  10.332 -2.5442 -0.0144  0.8490
  291MOL0     H39227   5.981   9.875  10.233 -2.1815 -0.9111 -0.2769
  291MOL0     H39228   5.887   9.735  10.447 -3.3232  0.1451  3.0724
  291MOL0     H39229   5.775   9.872  10.450  0.5988  1.4250 -1.3211
  291MOL0     H39230   5.818   9.725  10.189 -0.8346  2.3116 -1.5869
  291MOL0     H39231   5.681   9.693  10.304  1.4974 -2.0213  0.1625
  291MOL0     H39232   5.585   9.922  10.255 -1.8102 -1.7669 -1.7965
  291MOL0     H39233   5.740   9.979  10.195 -2.6135  2.8333  0.0442
  291MOL0     H39234   5.716   9.826  10.013  0.8560 -0.9189  2.5867
  291MOL0     H39235   5.580   9.935  10.009 -0.4156  0.2063  1.0390
  291MOL0     H39236   5.346   9.866  10.095 -0.9986 -0.6802 -0.1802
  291MOL0     H39237   5.170   9.521  10.022  2.5443  0.0117 -1.1926
  291MOL0     H39238   5.167   9.604  10.186 -2.2330 -1.0506  0.0453
  291MOL0     H39239   5.072   9.740   9.915 -1.7238  2.1771  0.0190
  291MOL0     H39240   5.127   9.820  10.061 -1.1633 -0.7867  1.6889
  291MOL0     H39241   4.952   9.705  10.169 -1.7510  1.5687  0.0192
  291MOL0     H39242   4.906   9.609  10.023 -0.4723  0.3177 -0.1652
  291MOL0     H39243   4.912   9.916  10.026 -2.5227  1.6428  1.1846
  291MOL0     H39244   4.768   9.810  10.062  0.7238 -1.5208  1.0983
  291MOL0     H39245   4.647   9.637   9.969  1.6106 -0.4685  0.3954
  291MOL0     H39246   4.509   9.374   9.791  0.7892  0.0974 -0.5571
  291MOL0     H39247   4.517   9.450   9.949 -1.1488  2.7941  0.3928
  291MOL0     H39248   4.378   9.484   9.854 -1.3237 -2.8753 -1.6468
  291MOL0     H39249   4.215   9.776   9.367 -0.3114  1.6054 -2.8822
  291MOL0     H39250   4.052   9.729   9.235  2.4272  1.5578  1.0370
  291MOL0     H39251   3.838   9.583   9.140  1.8332 -1.2663  0.7107
  291MOL0     H39252   3.935   9.674   9.023  3.3304  0.6687  0.9669
  291MOL0     H39253   3.880   9.515   8.858 -0.5841  0.0426  1.7709
  291MOL0     H39254   3.827   9.399   8.984  0.3791  0.1378  1.7936
  291MOL0     H39255   3.656   9.554   9.050 -1.7157 -1.6983 -0.7809
  291MOL0     H39256   3.609   9.484   8.902 -0.8818  1.4414 -0.3824
  291MOL0     H39257   3.699   9.777   8.919 -1.4598  1.4825 -0.2048
  291MOL0     H39258   3.683   9.691   8.772 -2.4387  1.6710 -1.1500
  291MOL0     H39259   3.448   9.621   8.831  0.6904 -1.0189  0.3481
  291MOL0     H39260   3.464   9.795   8.816  0.1482 -1.0815 -0.1157
  291MOL0     H39261   3.413   9.618   9.052 -2.5378 -0.0579 -1.3339
  291MOL0     H39262   3.495   9.779   9.078  3.4584 -0.2639 -1.5790
  291MOL0     H39263   3.232   9.754   9.078 -2.0514  1.8036 -0.1911
  291MOL0     H39264   3.251   9.746   8.907  0.4995 -2.2065 -0.3882
  291MOL0     H39265   3.201   9.977   8.988 -0.0988 -0.3097 -2.7734
  291MOL0     H39266   3.359   9.987   8.919 -0.4007  1.4963 -0.0165
  291MOL0     H39267   4.220   9.346   9.116 -0.4518 -0.2301 -0.7704
  291MOL0     H39268   4.424   9.417   9.292 -0.7817 -0.4525 -1.3794
  291MOL0     H39269   4.617   9.753   9.490 -3.3153  0.6819  0.8454
  291MOL0     H39270   4.783   9.846   9.630  0.8875 -1.6621 -2.1397
  291MOL0     H39271   6.414   9.721  10.695 -1.5885  0.5840 -0.3075
  291MOL0     H39272   6.590   9.727  10.858 -2.6610  0.6657  0.7375
  291MOL0     H39273   6.997   9.917  11.043  0.3986  0.8081 -0.8115
  291MOL0     H39274   7.131   9.911  11.242  0.0076 -0.5936  2.7361
  291MOL0     H39275   7.161   9.792  11.467  0.7086 -1.4402  2.8300
  291MOL0     H39276   7.251   9.946  11.440 -2.6025  2.3523 -1.1315
  291MOL0     H39277   7.327   9.835  11.648 -0.8512 -0.9471 -0.7822
  291MOL0     H39278   7.156   9.859  11.704 -1.7841  1.2069 -1.1451
  291MOL0     H39279   7.188  10.094  11.730 -1.0900  0.2340 -0.4164
  291MOL0     H39280   7.310  10.103  11.620  2.3553  0.2279  0.5166
  291MOL0     H39281   7.403  10.127  11.867  0.8016 -0.4955  0.8065
  291MOL0     H39282   7.480  10.009  11.779 -0.7245 -0.8605 -0.1209
  291MOL0     H39283   7.262   9.758  12.040  0.1185 -2.6530 -3.3480
  291MOL0     H39284   6.796  10.018  11.486 -2.6830 -3.6895  0.0026
  291MOL0     H39285   6.658  10.014  11.293 -0.0484 -0.3827  1.7809
  292MOL0     O39286   7.578   7.795   5.097 -0.1392  0.0490 -0.1352
  292MOL0     C39287   7.628   7.883   5.024 -0.0276  0.1236  0.6484
  292MOL0     O39288   7.572   7.924   4.908  0.5556 -0.4070 -1.1743
  292MOL0     C39289   7.436   7.881   4.896  0.1149  0.2444  0.1318
  292MOL0     C39290   7.398   7.763   4.839 -0.0489  0.1239 -0.0481
  292MOL0     C39291   7.272   7.732   4.814  0.5016  0.5592  0.0068
  292MOL0     C39292   7.163   7.822   4.842  0.1762  0.0646 -0.8866
  292MOL0     O39293   7.031   7.807   4.829  0.4745  0.7606 -0.0250
  292MOL0     C39294   6.993   7.681   4.768 -0.6516 -0.4248 -0.4524
  292MOL0     C39295   6.850   7.686   4.740 -0.1832  0.3084 -0.2592
  292MOL0     C39296   6.821   7.777   4.621  0.6736  0.2006 -0.9242
  292MOL0     C39297   6.685   7.759   4.554 -0.7029 -0.2728  0.3101
  292MOL0     C39298   6.661   7.627   4.485 -0.4175 -0.6048 -0.9080
  292MOL0     C39299   6.569   7.645   4.360 -0.4674 -0.5176 -0.1595
  292MOL0     C39300   6.495   7.527   4.281  0.1019 -0.5572 -0.5799
  292MOL0     C39301   6.364   7.482   4.353  0.4821 -0.5602  0.0088
  292MOL0     N39302   6.277   7.598   4.382 -0.0825 -0.2821 -0.4142
  292MOL0     C39303   6.232   7.703   4.302 -0.2955  0.3224  0.4584
  292MOL0     C39304   6.150   7.769   4.382 -0.0270 -0.5089 -0.0568
  292MOL0     C39305   6.092   7.907   4.340 -0.2889 -0.0687  0.1191
  292MOL0     C39306   6.156   7.972   4.221 -0.3319 -0.7137  0.0309
  292MOL0     C39307   6.127   8.123   4.212  1.5361 -0.5101 -0.4845
  292MOL0     C39308   5.981   8.163   4.192  0.2185  0.6307 -0.0010
  292MOL0     O39309   5.964   8.305   4.205 -0.3304 -0.4242  0.5958
  292MOL0     C39310   5.839   8.363   4.215  0.2978 -0.0616  0.2146
  292MOL0     C39311   5.721   8.290   4.213  0.9071  0.6154 -0.7338
  292MOL0     C39312   5.595   8.353   4.217 -0.7727 -0.7488 -0.3615
  292MOL0     C39313   5.471   8.256   4.222 -0.5453  0.6378  0.6697
  292MOL0     C39314   5.591   8.493   4.232 -0.0358  0.2601 -1.1540
  292MOL0     C39315   5.461   8.565   4.236  0.1356 -0.0386 -0.1869
  292MOL0     O39316   5.472   8.707   4.251 -0.0783  0.1316  0.4003
  292MOL0     C39317   5.364   8.782   4.226 -0.1741  0.5621  0.0852
  292MOL0     C39318   5.322   8.879   4.322  0.0267  0.0091  0.2652
  292MOL0     C39319   5.222   8.971   4.292 -0.8830  0.2331 -0.3924
  292MOL0     C39320   5.154   8.963   4.169 -0.1715  0.8176  0.5656
  292MOL0     O39321   5.054   9.058   4.142 -0.0905  0.1453 -0.3838
  292MOL0     C39322   4.925   9.009   4.184 -0.1763  0.8067 -0.3181
  292MOL0     C39323   4.827   9.119   4.191 -0.3663  0.4899 -0.2956
  292MOL0     C39324   4.701   9.071   4.254 -0.4964 -0.1689  1.3477
  292MOL0     C39325   4.594   9.190   4.240  0.2130  0.0179 -0.3460
  292MOL0     C39326   4.452   9.143   4.269 -0.0194 -0.1169  0.7960
  292MOL0     C39327   4.341   9.246   4.256 -0.8788 -0.0253 -0.1671
  292MOL0     C39328   4.361   9.370   4.361  0.2810 -0.6979  0.8233
  292MOL0     C39329   4.242   9.464   4.360 -0.4398  1.3292  0.6885
  292MOL0    Cl39330   4.098   9.384   4.415  0.4262  0.1027  0.2976
  292MOL0     C39331   5.189   8.859   4.079 -1.1463  0.3142  0.1766
  292MOL0     C39332   5.289   8.768   4.106 -0.1696  0.0475  0.7689
  292MOL0     O39333   5.351   8.505   4.243 -0.3881 -0.8047  0.4596
  292MOL0     C39334   5.716   8.566   4.248 -0.5874 -0.3837  0.1610
  292MOL0     C39335   5.836   8.497   4.247  0.4824 -0.0891  0.4827
  292MOL0     N39336   6.117   7.697   4.490  0.8543  0.0887 -0.1652
  292MOL0     N39337   6.201   7.597   4.491 -0.2263  0.0664  0.2258
  292MOL0     C39338   7.202   7.938   4.906  0.2481  0.1099 -0.1947
  292MOL0     C39339   7.336   7.970   4.933  0.2201  0.1824  0.2548
  292MOL0     C39340   7.763   7.927   5.050  0.3515  0.9635  0.5767
  292MOL0     C39341   7.837   7.860   5.152  0.1648  0.7432 -1.1668
  292MOL0     C39342   7.957   7.916   5.193  1.1387  0.4760  0.5033
  292MOL0     C39343   8.009   8.034   5.140 -0.4127  0.1033  0.0571
  292MOL0     O39344   8.119   8.104   5.180 -0.2805  0.0787 -0.6784
  292MOL0     C39345   8.147   8.113   5.320 -0.1924 -0.8095 -0.3958
  292MOL0     C39346   8.241   8.212   5.376  0.5289 -0.6137 -0.0575
  292MOL0     C39347   8.368   8.231   5.298  0.1312  0.5432 -0.9275
  292MOL0     C39348   8.467   8.333   5.366 -0.4875 -0.7045  0.2091
  292MOL0     C39349   8.424   8.469   5.364 -0.1674  0.3475  0.6203
  292MOL0     C39350   8.396   8.594   5.357  0.5875  0.5769  0.7964
  292MOL0     C39351   7.938   8.093   5.035  1.0469  0.3543  0.2012
  292MOL0     C39352   7.812   8.047   4.991  0.4260  0.8486 -0.0310
  292MOL0     H39353   7.475   7.688   4.826 -0.4737 -0.7210  1.9488
  292MOL0     H39354   7.256   7.631   4.778 -3.0639  0.7702  0.6141
  292MOL0     H39355   7.054   7.661   4.679  0.5219 -1.4217  0.5248
  292MOL0     H39356   7.023   7.603   4.839  0.1704  0.3463  0.0675
  292MOL0     H39357   6.826   7.580   4.726 -0.9181 -0.1084  3.1954
  292MOL0     H39358   6.793   7.701   4.832 -0.1068 -1.3314  0.0869
  292MOL0     H39359   6.826   7.882   4.651  3.2754 -0.3194  0.8385
  292MOL0     H39360   6.897   7.755   4.546  0.9385  1.5779 -1.0806
  292MOL0     H39361   6.598   7.770   4.620 -1.0371 -1.8694  0.1782
  292MOL0     H39362   6.674   7.840   4.481  2.2839  0.4327  0.5205
  292MOL0     H39363   6.755   7.586   4.448 -0.1807 -1.1064  0.2021
  292MOL0     H39364   6.610   7.564   4.558 -0.2753 -0.2720 -0.5164
  292MOL0     H39365   6.496   7.722   4.388  0.7250  0.2816  0.8420
  292MOL0     H39366   6.633   7.692   4.285 -0.4064  0.9828  0.7941
  292MOL0     H39367   6.483   7.567   4.180  1.1214  0.1507 -0.4276
  292MOL0     H39368   6.564   7.442   4.282 -1.4052 -1.8605  1.8299
  292MOL0     H39369   6.384   7.432   4.449 -2.5325 -2.1932 -0.0646
  292MOL0     H39370   6.312   7.406   4.294  1.7847 -1.5250  0.0436
  292MOL0     H39371   6.261   7.729   4.201  1.6179 -1.6703  0.4046
  292MOL0     H39372   5.993   7.890   4.297 -0.3170  3.0643 -1.3377
  292MOL0     H39373   6.081   7.975   4.425  3.5953 -0.9584  1.5396
  292MOL0     H39374   6.120   7.919   4.132 -1.8065 -2.1767  1.4426
  292MOL0     H39375   6.261   7.953   4.244 -0.0460  1.8906  1.2780
  292MOL0     H39376   6.192   8.169   4.137  0.5461  0.9057 -0.5036
  292MOL0     H39377   6.144   8.166   4.311 -2.5124  0.1634  0.0868
  292MOL0     H39378   5.924   8.110   4.269 -0.7782 -0.7871 -1.6522
  292MOL0     H39379   5.952   8.120   4.096 -0.4983 -0.8056  0.8300
  292MOL0     H39380   5.726   8.183   4.193  2.4058  1.0278 -2.8800
  292MOL0     H39381   5.415   8.261   4.317 -0.2944  4.3896  0.7708
  292MOL0     H39382   5.403   8.260   4.136  1.2494 -0.7686 -0.9005
  292MOL0     H39383   5.506   8.154   4.208  3.7308  2.3659 -4.0883
  292MOL0     H39384   5.374   8.888   4.416  0.0546  1.1924  0.1522
  292MOL0     H39385   5.197   9.052   4.361  1.1613  1.3378 -0.8660
  292MOL0     H39386   4.889   8.928   4.120  3.3287 -0.7648 -0.5244
  292MOL0     H39387   4.940   8.961   4.281  0.5199 -1.9464 -1.6844
  292MOL0     H39388   4.849   9.218   4.232 -2.5410  1.1024 -0.4567
  292MOL0     H39389   4.799   9.151   4.090 -1.9917 -1.4943 -0.5346
  292MOL0     H39390   4.721   9.054   4.360 -0.7181 -1.6916  1.1647
  292MOL0     H39391   4.664   8.981   4.203  1.6516  1.0268 -2.7866
  292MOL0     H39392   4.620   9.276   4.303  2.3390  1.3242 -2.8108
  292MOL0     H39393   4.604   9.218   4.135  1.5238  1.0491  0.0255
  292MOL0     H39394   4.451   9.099   4.370  0.9429 -2.0377  0.0215
  292MOL0     H39395   4.438   9.069   4.190 -1.1324  2.0394 -1.1150
  292MOL0     H39396   4.332   9.278   4.152  1.0355 -1.5823 -0.8768
  292MOL0     H39397   4.252   9.190   4.288 -0.7508 -0.8438 -1.1750
  292MOL0     H39398   4.451   9.424   4.330 -0.9137  1.9434  1.7097
  292MOL0     H39399   4.370   9.322   4.459 -3.1980 -0.4252  1.4009
  292MOL0     H39400   4.225   9.501   4.259 -1.7467 -1.9612 -0.4139
  292MOL0     H39401   4.271   9.544   4.429  3.7826  1.1936 -0.6657
  292MOL0     H39402   5.125   8.844   3.993 -2.0933  2.0690  0.5156
  292MOL0     H39403   5.310   8.692   4.032  0.0024  0.2784  0.5797
  292MOL0     H39404   5.707   8.672   4.271 -0.4766 -0.3468  0.0364
  292MOL0     H39405   5.930   8.547   4.265  0.0485  1.3421 -0.9910
  292MOL0     H39406   7.133   8.011   4.946  0.4346 -0.6176  1.5264
  292MOL0     H39407   7.363   8.062   4.983  2.1991  0.1292 -0.6474
  292MOL0     H39408   7.800   7.768   5.195  3.1333 -2.1988 -4.2683
  292MOL0     H39409   7.995   7.855   5.273 -1.3355 -1.3466  0.4275
  292MOL0     H39410   8.054   8.138   5.371 -1.1601 -1.6584 -1.6787
  292MOL0     H39411   8.180   8.015   5.355  0.5785 -0.4420 -0.0663
  292MOL0     H39412   8.258   8.195   5.483 -2.8216 -3.0103  0.2416
  292MOL0     H39413   8.182   8.304   5.381 -0.5642 -1.1997 -1.5251
  292MOL0     H39414   8.350   8.262   5.194  0.3423 -0.6079 -1.3269
  292MOL0     H39415   8.419   8.135   5.286 -1.0303  0.2003 -4.4073
  292MOL0     H39416   8.568   8.322   5.324  0.0970  3.1514  0.2806
  292MOL0     H39417   8.480   8.307   5.471  0.6644  0.9320  0.5077
  292MOL0     H39418   8.357   8.694   5.358 -4.3828 -1.0835  0.4656
  292MOL0     H39419   7.973   8.190   5.002 -1.1596  1.5085  1.0034
  292MOL0     H39420   7.743   8.090   4.920  0.3413  1.4282  0.3932
  293MOL0     O39421   8.288   1.724   9.755 -0.0900  0.0539  0.4801
  293MOL0     C39422   8.317   1.623   9.701 -0.5427  0.6562 -0.2786
  293MOL0     O39423   8.273   1.499   9.735 -0.4597 -0.4248  0.7802
  293MOL0     C39424   8.192   1.471   9.841 -0.8756  0.1069  0.0677
  293MOL0     C39425   8.126   1.348   9.828 -0.5725  0.9036 -0.8982
  293MOL0     C39426   8.056   1.294   9.936  1.1224  0.7005 -0.2013
  293MOL0     C39427   8.039   1.368  10.057  0.6899 -0.2962  0.6208
  293MOL0     O39428   7.969   1.307  10.156 -0.6063 -0.3338 -1.1252
  293MOL0     C39429   7.912   1.370  10.270  0.2517 -0.4512 -0.3484
  293MOL0     C39430   7.757   1.367  10.267  0.2193 -0.1446 -0.0178
  293MOL0     C39431   7.681   1.244  10.273  0.3787  0.5507 -0.4310
  293MOL0     C39432   7.530   1.274  10.287 -0.0946  1.0560 -0.2385
  293MOL0     C39433   7.451   1.145  10.315  0.1272 -0.0398  0.0646
  293MOL0     C39434   7.298   1.162  10.276 -0.4197 -0.3491 -0.3241
  293MOL0     C39435   7.218   1.034  10.275  0.3675 -0.6988 -0.6050
  293MOL0     C39436   7.256   0.930  10.172  0.1258  0.0973 -0.4535
  293MOL0     N39437   7.144   0.841  10.160 -0.3690  1.3087 -0.0394
  293MOL0     C39438   7.106   0.732  10.239  0.1136 -0.3448  0.2806
  293MOL0     C39439   6.996   0.672  10.182 -0.9707 -0.0860  0.3674
  293MOL0     C39440   6.933   0.532  10.205 -0.1181  0.1146  0.1963
  293MOL0     C39441   6.926   0.492  10.358 -0.0831 -0.1964  0.3337
  293MOL0     C39442   6.813   0.561  10.443  1.1590  0.1319  1.0976
  293MOL0     C39443   6.832   0.534  10.591  1.3866 -0.3452 -0.6613
  293MOL0     O39444   6.820   0.395  10.605  0.6210  0.3460  0.5125
  293MOL0     C39445   6.693   0.337  10.611  0.1728  0.0938  0.1800
  293MOL0     C39446   6.573   0.413  10.620 -0.0557  0.3984  1.1046
  293MOL0     C39447   6.442   0.356  10.636  0.3016  0.5880 -0.3439
  293MOL0     C39448   6.325   0.455  10.625  0.1389  0.1041 -0.3434
  293MOL0     C39449   6.431   0.216  10.647 -1.3377 -0.0966  0.0063
  293MOL0     C39450   6.311   0.141  10.651 -0.0055 -0.1938  0.1381
  293MOL0     O39451   6.299   0.053  10.755 -0.1270 -0.2396 -0.3912
  293MOL0     C39452   6.186  -0.011  10.799  1.2179  0.5010 -0.2346
  293MOL0     C39453   6.182  -0.065  10.933 -0.3097  0.2292 -0.0407
  293MOL0     C39454   6.067  -0.121  10.995 -0.5313  0.3231  0.9340
  293MOL0     C39455   5.943  -0.129  10.925 -0.2610 -0.4152 -0.5707
  293MOL0     O39456   5.841  -0.189  10.984  0.1381  0.2044  0.2789
  293MOL0     C39457   5.749  -0.275  10.910  0.0445 -0.4024 -0.2824
  293MOL0     C39458   5.632  -0.303  11.009  0.4166  0.4211  0.6438
  293MOL0     C39459   5.521  -0.360  10.917 -0.0048  0.0052  0.3100
  293MOL0     C39460   5.401  -0.403  10.996 -0.6472  0.0607  0.2393
  293MOL0     C39461   5.323  -0.288  11.075  0.3112 -0.1009  0.0344
  293MOL0     C39462   5.184  -0.337  11.121  0.4644  0.0302  0.4653
  293MOL0     C39463   5.105  -0.225  11.197  0.0986 -0.3636 -0.5211
  293MOL0     C39464   4.976  -0.271  11.260  0.0554 -0.2268  0.9993
  293MOL0    Cl39465   4.897  -0.135  11.342  0.1016 -0.3052 -0.3744
  293MOL0     C39466   5.942  -0.086  10.789 -0.2840 -0.0802  0.2813
  293MOL0     C39467   6.064  -0.029  10.728 -0.9701 -0.5177  0.9079
  293MOL0     O39468   6.212   0.169  10.580 -0.8088  0.2310 -0.0307
  293MOL0     C39469   6.552   0.146  10.640 -0.5942 -0.3585  0.9761
  293MOL0     C39470   6.681   0.205  10.628  0.6413 -0.2135  0.2959
  293MOL0     N39471   6.972   0.751  10.070  0.0907  0.0056  0.1149
  293MOL0     N39472   7.062   0.845  10.061  0.3825 -0.1960 -0.2278
  293MOL0     C39473   8.105   1.492  10.068 -0.9352 -0.2739  0.5836
  293MOL0     C39474   8.193   1.539   9.965 -0.2186 -0.7844 -0.3566
  293MOL0     C39475   8.426   1.641   9.603 -0.1631 -0.7131  0.3271
  293MOL0     C39476   8.489   1.534   9.539 -0.0190  0.2193  0.0476
  293MOL0     C39477   8.596   1.560   9.443  0.6227 -0.0585 -0.2616
  293MOL0     C39478   8.638   1.692   9.400 -0.9821  0.6768  0.7213
  293MOL0     O39479   8.739   1.713   9.306 -0.0468  0.7864  0.6529
  293MOL0     C39480   8.826   1.604   9.265 -0.7739  0.2180  0.4592
  293MOL0     C39481   8.937   1.643   9.177  0.1175  0.5472 -0.6674
  293MOL0     C39482   9.009   1.519   9.128 -0.6297  0.6347  0.8848
  293MOL0     C39483   9.078   1.553   8.996 -0.1219 -0.0911  0.6633
  293MOL0     C39484   9.146   1.681   9.004  0.3328  0.4566  0.1552
  293MOL0     C39485   9.217   1.781   9.020 -0.1041  0.8344 -0.7464
  293MOL0     C39486   8.574   1.795   9.463  0.0253  1.1086  0.1725
  293MOL0     C39487   8.469   1.771   9.560  0.3396 -0.3511 -0.1031
  293MOL0     H39488   8.148   1.296   9.735  2.1780  2.7567 -1.4058
  293MOL0     H39489   7.991   1.209   9.922 -1.7334  2.4384  1.3786
  293MOL0     H39490   7.940   1.307  10.355 -1.2542 -1.3695 -0.4899
  293MOL0     H39491   7.941   1.472  10.295  0.2792 -0.2460 -1.1944
  293MOL0     H39492   7.730   1.427  10.354 -0.7638 -1.4213  0.5986
  293MOL0     H39493   7.726   1.411  10.172  0.5274 -0.1759 -0.1338
  293MOL0     H39494   7.695   1.197  10.175 -0.2963  0.9848 -0.7357
  293MOL0     H39495   7.721   1.167  10.341  0.9521  0.0496 -1.3098
  293MOL0     H39496   7.528   1.353  10.362 -0.7872  1.9386 -1.1582
  293MOL0     H39497   7.488   1.311  10.193 -0.9448 -2.3500 -1.3534
  293MOL0     H39498   7.494   1.063  10.256 -2.0230 -1.3024  0.1486
  293MOL0     H39499   7.440   1.121  10.421 -2.4338  0.2908 -0.0802
  293MOL0     H39500   7.236   1.232  10.333 -2.2577 -0.8652 -1.6070
  293MOL0     H39501   7.299   1.194  10.172  2.1972  1.1620  0.0825
  293MOL0     H39502   7.216   0.983  10.372 -0.8792 -0.9137 -0.7312
  293MOL0     H39503   7.118   1.068  10.245  1.9370  2.2912 -3.0924
  293MOL0     H39504   7.350   0.880  10.193  1.8562  2.0046 -2.9599
  293MOL0     H39505   7.273   0.984  10.078  1.7733  0.1100 -0.1698
  293MOL0     H39506   7.168   0.693  10.320  1.6264 -0.7598 -1.0310
  293MOL0     H39507   6.836   0.523  10.156 -0.1808 -1.2287  0.5382
  293MOL0     H39508   7.004   0.460  10.164 -0.7570 -1.2271  1.3822
  293MOL0     H39509   7.027   0.509  10.396  0.7202 -1.0536 -1.3020
  293MOL0     H39510   6.912   0.383  10.352  3.6500 -0.8652  0.9640
  293MOL0     H39511   6.718   0.520  10.408  1.6159 -0.6773  0.7790
  293MOL0     H39512   6.825   0.669  10.429  1.6815 -0.2255 -1.8444
  293MOL0     H39513   6.759   0.597  10.644  2.0381  2.1004 -2.4865
  293MOL0     H39514   6.930   0.563  10.630  1.3068 -0.5486 -0.2995
  293MOL0     H39515   6.575   0.522  10.611  2.3150  0.2111 -2.8242
  293MOL0     H39516   6.314   0.474  10.518  4.0300  1.3406 -0.6635
  293MOL0     H39517   6.234   0.417  10.674  2.2529 -2.4271  1.9286
  293MOL0     H39518   6.361   0.542  10.681  2.9070 -2.4080  2.1769
  293MOL0     H39519   6.278  -0.057  10.983 -0.7813  1.8450  0.6510
  293MOL0     H39520   6.060  -0.156  11.098  0.2207  1.5569  1.4330
  293MOL0     H39521   5.712  -0.225  10.820  1.2620  1.8907  0.3931
  293MOL0     H39522   5.798  -0.369  10.885  0.4466 -0.2892  0.0504
  293MOL0     H39523   5.659  -0.373  11.089  3.0760 -0.7973 -1.1675
  293MOL0     H39524   5.605  -0.209  11.058 -2.1655 -0.1315  0.4233
  293MOL0     H39525   5.568  -0.442  10.862 -2.1645 -0.3872 -1.0778
  293MOL0     H39526   5.492  -0.290  10.838  0.3014  0.9689  1.0273
  293MOL0     H39527   5.338  -0.453  10.922  2.1085 -0.4498 -1.9641
  293MOL0     H39528   5.434  -0.482  11.063  1.2461 -0.0586 -0.7517
  293MOL0     H39529   5.315  -0.200  11.010 -1.1045 -0.2339 -0.0105
  293MOL0     H39530   5.381  -0.246  11.158  2.3005 -1.9521 -0.3410
  293MOL0     H39531   5.122  -0.361  11.035 -1.1259 -0.6113  1.7298
  293MOL0     H39532   5.186  -0.432  11.176  4.1024  0.0460  0.5622
  293MOL0     H39533   5.079  -0.152  11.120 -2.0715  0.3145  0.7927
  293MOL0     H39534   5.167  -0.172  11.269 -0.1032 -1.7204  0.6964
  293MOL0     H39535   4.994  -0.337  11.345  0.3694 -0.0792  1.0487
  293MOL0     H39536   4.915  -0.317  11.181  1.0398 -0.2294  0.2084
  293MOL0     H39537   5.852  -0.094  10.729 -1.2831  3.3350  1.1110
  293MOL0     H39538   6.063  -0.007  10.622  0.9287 -0.8542  0.7807
  293MOL0     H39539   6.548   0.038  10.653  1.2306 -0.4169  1.3424
  293MOL0     H39540   6.773   0.147  10.635 -0.1170 -1.4418  0.4127
  293MOL0     H39541   8.114   1.560  10.152  1.3920  4.2642 -2.8760
  293MOL0     H39542   8.258   1.624   9.986  1.1947 -1.1446 -2.7906
  293MOL0     H39543   8.465   1.432   9.564 -3.9117  1.4591  2.2126
  293MOL0     H39544   8.633   1.478   9.382 -1.8324 -0.1327 -1.8133
  293MOL0     H39545   8.866   1.565   9.359 -2.3872  2.5703  2.2407
  293MOL0     H39546   8.760   1.530   9.219  1.2279 -2.6407  1.9349
  293MOL0     H39547   9.003   1.710   9.233 -1.0640  0.9332  0.3107
  293MOL0     H39548   8.898   1.692   9.087  1.8395 -2.0001 -2.9784
  293MOL0     H39549   8.945   1.431   9.115  0.1068  0.0355  1.2716
  293MOL0     H39550   9.080   1.483   9.203  1.1729  1.0270 -0.5861
  293MOL0     H39551   9.008   1.569   8.914  0.8401  3.1047  0.3351
  293MOL0     H39552   9.157   1.478   8.986  1.9378  2.2400 -2.5877
  293MOL0     H39553   9.275   1.867   9.044  0.2166  1.0270 -2.1071
  293MOL0     H39554   8.603   1.900   9.461  3.4476  0.2704  0.4359
  293MOL0     H39555   8.440   1.864   9.609  0.6315  0.4060 -1.3360
  294MOL0     O39556   0.790   7.989   9.769  0.2329 -0.0545 -1.2847
  294MOL0     C39557   0.889   7.976   9.845  0.3835 -0.0063  0.6432
  294MOL0     O39558   0.881   7.983   9.972  0.0587  0.6024 -0.1233
  294MOL0     C39559   0.760   7.970  10.041  0.1632 -0.1347  0.1170
  294MOL0     C39560   0.640   8.044  10.020 -0.2494  0.1351  0.7490
  294MOL0     C39561   0.529   8.018  10.105 -0.7461  0.3658 -1.1153
  294MOL0     C39562   0.534   7.931  10.218 -0.3630  0.0959 -0.3767
  294MOL0     O39563   0.444   7.898  10.311 -0.4173 -0.2616  0.7117
  294MOL0     C39564   0.304   7.925  10.280 -0.2049 -0.3290 -0.6217
  294MOL0     C39565   0.211   7.837  10.346 -0.4552  0.3190  0.1715
  294MOL0     C39566   0.210   7.698  10.284 -0.0979 -0.7748  0.7615
  294MOL0     C39567   0.100   7.612  10.344 -0.3861  1.1492 -0.3634
  294MOL0     C39568   0.128   7.469  10.304 -1.1362 -0.0001  0.0355
  294MOL0     C39569   0.032   7.369  10.377  0.5315  0.2939 -0.2241
  294MOL0     C39570   0.034   7.221  10.309 -0.6118  0.5700  0.5297
  294MOL0     C39571   0.007   7.117  10.414 -0.4769  0.5057 -0.2173
  294MOL0     N39572  -0.131   7.128  10.459  0.3557  0.3220 -0.0413
  294MOL0     C39573  -0.182   7.153  10.586 -0.4989 -0.9351 -0.8356
  294MOL0     C39574  -0.322   7.145  10.568  0.0798  0.7818 -0.1914
  294MOL0     C39575  -0.436   7.171  10.659 -0.7552  0.0823  0.4784
  294MOL0     C39576  -0.420   7.158  10.814 -0.2264  0.2385 -0.8895
  294MOL0     C39577  -0.359   7.017  10.846 -0.2989  0.1330 -0.2740
  294MOL0     C39578  -0.458   6.906  10.835 -0.3520  0.1073  0.7145
  294MOL0     O39579  -0.552   6.925  10.941 -0.5727  0.4110 -0.0929
  294MOL0     C39580  -0.648   6.828  10.969  0.6843 -0.4459  0.2585
  294MOL0     C39581  -0.664   6.705  10.906 -0.6442  0.1666 -0.6452
  294MOL0     C39582  -0.766   6.616  10.948 -0.4823  0.0523  0.1618
  294MOL0     C39583  -0.768   6.477  10.869  0.0762 -0.1803 -0.3330
  294MOL0     C39584  -0.859   6.660  11.051 -0.2526  0.1064  0.3410
  294MOL0     C39585  -0.969   6.573  11.099  0.0386  0.6179 -0.1181
  294MOL0     O39586  -1.050   6.638  11.193  0.1538  0.3825 -0.3981
  294MOL0     C39587  -1.136   6.566  11.269  0.0018  0.5833  0.4848
  294MOL0     C39588  -1.270   6.580  11.248  0.1793 -0.0918 -0.2125
  294MOL0     C39589  -1.360   6.508  11.332  0.4114 -0.2581 -0.2829
  294MOL0     C39590  -1.318   6.416  11.423  0.0829  0.2336 -0.5582
  294MOL0     O39591  -1.418   6.330  11.473  0.2052  0.4456  0.2566
  294MOL0     C39592  -1.386   6.250  11.589  0.5070  0.0420 -0.1416
  294MOL0     C39593  -1.516   6.185  11.617  0.1085 -0.2420 -0.7516
  294MOL0     C39594  -1.538   6.074  11.523  0.1801  0.1725 -0.4357
  294MOL0     C39595  -1.679   6.027  11.519  0.2060  0.3086  0.3174
  294MOL0     C39596  -1.696   5.890  11.455  0.8183  0.3374 -0.6497
  294MOL0     C39597  -1.842   5.840  11.473 -0.1880  0.4791 -0.0817
  294MOL0     C39598  -1.864   5.701  11.420 -0.1033  0.4182  0.1239
  294MOL0     C39599  -2.003   5.694  11.360 -0.4286 -0.0776  0.0627
  294MOL0    Cl39600  -2.038   5.527  11.338  0.0806  0.0052 -0.0612
  294MOL0     C39601  -1.181   6.391  11.436  0.2497  0.1905  0.0104
  294MOL0     C39602  -1.092   6.471  11.363  0.3160  0.6612  1.1888
  294MOL0     O39603  -0.982   6.458  11.062  0.0012 -0.0560 -0.4768
  294MOL0     C39604  -0.840   6.788  11.102 -1.0337 -0.9410  1.1231
  294MOL0     C39605  -0.734   6.874  11.062  0.7614  0.5147 -0.8839
  294MOL0     N39606  -0.347   7.110  10.430  0.5510 -0.1231 -0.4496
  294MOL0     N39607  -0.239   7.106  10.370  0.1445 -0.1746  0.2135
  294MOL0     C39608   0.660   7.868  10.237  0.4397 -0.5682 -0.5117
  294MOL0     C39609   0.759   7.885  10.143 -0.5884 -0.5616 -0.2799
  294MOL0     C39610   1.014   7.947   9.782 -0.2888  0.2241 -0.0810
  294MOL0     C39611   1.130   7.942   9.871  0.2973  0.4554 -0.1035
  294MOL0     C39612   1.247   7.911   9.821  0.2110  0.5688  0.4307
  294MOL0     C39613   1.265   7.894   9.680 -0.1259 -0.5898  0.6428
  294MOL0     O39614   1.385   7.867   9.615  1.1309  0.3371 -0.8803
  294MOL0     C39615   1.484   7.809   9.701  0.0222  0.6557  0.7316
  294MOL0     C39616   1.594   7.741   9.620 -0.3427  0.7831  0.3836
  294MOL0     C39617   1.661   7.845   9.536  0.6820  0.3534 -0.3838
  294MOL0     C39618   1.798   7.803   9.497  0.2409 -0.3700 -0.8057
  294MOL0     C39619   1.856   7.912   9.418  0.3759  0.3315 -0.2364
  294MOL0     C39620   1.911   8.006   9.374 -0.2576  0.0331 -0.4621
  294MOL0     C39621   1.150   7.896   9.596  0.0045  0.4130 -1.1795
  294MOL0     C39622   1.031   7.932   9.643 -0.2958  0.6764 -0.7207
  294MOL0     H39623   0.626   8.114   9.938 -1.7001 -1.4128 -0.4076
  294MOL0     H39624   0.433   8.066  10.090 -1.2355 -0.0740  0.4201
  294MOL0     H39625   0.275   8.025  10.316 -1.2909 -0.6157 -0.6542
  294MOL0     H39626   0.292   7.921  10.171 -1.1062  1.3799 -0.6341
  294MOL0     H39627   0.221   7.836  10.455 -0.6544 -0.9839  0.1920
  294MOL0     H39628   0.111   7.879  10.341  0.0519  1.6796  0.8336
  294MOL0     H39629   0.201   7.699  10.175  2.9470  0.0993  0.4436
  294MOL0     H39630   0.305   7.647  10.299 -0.3207 -1.3786  0.1698
  294MOL0     H39631   0.104   7.618  10.453 -0.8017  1.6986 -0.3766
  294MOL0     H39632   0.002   7.643  10.307 -0.5156  0.2005 -0.8428
  294MOL0     H39633   0.114   7.449  10.197  0.8413  1.4308 -0.5376
  294MOL0     H39634   0.229   7.436  10.326 -0.8719  2.2754  2.7717
  294MOL0     H39635   0.064   7.360  10.481  0.6399  1.1378 -0.1760
  294MOL0     H39636  -0.072   7.401  10.363 -0.5693 -1.4206  3.0326
  294MOL0     H39637  -0.041   7.219  10.229  0.4295  0.2195 -0.4568
  294MOL0     H39638   0.133   7.207  10.266 -0.5437 -1.0508  1.1363
  294MOL0     H39639   0.071   7.137  10.500 -0.3064 -1.0030  0.0255
  294MOL0     H39640   0.025   7.013  10.384  0.4722  0.4105  0.6357
  294MOL0     H39641  -0.130   7.175  10.679 -0.1118 -3.0840 -0.4950
  294MOL0     H39642  -0.458   7.276  10.635  2.6183  0.4687 -1.6468
  294MOL0     H39643  -0.525   7.112  10.636 -2.0942  2.0294  0.3556
  294MOL0     H39644  -0.519   7.168  10.859  0.3061  2.3944 -0.0789
  294MOL0     H39645  -0.354   7.233  10.857  0.2745 -1.2358  1.0125
  294MOL0     H39646  -0.330   7.027  10.952 -3.6404 -1.5309  0.9342
  294MOL0     H39647  -0.269   6.997  10.787  0.8938  0.6685  1.2678
  294MOL0     H39648  -0.407   6.810  10.829  1.5333  1.1070 -0.7294
  294MOL0     H39649  -0.511   6.908  10.740 -0.2870 -0.9123  0.6538
  294MOL0     H39650  -0.601   6.681  10.822 -0.9578 -3.1583 -0.0826
  294MOL0     H39651  -0.749   6.393  10.937 -2.0121 -0.2709  0.2186
  294MOL0     H39652  -0.858   6.467  10.808  1.8835 -0.4378 -3.1010
  294MOL0     H39653  -0.690   6.472  10.793  1.2779  0.0578  0.8286
  294MOL0     H39654  -1.289   6.647  11.164 -0.3308  1.7319  1.2975
  294MOL0     H39655  -1.466   6.519  11.315  0.8762  2.0806 -2.2049
  294MOL0     H39656  -1.305   6.181  11.567 -1.3919 -1.2413 -4.0441
  294MOL0     H39657  -1.357   6.309  11.676 -1.2660  0.7468  0.0105
  294MOL0     H39658  -1.506   6.138  11.715 -0.2387 -1.6790 -1.3864
  294MOL0     H39659  -1.610   6.240  11.618 -0.5289 -1.2494 -2.2507
  294MOL0     H39660  -1.475   5.987  11.548 -0.7015 -0.9691 -2.0477
  294MOL0     H39661  -1.519   6.116  11.424 -2.1946  1.6021 -0.3377
  294MOL0     H39662  -1.725   6.008  11.616 -1.6135  2.0918 -0.1186
  294MOL0     H39663  -1.745   6.100  11.471 -0.5371 -0.4275  0.2009
  294MOL0     H39664  -1.619   5.822  11.494 -0.3886 -0.6532  0.0833
  294MOL0     H39665  -1.674   5.898  11.348 -0.2762  2.0303 -0.7785
  294MOL0     H39666  -1.862   5.833  11.580 -1.8665  0.3921 -0.3625
  294MOL0     H39667  -1.912   5.911  11.427 -2.1246  0.4123  2.5149
  294MOL0     H39668  -1.853   5.627  11.500  3.4312 -0.6825 -1.2101
  294MOL0     H39669  -1.786   5.675  11.348  2.2934  5.5453  0.3986
  294MOL0     H39670  -1.990   5.743  11.263  0.3362 -0.0711  0.1636
  294MOL0     H39671  -2.089   5.730  11.417 -0.8429  0.1671 -0.7024
  294MOL0     H39672  -1.146   6.300  11.485 -0.0329 -1.0724 -2.0166
  294MOL0     H39673  -0.985   6.456  11.373  0.6458  2.3071  0.5359
  294MOL0     H39674  -0.918   6.821  11.170 -3.6791 -0.2109 -2.0098
  294MOL0     H39675  -0.721   6.977  11.096 -0.3238  0.2442  0.4632
  294MOL0     H39676   0.680   7.791  10.311  1.1266 -1.2823 -1.4307
  294MOL0     H39677   0.854   7.835  10.160 -0.3119  0.4873  1.4788
  294MOL0     H39678   1.123   7.961   9.977  0.9720  2.4972 -0.3917
  294MOL0     H39679   1.321   7.915   9.900  0.3013 -0.5139  0.4061
  294MOL0     H39680   1.520   7.875   9.782  0.9794  1.7867 -0.5670
  294MOL0     H39681   1.434   7.724   9.748 -0.5645 -0.2473 -1.4132
  294MOL0     H39682   1.553   7.658   9.562  2.7197 -0.9132  0.4148
  294MOL0     H39683   1.665   7.695   9.691 -0.8441 -0.8363 -0.1099
  294MOL0     H39684   1.678   7.928   9.606  0.6468 -0.4180  0.5700
  294MOL0     H39685   1.596   7.896   9.465 -1.1605  0.8354  1.5436
  294MOL0     H39686   1.775   7.717   9.434  0.3380 -1.0902  0.1273
  294MOL0     H39687   1.855   7.762   9.581 -0.2638  0.7295  0.1171
  294MOL0     H39688   1.949   8.100   9.338 -2.7760  1.0903 -0.5341
  294MOL0     H39689   1.161   7.878   9.489 -0.7574 -2.2684 -0.8549
  294MOL0     H39690   0.948   7.951   9.576 -0.1465 -2.5505 -1.9802
  295MOL0     O39691   4.065   1.302   5.400 -0.5107  0.2552  0.4544
  295MOL0     C39692   4.156   1.375   5.441  1.2588  0.0730  0.1569
  295MOL0     O39693   4.134   1.471   5.538 -0.5485  0.0544 -0.4894
  295MOL0     C39694   4.008   1.494   5.577  0.3000  0.3408  0.0341
  295MOL0     C39695   3.945   1.420   5.678  0.1461  0.6277  0.4005
  295MOL0     C39696   3.817   1.438   5.726  0.4967 -0.4303  0.3739
  295MOL0     C39697   3.741   1.541   5.680 -0.9573 -0.6218 -0.1748
  295MOL0     O39698   3.628   1.582   5.738 -0.5455  0.0638 -0.7349
  295MOL0     C39699   3.530   1.490   5.786 -0.5217 -0.2042 -0.1662
  295MOL0     C39700   3.413   1.571   5.828 -0.5025  0.0754 -0.2112
  295MOL0     C39701   3.305   1.485   5.891  0.3722  0.8627  0.0393
  295MOL0     C39702   3.187   1.561   5.952  0.0692 -0.2823 -0.2677
  295MOL0     C39703   3.070   1.479   5.974  1.1407 -0.6373  0.3943
  295MOL0     C39704   2.945   1.561   6.015  0.1466 -0.4413 -0.2277
  295MOL0     C39705   2.826   1.467   5.994 -0.2100  0.2681 -0.1155
  295MOL0     C39706   2.707   1.539   6.044 -0.6438 -0.0502  0.2772
  295MOL0     N39707   2.601   1.455   6.095  0.2090  0.0702  0.7587
  295MOL0     C39708   2.603   1.378   6.208  0.1424 -0.3650  0.8210
  295MOL0     C39709   2.486   1.313   6.205  0.1209  0.1669  0.3571
  295MOL0     C39710   2.446   1.211   6.312  0.3759 -0.5943 -0.1758
  295MOL0     C39711   2.380   1.288   6.434 -0.4030  0.0270  1.0529
  295MOL0     C39712   2.314   1.193   6.536  0.1563  0.2325 -0.0962
  295MOL0     C39713   2.196   1.120   6.472 -0.3402  0.2270 -0.1044
  295MOL0     O39714   2.110   1.040   6.556 -0.6438  0.3887 -0.1352
  295MOL0     C39715   1.985   1.094   6.564 -0.5160 -0.2714 -0.2292
  295MOL0     C39716   1.893   1.072   6.465 -0.2585  0.1009  0.1492
  295MOL0     C39717   1.762   1.107   6.473  1.1700 -1.3555  0.5404
  295MOL0     C39718   1.660   1.040   6.382 -0.5068 -0.1353 -0.5492
  295MOL0     C39719   1.718   1.191   6.580 -0.1636 -0.0336  0.2260
  295MOL0     C39720   1.577   1.234   6.596  0.4163 -0.1343 -0.8804
  295MOL0     O39721   1.530   1.220   6.722  0.7566  0.4738  1.2376
  295MOL0     C39722   1.394   1.218   6.731 -1.0319  0.1380 -0.7996
  295MOL0     C39723   1.310   1.131   6.667 -0.5468 -0.8541  0.4535
  295MOL0     C39724   1.173   1.134   6.677 -1.1833  0.7812  0.5150
  295MOL0     C39725   1.111   1.237   6.763  0.2874  0.4749  0.0928
  295MOL0     O39726   0.979   1.264   6.753 -0.2585 -0.8320 -0.2029
  295MOL0     C39727   0.888   1.169   6.701  0.6520  0.4202  0.3459
  295MOL0     C39728   0.744   1.201   6.730 -0.3351  0.3108  0.4431
  295MOL0     C39729   0.720   1.196   6.879  0.1802 -0.6719  0.0994
  295MOL0     C39730   0.590   1.269   6.917  0.2969 -0.2727  0.2019
  295MOL0     C39731   0.469   1.182   6.875 -0.2434  0.4324  0.4245
  295MOL0     C39732   0.333   1.256   6.890  0.1026 -0.3074  0.0967
  295MOL0     C39733   0.233   1.209   6.792  0.9365 -0.7411  0.0963
  295MOL0     C39734   0.089   1.252   6.828 -1.0716  0.5252 -0.1870
  295MOL0    Cl39735  -0.008   1.259   6.680  0.4219  0.3862 -0.1395
  295MOL0     C39736   1.194   1.334   6.822  0.2051  0.1112 -0.2622
  295MOL0     C39737   1.332   1.317   6.812  0.4078 -0.0028 -0.4815
  295MOL0     O39738   1.509   1.263   6.500 -0.0783  0.1136 -0.0212
  295MOL0     C39739   1.818   1.220   6.681 -0.5482 -0.1744  0.3795
  295MOL0     C39740   1.949   1.178   6.668 -1.0808  0.0869  0.2060
  295MOL0     N39741   2.405   1.356   6.104  0.2366 -0.7714 -0.3457
  295MOL0     N39742   2.479   1.439   6.037  0.4338  0.1847  0.0632
  295MOL0     C39743   3.803   1.622   5.581  0.6193 -0.9077  0.7050
  295MOL0     C39744   3.927   1.596   5.522 -0.4374 -0.2615 -0.5637
  295MOL0     C39745   4.300   1.364   5.389 -0.0046 -0.1759  0.4232
  295MOL0     C39746   4.405   1.450   5.426 -0.7745 -0.6956 -0.2211
  295MOL0     C39747   4.536   1.440   5.373 -0.1188 -0.3451 -0.2957
  295MOL0     C39748   4.561   1.332   5.283  0.0493  0.3312 -0.5119
  295MOL0     O39749   4.692   1.321   5.248  0.2826  0.2637  0.3181
  295MOL0     C39750   4.739   1.214   5.157  0.8663  0.7655 -0.5670
  295MOL0     C39751   4.884   1.237   5.118  0.8165 -0.0983  0.0374
  295MOL0     C39752   4.912   1.371   5.071 -0.1124 -0.9706  0.3915
  295MOL0     C39753   4.843   1.392   4.934 -1.0084  0.4837 -0.5628
  295MOL0     C39754   4.904   1.510   4.874 -0.0317  0.6808 -0.2192
  295MOL0     C39755   4.970   1.593   4.820 -0.7905 -0.0642 -0.8321
  295MOL0     C39756   4.456   1.237   5.261 -0.2104 -0.6212  0.4347
  295MOL0     C39757   4.330   1.250   5.316  0.6161 -0.2583 -0.2759
  295MOL0     H39758   3.995   1.334   5.721  3.7462  2.0607 -0.5620
  295MOL0     H39759   3.765   1.384   5.805 -4.0006  5.0197  1.8181
  295MOL0     H39760   3.497   1.419   5.709 -0.6794 -2.3592  1.7896
  295MOL0     H39761   3.570   1.437   5.872 -1.0003 -4.3620 -2.2688
  295MOL0     H39762   3.449   1.633   5.911 -0.9672  1.2493 -0.8560
  295MOL0     H39763   3.372   1.629   5.745  0.0542  1.1039  0.2194
  295MOL0     H39764   3.271   1.416   5.813  0.6076 -0.5271  1.1136
  295MOL0     H39765   3.350   1.421   5.969 -0.5001 -1.4248 -1.2427
  295MOL0     H39766   3.210   1.601   6.051  1.1256 -3.4205  0.8557
  295MOL0     H39767   3.168   1.647   5.886  0.7534 -0.4126 -0.6469
  295MOL0     H39768   3.041   1.423   5.885  3.0811 -1.7199  0.3837
  295MOL0     H39769   3.088   1.395   6.042 -1.5967 -1.4331  0.2614
  295MOL0     H39770   2.954   1.591   6.119 -3.3464  2.0790 -0.4900
  295MOL0     H39771   2.933   1.657   5.963 -3.1677 -0.4709  0.2572
  295MOL0     H39772   2.811   1.436   5.890 -1.8329  1.6816 -0.3382
  295MOL0     H39773   2.847   1.378   6.054 -1.8433 -0.0115  0.0780
  295MOL0     H39774   2.669   1.588   5.954  1.6518 -0.7262 -1.1294
  295MOL0     H39775   2.742   1.617   6.111  0.8106 -1.6135  1.4193
  295MOL0     H39776   2.690   1.366   6.271  1.5054 -1.5287 -1.1686
  295MOL0     H39777   2.379   1.141   6.260  1.8550 -1.1101 -1.5013
  295MOL0     H39778   2.534   1.159   6.352 -1.4548 -1.9696  2.3303
  295MOL0     H39779   2.322   1.370   6.392  1.2417  1.4343  1.3950
  295MOL0     H39780   2.463   1.344   6.477 -0.7813 -0.9039  3.1289
  295MOL0     H39781   2.287   1.248   6.627 -0.4772 -3.8863  2.4266
  295MOL0     H39782   2.393   1.119   6.553 -0.5475 -1.4684 -3.4007
  295MOL0     H39783   2.244   1.052   6.402  3.1364  1.3732  0.9012
  295MOL0     H39784   2.137   1.195   6.419  0.1590  2.7322  2.5485
  295MOL0     H39785   1.920   0.995   6.393 -2.3977 -1.5231  0.9796
  295MOL0     H39786   1.635   1.119   6.311  1.7005  2.4509  1.3564
  295MOL0     H39787   1.720   0.966   6.328  1.8327  0.2310  1.3822
  295MOL0     H39788   1.567   1.013   6.433 -3.4287  4.6531 -2.6333
  295MOL0     H39789   1.351   1.055   6.602 -1.9521 -0.2028 -1.2430
  295MOL0     H39790   1.113   1.067   6.617 -0.1284  0.6993 -0.5000
  295MOL0     H39791   0.896   1.170   6.592 -0.4302 -1.8159  0.1942
  295MOL0     H39792   0.928   1.072   6.733 -1.0260 -0.0616  1.0989
  295MOL0     H39793   0.724   1.302   6.691  1.8352 -0.1703 -2.2374
  295MOL0     H39794   0.683   1.129   6.674  2.0907 -0.3054 -1.6088
  295MOL0     H39795   0.803   1.250   6.926  0.8986 -1.1198 -0.6248
  295MOL0     H39796   0.717   1.090   6.906 -0.0395 -0.5622  0.5204
  295MOL0     H39797   0.585   1.271   7.027  1.2736 -1.9699  0.3104
  295MOL0     H39798   0.585   1.371   6.877  1.0017 -1.1779 -2.3431
  295MOL0     H39799   0.470   1.096   6.942 -0.4561  1.2794  1.5260
  295MOL0     H39800   0.478   1.154   6.769 -0.8238 -1.9029  0.9502
  295MOL0     H39801   0.313   1.213   6.989  0.2090 -0.9622 -0.1612
  295MOL0     H39802   0.338   1.365   6.894 -3.2585  0.0130 -1.4968
  295MOL0     H39803   0.233   1.101   6.778  1.3456 -0.9315  1.4291
  295MOL0     H39804   0.255   1.252   6.694  1.8412 -0.3224  0.4737
  295MOL0     H39805   0.094   1.355   6.865 -1.0367  0.6887 -0.6370
  295MOL0     H39806   0.042   1.186   6.901 -2.3891  0.7278 -0.8222
  295MOL0     H39807   1.162   1.418   6.882  1.3666  2.4087 -2.6447
  295MOL0     H39808   1.394   1.390   6.862 -3.5600  2.4087  1.4518
  295MOL0     H39809   1.800   1.272   6.775  1.4977 -1.3466  1.4799
  295MOL0     H39810   2.020   1.197   6.748  1.8018  1.2430 -2.4072
  295MOL0     H39811   3.739   1.701   5.543 -0.3762 -1.5601  0.9760
  295MOL0     H39812   3.959   1.662   5.441 -2.8515  0.7650 -0.7516
  295MOL0     H39813   4.369   1.534   5.484 -0.2391 -0.5016 -0.1659
  295MOL0     H39814   4.623   1.500   5.398  2.2681 -3.8785  0.6991
  295MOL0     H39815   4.730   1.118   5.208  1.5073  1.4001  0.7980
  295MOL0     H39816   4.677   1.218   5.067 -1.6579 -0.6348  1.0001
  295MOL0     H39817   4.918   1.179   5.032  2.9001 -1.1813  1.5240
  295MOL0     H39818   4.952   1.217   5.201  4.3172  0.4034 -2.4949
  295MOL0     H39819   5.020   1.375   5.053  0.0015 -2.3690  0.6225
  295MOL0     H39820   4.889   1.448   5.145 -0.8567 -0.3486 -0.4600
  295MOL0     H39821   4.738   1.421   4.945 -0.3545  4.1593 -2.3259
  295MOL0     H39822   4.864   1.307   4.869  3.3824  0.6749  0.2644
  295MOL0     H39823   5.023   1.675   4.776  0.6916 -1.5681 -1.9391
  295MOL0     H39824   4.477   1.147   5.204 -2.3793 -0.4052 -0.8169
  295MOL0     H39825   4.276   1.158   5.299  2.0133 -1.1300 -0.1764
  296MOL0     O39826   1.083   7.684   0.769  0.3368 -1.0560  0.0177
  296MOL0     C39827   1.059   7.802   0.776  0.1363 -0.0968  1.0643
  296MOL0     O39828   0.942   7.862   0.759  0.0937 -0.7194 -0.1964
  296MOL0     C39829   0.816   7.801   0.770  0.8388 -0.8044 -1.3309
  296MOL0     C39830   0.788   7.692   0.859  0.8402 -1.2473 -0.5109
  296MOL0     C39831   0.653   7.647   0.875 -0.8748  0.3149  0.0593
  296MOL0     C39832   0.548   7.701   0.799  0.4563  0.2226  0.1425
  296MOL0     O39833   0.425   7.637   0.806 -0.4617 -0.0489 -0.8495
  296MOL0     C39834   0.325   7.692   0.723  0.3761 -0.2126  0.3096
  296MOL0     C39835   0.188   7.630   0.754  0.5514  0.5912  0.0248
  296MOL0     C39836   0.168   7.477   0.734 -0.5269 -0.4210 -1.2979
  296MOL0     C39837   0.024   7.450   0.753 -0.7879  0.7424  0.1803
  296MOL0     C39838   0.001   7.302   0.757  0.3768  0.2794  0.7189
  296MOL0     C39839  -0.146   7.266   0.793  0.2602  0.6000  0.4587
  296MOL0     C39840  -0.151   7.105   0.788  0.0679 -0.6212 -0.3950
  296MOL0     C39841  -0.290   7.053   0.843 -0.7179 -0.0807  0.3134
  296MOL0     N39842  -0.303   6.910   0.837 -0.2227  0.1886 -0.2157
  296MOL0     C39843  -0.248   6.829   0.935  0.0674 -0.4890  0.5587
  296MOL0     C39844  -0.273   6.708   0.881 -0.1711  0.4608  0.5555
  296MOL0     C39845  -0.258   6.576   0.941  0.2674 -0.2507 -0.0140
  296MOL0     C39846  -0.340   6.556   1.072  0.5665 -0.5401  0.2738
  296MOL0     C39847  -0.498   6.568   1.042 -0.0809  0.5605 -0.3706
  296MOL0     C39848  -0.570   6.699   1.049  0.3417 -0.0048  1.5218
  296MOL0     O39849  -0.585   6.755   1.181 -1.0490 -0.3034 -0.1731
  296MOL0     C39850  -0.641   6.885   1.190  0.7867  0.7082 -0.1518
  296MOL0     C39851  -0.651   6.947   1.313  0.5652 -0.9634 -0.3360
  296MOL0     C39852  -0.714   7.073   1.322  0.7688 -0.3000 -1.3487
  296MOL0     C39853  -0.703   7.137   1.457  0.4043 -0.1131  0.0201
  296MOL0     C39854  -0.773   7.138   1.209  1.3836 -0.1832  0.0978
  296MOL0     C39855  -0.856   7.257   1.215 -0.2719  0.5044  0.0551
  296MOL0     O39856  -0.932   7.275   1.329 -0.6331  0.3357  1.0062
  296MOL0     C39857  -1.031   7.374   1.340 -0.2503 -0.6097 -0.7829
  296MOL0     C39858  -1.132   7.342   1.428 -0.7648  0.3188  1.2338
  296MOL0     C39859  -1.234   7.427   1.461 -1.1094 -1.1070  0.7181
  296MOL0     C39860  -1.234   7.560   1.405 -0.1596 -0.0445 -0.0051
  296MOL0     O39861  -1.316   7.659   1.446  0.7955  0.0228  0.2353
  296MOL0     C39862  -1.457   7.611   1.453 -0.9352  0.2633  0.1801
  296MOL0     C39863  -1.548   7.663   1.335 -1.1844  0.6152  0.0264
  296MOL0     C39864  -1.691   7.625   1.363 -0.3766 -0.2732  0.9328
  296MOL0     C39865  -1.773   7.665   1.238 -0.5672  0.0380  0.0537
  296MOL0     C39866  -1.925   7.643   1.246 -0.2614 -0.5341 -0.2229
  296MOL0     C39867  -1.981   7.699   1.378  0.5048  0.3038  0.2072
  296MOL0     C39868  -2.127   7.696   1.382  0.2712  0.1464 -0.4825
  296MOL0     C39869  -2.190   7.714   1.526 -0.4738 -0.1437  0.5300
  296MOL0    Cl39870  -2.116   7.844   1.630 -0.8349 -0.3890  0.7456
  296MOL0     C39871  -1.136   7.595   1.312  0.4322 -0.6389  0.2756
  296MOL0     C39872  -1.026   7.511   1.292  0.0504  0.4094  0.6469
  296MOL0     O39873  -0.871   7.324   1.114 -0.6358  0.5809  0.2933
  296MOL0     C39874  -0.775   7.063   1.097  0.1156 -0.4109 -0.1251
  296MOL0     C39875  -0.707   6.943   1.086  0.6189 -0.2688  0.7512
  296MOL0     N39876  -0.349   6.718   0.773 -0.8595 -0.0279 -0.1965
  296MOL0     N39877  -0.363   6.838   0.742  0.0861  0.1970 -0.3549
  296MOL0     C39878   0.583   7.805   0.709  0.1739 -0.2564  0.1392
  296MOL0     C39879   0.713   7.862   0.698 -0.3336  1.1481  0.0511
  296MOL0     C39880   1.170   7.889   0.801 -0.3261  0.4587 -0.1903
  296MOL0     C39881   1.296   7.826   0.821 -0.1425  0.2137 -0.4916
  296MOL0     C39882   1.415   7.901   0.866  0.8262  0.6350 -0.1863
  296MOL0     C39883   1.398   8.039   0.878 -0.3809 -0.4829 -1.1477
  296MOL0     O39884   1.504   8.127   0.911 -0.2891 -0.1251  0.3252
  296MOL0     C39885   1.637   8.088   0.936  0.4979  0.7447 -0.2612
  296MOL0     C39886   1.646   8.047   1.087  0.5461  0.2047 -0.1857
  296MOL0     C39887   1.773   7.973   1.126  0.2644 -0.0441  0.0248
  296MOL0     C39888   1.779   7.933   1.274  0.1811 -1.3594 -0.2791
  296MOL0     C39889   1.670   7.836   1.305  0.4994 -0.0748 -0.8032
  296MOL0     C39890   1.597   7.743   1.291 -0.3275  0.5309 -0.1897
  296MOL0     C39891   1.277   8.104   0.851  0.0861  0.4070  0.1406
  296MOL0     C39892   1.171   8.024   0.816  0.1359 -0.4802 -0.2605
  296MOL0     H39893   0.871   7.649   0.915  0.4391 -2.1085 -0.5687
  296MOL0     H39894   0.623   7.574   0.949  0.7447  1.4118  1.9010
  296MOL0     H39895   0.324   7.800   0.745  1.3645  0.0336 -0.7563
  296MOL0     H39896   0.362   7.679   0.621 -2.3071 -2.1920 -0.5165
  296MOL0     H39897   0.157   7.661   0.854  2.1013 -1.6815  1.2827
  296MOL0     H39898   0.122   7.675   0.679 -0.9139 -0.0444  0.9021
  296MOL0     H39899   0.210   7.452   0.636  3.3948 -0.4405  0.2134
  296MOL0     H39900   0.229   7.422   0.807  1.0240  1.5576 -1.0239
  296MOL0     H39901  -0.015   7.491   0.847  1.5975 -0.0432  1.5950
  296MOL0     H39902  -0.037   7.505   0.680  0.6985  1.0986 -0.8342
  296MOL0     H39903   0.033   7.268   0.658 -1.1822  1.3255 -0.1898
  296MOL0     H39904   0.070   7.263   0.832  3.0938  1.3816 -1.0651
  296MOL0     H39905  -0.168   7.305   0.893 -0.1611  2.0230 -0.1535
  296MOL0     H39906  -0.219   7.296   0.717 -1.7353 -3.1151  0.6940
  296MOL0     H39907  -0.150   7.074   0.683 -1.4264 -0.7919 -0.3693
  296MOL0     H39908  -0.058   7.072   0.836  1.2946  1.3011 -1.3054
  296MOL0     H39909  -0.372   7.107   0.795  0.3148  0.7511 -0.5551
  296MOL0     H39910  -0.289   7.079   0.950  0.8213 -1.1170  0.5797
  296MOL0     H39911  -0.215   6.855   1.035 -1.5486 -0.9585  1.2473
  296MOL0     H39912  -0.286   6.504   0.863  1.3185 -1.6856  0.8952
  296MOL0     H39913  -0.153   6.565   0.972  0.8205  2.3829 -0.6720
  296MOL0     H39914  -0.311   6.631   1.146 -0.2504  0.2377 -0.1692
  296MOL0     H39915  -0.330   6.451   1.100  0.6405 -0.4276  0.6737
  296MOL0     H39916  -0.552   6.513   1.119  1.5144  0.1791  0.5276
  296MOL0     H39917  -0.516   6.521   0.945  0.0056  0.7541 -0.4822
  296MOL0     H39918  -0.674   6.692   1.017  0.7657  0.8106 -0.1918
  296MOL0     H39919  -0.517   6.765   0.979  0.8258 -1.0352  0.9022
  296MOL0     H39920  -0.596   6.896   1.393  0.8823  0.1081  0.1435
  296MOL0     H39921  -0.796   7.186   1.489  1.7271  3.2202 -0.7931
  296MOL0     H39922  -0.681   7.064   1.535 -2.7689 -0.5558  0.6364
  296MOL0     H39923  -0.626   7.211   1.434 -0.7074  0.4902 -2.0732
  296MOL0     H39924  -1.127   7.249   1.485  0.3317  1.1561  2.5610
  296MOL0     H39925  -1.298   7.383   1.536 -1.6846 -2.7954 -0.7000
  296MOL0     H39926  -1.462   7.506   1.482 -1.2991  0.8197  2.2905
  296MOL0     H39927  -1.499   7.660   1.541 -2.5209  1.8190 -1.3606
  296MOL0     H39928  -1.524   7.769   1.323 -0.7058  0.9686  3.0476
  296MOL0     H39929  -1.519   7.619   1.240  2.6773 -1.3541  1.8651
  296MOL0     H39930  -1.731   7.683   1.447  0.1380 -0.7469  1.5190
  296MOL0     H39931  -1.705   7.517   1.373 -3.6455  0.1490  2.0834
  296MOL0     H39932  -1.741   7.766   1.211  1.0264  0.2182  2.3535
  296MOL0     H39933  -1.735   7.607   1.154 -0.5664  0.0573  0.0401
  296MOL0     H39934  -1.938   7.535   1.235  0.3338 -0.9865  2.5745
  296MOL0     H39935  -1.965   7.699   1.161 -0.8297 -0.0257  0.3645
  296MOL0     H39936  -1.938   7.647   1.464 -0.2615  3.0025  2.3890
  296MOL0     H39937  -1.949   7.804   1.385 -1.0600  1.0063 -2.0329
  296MOL0     H39938  -2.159   7.594   1.356 -0.8462  0.2775  0.2811
  296MOL0     H39939  -2.167   7.763   1.305  0.9951  1.1944  0.0369
  296MOL0     H39940  -2.174   7.614   1.568 -2.8520 -1.1106 -0.6526
  296MOL0     H39941  -2.299   7.729   1.524 -0.6963  2.3943  7.1482
  296MOL0     H39942  -1.125   7.698   1.281 -0.3021 -0.6678 -0.1207
  296MOL0     H39943  -0.938   7.540   1.234  0.5523  0.1011  1.2404
  296MOL0     H39944  -0.838   7.095   1.015 -1.2879 -2.1371  0.2272
  296MOL0     H39945  -0.711   6.894   0.989 -2.9931 -0.0720  0.6723
  296MOL0     H39946   0.501   7.869   0.679  0.5483  0.2907  0.2661
  296MOL0     H39947   0.730   7.942   0.627 -1.0167  3.1881  2.0468
  296MOL0     H39948   1.316   7.720   0.815 -0.4005  0.2237 -4.0839
  296MOL0     H39949   1.509   7.852   0.890 -1.2537 -3.4969  0.4840
  296MOL0     H39950   1.663   8.003   0.873 -0.2778 -2.1128  2.9835
  296MOL0     H39951   1.707   8.171   0.922  1.1932 -0.0187 -1.3813
  296MOL0     H39952   1.557   7.986   1.105 -2.2273  4.5813  2.9620
  296MOL0     H39953   1.624   8.137   1.144 -0.3505  0.8577 -1.5104
  296MOL0     H39954   1.857   8.038   1.099 -1.7680  3.9877  2.4380
  296MOL0     H39955   1.785   7.879   1.071  0.2917  0.3601 -0.6681
  296MOL0     H39956   1.777   8.025   1.332  1.0103  0.7059 -3.2679
  296MOL0     H39957   1.875   7.881   1.281  0.5409 -0.6468  0.1015
  296MOL0     H39958   1.538   7.655   1.271  0.1846  0.2193 -0.3564
  296MOL0     H39959   1.274   8.212   0.866 -0.7517  0.0414  3.1703
  296MOL0     H39960   1.075   8.070   0.791  0.9183  0.9627 -0.7184
  297MOL0     O39961   7.936   2.409   4.570  0.2604 -0.1399  0.2475
  297MOL0     C39962   7.987   2.484   4.649 -0.1347 -0.9320 -0.0008
  297MOL0     O39963   7.992   2.456   4.783  0.0242  0.4352  0.0785
  297MOL0     C39964   7.920   2.337   4.816  0.0190  0.1158  0.6953
  297MOL0     C39965   7.799   2.338   4.877  0.3063  0.0111 -0.1108
  297MOL0     C39966   7.737   2.215   4.902 -0.4099  0.2176  0.0443
  297MOL0     C39967   7.790   2.089   4.876 -0.7416 -1.3969 -0.1478
  297MOL0     O39968   7.714   1.984   4.912 -0.1378 -0.2290 -0.1333
  297MOL0     C39969   7.777   1.924   5.029 -0.2414 -1.2041  0.4606
  297MOL0     C39970   7.723   1.779   5.053  0.0890 -0.3432  0.2616
  297MOL0     C39971   7.774   1.737   5.193 -0.0109  0.1439 -0.2258
  297MOL0     C39972   7.661   1.667   5.269 -0.2772  0.5199  0.4447
  297MOL0     C39973   7.720   1.608   5.397  0.2869 -0.7260 -0.4866
  297MOL0     C39974   7.605   1.530   5.458  0.3194 -0.0157  0.3881
  297MOL0     C39975   7.664   1.457   5.582 -0.0692  0.2393 -0.0678
  297MOL0     C39976   7.547   1.377   5.643 -0.4956 -0.0737 -0.5629
  297MOL0     N39977   7.450   1.461   5.713  0.3623  0.4180  0.9561
  297MOL0     C39978   7.470   1.558   5.813  0.7926  0.1832  0.0853
  297MOL0     C39979   7.357   1.625   5.837 -1.0404  0.3506 -0.4385
  297MOL0     C39980   7.329   1.738   5.930 -0.4788 -0.4015 -0.7815
  297MOL0     C39981   7.314   1.712   6.084  0.4497  0.3026  0.1199
  297MOL0     C39982   7.187   1.628   6.115 -0.6922  0.4118 -0.3724
  297MOL0     C39983   7.058   1.702   6.087 -0.0607 -0.1650  0.4562
  297MOL0     O39984   6.958   1.679   6.187 -0.0696  0.5229  0.2784
  297MOL0     C39985   6.903   1.558   6.218  0.3416  0.1989 -0.1242
  297MOL0     C39986   6.804   1.566   6.322 -0.7130  0.0927  0.2275
  297MOL0     C39987   6.729   1.454   6.355 -0.7433 -0.4807 -0.2156
  297MOL0     C39988   6.626   1.485   6.451  1.4599  0.7100  0.0273
  297MOL0     C39989   6.747   1.333   6.285  0.6001 -0.2387 -0.1219
  297MOL0     C39990   6.651   1.221   6.300  0.5008 -0.2836 -0.2781
  297MOL0     O39991   6.516   1.249   6.327 -0.0235  0.6157 -0.5976
  297MOL0     C39992   6.413   1.156   6.306 -0.1028  0.0370  0.4133
  297MOL0     C39993   6.302   1.178   6.389 -0.9931 -0.5998  0.3196
  297MOL0     C39994   6.175   1.114   6.366 -0.3598 -0.6055 -0.3530
  297MOL0     C39995   6.172   1.011   6.272  0.5181 -0.6809  0.2182
  297MOL0     O39996   6.055   0.933   6.271  0.0457 -0.7537  0.7888
  297MOL0     C39997   6.070   0.802   6.245  0.0900 -0.4781  0.7146
  297MOL0     C39998   5.946   0.714   6.269  0.2136 -0.5192  0.3270
  297MOL0     C39999   5.972   0.562   6.242 -1.3416  0.0129  0.0092
  297MOL0     C40000   6.058   0.489   6.353 -0.2402 -0.2995  0.5464
  297MOL0     C40001   6.094   0.348   6.321  0.9859  0.3631  0.4973
  297MOL0     C40002   6.194   0.284   6.422 -0.6038  0.1761 -0.1531
  297MOL0     C40003   6.196   0.137   6.404  0.4561  0.5311 -0.5692
  297MOL0     C40004   6.203   0.071   6.265  0.1449 -0.4395  0.2760
  297MOL0    Cl40005   6.136  -0.098   6.251 -0.1656 -0.3303  0.4407
  297MOL0     C40006   6.293   0.979   6.207  0.0648  0.1651  0.6297
  297MOL0     C40007   6.414   1.046   6.224 -0.4052  0.6143 -0.1345
  297MOL0     O40008   6.690   1.108   6.282 -0.1251  0.3001  0.1095
  297MOL0     C40009   6.852   1.322   6.190  0.3318  0.3987  0.5835
  297MOL0     C40010   6.920   1.434   6.154 -0.9531 -0.3214  0.1856
  297MOL0     N40011   7.263   1.573   5.747 -0.7909  0.4891  0.3546
  297MOL0     N40012   7.318   1.485   5.671 -0.7181  0.3186 -0.0662
  297MOL0     C40013   7.914   2.091   4.809 -0.5658  1.3081  0.9680
  297MOL0     C40014   7.980   2.211   4.774  0.0629 -1.0382 -0.3656
  297MOL0     C40015   8.023   2.621   4.595  0.6686  0.0214 -0.4892
  297MOL0     C40016   7.998   2.650   4.458  0.7035 -0.6706  0.6035
  297MOL0     C40017   8.066   2.749   4.385 -0.2388 -0.5489 -0.1878
  297MOL0     C40018   8.145   2.841   4.459  0.4011  1.1487  1.0441
  297MOL0     O40019   8.193   2.944   4.387 -0.0964 -0.7399  1.1698
  297MOL0     C40020   8.228   3.058   4.467 -0.3760 -0.1168 -1.0687
  297MOL0     C40021   8.292   3.170   4.386 -1.0007  0.2004 -0.7164
  297MOL0     C40022   8.212   3.220   4.276  0.1923 -0.3262  1.8792
  297MOL0     C40023   8.268   3.331   4.183  0.4770 -0.5026  0.0336
  297MOL0     C40024   8.377   3.300   4.092  0.2939  0.6955 -0.0154
  297MOL0     C40025   8.458   3.275   4.002 -0.3142  0.3786 -0.7108
  297MOL0     C40026   8.150   2.829   4.601 -0.1668 -1.0171  0.2218
  297MOL0     C40027   8.097   2.716   4.669  0.2246 -1.4572 -0.2895
  297MOL0     H40028   7.743   2.430   4.885  3.1025  1.8956 -0.9285
  297MOL0     H40029   7.635   2.218   4.938 -0.6414 -0.9950 -0.4660
  297MOL0     H40030   7.886   1.924   5.024 -0.1570  2.0121 -0.0664
  297MOL0     H40031   7.747   2.000   5.102 -1.3457 -0.0769 -1.1051
  297MOL0     H40032   7.614   1.779   5.060 -0.0837 -1.5201 -1.6764
  297MOL0     H40033   7.741   1.716   4.965 -1.0372 -0.1445 -0.1315
  297MOL0     H40034   7.858   1.667   5.191 -0.9777 -1.0624 -2.3276
  297MOL0     H40035   7.796   1.820   5.260 -1.1674  0.2816  0.0091
  297MOL0     H40036   7.589   1.747   5.291 -1.4263 -0.8555  2.0384
  297MOL0     H40037   7.625   1.586   5.205  2.2519 -0.1256 -0.2488
  297MOL0     H40038   7.806   1.544   5.377  4.8390  3.5841  2.8707
  297MOL0     H40039   7.741   1.688   5.468 -0.3327 -2.7198  2.1115
  297MOL0     H40040   7.527   1.604   5.478 -0.1725  0.0608 -1.5975
  297MOL0     H40041   7.573   1.467   5.374 -1.2632  0.6391  0.4626
  297MOL0     H40042   7.746   1.387   5.562  1.6113  1.9982  0.4152
  297MOL0     H40043   7.709   1.525   5.654 -1.5950  0.6199  0.5449
  297MOL0     H40044   7.590   1.307   5.715 -0.4964 -2.9381 -3.1491
  297MOL0     H40045   7.503   1.309   5.570 -1.0546 -1.3066  0.8574
  297MOL0     H40046   7.565   1.572   5.862  1.4542  1.4114 -1.4708
  297MOL0     H40047   7.413   1.809   5.932 -0.4811 -0.4065 -0.4386
  297MOL0     H40048   7.242   1.796   5.898 -0.6482  0.7301  1.5513
  297MOL0     H40049   7.312   1.803   6.146  1.1367 -1.4819  2.9393
  297MOL0     H40050   7.396   1.650   6.119 -0.7185 -1.4662 -0.1227
  297MOL0     H40051   7.203   1.607   6.221 -3.0855 -0.7250 -0.1597
  297MOL0     H40052   7.193   1.531   6.065 -0.1096  0.2570 -0.0177
  297MOL0     H40053   7.019   1.658   5.994  1.0916 -3.9976  1.5760
  297MOL0     H40054   7.066   1.810   6.081  0.4213 -0.2104  0.1683
  297MOL0     H40055   6.801   1.655   6.384  1.5676  0.6709 -0.4042
  297MOL0     H40056   6.532   1.509   6.400  1.9064  0.5960 -0.8840
  297MOL0     H40057   6.612   1.393   6.508  5.9407 -0.4843 -0.4122
  297MOL0     H40058   6.643   1.572   6.516 -1.3927  2.4449 -1.3369
  297MOL0     H40059   6.302   1.247   6.473 -0.7578 -0.5785  0.3013
  297MOL0     H40060   6.106   1.140   6.445  1.6100  0.1765  1.2226
  297MOL0     H40061   6.109   0.785   6.144 -1.4316 -0.3780  0.0804
  297MOL0     H40062   6.159   0.763   6.295  1.2900 -2.2296 -2.5483
  297MOL0     H40063   5.909   0.701   6.371 -0.4394 -3.8365 -0.2139
  297MOL0     H40064   5.863   0.756   6.211 -1.6782  0.1017  3.3025
  297MOL0     H40065   6.025   0.548   6.147 -0.4979 -0.5408  0.5518
  297MOL0     H40066   5.875   0.512   6.236 -1.5629 -0.3397  4.0880
  297MOL0     H40067   6.150   0.549   6.354 -0.3527 -0.1168  1.4666
  297MOL0     H40068   6.016   0.486   6.454 -0.5419 -1.0432  0.4042
  297MOL0     H40069   6.142   0.340   6.223  0.1137 -2.2414  0.1880
  297MOL0     H40070   5.998   0.294   6.323  0.4656  1.2904  1.9934
  297MOL0     H40071   6.291   0.326   6.394 -1.7258  2.8440 -0.3809
  297MOL0     H40072   6.175   0.316   6.525  0.2520  0.2440 -0.0111
  297MOL0     H40073   6.096   0.104   6.435  0.5832  1.8204  1.4178
  297MOL0     H40074   6.271   0.088   6.468  0.3396 -1.2103 -1.7088
  297MOL0     H40075   6.310   0.061   6.241  0.6910  3.6216  0.4064
  297MOL0     H40076   6.150   0.122   6.184  0.2034 -1.9078 -0.7293
  297MOL0     H40077   6.304   0.897   6.136  0.7441  1.1044 -0.3884
  297MOL0     H40078   6.502   1.004   6.177 -0.1854  2.7573 -1.7978
  297MOL0     H40079   6.860   1.228   6.137 -1.7705 -0.6194  1.9016
  297MOL0     H40080   6.999   1.445   6.080 -1.1774 -0.0632 -0.0164
  297MOL0     H40081   7.962   1.996   4.789  0.6055  0.9674  4.7183
  297MOL0     H40082   8.072   2.218   4.716  0.4006  0.3992  0.3062
  297MOL0     H40083   7.933   2.592   4.394 -1.3248  1.1752  0.8800
  297MOL0     H40084   8.063   2.757   4.277  2.2386 -0.9776 -0.3487
  297MOL0     H40085   8.149   3.084   4.538  0.0601 -1.5214 -0.0072
  297MOL0     H40086   8.307   3.025   4.535  0.6966  2.8430 -0.7396
  297MOL0     H40087   8.384   3.120   4.353 -0.9098 -0.2472  0.1917
  297MOL0     H40088   8.328   3.253   4.447 -0.7170  0.0004 -0.6086
  297MOL0     H40089   8.127   3.267   4.327  0.5558  1.2180  1.1193
  297MOL0     H40090   8.188   3.133   4.215 -2.2400  1.4557  0.1099
  297MOL0     H40091   8.277   3.430   4.230 -0.6012 -1.1078  1.5667
  297MOL0     H40092   8.192   3.350   4.107  0.8996 -0.2903 -0.3441
  297MOL0     H40093   8.529   3.242   3.929  0.0357 -1.7546  0.5098
  297MOL0     H40094   8.211   2.891   4.666 -3.3726  1.6788  0.9599
  297MOL0     H40095   8.112   2.692   4.774 -2.0289 -0.6438  0.2763
  298MOL0     O40096   9.855   8.568  10.090 -0.4137 -0.0342 -0.3925
  298MOL0     C40097   9.906   8.458  10.116  0.7259 -1.2489  0.1726
  298MOL0     O40098   9.845   8.354  10.179  0.0543 -0.3501 -0.2521
  298MOL0     C40099   9.710   8.368  10.233  0.3244  0.2332  0.2637
  298MOL0     C40100   9.666   8.340  10.359 -0.8601 -0.4653  0.0801
  298MOL0     C40101   9.530   8.351  10.383  0.0130 -1.2704 -0.7262
  298MOL0     C40102   9.435   8.380  10.286 -0.4492  0.6967 -0.4156
  298MOL0     O40103   9.304   8.358  10.315  0.3946  0.1217  0.8583
  298MOL0     C40104   9.222   8.473  10.312 -0.8989 -0.0558 -0.6995
  298MOL0     C40105   9.084   8.443  10.258  0.4481  0.6679 -0.7369
  298MOL0     C40106   9.089   8.424  10.100 -0.1246  0.6586 -1.1624
  298MOL0     C40107   8.942   8.411  10.040 -0.3712 -0.4437 -0.5582
  298MOL0     C40108   8.937   8.361   9.897  0.9547  0.1536  0.0086
  298MOL0     C40109   8.791   8.350   9.837 -0.2792 -0.3355  0.4506
  298MOL0     C40110   8.718   8.227   9.897  0.5072 -0.3358 -0.0311
  298MOL0     C40111   8.587   8.175   9.833 -0.4016  0.2951 -0.7677
  298MOL0     N40112   8.602   8.081   9.712 -0.0570 -0.0113 -0.9682
  298MOL0     C40113   8.538   7.962   9.700 -1.4334  0.7032  0.4293
  298MOL0     C40114   8.527   7.934   9.565 -0.6513 -0.5136  1.0902
  298MOL0     C40115   8.480   7.811   9.499  0.6550  1.4084  0.1643
  298MOL0     C40116   8.324   7.805   9.519 -0.6230  0.1693  0.2339
  298MOL0     C40117   8.266   7.702   9.435  0.9149 -0.5316 -0.1446
  298MOL0     C40118   8.113   7.686   9.465  0.0121 -0.5914  0.4404
  298MOL0     O40119   8.026   7.794   9.415 -0.2666  0.3100  0.4482
  298MOL0     C40120   7.934   7.763   9.322  0.0830  0.5989  0.0966
  298MOL0     C40121   7.949   7.659   9.226  0.1021 -0.6437 -0.5908
  298MOL0     C40122   7.857   7.644   9.122 -0.4689  0.1982 -0.1947
  298MOL0     C40123   7.879   7.519   9.036  0.7809  0.6947 -0.0941
  298MOL0     C40124   7.738   7.722   9.117 -0.8439 -0.6431  0.0006
  298MOL0     C40125   7.630   7.701   9.021 -0.0440  0.1781  0.1764
  298MOL0     O40126   7.590   7.568   9.004 -0.2005  0.9840 -0.1566
  298MOL0     C40127   7.483   7.562   8.916 -0.2231  1.0312 -1.1388
  298MOL0     C40128   7.348   7.540   8.965 -0.3651  0.1820 -0.0510
  298MOL0     C40129   7.241   7.540   8.871 -0.2388  0.1564 -0.7178
  298MOL0     C40130   7.263   7.544   8.735 -0.5591  0.2480  0.3057
  298MOL0     O40131   7.155   7.531   8.646  0.2058 -0.3549 -0.1028
  298MOL0     C40132   7.181   7.496   8.511  0.1887  0.4889 -0.0512
  298MOL0     C40133   7.050   7.482   8.452  0.7966 -0.2869  0.2426
  298MOL0     C40134   7.062   7.440   8.305 -0.5650  0.4677 -0.9339
  298MOL0     C40135   6.930   7.405   8.242 -0.1854 -0.0528 -0.1284
  298MOL0     C40136   6.931   7.321   8.106 -0.0941 -0.6606  0.3330
  298MOL0     C40137   6.790   7.301   8.048 -0.3805 -0.2917  0.0131
  298MOL0     C40138   6.688   7.204   8.126 -0.5338 -0.0291  0.1690
  298MOL0     C40139   6.577   7.182   8.030  0.2584 -0.5134  0.2011
  298MOL0    Cl40140   6.421   7.143   8.104 -0.0589  0.1327 -0.1956
  298MOL0     C40141   7.400   7.558   8.687 -0.5429  0.3598  0.1552
  298MOL0     C40142   7.506   7.568   8.784  0.0920 -0.5012 -0.0222
  298MOL0     O40143   7.556   7.793   8.994 -0.0424 -0.1549  0.6894
  298MOL0     C40144   7.731   7.830   9.208 -0.1891 -0.5245 -0.5230
  298MOL0     C40145   7.828   7.846   9.308  1.0455 -0.0677  0.8877
  298MOL0     N40146   8.594   8.047   9.505 -0.0954  0.7891 -0.1059
  298MOL0     N40147   8.623   8.134   9.589 -0.3789 -0.3214 -0.0554
  298MOL0     C40148   9.480   8.392  10.156 -0.5265 -1.1306  0.1623
  298MOL0     C40149   9.614   8.395  10.130  0.1945  0.2435 -0.7592
  298MOL0     C40150  10.045   8.433  10.065 -1.2107  0.3356  0.1820
  298MOL0     C40151  10.078   8.313  10.003 -0.6954  0.0013 -0.2912
  298MOL0     C40152  10.214   8.290   9.962  0.1296  0.2467 -0.5064
  298MOL0     C40153  10.312   8.394   9.984 -0.0802  0.2847  0.2745
  298MOL0     O40154  10.438   8.355   9.933 -0.2524  0.8830 -0.1713
  298MOL0     C40155  10.545   8.456   9.939 -0.0326 -0.1258  0.3353
  298MOL0     C40156  10.520   8.567   9.824  0.4396 -0.0779 -0.0822
  298MOL0     C40157  10.495   8.503   9.691  0.0560 -0.5231  0.2588
  298MOL0     C40158  10.485   8.602   9.574  0.2020 -0.5864  0.1653
  298MOL0     C40159  10.471   8.513   9.453  0.8091 -0.4013 -0.5663
  298MOL0     C40160  10.464   8.432   9.368 -0.1788 -0.0528  0.7216
  298MOL0     C40161  10.272   8.520  10.047  0.6291 -0.1019  0.3753
  298MOL0     C40162  10.140   8.530  10.085 -0.3299 -1.3193 -0.2742
  298MOL0     H40163   9.737   8.318  10.438 -0.7553 -3.0092 -0.6337
  298MOL0     H40164   9.500   8.324  10.484 -0.8945 -1.8247 -1.1247
  298MOL0     H40165   9.228   8.518  10.412 -1.1496 -1.1876 -0.1593
  298MOL0     H40166   9.259   8.541  10.235  1.1349 -2.2788 -1.7940
  298MOL0     H40167   9.045   8.358  10.316  4.0845 -0.7345 -0.0393
  298MOL0     H40168   9.019   8.529  10.275 -0.3143 -0.0922  0.3931
  298MOL0     H40169   9.130   8.514  10.053  0.8843  1.0070  0.2864
  298MOL0     H40170   9.158   8.341  10.083  0.8272  1.5189 -1.6105
  298MOL0     H40171   8.884   8.358  10.116  0.0780 -1.1977 -0.7302
  298MOL0     H40172   8.903   8.513  10.034 -0.2154 -0.4204 -1.3355
  298MOL0     H40173   9.003   8.428   9.841  1.7413  2.4293  3.3555
  298MOL0     H40174   8.994   8.268   9.896  1.1532  0.2677  0.4087
  298MOL0     H40175   8.737   8.444   9.850  2.9747  1.5065  1.9110
  298MOL0     H40176   8.790   8.349   9.727  1.8095  0.1370  0.3941
  298MOL0     H40177   8.792   8.147   9.887  2.7231  1.4735  1.0487
  298MOL0     H40178   8.698   8.245  10.003  0.4899 -3.6627  0.6300
  298MOL0     H40179   8.520   8.255   9.803  0.0026  0.2720 -1.7714
  298MOL0     H40180   8.531   8.115   9.905  1.6134 -1.4004 -0.5156
  298MOL0     H40181   8.521   7.882   9.771 -3.7563  1.5768  0.9463
  298MOL0     H40182   8.509   7.793   9.395 -2.7992 -2.5246 -0.3935
  298MOL0     H40183   8.517   7.721   9.550 -1.1797  0.7121  0.3251
  298MOL0     H40184   8.296   7.903   9.479  6.4669  3.1054  0.9651
  298MOL0     H40185   8.300   7.802   9.626  0.1521  3.9584  0.6669
  298MOL0     H40186   8.313   7.604   9.449 -2.1117 -1.7887  2.8046
  298MOL0     H40187   8.270   7.738   9.332 -0.3044 -0.9302 -0.3496
  298MOL0     H40188   8.101   7.689   9.573  1.2257 -2.2176  0.6573
  298MOL0     H40189   8.072   7.588   9.436 -2.7898  0.5317  0.2522
  298MOL0     H40190   8.038   7.597   9.232  0.9018  0.5980  1.5304
  298MOL0     H40191   7.843   7.421   9.070  3.7581 -0.8964 -1.1004
  298MOL0     H40192   7.851   7.535   8.932  1.8048 -0.6609 -0.6218
  298MOL0     H40193   7.988   7.507   9.033  0.7317 -0.0644  0.7107
  298MOL0     H40194   7.333   7.555   9.071  1.6386  0.2018  0.2609
  298MOL0     H40195   7.140   7.541   8.910  0.5666 -0.5060  1.4914
  298MOL0     H40196   7.241   7.571   8.459  1.2003  0.9778  1.7574
  298MOL0     H40197   7.232   7.399   8.512  1.2408  0.9434 -2.1743
  298MOL0     H40198   7.001   7.403   8.510  0.0917  1.6090  2.3182
  298MOL0     H40199   6.990   7.573   8.461  2.5517  0.9868 -0.4959
  298MOL0     H40200   7.118   7.346   8.307 -1.3937 -0.1803 -3.6799
  298MOL0     H40201   7.121   7.514   8.249 -0.9010  0.9769 -0.6289
  298MOL0     H40202   6.868   7.346   8.310  0.4587  0.9177  1.3592
  298MOL0     H40203   6.869   7.495   8.229  0.1864  0.1026 -0.8481
  298MOL0     H40204   6.991   7.230   8.114  1.6962  0.6359  3.1601
  298MOL0     H40205   6.988   7.383   8.036 -0.6645 -1.0555 -0.5031
  298MOL0     H40206   6.745   7.400   8.041 -0.4304 -0.2611  0.6955
  298MOL0     H40207   6.803   7.261   7.947  0.3057  1.2972 -0.5554
  298MOL0     H40208   6.655   7.232   8.226  0.7880 -2.8904  1.4839
  298MOL0     H40209   6.727   7.103   8.136 -1.2696 -0.4352 -0.8757
  298MOL0     H40210   6.609   7.105   7.959 -1.5078 -2.3229  1.2342
  298MOL0     H40211   6.570   7.269   7.965 -0.1466  0.1970  1.1596
  298MOL0     H40212   7.423   7.579   8.583  1.9565  0.8652  0.7416
  298MOL0     H40213   7.608   7.573   8.746  1.2057 -1.0869  2.6954
  298MOL0     H40214   7.643   7.893   9.207  0.2808  0.2326  1.6352
  298MOL0     H40215   7.807   7.927   9.377  3.1825 -0.6616  2.3333
  298MOL0     H40216   9.399   8.410  10.086 -0.5288 -2.0612 -0.0872
  298MOL0     H40217   9.646   8.398  10.026  0.9642  2.6533 -0.5027
  298MOL0     H40218  10.006   8.232   9.997 -1.2955  0.4799  0.2369
  298MOL0     H40219  10.257   8.191   9.948 -0.9888 -0.5770  1.5057
  298MOL0     H40220  10.550   8.500  10.039 -0.0261  0.3926  0.1114
  298MOL0     H40221  10.635   8.401   9.909 -0.4450 -0.5967 -0.0686
  298MOL0     H40222  10.615   8.619   9.809 -0.2459  0.5840 -2.6624
  298MOL0     H40223  10.435   8.632   9.849 -0.4799  0.3130 -3.6935
  298MOL0     H40224  10.395   8.458   9.690 -0.8062  1.2477 -1.4750
  298MOL0     H40225  10.564   8.424   9.662 -0.0561 -0.2294 -0.8636
  298MOL0     H40226  10.568   8.673   9.574  0.7348 -1.1961 -0.3504
  298MOL0     H40227  10.392   8.656   9.591  1.1060  0.4806  2.0527
  298MOL0     H40228  10.456   8.346   9.303  0.1025  0.5792 -0.1732
  298MOL0     H40229  10.354   8.591  10.057 -1.5386  2.3948  1.3758
  298MOL0     H40230  10.113   8.628  10.123  3.2002  0.1895 -1.2242
  299MOL0     O40231   0.992   2.692   6.801 -0.1232  0.1026  0.1506
  299MOL0     C40232   1.066   2.606   6.852 -1.0678  0.2479 -0.0064
  299MOL0     O40233   1.082   2.597   6.988 -0.6316  0.3113  0.0407
  299MOL0     C40234   0.985   2.657   7.065 -0.4790  0.2740  0.0021
  299MOL0     C40235   0.990   2.793   7.092 -0.2725 -0.9045  0.7043
  299MOL0     C40236   0.886   2.852   7.163 -0.0261 -0.0539 -0.1010
  299MOL0     C40237   0.784   2.772   7.222  0.5813  0.3151  0.1103
  299MOL0     O40238   0.678   2.832   7.291  0.1828  0.9066 -0.1419
  299MOL0     C40239   0.718   2.890   7.414 -0.0282  1.1575 -0.1476
  299MOL0     C40240   0.612   2.970   7.485 -0.8650 -0.2261  0.1775
  299MOL0     C40241   0.557   3.100   7.410 -0.3579 -0.8814  0.3563
  299MOL0     C40242   0.636   3.238   7.407 -0.4445 -0.0125  0.3267
  299MOL0     C40243   0.784   3.221   7.366 -0.2443  0.1167 -0.0028
  299MOL0     C40244   0.833   3.330   7.274  0.1430 -0.1057  0.1870
  299MOL0     C40245   0.972   3.297   7.234 -1.1224  1.2524  0.2689
  299MOL0     C40246   1.019   3.329   7.087  0.1719 -0.9461  0.5178
  299MOL0     N40247   1.036   3.477   7.073  0.5974 -0.1460 -0.2796
  299MOL0     C40248   1.150   3.535   7.027 -0.4962  0.0583 -0.4365
  299MOL0     C40249   1.126   3.663   7.004 -0.8368 -1.4059  0.4545
  299MOL0     C40250   1.218   3.780   6.958 -0.5649 -0.0373  0.2900
  299MOL0     C40251   1.260   3.753   6.812 -0.9195  0.6352 -0.2951
  299MOL0     C40252   1.144   3.744   6.712  0.9526  0.9333  0.3212
  299MOL0     C40253   1.026   3.846   6.721  0.2300  0.7708 -0.3272
  299MOL0     O40254   1.064   3.983   6.730 -0.2852  0.1420 -0.0779
  299MOL0     C40255   0.975   4.068   6.790  0.8309  0.3976  1.0784
  299MOL0     C40256   1.014   4.196   6.805  0.2245  0.4446 -0.6248
  299MOL0     C40257   0.936   4.296   6.862 -0.1561 -0.1181 -0.0447
  299MOL0     C40258   1.000   4.433   6.879  0.2260 -0.0278  0.2795
  299MOL0     C40259   0.799   4.270   6.886 -1.3730 -0.7468  0.6312
  299MOL0     C40260   0.699   4.365   6.954 -0.1955 -0.1602  1.2368
  299MOL0     O40261   0.567   4.320   6.962 -0.1447 -0.2843  0.6422
  299MOL0     C40262   0.458   4.395   6.999 -0.4844  0.6275 -0.7812
  299MOL0     C40263   0.460   4.518   7.072 -0.4475  0.6092 -0.2203
  299MOL0     C40264   0.341   4.575   7.107 -0.1157 -0.0850 -0.0854
  299MOL0     C40265   0.214   4.520   7.080 -0.1066 -0.1232  0.7763
  299MOL0     O40266   0.103   4.590   7.134  0.2538  0.3762 -0.0927
  299MOL0     C40267   0.006   4.510   7.206 -1.4313 -0.4227 -0.7546
  299MOL0     C40268  -0.133   4.537   7.149  0.2001  0.3081 -1.0432
  299MOL0     C40269  -0.191   4.677   7.171 -0.5961 -0.0460  0.5263
  299MOL0     C40270  -0.249   4.692   7.310 -0.1020 -0.0546  0.7110
  299MOL0     C40271  -0.320   4.827   7.341  0.5678 -0.3860 -0.8588
  299MOL0     C40272  -0.416   4.863   7.227  0.8264 -0.0077 -0.2131
  299MOL0     C40273  -0.468   5.005   7.243 -0.8077 -0.3703 -0.1385
  299MOL0     C40274  -0.484   5.079   7.112 -0.7443  0.5438  0.9882
  299MOL0    Cl40275  -0.591   5.228   7.122 -0.0464  0.2654  0.4090
  299MOL0     C40276   0.213   4.398   7.005  0.2652 -0.0062  0.4618
  299MOL0     C40277   0.331   4.337   6.974 -0.1180  0.3535 -0.8190
  299MOL0     O40278   0.742   4.470   6.992 -0.0344 -0.5850 -0.3353
  299MOL0     C40279   0.760   4.145   6.856  0.5710  1.0876 -1.2121
  299MOL0     C40280   0.842   4.044   6.811  0.6694 -0.2508 -0.7471
  299MOL0     N40281   0.992   3.685   7.051 -0.3452 -0.0171  0.1818
  299MOL0     N40282   0.941   3.576   7.090 -0.8280  0.6038 -0.4371
  299MOL0     C40283   0.793   2.632   7.201  0.1319 -0.6204 -0.5620
  299MOL0     C40284   0.890   2.576   7.120  0.0860  0.1716  0.6041
  299MOL0     C40285   1.129   2.505   6.762  0.6217 -0.2725 -0.7796
  299MOL0     C40286   1.185   2.389   6.808  0.1752 -0.2710  0.4153
  299MOL0     C40287   1.248   2.298   6.727  0.0026 -0.2843 -0.3686
  299MOL0     C40288   1.252   2.325   6.594 -1.0537 -0.3945 -0.1109
  299MOL0     O40289   1.329   2.264   6.503  0.4915  0.3821  0.5271
  299MOL0     C40290   1.352   2.127   6.531 -0.5955  0.1831  0.5808
  299MOL0     C40291   1.245   2.021   6.496  1.4038  0.1915 -0.1296
  299MOL0     C40292   1.182   2.045   6.357 -0.1483  0.4540  0.2955
  299MOL0     C40293   1.069   1.956   6.322 -0.1816  0.7187  0.1885
  299MOL0     C40294   0.958   1.953   6.420 -0.4924  0.4143  0.3357
  299MOL0     C40295   0.858   1.957   6.490 -0.4053  0.4193  0.2996
  299MOL0     C40296   1.185   2.433   6.543 -0.4593  0.6056 -0.3936
  299MOL0     C40297   1.124   2.528   6.625  0.5879  0.3101 -0.4909
  299MOL0     H40298   1.072   2.852   7.053 -0.9051  0.7245  1.7254
  299MOL0     H40299   0.877   2.960   7.165 -0.2033  0.0238 -2.1266
  299MOL0     H40300   0.753   2.811   7.481 -1.9186  1.1453  0.8984
  299MOL0     H40301   0.808   2.951   7.405  1.5321 -0.8605  0.8115
  299MOL0     H40302   0.520   2.912   7.503 -0.5554 -0.8719 -0.2748
  299MOL0     H40303   0.656   3.002   7.580  1.0419  0.0992 -0.7667
  299MOL0     H40304   0.545   3.067   7.306  2.8052 -1.1412 -0.0102
  299MOL0     H40305   0.460   3.126   7.455 -0.5725 -3.2333  1.3962
  299MOL0     H40306   0.578   3.305   7.343 -2.5590 -0.1036  2.0289
  299MOL0     H40307   0.630   3.288   7.504  0.4038  1.9743 -0.6006
  299MOL0     H40308   0.851   3.217   7.453  0.5010  0.5982 -0.5424
  299MOL0     H40309   0.804   3.131   7.306  2.3900  0.0156  0.8775
  299MOL0     H40310   0.775   3.319   7.181  0.8778  1.0910 -0.4426
  299MOL0     H40311   0.828   3.431   7.315  0.9075  0.0192 -0.0187
  299MOL0     H40312   1.036   3.356   7.301 -2.0050 -1.4149  3.7268
  299MOL0     H40313   0.994   3.193   7.257 -1.4005  1.0372 -0.3994
  299MOL0     H40314   0.951   3.290   7.010 -0.4205  0.9802  0.0050
  299MOL0     H40315   1.115   3.282   7.068 -0.9759 -3.1837 -0.0881
  299MOL0     H40316   1.238   3.476   7.004  0.2521  0.7502  0.5603
  299MOL0     H40317   1.165   3.874   6.973 -0.1256  0.2324  0.1487
  299MOL0     H40318   1.308   3.775   7.019 -1.2577  0.2254  1.3646
  299MOL0     H40319   1.311   3.656   6.812 -0.7964  0.6975  0.0742
  299MOL0     H40320   1.336   3.823   6.775  0.0931 -0.0040  0.4916
  299MOL0     H40321   1.109   3.641   6.719  0.3469  1.2506  3.1096
  299MOL0     H40322   1.192   3.759   6.615  2.5571  0.8368  1.0713
  299MOL0     H40323   0.976   3.813   6.813 -0.1573 -2.3831 -1.5531
  299MOL0     H40324   0.951   3.828   6.644 -1.5229 -0.2580  1.4972
  299MOL0     H40325   1.108   4.222   6.756  1.0045 -3.0674 -1.2948
  299MOL0     H40326   1.098   4.438   6.830  0.8386 -3.2278  0.9499
  299MOL0     H40327   0.929   4.500   6.832 -1.4863  0.1714  2.9166
  299MOL0     H40328   1.017   4.466   6.982  2.1766  1.9503 -0.5941
  299MOL0     H40329   0.550   4.578   7.082 -0.0847  1.0549 -4.5030
  299MOL0     H40330   0.341   4.668   7.162  0.6609 -0.6075  0.8197
  299MOL0     H40331   0.043   4.407   7.213  2.3651  0.8532  3.8971
  299MOL0     H40332   0.008   4.548   7.309 -1.9596 -1.3966 -0.3700
  299MOL0     H40333  -0.112   4.519   7.043  1.5402  1.9451 -1.0966
  299MOL0     H40334  -0.204   4.461   7.181  2.0906 -1.1094 -0.0322
  299MOL0     H40335  -0.271   4.685   7.097  0.1286  1.8927 -0.1045
  299MOL0     H40336  -0.112   4.751   7.154 -2.1915  1.6710  0.1266
  299MOL0     H40337  -0.330   4.620   7.316 -0.5260  0.1971 -1.4851
  299MOL0     H40338  -0.168   4.664   7.379  0.3724 -0.2976  0.0653
  299MOL0     H40339  -0.242   4.904   7.345 -0.1579  0.3925 -1.2746
  299MOL0     H40340  -0.363   4.835   7.441  0.6221  3.2144 -0.9919
  299MOL0     H40341  -0.367   4.848   7.130  3.4171 -0.5688  1.0835
  299MOL0     H40342  -0.498   4.791   7.230  0.5275  0.3484  1.5900
  299MOL0     H40343  -0.397   5.069   7.296 -3.5937  1.0104  2.2015
  299MOL0     H40344  -0.561   5.018   7.300  0.8806  2.0301  2.3266
  299MOL0     H40345  -0.536   5.018   7.037 -1.2215  2.7836 -0.6049
  299MOL0     H40346  -0.387   5.107   7.070 -1.9603  4.2306  0.2843
  299MOL0     H40347   0.125   4.340   6.978  0.8816 -0.9628  0.4694
  299MOL0     H40348   0.322   4.233   6.945 -0.3863 -0.1783  1.0155
  299MOL0     H40349   0.657   4.115   6.868  0.9406  0.8529  2.2267
  299MOL0     H40350   0.810   3.944   6.782  0.5328 -0.4610  0.1011
  299MOL0     H40351   0.719   2.569   7.249  0.4718 -0.8956 -0.3882
  299MOL0     H40352   0.896   2.470   7.097  1.0005 -0.5013  3.5683
  299MOL0     H40353   1.179   2.357   6.912  0.1416  0.7734  0.7472
  299MOL0     H40354   1.293   2.216   6.782  0.3422  0.4702  0.4928
  299MOL0     H40355   1.444   2.097   6.479 -1.5555  1.5371 -2.0625
  299MOL0     H40356   1.384   2.104   6.633  1.0840  0.2171  0.0941
  299MOL0     H40357   1.166   2.027   6.571  0.5689 -1.0247 -0.8683
  299MOL0     H40358   1.275   1.915   6.498 -0.7367 -0.4571  1.2145
  299MOL0     H40359   1.259   2.023   6.282  1.6431  0.5073  2.0120
  299MOL0     H40360   1.155   2.150   6.343  0.3250  0.7536  1.5239
  299MOL0     H40361   1.093   1.850   6.307 -5.6796 -0.8154 -0.0534
  299MOL0     H40362   1.034   1.992   6.224  0.2168  0.7561  0.0579
  299MOL0     H40363   0.768   1.970   6.547 -0.9250 -5.1620  1.3171
  299MOL0     H40364   1.179   2.465   6.440 -2.4549 -1.3346 -0.9344
  299MOL0     H40365   1.090   2.619   6.577 -0.7911 -0.3388 -0.8030
  300MOL0     O40366   3.163   7.669  10.372  0.5277  0.3139 -0.5493
  300MOL0     C40367   3.197   7.651  10.258 -0.6743  0.4643 -0.6658
  300MOL0     O40368   3.174   7.532  10.183  1.0292  0.2797 -0.0466
  300MOL0     C40369   3.086   7.443  10.224  0.0225  0.5967 -0.4307
  300MOL0     C40370   3.113   7.312  10.255  0.1168  1.2955  0.6705
  300MOL0     C40371   3.004   7.237  10.312 -0.0272  0.4090  1.1424
  300MOL0     C40372   2.876   7.283  10.321  0.4512 -0.6391 -0.7163
  300MOL0     O40373   2.795   7.195  10.392 -0.0841 -0.2796  1.1342
  300MOL0     C40374   2.666   7.240  10.428  0.4441 -1.4484 -0.4335
  300MOL0     C40375   2.576   7.135  10.491  0.5845  1.3740 -0.3802
  300MOL0     C40376   2.431   7.176  10.529  0.3217  1.1105  0.3724
  300MOL0     C40377   2.356   7.051  10.586 -0.2097 -0.4197 -0.7770
  300MOL0     C40378   2.224   7.079  10.657  0.8474 -0.1514  0.6649
  300MOL0     C40379   2.251   7.163  10.778 -0.0780  0.0105 -0.9158
  300MOL0     C40380   2.133   7.146  10.876 -0.9234 -0.2966  0.1238
  300MOL0     C40381   1.993   7.140  10.809  0.0754 -0.1947  0.2373
  300MOL0     N40382   1.895   7.142  10.915 -0.1834 -0.4147  0.6632
  300MOL0     C40383   1.887   7.044  11.011  0.1991 -0.8419  0.5500
  300MOL0     C40384   1.786   7.082  11.089 -0.6012  0.3680 -0.7069
  300MOL0     C40385   1.730   6.996  11.196  0.5210 -0.5381  0.1431
  300MOL0     C40386   1.615   6.915  11.153  0.7655 -0.0255  0.4684
  300MOL0     C40387   1.651   6.793  11.068 -0.7299 -0.2196  0.6310
  300MOL0     C40388   1.533   6.722  11.017  0.5908  0.1575  0.6500
  300MOL0     O40389   1.437   6.681  11.126 -0.6843 -0.3501 -0.3118
  300MOL0     C40390   1.335   6.616  11.063 -0.6282 -0.1065 -0.5970
  300MOL0     C40391   1.225   6.685  11.021  0.4201  0.2795  0.3439
  300MOL0     C40392   1.116   6.622  10.960 -0.8528 -0.2422  1.2172
  300MOL0     C40393   0.999   6.701  10.908 -0.0857  0.1965  0.6489
  300MOL0     C40394   1.111   6.479  10.956 -0.1945 -0.8461  0.2299
  300MOL0     C40395   0.996   6.414  10.897 -0.1788  1.5278 -0.4887
  300MOL0     O40396   0.870   6.457  10.924 -0.0930 -0.3421 -0.3758
  300MOL0     C40397   0.758   6.405  10.864 -0.4311  0.2237  0.3503
  300MOL0     C40398   0.660   6.345  10.943  0.4024 -0.4406  0.1308
  300MOL0     C40399   0.545   6.300  10.878 -0.6622 -0.2423 -0.0990
  300MOL0     C40400   0.522   6.301  10.745  0.2746 -0.3939 -0.1392
  300MOL0     O40401   0.398   6.259  10.699  0.4925  0.0301  0.3956
  300MOL0     C40402   0.382   6.234  10.554 -0.5823 -0.8818  0.5786
  300MOL0     C40403   0.286   6.350  10.496 -0.2746  0.6817  0.1641
  300MOL0     C40404   0.167   6.273  10.428  0.1870  0.5412  0.2086
  300MOL0     C40405   0.068   6.203  10.515  0.5000  0.2137 -0.6501
  300MOL0     C40406  -0.006   6.090  10.450 -0.3875  0.6514  0.1629
  300MOL0     C40407  -0.075   5.997  10.547  0.0160  0.6537 -0.2681
  300MOL0     C40408  -0.105   5.874  10.467  0.2450  0.5801  0.2315
  300MOL0     C40409  -0.151   5.763  10.553 -0.2310  0.2489  0.7561
  300MOL0    Cl40410  -0.193   5.617  10.470 -0.0960 -0.4588  0.0524
  300MOL0     C40411   0.616   6.373  10.663  0.4943 -0.1329  0.1267
  300MOL0     C40412   0.740   6.415  10.720 -0.0295 -0.2631  0.9126
  300MOL0     O40413   1.026   6.312  10.839  0.9212  0.0447  0.2115
  300MOL0     C40414   1.223   6.415  10.992 -0.2549  0.3067  0.2136
  300MOL0     C40415   1.327   6.478  11.057 -0.3328  0.0696  0.8518
  300MOL0     N40416   1.745   7.207  11.058 -0.3640  0.6023 -0.1505
  300MOL0     N40417   1.805   7.241  10.949 -0.1475 -0.0411 -0.0578
  300MOL0     C40418   2.850   7.418  10.299 -0.1832  0.5556  0.2577
  300MOL0     C40419   2.956   7.495  10.249  0.1434  0.1830  0.7929
  300MOL0     C40420   3.292   7.754  10.201 -0.4123 -0.2968  0.0572
  300MOL0     C40421   3.353   7.856  10.277 -0.5294  0.3043  0.8289
  300MOL0     C40422   3.431   7.957  10.229 -1.1183  0.0215  0.6109
  300MOL0     C40423   3.474   7.966  10.093  0.4725  0.7247 -0.4656
  300MOL0     O40424   3.558   8.062  10.044  0.1601  0.6672  0.2933
  300MOL0     C40425   3.580   8.096   9.909 -0.4482 -0.9115 -0.2921
  300MOL0     C40426   3.451   8.160   9.862 -0.2480 -0.1147  0.1106
  300MOL0     C40427   3.485   8.269   9.762 -0.9242 -0.5663  0.6561
  300MOL0     C40428   3.526   8.405   9.824  1.1319 -0.1180 -1.3038
  300MOL0     C40429   3.497   8.511   9.729  0.5551 -0.4229 -0.0200
  300MOL0     C40430   3.496   8.595   9.639 -0.1115  0.6050  0.3203
  300MOL0     C40431   3.423   7.862  10.012 -0.1205 -0.8820 -0.2074
  300MOL0     C40432   3.335   7.759  10.065 -0.2284 -0.1421 -0.0146
  300MOL0     H40433   3.217   7.282  10.249 -0.2619  0.2229 -0.9877
  300MOL0     H40434   3.024   7.133  10.337  2.8202  1.7960  6.0024
  300MOL0     H40435   2.674   7.323  10.499  0.9978 -0.0982 -2.0026
  300MOL0     H40436   2.610   7.281  10.343  1.0764  1.9735  0.6818
  300MOL0     H40437   2.574   7.050  10.423  3.8760  0.5590  0.3729
  300MOL0     H40438   2.626   7.090  10.578 -1.2374  1.4822  0.7816
  300MOL0     H40439   2.443   7.257  10.602  1.5001  2.9952 -1.7808
  300MOL0     H40440   2.363   7.200  10.447 -3.4338 -1.8586  2.2801
  300MOL0     H40441   2.335   6.999  10.492  0.4617 -1.0234 -0.5994
  300MOL0     H40442   2.421   6.996  10.654 -2.3928 -0.5020  1.3812
  300MOL0     H40443   2.153   7.130  10.591 -1.6074 -5.9658 -1.9285
  300MOL0     H40444   2.175   6.983  10.678 -2.6751  1.1629 -0.9253
  300MOL0     H40445   2.336   7.124  10.834 -2.6402 -1.5421  2.2453
  300MOL0     H40446   2.267   7.268  10.752  1.8913  0.8952  3.1058
  300MOL0     H40447   2.154   7.051  10.926  2.9663  0.0617 -0.5214
  300MOL0     H40448   2.134   7.224  10.952  2.2800 -1.3590  1.3516
  300MOL0     H40449   1.979   7.043  10.760  2.3082 -2.2385  3.2337
  300MOL0     H40450   1.981   7.224  10.740 -2.5348  1.8527  2.8900
  300MOL0     H40451   1.941   6.950  11.013  0.3903 -0.7895 -0.8848
  300MOL0     H40452   1.801   6.943  11.260  0.3334  0.1423  0.9298
  300MOL0     H40453   1.688   7.070  11.265  0.3134 -1.5739  1.1561
  300MOL0     H40454   1.544   6.986  11.109 -2.0738 -2.5974  0.5055
  300MOL0     H40455   1.570   6.875  11.244 -0.7020  2.6774  1.0473
  300MOL0     H40456   1.718   6.734  11.131 -1.5434 -0.4871  1.2674
  300MOL0     H40457   1.711   6.821  10.981  0.9144  5.3330  3.1180
  300MOL0     H40458   1.562   6.637  10.955  1.5068 -0.7931  2.3157
  300MOL0     H40459   1.483   6.783  10.941 -1.3624  1.1786  2.6280
  300MOL0     H40460   1.221   6.793  11.033 -0.1022  0.1306  1.6968
  300MOL0     H40461   0.964   6.661  10.813  2.1441 -1.6530  0.5190
  300MOL0     H40462   0.923   6.695  10.986 -0.9735  0.6561 -0.1527
  300MOL0     H40463   1.019   6.809  10.899  2.1125 -0.0594  1.8457
  300MOL0     H40464   0.660   6.344  11.051 -0.5061  2.0043  0.2111
  300MOL0     H40465   0.477   6.240  10.938  0.7967 -2.2499 -0.3542
  300MOL0     H40466   0.477   6.231  10.501 -0.5682  2.7256  0.1223
  300MOL0     H40467   0.330   6.140  10.534 -2.8436  0.8145 -2.3592
  300MOL0     H40468   0.246   6.414  10.576  1.5983  0.8614  1.0111
  300MOL0     H40469   0.344   6.411  10.427 -2.7381 -0.0418 -2.7721
  300MOL0     H40470   0.202   6.199  10.355  0.6650 -0.2370  1.1971
  300MOL0     H40471   0.111   6.343  10.365  0.7453 -0.4931 -1.5131
  300MOL0     H40472   0.115   6.167  10.608  1.4111  0.0670 -1.1594
  300MOL0     H40473  -0.004   6.278  10.549 -0.1624  0.5391 -2.6695
  300MOL0     H40474   0.071   6.042  10.390 -2.2345  0.4417 -2.2122
  300MOL0     H40475  -0.075   6.137  10.380 -2.7147 -1.7497  0.6755
  300MOL0     H40476   0.001   5.970  10.621  1.2720  0.7869 -1.4757
  300MOL0     H40477  -0.166   6.031  10.598  1.2030  2.5653  0.6525
  300MOL0     H40478  -0.016   5.837  10.415  0.9807 -0.2141  1.9651
  300MOL0     H40479  -0.181   5.896  10.391  2.6122  1.2516 -2.1092
  300MOL0     H40480  -0.244   5.803  10.596 -0.4286  1.6126 -0.8424
  300MOL0     H40481  -0.079   5.753  10.635  1.4035 -2.4912 -0.8567
  300MOL0     H40482   0.598   6.394  10.558 -0.6164 -3.2943 -0.4312
  300MOL0     H40483   0.820   6.455  10.658  0.8073 -1.7426  0.9993
  300MOL0     H40484   1.238   6.309  10.974  2.6229  0.9831 -2.0516
  300MOL0     H40485   1.410   6.423  11.099  1.5033  3.0939  1.4984
  300MOL0     H40486   2.756   7.466  10.324 -1.7009 -2.5119  0.9210
  300MOL0     H40487   2.934   7.601  10.242  0.8165  0.3727  1.5127
  300MOL0     H40488   3.330   7.876  10.382  1.5837  1.1513  1.1863
  300MOL0     H40489   3.470   8.023  10.307  1.6072  1.8279 -2.0461
  300MOL0     H40490   3.670   8.158   9.895 -0.0651 -1.6207 -1.1253
  300MOL0     H40491   3.604   8.010   9.846  0.7353 -1.4520  0.8501
  300MOL0     H40492   3.399   8.202   9.949  1.5291 -0.0535  1.1906
  300MOL0     H40493   3.405   8.076   9.809  2.2844 -1.1385 -0.6313
  300MOL0     H40494   3.388   8.282   9.714 -0.5148  0.3258  0.0475
  300MOL0     H40495   3.563   8.232   9.695  1.1546 -0.4890  2.8510
  300MOL0     H40496   3.629   8.398   9.860  0.7027  1.8151  0.5539
  300MOL0     H40497   3.463   8.428   9.910 -1.9863 -1.3304 -3.0984
  300MOL0     H40498   3.502   8.650   9.548 -0.1568  0.6228  0.3277
  300MOL0     H40499   3.442   7.862   9.905 -1.0613 -0.6488 -0.3830
  300MOL0     H40500   3.296   7.685   9.995  1.0011  2.9876 -4.4673
  301MOL0     O40501   0.266   6.284   6.923 -0.1698  0.2228  0.3958
  301MOL0     C40502   0.309   6.318   7.035 -0.1884 -0.6873  0.0899
  301MOL0     O40503   0.437   6.360   7.062  0.1872 -0.3612 -0.2900
  301MOL0     C40504   0.546   6.322   6.988  0.1319  0.5621 -0.3409
  301MOL0     C40505   0.569   6.199   6.936  0.3200  0.0232  0.6173
  301MOL0     C40506   0.676   6.169   6.858  0.2282 -0.1512 -0.8253
  301MOL0     C40507   0.766   6.265   6.820 -0.5175 -0.4266  0.2338
  301MOL0     O40508   0.881   6.242   6.741  0.0435  0.1551  0.5528
  301MOL0     C40509   0.930   6.111   6.725 -0.2823  0.5560 -0.5922
  301MOL0     C40510   1.078   6.130   6.754 -0.8234  0.7590  0.4258
  301MOL0     C40511   1.159   6.003   6.741 -0.0473  0.6373  0.0053
  301MOL0     C40512   1.300   6.017   6.797  0.0464  0.6873  0.3225
  301MOL0     C40513   1.407   5.907   6.786  0.9763 -0.4960  0.4149
  301MOL0     C40514   1.542   5.939   6.840  0.3032  0.5764 -0.4045
  301MOL0     C40515   1.641   5.819   6.832 -0.3473 -1.1775 -0.1960
  301MOL0     C40516   1.771   5.873   6.903  0.1671  0.1463 -0.0046
  301MOL0     N40517   1.881   5.779   6.887  0.1575  0.3926 -0.4586
  301MOL0     C40518   1.894   5.665   6.967  0.4837 -0.1981 -0.5462
  301MOL0     C40519   1.995   5.599   6.908  0.2190 -0.2046 -0.2598
  301MOL0     C40520   2.046   5.466   6.953 -0.2706  0.2370  0.0092
  301MOL0     C40521   1.939   5.362   6.931  0.2339 -0.4032  0.1793
  301MOL0     C40522   1.949   5.241   7.022  0.7965  0.2577  0.0332
  301MOL0     C40523   1.840   5.143   6.968  0.1020 -0.1946 -0.3239
  301MOL0     O40524   1.835   5.018   7.040 -0.1778 -0.7257  0.5082
  301MOL0     C40525   1.756   4.928   6.989  0.6636 -0.5930  0.2411
  301MOL0     C40526   1.640   4.955   6.910 -0.6857  0.1182  0.3267
  301MOL0     C40527   1.557   4.841   6.877  0.2918 -0.3216 -0.7752
  301MOL0     C40528   1.442   4.872   6.779  0.1351  0.8655  0.0674
  301MOL0     C40529   1.581   4.711   6.929 -0.4557 -0.5751  0.6035
  301MOL0     C40530   1.475   4.598   6.933  0.0533  0.0269  0.8441
  301MOL0     O40531   1.495   4.483   7.013 -0.0883  0.1382 -0.0541
  301MOL0     C40532   1.397   4.392   7.023 -0.4361  0.4711 -0.0820
  301MOL0     C40533   1.403   4.273   6.947  0.1164 -0.2016  0.5970
  301MOL0     C40534   1.314   4.170   6.976  0.3064  0.8105 -0.3704
  301MOL0     C40535   1.234   4.173   7.090 -0.4187 -0.5872  0.2827
  301MOL0     O40536   1.139   4.070   7.101  0.3385 -0.4976 -0.2243
  301MOL0     C40537   1.030   4.097   7.192  0.3796  0.4270  0.0370
  301MOL0     C40538   0.940   3.979   7.190 -0.2235  0.8121  0.0399
  301MOL0     C40539   0.800   4.005   7.231 -0.1403  0.3511  0.0744
  301MOL0     C40540   0.718   3.879   7.202 -0.7287  0.6290  0.0846
  301MOL0     C40541   0.568   3.894   7.227 -0.6804  0.4160  0.5827
  301MOL0     C40542   0.466   3.802   7.160  0.5279 -0.2084  0.9879
  301MOL0     C40543   0.329   3.873   7.185  0.2797 -0.5670 -0.0629
  301MOL0     C40544   0.235   3.803   7.090 -1.2454 -1.1558 -0.2016
  301MOL0    Cl40545   0.097   3.901   7.046  0.1712 -0.2491 -0.5228
  301MOL0     C40546   1.232   4.288   7.163 -0.4532 -0.1054 -0.2581
  301MOL0     C40547   1.311   4.398   7.130 -0.3095 -0.3995 -0.7828
  301MOL0     O40548   1.369   4.625   6.874 -0.3216 -0.2609  0.3663
  301MOL0     C40549   1.698   4.696   7.010  0.3150 -0.3386  1.0829
  301MOL0     C40550   1.775   4.809   7.036  0.6741 -0.0586 -0.0611
  301MOL0     N40551   2.042   5.658   6.792  0.3548 -0.4218 -0.2908
  301MOL0     N40552   1.979   5.774   6.791  1.4054  0.3790  0.9202
  301MOL0     C40553   0.759   6.388   6.881  1.1318 -0.1901 -0.0450
  301MOL0     C40554   0.651   6.412   6.962  0.2102  0.2182 -0.1580
  301MOL0     C40555   0.217   6.320   7.150  0.4023  0.5088  0.0278
  301MOL0     C40556   0.079   6.313   7.134  0.7723 -1.0896  1.2690
  301MOL0     C40557  -0.012   6.324   7.242 -0.1093  0.3688 -0.7987
  301MOL0     C40558   0.053   6.335   7.373  0.3289  0.4193 -0.2906
  301MOL0     O40559  -0.025   6.330   7.485 -0.0719  0.0934  0.2793
  301MOL0     C40560  -0.166   6.305   7.473 -0.4175  0.7022  1.1266
  301MOL0     C40561  -0.219   6.179   7.431  0.3329  1.3683  0.4030
  301MOL0     C40562  -0.144   6.054   7.493 -0.2259  0.6635 -0.4263
  301MOL0     C40563  -0.149   6.037   7.643  0.2697 -0.4397  0.5997
  301MOL0     C40564  -0.284   6.032   7.693  0.5817  0.0002 -0.3870
  301MOL0     C40565  -0.406   6.038   7.716  0.4130  0.4944 -0.0320
  301MOL0     C40566   0.188   6.358   7.390 -0.5936 -0.0265 -1.3107
  301MOL0     C40567   0.270   6.336   7.281  0.7917 -0.2309 -0.1617
  301MOL0     H40568   0.486   6.133   6.961 -0.0276  0.3933  0.4620
  301MOL0     H40569   0.687   6.071   6.812  1.6656  0.7333 -2.4768
  301MOL0     H40570   0.890   6.043   6.801 -1.9458  0.9348 -1.0757
  301MOL0     H40571   0.897   6.073   6.628 -0.4106  0.4562 -0.5100
  301MOL0     H40572   1.123   6.202   6.685  0.6185  0.2324  0.7841
  301MOL0     H40573   1.077   6.162   6.859 -0.5561  0.6186  0.4697
  301MOL0     H40574   1.101   5.923   6.787 -0.3123  1.3516  0.9452
  301MOL0     H40575   1.177   5.987   6.634 -2.2639 -1.3170 -0.1373
  301MOL0     H40576   1.337   6.107   6.747  0.4811  0.5098  0.3223
  301MOL0     H40577   1.294   6.048   6.902  0.1834  0.6392  0.3450
  301MOL0     H40578   1.366   5.828   6.850 -2.1726  1.1895  0.6695
  301MOL0     H40579   1.418   5.866   6.685 -0.5258  1.6017 -0.6795
  301MOL0     H40580   1.573   6.033   6.793  0.0278  2.9501  3.6939
  301MOL0     H40581   1.535   5.983   6.940  0.2795 -1.3978  0.4974
  301MOL0     H40582   1.613   5.732   6.893 -0.0951 -2.0271 -1.2533
  301MOL0     H40583   1.661   5.787   6.729 -2.1058 -2.1395 -0.2785
  301MOL0     H40584   1.763   5.879   7.012  4.9302 -1.4172  0.7119
  301MOL0     H40585   1.786   5.972   6.858 -1.7147 -0.1141 -1.3013
  301MOL0     H40586   1.839   5.636   7.056 -1.4431 -1.2255 -1.9901
  301MOL0     H40587   2.135   5.437   6.895  0.6934 -0.9124  1.9558
  301MOL0     H40588   2.085   5.471   7.055 -0.3628 -1.0671  0.1339
  301MOL0     H40589   1.954   5.330   6.827  0.9119  1.1824 -0.2469
  301MOL0     H40590   1.842   5.412   6.940 -0.2736 -1.0216 -1.3924
  301MOL0     H40591   1.937   5.278   7.124  2.4519 -1.2490  0.8348
  301MOL0     H40592   2.046   5.193   7.007 -0.3246 -2.4362  0.8391
  301MOL0     H40593   1.864   5.124   6.863  3.2005 -1.6991  0.5312
  301MOL0     H40594   1.742   5.191   6.979  0.3321  0.7190 -2.0720
  301MOL0     H40595   1.619   5.054   6.870  0.4152  0.5546  0.7867
  301MOL0     H40596   1.348   4.857   6.833  0.6726 -0.2820  0.7321
  301MOL0     H40597   1.448   4.975   6.744 -1.1680  1.2543  0.8909
  301MOL0     H40598   1.447   4.791   6.706  2.2060 -3.4587  4.3946
  301MOL0     H40599   1.482   4.262   6.873  0.3048  2.7170  0.2206
  301MOL0     H40600   1.307   4.077   6.922 -1.9329  1.8079 -1.9550
  301MOL0     H40601   1.067   4.110   7.295  2.8718  2.0475 -0.9675
  301MOL0     H40602   0.978   4.186   7.156  0.0571 -0.4021 -1.6513
  301MOL0     H40603   0.938   3.941   7.087  0.7057  0.9060 -0.0291
  301MOL0     H40604   0.987   3.906   7.257 -0.3496  1.0062  0.3394
  301MOL0     H40605   0.775   4.095   7.174  0.7253 -1.2576 -3.0956
  301MOL0     H40606   0.796   4.030   7.337 -0.4388 -1.0148  0.4006
  301MOL0     H40607   0.741   3.851   7.099  3.3271  0.6051  0.8071
  301MOL0     H40608   0.755   3.798   7.265 -0.5814  0.1799 -0.5718
  301MOL0     H40609   0.549   3.995   7.190  3.5704  1.2682  0.2653
  301MOL0     H40610   0.545   3.894   7.334 -2.1714  0.2467  0.2804
  301MOL0     H40611   0.492   3.789   7.055  2.7630  3.6030  0.8881
  301MOL0     H40612   0.448   3.706   7.210 -1.0443 -0.6436 -0.3337
  301MOL0     H40613   0.326   3.981   7.168 -2.6902 -0.4216  0.8150
  301MOL0     H40614   0.291   3.860   7.287  0.2506 -0.6158 -0.0803
  301MOL0     H40615   0.205   3.707   7.133  1.7742 -2.5879 -1.0705
  301MOL0     H40616   0.285   3.783   6.995 -1.1516  1.2125 -0.7109
  301MOL0     H40617   1.167   4.308   7.247  0.2492  2.6903 -0.2764
  301MOL0     H40618   1.307   4.493   7.184  0.0705  0.7272 -2.6614
  301MOL0     H40619   1.724   4.596   7.043  1.2289 -0.9832 -1.3569
  301MOL0     H40620   1.856   4.795   7.107  1.0506 -1.1845 -0.6955
  301MOL0     H40621   0.830   6.467   6.860 -0.7264  1.4135 -0.6913
  301MOL0     H40622   0.633   6.502   7.020 -4.6178  1.4692 -3.0914
  301MOL0     H40623   0.048   6.292   7.032  1.0282  2.6846  0.2475
  301MOL0     H40624  -0.114   6.304   7.211  0.0260 -0.0156 -0.9978
  301MOL0     H40625  -0.217   6.332   7.566  0.0035  2.6520  0.8300
  301MOL0     H40626  -0.202   6.376   7.398 -2.6683 -0.8406  0.6491
  301MOL0     H40627  -0.230   6.168   7.323 -0.3117  1.9123  0.4046
  301MOL0     H40628  -0.324   6.181   7.462 -1.2289 -0.1015 -4.0203
  301MOL0     H40629  -0.043   6.064   7.453 -0.4734 -2.4198 -2.1853
  301MOL0     H40630  -0.179   5.961   7.445  5.6480 -0.3825 -3.5642
  301MOL0     H40631  -0.082   6.116   7.677  0.8698 -1.5429  2.1464
  301MOL0     H40632  -0.109   5.941   7.678 -0.1311 -0.9023 -0.1877
  301MOL0     H40633  -0.509   6.026   7.741  1.0152 -1.2495  1.8551
  301MOL0     H40634   0.244   6.360   7.483 -0.1059 -3.5000 -1.4069
  301MOL0     H40635   0.374   6.365   7.288  0.6265 -0.0286  3.6131
  302MOL0     O40636   9.831   2.546  11.124  0.2423 -0.4386  0.6105
  302MOL0     C40637   9.790   2.545  11.238 -0.0328 -0.4136  0.1553
  302MOL0     O40638   9.676   2.592  11.280  0.0521  0.0493 -0.0876
  302MOL0     C40639   9.597   2.675  11.202 -0.4711  0.7407 -0.7697
  302MOL0     C40640   9.635   2.752  11.095  0.3987 -0.5357  0.0964
  302MOL0     C40641   9.541   2.839  11.021  0.8010 -0.1244  0.3703
  302MOL0     C40642   9.406   2.836  11.050  0.7570  1.0595 -0.4143
  302MOL0     O40643   9.319   2.932  10.992  0.3785 -0.4404  0.6759
  302MOL0     C40644   9.381   3.055  10.958 -0.0782  0.4725  0.0945
  302MOL0     C40645   9.265   3.159  10.948 -0.3229  0.0848  0.7673
  302MOL0     C40646   9.303   3.298  10.943 -0.6744  0.0391 -0.6434
  302MOL0     C40647   9.179   3.391  10.915 -0.1433 -0.3519  0.2315
  302MOL0     C40648   9.131   3.366  10.764  0.0286 -1.0568  0.2446
  302MOL0     C40649   9.042   3.475  10.714  0.5152  0.0889  0.3141
  302MOL0     C40650   8.901   3.483  10.783  0.2272 -0.2243 -0.6847
  302MOL0     C40651   8.806   3.576  10.705  0.7929  0.1225 -0.3474
  302MOL0     N40652   8.660   3.559  10.724 -0.0579 -0.8233  0.0128
  302MOL0     C40653   8.593   3.448  10.685 -0.0428 -0.3219 -0.3312
  302MOL0     C40654   8.483   3.446  10.766 -0.2005 -0.0988  0.4334
  302MOL0     C40655   8.399   3.324  10.778  0.8715 -0.1873 -0.6392
  302MOL0     C40656   8.252   3.358  10.763 -0.0101  0.4399  0.4900
  302MOL0     C40657   8.194   3.428  10.884 -0.7266 -0.1094  0.2925
  302MOL0     C40658   8.053   3.481  10.878  0.1526  0.1089  0.2488
  302MOL0     O40659   7.972   3.379  10.812  0.6093  0.1449 -0.0094
  302MOL0     C40660   7.837   3.384  10.819  0.0913 -0.4290 -0.0403
  302MOL0     C40661   7.765   3.492  10.898  0.4669 -0.2587 -0.0019
  302MOL0     C40662   7.626   3.467  10.917 -0.1903 -1.6078  0.0415
  302MOL0     C40663   7.568   3.573  11.021 -0.7693 -0.6271  0.2565
  302MOL0     C40664   7.564   3.364  10.852 -0.1425 -0.6559 -0.3231
  302MOL0     C40665   7.419   3.337  10.863 -0.7834 -0.6278  0.6798
  302MOL0     O40666   7.337   3.442  10.851  0.2472 -0.6592  0.1522
  302MOL0     C40667   7.205   3.423  10.843  0.6037 -0.3339  0.3678
  302MOL0     C40668   7.156   3.361  10.724  0.0734 -0.3392 -0.1955
  302MOL0     C40669   7.022   3.345  10.720  0.0388 -0.5387  1.1593
  302MOL0     C40670   6.932   3.376  10.823 -0.0135 -0.6872  0.6824
  302MOL0     O40671   6.794   3.370  10.820  0.3911  0.2140 -0.5692
  302MOL0     C40672   6.740   3.321  10.694  0.0976  0.0925  1.3418
  302MOL0     C40673   6.585   3.306  10.696 -0.4621 -0.3313 -0.3979
  302MOL0     C40674   6.530   3.204  10.594  0.2737  0.2942 -0.4024
  302MOL0     C40675   6.373   3.218  10.577  0.6212 -0.0964  0.0956
  302MOL0     C40676   6.325   3.198  10.426  0.2781  1.4179  0.2844
  302MOL0     C40677   6.183   3.180  10.411  0.3738 -0.1148 -0.6233
  302MOL0     C40678   6.146   3.192  10.266  0.4041  0.3594 -1.0427
  302MOL0     C40679   5.999   3.240  10.242 -0.5353 -0.3678  0.5322
  302MOL0    Cl40680   5.909   3.201  10.086  0.0233  0.0296  0.1407
  302MOL0     C40681   6.980   3.420  10.941  0.6685  0.3775  0.4313
  302MOL0     C40682   7.118   3.442  10.953 -0.9749  0.7553  0.2869
  302MOL0     O40683   7.382   3.219  10.869 -0.4836 -0.6999 -0.4034
  302MOL0     C40684   7.632   3.276  10.772  0.3509 -0.6216  0.2498
  302MOL0     C40685   7.763   3.287  10.746 -0.2316  1.0910 -1.6816
  302MOL0     N40686   8.460   3.570  10.830  0.1207  1.6113 -0.3944
  302MOL0     N40687   8.574   3.632  10.811 -1.1204  0.4096 -0.1158
  302MOL0     C40688   9.362   2.749  11.157 -0.9846  0.1579 -0.4672
  302MOL0     C40689   9.460   2.669  11.228  0.5972  0.4074 -0.2680
  302MOL0     C40690   9.873   2.466  11.333  0.1568  0.0527 -0.7829
  302MOL0     C40691   9.849   2.473  11.466  0.1133  0.7264  0.4289
  302MOL0     C40692   9.921   2.400  11.557  0.0211 -0.6105 -0.1278
  302MOL0     C40693  10.037   2.326  11.511  0.2300 -0.5098 -0.1090
  302MOL0     O40694  10.098   2.249  11.599 -0.5520 -0.2296 -0.8854
  302MOL0     C40695  10.238   2.241  11.587  0.8709  0.8682  0.3737
  302MOL0     C40696  10.281   2.111  11.525 -0.2774 -0.8578 -0.0073
  302MOL0     C40697  10.420   2.104  11.459 -0.7308 -0.0592  0.4316
  302MOL0     C40698  10.531   2.113  11.563 -0.8477 -0.0150  0.0740
  302MOL0     C40699  10.549   2.249  11.621 -0.3642  0.0506 -0.1429
  302MOL0     C40700  10.559   2.364  11.663  0.2548 -0.4374 -0.1169
  302MOL0     C40701  10.060   2.317  11.371  0.2933 -0.6183 -0.7065
  302MOL0     C40702   9.985   2.388  11.285  0.0116  0.8346  0.2520
  302MOL0     H40703   9.742   2.759  11.077  0.4898  2.1159  1.2117
  302MOL0     H40704   9.588   2.901  10.946  0.8250 -1.0776 -0.4259
  302MOL0     H40705   9.459   3.097  11.023  1.0923 -2.1684  0.5459
  302MOL0     H40706   9.422   3.045  10.857 -1.2326  0.2645 -0.3670
  302MOL0     H40707   9.216   3.129  10.855 -0.4655 -3.2015  1.7587
  302MOL0     H40708   9.186   3.141  11.021 -1.2297  0.4546 -0.1128
  302MOL0     H40709   9.340   3.328  11.042  0.9759  2.1087 -1.7901
  302MOL0     H40710   9.384   3.321  10.872  0.4127  2.3912  1.2067
  302MOL0     H40711   9.098   3.356  10.980 -0.6253  0.1965 -0.0722
  302MOL0     H40712   9.197   3.497  10.934 -2.2544  0.0336  0.2689
  302MOL0     H40713   9.208   3.350  10.689  0.1743  1.0219 -0.1116
  302MOL0     H40714   9.076   3.272  10.773  0.8835 -1.4702  1.4586
  302MOL0     H40715   9.099   3.568  10.728  0.7056  0.1906 -1.0091
  302MOL0     H40716   9.024   3.450  10.609 -0.5727  0.1364  0.4770
  302MOL0     H40717   8.861   3.382  10.798  0.8348 -0.0644  2.7344
  302MOL0     H40718   8.912   3.524  10.883 -0.2374  0.7875 -1.0397
  302MOL0     H40719   8.819   3.563  10.597 -2.4904 -1.6223 -0.6394
  302MOL0     H40720   8.829   3.680  10.729 -0.4031 -0.3722  3.7127
  302MOL0     H40721   8.625   3.372  10.614  2.2175  2.9036 -3.0905
  302MOL0     H40722   8.434   3.239  10.720  4.0459 -1.6853  3.0334
  302MOL0     H40723   8.426   3.292  10.879 -0.2174 -0.1838 -0.3265
  302MOL0     H40724   8.192   3.268  10.744 -0.4911  0.6204  1.1253
  302MOL0     H40725   8.223   3.414  10.673 -1.6967 -0.0110  0.7169
  302MOL0     H40726   8.255   3.516  10.905  0.8214 -0.4918 -2.1344
  302MOL0     H40727   8.201   3.363  10.971  1.5280 -0.8162 -0.3317
  302MOL0     H40728   8.041   3.571  10.818  0.7409 -0.0421 -0.1006
  302MOL0     H40729   8.015   3.497  10.979 -1.5158 -1.3104 -0.1164
  302MOL0     H40730   7.809   3.579  10.945  5.9340 -1.6383 -1.8586
  302MOL0     H40731   7.504   3.642  10.966 -0.2453 -1.8452 -2.0252
  302MOL0     H40732   7.509   3.519  11.095 -0.3866 -0.7297  0.4913
  302MOL0     H40733   7.653   3.621  11.070  0.7965 -4.4669  1.7176
  302MOL0     H40734   7.212   3.340  10.634 -1.6260 -2.6848 -0.7907
  302MOL0     H40735   6.985   3.302  10.627 -0.1786 -0.3279  1.1472
  302MOL0     H40736   6.772   3.387  10.612  4.2882 -2.1112  0.9470
  302MOL0     H40737   6.786   3.226  10.668  0.2830  0.8497 -1.4203
  302MOL0     H40738   6.564   3.287  10.802  2.3010  0.0448  0.3080
  302MOL0     H40739   6.541   3.404  10.673 -2.9896 -1.3266 -0.1531
  302MOL0     H40740   6.545   3.100  10.626 -1.5531  0.0814 -0.1326
  302MOL0     H40741   6.588   3.218  10.502  1.0280 -0.3907 -0.0425
  302MOL0     H40742   6.324   3.142  10.639  0.9038  0.2087  0.7137
  302MOL0     H40743   6.342   3.317  10.612 -0.5874 -0.8648  1.2673
  302MOL0     H40744   6.375   3.104  10.404 -0.1426  0.1787  3.8211
  302MOL0     H40745   6.364   3.276  10.361 -0.9966  2.0034  0.1829
  302MOL0     H40746   6.150   3.085  10.456 -1.2564  0.8847  0.3931
  302MOL0     H40747   6.125   3.261  10.454  1.3404  0.0104  0.5088
  302MOL0     H40748   6.148   3.090  10.225 -1.2178 -0.9792  1.8797
  302MOL0     H40749   6.205   3.269  10.217  1.1665  0.2630 -0.2954
  302MOL0     H40750   5.995   3.346  10.268 -1.3945 -0.1748 -0.3239
  302MOL0     H40751   5.941   3.190  10.320  0.8383 -0.8413  1.3010
  302MOL0     H40752   6.910   3.448  11.020 -0.7766 -0.1913 -0.6004
  302MOL0     H40753   7.154   3.469  11.053 -1.6046 -1.3138  1.1284
  302MOL0     H40754   7.573   3.198  10.726  0.4338  0.5255 -1.9374
  302MOL0     H40755   7.825   3.218  10.690 -0.2640 -1.0869  0.7681
  302MOL0     H40756   9.260   2.761  11.192 -0.4565 -0.8628  1.6124
  302MOL0     H40757   9.421   2.609  11.310 -1.1671  1.0719 -0.5645
  302MOL0     H40758   9.756   2.513  11.505 -0.8583  0.1390 -1.1728
  302MOL0     H40759   9.883   2.410  11.658 -1.9167 -0.1216 -0.8686
  302MOL0     H40760  10.275   2.332  11.537  2.0790  1.5849  2.4294
  302MOL0     H40761  10.280   2.236  11.688 -0.8072  1.9549  1.1647
  302MOL0     H40762  10.212   2.069  11.450 -1.4602 -1.8282  1.5518
  302MOL0     H40763  10.264   2.032  11.599 -2.1604 -0.3073  0.2087
  302MOL0     H40764  10.432   2.176  11.378 -0.5224 -0.6890 -0.1071
  302MOL0     H40765  10.423   2.007  11.408  1.8938 -0.5927  1.4665
  302MOL0     H40766  10.625   2.083  11.515 -0.6593  2.1466 -1.0372
  302MOL0     H40767  10.505   2.036  11.637 -1.7632 -1.3438 -1.5694
  302MOL0     H40768  10.579   2.464  11.696  0.5249  0.0911 -1.7601
  302MOL0     H40769  10.136   2.252  11.329  0.3720 -0.8537 -0.2023
  302MOL0     H40770  10.003   2.373  11.179  0.9390 -1.7997  0.7176
  303MOL0     O40771   0.009  10.375   0.544  0.2242 -0.5660  0.0366
  303MOL0     C40772   0.120  10.396   0.495 -1.1984 -0.3013 -0.0318
  303MOL0     O40773   0.149  10.399   0.360 -0.7122 -0.1472 -0.3418
  303MOL0     C40774   0.056  10.395   0.254  0.0129  0.4797 -0.6837
  303MOL0     C40775   0.114  10.397   0.123 -0.6930 -0.0085  0.6994
  303MOL0     C40776   0.030  10.385   0.010 -0.6591 -0.1667  0.9637
  303MOL0     C40777  -0.107  10.400   0.025  0.2496  1.0879  0.7397
  303MOL0     O40778  -0.186  10.382  -0.087 -0.4404 -0.6264  0.7635
  303MOL0     C40779  -0.318  10.327  -0.080 -0.2915  0.2441 -0.3328
  303MOL0     C40780  -0.381  10.315  -0.226  0.0024 -0.3317 -0.1699
  303MOL0     C40781  -0.522  10.243  -0.228  0.3554  0.3034 -0.3665
  303MOL0     C40782  -0.596  10.267  -0.359  0.1767  0.8374 -0.0417
  303MOL0     C40783  -0.724  10.175  -0.376 -1.0816 -0.4373  0.3597
  303MOL0     C40784  -0.812  10.239  -0.482 -1.6578 -0.8709  0.2776
  303MOL0     C40785  -0.948  10.162  -0.482  0.2709  0.6966  1.1739
  303MOL0     C40786  -1.011  10.167  -0.625 -0.2735  0.3457 -0.5571
  303MOL0     N40787  -1.145  10.097  -0.627  0.5010  0.2453  0.3867
  303MOL0     C40788  -1.153   9.962  -0.615  0.1298  0.0643  0.2391
  303MOL0     C40789  -1.280   9.918  -0.624 -0.9724  0.1783  1.5519
  303MOL0     C40790  -1.331   9.771  -0.616  0.7953 -0.0997 -0.2368
  303MOL0     C40791  -1.475   9.745  -0.669 -0.2012  0.2593  0.5630
  303MOL0     C40792  -1.500   9.780  -0.816 -0.4579 -0.5146 -0.2323
  303MOL0     C40793  -1.639   9.784  -0.863  0.2298  0.4003 -0.2041
  303MOL0     O40794  -1.688   9.643  -0.876  0.1435  0.1515 -0.6076
  303MOL0     C40795  -1.825   9.628  -0.878 -1.0098 -0.4175 -0.3265
  303MOL0     C40796  -1.877   9.511  -0.820 -0.6935  0.2687 -0.3474
  303MOL0     C40797  -2.011   9.473  -0.840  0.5511 -0.4190  0.0129
  303MOL0     C40798  -2.059   9.347  -0.773  0.0770 -0.1281  0.5946
  303MOL0     C40799  -2.096   9.555  -0.917 -0.4117 -0.3235  0.6095
  303MOL0     C40800  -2.243   9.529  -0.947  0.5402  0.2075 -0.2461
  303MOL0     O40801  -2.304   9.440  -0.874  0.0805  0.1426 -0.2130
  303MOL0     C40802  -2.436   9.396  -0.899  0.1373  0.3511 -0.2757
  303MOL0     C40803  -2.485   9.361  -1.025  0.4125  0.8598  0.3589
  303MOL0     C40804  -2.607   9.299  -1.038  0.5155  1.6127  0.3034
  303MOL0     C40805  -2.697   9.297  -0.925 -0.7557  0.0815 -0.1282
  303MOL0     O40806  -2.833   9.266  -0.930  0.0539  0.3230  1.0386
  303MOL0     C40807  -2.861   9.132  -0.992 -0.2639  1.0856 -0.2876
  303MOL0     C40808  -2.876   9.027  -0.877 -0.1792  0.2031  0.5046
  303MOL0     C40809  -3.012   9.033  -0.820  0.0098 -0.2096 -0.4370
  303MOL0     C40810  -3.025   8.894  -0.750 -0.5698  0.4031  0.0280
  303MOL0     C40811  -3.129   8.896  -0.640  1.0303 -0.8860 -0.5147
  303MOL0     C40812  -3.174   8.762  -0.591  0.0564  1.4612 -0.4781
  303MOL0     C40813  -3.299   8.764  -0.502 -0.9424 -0.1995 -0.5475
  303MOL0     C40814  -3.322   8.617  -0.457  0.7006 -0.0100 -0.2746
  303MOL0    Cl40815  -3.182   8.561  -0.346  0.2891 -0.2947  0.2863
  303MOL0     C40816  -2.651   9.340  -0.800 -0.1458 -0.5053  0.8972
  303MOL0     C40817  -2.517   9.376  -0.782  0.8282  0.2292 -0.2597
  303MOL0     O40818  -2.306   9.601  -1.020  0.3626  0.4546 -0.5933
  303MOL0     C40819  -2.049   9.676  -0.967 -0.1652 -0.3946 -0.4471
  303MOL0     C40820  -1.910   9.714  -0.947 -0.1211 -0.1486 -0.1777
  303MOL0     N40821  -1.353  10.036  -0.639  0.2425  0.1905  0.1771
  303MOL0     N40822  -1.271  10.139  -0.635 -0.0138 -0.7901  0.3766
  303MOL0     C40823  -0.156  10.415   0.148  1.4375  0.9302  0.3360
  303MOL0     C40824  -0.081  10.401   0.265 -0.6298  0.9480  0.1464
  303MOL0     C40825   0.245  10.408   0.579  0.1988 -0.7787  0.0966
  303MOL0     C40826   0.239  10.394   0.718 -0.0014 -0.3368 -0.1015
  303MOL0     C40827   0.346  10.409   0.807  0.0724  1.4792  0.9205
  303MOL0     C40828   0.469  10.454   0.759 -0.3666  0.2337  1.3421
  303MOL0     O40829   0.568  10.472   0.845 -0.4591 -0.5365  0.8531
  303MOL0     C40830   0.693  10.518   0.802  0.3207 -0.1901 -0.2752
  303MOL0     C40831   0.778  10.411   0.740 -0.0427  0.7254 -0.1530
  303MOL0     C40832   0.909  10.473   0.690  1.0203 -0.1723  0.2528
  303MOL0     C40833   0.945  10.435   0.543 -0.0107 -0.1113 -0.0172
  303MOL0     C40834   0.862  10.522   0.454 -0.6911  0.3388  0.0112
  303MOL0     C40835   0.800  10.600   0.388 -0.5799  0.4999 -0.1543
  303MOL0     C40836   0.479  10.468   0.617 -0.6907  0.4433  0.6783
  303MOL0     C40837   0.372  10.437   0.528  1.0636  0.5594 -0.4247
  303MOL0     H40838   0.220  10.384   0.108 -1.0873 -1.7310 -0.9965
  303MOL0     H40839   0.076  10.368  -0.087  1.4018 -0.8474  1.9849
  303MOL0     H40840  -0.293  10.226  -0.046  4.1698  0.7321 -1.6213
  303MOL0     H40841  -0.383  10.384  -0.012  2.7080  2.2994  1.0225
  303MOL0     H40842  -0.394  10.421  -0.251 -1.2713  0.2837  2.6587
  303MOL0     H40843  -0.311  10.271  -0.297 -0.2517 -1.6697  0.3933
  303MOL0     H40844  -0.509  10.135  -0.219 -0.2237  0.2399 -0.2582
  303MOL0     H40845  -0.585  10.275  -0.144  1.1586 -0.3228  0.4896
  303MOL0     H40846  -0.613  10.374  -0.370 -4.0401  0.6482  2.2001
  303MOL0     H40847  -0.523  10.231  -0.432  1.4049  0.3215  1.3813
  303MOL0     H40848  -0.695  10.073  -0.404 -1.6334 -0.1772 -1.2448
  303MOL0     H40849  -0.761  10.175  -0.273 -2.4428 -2.3090 -0.0790
  303MOL0     H40850  -0.837  10.344  -0.465  0.8250  0.1243 -1.6846
  303MOL0     H40851  -0.765  10.235  -0.580 -2.7622  0.8023 -0.3652
  303MOL0     H40852  -0.921  10.059  -0.459 -0.4829  0.6422  1.8565
  303MOL0     H40853  -1.022  10.204  -0.414 -1.3040 -0.0094 -0.0305
  303MOL0     H40854  -0.935  10.118  -0.687  0.5893  2.2286 -1.0311
  303MOL0     H40855  -1.023  10.269  -0.662  0.7058  1.6901  2.4706
  303MOL0     H40856  -1.068   9.898  -0.592 -0.1891 -0.0277  1.2263
  303MOL0     H40857  -1.261   9.696  -0.655  1.5096  0.3823  0.0894
  303MOL0     H40858  -1.327   9.742  -0.511  0.8158 -2.7503 -0.8851
  303MOL0     H40859  -1.535   9.808  -0.603  1.9014  1.4020  1.5065
  303MOL0     H40860  -1.500   9.640  -0.653  0.3694  0.0498  0.1461
  303MOL0     H40861  -1.429   9.719  -0.874  1.9190  1.1479  0.7739
  303MOL0     H40862  -1.476   9.885  -0.831 -0.8372 -0.4292 -0.2283
  303MOL0     H40863  -1.633   9.836  -0.959  1.7107 -0.1851 -0.4634
  303MOL0     H40864  -1.700   9.851  -0.802  1.6539  2.1014 -0.5749
  303MOL0     H40865  -1.810   9.433  -0.784 -0.3426  0.1156 -1.3022
  303MOL0     H40866  -1.974   9.292  -0.730 -0.4743 -1.6978 -0.2375
  303MOL0     H40867  -2.129   9.377  -0.695 -1.2537 -3.5789  0.9342
  303MOL0     H40868  -2.106   9.269  -0.834  1.2853  0.0361 -0.6003
  303MOL0     H40869  -2.421   9.360  -1.113  0.1783  1.9223  0.1635
  303MOL0     H40870  -2.642   9.261  -1.133 -0.0147  0.6954  0.8485
  303MOL0     H40871  -2.950   9.125  -1.055 -1.1578 -2.8029  1.1247
  303MOL0     H40872  -2.777   9.101  -1.055 -0.5437 -1.8044  0.6267
  303MOL0     H40873  -2.868   8.927  -0.921 -0.6793  0.7911 -0.9969
  303MOL0     H40874  -2.808   9.028  -0.792 -0.5180 -1.6790  0.8639
  303MOL0     H40875  -3.099   9.051  -0.883 -1.7532 -1.1436  1.5903
  303MOL0     H40876  -3.006   9.107  -0.740  0.3695 -2.5082  1.8054
  303MOL0     H40877  -3.064   8.820  -0.821 -0.9825 -1.6350  2.2738
  303MOL0     H40878  -2.926   8.861  -0.717 -0.0196  1.3524 -0.6252
  303MOL0     H40879  -3.221   8.942  -0.679  0.3660 -1.8926 -0.1959
  303MOL0     H40880  -3.092   8.966  -0.565 -0.7964  0.3245 -0.6860
  303MOL0     H40881  -3.172   8.700  -0.680  1.6045  1.6125 -0.5778
  303MOL0     H40882  -3.091   8.721  -0.532 -1.7822 -0.3223  1.0152
  303MOL0     H40883  -3.382   8.801  -0.562  0.1185  1.4278 -1.0776
  303MOL0     H40884  -3.283   8.832  -0.418  1.9957 -1.4566  0.0297
  303MOL0     H40885  -3.313   8.553  -0.545  1.1696  0.0554 -0.2779
  303MOL0     H40886  -3.422   8.601  -0.415  0.2054  1.6371 -0.7288
  303MOL0     H40887  -2.717   9.343  -0.713 -1.2831  3.3231  0.0674
  303MOL0     H40888  -2.474   9.415  -0.691  0.4614 -0.4972  0.2306
  303MOL0     H40889  -2.113   9.742  -1.023  1.2286 -0.8289 -2.6701
  303MOL0     H40890  -1.876   9.811  -0.983  0.4160  0.8553  2.7471
  303MOL0     H40891  -0.264  10.425   0.154  1.1872 -1.0185 -0.3749
  303MOL0     H40892  -0.139  10.409   0.356 -0.5288  2.1303  0.1264
  303MOL0     H40893   0.140  10.368   0.754 -0.1406 -2.1780 -1.6762
  303MOL0     H40894   0.339  10.391   0.914 -0.2942  2.0418  0.9954
  303MOL0     H40895   0.670  10.600   0.734  0.0139  0.0474  0.1090
  303MOL0     H40896   0.762  10.550   0.881  2.0151 -3.9570 -0.0105
  303MOL0     H40897   0.723  10.367   0.657 -2.7189 -1.2320  2.4254
  303MOL0     H40898   0.805  10.325   0.802 -1.7405  0.1848 -0.1058
  303MOL0     H40899   0.996  10.448   0.750  1.7371  2.0794  0.2578
  303MOL0     H40900   0.902  10.583   0.688 -0.1725 -0.2116  1.5320
  303MOL0     H40901   0.912  10.333   0.519 -0.3705 -0.8282  3.1126
  303MOL0     H40902   1.051  10.443   0.520  0.2614 -2.0533  0.3204
  303MOL0     H40903   0.743  10.673   0.334 -2.8763 -1.1863 -0.1448
  303MOL0     H40904   0.575  10.491   0.571  1.5809 -4.8091  2.0368
  303MOL0     H40905   0.394  10.452   0.423  0.8757 -0.2181 -0.5793
  304MOL0     O40906   8.522   1.980  10.546 -0.2956 -0.9255  0.7242
  304MOL0     C40907   8.618   2.007  10.619  0.2720  0.7556 -0.2658
  304MOL0     O40908   8.691   1.912  10.682  0.6904  0.0028  0.8327
  304MOL0     C40909   8.639   1.787  10.693 -1.2674 -0.8771  0.8432
  304MOL0     C40910   8.676   1.686  10.599  0.0444  0.7256  1.3665
  304MOL0     C40911   8.618   1.553  10.608  0.4671 -0.1384  0.3766
  304MOL0     C40912   8.534   1.530  10.718 -0.0245  0.4616 -1.0075
  304MOL0     O40913   8.485   1.410  10.746  0.2434 -0.4248  0.3879
  304MOL0     C40914   8.518   1.301  10.656 -0.1032  0.4531 -0.5669
  304MOL0     C40915   8.422   1.176  10.673 -0.0142  0.0451 -0.0399
  304MOL0     C40916   8.421   1.073  10.561  0.5458 -0.3655 -0.2748
  304MOL0     C40917   8.555   1.015  10.524 -0.3443  0.4951  0.6428
  304MOL0     C40918   8.534   0.915  10.416 -0.7706 -0.5712  0.0845
  304MOL0     C40919   8.483   0.777  10.472 -0.4728  0.6529  0.3826
  304MOL0     C40920   8.459   0.666  10.373 -0.7076 -1.1889 -0.4469
  304MOL0     C40921   8.361   0.559  10.420 -0.6837 -0.0058  0.1747
  304MOL0     N40922   8.222   0.602  10.457 -0.2753 -0.6139 -0.1406
  304MOL0     C40923   8.143   0.698  10.375 -0.1100  0.5454 -0.4162
  304MOL0     C40924   8.061   0.755  10.457 -0.1931  0.0783 -0.8430
  304MOL0     C40925   7.992   0.887  10.439  1.2783  0.2168  0.3810
  304MOL0     C40926   7.864   0.875  10.360  0.0848  0.1874  0.1302
  304MOL0     C40927   7.897   0.902  10.212 -0.6324 -0.8254  0.6414
  304MOL0     C40928   7.767   0.894  10.124 -0.7383 -0.5054  0.9029
  304MOL0     O40929   7.703   0.770  10.154  0.6525 -0.0510 -0.1401
  304MOL0     C40930   7.595   0.730  10.088  0.9977  0.2504 -0.8002
  304MOL0     C40931   7.531   0.812   9.994 -0.4703  0.5069  0.6503
  304MOL0     C40932   7.426   0.769   9.912 -0.0708  0.4616 -0.4806
  304MOL0     C40933   7.377   0.872   9.810 -0.3307  0.3134  0.2623
  304MOL0     C40934   7.375   0.636   9.927 -0.1000 -0.1175  0.5504
  304MOL0     C40935   7.270   0.574   9.845  0.2290 -0.6557 -0.2124
  304MOL0     O40936   7.207   0.480   9.907  0.5027 -0.6239 -0.6292
  304MOL0     C40937   7.081   0.441   9.858 -0.6374 -0.1968 -0.2767
  304MOL0     C40938   6.984   0.509   9.782  0.5469 -0.7419  0.0851
  304MOL0     C40939   6.850   0.464   9.766 -0.3237 -0.4263 -0.8971
  304MOL0     C40940   6.812   0.347   9.818  1.0639 -0.6058  0.5921
  304MOL0     O40941   6.676   0.303   9.804  0.1695  0.7928  0.0504
  304MOL0     C40942   6.585   0.343   9.698  0.1520  0.1339 -0.5148
  304MOL0     C40943   6.440   0.327   9.732 -0.1227 -0.8802 -0.0784
  304MOL0     C40944   6.349   0.381   9.626  0.1492  0.1066  0.4326
  304MOL0     C40945   6.200   0.374   9.664  0.7893 -0.6124 -0.4733
  304MOL0     C40946   6.110   0.403   9.548 -0.0346  0.2922 -0.3643
  304MOL0     C40947   5.963   0.380   9.588 -0.4740 -0.2950  1.0700
  304MOL0     C40948   5.861   0.410   9.470 -0.5421  0.2194 -0.4057
  304MOL0     C40949   5.722   0.453   9.533  0.1646  0.8760  0.5577
  304MOL0    Cl40950   5.664   0.324   9.641  0.0927  0.6682 -0.2232
  304MOL0     C40951   6.912   0.272   9.881 -0.0460 -0.7674 -0.1715
  304MOL0     C40952   7.040   0.317   9.915  0.3786 -0.2730  0.3354
  304MOL0     O40953   7.251   0.610   9.731 -0.5663  0.1167  0.4666
  304MOL0     C40954   7.430   0.557  10.033  0.0021  0.1800 -0.7546
  304MOL0     C40955   7.540   0.602  10.105 -0.1497  0.3227 -0.6346
  304MOL0     N40956   8.088   0.699  10.581 -0.7225 -0.0011 -0.1474
  304MOL0     N40957   8.168   0.599  10.578 -0.3104 -0.9766  0.3286
  304MOL0     C40958   8.497   1.631  10.816  0.2835  0.1166  1.1747
  304MOL0     C40959   8.555   1.760  10.795  1.5925 -0.6398 -0.5301
  304MOL0     C40960   8.664   2.150  10.629  0.0692  0.5997 -0.1018
  304MOL0     C40961   8.591   2.255  10.580 -0.2312 -0.8296  0.0407
  304MOL0     C40962   8.641   2.387  10.609  0.5021  0.3062  0.6239
  304MOL0     C40963   8.755   2.413  10.669  0.0280  0.0012  0.4909
  304MOL0     O40964   8.803   2.543  10.687 -0.1822  0.8270 -0.2473
  304MOL0     C40965   8.724   2.650  10.648 -0.5259  0.4454  1.0605
  304MOL0     C40966   8.603   2.678  10.734 -0.0329  0.4260 -0.6198
  304MOL0     C40967   8.510   2.791  10.678 -0.7205 -1.0712 -0.7542
  304MOL0     C40968   8.391   2.812  10.775 -0.1682 -0.5626 -0.0109
  304MOL0     C40969   8.304   2.911  10.716 -1.4691  0.2399  0.1519
  304MOL0     C40970   8.243   2.988  10.659  0.5133 -1.1481 -0.0298
  304MOL0     C40971   8.832   2.307  10.714 -0.0009  0.1134  0.4476
  304MOL0     C40972   8.783   2.175  10.702 -0.1704 -0.2569 -0.1373
  304MOL0     H40973   8.746   1.701  10.517 -1.7041 -0.8656 -0.5628
  304MOL0     H40974   8.644   1.475  10.537 -1.7607 -0.6582  0.0396
  304MOL0     H40975   8.511   1.330  10.551  1.5603 -0.0872 -0.8719
  304MOL0     H40976   8.618   1.261  10.674 -0.7447 -0.7537  0.4200
  304MOL0     H40977   8.438   1.125  10.768  1.6007  2.8223  1.2912
  304MOL0     H40978   8.318   1.211  10.666 -0.2892 -0.8613 -0.8555
  304MOL0     H40979   8.352   0.991  10.585  1.2920 -0.5267  1.4391
  304MOL0     H40980   8.375   1.113  10.470 -1.2866  4.2790  2.3703
  304MOL0     H40981   8.635   1.079  10.485 -0.1850 -1.1771 -2.1097
  304MOL0     H40982   8.597   0.956  10.606 -1.3024  0.0359  0.8147
  304MOL0     H40983   8.464   0.955  10.342  2.5658  2.9716 -1.4991
  304MOL0     H40984   8.632   0.909  10.368  0.3708  1.1857  2.0236
  304MOL0     H40985   8.560   0.753  10.546  0.1832  3.4707  0.7167
  304MOL0     H40986   8.383   0.807  10.506 -1.1322  1.7415 -2.3166
  304MOL0     H40987   8.420   0.717  10.284 -0.6815 -1.1968 -0.4632
  304MOL0     H40988   8.549   0.618  10.335  1.4800  2.7763 -0.7582
  304MOL0     H40989   8.395   0.497  10.503 -2.4268 -0.5110  0.5570
  304MOL0     H40990   8.344   0.493  10.334  2.0269  1.2264 -1.4515
  304MOL0     H40991   8.166   0.720  10.271 -0.2506 -1.5513 -0.9413
  304MOL0     H40992   7.971   0.930  10.538 -1.5271  0.6304 -0.3228
  304MOL0     H40993   8.058   0.957  10.387 -0.5743  1.3011 -0.6029
  304MOL0     H40994   7.793   0.954  10.387  0.0768  1.9921 -4.3079
  304MOL0     H40995   7.818   0.780  10.389 -0.3273  0.9408  2.0790
  304MOL0     H40996   7.968   0.826  10.178  2.9830  2.0060  1.1923
  304MOL0     H40997   7.933   1.006  10.210 -2.1883 -0.2533 -1.7707
  304MOL0     H40998   7.793   0.904  10.018  0.1274 -0.9146  1.0649
  304MOL0     H40999   7.702   0.980  10.144 -0.1968  0.2432 -0.4214
  304MOL0     H41000   7.555   0.915   9.968 -1.6824  0.1227 -2.3420
  304MOL0     H41001   7.269   0.862   9.813 -0.1416 -4.1273 -0.2325
  304MOL0     H41002   7.413   0.972   9.834  1.1382  0.0585 -0.7301
  304MOL0     H41003   7.411   0.849   9.708  0.6768 -0.8925  0.8431
  304MOL0     H41004   7.007   0.607   9.740 -2.7980 -0.1031 -0.5576
  304MOL0     H41005   6.783   0.523   9.705 -0.3428 -1.9347 -2.4067
  304MOL0     H41006   6.582   0.452   9.682  0.2894  0.6688  2.5900
  304MOL0     H41007   6.610   0.292   9.604  1.9359 -0.4761  0.2495
  304MOL0     H41008   6.430   0.220   9.747 -0.4691 -1.5318 -4.0602
  304MOL0     H41009   6.424   0.382   9.825  0.1408  1.4227 -1.3008
  304MOL0     H41010   6.361   0.309   9.545  4.1349  0.9331  0.0908
  304MOL0     H41011   6.381   0.482   9.597  4.5997 -1.0607  0.6053
  304MOL0     H41012   6.172   0.270   9.685 -1.3186 -0.1064 -0.5656
  304MOL0     H41013   6.170   0.429   9.754  1.3671  0.5873 -0.9910
  304MOL0     H41014   6.145   0.344   9.463  1.0213  1.4281 -0.7508
  304MOL0     H41015   6.114   0.510   9.527 -0.4081  0.8397  2.0738
  304MOL0     H41016   5.955   0.275   9.616  3.2676 -0.9195  0.3534
  304MOL0     H41017   5.938   0.436   9.679 -0.3264 -1.1172  1.6232
  304MOL0     H41018   5.840   0.313   9.424 -2.0527 -1.2628  3.0435
  304MOL0     H41019   5.894   0.471   9.386 -3.6547  1.2687 -0.9725
  304MOL0     H41020   5.644   0.453   9.456 -1.7320  0.8790  2.4080
  304MOL0     H41021   5.717   0.549   9.584 -1.0436  0.3871  1.3932
  304MOL0     H41022   6.882   0.179   9.929 -4.2910  1.1574  1.3496
  304MOL0     H41023   7.108   0.256   9.973 -1.2088 -0.9042  1.6172
  304MOL0     H41024   7.391   0.458  10.054  0.0786  0.0531 -1.1822
  304MOL0     H41025   7.582   0.541  10.184 -0.1683  1.2430  0.1034
  304MOL0     H41026   8.439   1.615  10.907 -0.2558  2.0777  1.2135
  304MOL0     H41027   8.521   1.838  10.862 -0.2235  0.3003 -2.4400
  304MOL0     H41028   8.495   2.243  10.530  0.1972  2.5361 -1.9295
  304MOL0     H41029   8.568   2.461  10.576  0.7100  0.1669 -0.1690
  304MOL0     H41030   8.789   2.738  10.648  2.8229 -1.8503  0.3780
  304MOL0     H41031   8.706   2.633  10.541  0.4747 -3.0399  1.3438
  304MOL0     H41032   8.634   2.696  10.838  1.1251 -0.4430 -0.7973
  304MOL0     H41033   8.547   2.584  10.734  0.1272  0.1749  2.8985
  304MOL0     H41034   8.471   2.755  10.582  0.9427 -0.5459 -1.6709
  304MOL0     H41035   8.561   2.886  10.663 -3.6766  0.7899  0.0840
  304MOL0     H41036   8.419   2.849  10.875 -2.0614 -1.2698  0.8293
  304MOL0     H41037   8.339   2.718  10.796 -2.0076  0.7156  1.5157
  304MOL0     H41038   8.169   3.044  10.607  0.9618  0.4196  0.9524
  304MOL0     H41039   8.920   2.338  10.770  1.1380  1.5835 -1.9943
  304MOL0     H41040   8.837   2.089  10.740 -2.9793 -0.7490  3.2728
  305MOL0     O41041   5.450   1.294   3.712  0.4536 -0.4135 -0.3845
  305MOL0     C41042   5.422   1.315   3.836  0.0574  0.0887  0.2077
  305MOL0     O41043   5.343   1.410   3.884  0.1259  0.6710  0.1493
  305MOL0     C41044   5.252   1.452   3.793  0.5361  0.9844  0.5543
  305MOL0     C41045   5.125   1.397   3.789  0.7139  0.3608 -0.0534
  305MOL0     C41046   5.033   1.452   3.702  0.1661 -0.1525 -0.5496
  305MOL0     C41047   5.058   1.556   3.611 -0.2170 -0.0132  0.9897
  305MOL0     O41048   4.942   1.595   3.544  0.7128  0.2680  0.2847
  305MOL0     C41049   4.970   1.702   3.460  0.3513 -0.3577 -0.0747
  305MOL0     C41050   4.850   1.750   3.390  0.5012  0.7752 -0.2013
  305MOL0     C41051   4.782   1.632   3.311 -0.6117 -0.2748  1.0846
  305MOL0     C41052   4.694   1.685   3.190  0.2856 -0.0061  0.6459
  305MOL0     C41053   4.780   1.742   3.077 -0.0072 -0.3582 -0.2663
  305MOL0     C41054   4.703   1.710   2.942 -0.4786  0.2994 -0.3027
  305MOL0     C41055   4.773   1.763   2.815  0.2095  0.2418  0.2578
  305MOL0     C41056   4.673   1.763   2.698  0.6677  0.7259 -0.1154
  305MOL0     N41057   4.727   1.840   2.585  0.3725  0.2978 -0.1412
  305MOL0     C41058   4.708   1.976   2.591 -0.3711 -0.1520  0.6913
  305MOL0     C41059   4.797   2.032   2.499 -0.1105  0.0450 -0.7338
  305MOL0     C41060   4.863   2.168   2.488  0.2491 -0.1065  0.5131
  305MOL0     C41061   4.837   2.234   2.347 -0.7071  0.2814  0.6268
  305MOL0     C41062   4.931   2.170   2.239  0.3102  0.4726 -0.4588
  305MOL0     C41063   4.951   2.269   2.129 -0.5445 -1.0303  0.2453
  305MOL0     O41064   5.092   2.259   2.083  0.5503  0.2625  0.6091
  305MOL0     C41065   5.188   2.306   2.175  0.0240  0.2480 -0.2331
  305MOL0     C41066   5.185   2.442   2.221 -0.8577 -0.7771 -0.5346
  305MOL0     C41067   5.274   2.487   2.323  0.2198  0.1034 -0.7604
  305MOL0     C41068   5.269   2.633   2.370  0.5753  0.3592  0.4122
  305MOL0     C41069   5.377   2.393   2.377  0.9291 -0.2457  0.9127
  305MOL0     C41070   5.487   2.424   2.474  1.3424 -0.2948 -0.0788
  305MOL0     O41071   5.533   2.324   2.554 -0.7364 -0.0783 -0.8620
  305MOL0     C41072   5.651   2.330   2.619 -0.5671 -0.2329 -0.6718
  305MOL0     C41073   5.744   2.229   2.603 -0.4979  1.1334  0.5900
  305MOL0     C41074   5.858   2.224   2.682 -0.1941  0.8445 -0.9289
  305MOL0     C41075   5.888   2.330   2.763 -0.0463  0.0314  0.5943
  305MOL0     O41076   6.004   2.329   2.834 -0.5726  0.4871 -0.1347
  305MOL0     C41077   5.990   2.326   2.977  0.6587  0.7551 -0.3793
  305MOL0     C41078   6.100   2.240   3.042 -0.7511 -0.0291  0.5247
  305MOL0     C41079   6.064   2.202   3.185 -0.0204  0.5696 -0.5257
  305MOL0     C41080   6.197   2.191   3.262  0.1675  0.1990  0.1566
  305MOL0     C41081   6.172   2.197   3.418 -0.2481 -0.2978  0.5468
  305MOL0     C41082   6.303   2.172   3.487  0.0122 -0.4415 -0.4744
  305MOL0     C41083   6.281   2.144   3.636  0.1456  0.3821  0.0861
  305MOL0     C41084   6.351   2.018   3.681  1.0219  0.3856  0.0405
  305MOL0    Cl41085   6.260   1.880   3.591  0.4538 -0.1183 -0.1908
  305MOL0     C41086   5.799   2.433   2.780 -0.5488 -0.2081 -0.4250
  305MOL0     C41087   5.682   2.428   2.713  0.3453  0.7650  0.4145
  305MOL0     O41088   5.534   2.540   2.465 -0.0254  0.3094 -1.1725
  305MOL0     C41089   5.375   2.260   2.328  0.4820 -0.2862  0.0392
  305MOL0     C41090   5.281   2.215   2.236  0.6205 -0.4004  0.2854
  305MOL0     N41091   4.863   1.923   2.444 -0.0640  0.2881  0.9334
  305MOL0     N41092   4.818   1.805   2.490  0.2050 -0.5146  0.8079
  305MOL0     C41093   5.191   1.614   3.620  0.8399  0.5074 -0.5003
  305MOL0     C41094   5.280   1.559   3.709  0.1634 -1.1461  0.2080
  305MOL0     C41095   5.480   1.217   3.918 -0.4146  0.4957 -0.2786
  305MOL0     C41096   5.548   1.104   3.875 -0.9062 -1.1262 -0.2607
  305MOL0     C41097   5.611   1.010   3.962 -0.8535 -0.0630 -0.2608
  305MOL0     C41098   5.591   1.009   4.103  0.3525  0.5008  0.6466
  305MOL0     O41099   5.630   0.898   4.170 -0.7196 -0.0587 -0.3227
  305MOL0     C41100   5.600   0.893   4.310 -0.9211  0.0607 -0.1656
  305MOL0     C41101   5.590   0.736   4.353 -0.3917 -0.6757 -0.0455
  305MOL0     C41102   5.619   0.728   4.504  0.5889  0.6401  1.0623
  305MOL0     C41103   5.565   0.608   4.563  0.8461  0.5692 -0.0308
  305MOL0     C41104   5.624   0.486   4.504  0.3799  0.3913  0.4331
  305MOL0     C41105   5.671   0.381   4.471 -0.1314  0.0385  0.5557
  305MOL0     C41106   5.518   1.121   4.144  0.1182 -0.7380 -0.5521
  305MOL0     C41107   5.467   1.216   4.058  0.4022 -0.1520 -0.3563
  305MOL0     H41108   5.100   1.318   3.860 -0.5908  3.5630  3.3695
  305MOL0     H41109   4.932   1.413   3.695 -0.0459  0.6623 -3.5744
  305MOL0     H41110   5.004   1.786   3.520 -2.6155 -1.1691  3.0855
  305MOL0     H41111   5.040   1.669   3.383 -1.4641 -2.9566 -0.7715
  305MOL0     H41112   4.776   1.791   3.460  1.2944 -1.0949  1.8428
  305MOL0     H41113   4.874   1.834   3.324 -1.3314  0.7378 -0.9939
  305MOL0     H41114   4.860   1.564   3.275 -0.5648  1.0007 -1.4228
  305MOL0     H41115   4.719   1.560   3.365 -1.2295 -1.2488 -0.8413
  305MOL0     H41116   4.637   1.600   3.151  1.1785 -1.1480  1.7018
  305MOL0     H41117   4.621   1.757   3.226 -3.5756 -1.3782 -3.5907
  305MOL0     H41118   4.793   1.850   3.082  0.3154 -0.3117 -1.6304
  305MOL0     H41119   4.880   1.698   3.068  1.8959  3.1393  1.5181
  305MOL0     H41120   4.702   1.601   2.931  1.2539  0.2158  0.0820
  305MOL0     H41121   4.598   1.738   2.946 -0.7017 -0.3193 -1.3960
  305MOL0     H41122   4.811   1.866   2.823 -0.9585  1.0661 -2.9943
  305MOL0     H41123   4.858   1.701   2.786 -0.6794 -0.8737 -0.0281
  305MOL0     H41124   4.572   1.800   2.719 -0.7350 -0.9878 -3.2050
  305MOL0     H41125   4.650   1.659   2.675  2.7268 -0.4852  2.7320
  305MOL0     H41126   4.658   2.029   2.671 -0.7238 -0.6024  0.7741
  305MOL0     H41127   4.838   2.246   2.560  1.5454  3.2013 -2.3392
  305MOL0     H41128   4.970   2.149   2.493  0.4315 -0.0435 -1.8734
  305MOL0     H41129   4.860   2.341   2.352 -1.0787  0.3843  0.2037
  305MOL0     H41130   4.733   2.218   2.320 -0.7530 -0.1945  1.0505
  305MOL0     H41131   4.872   2.086   2.200 -1.8372  2.1129 -0.9267
  305MOL0     H41132   5.022   2.128   2.283  0.1545  1.0085  0.3987
  305MOL0     H41133   4.921   2.373   2.145  0.3900  0.0002 -3.6442
  305MOL0     H41134   4.896   2.246   2.037 -0.5893  0.0090 -0.0007
  305MOL0     H41135   5.105   2.500   2.175 -0.1908 -0.8645 -1.8478
  305MOL0     H41136   5.334   2.709   2.325  0.9380 -0.0042  0.3099
  305MOL0     H41137   5.170   2.673   2.348  1.9054  1.8353 -4.0329
  305MOL0     H41138   5.281   2.633   2.478 -2.7178  1.7432  0.8769
  305MOL0     H41139   5.706   2.145   2.545 -2.8920  2.2639  0.4379
  305MOL0     H41140   5.922   2.136   2.685 -1.8983 -0.4815 -1.9271
  305MOL0     H41141   5.992   2.427   3.018 -3.1873  0.1805  1.7298
  305MOL0     H41142   5.893   2.288   3.010  1.1990 -0.0077  0.4003
  305MOL0     H41143   6.112   2.152   2.979 -2.2403  1.7353 -2.4736
  305MOL0     H41144   6.188   2.304   3.031 -1.0918  0.2577 -0.6531
  305MOL0     H41145   6.018   2.103   3.181  1.8140 -0.4579  1.5426
  305MOL0     H41146   6.004   2.273   3.242  0.1762 -1.4242  2.3818
  305MOL0     H41147   6.261   2.107   3.235 -0.5563  1.0429 -5.3237
  305MOL0     H41148   6.245   2.283   3.227 -0.5766  0.7459  0.5560
  305MOL0     H41149   6.103   2.118   3.447 -2.8394  1.1251 -1.3106
  305MOL0     H41150   6.125   2.290   3.452 -0.2526 -0.2687  0.4629
  305MOL0     H41151   6.349   2.086   3.437 -0.2157 -0.5969 -0.4202
  305MOL0     H41152   6.371   2.257   3.484 -1.7422  1.0144 -0.4351
  305MOL0     H41153   6.176   2.150   3.665  0.3424 -0.8955  1.1170
  305MOL0     H41154   6.347   2.217   3.685  0.0341  1.2038 -0.9408
  305MOL0     H41155   6.337   2.008   3.789  0.6613 -2.4720 -0.2146
  305MOL0     H41156   6.455   1.998   3.653  0.4366 -2.4962 -0.3197
  305MOL0     H41157   5.819   2.521   2.841 -1.0898 -0.3131 -0.0874
  305MOL0     H41158   5.603   2.498   2.739  0.6831  3.0153 -3.6903
  305MOL0     H41159   5.454   2.189   2.345  0.6318 -0.6761 -1.9859
  305MOL0     H41160   5.274   2.115   2.197 -0.2183 -0.6843  1.1352
  305MOL0     H41161   5.220   1.696   3.556 -1.2832  1.1610 -0.7319
  305MOL0     H41162   5.379   1.602   3.723 -1.0272  1.8481  0.0994
  305MOL0     H41163   5.565   1.098   3.768  1.9234  2.9456 -0.2717
  305MOL0     H41164   5.672   0.932   3.917  0.1781  0.0110  0.9642
  305MOL0     H41165   5.680   0.942   4.366  0.2125 -3.3950  1.4884
  305MOL0     H41166   5.509   0.947   4.340  0.9449  2.3479  1.8097
  305MOL0     H41167   5.660   0.676   4.294 -2.5268 -2.4846 -0.9305
  305MOL0     H41168   5.496   0.688   4.322 -0.6863 -0.4909  0.5498
  305MOL0     H41169   5.572   0.810   4.559 -0.0550 -0.8168  2.8237
  305MOL0     H41170   5.725   0.719   4.529  0.5842 -4.7512  0.3674
  305MOL0     H41171   5.459   0.591   4.542  0.9378 -0.5142  0.2795
  305MOL0     H41172   5.579   0.607   4.672 -0.7233 -0.0581  0.2035
  305MOL0     H41173   5.696   0.279   4.451 -3.2261 -0.1820 -3.5348
  305MOL0     H41174   5.491   1.142   4.247  1.2532 -0.6227 -0.2678
  305MOL0     H41175   5.403   1.291   4.103  0.9404 -0.2075  0.5191
  306MOL0     O41176   0.486  11.087   8.921  0.0407 -0.2271 -0.0208
  306MOL0     C41177   0.491  10.985   8.985 -0.4324 -0.0742  0.5287
  306MOL0     O41178   0.389  10.905   9.033  0.8549 -0.0506 -0.0714
  306MOL0     C41179   0.260  10.945   8.999  0.3921  0.5978  1.1289
  306MOL0     C41180   0.227  10.987   8.862  0.3318  0.3986 -0.6565
  306MOL0     C41181   0.095  11.013   8.827 -0.3837  0.1058 -0.1611
  306MOL0     C41182  -0.005  11.001   8.921 -0.1073 -0.4600 -0.1780
  306MOL0     O41183  -0.134  11.030   8.875  0.2174  0.0369 -0.2595
  306MOL0     C41184  -0.239  11.098   8.953 -0.4461 -0.2840  0.2462
  306MOL0     C41185  -0.346  10.996   8.968 -0.5175 -0.9806 -0.5823
  306MOL0     C41186  -0.484  11.062   9.022 -0.5992 -0.4699  0.4570
  306MOL0     C41187  -0.576  10.961   9.077  0.1765  0.1871 -0.1449
  306MOL0     C41188  -0.692  11.045   9.140 -0.5771 -1.0082 -0.7542
  306MOL0     C41189  -0.776  10.951   9.229  0.2809  0.9822  0.0315
  306MOL0     C41190  -0.898  11.021   9.291  0.0854 -0.7172 -0.0560
  306MOL0     C41191  -1.026  11.008   9.202 -0.4565  0.5818 -0.2316
  306MOL0     N41192  -1.027  11.093   9.079 -0.3728 -0.3335 -0.5080
  306MOL0     C41193  -1.029  11.226   9.099 -0.7682 -1.0092 -0.5153
  306MOL0     C41194  -1.048  11.278   8.975 -0.2483 -0.6380  1.3926
  306MOL0     C41195  -1.050  11.426   8.945 -0.7525 -0.4679 -0.0456
  306MOL0     C41196  -0.917  11.472   8.910  0.4404  0.7348  0.3365
  306MOL0     C41197  -0.868  11.410   8.778  0.7824 -0.6997  0.1747
  306MOL0     C41198  -0.747  11.484   8.725  1.0489 -1.2072 -0.3900
  306MOL0     O41199  -0.764  11.632   8.709  1.0567  0.0277  0.1485
  306MOL0     C41200  -0.647  11.706   8.689  0.9691  0.3720 -1.0907
  306MOL0     C41201  -0.668  11.841   8.680 -0.7725 -0.4755  0.6774
  306MOL0     C41202  -0.561  11.923   8.666  0.2467  0.2728  0.3340
  306MOL0     C41203  -0.596  12.063   8.628  0.3653 -0.2576  0.3117
  306MOL0     C41204  -0.430  11.879   8.670  0.7535 -0.1393  0.0417
  306MOL0     C41205  -0.310  11.965   8.659  0.9762 -0.0957 -0.1133
  306MOL0     O41206  -0.194  11.896   8.648 -0.8575 -0.7562  0.0116
  306MOL0     C41207  -0.063  11.950   8.634  0.9234  0.7356  0.0589
  306MOL0     C41208  -0.030  12.087   8.637 -0.2345 -0.1872 -0.0300
  306MOL0     C41209   0.103  12.120   8.625 -0.3194 -0.2056  0.0314
  306MOL0     C41210   0.198  12.016   8.623  0.7133  0.8401 -0.2569
  306MOL0     O41211   0.332  12.045   8.639  0.5875 -0.1119  1.2106
  306MOL0     C41212   0.375  12.150   8.729 -0.6663  0.7259 -0.1372
  306MOL0     C41213   0.352  12.110   8.871 -0.0595  0.3695 -0.3830
  306MOL0     C41214   0.353  12.238   8.960  0.7715  1.6443  0.7063
  306MOL0     C41215   0.314  12.200   9.104 -0.1062 -0.1593  0.6213
  306MOL0     C41216   0.319  12.321   9.197  0.0158  0.7210 -0.1508
  306MOL0     C41217   0.461  12.373   9.202 -0.1220 -0.0597 -0.4233
  306MOL0     C41218   0.486  12.453   9.329 -0.1247 -0.2680 -0.3954
  306MOL0     C41219   0.419  12.583   9.306  0.4543 -0.3458 -0.0059
  306MOL0    Cl41220   0.458  12.669   9.457 -0.0328  0.2005 -0.7380
  306MOL0     C41221   0.163  11.885   8.632  0.4677  0.3621  0.1439
  306MOL0     C41222   0.031  11.853   8.628  0.7589  0.4868  0.0473
  306MOL0     O41223  -0.320  12.086   8.662  0.0970  0.6476  0.4133
  306MOL0     C41224  -0.406  11.743   8.690 -0.5666  0.2272  0.0692
  306MOL0     C41225  -0.511  11.652   8.693  0.0457  0.0339 -0.1421
  306MOL0     N41226  -1.060  11.170   8.888  0.0667  0.3763  0.3744
  306MOL0     N41227  -1.045  11.064   8.953 -0.4465 -0.2050  0.8101
  306MOL0     C41228   0.024  10.966   9.055  0.2337  0.5798 -0.1017
  306MOL0     C41229   0.158  10.943   9.091 -0.0168 -0.3595 -0.3514
  306MOL0     C41230   0.625  10.931   8.996 -0.0925 -0.6677  0.5280
  306MOL0     C41231   0.743  10.991   8.946  0.6450 -0.1885  0.2605
  306MOL0     C41232   0.868  10.935   8.950  0.7686 -0.6213  0.0613
  306MOL0     C41233   0.891  10.812   9.013  0.1554 -0.3151  0.6080
  306MOL0     O41234   1.010  10.746   9.012  0.1825 -1.3518  0.4532
  306MOL0     C41235   1.102  10.805   9.098 -0.6720 -0.0763  0.0489
  306MOL0     C41236   1.205  10.888   9.017  0.5985  0.0031  0.6991
  306MOL0     C41237   1.296  10.788   8.937  0.2552 -0.3004 -0.0001
  306MOL0     C41238   1.377  10.840   8.817  0.5833 -0.3028  0.2162
  306MOL0     C41239   1.479  10.937   8.849  0.7176  0.3652 -0.3678
  306MOL0     C41240   1.578  10.991   8.877  0.0529 -0.2672 -0.2402
  306MOL0     C41241   0.779  10.747   9.072 -0.1917  0.0612  0.0579
  306MOL0     C41242   0.645  10.799   9.051 -0.2027  0.0013 -0.1237
  306MOL0     H41243   0.302  10.998   8.784  2.3597 -1.0361  0.9835
  306MOL0     H41244   0.074  11.047   8.726 -2.0451  0.9435  0.4335
  306MOL0     H41245  -0.199  11.144   9.044  1.3302  2.5980 -1.8265
  306MOL0     H41246  -0.283  11.183   8.900 -1.8110 -0.5839  0.8622
  306MOL0     H41247  -0.367  10.952   8.870  1.3443 -1.3317 -0.8746
  306MOL0     H41248  -0.304  10.923   9.038  0.6605  1.4370  1.3876
  306MOL0     H41249  -0.454  11.129   9.102  3.1832 -1.3663 -0.0135
  306MOL0     H41250  -0.534  11.119   8.943  0.4763 -0.9592 -0.6006
  306MOL0     H41251  -0.629  10.890   9.012  0.0700  0.6702 -0.5968
  306MOL0     H41252  -0.513  10.901   9.144  0.4064 -1.3668 -1.6580
  306MOL0     H41253  -0.667  11.118   9.217 -2.6998 -1.9042  0.8657
  306MOL0     H41254  -0.760  11.095   9.070 -0.0294 -0.3843 -0.8592
  306MOL0     H41255  -0.811  10.861   9.177  0.8508  0.2390  0.9003
  306MOL0     H41256  -0.723  10.912   9.316 -1.9863  1.1275  1.5747
  306MOL0     H41257  -0.903  10.970   9.388  2.1452 -2.9743 -1.0204
  306MOL0     H41258  -0.869  11.124   9.312  0.6449 -1.0779  1.0532
  306MOL0     H41259  -1.102  11.049   9.270  0.5054 -0.1998  1.3817
  306MOL0     H41260  -1.047  10.903   9.180 -1.5388  0.8435 -0.5067
  306MOL0     H41261  -1.018  11.285   9.190 -3.0453 -1.7272  0.2977
  306MOL0     H41262  -1.122  11.451   8.867 -0.9523  0.9927  0.5762
  306MOL0     H41263  -1.087  11.488   9.027 -1.4753 -0.4185 -0.4063
  306MOL0     H41264  -0.861  11.436   8.998  0.0150  2.7699  1.5021
  306MOL0     H41265  -0.909  11.581   8.909  1.3196  0.6797  0.2663
  306MOL0     H41266  -0.942  11.431   8.700  1.7973 -1.5786 -1.0780
  306MOL0     H41267  -0.856  11.302   8.791 -0.4979 -0.9061 -0.2057
  306MOL0     H41268  -0.726  11.445   8.625  0.8103  1.5902 -1.6324
  306MOL0     H41269  -0.661  11.471   8.792  2.1539  0.9210 -1.2966
  306MOL0     H41270  -0.766  11.889   8.673  0.6457  2.5451  0.0811
  306MOL0     H41271  -0.542  12.097   8.539 -1.2634  1.0515 -0.2280
  306MOL0     H41272  -0.702  12.086   8.614  0.8169  1.6872 -0.1124
  306MOL0     H41273  -0.570  12.131   8.709 -1.4358  0.9719 -0.0983
  306MOL0     H41274  -0.091  12.176   8.641  3.0771  2.2514  0.8142
  306MOL0     H41275   0.139  12.220   8.604  1.4678 -0.9994 -0.9385
  306MOL0     H41276   0.484  12.157   8.718 -0.7418  2.0906 -0.2191
  306MOL0     H41277   0.329  12.246   8.703 -0.1089  0.4817 -2.2246
  306MOL0     H41278   0.248  12.079   8.884  0.0790  0.4725  1.0984
  306MOL0     H41279   0.414  12.029   8.910 -1.2583 -0.4610 -0.1505
  306MOL0     H41280   0.279  12.311   8.925 -0.2336 -0.4134 -1.8277
  306MOL0     H41281   0.443  12.300   8.957  0.2940  2.3352 -0.3364
  306MOL0     H41282   0.213  12.159   9.109 -0.2275 -0.1403 -1.1959
  306MOL0     H41283   0.382  12.124   9.145 -0.8098  0.0714  2.3044
  306MOL0     H41284   0.286  12.303   9.300  1.4028 -1.0895  0.0382
  306MOL0     H41285   0.257  12.390   9.140 -1.7974 -0.7797 -0.1145
  306MOL0     H41286   0.539  12.296   9.192  1.6990  1.5024  1.0130
  306MOL0     H41287   0.476  12.433   9.112  1.9853  1.2926  0.7576
  306MOL0     H41288   0.596  12.455   9.329  0.1118 -3.3630  2.6769
  306MOL0     H41289   0.457  12.400   9.420 -2.0876  3.9397  1.6688
  306MOL0     H41290   0.310  12.571   9.300  0.5679 -2.8059  1.3434
  306MOL0     H41291   0.468  12.643   9.228  1.9976 -0.4425  0.8530
  306MOL0     H41292   0.245  11.814   8.621 -0.9983 -1.1115 -2.1734
  306MOL0     H41293   0.000  11.749   8.627 -2.1097  1.2130  1.4978
  306MOL0     H41294  -0.313  11.696   8.719 -1.2697 -3.2799 -2.7220
  306MOL0     H41295  -0.481  11.548   8.703  1.1187  0.2874 -0.4951
  306MOL0     H41296  -0.058  10.950   9.125  0.6887 -2.9411 -0.1643
  306MOL0     H41297   0.189  10.926   9.194  0.9756  2.5929 -0.0480
  306MOL0     H41298   0.711  11.083   8.898 -0.7204 -0.2043  1.1175
  306MOL0     H41299   0.948  10.985   8.896  0.6099  0.2462  0.6073
  306MOL0     H41300   1.060  10.873   9.173  2.0582 -0.0168  1.6743
  306MOL0     H41301   1.140  10.726   9.164 -1.8158  0.2540  1.1453
  306MOL0     H41302   1.267  10.943   9.088  0.8895 -2.8199  2.7841
  306MOL0     H41303   1.161  10.943   8.933  0.1331 -1.3057  0.0499
  306MOL0     H41304   1.232  10.717   8.883  4.0359 -1.6838 -3.1166
  306MOL0     H41305   1.351  10.729   9.011  0.8456 -0.1226 -0.2950
  306MOL0     H41306   1.306  10.880   8.744 -1.4001 -2.3678  0.8581
  306MOL0     H41307   1.434  10.765   8.760  0.2126 -1.3324  1.1701
  306MOL0     H41308   1.671  11.038   8.901 -0.0759  1.1930 -2.3732
  306MOL0     H41309   0.788  10.654   9.128 -2.8714 -0.4657 -0.2443
  306MOL0     H41310   0.563  10.749   9.102  0.7804  0.0688  1.6261
  307MOL0     O41311   9.655   6.256   3.875  0.5730 -0.0898  0.0171
  307MOL0     C41312   9.537   6.219   3.840 -0.1362  0.4312  1.2180
  307MOL0     O41313   9.435   6.185   3.919  0.6790 -0.7682 -0.2333
  307MOL0     C41314   9.431   6.208   4.052 -0.2164  0.3885 -0.4476
  307MOL0     C41315   9.348   6.120   4.122 -0.8199 -0.3851 -0.1334
  307MOL0     C41316   9.335   6.131   4.261 -0.6108 -0.7168  0.7095
  307MOL0     C41317   9.403   6.233   4.326 -0.5541 -0.3370 -0.0315
  307MOL0     O41318   9.390   6.263   4.458  0.7718  0.2535 -0.6069
  307MOL0     C41319   9.307   6.180   4.543  0.5206  0.6919  0.3207
  307MOL0     C41320   9.363   6.042   4.594  0.4302 -0.6200 -0.0921
  307MOL0     C41321   9.481   6.066   4.691  0.5303 -0.4161  0.2975
  307MOL0     C41322   9.503   5.938   4.758 -0.6672  0.8198 -0.9584
  307MOL0     C41323   9.614   5.952   4.870 -0.3863 -0.0400 -0.2122
  307MOL0     C41324   9.582   6.055   4.985  0.2368  0.0957 -0.1622
  307MOL0     C41325   9.687   6.039   5.089  0.4572 -0.1904 -0.2651
  307MOL0     C41326   9.694   6.134   5.203  0.0682  0.5235  0.2069
  307MOL0     N41327   9.565   6.198   5.259 -0.2100  0.6066 -0.1016
  307MOL0     C41328   9.507   6.174   5.385 -0.8657  0.1268 -0.3088
  307MOL0     C41329   9.391   6.241   5.381 -0.5274  0.7837  0.0454
  307MOL0     C41330   9.297   6.255   5.498  0.0658  1.0734 -0.6276
  307MOL0     C41331   9.204   6.380   5.496 -1.0706  1.1103 -0.0990
  307MOL0     C41332   9.099   6.374   5.603  0.4694  1.0513 -0.3927
  307MOL0     C41333   9.010   6.501   5.609 -0.0225  0.0031  0.0170
  307MOL0     O41334   8.907   6.496   5.711  0.3464  0.3382  0.0612
  307MOL0     C41335   8.833   6.610   5.746  0.3157 -0.1406 -0.2898
  307MOL0     C41336   8.731   6.579   5.842 -0.3154 -0.4614  0.2808
  307MOL0     C41337   8.653   6.684   5.902  0.0124  0.4578 -0.1091
  307MOL0     C41338   8.551   6.645   6.001  0.4233 -0.5130 -0.6328
  307MOL0     C41339   8.688   6.826   5.876 -0.0947  0.2427  0.7749
  307MOL0     C41340   8.615   6.942   5.923 -0.5483  0.3361 -0.3870
  307MOL0     O41341   8.632   7.069   5.861 -0.2560  0.1917 -0.6835
  307MOL0     C41342   8.588   7.186   5.918 -0.3054 -0.3035 -0.3404
  307MOL0     C41343   8.669   7.298   5.902  1.2886  0.6579  0.6645
  307MOL0     C41344   8.624   7.414   5.959 -0.2532 -0.1149 -0.7654
  307MOL0     C41345   8.497   7.424   6.024 -0.0900 -0.2255 -0.0692
  307MOL0     O41346   8.454   7.534   6.089  0.7833 -0.4813 -0.0937
  307MOL0     C41347   8.513   7.668   6.050 -0.6134  0.4883 -1.3896
  307MOL0     C41348   8.431   7.784   6.100 -0.1386  0.7654 -0.3944
  307MOL0     C41349   8.297   7.786   6.020 -0.7577 -0.3972 -0.1449
  307MOL0     C41350   8.200   7.902   6.055  0.6426  0.4474 -0.3296
  307MOL0     C41351   8.133   7.886   6.191 -0.5150 -0.3541 -0.7093
  307MOL0     C41352   8.078   8.008   6.252  0.2752 -0.2392  0.3027
  307MOL0     C41353   8.187   8.106   6.304 -0.1327  0.2305 -1.2530
  307MOL0     C41354   8.271   8.066   6.429 -0.5150  0.0023 -0.2361
  307MOL0    Cl41355   8.160   8.091   6.575 -0.1557 -0.1209  0.1295
  307MOL0     C41356   8.411   7.311   6.030 -0.1849  0.4900 -0.1237
  307MOL0     C41357   8.456   7.189   5.967 -0.2022  0.1398  0.0807
  307MOL0     O41358   8.541   6.920   6.010 -0.1370  0.6309 -0.3297
  307MOL0     C41359   8.792   6.849   5.779  0.3074 -0.3901 -0.4694
  307MOL0     C41360   8.867   6.741   5.716  0.5400 -0.1397  0.0650
  307MOL0     N41361   9.363   6.285   5.252  0.2794  0.4105  0.0398
  307MOL0     N41362   9.466   6.259   5.185 -0.2018  0.4593  0.3061
  307MOL0     C41363   9.483   6.323   4.259 -0.6488  0.8600 -0.5883
  307MOL0     C41364   9.506   6.310   4.122  0.0469  0.0117  0.0377
  307MOL0     C41365   9.520   6.181   3.697  0.3144 -0.2513 -0.4582
  307MOL0     C41366   9.565   6.270   3.593  0.6250 -0.4277  0.5753
  307MOL0     C41367   9.545   6.231   3.461  0.6576 -0.5287 -0.4087
  307MOL0     C41368   9.474   6.111   3.422  0.1647  0.8698  0.0120
  307MOL0     O41369   9.459   6.083   3.286 -0.5744  0.1034  0.0587
  307MOL0     C41370   9.389   5.965   3.240 -0.1838 -1.2759  0.7681
  307MOL0     C41371   9.421   5.938   3.100 -0.3167  0.0803  0.4768
  307MOL0     C41372   9.575   5.911   3.089  0.3090 -0.3574 -0.2297
  307MOL0     C41373   9.624   5.885   2.951 -0.8156  0.0950 -0.5226
  307MOL0     C41374   9.756   5.832   2.939  0.0840 -0.0143 -0.5549
  307MOL0     C41375   9.869   5.798   2.949  0.0832  0.6538 -0.1872
  307MOL0     C41376   9.428   6.028   3.528  0.6867 -0.3816  0.4008
  307MOL0     C41377   9.443   6.067   3.664  0.2276 -0.6637  1.5033
  307MOL0     H41378   9.289   6.049   4.065  0.5471 -0.5103 -1.4507
  307MOL0     H41379   9.271   6.051   4.297 -1.0096 -1.0307 -0.6495
  307MOL0     H41380   9.286   6.254   4.620  3.6984  2.2851 -0.1601
  307MOL0     H41381   9.221   6.143   4.487  2.0336 -1.6658 -0.5814
  307MOL0     H41382   9.291   5.981   4.648 -1.3769  2.2391  0.9229
  307MOL0     H41383   9.405   5.980   4.514  1.4057  0.5231 -0.5089
  307MOL0     H41384   9.563   6.117   4.640 -1.1090  2.1477  0.0454
  307MOL0     H41385   9.461   6.139   4.770 -0.3008 -1.7255  1.3368
  307MOL0     H41386   9.408   5.907   4.804  0.7769 -1.9082  0.3916
  307MOL0     H41387   9.532   5.864   4.683  1.0683  0.0432  0.4183
  307MOL0     H41388   9.626   5.852   4.912  2.4291 -0.6182 -2.0765
  307MOL0     H41389   9.712   5.982   4.830  0.7510  0.2140  2.5522
  307MOL0     H41390   9.563   6.159   4.955 -0.5114  0.0149 -0.0047
  307MOL0     H41391   9.484   6.024   5.023 -0.4298 -1.3813 -2.8732
  307MOL0     H41392   9.666   5.942   5.136 -3.1514  1.7837  2.7695
  307MOL0     H41393   9.788   6.024   5.051  1.0519  1.6169  0.5247
  307MOL0     H41394   9.743   6.226   5.169  1.2220 -0.4635 -0.8946
  307MOL0     H41395   9.739   6.074   5.283 -0.3803  1.4842  1.2084
  307MOL0     H41396   9.554   6.111   5.460  0.5023  0.7981 -0.5666
  307MOL0     H41397   9.239   6.163   5.493 -2.5636  2.6547 -1.5246
  307MOL0     H41398   9.346   6.263   5.596 -2.1693  2.3482  0.4691
  307MOL0     H41399   9.142   6.386   5.406 -0.3708  0.4612 -0.6290
  307MOL0     H41400   9.258   6.475   5.502 -2.8681  2.3122 -1.7371
  307MOL0     H41401   9.147   6.356   5.699 -2.5004 -0.1993  0.9976
  307MOL0     H41402   9.032   6.291   5.583 -0.8798  1.6737  1.2560
  307MOL0     H41403   8.965   6.510   5.510  2.8382 -2.6545 -1.7211
  307MOL0     H41404   9.073   6.587   5.636  1.6876 -1.3788  0.6355
  307MOL0     H41405   8.724   6.479   5.883  0.0262 -0.0657  1.3319
  307MOL0     H41406   8.453   6.692   5.988  1.3641  2.0476  0.7240
  307MOL0     H41407   8.517   6.541   6.005 -0.5919 -0.1772  2.3804
  307MOL0     H41408   8.575   6.663   6.106 -4.8336  0.6079  0.6826
  307MOL0     H41409   8.762   7.284   5.848  0.0311 -0.7831 -1.2784
  307MOL0     H41410   8.688   7.501   5.948  1.3560 -1.2268 -0.5301
  307MOL0     H41411   8.610   7.677   6.101 -1.6845 -0.6476  1.0521
  307MOL0     H41412   8.526   7.677   5.942  3.9026 -2.2478 -1.3640
  307MOL0     H41413   8.406   7.767   6.205  0.4330  0.8540 -0.2423
  307MOL0     H41414   8.485   7.877   6.082  1.1990  0.1049  0.0400
  307MOL0     H41415   8.248   7.692   6.045  2.0988 -1.6851  1.0451
  307MOL0     H41416   8.327   7.797   5.915  1.1806  1.1378  0.5056
  307MOL0     H41417   8.261   7.993   6.048 -1.0942  1.5564 -2.4359
  307MOL0     H41418   8.124   7.911   5.977 -0.7585  0.4945  1.0074
  307MOL0     H41419   8.198   7.830   6.259 -0.0465 -2.9214 -3.0525
  307MOL0     H41420   8.048   7.818   6.174  1.0553 -2.8616  0.7710
  307MOL0     H41421   8.031   8.060   6.168  0.1185 -2.0074 -0.7587
  307MOL0     H41422   8.006   7.979   6.328 -1.5404 -1.0368 -1.6142
  307MOL0     H41423   8.122   8.186   6.341  0.0094 -0.9461  1.8966
  307MOL0     H41424   8.245   8.137   6.217 -1.8421  2.9679 -1.5445
  307MOL0     H41425   8.355   8.133   6.445  1.3116 -0.1344 -6.4934
  307MOL0     H41426   8.303   7.961   6.423 -3.1477 -0.8422 -0.9145
  307MOL0     H41427   8.321   7.348   6.080 -0.8460  2.8304 -2.7978
  307MOL0     H41428   8.380   7.111   5.966 -1.8746  1.5831  2.7249
  307MOL0     H41429   8.826   6.952   5.777  2.6762 -1.0807  0.1721
  307MOL0     H41430   8.951   6.758   5.649  0.1757  1.7718  0.0406
  307MOL0     H41431   9.538   6.403   4.308  0.0411  0.0303  0.0240
  307MOL0     H41432   9.567   6.376   4.062 -1.9477  2.0437  0.1289
  307MOL0     H41433   9.621   6.362   3.604 -1.2389  1.2171 -2.2701
  307MOL0     H41434   9.567   6.302   3.383 -1.6934  0.3206 -0.3808
  307MOL0     H41435   9.418   5.878   3.300 -1.0051 -1.5291  0.8152
  307MOL0     H41436   9.281   5.983   3.249  0.1458  0.7323  1.0980
  307MOL0     H41437   9.393   6.021   3.035  0.9966  1.3157  1.4339
  307MOL0     H41438   9.370   5.845   3.070 -0.1352  0.3781 -0.8153
  307MOL0     H41439   9.608   5.829   3.153 -1.8260 -0.7852  0.3726
  307MOL0     H41440   9.628   5.997   3.132 -0.8815 -0.0853  0.7205
  307MOL0     H41441   9.623   5.982   2.900  3.1941  1.1131  0.9169
  307MOL0     H41442   9.556   5.820   2.896 -1.1220  1.5362 -1.9494
  307MOL0     H41443   9.964   5.752   2.964 -1.8086 -3.2863  0.9626
  307MOL0     H41444   9.384   5.930   3.510  0.4916 -0.1667 -0.3401
  307MOL0     H41445   9.414   5.999   3.743  1.8503 -2.6173  0.5212
  308MOL0     O41446   8.142   1.244   8.622  0.0860 -0.3327  0.4154
  308MOL0     C41447   8.244   1.273   8.683  0.1344  0.2831  0.7492
  308MOL0     O41448   8.263   1.287   8.814 -0.1062 -1.3330  0.1173
  308MOL0     C41449   8.143   1.277   8.889 -1.0046 -0.4765 -0.6598
  308MOL0     C41450   8.085   1.152   8.902 -0.5758  0.8534 -0.5087
  308MOL0     C41451   7.973   1.131   8.978  0.6843  0.6471  0.7175
  308MOL0     C41452   7.900   1.234   9.044  0.1409 -0.5280 -0.7219
  308MOL0     O41453   7.784   1.221   9.115 -0.9314 -0.5352 -0.6004
  308MOL0     C41454   7.716   1.097   9.146 -0.5509 -0.8647  0.5999
  308MOL0     C41455   7.591   1.090   9.058 -0.9603  0.0038  0.9169
  308MOL0     C41456   7.491   1.205   9.062  0.7238 -0.3844 -0.3104
  308MOL0     C41457   7.383   1.185   8.961 -0.2214  0.5629  0.2933
  308MOL0     C41458   7.268   1.288   8.938  0.4737 -1.4882 -0.7557
  308MOL0     C41459   7.180   1.319   9.053  0.2202  0.3408 -0.6444
  308MOL0     C41460   7.115   1.453   9.026 -0.7000  0.3277 -0.0283
  308MOL0     C41461   7.021   1.500   9.127 -0.0892  0.4147 -0.5473
  308MOL0     N41462   6.953   1.616   9.075  0.2495 -0.9047 -0.3797
  308MOL0     C41463   6.855   1.618   8.980  1.1385 -0.1700  0.3186
  308MOL0     C41464   6.822   1.744   8.957  0.2919  1.0195  0.7055
  308MOL0     C41465   6.708   1.796   8.875 -0.4634 -0.3055  0.8227
  308MOL0     C41466   6.594   1.869   8.947  0.4605  0.2047  0.0544
  308MOL0     C41467   6.515   1.966   8.853  0.5543  0.3577  0.2253
  308MOL0     C41468   6.443   1.896   8.734  0.6881  0.0863  0.3458
  308MOL0     O41469   6.343   1.794   8.773  0.0128 -0.6153 -0.4763
  308MOL0     C41470   6.223   1.830   8.830 -0.1893  0.5441 -0.8273
  308MOL0     C41471   6.180   1.726   8.918 -0.2211 -0.0554 -1.0062
  308MOL0     C41472   6.058   1.746   8.987 -0.7294 -0.2805 -0.1601
  308MOL0     C41473   6.017   1.632   9.082 -0.1605 -0.3848 -0.1342
  308MOL0     C41474   5.983   1.866   8.977  1.0414 -0.7626 -0.2817
  308MOL0     C41475   5.867   1.884   9.067  0.1413  0.7069 -0.0950
  308MOL0     O41476   5.749   1.827   9.039 -1.0219  0.0776  0.4249
  308MOL0     C41477   5.642   1.897   9.088 -0.0780  0.5843 -0.4461
  308MOL0     C41478   5.557   1.825   9.172 -0.0152  0.4443  0.5986
  308MOL0     C41479   5.439   1.882   9.223 -0.1235  0.1681 -0.6816
  308MOL0     C41480   5.408   2.014   9.187  0.1612 -0.4707  0.3894
  308MOL0     O41481   5.311   2.098   9.246 -0.4048  0.8032  0.0373
  308MOL0     C41482   5.180   2.036   9.228 -0.2737  0.0458  0.3453
  308MOL0     C41483   5.067   2.137   9.244 -0.3317  0.6541 -0.6954
  308MOL0     C41484   5.086   2.275   9.174 -0.5219  0.1487  0.8218
  308MOL0     C41485   4.972   2.378   9.201  0.0483  0.7895  0.0234
  308MOL0     C41486   4.973   2.437   9.340  0.5372  0.1251  0.0087
  308MOL0     C41487   5.085   2.533   9.364 -0.0811 -0.5372 -1.1269
  308MOL0     C41488   5.206   2.480   9.447  0.4527  0.1890  1.0897
  308MOL0     C41489   5.164   2.434   9.583 -0.2790 -0.1669 -0.0904
  308MOL0    Cl41490   5.295   2.437   9.703  0.2833  0.3404 -0.0830
  308MOL0     C41491   5.489   2.078   9.092 -0.6095  0.7670 -0.3403
  308MOL0     C41492   5.612   2.020   9.052  0.1237  0.0785  0.3418
  308MOL0     O41493   5.896   1.947   9.172 -0.1807  0.3953  0.1515
  308MOL0     C41494   6.039   1.961   8.889  0.3132  0.4294 -0.0820
  308MOL0     C41495   6.149   1.943   8.812  1.1880  0.2553 -0.2754
  308MOL0     N41496   6.908   1.825   9.033 -0.2710  1.0255 -0.2187
  308MOL0     N41497   6.982   1.749   9.110  0.7447  0.0187  0.0563
  308MOL0     C41498   7.948   1.368   9.022 -0.3355 -0.0908 -0.3913
  308MOL0     C41499   8.075   1.382   8.951  0.5843  1.0536  0.1566
  308MOL0     C41500   8.360   1.301   8.600 -0.0685 -0.0616  0.1428
  308MOL0     C41501   8.350   1.370   8.479 -0.5929 -0.1097  0.9018
  308MOL0     C41502   8.467   1.393   8.406  0.1509 -0.7659  0.4068
  308MOL0     C41503   8.594   1.356   8.460  0.3301  1.0558  1.2952
  308MOL0     O41504   8.711   1.370   8.393  1.1695 -0.3255  0.3791
  308MOL0     C41505   8.714   1.455   8.277  0.2872 -0.6715  0.4784
  308MOL0     C41506   8.865   1.445   8.243  0.3151 -0.9354 -0.9475
  308MOL0     C41507   8.905   1.548   8.135 -0.3893 -0.8211 -0.8822
  308MOL0     C41508   8.925   1.692   8.187 -0.3472  0.5007  1.0789
  308MOL0     C41509   9.051   1.690   8.272  0.8685 -1.2834  1.1338
  308MOL0     C41510   9.144   1.704   8.336  0.2422  0.4481 -1.0819
  308MOL0     C41511   8.597   1.280   8.579  0.9314 -0.6034  0.6880
  308MOL0     C41512   8.484   1.265   8.653 -0.4771 -0.5151 -0.1209
  308MOL0     H41513   8.132   1.066   8.855  1.0899  1.3199  0.2085
  308MOL0     H41514   7.939   1.028   8.986  4.2308 -1.0827 -2.9438
  308MOL0     H41515   7.783   1.012   9.132  3.7784  1.8452  2.5396
  308MOL0     H41516   7.685   1.094   9.251  0.2284  0.7106  0.9139
  308MOL0     H41517   7.621   1.087   8.953 -0.0260  0.3675  1.1569
  308MOL0     H41518   7.539   0.999   9.086 -1.1159 -0.2942 -0.3140
  308MOL0     H41519   7.452   1.218   9.164  2.0958  1.5616  0.0409
  308MOL0     H41520   7.534   1.305   9.050  0.4145  0.1686  2.4339
  308MOL0     H41521   7.433   1.162   8.866  1.4114  1.7855  0.8031
  308MOL0     H41522   7.335   1.092   8.993  1.2478  0.5467  2.6792
  308MOL0     H41523   7.333   1.375   8.919  1.0039 -1.2993  1.6221
  308MOL0     H41524   7.211   1.267   8.847  0.3596  0.4023 -1.1759
  308MOL0     H41525   7.103   1.242   9.065  2.1097 -1.2408  2.7036
  308MOL0     H41526   7.256   1.321   9.131  4.3494 -0.4438 -4.2933
  308MOL0     H41527   7.191   1.531   9.017  0.4696 -0.4134  2.3538
  308MOL0     H41528   7.056   1.432   8.936  0.0496 -1.8266 -0.0782
  308MOL0     H41529   7.075   1.525   9.218  0.3409  1.9837 -1.1998
  308MOL0     H41530   6.943   1.423   9.135 -1.9307  2.2309 -0.3610
  308MOL0     H41531   6.800   1.535   8.937 -0.0008  1.4808 -1.5579
  308MOL0     H41532   6.758   1.854   8.796  0.4046  0.3963  1.8523
  308MOL0     H41533   6.665   1.706   8.831 -0.7874  1.6824 -3.3756
  308MOL0     H41534   6.644   1.925   9.027  0.6698  1.3794 -0.8826
  308MOL0     H41535   6.531   1.792   8.991  2.4487 -1.0283  0.9190
  308MOL0     H41536   6.593   2.030   8.811  1.1781 -1.0713 -0.8872
  308MOL0     H41537   6.445   2.025   8.913  0.9350  2.0612 -0.9458
  308MOL0     H41538   6.527   1.851   8.681  0.4650  1.5577 -1.3216
  308MOL0     H41539   6.402   1.969   8.664  0.3592  0.7013  1.1609
  308MOL0     H41540   6.239   1.634   8.923 -1.7498 -1.2013 -2.6750
  308MOL0     H41541   6.043   1.653   9.186  2.0050  0.9401 -0.8867
  308MOL0     H41542   5.911   1.606   9.072  0.4168 -2.4899 -1.6552
  308MOL0     H41543   6.070   1.544   9.044 -0.8745 -1.3486  1.0290
  308MOL0     H41544   5.573   1.720   9.191 -2.2158  0.2079  1.5201
  308MOL0     H41545   5.361   1.831   9.278 -0.1691 -0.4985 -1.3385
  308MOL0     H41546   5.170   1.994   9.127  4.7177  1.9236 -1.2382
  308MOL0     H41547   5.166   1.960   9.305  0.6249  1.1699  1.6775
  308MOL0     H41548   4.973   2.092   9.210 -0.5634  0.0900  0.6131
  308MOL0     H41549   5.056   2.158   9.351 -1.8285 -3.1275  0.0485
  308MOL0     H41550   5.085   2.265   9.065 -0.2110  1.2308  0.7088
  308MOL0     H41551   5.186   2.315   9.190 -0.0969  0.3617 -1.8830
  308MOL0     H41552   4.985   2.458   9.127 -0.7396 -0.2111 -1.2170
  308MOL0     H41553   4.876   2.330   9.184 -0.1961  1.0734  0.5629
  308MOL0     H41554   4.956   2.365   9.421 -3.5568  0.5741 -0.2879
  308MOL0     H41555   4.881   2.495   9.346  1.6068  1.7905  2.4318
  308MOL0     H41556   5.122   2.572   9.269  0.9488  2.4895  0.3697
  308MOL0     H41557   5.046   2.617   9.423  3.2659 -2.0764  4.0117
  308MOL0     H41558   5.277   2.562   9.465  1.9921 -1.1352  1.1987
  308MOL0     H41559   5.257   2.402   9.391 -1.6148  0.5850 -1.5788
  308MOL0     H41560   5.134   2.332   9.557 -0.1215 -0.1900 -0.1823
  308MOL0     H41561   5.077   2.497   9.608 -2.3591 -1.5724 -3.1525
  308MOL0     H41562   5.455   2.178   9.068 -2.4956 -0.0417 -1.1674
  308MOL0     H41563   5.674   2.079   8.986  0.1971 -0.5045 -0.1223
  308MOL0     H41564   6.006   2.064   8.887  3.0661  1.4038  0.1803
  308MOL0     H41565   6.183   2.031   8.758 -1.2359  1.0813 -0.5557
  308MOL0     H41566   7.891   1.456   9.048  0.2281 -0.6786  3.4039
  308MOL0     H41567   8.119   1.481   8.948  1.7073  0.5423 -1.0707
  308MOL0     H41568   8.253   1.404   8.442  0.0618  3.9809  2.3745
  308MOL0     H41569   8.460   1.460   8.321 -0.5927  0.7887  1.6395
  308MOL0     H41570   8.652   1.410   8.199  0.2330 -0.7986  0.5943
  308MOL0     H41571   8.683   1.558   8.294  4.0077  0.7764 -0.5056
  308MOL0     H41572   8.894   1.346   8.208  0.1581 -1.0046 -0.8866
  308MOL0     H41573   8.922   1.461   8.335  1.4501 -1.0210 -1.6163
  308MOL0     H41574   8.830   1.548   8.055 -0.5946 -0.1693 -0.6924
  308MOL0     H41575   8.994   1.518   8.079 -0.0179  0.8702 -1.2497
  308MOL0     H41576   8.836   1.734   8.234 -1.0865  2.2698 -1.6997
  308MOL0     H41577   8.954   1.750   8.100 -0.1776  0.2664  0.9768
  308MOL0     H41578   9.235   1.727   8.386  1.1174 -1.4953 -1.6530
  308MOL0     H41579   8.686   1.239   8.626  1.7863 -1.8424 -1.8024
  308MOL0     H41580   8.507   1.211   8.744  1.7061  1.4360  0.5536
  309MOL0     O41581   0.620   1.865  11.150  0.0000  0.2819 -0.4098
  309MOL0     C41582   0.613   1.741  11.168  0.2153  0.4711  0.5936
  309MOL0     O41583   0.537   1.673  11.255  0.0958 -0.2152 -0.1066
  309MOL0     C41584   0.471   1.732  11.361  0.1050  0.0175  0.5703
  309MOL0     C41585   0.423   1.864  11.364  1.4551 -0.3377 -0.3757
  309MOL0     C41586   0.360   1.912  11.484 -0.4379  0.2740 -0.5354
  309MOL0     C41587   0.349   1.837  11.602 -0.6293  0.1861  0.1627
  309MOL0     O41588   0.304   1.891  11.717  0.5689 -0.9547 -0.0956
  309MOL0     C41589   0.206   1.818  11.790 -0.3634  0.0859 -0.4602
  309MOL0     C41590   0.100   1.920  11.835 -0.6131 -0.0264  0.7228
  309MOL0     C41591   0.006   1.964  11.722 -0.7403  0.7542  0.7173
  309MOL0     C41592  -0.086   2.076  11.759  0.0807  0.3023 -0.1611
  309MOL0     C41593  -0.188   2.034  11.864  0.0693 -0.0163 -0.3955
  309MOL0     C41594  -0.299   2.138  11.884  0.5430 -0.3990  0.7179
  309MOL0     C41595  -0.407   2.116  11.771  0.6293  0.3024 -0.1283
  309MOL0     C41596  -0.534   2.211  11.784 -0.3599  0.4435  0.2396
  309MOL0     N41597  -0.607   2.191  11.905 -0.8989 -0.4046 -0.3839
  309MOL0     C41598  -0.703   2.100  11.919 -1.0010 -0.7609  0.1415
  309MOL0     C41599  -0.722   2.095  12.049  0.0870 -0.4107 -0.0345
  309MOL0     C41600  -0.811   2.005  12.132  0.6816 -0.0986  0.4749
  309MOL0     C41601  -0.936   2.093  12.166 -0.1681 -0.1496  0.5225
  309MOL0     C41602  -1.041   2.119  12.059 -0.1627 -0.8381 -0.1881
  309MOL0     C41603  -1.027   2.257  12.004 -0.1198 -0.2175 -1.2497
  309MOL0     O41604  -1.131   2.353  12.050  0.1002  0.0819 -0.1537
  309MOL0     C41605  -1.263   2.316  12.036  0.2532  0.1082 -1.1111
  309MOL0     C41606  -1.306   2.225  11.944 -0.7122  0.3802  0.8584
  309MOL0     C41607  -1.438   2.179  11.933  0.0855 -0.4465 -0.6075
  309MOL0     C41608  -1.465   2.081  11.832 -0.6991 -0.8463 -0.1150
  309MOL0     C41609  -1.533   2.235  12.029  1.2604  0.3171  0.0891
  309MOL0     C41610  -1.679   2.207  12.022  0.8661 -0.8247 -0.7844
  309MOL0     O41611  -1.763   2.263  12.117 -0.1931 -0.5966 -0.0399
  309MOL0     C41612  -1.879   2.189  12.145  0.0239 -0.4236  0.0550
  309MOL0     C41613  -1.893   2.103  12.258 -0.6292 -0.0007 -0.8888
  309MOL0     C41614  -1.995   2.016  12.272 -0.8962 -0.0661  0.1500
  309MOL0     C41615  -2.087   2.010  12.169  0.6466  0.1515 -0.0456
  309MOL0     O41616  -2.193   1.921  12.170 -0.1503  0.3794  0.3188
  309MOL0     C41617  -2.211   1.826  12.271 -0.5974 -0.2516  0.4163
  309MOL0     C41618  -2.335   1.734  12.244 -0.2924  0.3566 -0.1071
  309MOL0     C41619  -2.463   1.826  12.266 -0.3451  0.2079  0.2383
  309MOL0     C41620  -2.595   1.738  12.230 -0.7474  0.3470  0.9861
  309MOL0     C41621  -2.717   1.822  12.268 -0.2009  0.0019  0.5384
  309MOL0     C41622  -2.851   1.762  12.238 -0.2576  0.2106 -0.3042
  309MOL0     C41623  -2.851   1.709  12.087 -0.2214  1.0462 -0.2171
  309MOL0     C41624  -2.997   1.706  12.026  0.7142  0.0844  0.0274
  309MOL0    Cl41625  -2.990   1.635  11.856 -0.1414 -0.6790 -0.8762
  309MOL0     C41626  -2.082   2.097  12.059  0.8260  0.2971  0.1428
  309MOL0     C41627  -1.983   2.188  12.049 -0.6365 -0.0030 -0.1084
  309MOL0     O41628  -1.723   2.149  11.923  0.4735 -0.0815  0.5410
  309MOL0     C41629  -1.484   2.330  12.128  0.3362 -0.3128  0.2471
  309MOL0     C41630  -1.351   2.367  12.128 -0.3785 -0.2929 -0.2332
  309MOL0     N41631  -0.637   2.182  12.115 -0.8262  0.1835  0.5264
  309MOL0     N41632  -0.579   2.249  12.019  0.5994  0.0521 -0.1865
  309MOL0     C41633   0.411   1.715  11.605 -1.4823 -0.2154  0.2466
  309MOL0     C41634   0.461   1.667  11.482 -0.4200  0.5565 -0.2872
  309MOL0     C41635   0.716   1.662  11.090 -0.6583  0.3012  0.5339
  309MOL0     C41636   0.793   1.728  10.988 -0.7882  0.4057 -0.0606
  309MOL0     C41637   0.897   1.665  10.919  0.3774 -0.3629  0.7677
  309MOL0     C41638   0.927   1.532  10.953 -0.2069 -0.5248 -0.2844
  309MOL0     O41639   1.044   1.469  10.907  0.7338  0.0634  0.4122
  309MOL0     C41640   1.108   1.503  10.789  0.1136  0.0124  0.8526
  309MOL0     C41641   1.206   1.397  10.746 -0.5403 -0.2478 -0.8300
  309MOL0     C41642   1.275   1.427  10.613  1.2521  0.1123 -0.2508
  309MOL0     C41643   1.183   1.457  10.491  0.2871  0.2693  0.3235
  309MOL0     C41644   1.129   1.323  10.457 -0.0441  0.2409  0.2022
  309MOL0     C41645   1.049   1.234  10.451  0.0921  1.2096 -0.3090
  309MOL0     C41646   0.852   1.456  11.040  0.1973 -0.4768 -0.4769
  309MOL0     C41647   0.751   1.526  11.112  0.1473  0.3996 -0.8503
  309MOL0     H41648   0.432   1.925  11.274  1.1203  0.7320  0.2927
  309MOL0     H41649   0.322   2.013  11.489 -2.4021 -0.4581  1.1860
  309MOL0     H41650   0.156   1.748  11.723  0.0292 -0.9163  0.2803
  309MOL0     H41651   0.259   1.764  11.869 -0.6057 -0.1351 -0.4512
  309MOL0     H41652   0.044   1.867  11.912 -2.7194  0.2034 -0.5739
  309MOL0     H41653   0.161   2.003  11.873  2.3685 -1.4088 -0.6633
  309MOL0     H41654   0.070   1.992  11.638 -1.3472 -0.8408 -0.3316
  309MOL0     H41655  -0.054   1.876  11.695 -0.4406 -0.0579  2.5147
  309MOL0     H41656  -0.024   2.155  11.800  0.3748 -0.8167  1.6492
  309MOL0     H41657  -0.137   2.106  11.667 -1.6766  2.2254  1.3355
  309MOL0     H41658  -0.231   1.936  11.838  3.3668 -2.3314  1.9730
  309MOL0     H41659  -0.134   2.011  11.957  0.1971 -3.1988 -1.1176
  309MOL0     H41660  -0.347   2.127  11.981 -0.3803  2.5447  0.6684
  309MOL0     H41661  -0.265   2.242  11.882 -0.2059 -0.1595 -0.2922
  309MOL0     H41662  -0.372   2.139  11.670 -0.6517  1.5192 -0.3383
  309MOL0     H41663  -0.439   2.011  11.774 -1.4777  0.8781 -0.9339
  309MOL0     H41664  -0.607   2.184  11.707  0.0878  2.5195 -0.9938
  309MOL0     H41665  -0.514   2.318  11.775 -2.3472  1.4340  4.7666
  309MOL0     H41666  -0.744   2.038  11.841 -2.1743 -1.8638  1.5717
  309MOL0     H41667  -0.830   1.912  12.078  1.5885  0.2609 -0.5072
  309MOL0     H41668  -0.758   1.987  12.226  1.3504 -1.0079 -0.0590
  309MOL0     H41669  -0.902   2.191  12.199 -1.3134  1.9043 -3.6637
  309MOL0     H41670  -0.988   2.039  12.247  0.0198  1.5716  1.8530
  309MOL0     H41671  -1.141   2.097  12.099  1.2219 -0.5188  3.7929
  309MOL0     H41672  -1.009   2.055  11.976 -0.1779  0.8965 -1.6067
  309MOL0     H41673  -1.029   2.251  11.895  0.9294 -0.6276 -1.2519
  309MOL0     H41674  -0.928   2.297  12.027 -1.8283  2.9854  1.4551
  309MOL0     H41675  -1.241   2.169  11.878 -2.3766  0.2518 -0.7760
  309MOL0     H41676  -1.516   1.997  11.881  1.2929 -0.9181  2.0479
  309MOL0     H41677  -1.523   2.130  11.754  1.3894  3.4412  0.7031
  309MOL0     H41678  -1.379   2.036  11.782  0.1926 -0.4901  1.0368
  309MOL0     H41679  -1.815   2.088  12.332 -2.0906 -0.4478  0.5992
  309MOL0     H41680  -2.013   1.961  12.363 -0.7030 -1.2555 -0.5129
  309MOL0     H41681  -2.121   1.766  12.281 -0.5843 -0.5888 -1.4005
  309MOL0     H41682  -2.218   1.867  12.373 -2.9046  1.2919 -0.2756
  309MOL0     H41683  -2.326   1.704  12.140 -0.8565  3.1326 -1.0573
  309MOL0     H41684  -2.331   1.646  12.308 -1.2262  1.4617  1.5745
  309MOL0     H41685  -2.454   1.918  12.207  2.6349  0.4457  0.8890
  309MOL0     H41686  -2.458   1.846  12.374  0.2581  3.1977 -0.2452
  309MOL0     H41687  -2.595   1.722  12.122 -1.6270  2.8073  0.5714
  309MOL0     H41688  -2.594   1.640  12.279 -2.0365  0.7117  1.7555
  309MOL0     H41689  -2.705   1.919  12.218  2.2346  1.2072  3.1355
  309MOL0     H41690  -2.723   1.828  12.377 -1.2303  1.7784  0.4334
  309MOL0     H41691  -2.861   1.673  12.301 -1.3975 -1.8582 -3.1693
  309MOL0     H41692  -2.934   1.829  12.262 -0.7505 -0.4107 -0.2260
  309MOL0     H41693  -2.804   1.611  12.092  0.4868  1.4102  0.7200
  309MOL0     H41694  -2.794   1.767  12.014  1.3267 -2.0610 -1.6577
  309MOL0     H41695  -3.037   1.807  12.022  2.9014  1.0375  0.7419
  309MOL0     H41696  -3.064   1.641  12.083 -1.6014  3.2649  1.1488
  309MOL0     H41697  -2.170   2.100  11.996 -0.3446  0.7870  1.7320
  309MOL0     H41698  -1.967   2.260  11.969 -0.1803  0.2577  0.2120
  309MOL0     H41699  -1.549   2.382  12.197  1.4843  2.2610 -0.4765
  309MOL0     H41700  -1.318   2.431  12.209  0.6523  0.5964 -1.3191
  309MOL0     H41701   0.416   1.657  11.697 -2.5136 -1.3308 -0.3795
  309MOL0     H41702   0.517   1.574  11.484  0.9068  1.2705 -2.1257
  309MOL0     H41703   0.783   1.835  10.969  2.1065  0.7032 -0.2820
  309MOL0     H41704   0.954   1.719  10.843 -0.3887  1.9666  1.7670
  309MOL0     H41705   1.042   1.529  10.706 -0.1270 -1.6728  0.4828
  309MOL0     H41706   1.174   1.588  10.811 -0.8181  0.2782  2.8851
  309MOL0     H41707   1.142   1.309  10.739  0.1681 -1.0258  1.5413
  309MOL0     H41708   1.267   1.376  10.834 -4.8404  0.4708  2.6609
  309MOL0     H41709   1.349   1.348  10.594  2.3726  1.3762 -1.3219
  309MOL0     H41710   1.335   1.516  10.634  2.5730 -0.0701 -2.8271
  309MOL0     H41711   1.240   1.504  10.410  0.7890  1.2799  1.2330
  309MOL0     H41712   1.113   1.533  10.527  0.4016 -1.2640  4.2518
  309MOL0     H41713   0.996   1.141  10.454  3.0771 -0.6325  2.8216
  309MOL0     H41714   0.875   1.351  11.056  1.0918 -0.5921 -2.2998
  309MOL0     H41715   0.713   1.469  11.196  0.2518 -1.5847 -2.0815
  310MOL0     O41716   8.647  10.417   4.615  0.3783  0.4198 -0.5344
  310MOL0     C41717   8.612  10.464   4.512  0.0103  0.3207  0.0526
  310MOL0     O41718   8.539  10.403   4.419  0.6683  0.0689  0.0181
  310MOL0     C41719   8.473  10.281   4.447  0.3210 -1.6496 -0.1029
  310MOL0     C41720   8.343  10.277   4.493  0.3444  0.5432  0.5625
  310MOL0     C41721   8.277  10.153   4.481 -0.2063 -1.0851  0.5322
  310MOL0     C41722   8.338  10.032   4.464  0.4921  0.3653  0.0361
  310MOL0     O41723   8.266   9.912   4.442 -0.3203 -0.3492 -0.3889
  310MOL0     C41724   8.332   9.783   4.456 -0.1750 -0.7844 -0.2127
  310MOL0     C41725   8.224   9.686   4.448  0.3918  1.1884 -0.5639
  310MOL0     C41726   8.104   9.705   4.546 -1.0814  0.1670 -0.0692
  310MOL0     C41727   8.012   9.593   4.513  0.2551  0.5150  0.6098
  310MOL0     C41728   7.883   9.599   4.606  0.0617  0.7003  0.2179
  310MOL0     C41729   7.789   9.471   4.596  0.5248  0.5170 -0.4097
  310MOL0     C41730   7.663   9.495   4.682 -0.6809 -0.1791 -0.2677
  310MOL0     C41731   7.566   9.391   4.660 -0.8448  0.2671 -0.3018
  310MOL0     N41732   7.621   9.254   4.696  0.5349  0.3786  0.2551
  310MOL0     C41733   7.619   9.196   4.824  0.2911  0.0128  0.5514
  310MOL0     C41734   7.681   9.074   4.806 -0.4677  0.3109  0.2850
  310MOL0     C41735   7.717   8.969   4.912 -0.2503 -0.6684 -0.2940
  310MOL0     C41736   7.732   9.024   5.061  0.2289  0.5924  0.2686
  310MOL0     C41737   7.789   8.916   5.153 -0.5594  0.5992  0.3385
  310MOL0     C41738   7.842   8.961   5.291 -0.1535 -0.1982  0.3503
  310MOL0     O41739   7.724   9.020   5.345  0.2764 -0.1293  0.2065
  310MOL0     C41740   7.609   8.958   5.383 -1.0264  0.3948  0.4002
  310MOL0     C41741   7.595   8.821   5.405  0.8138 -0.1534 -0.1971
  310MOL0     C41742   7.469   8.766   5.451  0.1895 -0.3515 -0.3049
  310MOL0     C41743   7.462   8.614   5.483 -0.7616  0.2836  0.2391
  310MOL0     C41744   7.359   8.848   5.455  0.1139  0.0568  0.1662
  310MOL0     C41745   7.225   8.796   5.509 -0.5034 -1.3429  0.8724
  310MOL0     O41746   7.185   8.670   5.483  0.2641 -0.2363  0.1999
  310MOL0     C41747   7.065   8.627   5.531  0.2990  0.1259  0.3425
  310MOL0     C41748   7.071   8.507   5.600  0.4367  0.3147  0.1022
  310MOL0     C41749   6.954   8.454   5.655  0.0395  0.2639  0.2295
  310MOL0     C41750   6.831   8.517   5.641  0.6133 -1.1815  0.5021
  310MOL0     O41751   6.710   8.487   5.697  0.7061 -0.2814 -0.3429
  310MOL0     C41752   6.707   8.374   5.785 -0.5560  0.5100 -0.2249
  310MOL0     C41753   6.564   8.357   5.841 -0.1535  0.7459  0.4218
  310MOL0     C41754   6.525   8.461   5.933 -0.7775 -1.4950  0.0238
  310MOL0     C41755   6.400   8.424   6.012  0.1098  0.0294 -1.0501
  310MOL0     C41756   6.354   8.538   6.101 -1.3825 -0.5271 -0.2627
  310MOL0     C41757   6.196   8.541   6.104  0.1794  0.0894 -0.2406
  310MOL0     C41758   6.138   8.412   6.176  0.6597 -0.7494  0.4871
  310MOL0     C41759   5.984   8.429   6.180  0.8485  1.0710  0.2887
  310MOL0    Cl41760   5.932   8.352   6.018 -0.2451 -0.1180 -0.0668
  310MOL0     C41761   6.829   8.628   5.560  0.4642  0.4892 -0.3887
  310MOL0     C41762   6.940   8.684   5.501  0.2085 -0.8121 -0.9088
  310MOL0     O41763   7.165   8.875   5.579 -0.7668 -0.1127 -0.1049
  310MOL0     C41764   7.374   8.983   5.425 -0.0974 -0.1813  0.1143
  310MOL0     C41765   7.495   9.038   5.389 -0.5804 -0.7194 -0.3230
  310MOL0     N41766   7.717   9.059   4.672  0.1385  0.2327 -0.4583
  310MOL0     N41767   7.682   9.173   4.608  0.0723  0.2569 -0.7823
  310MOL0     C41768   8.467  10.041   4.420 -0.1299  0.6964 -0.0499
  310MOL0     C41769   8.538  10.160   4.406 -0.1475 -0.2758 -0.1969
  310MOL0     C41770   8.665  10.595   4.475 -0.2071 -0.2982 -0.0256
  310MOL0     C41771   8.632  10.660   4.351  0.0296 -0.2152 -0.1783
  310MOL0     C41772   8.663  10.795   4.322 -0.1349  0.7225 -0.1798
  310MOL0     C41773   8.733  10.870   4.415 -0.0353 -0.2285  0.7436
  310MOL0     O41774   8.763  11.008   4.394 -0.8551  0.7659  0.5119
  310MOL0     C41775   8.765  11.053   4.254 -0.0192  0.1155 -0.1520
  310MOL0     C41776   8.845  11.174   4.231  0.0793 -1.0810 -0.1613
  310MOL0     C41777   8.985  11.177   4.299  0.3707 -0.1416 -0.0860
  310MOL0     C41778   9.083  11.107   4.197 -0.0165  0.1996  0.1513
  310MOL0     C41779   9.197  11.040   4.273  0.6226 -1.2346 -0.5711
  310MOL0     C41780   9.290  11.002   4.331 -0.7726  0.4981 -0.1192
  310MOL0     C41781   8.772  10.810   4.533 -0.2247  0.2401  0.3141
  310MOL0     C41782   8.740  10.678   4.565 -0.4950  1.1084  0.5941
  310MOL0     H41783   8.297  10.373   4.515 -1.8304 -1.2059  4.9188
  310MOL0     H41784   8.169  10.159   4.490 -0.3270  0.8963 -1.3349
  310MOL0     H41785   8.398   9.775   4.369 -0.7850  0.8709 -0.8683
  310MOL0     H41786   8.385   9.787   4.552  3.5603  0.0331 -2.1452
  310MOL0     H41787   8.185   9.695   4.346  0.8926 -2.7916 -1.2537
  310MOL0     H41788   8.257   9.582   4.458 -0.3972  0.5316 -3.6675
  310MOL0     H41789   8.133   9.708   4.651  0.4543 -3.4216 -0.2712
  310MOL0     H41790   8.056   9.796   4.507 -3.2786 -0.5722  0.7796
  310MOL0     H41791   7.973   9.595   4.411 -0.0498 -3.8893  0.4597
  310MOL0     H41792   8.062   9.496   4.520 -1.2449 -0.5264 -2.0000
  310MOL0     H41793   7.908   9.604   4.712 -0.6605  1.4215  0.3626
  310MOL0     H41794   7.814   9.676   4.569 -1.7988 -0.4622  1.0809
  310MOL0     H41795   7.780   9.439   4.492  0.1076  0.9044 -0.4985
  310MOL0     H41796   7.842   9.384   4.637 -0.8792 -0.6910 -1.0682
  310MOL0     H41797   7.676   9.522   4.787 -0.5664  1.7461 -0.7310
  310MOL0     H41798   7.614   9.587   4.648  1.0370 -0.4441 -3.8770
  310MOL0     H41799   7.522   9.399   4.559 -0.9045  1.7100 -0.1858
  310MOL0     H41800   7.480   9.406   4.726  1.0423  0.5858  2.2310
  310MOL0     H41801   7.550   9.223   4.904 -1.0041  1.7306 -1.0430
  310MOL0     H41802   7.641   8.891   4.923 -0.7538  0.1494  5.6366
  310MOL0     H41803   7.809   8.914   4.892  0.6152  0.1145  1.3025
  310MOL0     H41804   7.633   9.044   5.103 -0.2058 -1.3716  0.2535
  310MOL0     H41805   7.800   9.110   5.063  2.2716 -0.9427  0.6755
  310MOL0     H41806   7.875   8.870   5.103 -2.0691 -0.8308 -1.0382
  310MOL0     H41807   7.718   8.833   5.157 -0.4374  0.4185 -0.8412
  310MOL0     H41808   7.927   9.030   5.293  0.0820 -0.4617 -0.2728
  310MOL0     H41809   7.864   8.869   5.347 -1.7208 -0.6504  0.2723
  310MOL0     H41810   7.686   8.761   5.410  0.1348 -1.2399 -0.4557
  310MOL0     H41811   7.403   8.565   5.405  1.6446 -1.3733 -0.6530
  310MOL0     H41812   7.557   8.564   5.466 -0.6589  0.8067 -0.8410
  310MOL0     H41813   7.414   8.593   5.579 -0.1394 -1.1078  0.2646
  310MOL0     H41814   7.158   8.444   5.611 -0.4840 -0.6042  3.0534
  310MOL0     H41815   6.957   8.360   5.709 -1.9806 -0.8014 -1.3702
  310MOL0     H41816   6.746   8.290   5.725 -1.9648  1.0484 -2.0057
  310MOL0     H41817   6.774   8.389   5.870 -1.1973  2.0248  0.0475
  310MOL0     H41818   6.502   8.354   5.751 -0.4036 -1.0425  0.6097
  310MOL0     H41819   6.560   8.259   5.891 -2.8751  0.2305 -0.6289
  310MOL0     H41820   6.497   8.537   5.861 -2.6123 -0.9265  1.2705
  310MOL0     H41821   6.608   8.497   5.995  0.3294 -2.4035 -0.8780
  310MOL0     H41822   6.321   8.390   5.944  0.2739  2.2720 -2.4872
  310MOL0     H41823   6.435   8.339   6.070  5.9046  1.5253 -1.7254
  310MOL0     H41824   6.390   8.634   6.062  2.1723 -0.0832  3.4242
  310MOL0     H41825   6.399   8.526   6.200 -1.7382  1.0524  0.1121
  310MOL0     H41826   6.160   8.631   6.154 -1.2941 -1.6114  1.9514
  310MOL0     H41827   6.148   8.547   6.005 -0.3606 -0.0565  0.0077
  310MOL0     H41828   6.177   8.395   6.278  0.7131 -2.2488  0.2475
  310MOL0     H41829   6.174   8.325   6.120 -0.1267 -0.2440 -0.8279
  310MOL0     H41830   5.947   8.532   6.186 -2.4781  0.1249 -1.3765
  310MOL0     H41831   5.949   8.370   6.265  2.6887  1.5286  1.4213
  310MOL0     H41832   6.738   8.678   5.528  0.2241 -0.0043 -0.4732
  310MOL0     H41833   6.951   8.775   5.443  3.3261  0.4600  1.3798
  310MOL0     H41834   7.293   9.052   5.445  3.0082  3.0093  2.9936
  310MOL0     H41835   7.509   9.145   5.375 -1.2177 -0.7506 -1.2671
  310MOL0     H41836   8.511   9.953   4.373 -1.4797 -1.0083  1.6975
  310MOL0     H41837   8.642  10.156   4.378  0.5292 -2.9405  2.1845
  310MOL0     H41838   8.582  10.605   4.272  1.6145 -2.1801  0.1132
  310MOL0     H41839   8.631  10.820   4.222 -0.1541 -1.0964 -0.6779
  310MOL0     H41840   8.814  10.973   4.197 -1.7849 -0.1160 -1.4335
  310MOL0     H41841   8.664  11.060   4.212 -1.0264  2.1108  2.3815
  310MOL0     H41842   8.788  11.256   4.276  0.1783 -0.8018 -0.5419
  310MOL0     H41843   8.860  11.192   4.124  1.9262 -0.3498  0.1783
  310MOL0     H41844   8.981  11.121   4.392  0.0133  1.3679  0.8481
  310MOL0     H41845   9.020  11.279   4.317  0.8889 -0.3257 -0.0479
  310MOL0     H41846   9.144  11.174   4.136  0.2379  0.8476  1.0969
  310MOL0     H41847   9.036  11.030   4.136  2.1801  0.2394 -1.7128
  310MOL0     H41848   9.364  10.937   4.373  0.0255  1.0473 -0.6343
  310MOL0     H41849   8.831  10.875   4.596  1.1664 -0.8244  0.1410
  310MOL0     H41850   8.778  10.642   4.660  1.4599  0.6057 -0.3209
  311MOL0     O41851   4.512   2.027   7.158  0.1130  0.7960  0.0554
  311MOL0     C41852   4.451   1.944   7.220  0.0577  0.1417  0.4324
  311MOL0     O41853   4.314   1.929   7.227 -0.6849 -0.1263  0.7289
  311MOL0     C41854   4.226   2.024   7.186  0.5357  0.9488 -0.8161
  311MOL0     C41855   4.103   1.961   7.153  0.3364  0.7343  0.1439
  311MOL0     C41856   3.990   2.050   7.128 -0.1793  0.4938 -0.8415
  311MOL0     C41857   3.995   2.184   7.099  0.3181  0.6827 -0.4089
  311MOL0     O41858   3.894   2.266   7.062  0.6002  0.8867  0.0370
  311MOL0     C41859   3.843   2.362   7.156 -0.1350  0.2484 -0.3087
  311MOL0     C41860   3.715   2.298   7.192 -1.1448  0.0900  0.0347
  311MOL0     C41861   3.673   2.324   7.338 -0.7413 -0.4453 -0.0153
  311MOL0     C41862   3.524   2.300   7.342  0.3661  0.2346 -0.6737
  311MOL0     C41863   3.462   2.353   7.473  0.7115 -0.5872 -0.1134
  311MOL0     C41864   3.309   2.332   7.470 -0.3028 -0.5270  0.4810
  311MOL0     C41865   3.240   2.376   7.600  1.0202  0.1804 -0.5962
  311MOL0     C41866   3.082   2.377   7.604  0.5961 -0.6019 -0.0331
  311MOL0     N41867   3.029   2.430   7.718 -0.0472 -0.7074  0.0446
  311MOL0     C41868   3.095   2.476   7.824  0.4354 -0.9036 -0.4647
  311MOL0     C41869   2.998   2.534   7.906 -0.2482 -0.0125 -0.0442
  311MOL0     C41870   3.016   2.598   8.041 -0.6294  0.5745 -0.0637
  311MOL0     C41871   2.883   2.633   8.110  0.2490 -0.3428  0.2917
  311MOL0     C41872   2.914   2.686   8.254 -0.3146 -1.7348 -0.3713
  311MOL0     C41873   2.785   2.728   8.329  0.5241  0.5663  0.0515
  311MOL0     O41874   2.689   2.625   8.352  0.4644 -0.1645  0.2918
  311MOL0     C41875   2.568   2.636   8.429 -0.6984 -0.2505 -0.0633
  311MOL0     C41876   2.511   2.513   8.449 -0.0652  0.3616 -0.2207
  311MOL0     C41877   2.411   2.487   8.538  0.6644 -0.3875 -0.7360
  311MOL0     C41878   2.384   2.339   8.559  0.6624 -0.7806 -0.1169
  311MOL0     C41879   2.353   2.595   8.607  0.1013 -0.3562 -0.9328
  311MOL0     C41880   2.236   2.589   8.695  0.0863 -0.0428  0.4953
  311MOL0     O41881   2.216   2.476   8.776  0.0681 -0.2035  0.1215
  311MOL0     C41882   2.109   2.471   8.850 -0.3609  0.7961  0.0662
  311MOL0     C41883   1.985   2.464   8.794  0.2771  0.4539 -0.7886
  311MOL0     C41884   1.870   2.467   8.883 -0.4531  0.3075  0.4275
  311MOL0     C41885   1.886   2.458   9.023  0.4578  0.8964  0.0872
  311MOL0     O41886   1.768   2.442   9.098  0.3109  1.0740 -0.2327
  311MOL0     C41887   1.769   2.413   9.244 -0.0288 -0.1683 -0.3665
  311MOL0     C41888   1.624   2.389   9.292  0.4781  0.0985  0.3960
  311MOL0     C41889   1.617   2.330   9.427  0.0698 -0.2162  0.1528
  311MOL0     C41890   1.498   2.238   9.431  0.5136 -0.8987  0.7014
  311MOL0     C41891   1.504   2.141   9.551 -0.3176 -0.3585  0.1587
  311MOL0     C41892   1.379   2.052   9.562 -0.0311  0.5522  0.4100
  311MOL0     C41893   1.380   1.956   9.674  0.0351 -0.2004  0.1283
  311MOL0     C41894   1.282   1.842   9.658  0.9501 -0.4143 -0.0233
  311MOL0    Cl41895   1.123   1.916   9.641 -0.1036 -0.1196 -0.2672
  311MOL0     C41896   2.015   2.472   9.081  0.4425 -0.7032 -0.4544
  311MOL0     C41897   2.126   2.483   8.989 -0.0614 -0.1019  0.3374
  311MOL0     O41898   2.167   2.690   8.689 -0.1363 -0.3842  0.2847
  311MOL0     C41899   2.407   2.732   8.579 -0.2190  0.1418  0.3421
  311MOL0     C41900   2.510   2.749   8.487  0.4407  0.5637  0.3264
  311MOL0     N41901   2.879   2.519   7.845 -0.2785  0.1149 -0.4531
  311MOL0     N41902   2.896   2.458   7.733  0.1991  0.2140  0.9549
  311MOL0     C41903   4.122   2.236   7.128  0.4518  0.6405  0.3164
  311MOL0     C41904   4.231   2.161   7.171 -0.0321 -0.5685 -0.0429
  311MOL0     C41905   4.528   1.851   7.297 -0.2685 -0.3224 -0.7092
  311MOL0     C41906   4.658   1.814   7.255 -0.1876  1.2590  0.3822
  311MOL0     C41907   4.734   1.730   7.339 -0.3296  0.5717  0.5326
  311MOL0     C41908   4.686   1.683   7.461 -0.8222 -0.2056  0.3304
  311MOL0     O41909   4.749   1.606   7.552 -0.2902  0.5289 -0.4777
  311MOL0     C41910   4.893   1.575   7.544 -0.0666 -0.9604  0.0217
  311MOL0     C41911   4.940   1.512   7.674  1.2225 -0.9091 -0.6977
  311MOL0     C41912   4.883   1.375   7.700  0.1525  0.6706 -0.0790
  311MOL0     C41913   4.904   1.272   7.593 -0.0976  0.3584  0.4706
  311MOL0     C41914   5.058   1.262   7.568  0.8307  0.1207  0.4647
  311MOL0     C41915   5.180   1.263   7.549  0.1834  0.4534 -0.6735
  311MOL0     C41916   4.548   1.695   7.484 -0.6565 -0.2453 -0.5025
  311MOL0     C41917   4.474   1.784   7.407 -0.0181 -0.3277  0.1003
  311MOL0     H41918   4.079   1.857   7.170 -1.4342  1.0153 -0.4852
  311MOL0     H41919   3.900   1.992   7.150  1.3510 -1.0524  1.9995
  311MOL0     H41920   3.908   2.386   7.242 -0.8392 -3.5128  1.4694
  311MOL0     H41921   3.830   2.451   7.094  2.0657  0.2645 -0.8299
  311MOL0     H41922   3.639   2.323   7.117 -2.3433  0.3981  1.3069
  311MOL0     H41923   3.721   2.190   7.184 -0.6197 -0.0697  2.0850
  311MOL0     H41924   3.735   2.268   7.409  2.8287  2.1308 -0.7856
  311MOL0     H41925   3.695   2.430   7.354  0.9974 -0.5867 -1.1758
  311MOL0     H41926   3.475   2.345   7.256  0.4780  1.1363 -0.2722
  311MOL0     H41927   3.494   2.195   7.347 -1.1035  0.6350 -0.7100
  311MOL0     H41928   3.504   2.302   7.561 -0.7205 -1.1771  0.2519
  311MOL0     H41929   3.495   2.457   7.464  4.1794 -1.4563  1.0407
  311MOL0     H41930   3.266   2.394   7.391  0.7889 -0.2573  0.0858
  311MOL0     H41931   3.287   2.226   7.452  0.1261 -0.8952  1.9922
  311MOL0     H41932   3.278   2.315   7.683 -2.2515 -1.2497 -0.0032
  311MOL0     H41933   3.281   2.474   7.627  1.7167  0.0590 -1.1702
  311MOL0     H41934   3.051   2.273   7.587 -4.0005  0.2959  1.5539
  311MOL0     H41935   3.045   2.438   7.521 -0.3670  1.2507  1.6763
  311MOL0     H41936   3.201   2.486   7.843  0.5247 -0.6486 -1.0844
  311MOL0     H41937   3.074   2.539   8.111  0.9708  0.6819 -1.2474
  311MOL0     H41938   3.064   2.696   8.031 -1.2672  0.9491  0.4753
  311MOL0     H41939   2.815   2.549   8.126 -1.5169  0.4388 -2.2694
  311MOL0     H41940   2.837   2.703   8.038 -2.6940 -1.7877  0.6165
  311MOL0     H41941   2.982   2.771   8.242 -0.5720 -1.5436 -0.4815
  311MOL0     H41942   2.987   2.622   8.305 -0.0099 -3.3705 -2.6716
  311MOL0     H41943   2.736   2.810   8.276 -1.1171  1.1963  2.3471
  311MOL0     H41944   2.804   2.762   8.432  0.1629  2.9376 -0.6169
  311MOL0     H41945   2.565   2.423   8.423 -2.4573 -1.8867  2.0616
  311MOL0     H41946   2.429   2.278   8.480  2.2738 -0.3741  0.4338
  311MOL0     H41947   2.410   2.313   8.662  2.2628  2.0565  0.3024
  311MOL0     H41948   2.275   2.334   8.552  0.4890  1.7664  0.0612
  311MOL0     H41949   1.979   2.457   8.685 -1.3274  0.0799 -0.7019
  311MOL0     H41950   1.771   2.440   8.845 -0.1493  0.3645 -0.4292
  311MOL0     H41951   1.819   2.317   9.261 -2.7061 -1.6319 -0.2664
  311MOL0     H41952   1.819   2.492   9.302 -1.1266  1.9565 -2.1747
  311MOL0     H41953   1.575   2.486   9.299  0.6803  0.1984  0.4318
  311MOL0     H41954   1.577   2.325   9.217  2.6243 -0.2521 -0.7342
  311MOL0     H41955   1.612   2.404   9.507 -0.9012 -0.3786  0.2552
  311MOL0     H41956   1.708   2.274   9.451  0.1554  0.3544  1.2658
  311MOL0     H41957   1.405   2.295   9.427 -0.3811 -1.9460  3.6699
  311MOL0     H41958   1.492   2.175   9.342 -0.0747 -1.1571  0.9187
  311MOL0     H41959   1.519   2.207   9.637  2.3099  0.2159 -0.6545
  311MOL0     H41960   1.596   2.084   9.539  0.7217  0.8013  2.1626
  311MOL0     H41961   1.294   2.120   9.575  0.3017  0.9055  0.7689
  311MOL0     H41962   1.386   2.002   9.465  1.8406  1.1889  0.1798
  311MOL0     H41963   1.365   2.010   9.768  1.7971 -0.2160  0.4504
  311MOL0     H41964   1.478   1.909   9.690  0.2131  0.1077 -0.0402
  311MOL0     H41965   1.282   1.772   9.742 -2.1943  0.5778  0.9310
  311MOL0     H41966   1.310   1.782   9.571 -0.2297 -0.7343 -0.1893
  311MOL0     H41967   2.028   2.465   9.189 -3.4324 -1.3334  0.1381
  311MOL0     H41968   2.226   2.482   9.032  1.0695 -0.0640 -2.1283
  311MOL0     H41969   2.365   2.819   8.630 -1.3089  0.5962 -1.2507
  311MOL0     H41970   2.560   2.843   8.468  2.3639 -0.5849 -0.6575
  311MOL0     H41971   4.119   2.344   7.118 -1.8213  0.6489  0.5125
  311MOL0     H41972   4.318   2.222   7.194 -0.6079 -1.0019  4.1977
  311MOL0     H41973   4.703   1.859   7.167  1.6824 -3.6377 -1.5327
  311MOL0     H41974   4.836   1.711   7.306 -0.1766 -2.0754  2.1970
  311MOL0     H41975   4.900   1.517   7.452  3.2514 -1.1960  0.3011
  311MOL0     H41976   4.951   1.664   7.518 -1.1496 -0.0790  0.5201
  311MOL0     H41977   4.908   1.576   7.756 -1.6052 -0.5942 -1.9145
  311MOL0     H41978   5.048   1.529   7.683  0.8138  1.4571  0.3776
  311MOL0     H41979   4.775   1.395   7.698  0.2243  1.2585  1.0347
  311MOL0     H41980   4.902   1.341   7.802  0.7870  2.5404  0.4726
  311MOL0     H41981   4.848   1.302   7.504 -0.6924  0.6130  0.9274
  311MOL0     H41982   4.869   1.174   7.629  2.9185 -0.2193  2.1537
  311MOL0     H41983   5.283   1.253   7.522  0.7837 -1.8718  1.9996
  311MOL0     H41984   4.496   1.653   7.570 -1.8816  1.7918 -0.1772
  311MOL0     H41985   4.368   1.798   7.428 -0.2941  0.8060 -1.7981
  312MOL0     O41986   4.136   0.324   9.167 -0.5092  0.2439 -0.1353
  312MOL0     C41987   4.016   0.325   9.137 -0.1689  0.6202 -0.0447
  312MOL0     O41988   3.943   0.210   9.113  0.5812 -0.9720  0.2216
  312MOL0     C41989   4.007   0.091   9.122  0.8550 -0.8446 -0.2098
  312MOL0     C41990   4.083   0.039   9.015 -0.2195  0.3909 -0.4696
  312MOL0     C41991   4.137  -0.092   9.039 -0.3634 -0.0981 -0.4192
  312MOL0     C41992   4.117  -0.173   9.147  0.6254  0.7598 -0.1391
  312MOL0     O41993   4.169  -0.303   9.150 -0.5461 -0.4153  0.4116
  312MOL0     C41994   4.113  -0.402   9.234 -0.7771  0.5639  0.2961
  312MOL0     C41995   4.211  -0.520   9.239 -0.6177  0.7416 -0.9137
  312MOL0     C41996   4.346  -0.480   9.304  0.1393 -0.1851  0.0489
  312MOL0     C41997   4.422  -0.605   9.350  0.2567  0.0221  0.8116
  312MOL0     C41998   4.548  -0.575   9.432  0.1066 -0.2945  0.0275
  312MOL0     C41999   4.631  -0.459   9.379 -0.2778 -0.2023 -0.8007
  312MOL0     C42000   4.760  -0.446   9.465 -0.4773 -0.1398  0.6345
  312MOL0     C42001   4.840  -0.574   9.447 -0.9846  0.6119  0.2163
  312MOL0     N42002   4.982  -0.551   9.467 -0.1139  0.1437  0.5920
  312MOL0     C42003   5.065  -0.501   9.369  0.0156 -0.3277  0.4720
  312MOL0     C42004   5.190  -0.495   9.422  0.2580  1.0034 -0.9853
  312MOL0     C42005   5.320  -0.461   9.345  0.1723  0.6003 -0.3427
  312MOL0     C42006   5.436  -0.438   9.437 -0.2656  0.3469  0.0669
  312MOL0     C42007   5.572  -0.467   9.367  0.2076  0.2522 -0.4647
  312MOL0     C42008   5.687  -0.429   9.463 -0.1704 -0.0372  0.0363
  312MOL0     O42009   5.811  -0.487   9.411 -0.1587  0.4153  0.4659
  312MOL0     C42010   5.928  -0.435   9.460 -0.2999  0.3353 -0.0694
  312MOL0     C42011   6.050  -0.478   9.396  1.1723  0.3035  0.8341
  312MOL0     C42012   6.177  -0.441   9.447  0.6908  0.1380  0.7403
  312MOL0     C42013   6.290  -0.492   9.359  0.1914  0.5562 -0.3347
  312MOL0     C42014   6.175  -0.333   9.536 -1.3948  0.1759  0.4427
  312MOL0     C42015   6.296  -0.275   9.578 -0.3427  0.1137  0.1093
  312MOL0     O42016   6.291  -0.217   9.701 -0.1915  0.6603  0.1898
  312MOL0     C42017   6.404  -0.179   9.771 -0.6183  0.4185 -0.0098
  312MOL0     C42018   6.522  -0.112   9.727  0.2282 -0.4241 -0.0071
  312MOL0     C42019   6.606  -0.047   9.818 -0.6310  1.2668  0.2749
  312MOL0     C42020   6.588  -0.071   9.956  0.4193  0.4125  0.3433
  312MOL0     O42021   6.686  -0.034  10.050  0.7580 -0.5559  0.4460
  312MOL0     C42022   6.649  -0.035  10.194 -0.5959  0.2038 -0.4713
  312MOL0     C42023   6.736   0.055  10.272  0.0024 -0.3532  0.8148
  312MOL0     C42024   6.883   0.015  10.253 -1.2936  0.7458 -0.2336
  312MOL0     C42025   6.954   0.047  10.393  0.3606  0.0222  0.0318
  312MOL0     C42026   7.107   0.062  10.359 -0.8983 -0.0422  0.3516
  312MOL0     C42027   7.165   0.161  10.461 -0.0860 -1.2336 -0.0661
  312MOL0     C42028   7.318   0.173  10.442 -0.6072  0.3106  0.0890
  312MOL0     C42029   7.374   0.259  10.334 -0.3615 -0.6308  0.2333
  312MOL0    Cl42030   7.333   0.427  10.340 -0.1333 -0.0598 -0.3526
  312MOL0     C42031   6.481  -0.153   9.995  0.2280  0.0576  0.1906
  312MOL0     C42032   6.386  -0.200   9.911  0.2243 -0.4613 -0.3615
  312MOL0     O42033   6.405  -0.279   9.508  0.1396  0.3115 -0.2715
  312MOL0     C42034   6.060  -0.285   9.593  0.3338 -0.3288 -0.5787
  312MOL0     C42035   5.936  -0.332   9.555  0.1360 -0.5297 -0.0090
  312MOL0     N42036   5.177  -0.542   9.557  0.7459 -0.9568 -0.3341
  312MOL0     N42037   5.051  -0.572   9.584 -0.4610 -0.5121  0.3643
  312MOL0     C42038   4.032  -0.120   9.252  0.9149  0.4145  0.2745
  312MOL0     C42039   3.983   0.017   9.242 -0.0403  0.5106  0.2533
  312MOL0     C42040   3.944   0.452   9.158 -0.2515  0.7403 -0.0058
  312MOL0     C42041   4.018   0.570   9.204 -0.5974  0.8373  0.3998
  312MOL0     C42042   3.942   0.685   9.237 -0.2211  0.6656 -0.0617
  312MOL0     C42043   3.805   0.684   9.234 -0.8156  0.2891 -0.3644
  312MOL0     O42044   3.745   0.790   9.287  0.3730 -0.4714 -0.0669
  312MOL0     C42045   3.605   0.826   9.317 -0.4679  0.4754  0.6093
  312MOL0     C42046   3.611   0.915   9.443 -0.4303 -0.6170  0.2390
  312MOL0     C42047   3.648   0.845   9.572 -0.6169  0.5001  0.2188
  312MOL0     C42048   3.799   0.827   9.589  0.4023 -0.2932  0.7225
  312MOL0     C42049   3.876   0.950   9.575  0.3678  0.2455 -0.1389
  312MOL0     C42050   3.944   1.051   9.570 -0.2934  0.2260 -0.9362
  312MOL0     C42051   3.738   0.567   9.187  1.2211 -0.4583 -0.3036
  312MOL0     C42052   3.805   0.456   9.149  0.4636 -0.5372 -0.2761
  312MOL0     H42053   4.085   0.094   8.922 -0.8286 -0.3119 -0.9022
  312MOL0     H42054   4.193  -0.136   8.957 -1.5771 -1.8242 -0.3746
  312MOL0     H42055   4.096  -0.356   9.332 -2.3449 -0.1942  0.4136
  312MOL0     H42056   4.024  -0.449   9.190  0.4713 -2.8809  1.1439
  312MOL0     H42057   4.166  -0.603   9.294  1.9485 -0.6177 -0.6784
  312MOL0     H42058   4.243  -0.563   9.144  0.3960  0.3062 -0.4003
  312MOL0     H42059   4.404  -0.416   9.238 -2.3638  0.8754 -1.2616
  312MOL0     H42060   4.325  -0.428   9.398 -1.1363 -0.7057  0.0665
  312MOL0     H42061   4.354  -0.673   9.401 -0.8844 -0.2359 -0.9567
  312MOL0     H42062   4.447  -0.653   9.255  2.7811 -2.2649  2.4706
  312MOL0     H42063   4.520  -0.569   9.537 -0.2694 -1.6613  0.0272
  312MOL0     H42064   4.606  -0.668   9.433 -2.0418 -1.6988 -0.3010
  312MOL0     H42065   4.658  -0.476   9.275 -0.0519  2.3796 -1.2440
  312MOL0     H42066   4.576  -0.365   9.393 -2.1034 -1.6631  3.4401
  312MOL0     H42067   4.816  -0.356   9.437  0.3639 -0.4598  1.2268
  312MOL0     H42068   4.737  -0.435   9.571 -3.8834 -2.4066  0.3109
  312MOL0     H42069   4.838  -0.625   9.350  3.0055 -0.1850  0.3700
  312MOL0     H42070   4.810  -0.641   9.528  2.4652 -1.7561 -0.2635
  312MOL0     H42071   5.041  -0.461   9.271 -0.3092  0.1327  0.7314
  312MOL0     H42072   5.354  -0.545   9.284  0.1393 -0.9759  1.6947
  312MOL0     H42073   5.298  -0.382   9.272 -1.3645 -0.1023 -0.6840
  312MOL0     H42074   5.429  -0.508   9.520 -0.0907  1.6177  1.1797
  312MOL0     H42075   5.439  -0.336   9.478  3.8765 -0.7063  2.9877
  312MOL0     H42076   5.571  -0.397   9.283 -1.4307  1.7621  0.7203
  312MOL0     H42077   5.577  -0.571   9.334 -0.6775  0.5027 -1.4939
  312MOL0     H42078   5.672  -0.468   9.564  0.6168  0.4028  0.3380
  312MOL0     H42079   5.691  -0.319   9.470 -2.6979  0.2118 -1.3577
  312MOL0     H42080   6.044  -0.537   9.305  2.5024  0.2911  0.7315
  312MOL0     H42081   6.262  -0.575   9.293 -0.0999 -0.8519  1.5030
  312MOL0     H42082   6.333  -0.413   9.297  0.6478 -1.2013 -2.3890
  312MOL0     H42083   6.361  -0.535   9.430 -2.3983 -0.5692  1.7268
  312MOL0     H42084   6.534  -0.112   9.619 -2.8535 -0.1570 -0.4291
  312MOL0     H42085   6.692   0.013   9.792  0.0495  0.8563  1.5256
  312MOL0     H42086   6.543  -0.006  10.202 -0.5954 -0.1698  1.4664
  312MOL0     H42087   6.661  -0.135  10.239  3.4115  0.9274  0.4004
  312MOL0     H42088   6.703   0.156  10.246 -0.0336 -0.9629 -1.7372
  312MOL0     H42089   6.705   0.049  10.377  1.6774 -1.8102  1.2652
  312MOL0     H42090   6.920   0.070  10.165  0.6167  0.9297  0.6370
  312MOL0     H42091   6.896  -0.091  10.230  1.5574  0.6018  1.6110
  312MOL0     H42092   6.914   0.130  10.451 -0.6247  0.9573 -1.8846
  312MOL0     H42093   6.941  -0.040  10.458  1.7858 -1.9498 -2.1449
  312MOL0     H42094   7.128   0.101  10.259  0.3396 -1.9755 -0.1838
  312MOL0     H42095   7.158  -0.034  10.369 -1.3856 -0.8605 -3.5282
  312MOL0     H42096   7.129   0.264  10.452  0.9716 -1.0058 -2.4290
  312MOL0     H42097   7.150   0.116  10.559  0.6882 -0.7774  0.2734
  312MOL0     H42098   7.363   0.074  10.430  0.4692  0.8960 -1.0472
  312MOL0     H42099   7.357   0.214  10.535  0.6258 -1.1952  0.2666
  312MOL0     H42100   7.354   0.220  10.234  0.7349  2.3408 -1.2827
  312MOL0     H42101   7.483   0.258  10.348 -0.1211  3.9238  0.3199
  312MOL0     H42102   6.451  -0.190  10.093  0.2798 -0.0137  0.1800
  312MOL0     H42103   6.309  -0.268   9.946  2.2518 -1.5743  2.2827
  312MOL0     H42104   6.067  -0.199   9.660 -0.4190 -2.0264  1.8166
  312MOL0     H42105   5.845  -0.290   9.596  1.5507  0.8479  1.9159
  312MOL0     H42106   4.009  -0.173   9.344  0.3063  0.3416  0.0823
  312MOL0     H42107   3.914   0.052   9.318  0.8105 -3.8487  3.3945
  312MOL0     H42108   4.126   0.562   9.210 -0.5041 -1.0246 -2.2550
  312MOL0     H42109   3.985   0.773   9.283  1.3626  0.9067 -1.8754
  312MOL0     H42110   3.540   0.877   9.244  2.4519 -0.4851 -2.9861
  312MOL0     H42111   3.546   0.736   9.335 -1.4004  0.8775 -0.2825
  312MOL0     H42112   3.512   0.957   9.463  0.1724 -0.5330  3.6554
  312MOL0     H42113   3.673   1.002   9.422 -1.1636 -0.2535 -0.5148
  312MOL0     H42114   3.606   0.744   9.572 -1.6906  0.8926 -1.4739
  312MOL0     H42115   3.613   0.903   9.658  0.7391  2.1699 -0.2987
  312MOL0     H42116   3.837   0.747   9.525 -0.4684 -1.2800  1.4112
  312MOL0     H42117   3.830   0.791   9.688  1.6405 -0.3328  0.3436
  312MOL0     H42118   3.993   1.146   9.560  0.5424  0.4289  3.3324
  312MOL0     H42119   3.630   0.560   9.191  0.5908  4.2017 -2.9319
  312MOL0     H42120   3.757   0.370   9.103 -1.6439  1.5402 -2.2084
  313MOL0     O42121   3.472   4.146   9.661  0.3601 -0.2957 -0.4339
  313MOL0     C42122   3.507   4.066   9.578 -0.8259  0.7868 -0.5032
  313MOL0     O42123   3.426   4.012   9.480 -0.8358 -0.5071 -0.0594
  313MOL0     C42124   3.296   4.032   9.482  0.0820 -0.5058  0.4723
  313MOL0     C42125   3.230   4.055   9.358 -0.4647  0.2945 -0.4759
  313MOL0     C42126   3.095   4.075   9.359  0.5920 -0.7274  0.4577
  313MOL0     C42127   3.014   4.082   9.474 -0.2842 -0.4572 -0.7652
  313MOL0     O42128   2.877   4.114   9.470  0.8756 -0.1714 -1.2194
  313MOL0     C42129   2.803   4.125   9.351 -0.0550  0.5017  0.1420
  313MOL0     C42130   2.656   4.071   9.376  0.0161 -0.1034 -0.2559
  313MOL0     C42131   2.576   4.185   9.433  0.6230  0.5610 -0.4943
  313MOL0     C42132   2.500   4.260   9.325  0.2579  0.0070 -0.2115
  313MOL0     C42133   2.426   4.375   9.380  0.1546 -0.0547 -0.3270
  313MOL0     C42134   2.279   4.354   9.434 -0.4316 -0.3519 -0.6053
  313MOL0     C42135   2.161   4.335   9.326 -0.2467 -0.4128  0.3423
  313MOL0     C42136   2.030   4.325   9.393  0.4506 -0.0474  0.0134
  313MOL0     N42137   1.919   4.310   9.307  0.8486  0.4080  0.0422
  313MOL0     C42138   1.856   4.407   9.237  1.0819 -0.2801  0.4319
  313MOL0     C42139   1.769   4.349   9.157 -0.1106 -0.5486 -0.0612
  313MOL0     C42140   1.695   4.426   9.056 -0.4790  0.6593  0.3386
  313MOL0     C42141   1.551   4.417   9.102 -1.3300 -0.1405 -0.5486
  313MOL0     C42142   1.458   4.483   8.996  0.1702  0.6070 -0.3893
  313MOL0     C42143   1.465   4.636   8.990 -0.1078  0.4748 -0.2805
  313MOL0     O42144   1.414   4.698   9.107  0.9046  0.3713 -0.0308
  313MOL0     C42145   1.271   4.685   9.117 -0.0910 -0.7822  0.6527
  313MOL0     C42146   1.183   4.643   9.013 -0.7634  0.2722  0.1558
  313MOL0     C42147   1.045   4.645   9.036 -0.3152 -0.3760 -0.6896
  313MOL0     C42148   0.954   4.631   8.913 -0.2706 -0.0100 -0.1952
  313MOL0     C42149   0.984   4.689   9.155 -0.3513  0.2238 -0.3972
  313MOL0     C42150   0.834   4.698   9.186  0.5682  0.0295  0.7717
  313MOL0     O42151   0.750   4.619   9.114 -0.3603  0.7729  0.7620
  313MOL0     C42152   0.614   4.645   9.097 -0.3194  0.6185 -0.2568
  313MOL0     C42153   0.559   4.638   8.964  0.0902 -0.1854 -0.3190
  313MOL0     C42154   0.417   4.658   8.933 -0.2153  0.2865 -0.4839
  313MOL0     C42155   0.339   4.699   9.041  0.7016 -0.4924 -0.0244
  313MOL0     O42156   0.211   4.720   8.996 -0.1856 -0.5044 -1.4956
  313MOL0     C42157   0.107   4.715   9.105  0.2190 -0.6940  0.5867
  313MOL0     C42158  -0.033   4.724   9.048  0.6733  0.2845  0.7617
  313MOL0     C42159  -0.137   4.680   9.158 -0.2095  0.4615  0.0588
  313MOL0     C42160  -0.273   4.688   9.091 -0.3251 -0.1487 -0.0986
  313MOL0     C42161  -0.388   4.657   9.183 -1.0836  0.4343  0.0038
  313MOL0     C42162  -0.520   4.699   9.114  0.4153  0.0295  0.4143
  313MOL0     C42163  -0.638   4.618   9.189 -0.2311 -0.6013  0.1864
  313MOL0     C42164  -0.674   4.685   9.316  0.5058 -0.3189  0.2932
  313MOL0    Cl42165  -0.714   4.851   9.286  0.1800 -0.1130 -0.3715
  313MOL0     C42166   0.390   4.710   9.171  0.1695  0.0557 -0.1971
  313MOL0     C42167   0.528   4.681   9.203  0.1705 -0.9372 -0.6926
  313MOL0     O42168   0.797   4.768   9.281 -0.7004  0.3101  0.0963
  313MOL0     C42169   1.073   4.745   9.251 -0.2108 -0.0027  0.0163
  313MOL0     C42170   1.212   4.747   9.238 -0.2523  0.5828  0.8535
  313MOL0     N42171   1.780   4.212   9.172  0.2139  0.2264  0.3391
  313MOL0     N42172   1.874   4.187   9.259 -0.7202  0.2914 -0.5565
  313MOL0     C42173   3.079   4.061   9.598 -0.2423  0.1172 -0.0575
  313MOL0     C42174   3.214   4.036   9.599  0.4891 -0.8548 -0.3449
  313MOL0     C42175   3.649   4.032   9.584 -0.1801  0.3374 -0.1386
  313MOL0     C42176   3.739   4.117   9.655  0.2591 -0.1820  0.3377
  313MOL0     C42177   3.882   4.100   9.650 -0.7415 -0.3195 -0.0383
  313MOL0     C42178   3.937   4.003   9.567 -0.0605 -0.0792  0.0023
  313MOL0     O42179   4.065   3.966   9.551 -0.6315  0.3136  0.0245
  313MOL0     C42180   4.171   4.052   9.564  0.0572 -0.0513 -0.3015
  313MOL0     C42181   4.204   4.107   9.425 -0.6476  0.4147 -0.0827
  313MOL0     C42182   4.106   4.210   9.366 -0.2277 -0.4583  0.0996
  313MOL0     C42183   4.141   4.239   9.215  0.1958  0.4402  0.1118
  313MOL0     C42184   4.274   4.280   9.188 -1.1091 -0.4980  0.6488
  313MOL0     C42185   4.375   4.331   9.135 -0.6263 -0.9662 -0.1049
  313MOL0     C42186   3.847   3.921   9.505 -0.5709  0.0531  0.6393
  313MOL0     C42187   3.708   3.931   9.515  0.2537  0.7858 -0.3489
  313MOL0     H42188   3.284   4.040   9.265  0.7552  2.2472 -0.1390
  313MOL0     H42189   3.046   4.079   9.263 -0.6846 -1.3494  1.0622
  313MOL0     H42190   2.793   4.227   9.314  1.9435  0.5337 -0.4076
  313MOL0     H42191   2.849   4.068   9.270 -1.6576 -1.4063  0.4892
  313MOL0     H42192   2.610   4.040   9.282 -3.7757  1.9529  0.7216
  313MOL0     H42193   2.654   3.979   9.436  0.0391 -2.7604 -3.9619
  313MOL0     H42194   2.495   4.138   9.490  0.0888 -0.2559 -1.8990
  313MOL0     H42195   2.632   4.252   9.500 -1.8114  0.5035  1.7516
  313MOL0     H42196   2.566   4.309   9.253  1.4565  0.3573  1.0718
  313MOL0     H42197   2.431   4.191   9.277 -1.9340  2.2310 -0.4708
  313MOL0     H42198   2.491   4.417   9.458 -1.7547 -0.3148  1.4981
  313MOL0     H42199   2.428   4.452   9.302  1.7696  0.2407 -0.0237
  313MOL0     H42200   2.275   4.281   9.516  0.1133  0.9106  0.5875
  313MOL0     H42201   2.243   4.442   9.489 -1.9219 -0.8373 -0.7356
  313MOL0     H42202   2.166   4.430   9.273 -0.7852  0.4397  1.7617
  313MOL0     H42203   2.188   4.250   9.262  2.1092  0.3903  0.1670
  313MOL0     H42204   2.018   4.405   9.466  1.3601 -0.3344  0.5028
  313MOL0     H42205   2.028   4.238   9.461  3.1065 -0.6832 -0.5997
  313MOL0     H42206   1.869   4.513   9.255 -1.0818  0.1373 -0.2194
  313MOL0     H42207   1.740   4.524   9.038 -0.6655  0.9408  1.3514
  313MOL0     H42208   1.705   4.373   8.960 -0.8499  0.5692  0.3451
  313MOL0     H42209   1.532   4.461   9.200 -1.1674  0.0391 -0.5978
  313MOL0     H42210   1.524   4.312   9.112 -0.4857 -0.6415 -2.8269
  313MOL0     H42211   1.358   4.443   9.018  0.5802 -1.5961 -2.1602
  313MOL0     H42212   1.488   4.446   8.897 -1.5395  0.5340 -0.9126
  313MOL0     H42213   1.415   4.654   8.894 -0.6059 -0.9087 -0.3061
  313MOL0     H42214   1.566   4.675   8.978 -0.7454  1.9736 -1.0027
  313MOL0     H42215   1.224   4.607   8.919  1.5463  0.4513  1.0136
  313MOL0     H42216   1.000   4.644   8.815 -1.4264  1.1806 -0.6053
  313MOL0     H42217   0.906   4.534   8.905 -1.4556  0.6477 -1.4663
  313MOL0     H42218   0.876   4.708   8.918  1.5541  1.8734  1.4287
  313MOL0     H42219   0.630   4.609   8.887  1.3285  0.5663  0.4997
  313MOL0     H42220   0.370   4.620   8.842 -1.7982  2.0204 -0.4615
  313MOL0     H42221   0.101   4.620   9.158 -1.2292 -1.9909 -1.7069
  313MOL0     H42222   0.115   4.795   9.179  1.6027  0.1893 -0.4759
  313MOL0     H42223  -0.052   4.822   9.004  3.3346  2.2080  3.4609
  313MOL0     H42224  -0.041   4.651   8.967 -1.7542 -0.0925  1.2760
  313MOL0     H42225  -0.133   4.750   9.242  3.5285 -0.3992  0.7607
  313MOL0     H42226  -0.120   4.575   9.184 -2.4078 -0.4238 -1.7691
  313MOL0     H42227  -0.288   4.788   9.047  3.2102  1.3788  1.7667
  313MOL0     H42228  -0.262   4.610   9.015  0.6241 -2.8613  2.6573
  313MOL0     H42229  -0.373   4.718   9.272  1.7722  0.0100 -0.0722
  313MOL0     H42230  -0.394   4.554   9.219 -1.6652  0.6081  0.4218
  313MOL0     H42231  -0.537   4.805   9.134 -2.5813 -0.3996  0.6696
  313MOL0     H42232  -0.529   4.685   9.006  0.9352  2.7319 -0.0333
  313MOL0     H42233  -0.608   4.513   9.203  2.4584 -0.0888 -1.0458
  313MOL0     H42234  -0.726   4.621   9.125 -1.5990  1.0054  2.0293
  313MOL0     H42235  -0.588   4.672   9.382  1.4811  0.4768 -0.7887
  313MOL0     H42236  -0.763   4.648   9.368  1.0589 -1.4386  0.4762
  313MOL0     H42237   0.323   4.736   9.252  0.5484 -2.0796  0.8543
  313MOL0     H42238   0.559   4.685   9.307 -0.8277 -1.0676 -0.3853
  313MOL0     H42239   1.021   4.793   9.333 -3.2938 -0.7381 -1.3374
  313MOL0     H42240   1.282   4.780   9.314 -0.0039  2.2922 -0.0582
  313MOL0     H42241   3.021   4.068   9.689  1.8060 -1.8362  1.5052
  313MOL0     H42242   3.265   4.018   9.693 -0.3352 -1.1310  0.0587
  313MOL0     H42243   3.694   4.195   9.715 -0.6571 -0.5141  0.0942
  313MOL0     H42244   3.947   4.171   9.701 -0.5694  0.0616 -0.7824
  313MOL0     H42245   4.141   4.129   9.636 -1.5398 -0.5599 -0.3792
  313MOL0     H42246   4.263   4.013   9.609  0.0642  1.9030  1.5612
  313MOL0     H42247   4.212   4.021   9.357  2.0307  2.9047 -3.2322
  313MOL0     H42248   4.304   4.150   9.437 -0.2231 -1.1552  2.8688
  313MOL0     H42249   4.091   4.315   9.395 -2.0085 -0.0878 -1.8721
  313MOL0     H42250   4.007   4.164   9.369 -1.1352  1.1843 -1.9348
  313MOL0     H42251   4.071   4.308   9.167  1.2398  1.2541 -0.2866
  313MOL0     H42252   4.133   4.150   9.151  2.4266 -1.0352  1.7571
  313MOL0     H42253   4.466   4.377   9.101 -1.8942  0.2096 -2.1197
  313MOL0     H42254   3.885   3.837   9.447 -2.6545 -1.1257  0.8950
  313MOL0     H42255   3.653   3.869   9.445  1.7051  1.8248 -2.5264
  314MOL0     O42256   4.328   9.947   4.107 -0.2062 -0.4050 -0.6925
  314MOL0     C42257   4.243   9.855   4.088 -1.2807 -1.1900  0.5958
  314MOL0     O42258   4.265   9.732   4.057  0.1606  0.4927  0.6469
  314MOL0     C42259   4.399   9.688   4.072  0.4817  0.6364  0.6425
  314MOL0     C42260   4.447   9.611   3.963  0.4744 -1.2206  0.5192
  314MOL0     C42261   4.575   9.556   3.976  0.0682 -1.1287  0.2130
  314MOL0     C42262   4.650   9.562   4.095 -0.8434  0.2795 -0.1001
  314MOL0     O42263   4.762   9.483   4.110 -0.2210 -0.2846  0.1435
  314MOL0     C42264   4.865   9.506   4.013 -0.7839 -0.3298  0.0691
  314MOL0     C42265   4.995   9.563   4.080  0.9114 -0.5516 -0.0582
  314MOL0     C42266   5.125   9.528   4.021 -0.4517 -0.5809  0.6755
  314MOL0     C42267   5.154   9.383   4.012  0.3756  0.4817  1.1163
  314MOL0     C42268   5.282   9.357   3.928  0.4883  0.4701  0.4968
  314MOL0     C42269   5.400   9.439   3.988 -0.0163  0.0484 -0.1306
  314MOL0     C42270   5.537   9.423   3.924 -0.1366  0.2162 -0.2129
  314MOL0     C42271   5.632   9.524   3.995 -0.2467  0.3408 -0.1175
  314MOL0     N42272   5.773   9.477   4.001 -0.5868  0.4497 -0.6860
  314MOL0     C42273   5.841   9.470   3.884  0.0596  0.2641  0.0367
  314MOL0     C42274   5.960   9.423   3.919 -1.1608 -0.1065  0.0353
  314MOL0     C42275   6.087   9.418   3.837 -0.2488  0.2940 -0.3048
  314MOL0     C42276   6.087   9.310   3.724  0.2277 -0.8238  0.1464
  314MOL0     C42277   6.107   9.172   3.773  0.4249  0.0287  0.0204
  314MOL0     C42278   6.113   9.056   3.674 -0.4452  0.1657  0.4192
  314MOL0     O42279   6.028   9.101   3.568  0.0707  1.0076 -0.3417
  314MOL0     C42280   6.011   9.010   3.463 -0.8866  0.1509 -0.0114
  314MOL0     C42281   6.049   8.872   3.463 -0.5583  0.2698 -0.0935
  314MOL0     C42282   6.014   8.783   3.356  0.1811  0.0093  0.2549
  314MOL0     C42283   6.034   8.635   3.387 -0.4243  0.4082  0.6215
  314MOL0     C42284   5.938   8.840   3.241  0.7636 -0.5407 -0.1910
  314MOL0     C42285   5.901   8.756   3.119  0.0783  0.1331  1.0747
  314MOL0     O42286   5.947   8.628   3.111  0.2182  0.0161  0.2703
  314MOL0     C42287   5.866   8.546   3.036 -0.6640 -1.0178 -0.7753
  314MOL0     C42288   5.892   8.512   2.899  0.2427  0.4452  0.7212
  314MOL0     C42289   5.786   8.449   2.823 -0.3565  0.1361 -0.0685
  314MOL0     C42290   5.678   8.398   2.887 -0.6140  0.3898  0.6582
  314MOL0     O42291   5.612   8.312   2.806 -0.0596 -0.7105 -0.5106
  314MOL0     C42292   5.477   8.289   2.837 -0.4948  0.2861  0.0458
  314MOL0     C42293   5.414   8.189   2.743 -0.0922 -0.1358  0.4622
  314MOL0     C42294   5.265   8.152   2.786 -0.3292 -0.7184 -0.1478
  314MOL0     C42295   5.215   8.026   2.717 -0.3161 -0.0942 -0.5347
  314MOL0     C42296   5.128   8.053   2.590 -1.3465  0.1473 -1.0174
  314MOL0     C42297   4.994   8.117   2.612 -0.0765 -0.0162 -0.0907
  314MOL0     C42298   4.895   8.099   2.497  0.2636  0.6922  0.2325
  314MOL0     C42299   4.773   8.185   2.506 -0.2489  0.1582 -0.8885
  314MOL0    Cl42300   4.691   8.187   2.658  0.0090 -0.2503  0.1802
  314MOL0     C42301   5.662   8.419   3.030  0.6353 -0.2301 -0.7981
  314MOL0     C42302   5.753   8.499   3.103  0.3434  0.4649 -1.0481
  314MOL0     O42303   5.838   8.819   3.030  0.4883 -0.0509 -0.0925
  314MOL0     C42304   5.910   8.977   3.244 -0.3666  0.7620  0.3271
  314MOL0     C42305   5.944   9.056   3.354  0.2552  0.2860 -0.7079
  314MOL0     N42306   5.967   9.400   4.054 -0.1019 -0.6227  0.4654
  314MOL0     N42307   5.855   9.431   4.107 -0.2564  0.2328  0.0543
  314MOL0     C42308   4.600   9.628   4.202 -0.7680  0.1142 -0.0296
  314MOL0     C42309   4.474   9.694   4.193 -0.8253  0.6408 -1.0171
  314MOL0     C42310   4.098   9.887   4.122  0.2642 -0.6895  0.8067
  314MOL0     C42311   4.072  10.022   4.127  0.0185 -0.6221 -1.0610
  314MOL0     C42312   3.942  10.062   4.172  0.2169 -1.2662  0.0102
  314MOL0     C42313   3.840   9.962   4.192  0.5614 -0.2470 -0.0054
  314MOL0     O42314   3.713  10.018   4.211  0.1143  0.1930 -0.4694
  314MOL0     C42315   3.609   9.930   4.241  0.2130 -0.1173 -0.5684
  314MOL0     C42316   3.489  10.016   4.272 -1.2983  0.3639  0.2814
  314MOL0     C42317   3.490  10.086   4.407  1.0116 -0.4241 -0.4663
  314MOL0     C42318   3.445  10.232   4.386  0.0431 -0.3121  1.2288
  314MOL0     C42319   3.306  10.237   4.347  0.1683 -0.0503  1.0815
  314MOL0     C42320   3.189  10.269   4.320  0.2916  0.7519  0.8104
  314MOL0     C42321   3.875   9.827   4.189  0.7982  0.0479  0.5164
  314MOL0     C42322   4.003   9.785   4.148  0.5595  0.1835 -0.3085
  314MOL0     H42323   4.390   9.619   3.871  1.8921  1.0989 -0.2662
  314MOL0     H42324   4.615   9.504   3.890  1.1765  0.7182 -0.4576
  314MOL0     H42325   4.892   9.412   3.964  0.3558 -0.8721  1.6760
  314MOL0     H42326   4.850   9.580   3.933  2.7720  2.2644  1.5357
  314MOL0     H42327   4.986   9.672   4.085 -2.8331 -0.5796 -2.6189
  314MOL0     H42328   4.995   9.534   4.185  0.3915 -0.3608 -0.0055
  314MOL0     H42329   5.135   9.594   3.934 -0.5264 -0.1832  0.9695
  314MOL0     H42330   5.195   9.569   4.094 -0.6838 -0.0986  0.6323
  314MOL0     H42331   5.176   9.335   4.108  2.8861 -0.1594  0.3153
  314MOL0     H42332   5.081   9.325   3.956  1.7110  1.5041 -1.8762
  314MOL0     H42333   5.302   9.249   3.937 -1.7114 -0.4317 -3.1362
  314MOL0     H42334   5.254   9.382   3.825  0.1466  1.3656  0.8042
  314MOL0     H42335   5.370   9.544   3.983 -1.9269 -0.1491  3.3646
  314MOL0     H42336   5.409   9.408   4.092 -0.5473  1.2242  0.2830
  314MOL0     H42337   5.572   9.324   3.952 -0.1983  0.1948 -0.2105
  314MOL0     H42338   5.526   9.441   3.816 -1.8317  1.8722  0.1838
  314MOL0     H42339   5.593   9.533   4.097 -1.8045 -2.4610 -0.3776
  314MOL0     H42340   5.631   9.614   3.933  0.9034 -0.6645 -1.6513
  314MOL0     H42341   5.807   9.519   3.794  1.5262  0.6839 -0.3228
  314MOL0     H42342   6.091   9.519   3.796 -3.5757  0.0829 -1.4207
  314MOL0     H42343   6.177   9.414   3.899  0.1764 -1.7745 -0.9437
  314MOL0     H42344   6.159   9.341   3.647 -0.4861 -1.3793 -0.7613
  314MOL0     H42345   5.994   9.312   3.666  1.0542 -2.1995 -1.3094
  314MOL0     H42346   6.016   9.146   3.828 -0.4448  2.6262 -0.0560
  314MOL0     H42347   6.188   9.156   3.845  0.2855  0.6904  0.3289
  314MOL0     H42348   6.078   8.963   3.720  1.3372 -0.6261  0.2702
  314MOL0     H42349   6.213   9.043   3.631 -0.4422  1.2441  0.0782
  314MOL0     H42350   6.110   8.831   3.543 -0.0829 -0.1723 -0.6717
  314MOL0     H42351   6.091   8.624   3.480  2.6394  1.7630 -0.9611
  314MOL0     H42352   5.938   8.584   3.379 -0.8031  0.9251  1.6840
  314MOL0     H42353   6.102   8.594   3.312  2.7658  1.5127  2.6880
  314MOL0     H42354   5.986   8.544   2.854 -0.8921  3.0143  0.0357
  314MOL0     H42355   5.809   8.419   2.721  0.6994  0.3764  0.0871
  314MOL0     H42356   5.464   8.258   2.941 -2.0949 -0.4234 -0.3370
  314MOL0     H42357   5.424   8.384   2.823 -0.5541  0.0138 -1.8075
  314MOL0     H42358   5.424   8.228   2.641  1.5427  0.2873  0.7510
  314MOL0     H42359   5.475   8.099   2.752  1.9507  1.1640  0.2512
  314MOL0     H42360   5.198   8.236   2.762  1.2519  0.5067 -0.4118
  314MOL0     H42361   5.268   8.146   2.895 -2.0751  1.7907  0.1385
  314MOL0     H42362   5.299   7.960   2.694  0.6091  0.5617  0.8386
  314MOL0     H42363   5.155   7.972   2.791  1.0047  0.7586  1.2488
  314MOL0     H42364   5.112   7.954   2.545  2.8725  0.2747 -3.3032
  314MOL0     H42365   5.177   8.109   2.510 -4.8532  1.3345 -2.5062
  314MOL0     H42366   4.945   8.081   2.703  1.2176  1.1184  1.1117
  314MOL0     H42367   5.016   8.223   2.628  3.1727 -0.7449  1.1463
  314MOL0     H42368   4.845   8.001   2.490 -0.8734  1.0092  2.7761
  314MOL0     H42369   4.944   8.122   2.402 -1.6585  2.5386 -0.3801
  314MOL0     H42370   4.703   8.160   2.425 -3.4620  3.1034  0.6873
  314MOL0     H42371   4.808   8.285   2.477  0.1781  0.5427  0.8589
  314MOL0     H42372   5.590   8.362   3.089  1.6951  1.1600  1.9969
  314MOL0     H42373   5.731   8.521   3.207 -1.4621 -0.4610 -1.1931
  314MOL0     H42374   5.853   9.022   3.164 -0.8173 -1.8643 -0.9603
  314MOL0     H42375   5.919   9.161   3.364 -0.2948  0.0317  0.9642
  314MOL0     H42376   4.650   9.639   4.297 -0.5803 -0.3709 -0.0694
  314MOL0     H42377   4.434   9.736   4.285  1.0743  0.8085 -0.2063
  314MOL0     H42378   4.138  10.106   4.107 -1.6495  1.8285  2.5136
  314MOL0     H42379   3.918  10.167   4.187  1.4532 -0.9709  0.0758
  314MOL0     H42380   3.587   9.873   4.151  0.1335  0.8094 -1.1452
  314MOL0     H42381   3.624   9.863   4.327 -0.1956 -1.1723 -1.2984
  314MOL0     H42382   3.403   9.949   4.280 -1.0811  0.2167  1.6599
  314MOL0     H42383   3.476  10.091   4.194 -0.4517  0.7162  0.4628
  314MOL0     H42384   3.590  10.081   4.452  1.2334  1.7384 -0.6403
  314MOL0     H42385   3.416  10.053   4.480 -0.3895  3.4658  0.0968
  314MOL0     H42386   3.502  10.289   4.312  1.8182 -0.7792  2.1650
  314MOL0     H42387   3.453  10.296   4.474 -1.2986  1.5015  0.0806
  314MOL0     H42388   3.084  10.290   4.314 -0.0694 -1.1924 -0.5061
  314MOL0     H42389   3.801   9.749   4.200  1.9910 -1.4869 -1.6373
  314MOL0     H42390   4.019   9.679   4.130 -1.4854  0.2509 -3.2383
  315MOL0     O42391   6.988   1.695   2.588  0.1699  0.4824  0.3726
  315MOL0     C42392   7.069   1.602   2.578  0.1870  0.2518  0.2726
  315MOL0     O42393   7.038   1.474   2.535  0.2955  0.4981  0.4688
  315MOL0     C42394   6.918   1.455   2.476  0.3550  0.4972  0.6016
  315MOL0     C42395   6.866   1.549   2.385  0.1568 -0.0924  0.0588
  315MOL0     C42396   6.756   1.513   2.299  0.2416 -0.7048 -0.0439
  315MOL0     C42397   6.690   1.390   2.307 -0.3551 -0.4305 -0.4490
  315MOL0     O42398   6.575   1.358   2.240  0.2638 -0.3821  0.2309
  315MOL0     C42399   6.601   1.265   2.136 -0.3883  0.3795  0.0741
  315MOL0     C42400   6.483   1.274   2.032  0.1242  0.2804  0.9860
  315MOL0     C42401   6.495   1.391   1.940 -0.3872 -1.1979  0.6769
  315MOL0     C42402   6.455   1.520   2.001 -0.0399 -0.3293 -0.8219
  315MOL0     C42403   6.440   1.626   1.893 -0.4729 -1.1576 -0.5408
  315MOL0     C42404   6.426   1.766   1.957  0.0523  0.0200  0.1690
  315MOL0     C42405   6.427   1.865   1.839  1.0630 -0.5027  0.8557
  315MOL0     C42406   6.287   1.874   1.775 -0.2161  0.2485  0.1098
  315MOL0     N42407   6.300   1.943   1.645  0.0114  1.1874 -0.7150
  315MOL0     C42408   6.330   1.873   1.528  0.2680 -0.9975  0.1297
  315MOL0     C42409   6.353   1.973   1.439  0.6794  1.0433 -0.5450
  315MOL0     C42410   6.376   1.957   1.291  0.1285 -0.4411 -0.5977
  315MOL0     C42411   6.246   1.978   1.217 -0.6670  0.2262 -0.4343
  315MOL0     C42412   6.250   1.938   1.065  1.5494 -0.3056  0.3461
  315MOL0     C42413   6.119   1.947   0.989  0.8144  0.0948  0.5833
  315MOL0     O42414   6.160   1.957   0.856  0.0468  0.7298 -0.1713
  315MOL0     C42415   6.059   2.005   0.773 -0.5461 -0.2378  1.0777
  315MOL0     C42416   6.098   2.037   0.645 -0.1180 -0.5462 -0.0424
  315MOL0     C42417   6.011   2.092   0.556 -0.3533 -0.9629  0.8128
  315MOL0     C42418   6.070   2.137   0.426  0.1813  0.2635 -0.2816
  315MOL0     C42419   5.877   2.116   0.591 -0.1900 -0.4471  0.0112
  315MOL0     C42420   5.787   2.183   0.503  0.4062  0.1376 -0.0676
  315MOL0     O42421   5.649   2.148   0.497  0.1964 -0.0667  0.6572
  315MOL0     C42422   5.556   2.171   0.393  1.4488 -0.1200 -0.0747
  315MOL0     C42423   5.416   2.158   0.415  0.1308 -0.3334 -0.8236
  315MOL0     C42424   5.325   2.173   0.300 -0.1234 -0.1438 -0.5929
  315MOL0     C42425   5.376   2.213   0.174 -0.1646 -0.1123  0.9200
  315MOL0     O42426   5.295   2.243   0.070 -0.0736 -0.5190  0.4118
  315MOL0     C42427   5.246   2.376   0.051 -0.0844 -0.6672 -0.1006
  315MOL0     C42428   5.153   2.386  -0.071  0.2455 -0.1526 -0.3026
  315MOL0     C42429   5.035   2.300  -0.040  1.3246  0.3432  0.1453
  315MOL0     C42430   4.913   2.366  -0.099  0.3275  0.0469  0.1807
  315MOL0     C42431   4.780   2.287  -0.077  0.8826 -1.0861 -0.3605
  315MOL0     C42432   4.664   2.379  -0.124 -0.0259  0.2693 -0.1735
  315MOL0     C42433   4.521   2.307  -0.155  0.7701 -1.0111  0.4193
  315MOL0     C42434   4.425   2.417  -0.201 -0.5684 -0.1375  0.8623
  315MOL0    Cl42435   4.264   2.332  -0.181  0.3520  0.4609 -0.2168
  315MOL0     C42436   5.513   2.226   0.163 -0.0069 -0.0222  0.5863
  315MOL0     C42437   5.599   2.205   0.264  0.5233 -0.4799  0.4730
  315MOL0     O42438   5.833   2.264   0.422  0.0769 -0.0435  0.5892
  315MOL0     C42439   5.835   2.071   0.715 -0.4129 -0.1541 -0.3030
  315MOL0     C42440   5.926   2.000   0.794  0.3955 -0.9504 -1.2700
  315MOL0     N42441   6.362   2.096   1.509  0.5848 -0.7571 -0.5657
  315MOL0     N42442   6.317   2.080   1.626  0.3699 -0.1131 -0.5245
  315MOL0     C42443   6.745   1.300   2.393 -0.2209 -0.4158 -0.5997
  315MOL0     C42444   6.852   1.329   2.474 -0.6124 -0.4364 -0.1697
  315MOL0     C42445   7.209   1.633   2.607 -0.1503 -0.6975  0.2379
  315MOL0     C42446   7.304   1.536   2.640 -0.2811  0.8307  0.5513
  315MOL0     C42447   7.433   1.563   2.693  0.0249  0.7619  0.5519
  315MOL0     C42448   7.471   1.689   2.717  0.2270 -1.0595 -0.6541
  315MOL0     O42449   7.600   1.716   2.764 -0.8558 -0.7993  0.3213
  315MOL0     C42450   7.640   1.851   2.799  0.2505  0.2695  1.1874
  315MOL0     C42451   7.714   1.819   2.920  0.2023  0.2557 -0.8133
  315MOL0     C42452   7.848   1.731   2.909  0.5463  0.1105 -0.3732
  315MOL0     C42453   7.918   1.731   3.045  0.2633  0.5787 -0.4395
  315MOL0     C42454   7.833   1.728   3.162 -0.4208  0.6679  0.0404
  315MOL0     C42455   7.765   1.727   3.255 -0.2742  0.1609  0.5120
  315MOL0     C42456   7.379   1.795   2.677  0.6756  0.4960 -0.2743
  315MOL0     C42457   7.245   1.769   2.632 -0.2417 -0.0241  0.0026
  315MOL0     H42458   6.908   1.646   2.362 -0.4288  0.3920  0.9741
  315MOL0     H42459   6.722   1.590   2.230  0.0756 -0.6923  0.0502
  315MOL0     H42460   6.696   1.294   2.091  0.0238  0.2191  0.8141
  315MOL0     H42461   6.614   1.164   2.175 -1.8672  0.1352 -0.0094
  315MOL0     H42462   6.507   1.198   1.958  1.3895  2.4319 -0.9651
  315MOL0     H42463   6.391   1.275   2.090 -0.2958  1.6632  0.3508
  315MOL0     H42464   6.602   1.409   1.927 -0.8600  0.8642 -0.7798
  315MOL0     H42465   6.434   1.365   1.852 -2.0642 -0.6455  1.6286
  315MOL0     H42466   6.357   1.496   2.042  0.1141 -2.4722 -1.5661
  315MOL0     H42467   6.522   1.540   2.085 -0.2574  0.3247 -0.7968
  315MOL0     H42468   6.532   1.629   1.834  0.5898 -1.1243  1.0463
  315MOL0     H42469   6.356   1.597   1.830  0.5842 -0.8921 -2.1333
  315MOL0     H42470   6.335   1.776   2.017 -0.1714  3.4774 -0.5193
  315MOL0     H42471   6.501   1.795   2.031 -0.2311  2.0922 -0.2984
  315MOL0     H42472   6.454   1.966   1.869  1.1199  0.2938 -1.6620
  315MOL0     H42473   6.494   1.838   1.757 -1.7165  0.9951 -2.1514
  315MOL0     H42474   6.227   1.935   1.844  0.3623  2.1694 -1.0279
  315MOL0     H42475   6.249   1.774   1.754  0.5626  0.2742 -1.5994
  315MOL0     H42476   6.318   1.765   1.519 -0.5265 -1.1389  2.3427
  315MOL0     H42477   6.446   2.035   1.260 -2.0816  1.9067 -0.0197
  315MOL0     H42478   6.410   1.854   1.274  0.2070 -0.8730  1.7528
  315MOL0     H42479   6.211   2.081   1.228  0.4363  0.5174  0.4141
  315MOL0     H42480   6.173   1.910   1.261 -0.6867  0.2178 -0.4796
  315MOL0     H42481   6.283   1.834   1.052  0.3065 -0.5559 -1.0605
  315MOL0     H42482   6.317   2.009   1.016 -0.2822  2.9653  2.2697
  315MOL0     H42483   6.057   2.032   1.018 -0.2350  0.3743 -2.1161
  315MOL0     H42484   6.055   1.858   0.992  1.8124 -0.6317  0.8353
  315MOL0     H42485   6.200   2.015   0.614  0.0240 -0.2321  0.1965
  315MOL0     H42486   6.010   2.139   0.335  1.5140  0.4824 -1.1860
  315MOL0     H42487   6.108   2.239   0.436  1.5892 -0.2470 -0.0382
  315MOL0     H42488   6.146   2.059   0.412  2.3484  1.7382  2.1835
  315MOL0     H42489   5.391   2.155   0.520  4.0645  2.4430  0.3949
  315MOL0     H42490   5.217   2.163   0.306 -0.3237  1.1122 -1.6294
  315MOL0     H42491   5.196   2.417   0.139 -0.6646 -0.3612 -0.5684
  315MOL0     H42492   5.328   2.446   0.037 -1.8149  1.5949  0.4747
  315MOL0     H42493   5.120   2.488  -0.096 -3.5784 -0.9377  0.8524
  315MOL0     H42494   5.201   2.345  -0.160 -0.9080 -0.4595 -0.8074
  315MOL0     H42495   5.023   2.284   0.067 -2.5876  1.5296  0.0299
  315MOL0     H42496   5.038   2.207  -0.098 -1.1601 -1.5685  2.8373
  315MOL0     H42497   4.899   2.464  -0.052  1.1665 -0.9382  2.6346
  315MOL0     H42498   4.932   2.373  -0.206  0.0653  0.0856  0.1376
  315MOL0     H42499   4.770   2.251   0.025 -1.7089  0.1057 -0.1149
  315MOL0     H42500   4.783   2.196  -0.139 -1.1665 -0.5469 -1.3408
  315MOL0     H42501   4.659   2.455  -0.046  2.4763 -0.8558  1.2144
  315MOL0     H42502   4.706   2.431  -0.211  1.6558  1.9524  1.5303
  315MOL0     H42503   4.471   2.270  -0.065 -2.1152 -0.7209 -0.9411
  315MOL0     H42504   4.534   2.223  -0.224  4.4399 -0.9160  0.8396
  315MOL0     H42505   4.442   2.453  -0.303  1.1020 -0.8141  0.8685
  315MOL0     H42506   4.430   2.507  -0.139 -0.1770  0.1881  0.3693
  315MOL0     H42507   5.551   2.275   0.074  0.9789 -0.3308  0.8204
  315MOL0     H42508   5.701   2.233   0.241  0.6945 -0.8091  0.8147
  315MOL0     H42509   5.733   2.100   0.736 -0.0467 -0.3008  1.9478
  315MOL0     H42510   5.885   1.960   0.887 -0.6201  1.0879 -0.7824
  315MOL0     H42511   6.707   1.199   2.402 -1.6682  0.2545  2.2438
  315MOL0     H42512   6.898   1.252   2.535 -0.2032 -1.0602 -1.2199
  315MOL0     H42513   7.272   1.433   2.629  0.3844  0.7804 -1.2375
  315MOL0     H42514   7.499   1.483   2.727 -0.9152  0.4223  1.6299
  315MOL0     H42515   7.693   1.888   2.711 -0.6644  0.9577  0.9076
  315MOL0     H42516   7.552   1.914   2.818  1.1082  0.9564  3.1126
  315MOL0     H42517   7.644   1.781   2.995 -0.9341 -0.2707 -2.1071
  315MOL0     H42518   7.750   1.912   2.966 -0.9431 -0.9513  2.9341
  315MOL0     H42519   7.904   1.764   2.821 -3.0923  2.2434 -2.1006
  315MOL0     H42520   7.828   1.624   2.896 -3.8911  0.5366  1.1163
  315MOL0     H42521   7.987   1.814   3.063  0.3497  1.0781 -2.7561
  315MOL0     H42522   7.984   1.643   3.042  1.0382  1.1178  0.4597
  315MOL0     H42523   7.706   1.726   3.344 -0.9045  1.3441  0.1306
  315MOL0     H42524   7.405   1.899   2.693  1.3136  0.5798 -1.7496
  315MOL0     H42525   7.181   1.856   2.628  1.7160  1.4814 -0.1190
  316MOL0     O42526   7.073  10.876   3.945  0.0294  0.8013  0.3422
  316MOL0     C42527   6.997  10.849   4.039  0.3779 -0.0389  1.2974
  316MOL0     O42528   6.963  10.725   4.066 -0.0420 -0.1572  0.0405
  316MOL0     C42529   7.021  10.626   3.997  0.3300  0.2596 -0.7078
  316MOL0     C42530   7.147  10.594   4.035 -0.6556 -0.2544  0.2333
  316MOL0     C42531   7.216  10.483   3.982 -0.4496 -0.7120 -1.0548
  316MOL0     C42532   7.151  10.390   3.897 -0.3473  0.2659  0.1429
  316MOL0     O42533   7.219  10.289   3.833  0.3644 -0.2572 -0.2085
  316MOL0     C42534   7.158  10.170   3.795  1.1529  0.6671 -0.0712
  316MOL0     C42535   7.262  10.061   3.774 -0.3451 -0.5139  0.3872
  316MOL0     C42536   7.378  10.098   3.669  0.1801 -0.2171 -0.3478
  316MOL0     C42537   7.457   9.966   3.668 -0.5874 -0.2806 -0.0567
  316MOL0     C42538   7.570   9.972   3.568 -0.3222  0.4204 -0.4792
  316MOL0     C42539   7.679  10.071   3.624  0.6713  0.2842 -0.0755
  316MOL0     C42540   7.804  10.088   3.539 -0.5791 -0.3953 -0.3553
  316MOL0     C42541   7.869   9.949   3.492 -0.4168 -0.2789 -0.2819
  316MOL0     N42542   7.918   9.975   3.357 -0.7240  0.4601 -0.1926
  316MOL0     C42543   7.830   9.956   3.245 -0.1226 -0.5325  1.0638
  316MOL0     C42544   7.907  10.001   3.145  0.1461 -0.0898  0.3798
  316MOL0     C42545   7.857  10.016   3.004  1.0131  0.6719  0.2669
  316MOL0     C42546   7.947  10.101   2.915  1.0795  0.0614  0.1732
  316MOL0     C42547   7.879  10.144   2.778  0.2785  0.1256 -0.0950
  316MOL0     C42548   7.791  10.039   2.718  0.5878  1.5455  0.3076
  316MOL0     O42549   7.729  10.094   2.606  0.0680 -0.9327  0.3369
  316MOL0     C42550   7.648  10.011   2.525  0.2313  0.1142  0.8548
  316MOL0     C42551   7.615  10.062   2.399  0.0803  0.5153  0.0818
  316MOL0     C42552   7.576   9.981   2.289  0.9666  0.0616 -0.2869
  316MOL0     C42553   7.553  10.047   2.157  0.3057 -0.1068 -0.0233
  316MOL0     C42554   7.551   9.843   2.307  0.4335 -0.0921  0.0106
  316MOL0     C42555   7.491   9.749   2.205  0.2934 -0.0865  0.3081
  316MOL0     O42556   7.464   9.614   2.237  0.3501 -0.1205  0.4832
  316MOL0     C42557   7.385   9.549   2.149  0.2798  0.3811 -0.0137
  316MOL0     C42558   7.257   9.588   2.100  0.6276 -0.4260  0.0758
  316MOL0     C42559   7.179   9.512   2.018 -0.1091 -0.2185 -0.4311
  316MOL0     C42560   7.206   9.370   2.006 -0.4505  0.0162 -0.2849
  316MOL0     O42561   7.111   9.279   1.965  0.9164 -0.4728  0.0194
  316MOL0     C42562   7.135   9.214   1.844  0.7249  0.6583  0.2414
  316MOL0     C42563   7.082   9.305   1.729 -0.1271 -1.4957  0.2197
  316MOL0     C42564   7.114   9.216   1.604  0.0541 -0.5125 -0.3617
  316MOL0     C42565   7.129   9.311   1.488 -0.3078  0.1798  0.3571
  316MOL0     C42566   7.162   9.236   1.364  0.3310  0.1883  0.6593
  316MOL0     C42567   7.129   9.315   1.243  0.4646  0.4434 -0.4305
  316MOL0     C42568   7.154   9.236   1.114  0.2786 -0.4160  0.9489
  316MOL0     C42569   7.124   9.311   0.986  0.8585  0.8692  0.4408
  316MOL0    Cl42570   7.149   9.180   0.868 -0.4814 -0.4876 -0.1886
  316MOL0     C42571   7.338   9.330   2.049 -0.6374  0.4955 -0.7444
  316MOL0     C42572   7.423   9.422   2.107  0.2075 -0.6768 -0.9331
  316MOL0     O42573   7.472   9.799   2.092 -0.3237 -0.3190 -0.4250
  316MOL0     C42574   7.579   9.795   2.439  0.1884  0.0692 -0.4254
  316MOL0     C42575   7.630   9.878   2.545 -0.0939 -0.0282  0.3281
  316MOL0     N42576   8.039  10.045   3.185  0.1509  0.4118 -0.3784
  316MOL0     N42577   8.039  10.023   3.313 -0.0448  0.5099  0.1430
  316MOL0     C42578   7.015  10.421   3.864  0.1571 -0.3892  0.5067
  316MOL0     C42579   6.951  10.530   3.932  0.8051 -0.5833 -1.2298
  316MOL0     C42580   6.933  10.957   4.108 -0.6592  0.1404 -0.7489
  316MOL0     C42581   6.981  11.086   4.084  0.3474 -0.1772 -0.0713
  316MOL0     C42582   6.928  11.196   4.150 -0.2690  0.1118 -0.1329
  316MOL0     C42583   6.814  11.180   4.240  0.3195  0.5832 -0.3851
  316MOL0     O42584   6.774  11.288   4.312  0.3613 -0.4798 -0.6228
  316MOL0     C42585   6.674  11.269   4.411  1.2246 -0.3081 -0.0512
  316MOL0     C42586   6.651  11.406   4.471  0.6714 -0.0184  0.0198
  316MOL0     C42587   6.561  11.419   4.598  0.2177 -0.5607  1.2441
  316MOL0     C42588   6.417  11.479   4.569 -1.4170  0.7225  0.4285
  316MOL0     C42589   6.343  11.483   4.695  1.0191  0.1809 -0.0067
  316MOL0     C42590   6.279  11.495   4.803 -0.4208 -0.4372  0.9075
  316MOL0     C42591   6.768  11.047   4.258 -0.5975 -0.3913 -0.4413
  316MOL0     C42592   6.828  10.939   4.190  0.2891 -0.1175  0.2936
  316MOL0     H42593   7.201  10.661   4.102 -1.4543  2.3181 -1.5648
  316MOL0     H42594   7.319  10.461   4.010 -1.0315  0.9194  2.9443
  316MOL0     H42595   7.088  10.139   3.873 -1.0152 -0.5434 -2.3333
  316MOL0     H42596   7.101  10.198   3.706 -0.4162  1.7463  1.2052
  316MOL0     H42597   7.315  10.041   3.868 -0.3656 -2.0434  0.0968
  316MOL0     H42598   7.205   9.970   3.755  1.0110 -1.1388 -0.8650
  316MOL0     H42599   7.349  10.130   3.568  0.9142  0.7864 -0.2491
  316MOL0     H42600   7.448  10.172   3.708  0.0418 -0.4443  0.3456
  316MOL0     H42601   7.491   9.929   3.765 -3.6217 -2.5221  0.2873
  316MOL0     H42602   7.385   9.891   3.636 -2.6600  1.3932  0.4312
  316MOL0     H42603   7.605   9.869   3.562 -1.2196  0.0372  0.5927
  316MOL0     H42604   7.529   9.994   3.469  1.0677 -0.2511 -1.2332
  316MOL0     H42605   7.647  10.175   3.628  3.0209  1.0651  0.0038
  316MOL0     H42606   7.699  10.041   3.727  1.0511 -1.8806 -0.7342
  316MOL0     H42607   7.781  10.145   3.448  2.6169 -0.1877 -1.1824
  316MOL0     H42608   7.879  10.154   3.584 -2.3053  1.4013  0.0139
  316MOL0     H42609   7.795   9.869   3.485 -1.8989  0.9460  0.7131
  316MOL0     H42610   7.948   9.911   3.556  1.4931 -0.8825 -2.8295
  316MOL0     H42611   7.731   9.913   3.228  0.5003 -0.7955 -2.6227
  316MOL0     H42612   7.847   9.915   2.963 -0.3334  1.6496 -1.9980
  316MOL0     H42613   7.757  10.061   3.007  0.8197  0.2403  0.4172
  316MOL0     H42614   8.040  10.057   2.879  0.3738  0.5769 -2.5596
  316MOL0     H42615   7.975  10.189   2.973  3.6307 -0.1200 -0.6505
  316MOL0     H42616   7.966  10.167   2.716  3.6137  2.1067  4.7422
  316MOL0     H42617   7.817  10.233   2.792  0.4570 -0.0022  1.6761
  316MOL0     H42618   7.710  10.017   2.787  0.7979  2.3214  0.8225
  316MOL0     H42619   7.855   9.951   2.705 -1.4672  0.0632 -0.1846
  316MOL0     H42620   7.634  10.168   2.381  2.5783  0.2724  0.9329
  316MOL0     H42621   7.632  10.000   2.098  0.8878  0.8174 -0.0098
  316MOL0     H42622   7.454  10.038   2.110  1.9668  1.6205 -4.3328
  316MOL0     H42623   7.577  10.153   2.174 -1.3678  0.2438  0.3528
  316MOL0     H42624   7.212   9.676   2.144  1.9557  1.3292 -1.9126
  316MOL0     H42625   7.075   9.534   1.995 -1.4477 -3.6961  1.5237
  316MOL0     H42626   7.243   9.196   1.839  1.5902  3.0582  4.7679
  316MOL0     H42627   7.085   9.117   1.833 -0.9604  1.6804 -1.9960
  316MOL0     H42628   6.976   9.326   1.745 -0.4252 -1.1219 -1.8661
  316MOL0     H42629   7.134   9.401   1.722 -1.4084 -0.8580 -1.3324
  316MOL0     H42630   7.039   9.139   1.586 -0.3066 -0.3851  0.5543
  316MOL0     H42631   7.200   9.151   1.621  0.8568  0.7830  0.7120
  316MOL0     H42632   7.037   9.369   1.474 -0.3376 -0.1143 -0.7202
  316MOL0     H42633   7.210   9.382   1.509  0.1358  0.0444 -0.8426
  316MOL0     H42634   7.098   9.147   1.363 -0.4657  0.7412 -1.4381
  316MOL0     H42635   7.269   9.214   1.359  0.2982  0.2553 -3.4541
  316MOL0     H42636   7.028   9.358   1.249 -0.3527 -1.4572  0.2923
  316MOL0     H42637   7.184   9.409   1.236  1.8040 -0.3986 -2.0326
  316MOL0     H42638   7.110   9.136   1.125 -0.0914  0.0019  4.2173
  316MOL0     H42639   7.262   9.222   1.116  0.3537  0.0639  0.3749
  316MOL0     H42640   7.202   9.383   0.960  1.4626  0.7377  1.8076
  316MOL0     H42641   7.028   9.362   0.975 -0.1039 -1.1292 -1.0890
  316MOL0     H42642   7.365   9.225   2.049  1.5740  0.9981 -2.3696
  316MOL0     H42643   7.522   9.393   2.141  2.0872  5.5851  0.2986
  316MOL0     H42644   7.557   9.689   2.452  0.6593  0.2345  2.1090
  316MOL0     H42645   7.647   9.841   2.646 -1.3854 -0.3565  0.4371
  316MOL0     H42646   6.968  10.365   3.784  1.5502 -2.0601  0.7907
  316MOL0     H42647   6.848  10.553   3.909 -0.4076 -0.8147  3.1119
  316MOL0     H42648   7.071  11.103   4.025 -0.5792 -0.6069 -1.6495
  316MOL0     H42649   6.975  11.293   4.140 -0.0226  0.4954  3.3987
  316MOL0     H42650   6.577  11.242   4.370  0.5747  0.6771  0.7761
  316MOL0     H42651   6.700  11.198   4.490 -2.1591  1.0775  2.5204
  316MOL0     H42652   6.609  11.464   4.389 -2.7910 -1.8383  0.3376
  316MOL0     H42653   6.754  11.440   4.490  1.9436 -3.1699 -0.5756
  316MOL0     H42654   6.617  11.490   4.660 -0.4871  0.8615  0.3152
  316MOL0     H42655   6.560  11.322   4.649 -1.7005 -1.3272 -0.1310
  316MOL0     H42656   6.366  11.406   4.505  0.7530  0.2486 -0.9012
  316MOL0     H42657   6.418  11.580   4.527 -0.2744 -0.0497 -1.5557
  316MOL0     H42658   6.209  11.490   4.885 -1.9883  0.9798 -0.2774
  316MOL0     H42659   6.694  11.025   4.334 -1.8010 -0.8164 -1.6785
  316MOL0     H42660   6.798  10.837   4.210  0.2024  0.0339  0.9558
  317MOL0     O42661   6.617   7.857   7.859 -0.2001 -0.1431  0.6733
  317MOL0     C42662   6.585   7.886   7.747  0.5599  0.3627 -0.1216
  317MOL0     O42663   6.491   7.818   7.667 -0.8165 -0.1719 -0.4167
  317MOL0     C42664   6.438   7.693   7.688  0.6951  0.3133  0.3886
  317MOL0     C42665   6.500   7.592   7.764 -0.0328  0.3432  0.0991
  317MOL0     C42666   6.435   7.465   7.779 -0.3912 -0.2527 -0.5934
  317MOL0     C42667   6.316   7.437   7.721 -0.0257  0.4311  0.7312
  317MOL0     O42668   6.270   7.306   7.738 -0.5598  0.2821 -0.2426
  317MOL0     C42669   6.130   7.291   7.751  0.2391 -0.4672  0.1227
  317MOL0     C42670   6.092   7.177   7.852 -0.0963 -1.3117  1.3195
  317MOL0     C42671   5.940   7.143   7.839 -0.2924 -0.0746 -1.7224
  317MOL0     C42672   5.916   7.033   7.952  0.0352 -0.2396  1.1802
  317MOL0     C42673   5.772   6.988   7.991  0.3730 -0.4074  0.4494
  317MOL0     C42674   5.699   6.950   7.864 -0.1189 -1.0107 -0.4851
  317MOL0     C42675   5.542   6.934   7.885 -0.3523 -0.1277 -0.3088
  317MOL0     C42676   5.491   6.833   7.990 -0.1839  0.2580 -0.2401
  317MOL0     N42677   5.548   6.696   7.972  0.4751 -0.2861 -0.5587
  317MOL0     C42678   5.671   6.640   8.000 -0.6777 -0.4566  0.2276
  317MOL0     C42679   5.673   6.518   7.945  0.7907 -0.1030 -0.0510
  317MOL0     C42680   5.799   6.446   7.952 -0.9912 -0.0282  0.5876
  317MOL0     C42681   5.896   6.458   7.838 -0.6351  0.1829 -0.5036
  317MOL0     C42682   6.051   6.441   7.870  0.0569 -0.6613 -0.6406
  317MOL0     C42683   6.084   6.304   7.915 -0.7932  1.4800  0.7225
  317MOL0     O42684   6.198   6.322   8.005  0.3329 -0.3600  0.0431
  317MOL0     C42685   6.324   6.348   7.957 -0.6282 -0.0358  0.1369
  317MOL0     C42686   6.413   6.407   8.042  0.0417  0.4310 -0.2419
  317MOL0     C42687   6.542   6.441   8.004 -0.7132  0.1489  0.0133
  317MOL0     C42688   6.621   6.530   8.092  0.2140 -0.3568  0.4274
  317MOL0     C42689   6.583   6.422   7.868  0.2565  1.2077 -0.4362
  317MOL0     C42690   6.690   6.497   7.810 -1.1795  0.3191 -0.1722
  317MOL0     O42691   6.788   6.432   7.738  0.1855 -0.1144  0.0894
  317MOL0     C42692   6.903   6.493   7.711  0.0562 -0.4338 -0.1404
  317MOL0     C42693   6.900   6.584   7.607  0.2356  0.1158  0.0990
  317MOL0     C42694   7.014   6.668   7.589 -0.9978  0.1536  0.0726
  317MOL0     C42695   7.125   6.664   7.682  0.7141 -0.3285  0.6517
  317MOL0     O42696   7.233   6.745   7.692  0.9595  0.0622 -0.2788
  317MOL0     C42697   7.264   6.849   7.594 -0.5539  0.8851  0.4025
  317MOL0     C42698   7.414   6.870   7.581 -0.0090 -0.0656 -0.0592
  317MOL0     C42699   7.489   6.751   7.533  0.2926  0.4422 -0.3249
  317MOL0     C42700   7.637   6.788   7.543 -0.1008  0.9628 -0.6375
  317MOL0     C42701   7.737   6.676   7.506  0.8673  0.0081 -1.0870
  317MOL0     C42702   7.871   6.695   7.573  0.4529 -0.2203 -1.2437
  317MOL0     C42703   7.978   6.633   7.483 -0.0942 -0.0603 -0.3369
  317MOL0     C42704   8.095   6.591   7.569 -0.3377  0.6385 -0.5582
  317MOL0    Cl42705   8.217   6.728   7.579 -0.2423 -0.2562 -0.0456
  317MOL0     C42706   7.122   6.570   7.778  0.2894  0.1390  0.0328
  317MOL0     C42707   7.010   6.486   7.794 -0.9065 -0.7748  1.1707
  317MOL0     O42708   6.691   6.620   7.832 -0.4843  0.2166  0.3225
  317MOL0     C42709   6.491   6.356   7.785  0.8118  0.1204 -0.0009
  317MOL0     C42710   6.370   6.318   7.830  0.8369 -0.7394  0.3495
  317MOL0     N42711   5.548   6.502   7.877 -1.7639  0.5444 -0.3578
  317MOL0     N42712   5.477   6.603   7.893 -0.0283 -0.2941 -0.5671
  317MOL0     C42713   6.265   7.528   7.619  0.1464  0.3809 -0.3410
  317MOL0     C42714   6.319   7.656   7.617  0.6510 -0.3568 -0.1071
  317MOL0     C42715   6.642   8.006   7.688 -0.1090  0.0067  0.0887
  317MOL0     C42716   6.758   8.064   7.741 -0.4535  0.7396 -1.2767
  317MOL0     C42717   6.812   8.169   7.669  0.2978 -0.2431  0.5184
  317MOL0     C42718   6.761   8.222   7.551 -0.6571 -0.5315  0.5264
  317MOL0     O42719   6.820   8.317   7.468 -0.5268  0.5391  0.1376
  317MOL0     C42720   6.966   8.312   7.466 -0.7718 -0.7341  0.4511
  317MOL0     C42721   7.011   8.386   7.338 -0.0958  0.5814 -1.0085
  317MOL0     C42722   6.972   8.301   7.210 -0.6507 -1.3232  0.4059
  317MOL0     C42723   7.026   8.345   7.070 -0.7567  0.1851 -0.7021
  317MOL0     C42724   7.171   8.358   7.071 -0.3629  0.3932  0.2054
  317MOL0     C42725   7.288   8.366   7.040 -0.7581 -0.1921 -0.7246
  317MOL0     C42726   6.646   8.159   7.499 -0.3534  0.0336 -0.6169
  317MOL0     C42727   6.590   8.053   7.564  0.4892 -0.2473 -1.0354
  317MOL0     H42728   6.596   7.606   7.813 -0.6738  0.0250  1.5089
  317MOL0     H42729   6.496   7.397   7.838  3.0032  1.5778 -1.7436
  317MOL0     H42730   6.070   7.379   7.776  0.9952  1.1383 -3.0910
  317MOL0     H42731   6.101   7.260   7.650 -1.6871  1.0338  0.1633
  317MOL0     H42732   6.149   7.085   7.834 -1.2648 -1.7251 -0.5212
  317MOL0     H42733   6.114   7.218   7.951 -1.3880 -0.6931  1.3835
  317MOL0     H42734   5.869   7.225   7.854  2.1216  1.6950  1.3677
  317MOL0     H42735   5.931   7.097   7.740  0.1773 -1.8683 -0.9726
  317MOL0     H42736   5.964   6.941   7.919 -1.3371 -0.4283 -0.4059
  317MOL0     H42737   5.961   7.065   8.047  0.4750  2.8262  0.0402
  317MOL0     H42738   5.755   6.901   8.055 -0.7147  0.4013  1.2999
  317MOL0     H42739   5.727   7.073   8.042 -0.6673  0.0685 -1.1744
  317MOL0     H42740   5.711   7.024   7.784 -1.1721 -0.3730 -0.0810
  317MOL0     H42741   5.743   6.858   7.824  1.1352 -0.4773 -0.3662
  317MOL0     H42742   5.502   7.035   7.897  1.2546  0.5765 -0.5770
  317MOL0     H42743   5.512   6.904   7.784 -2.2542  1.2312 -0.1914
  317MOL0     H42744   5.384   6.815   7.974 -0.2728  0.5612  0.0146
  317MOL0     H42745   5.517   6.866   8.091 -2.3842 -2.4872  1.3561
  317MOL0     H42746   5.747   6.685   8.063  2.7673  0.7679 -4.2578
  317MOL0     H42747   5.860   6.483   8.034  0.9621  1.6972 -1.5008
  317MOL0     H42748   5.780   6.339   7.959  1.0713 -0.3517  2.0933
  317MOL0     H42749   5.890   6.559   7.796 -2.8116 -0.3866 -1.7442
  317MOL0     H42750   5.861   6.394   7.756 -1.8757  2.4553 -1.8589
  317MOL0     H42751   6.083   6.518   7.941 -3.6121 -1.1745  1.8631
  317MOL0     H42752   6.095   6.456   7.771  0.2450  0.1938 -0.4322
  317MOL0     H42753   6.096   6.238   7.829 -1.7144  0.3427  1.4272
  317MOL0     H42754   6.010   6.264   7.985 -0.3406 -0.8604 -0.0435
  317MOL0     H42755   6.386   6.430   8.145  0.0472  0.3383 -0.2195
  317MOL0     H42756   6.599   6.635   8.068  1.6103  0.9607  4.1775
  317MOL0     H42757   6.582   6.522   8.194 -4.8303  0.1534 -1.1795
  317MOL0     H42758   6.725   6.508   8.071  0.0672 -0.8628  0.2332
  317MOL0     H42759   6.815   6.591   7.540 -0.3161 -1.6525  0.5422
  317MOL0     H42760   7.038   6.727   7.501  1.8736  0.8408  1.2088
  317MOL0     H42761   7.240   6.809   7.495 -2.3743  1.0763  0.7443
  317MOL0     H42762   7.213   6.941   7.622  2.8390  2.7310  1.1293
  317MOL0     H42763   7.442   6.951   7.513  0.6331  0.6867  1.0749
  317MOL0     H42764   7.448   6.910   7.677  1.8572 -3.8784  1.0531
  317MOL0     H42765   7.450   6.729   7.433  0.4713  0.7767 -0.4729
  317MOL0     H42766   7.464   6.664   7.593 -1.4805  2.1528  1.5866
  317MOL0     H42767   7.658   6.874   7.479 -0.3143  4.1972  3.3047
  317MOL0     H42768   7.666   6.817   7.644  0.8481  0.3815 -0.7248
  317MOL0     H42769   7.750   6.689   7.398 -0.0046  1.6280 -1.0311
  317MOL0     H42770   7.691   6.581   7.534  0.5133  1.2650  3.4087
  317MOL0     H42771   7.894   6.799   7.599  2.9731 -1.2444  1.0969
  317MOL0     H42772   7.863   6.647   7.671  0.7449 -0.6986 -1.4558
  317MOL0     H42773   8.009   6.699   7.401  0.2262  0.9038  0.5360
  317MOL0     H42774   7.936   6.545   7.433 -0.6729  1.2315 -2.2442
  317MOL0     H42775   8.156   6.511   7.526 -1.7289 -0.3127 -0.8337
  317MOL0     H42776   8.065   6.552   7.667 -0.8554  0.7762 -0.6551
  317MOL0     H42777   7.204   6.569   7.849 -1.2727  2.1925  1.9800
  317MOL0     H42778   7.021   6.411   7.872  5.7944 -1.1379  0.4947
  317MOL0     H42779   6.515   6.346   7.680 -1.6051  2.1252 -0.8638
  317MOL0     H42780   6.309   6.264   7.759 -1.0336  0.9202  0.5896
  317MOL0     H42781   6.182   7.509   7.552  1.7381 -1.9963 -1.7731
  317MOL0     H42782   6.267   7.729   7.556 -1.7506 -0.2600  1.9345
  317MOL0     H42783   6.800   8.032   7.836 -4.8478 -2.0961  0.0139
  317MOL0     H42784   6.910   8.205   7.700  0.4796 -0.8448  0.6657
  317MOL0     H42785   6.999   8.367   7.554  0.5718 -0.6783 -0.0528
  317MOL0     H42786   7.006   8.210   7.465 -1.6112 -1.0716 -0.8062
  317MOL0     H42787   7.119   8.403   7.335 -0.2045  1.7128  0.5939
  317MOL0     H42788   6.977   8.489   7.326 -0.2165  0.9225  1.7142
  317MOL0     H42789   6.862   8.300   7.203 -0.5380 -2.8640 -2.1504
  317MOL0     H42790   6.999   8.196   7.224  0.4835 -1.1582 -0.4338
  317MOL0     H42791   6.971   8.434   7.037 -0.9089  0.0071 -0.9267
  317MOL0     H42792   7.007   8.266   6.997  1.0531  0.5380 -1.6176
  317MOL0     H42793   7.386   8.398   7.011 -1.1935  1.6602 -0.2776
  317MOL0     H42794   6.613   8.190   7.401  0.4113 -1.4258 -1.3656
  317MOL0     H42795   6.509   8.007   7.508 -2.4969  3.8788 -0.5701
  318MOL0     O42796   1.481   9.286   8.759  0.0322  0.5459  0.4332
  318MOL0     C42797   1.499   9.164   8.735 -0.0292 -0.4810 -1.2638
  318MOL0     O42798   1.514   9.112   8.616 -0.2681 -0.2738 -0.6383
  318MOL0     C42799   1.487   9.178   8.501  0.0002 -0.6765  0.3809
  318MOL0     C42800   1.580   9.164   8.384  0.2134  0.6950 -0.1087
  318MOL0     C42801   1.542   9.209   8.261  0.1295  0.1262 -0.3858
  318MOL0     C42802   1.421   9.271   8.245  0.4748 -0.2312  0.2020
  318MOL0     O42803   1.408   9.342   8.127  0.5638  0.1774  0.2396
  318MOL0     C42804   1.299   9.305   8.041 -0.3168  0.2222  0.1220
  318MOL0     C42805   1.319   9.169   7.959 -1.1365 -0.3403 -0.6153
  318MOL0     C42806   1.461   9.162   7.897 -0.4772 -0.2792 -0.6921
  318MOL0     C42807   1.468   9.071   7.783  0.1529  0.5276  0.3955
  318MOL0     C42808   1.609   9.055   7.722 -1.0819  1.4785 -0.3210
  318MOL0     C42809   1.716   9.008   7.823 -0.7513  0.0604 -0.3117
  318MOL0     C42810   1.861   9.005   7.762  0.1793  0.0668  0.1611
  318MOL0     C42811   1.896   8.893   7.670  0.5942 -0.4462 -0.3010
  318MOL0     N42812   1.931   8.769   7.739  0.0917 -0.3268  0.3688
  318MOL0     C42813   1.846   8.671   7.787 -0.0775  0.5925 -0.3887
  318MOL0     C42814   1.928   8.598   7.879 -0.0594 -0.2536  0.8267
  318MOL0     C42815   1.896   8.483   7.968  0.2191 -0.5223  0.1860
  318MOL0     C42816   1.881   8.524   8.122  0.7395 -0.2450  0.0051
  318MOL0     C42817   1.759   8.617   8.157  0.9233 -1.6882  0.0156
  318MOL0     C42818   1.781   8.761   8.101 -0.8224  0.0461 -0.1973
  318MOL0     O42819   1.687   8.858   8.156 -0.1244 -0.2126 -0.1194
  318MOL0     C42820   1.561   8.814   8.176 -0.3378 -0.5107  1.3227
  318MOL0     C42821   1.495   8.815   8.301 -1.0295  0.2674 -1.2793
  318MOL0     C42822   1.361   8.808   8.317 -0.7316  0.1610  0.5384
  318MOL0     C42823   1.302   8.853   8.445 -0.0774  0.6431  0.0129
  318MOL0     C42824   1.287   8.759   8.209 -0.1306  0.0583  0.3439
  318MOL0     C42825   1.146   8.723   8.221  0.4157  0.6569 -0.0521
  318MOL0     O42826   1.074   8.724   8.102  0.1706 -0.2138  0.4572
  318MOL0     C42827   0.937   8.693   8.115 -0.5078  0.0745  0.2581
  318MOL0     C42828   0.861   8.781   8.194  0.5889  0.0577  1.3620
  318MOL0     C42829   0.716   8.767   8.198  0.5095  0.3495 -0.0475
  318MOL0     C42830   0.659   8.654   8.138 -0.3739  0.0465 -1.5138
  318MOL0     O42831   0.525   8.634   8.138  0.2961  0.2707  0.0932
  318MOL0     C42832   0.465   8.618   8.271 -0.6307 -0.4273 -0.4683
  318MOL0     C42833   0.307   8.624   8.264 -0.7114  0.8577  0.3110
  318MOL0     C42834   0.253   8.514   8.171  0.3741  0.3893 -0.5059
  318MOL0     C42835   0.108   8.511   8.154  0.2004  0.4099 -0.3744
  318MOL0     C42836   0.064   8.400   8.052 -0.1496  0.4298 -0.2438
  318MOL0     C42837  -0.088   8.373   8.054  0.2744 -0.0965 -0.1587
  318MOL0     C42838  -0.125   8.262   7.953  0.1799  1.1076  0.1821
  318MOL0     C42839  -0.271   8.221   7.970 -0.5192 -0.3435 -0.6866
  318MOL0    Cl42840  -0.286   8.078   7.868 -0.0632 -0.2745 -0.0797
  318MOL0     C42841   0.740   8.569   8.066  0.2038 -0.0721 -1.3296
  318MOL0     C42842   0.881   8.583   8.051 -0.7142 -0.3610  0.9234
  318MOL0     O42843   1.100   8.684   8.334 -0.8133 -0.1888  0.0919
  318MOL0     C42844   1.352   8.751   8.086  1.2177  0.3172 -0.3122
  318MOL0     C42845   1.488   8.777   8.068  0.1807 -0.5226 -0.8594
  318MOL0     N42846   2.053   8.656   7.881 -0.3436  0.6028  0.8963
  318MOL0     N42847   2.057   8.759   7.798  0.3500  0.1245 -0.6986
  318MOL0     C42848   1.319   9.279   8.349 -1.1960 -0.6940 -0.9646
  318MOL0     C42849   1.361   9.243   8.477 -0.7061  0.4970  0.1057
  318MOL0     C42850   1.481   9.080   8.862  0.6993 -0.1516 -0.3378
  318MOL0     C42851   1.515   9.134   8.982 -0.2132  0.2665 -1.1200
  318MOL0     C42852   1.518   9.060   9.098  0.1240 -0.3447 -0.2822
  318MOL0     C42853   1.479   8.926   9.107  0.4605  0.3202  0.5260
  318MOL0     O42854   1.478   8.856   9.220 -0.4451  0.6885  0.8295
  318MOL0     C42855   1.376   8.762   9.237 -0.0620  0.2528 -0.2718
  318MOL0     C42856   1.407   8.704   9.381 -0.4824  0.5171 -0.2923
  318MOL0     C42857   1.358   8.792   9.489 -0.0900 -0.4964 -0.2727
  318MOL0     C42858   1.364   8.736   9.634 -0.5598  0.6433  0.3501
  318MOL0     C42859   1.367   8.847   9.723  0.0918 -0.5729  1.1937
  318MOL0     C42860   1.372   8.930   9.810  0.2243  1.2259  0.5009
  318MOL0     C42861   1.428   8.868   8.979 -0.8039 -1.5747 -0.1265
  318MOL0     C42862   1.434   8.942   8.865  0.1321 -0.4507  0.3646
  318MOL0     H42863   1.674   9.109   8.382 -0.1295 -0.0079  1.5267
  318MOL0     H42864   1.593   9.184   8.168 -1.9380  1.8278 -2.0926
  318MOL0     H42865   1.201   9.311   8.089 -0.9675 -1.6776 -0.8773
  318MOL0     H42866   1.295   9.382   7.964 -0.1508  1.3736  1.2309
  318MOL0     H42867   1.295   9.087   8.028  2.8609  0.1243  1.6497
  318MOL0     H42868   1.249   9.163   7.875 -0.0608 -1.2053 -1.4867
  318MOL0     H42869   1.487   9.258   7.853  1.0732  0.7374  2.2387
  318MOL0     H42870   1.532   9.147   7.979  0.8887  2.2858 -1.3290
  318MOL0     H42871   1.425   8.971   7.797 -3.1439  1.6528 -0.6837
  318MOL0     H42872   1.416   9.110   7.695 -0.0618  0.1202  0.3407
  318MOL0     H42873   1.605   8.974   7.649  3.8619  1.5642 -1.0389
  318MOL0     H42874   1.630   9.145   7.664 -0.8599  1.8688  0.3561
  318MOL0     H42875   1.720   9.084   7.901 -1.1771 -0.5770  0.3456
  318MOL0     H42876   1.686   8.917   7.875  0.2361  0.2695  0.6431
  318MOL0     H42877   1.871   9.101   7.711  1.9044  0.2635  0.8004
  318MOL0     H42878   1.944   9.014   7.833 -0.0160  1.5427  0.2140
  318MOL0     H42879   1.990   8.910   7.616  1.2118 -1.5620  0.4038
  318MOL0     H42880   1.820   8.873   7.595 -0.5765 -1.6221  1.1427
  318MOL0     H42881   1.741   8.654   7.769  0.6295 -2.2766 -2.7482
  318MOL0     H42882   1.808   8.431   7.930  0.1535  0.6193 -1.3369
  318MOL0     H42883   1.991   8.429   7.960  2.4309  2.8738  0.8294
  318MOL0     H42884   1.976   8.551   8.168  0.4470  0.5291  0.1712
  318MOL0     H42885   1.854   8.437   8.183  1.8649  1.0963  2.6030
  318MOL0     H42886   1.754   8.633   8.265 -2.4219  0.5791 -0.3324
  318MOL0     H42887   1.659   8.575   8.142 -0.6905  1.1709  1.8781
  318MOL0     H42888   1.766   8.760   7.993  2.9778 -3.3431 -0.9631
  318MOL0     H42889   1.876   8.807   8.132 -1.2485  1.2793 -0.6402
  318MOL0     H42890   1.545   8.856   8.388 -1.7264  0.4406 -0.9545
  318MOL0     H42891   1.193   8.863   8.449 -0.2153 -0.9863  1.6969
  318MOL0     H42892   1.329   8.786   8.527 -1.0226  0.5899  0.2911
  318MOL0     H42893   1.349   8.948   8.475  1.4386 -0.8879  2.9872
  318MOL0     H42894   0.906   8.871   8.236 -0.3698  1.9738 -1.4209
  318MOL0     H42895   0.661   8.850   8.242 -0.0843 -0.6497  1.1619
  318MOL0     H42896   0.502   8.524   8.311 -0.8041 -0.4451 -0.3476
  318MOL0     H42897   0.493   8.704   8.332  1.8529 -0.5748 -1.2790
  318MOL0     H42898   0.264   8.626   8.365  1.4386 -1.2933  1.3619
  318MOL0     H42899   0.286   8.726   8.232 -1.5244  1.1967  1.8252
  318MOL0     H42900   0.275   8.419   8.220  0.6888  1.2747  1.1366
  318MOL0     H42901   0.295   8.514   8.070  1.9725 -0.7811  0.1169
  318MOL0     H42902   0.056   8.496   8.250  2.3791  1.0033  0.9793
  318MOL0     H42903   0.068   8.606   8.118 -0.6530  0.4586  0.6322
  318MOL0     H42904   0.119   8.306   8.069  1.2210  0.9571 -1.4914
  318MOL0     H42905   0.092   8.432   7.951  0.4105 -1.8129 -0.8649
  318MOL0     H42906  -0.120   8.337   8.152 -0.1294 -1.0789 -0.6347
  318MOL0     H42907  -0.135   8.469   8.030  1.1728 -0.1179 -2.1870
  318MOL0     H42908  -0.067   8.170   7.969 -0.4256  0.8018  0.6698
  318MOL0     H42909  -0.099   8.289   7.850 -0.8283  0.8079 -0.1661
  318MOL0     H42910  -0.343   8.295   7.933 -2.0809 -2.2023 -1.5305
  318MOL0     H42911  -0.295   8.199   8.075  1.6284 -1.1279 -0.3107
  318MOL0     H42912   0.682   8.485   8.029 -1.6775 -0.3655  1.8917
  318MOL0     H42913   0.952   8.525   7.993  0.4101  1.3641  0.5001
  318MOL0     H42914   1.287   8.720   8.005 -1.7286 -0.8575  2.3213
  318MOL0     H42915   1.521   8.788   7.965  1.1228 -0.2018 -0.5284
  318MOL0     H42916   1.220   9.317   8.324 -1.3164 -2.7126 -4.1100
  318MOL0     H42917   1.288   9.269   8.553  0.7934  4.1910  0.4855
  318MOL0     H42918   1.555   9.234   8.996  0.2619 -0.3531  3.8235
  318MOL0     H42919   1.558   9.121   9.178 -0.8116 -0.7509  0.5116
  318MOL0     H42920   1.280   8.816   9.239 -0.8550 -1.1391  0.3283
  318MOL0     H42921   1.376   8.678   9.167 -2.0816 -0.6136  0.6939
  318MOL0     H42922   1.513   8.685   9.403 -0.6640  2.1291  2.4492
  318MOL0     H42923   1.342   8.616   9.392  1.3451 -0.5581  3.9287
  318MOL0     H42924   1.253   8.815   9.470  0.1192  1.2185  0.4380
  318MOL0     H42925   1.409   8.889   9.481  0.0996 -0.7310 -3.6717
  318MOL0     H42926   1.453   8.673   9.645 -1.9919 -1.8371 -1.2712
  318MOL0     H42927   1.276   8.674   9.651  1.5718 -3.0159 -0.6341
  318MOL0     H42928   1.369   8.985   9.902  1.6104  1.1424  0.6091
  318MOL0     H42929   1.394   8.765   8.970 -2.1936 -1.2523  0.9917
  318MOL0     H42930   1.407   8.895   8.771  0.0043  1.1363 -0.4213
  319MOL0     O42931   3.252   4.039   5.405  0.0872 -0.1946 -0.2440
  319MOL0     C42932   3.256   3.936   5.341  0.5515 -0.7348 -0.3163
  319MOL0     O42933   3.367   3.880   5.286 -0.6225  0.4831 -0.0682
  319MOL0     C42934   3.490   3.928   5.324 -0.2217 -0.0541  0.5830
  319MOL0     C42935   3.567   3.868   5.421 -0.6104 -1.0032  0.2907
  319MOL0     C42936   3.695   3.926   5.443  0.5852 -0.1417 -0.3747
  319MOL0     C42937   3.740   4.035   5.368 -0.0203  0.1259  0.0579
  319MOL0     O42938   3.867   4.103   5.377  0.3226 -0.1232  0.0154
  319MOL0     C42939   3.977   4.032   5.424 -1.1763  0.1976 -0.2807
  319MOL0     C42940   4.088   4.143   5.430  0.1762  0.5268 -0.3617
  319MOL0     C42941   4.129   4.177   5.290 -0.1004 -0.0791  0.1191
  319MOL0     C42942   4.213   4.309   5.277  0.1757  0.0142  1.0322
  319MOL0     C42943   4.352   4.286   5.225  0.5236  0.0855  0.7675
  319MOL0     C42944   4.437   4.217   5.330 -0.1782  0.2931 -0.2639
  319MOL0     C42945   4.569   4.173   5.256  0.8319 -0.2922  0.1985
  319MOL0     C42946   4.651   4.272   5.178 -0.2597 -0.4186  0.5725
  319MOL0     N42947   4.776   4.210   5.133  0.6262 -0.4377  0.3803
  319MOL0     C42948   4.785   4.097   5.049  0.1635 -0.2085  0.6294
  319MOL0     C42949   4.910   4.042   5.074  0.6131  0.8336 -0.4095
  319MOL0     C42950   4.967   3.908   5.020  0.3272 -0.1057  0.3927
  319MOL0     C42951   4.886   3.794   5.078  0.2624 -0.2112 -0.2745
  319MOL0     C42952   4.921   3.661   5.006  0.3436 -0.9675  0.2791
  319MOL0     C42953   4.804   3.625   4.914  0.3462 -0.8118  1.6021
  319MOL0     O42954   4.800   3.718   4.804  0.2550  0.8962  0.2995
  319MOL0     C42955   4.696   3.792   4.756 -0.0396 -0.7254 -0.6579
  319MOL0     C42956   4.732   3.897   4.673  0.0590  0.5843  0.2019
  319MOL0     C42957   4.632   3.993   4.632  0.4158 -0.4940 -0.2181
  319MOL0     C42958   4.666   4.113   4.548  0.6657  0.5237  0.7693
  319MOL0     C42959   4.498   3.978   4.682  0.7073 -0.3988  0.0694
  319MOL0     C42960   4.381   4.072   4.657  0.0069  1.0400 -0.8861
  319MOL0     O42961   4.301   4.106   4.770 -0.2712 -0.3744  0.5885
  319MOL0     C42962   4.177   4.158   4.762 -0.9850  0.4887  0.0032
  319MOL0     C42963   4.110   4.150   4.887 -0.2188 -0.9973  1.0099
  319MOL0     C42964   3.973   4.190   4.893  0.0044 -0.3025 -0.5123
  319MOL0     C42965   3.909   4.234   4.785  0.5204  0.0363 -0.6282
  319MOL0     O42966   3.774   4.256   4.771 -0.5180 -0.0719  0.0113
  319MOL0     C42967   3.677   4.211   4.864  0.8170  0.1088  0.4520
  319MOL0     C42968   3.652   4.061   4.869  0.2822  0.2588  0.0936
  319MOL0     C42969   3.541   4.016   4.771 -0.2955 -0.7950  0.3946
  319MOL0     C42970   3.587   4.020   4.625  0.4043  0.4002 -0.1177
  319MOL0     C42971   3.513   4.111   4.531  0.2220 -0.3474 -0.0634
  319MOL0     C42972   3.367   4.088   4.526  0.5209 -0.2314  0.5925
  319MOL0     C42973   3.301   4.187   4.422 -0.3241  0.0674  0.0982
  319MOL0     C42974   3.151   4.162   4.407  0.3719  0.7634  0.0284
  319MOL0    Cl42975   3.105   4.024   4.297  0.0400  0.3481 -0.1697
  319MOL0     C42976   3.979   4.253   4.665  0.1734 -0.2670  0.4098
  319MOL0     C42977   4.112   4.220   4.653 -0.2380  0.3108  0.5776
  319MOL0     O42978   4.362   4.112   4.542 -0.5678 -0.2194  1.0328
  319MOL0     C42979   4.468   3.870   4.766 -0.5624 -0.1020 -0.3714
  319MOL0     C42980   4.563   3.772   4.795 -1.4458 -0.1615  0.5208
  319MOL0     N42981   4.979   4.128   5.162 -0.1298 -0.1634  0.3463
  319MOL0     N42982   4.900   4.230   5.188 -0.4490  0.7089  0.1457
  319MOL0     C42983   3.655   4.090   5.273 -0.9855  0.0459 -0.4952
  319MOL0     C42984   3.538   4.028   5.237  0.0446 -0.6773  0.1549
  319MOL0     C42985   3.129   3.866   5.345  0.6285  0.3872 -1.0568
  319MOL0     C42986   3.114   3.730   5.389  0.2623 -0.8210  0.3610
  319MOL0     C42987   2.984   3.677   5.399 -0.6220  0.0037  0.3680
  319MOL0     C42988   2.872   3.756   5.358  0.2316 -0.1412 -0.6089
  319MOL0     O42989   2.738   3.718   5.364 -0.8510 -0.8242 -0.6920
  319MOL0     C42990   2.703   3.582   5.409  0.5045 -0.3525 -0.1184
  319MOL0     C42991   2.561   3.556   5.360 -0.2616 -0.6362 -0.5750
  319MOL0     C42992   2.501   3.416   5.401 -0.4387 -0.0044  0.0400
  319MOL0     C42993   2.356   3.388   5.367 -1.2268 -0.0711  0.8216
  319MOL0     C42994   2.323   3.398   5.229 -0.3412  0.7162 -0.2768
  319MOL0     C42995   2.278   3.406   5.117  0.0817  0.0330 -0.3069
  319MOL0     C42996   2.889   3.885   5.304 -0.6792 -0.3975  0.0080
  319MOL0     C42997   3.021   3.935   5.298  0.3180  0.0352 -0.1125
  319MOL0     H42998   3.536   3.784   5.481  3.0391 -1.0025  2.5123
  319MOL0     H42999   3.761   3.876   5.513  1.1206 -0.9674 -1.4289
  319MOL0     H43000   3.960   3.987   5.522  0.6157  0.8813  0.3833
  319MOL0     H43001   4.015   3.956   5.355 -2.4095 -1.0667  0.3631
  319MOL0     H43002   4.040   4.233   5.471 -2.1444 -1.3000  1.2647
  319MOL0     H43003   4.172   4.113   5.493 -0.1228 -1.0240 -0.6795
  319MOL0     H43004   4.174   4.087   5.245  0.4304  0.9420 -1.5014
  319MOL0     H43005   4.044   4.196   5.223  0.6223 -1.1608 -1.1713
  319MOL0     H43006   4.158   4.375   5.209 -0.0577 -3.3883 -2.4216
  319MOL0     H43007   4.215   4.357   5.375  3.0695 -0.7469  1.4339
  319MOL0     H43008   4.340   4.222   5.137  0.8633  1.2339 -0.1519
  319MOL0     H43009   4.396   4.383   5.199  0.9610 -0.6901 -1.6889
  319MOL0     H43010   4.475   4.286   5.406  3.3988  1.6684 -3.0185
  319MOL0     H43011   4.387   4.128   5.369 -0.8346  0.5726 -0.4391
  319MOL0     H43012   4.630   4.133   5.338  1.4072 -0.7232 -0.4242
  319MOL0     H43013   4.529   4.099   5.186 -2.9645  0.2770  1.5625
  319MOL0     H43014   4.684   4.352   5.246 -2.4824 -1.7048  3.3903
  319MOL0     H43015   4.591   4.307   5.094 -1.8503 -1.1161  1.3693
  319MOL0     H43016   4.703   4.072   4.983  0.9898 -4.1221  0.8787
  319MOL0     H43017   4.944   3.913   4.913  1.7533 -0.6913  0.0487
  319MOL0     H43018   5.074   3.900   5.041  1.4410 -2.1079 -4.5467
  319MOL0     H43019   4.779   3.816   5.069  0.5980  0.5792 -3.7248
  319MOL0     H43020   4.912   3.771   5.182 -1.7469 -1.9346 -0.0950
  319MOL0     H43021   4.941   3.583   5.079  0.5178 -1.2874 -0.1077
  319MOL0     H43022   5.014   3.669   4.948  1.5310 -4.0443  1.5769
  319MOL0     H43023   4.715   3.644   4.974  0.6629  3.9091  0.9222
  319MOL0     H43024   4.817   3.523   4.876  0.0158 -0.9304  1.8034
  319MOL0     H43025   4.836   3.899   4.641 -0.1626 -0.4839 -0.6155
  319MOL0     H43026   4.582   4.142   4.483  1.8442  3.4236  0.3605
  319MOL0     H43027   4.687   4.199   4.613 -3.9594  1.0764  1.8583
  319MOL0     H43028   4.744   4.103   4.472 -0.3913  4.2945 -1.0549
  319MOL0     H43029   4.161   4.094   4.965  0.5220  1.4782  2.4246
  319MOL0     H43030   3.915   4.175   4.984  0.1301  1.4357 -0.0982
  319MOL0     H43031   3.708   4.245   4.963  2.9323 -0.0882 -0.0770
  319MOL0     H43032   3.581   4.254   4.834  1.3177 -0.0716 -1.6172
  319MOL0     H43033   3.743   4.010   4.839 -0.4928 -1.1023 -0.0207
  319MOL0     H43034   3.632   4.038   4.974  2.4727  1.6837  0.8934
  319MOL0     H43035   3.445   4.067   4.785  0.5049  0.9856 -0.3584
  319MOL0     H43036   3.526   3.910   4.797  0.7346 -0.9264  0.4797
  319MOL0     H43037   3.694   4.041   4.616  0.3882  0.9600  0.7959
  319MOL0     H43038   3.574   3.917   4.591  0.2146  0.4104 -0.0788
  319MOL0     H43039   3.553   4.099   4.430 -0.7181  2.5047 -0.8463
  319MOL0     H43040   3.531   4.214   4.560 -0.9751 -1.1560  4.2094
  319MOL0     H43041   3.340   3.984   4.504  3.1685 -1.2097  1.5607
  319MOL0     H43042   3.330   4.112   4.626  0.0056 -1.1612  0.6368
  319MOL0     H43043   3.349   4.188   4.324  2.2257  1.9346  1.2367
  319MOL0     H43044   3.312   4.287   4.465  1.3556 -0.0914  0.1009
  319MOL0     H43045   3.097   4.254   4.382  0.9958  1.7392  2.0083
  319MOL0     H43046   3.110   4.146   4.507  0.1256  0.0323 -0.1867
  319MOL0     H43047   3.927   4.284   4.576  1.6132 -0.8888 -0.6868
  319MOL0     H43048   4.164   4.216   4.557  3.1884 -3.8925  2.2863
  319MOL0     H43049   4.361   3.859   4.785 -0.8275 -0.0358 -1.7268
  319MOL0     H43050   4.534   3.680   4.845  2.6245 -1.2547  1.2146
  319MOL0     H43051   3.670   4.182   5.218 -0.4092  0.0554 -0.3333
  319MOL0     H43052   3.469   4.067   5.163  0.5585 -1.3511 -0.6971
  319MOL0     H43053   3.206   3.675   5.404  0.6705  0.5339  3.7879
  319MOL0     H43054   2.968   3.575   5.433 -0.9869 -0.4793 -1.1505
  319MOL0     H43055   2.780   3.513   5.374 -0.1043 -1.7911  1.2704
  319MOL0     H43056   2.708   3.583   5.518  3.0928  1.9136 -0.1599
  319MOL0     H43057   2.560   3.576   5.253 -0.4709  1.5235 -0.2288
  319MOL0     H43058   2.501   3.637   5.403 -0.8506 -1.0283 -0.6333
  319MOL0     H43059   2.519   3.407   5.508 -0.2764  2.3314  0.2433
  319MOL0     H43060   2.561   3.332   5.364  1.9952  0.9210  1.6432
  319MOL0     H43061   2.290   3.457   5.420 -1.6207 -0.8213  1.3308
  319MOL0     H43062   2.324   3.294   5.413  1.8828 -0.2499  2.8765
  319MOL0     H43063   2.255   3.396   5.013 -0.4512  0.6501 -0.2507
  319MOL0     H43064   2.797   3.928   5.266  0.7366  0.8522 -2.2271
  319MOL0     H43065   3.048   4.040   5.288  0.5171 -0.0516 -0.4736
  320MOL0     O43066   5.321   9.578   7.158 -0.1599  0.5297  0.5994
  320MOL0     C43067   5.413   9.526   7.103  0.3613  0.1094 -0.0726
  320MOL0     O43068   5.410   9.455   6.985  0.0001 -0.0495 -0.8661
  320MOL0     C43069   5.295   9.424   6.919 -0.9882  0.0152 -0.2154
  320MOL0     C43070   5.294   9.300   6.863  0.6175  0.9679 -0.2223
  320MOL0     C43071   5.190   9.259   6.778  0.8949 -0.2497 -0.5893
  320MOL0     C43072   5.081   9.346   6.762 -0.4996 -0.8363 -0.2152
  320MOL0     O43073   4.972   9.297   6.698  0.8095  0.2746  0.7623
  320MOL0     C43074   4.846   9.367   6.701 -0.3087  0.7682  0.3703
  320MOL0     C43075   4.798   9.418   6.570 -0.1966 -0.3165 -0.3000
  320MOL0     C43076   4.647   9.440   6.594  0.3196 -0.0552  0.6846
  320MOL0     C43077   4.573   9.496   6.472  0.9176 -0.7801 -0.2076
  320MOL0     C43078   4.419   9.517   6.486 -0.5756 -1.1382 -0.5180
  320MOL0     C43079   4.366   9.493   6.630  0.9019 -0.6261  0.3598
  320MOL0     C43080   4.220   9.514   6.654  0.1059 -0.5778  1.3612
  320MOL0     C43081   4.191   9.546   6.803  0.5335  0.5512 -0.0605
  320MOL0     N43082   4.047   9.554   6.826 -0.2126  0.5494  0.5225
  320MOL0     C43083   3.968   9.664   6.780 -1.1676  0.0882  0.2531
  320MOL0     C43084   3.842   9.638   6.833  0.0376 -0.6211 -0.4287
  320MOL0     C43085   3.724   9.721   6.804  0.5609  0.3685  0.2778
  320MOL0     C43086   3.623   9.720   6.923 -1.3375  0.1033 -0.6507
  320MOL0     C43087   3.612   9.847   6.999 -0.0117  0.4488  0.3474
  320MOL0     C43088   3.544   9.844   7.132 -0.5825 -0.5929 -0.1614
  320MOL0     O43089   3.421   9.777   7.132 -0.5228 -0.2060  0.8332
  320MOL0     C43090   3.342   9.819   7.234  0.0628 -0.5864 -0.4072
  320MOL0     C43091   3.362   9.789   7.369 -0.0487 -0.7322  0.4673
  320MOL0     C43092   3.274   9.837   7.467 -0.0805  0.1463 -1.0457
  320MOL0     C43093   3.304   9.786   7.606  0.2550 -0.0420  0.4651
  320MOL0     C43094   3.160   9.921   7.434 -0.1793  0.1205 -0.2189
  320MOL0     C43095   3.058   9.979   7.532 -1.1327 -0.1053  0.1878
  320MOL0     O43096   2.949  10.045   7.469  0.4219  0.2311 -0.6647
  320MOL0     C43097   2.855  10.113   7.550 -0.4743  0.0122 -0.0926
  320MOL0     C43098   2.789  10.050   7.663 -0.3780  0.3869 -0.9979
  320MOL0     C43099   2.694  10.119   7.738 -0.7672  0.2537 -0.9174
  320MOL0     C43100   2.657  10.247   7.695  0.9122  0.1295 -0.4180
  320MOL0     O43101   2.571  10.323   7.773 -0.8979 -0.2675  0.0117
  320MOL0     C43102   2.435  10.294   7.771  0.3667  0.6056 -0.6489
  320MOL0     C43103   2.359  10.392   7.857  0.3904 -1.0686 -0.8023
  320MOL0     C43104   2.210  10.405   7.821  0.1032  1.1095  0.0349
  320MOL0     C43105   2.152  10.503   7.927  0.6437  0.1790 -0.2345
  320MOL0     C43106   1.997  10.494   7.911  0.2036 -0.2580 -0.4223
  320MOL0     C43107   1.931  10.616   7.992  0.8506  0.2076  0.4605
  320MOL0     C43108   1.981  10.632   8.139  0.7581 -0.3571  0.1639
  320MOL0     C43109   1.883  10.716   8.218  0.8800  0.1282 -0.2792
  320MOL0    Cl43110   1.728  10.642   8.258  0.4555  0.0233  0.0120
  320MOL0     C43111   2.709  10.311   7.587  0.3786  0.0116  1.1007
  320MOL0     C43112   2.807  10.244   7.514 -1.0418 -0.8510 -0.6016
  320MOL0     O43113   3.062   9.953   7.656  0.0054  0.0269  0.5063
  320MOL0     C43114   3.137   9.950   7.294  0.1629 -0.2712  0.7279
  320MOL0     C43115   3.225   9.905   7.199 -0.6077  0.1182  0.1267
  320MOL0     N43116   3.845   9.513   6.898 -0.4988 -0.5866  0.5001
  320MOL0     N43117   3.964   9.470   6.890 -0.3297 -0.2641  0.6668
  320MOL0     C43118   5.097   9.486   6.810 -0.6685  0.1314  0.2763
  320MOL0     C43119   5.203   9.525   6.894  0.6102 -0.3038  0.1923
  320MOL0     C43120   5.545   9.548   7.163  1.0548 -0.3462 -0.1920
  320MOL0     C43121   5.562   9.633   7.275 -0.9332 -0.9067 -0.5667
  320MOL0     C43122   5.678   9.657   7.342  0.0942 -0.5713 -0.0744
  320MOL0     C43123   5.794   9.602   7.295 -0.2286  0.3046  0.3955
  320MOL0     O43124   5.916   9.610   7.355  0.0047 -0.1861  0.0542
  320MOL0     C43125   5.949   9.712   7.453  0.4988  0.0896 -0.1759
  320MOL0     C43126   6.095   9.700   7.500 -0.0355  0.2397  0.8348
  320MOL0     C43127   6.144   9.557   7.499  0.7457 -0.4184 -0.1240
  320MOL0     C43128   6.271   9.566   7.594  0.3078  0.0201  0.1506
  320MOL0     C43129   6.308   9.430   7.611 -0.0436  0.4712 -0.5346
  320MOL0     C43130   6.333   9.307   7.619 -0.0503  0.5359 -0.3410
  320MOL0     C43131   5.784   9.511   7.185 -0.4261  0.2842 -0.9124
  320MOL0     C43132   5.661   9.477   7.125 -0.7644 -0.1308 -0.1412
  320MOL0     H43133   5.377   9.234   6.885  1.7503  2.1656 -0.7443
  320MOL0     H43134   5.183   9.156   6.746 -3.7545 -0.1922 -0.4780
  320MOL0     H43135   4.778   9.287   6.732  2.4765 -2.0521 -0.2697
  320MOL0     H43136   4.842   9.447   6.775  2.5920  0.8939  0.5185
  320MOL0     H43137   4.855   9.510   6.556 -0.3593 -0.4207 -1.8140
  320MOL0     H43138   4.816   9.352   6.485  1.3011 -1.1470  0.6267
  320MOL0     H43139   4.607   9.339   6.606  0.1444 -0.1598 -0.6370
  320MOL0     H43140   4.619   9.497   6.684 -0.4220 -0.0456  0.4572
  320MOL0     H43141   4.626   9.586   6.440  3.0295 -1.3464  1.4199
  320MOL0     H43142   4.570   9.421   6.392 -2.3864 -0.7914 -0.1901
  320MOL0     H43143   4.395   9.621   6.462  2.1347  0.1796  1.8423
  320MOL0     H43144   4.367   9.449   6.417 -2.8634 -1.0112  0.9824
  320MOL0     H43145   4.390   9.388   6.649  0.7315 -1.1298 -1.8890
  320MOL0     H43146   4.415   9.569   6.693  1.2243 -0.6470  0.1347
  320MOL0     H43147   4.181   9.592   6.589  0.3424  0.3963  2.3539
  320MOL0     H43148   4.168   9.424   6.619 -1.3153 -0.1857  2.3915
  320MOL0     H43149   4.245   9.638   6.830  2.8408 -0.5481 -0.6606
  320MOL0     H43150   4.218   9.469   6.875 -1.2110  1.1579  1.3056
  320MOL0     H43151   4.006   9.739   6.711 -1.4066 -0.0379 -0.0192
  320MOL0     H43152   3.751   9.827   6.792  0.0988  0.3281 -1.2993
  320MOL0     H43153   3.673   9.685   6.715 -0.2876  2.2267 -0.0369
  320MOL0     H43154   3.642   9.633   6.986 -1.4514  0.0340 -0.7131
  320MOL0     H43155   3.530   9.692   6.874 -0.7171  0.4029 -2.0482
  320MOL0     H43156   3.560   9.918   6.934 -0.4690 -1.4277 -1.4440
  320MOL0     H43157   3.710   9.895   6.988 -0.5966  1.6199 -0.0342
  320MOL0     H43158   3.532   9.948   7.165  0.6210  0.1779 -1.9773
  320MOL0     H43159   3.618   9.798   7.198  0.1286 -0.1758 -0.6499
  320MOL0     H43160   3.454   9.739   7.393  1.5095  1.4398 -0.6297
  320MOL0     H43161   3.234   9.706   7.632 -0.2275  0.6554  1.3698
  320MOL0     H43162   3.408   9.757   7.625  0.2147 -1.8503 -1.6614
  320MOL0     H43163   3.281   9.867   7.676 -0.2745  0.7063 -0.5639
  320MOL0     H43164   2.821   9.948   7.681 -0.6677  0.2670 -1.1448
  320MOL0     H43165   2.648  10.071   7.823 -1.9753 -0.1906 -1.7923
  320MOL0     H43166   2.394  10.303   7.670 -0.6391  1.4438 -0.1773
  320MOL0     H43167   2.412  10.191   7.802 -1.7160  0.7121 -1.6881
  320MOL0     H43168   2.377  10.360   7.960 -1.3039 -0.8988 -0.4306
  320MOL0     H43169   2.403  10.492   7.856 -1.7449 -0.0428  0.4430
  320MOL0     H43170   2.170  10.304   7.829  0.7243  0.9216  0.9664
  320MOL0     H43171   2.191  10.454   7.725 -3.4797  1.8271  0.9778
  320MOL0     H43172   2.183  10.480   8.029 -1.9266  1.9475  1.0370
  320MOL0     H43173   2.177  10.609   7.910 -1.1552  0.5559 -0.7336
  320MOL0     H43174   1.961  10.402   7.958  0.4225 -0.2353 -0.2057
  320MOL0     H43175   1.960  10.500   7.808  0.6136 -3.4939 -0.8789
  320MOL0     H43176   1.957  10.706   7.937  1.2168  1.9197  3.2182
  320MOL0     H43177   1.824  10.591   7.992  0.8854 -0.0221 -1.1812
  320MOL0     H43178   2.073  10.690   8.131  2.4934 -3.1977 -2.6765
  320MOL0     H43179   1.998  10.536   8.189 -0.9989 -2.0756 -2.2737
  320MOL0     H43180   1.859  10.809   8.167  1.0778 -0.1429 -0.8734
  320MOL0     H43181   1.928  10.740   8.315  2.2179 -3.2926  0.1014
  320MOL0     H43182   2.670  10.410   7.566 -0.9685 -0.7473 -0.2144
  320MOL0     H43183   2.853  10.291   7.428  3.8692 -0.7449  1.7326
  320MOL0     H43184   3.053  10.008   7.255  0.0516 -1.7467 -1.4082
  320MOL0     H43185   3.204   9.931   7.096  0.0464 -0.9070 -0.2818
  320MOL0     H43186   5.024   9.561   6.782  0.5913  0.0246 -4.1420
  320MOL0     H43187   5.198   9.623   6.939  2.3778  1.1475 -2.5400
  320MOL0     H43188   5.482   9.695   7.315 -1.3315 -1.6221 -0.2225
  320MOL0     H43189   5.677   9.713   7.435 -1.2798 -1.1043  0.2685
  320MOL0     H43190   5.917   9.813   7.427 -1.5394 -0.8531 -1.6873
  320MOL0     H43191   5.898   9.681   7.545  0.0594  2.7608  0.5716
  320MOL0     H43192   6.106   9.758   7.592 -2.1268 -1.0236  1.9650
  320MOL0     H43193   6.155   9.753   7.425 -0.8724 -0.3427 -0.2798
  320MOL0     H43194   6.178   9.531   7.398 -0.2058 -0.6173 -0.4050
  320MOL0     H43195   6.072   9.481   7.531  1.7851 -1.2698  0.2597
  320MOL0     H43196   6.258   9.607   7.694 -0.9124  0.1710 -0.0507
  320MOL0     H43197   6.342   9.627   7.537  2.5284 -0.1312  2.5799
  320MOL0     H43198   6.357   9.203   7.623 -1.9163 -0.0732 -2.7352
  320MOL0     H43199   5.870   9.448   7.165  0.6696  1.5561 -0.3660
  320MOL0     H43200   5.657   9.400   7.049  0.3957  0.4973 -0.8789
  321MOL0     O43201  10.580  11.019  10.295  0.6803 -0.0045 -0.5859
  321MOL0     C43202  10.542  11.024  10.409 -0.8656  0.0836  0.5419
  321MOL0     O43203  10.421  10.990  10.466 -0.1779 -0.9945  0.1842
  321MOL0     C43204  10.320  10.944  10.387  0.4611  0.7188 -0.4158
  321MOL0     C43205  10.187  10.995  10.402  1.8814  0.1253 -0.3980
  321MOL0     C43206  10.078  10.943  10.328  0.5395  0.2859  0.5396
  321MOL0     C43207  10.099  10.837  10.242  0.4884 -0.6479  0.2811
  321MOL0     O43208   9.999  10.777  10.165  0.0396  0.3371 -0.3569
  321MOL0     C43209   9.870  10.756  10.231  0.0415 -0.9927  0.4217
  321MOL0     C43210   9.782  10.667  10.135 -0.6851 -0.0463 -0.2220
  321MOL0     C43211   9.651  10.633  10.205 -0.0622 -0.1971 -0.4899
  321MOL0     C43212   9.547  10.583  10.110  1.0917 -0.4799 -0.4084
  321MOL0     C43213   9.417  10.546  10.187 -0.7124 -0.3622  0.5604
  321MOL0     C43214   9.336  10.670  10.234 -0.4133 -0.5998 -0.5318
  321MOL0     C43215   9.284  10.769  10.129 -0.6980 -0.7596 -0.0273
  321MOL0     C43216   9.195  10.703  10.030 -0.4873 -0.1982 -0.4482
  321MOL0     N43217   9.087  10.640  10.095  0.1410 -0.1566 -0.8315
  321MOL0     C43218   9.059  10.514  10.086  0.7428  0.3792  0.1662
  321MOL0     C43219   8.926  10.504  10.120 -0.6141 -1.2247  0.0519
  321MOL0     C43220   8.841  10.384  10.125  0.3899  0.5612  1.1062
  321MOL0     C43221   8.724  10.383  10.226 -0.8772 -0.0659  0.2783
  321MOL0     C43222   8.760  10.344  10.375 -1.2152  0.0558  0.1133
  321MOL0     C43223   8.634  10.321  10.465  0.0361 -0.4890  0.3485
  321MOL0     O43224   8.563  10.212  10.414 -0.6442 -0.2101 -0.1706
  321MOL0     C43225   8.461  10.187  10.506 -0.8699  0.4612  0.5895
  321MOL0     C43226   8.337  10.203  10.460 -0.1813  0.3306 -0.2267
  321MOL0     C43227   8.225  10.186  10.540  0.4596  0.3183  0.2388
  321MOL0     C43228   8.088  10.209  10.480  0.1261  0.1830  0.1897
  321MOL0     C43229   8.240  10.143  10.676 -1.2346  0.0018 -0.8540
  321MOL0     C43230   8.129  10.133  10.776 -0.5371  0.4681 -1.3027
  321MOL0     O43231   8.036  10.232  10.773 -0.7507  0.3161  0.3063
  321MOL0     C43232   7.929  10.213  10.861 -0.1813  0.2545  0.6834
  321MOL0     C43233   7.810  10.155  10.811 -0.3607 -0.7402  0.0775
  321MOL0     C43234   7.691  10.144  10.892 -0.3143  0.1311  0.3195
  321MOL0     C43235   7.675  10.200  11.015 -0.0060  0.8260  0.0523
  321MOL0     O43236   7.556  10.205  11.081  0.2133 -0.1771 -0.0338
  321MOL0     C43237   7.541  10.292  11.182  0.5896 -0.5590 -0.9333
  321MOL0     C43238   7.408  10.285  11.257 -0.1598 -0.2224 -0.1607
  321MOL0     C43239   7.300  10.353  11.167  0.2868  0.2330 -0.7452
  321MOL0     C43240   7.159  10.336  11.234 -0.1192 -0.9067  0.2281
  321MOL0     C43241   7.036  10.406  11.170  1.1910  0.2557 -0.6514
  321MOL0     C43242   6.904  10.374  11.237  0.5033  0.8479 -0.0528
  321MOL0     C43243   6.780  10.444  11.186 -0.0124  0.6142 -0.0994
  321MOL0     C43244   6.651  10.364  11.225 -0.5523 -0.0728  0.5016
  321MOL0    Cl43245   6.625  10.341  11.389  0.0159  0.1306 -0.0870
  321MOL0     C43246   7.796  10.269  11.064  0.6531 -0.4791  0.7210
  321MOL0     C43247   7.919  10.268  10.991  0.5142 -0.1549 -0.1442
  321MOL0     O43248   8.142  10.050  10.867 -0.2712 -0.1252  1.2006
  321MOL0     C43249   8.370  10.121  10.713 -0.6875  1.3426 -0.4342
  321MOL0     C43250   8.477  10.143  10.634 -0.0053 -0.4615 -0.6968
  321MOL0     N43251   8.873  10.629  10.149 -0.3272  0.2258  0.0211
  321MOL0     N43252   8.971  10.711  10.134 -0.1405  0.8225  0.7609
  321MOL0     C43253  10.232  10.791  10.217  0.6302  0.4689 -0.6745
  321MOL0     C43254  10.339  10.849  10.284 -0.5747 -0.5425 -0.6690
  321MOL0     C43255  10.637  11.062  10.502  0.4228 -0.0849  0.4775
  321MOL0     C43256  10.632  11.021  10.633 -0.4153  0.0272 -2.0478
  321MOL0     C43257  10.742  11.043  10.724  0.3015 -0.6060 -0.1367
  321MOL0     C43258  10.853  11.115  10.681 -0.1001  0.6753 -0.7868
  321MOL0     O43259  10.970  11.147  10.753 -0.0737 -0.3517 -0.1891
  321MOL0     C43260  10.989  11.055  10.861 -0.0516  0.2061  0.6365
  321MOL0     C43261  11.133  11.060  10.900  0.5327  0.5498  0.4299
  321MOL0     C43262  11.230  11.016  10.796 -0.5422  0.5400  1.0870
  321MOL0     C43263  11.366  11.099  10.788  0.0169  0.3519  0.0001
  321MOL0     C43264  11.465  11.020  10.871 -0.7055  0.7434  0.5021
  321MOL0     C43265  11.554  10.973  10.938  0.2051  0.5599  1.3086
  321MOL0     C43266  10.851  11.157  10.551 -0.8326  0.7544  0.6807
  321MOL0     C43267  10.747  11.136  10.460  0.0381 -0.9333 -1.4634
  321MOL0     H43268  10.161  11.078  10.467 -3.7711 -1.8959  0.4799
  321MOL0     H43269   9.982  10.993  10.326  0.0479 -0.6486  0.0894
  321MOL0     H43270   9.881  10.702  10.325  0.2873 -0.1850  0.8688
  321MOL0     H43271   9.830  10.856  10.249  4.4688  1.6262 -2.3434
  321MOL0     H43272   9.769  10.726  10.043 -1.7322 -1.3078 -0.9180
  321MOL0     H43273   9.830  10.573  10.106 -0.3333 -0.1284  0.6007
  321MOL0     H43274   9.677  10.552  10.273 -0.3141  1.2523  1.4299
  321MOL0     H43275   9.606  10.713  10.264 -1.1295 -0.9317 -0.2848
  321MOL0     H43276   9.522  10.645  10.024 -1.2811 -1.3334 -0.4212
  321MOL0     H43277   9.582  10.491  10.064  2.2710 -0.3360  0.1768
  321MOL0     H43278   9.362  10.481  10.119  1.1994 -1.7253  0.2361
  321MOL0     H43279   9.442  10.483  10.273 -3.0653 -1.3918  0.5676
  321MOL0     H43280   9.249  10.624  10.280 -2.3245 -0.3416 -3.6277
  321MOL0     H43281   9.392  10.729  10.308  1.2752 -1.3125 -1.1831
  321MOL0     H43282   9.233  10.849  10.183  2.2453 -0.9678  3.4139
  321MOL0     H43283   9.367  10.808  10.069 -0.0963 -0.8578  0.7329
  321MOL0     H43284   9.260  10.630   9.982  1.0331  1.1383 -0.5063
  321MOL0     H43285   9.149  10.770   9.957 -3.8756 -0.9672  0.8100
  321MOL0     H43286   9.121  10.431  10.053  0.9975  0.4676  0.4256
  321MOL0     H43287   8.803  10.358  10.026  0.7629 -1.1005  1.3606
  321MOL0     H43288   8.903  10.297  10.150  0.5322  0.4427  0.3617
  321MOL0     H43289   8.636  10.325  10.199 -0.7283 -2.4964  4.2623
  321MOL0     H43290   8.672  10.479  10.231 -4.5965 -1.6325 -3.0695
  321MOL0     H43291   8.822  10.422  10.419 -1.8667  1.4955 -1.4157
  321MOL0     H43292   8.820  10.253  10.383 -1.8113 -0.7936 -3.3191
  321MOL0     H43293   8.569  10.409  10.468  2.5490  1.4778  0.7402
  321MOL0     H43294   8.677  10.309  10.565  1.7551  0.3349 -0.2435
  321MOL0     H43295   8.330  10.240  10.358 -0.4591  1.9971  0.3583
  321MOL0     H43296   8.060  10.314  10.486  1.2860  0.5913 -1.0328
  321MOL0     H43297   8.090  10.176  10.375  0.3044  1.0588 -0.0854
  321MOL0     H43298   8.009  10.154  10.532  0.0565  1.4238  1.4356
  321MOL0     H43299   7.810  10.105  10.714  0.9128  0.7030 -0.7023
  321MOL0     H43300   7.609  10.082  10.856 -2.8368  1.1632  3.7827
  321MOL0     H43301   7.610  10.280  11.266 -0.4963  2.5258  0.5398
  321MOL0     H43302   7.567  10.391  11.144 -0.4413  0.6947  1.4505
  321MOL0     H43303   7.397  10.178  11.273  1.2198 -0.9771 -3.3299
  321MOL0     H43304   7.416  10.334  11.354  1.4235 -1.0052  0.1321
  321MOL0     H43305   7.298  10.296  11.074 -0.2091  0.2303 -0.7337
  321MOL0     H43306   7.341  10.451  11.142 -0.4360  1.2278  1.6503
  321MOL0     H43307   7.142  10.229  11.245 -0.7794 -0.8019  0.2514
  321MOL0     H43308   7.168  10.375  11.336  0.0198 -0.6309  0.1114
  321MOL0     H43309   7.024  10.378  11.065 -2.3473 -1.1103 -0.0173
  321MOL0     H43310   7.039  10.515  11.168 -0.1057  0.3372  0.5089
  321MOL0     H43311   6.892  10.266  11.227  0.3071  0.8611  0.0270
  321MOL0     H43312   6.916  10.394  11.344  0.6060  1.5546 -0.1927
  321MOL0     H43313   6.799  10.449  11.079  2.4917  0.7958  0.3013
  321MOL0     H43314   6.770  10.545  11.227 -3.1355  1.3246 -2.2296
  321MOL0     H43315   6.625  10.275  11.166 -3.8259  1.2988 -0.3478
  321MOL0     H43316   6.565  10.426  11.198 -0.3244 -0.3721 -1.0142
  321MOL0     H43317   7.791  10.338  11.148  0.3595 -0.4805  0.7026
  321MOL0     H43318   7.992  10.345  11.016 -0.1432  0.8778 -1.3256
  321MOL0     H43319   8.400  10.108  10.817  2.5086 -0.3137 -1.4175
  321MOL0     H43320   8.570  10.142  10.690 -2.9258  1.3150  4.8588
  321MOL0     H43321  10.265  10.707  10.157  3.2473  0.7044  0.3324
  321MOL0     H43322  10.440  10.811  10.270 -0.6177  0.0247 -2.8504
  321MOL0     H43323  10.548  10.963  10.670  0.4619 -0.9716 -1.5484
  321MOL0     H43324  10.728  11.002  10.824 -1.5834 -0.1374 -0.1743
  321MOL0     H43325  10.921  11.089  10.940 -0.5720  2.1197 -0.5674
  321MOL0     H43326  10.965  10.953  10.829 -0.0143 -0.0543  1.4301
  321MOL0     H43327  11.146  11.019  11.001 -0.9652  2.7128  1.5841
  321MOL0     H43328  11.150  11.166  10.919 -0.3546  0.5000  1.6266
  321MOL0     H43329  11.185  11.002  10.697 -2.8573  0.7204  2.0327
  321MOL0     H43330  11.261  10.913  10.814 -1.9326 -0.5571 -1.9454
  321MOL0     H43331  11.348  11.197  10.833 -4.0019  1.0467 -2.5899
  321MOL0     H43332  11.400  11.114  10.685  1.2244 -0.6747  0.2227
  321MOL0     H43333  11.629  10.921  10.994  0.7000 -0.0997  0.0941
  321MOL0     H43334  10.945  11.200  10.518 -0.4989  0.0351  0.6793
  321MOL0     H43335  10.766  11.168  10.358  2.6033 -0.6405 -0.9815
  322MOL0     O43336   6.735   2.763   3.890 -0.1830 -0.2605  0.2693
  322MOL0     C43337   6.739   2.835   3.994 -0.6787  0.3427  0.0237
  322MOL0     O43338   6.649   2.927   4.019 -0.1879 -0.3261  0.0190
  322MOL0     C43339   6.569   2.980   3.922  0.0089  0.5264  0.9846
  322MOL0     C43340   6.448   2.914   3.896 -0.5468  0.4965 -0.0560
  322MOL0     C43341   6.350   2.973   3.811 -0.2358 -0.0957 -0.4438
  322MOL0     C43342   6.386   3.092   3.742 -1.4354 -0.0292  0.2279
  322MOL0     O43343   6.308   3.163   3.655  0.4224 -0.0549 -1.0197
  322MOL0     C43344   6.186   3.108   3.596 -0.0586 -0.0415 -0.3441
  322MOL0     C43345   6.076   3.206   3.630  0.0243  0.0434  0.2497
  322MOL0     C43346   5.940   3.164   3.562 -0.3573  0.3252 -0.2064
  322MOL0     C43347   5.828   3.251   3.629 -0.3635 -0.1814 -0.3804
  322MOL0     C43348   5.692   3.175   3.635  0.4561  0.5165 -0.4989
  322MOL0     C43349   5.584   3.260   3.693  0.4221 -0.4166  0.1813
  322MOL0     C43350   5.444   3.195   3.711  0.3381 -0.5966 -0.7815
  322MOL0     C43351   5.374   3.149   3.583  0.0699 -0.3545 -0.7827
  322MOL0     N43352   5.235   3.106   3.607 -0.6475 -0.3583 -0.3984
  322MOL0     C43353   5.192   2.984   3.659 -0.1909 -0.5736 -1.1533
  322MOL0     C43354   5.064   2.983   3.633  0.7661  0.3858 -0.1639
  322MOL0     C43355   4.965   2.876   3.684 -0.4402 -0.5181  0.3520
  322MOL0     C43356   4.997   2.727   3.652  0.5412  0.9589 -0.0554
  322MOL0     C43357   5.015   2.704   3.499  0.0537 -0.2363  0.0434
  322MOL0     C43358   5.094   2.583   3.465  0.2905  0.8612  0.0892
  322MOL0     O43359   5.013   2.463   3.476  0.5250 -0.0942 -0.3757
  322MOL0     C43360   4.936   2.431   3.368 -0.2009 -1.0236 -0.0260
  322MOL0     C43361   4.890   2.304   3.369  0.1130 -0.1311 -0.7140
  322MOL0     C43362   4.820   2.246   3.261 -0.6485  0.4309  0.5368
  322MOL0     C43363   4.754   2.114   3.291 -0.1044 -0.0124 -0.6827
  322MOL0     C43364   4.784   2.326   3.149 -0.4247  0.0211 -0.1326
  322MOL0     C43365   4.694   2.292   3.042 -0.2851 -0.3060 -0.5399
  322MOL0     O43366   4.585   2.212   3.074 -0.4876 -0.3186 -0.3081
  322MOL0     C43367   4.501   2.156   2.979  0.3152  0.7537  0.5935
  322MOL0     C43368   4.481   2.017   2.982 -0.7302  0.7133 -1.1951
  322MOL0     C43369   4.407   1.949   2.880 -0.1225 -0.8327  0.2491
  322MOL0     C43370   4.355   2.016   2.771  0.6984 -0.1850 -0.3892
  322MOL0     O43371   4.290   1.934   2.675 -0.0502  0.5647  1.0529
  322MOL0     C43372   4.265   1.974   2.537  0.7898  0.3162  0.2641
  322MOL0     C43373   4.177   1.858   2.486  1.0250 -0.1946  0.2534
  322MOL0     C43374   4.248   1.732   2.478  0.5624 -0.4832 -0.1473
  322MOL0     C43375   4.155   1.618   2.444  0.4652 -0.9190  0.3469
  322MOL0     C43376   4.241   1.485   2.439 -0.2732  0.8315  0.1343
  322MOL0     C43377   4.149   1.362   2.427  0.1624  0.5475  0.2008
  322MOL0     C43378   4.095   1.347   2.280  0.3809  0.2742 -0.0978
  322MOL0     C43379   4.028   1.204   2.245 -0.0093  0.0595 -0.2991
  322MOL0    Cl43380   3.970   1.205   2.075  0.6322 -0.0190 -0.1705
  322MOL0     C43381   4.379   2.154   2.768 -0.5725 -1.3659  0.4448
  322MOL0     C43382   4.451   2.222   2.869 -1.1767 -0.1300 -0.3659
  322MOL0     O43383   4.725   2.328   2.926 -0.3210 -0.0844  0.4735
  322MOL0     C43384   4.838   2.455   3.150 -0.0247 -0.0903  0.2209
  322MOL0     C43385   4.918   2.509   3.254  0.2394 -0.1854  0.0306
  322MOL0     N43386   5.026   3.114   3.598  0.6986 -0.6854 -0.3268
  322MOL0     N43387   5.135   3.189   3.579  0.0543  0.0752  0.0283
  322MOL0     C43388   6.511   3.155   3.773  1.1497 -0.5728 -0.8613
  322MOL0     C43389   6.600   3.109   3.869  0.6076  0.6202 -0.5856
  322MOL0     C43390   6.857   2.838   4.092  1.3997 -1.4487  0.4179
  322MOL0     C43391   6.849   2.914   4.208 -0.0870  0.3682 -0.4472
  322MOL0     C43392   6.949   2.900   4.310  0.7743 -0.1223 -0.2120
  322MOL0     C43393   7.060   2.816   4.288  0.6103  0.0679 -0.4720
  322MOL0     O43394   7.164   2.820   4.371 -0.0319 -0.3672 -0.8073
  322MOL0     C43395   7.248   2.932   4.349  0.5043  0.2071  0.5211
  322MOL0     C43396   7.245   3.033   4.462 -0.2689  0.3062  0.5455
  322MOL0     C43397   7.318   2.976   4.581 -0.7257  0.1524 -0.6130
  322MOL0     C43398   7.317   3.069   4.695 -0.8240 -1.1490 -0.4957
  322MOL0     C43399   7.189   3.120   4.734 -0.6067 -0.2519 -1.1228
  322MOL0     C43400   7.086   3.180   4.750 -0.9341  0.5705 -0.3433
  322MOL0     C43401   7.065   2.743   4.169  0.3027  0.0969 -1.0244
  322MOL0     C43402   6.960   2.754   4.074 -0.1690 -0.2147 -0.4839
  322MOL0     H43403   6.444   2.810   3.928  4.0881  0.1492  0.0396
  322MOL0     H43404   6.250   2.934   3.800 -1.3702  2.1368  1.1442
  322MOL0     H43405   6.190   3.094   3.488 -0.5853  0.3472 -0.4190
  322MOL0     H43406   6.171   3.007   3.633  1.6955 -0.6492 -1.1885
  322MOL0     H43407   6.051   3.222   3.735 -3.4280  2.2063 -0.7484
  322MOL0     H43408   6.109   3.302   3.590 -3.2323  1.1087 -0.1196
  322MOL0     H43409   5.950   3.179   3.454 -0.0058 -1.5600 -0.4734
  322MOL0     H43410   5.920   3.058   3.580  1.1984 -0.1600 -1.0785
  322MOL0     H43411   5.854   3.282   3.731  0.2347 -3.5361  0.5949
  322MOL0     H43412   5.825   3.344   3.572  0.4710  0.0687 -0.0321
  322MOL0     H43413   5.666   3.141   3.535  0.8598  0.8433 -0.7181
  322MOL0     H43414   5.703   3.090   3.703  0.7159  1.3251  0.4820
  322MOL0     H43415   5.626   3.290   3.789  0.8211  1.6581 -0.5678
  322MOL0     H43416   5.566   3.357   3.645 -0.6323 -1.5126 -1.8015
  322MOL0     H43417   5.449   3.115   3.785 -1.7069 -0.0505  0.0498
  322MOL0     H43418   5.393   3.278   3.763 -1.5878 -2.5261  0.5812
  322MOL0     H43419   5.426   3.064   3.538 -1.4702  0.8454 -5.2918
  322MOL0     H43420   5.379   3.236   3.516  1.6452 -0.1273 -0.4247
  322MOL0     H43421   5.249   2.898   3.693 -1.2808 -1.4292 -1.4311
  322MOL0     H43422   4.964   2.891   3.792 -1.9783 -0.2603  0.3221
  322MOL0     H43423   4.870   2.911   3.642  0.5581  1.5836 -0.2968
  322MOL0     H43424   4.908   2.672   3.686  0.9376 -0.6543 -1.4450
  322MOL0     H43425   5.091   2.689   3.693  0.5185  1.6732  0.6678
  322MOL0     H43426   5.067   2.791   3.456  1.0836 -0.9319 -0.1546
  322MOL0     H43427   4.915   2.698   3.456  0.4664  0.5902 -1.0791
  322MOL0     H43428   5.162   2.564   3.549  0.3256 -0.8920 -0.2902
  322MOL0     H43429   5.149   2.591   3.371 -1.3842  1.5924 -0.8709
  322MOL0     H43430   4.913   2.260   3.465  2.8763  0.6498 -0.9295
  322MOL0     H43431   4.815   2.053   3.358 -1.9633  2.2665  3.4984
  322MOL0     H43432   4.656   2.128   3.339  0.6033  0.5658  0.6511
  322MOL0     H43433   4.734   2.053   3.202  0.0322 -3.0148  1.2101
  322MOL0     H43434   4.511   1.964   3.072 -1.1946  1.4930 -0.5735
  322MOL0     H43435   4.389   1.843   2.869 -0.4534 -0.5200 -3.4460
  322MOL0     H43436   4.210   2.068   2.549  0.5017 -0.0442  2.1650
  322MOL0     H43437   4.347   1.983   2.465 -1.1302  0.7899 -1.9831
  322MOL0     H43438   4.096   1.845   2.557  0.6542 -0.9259 -0.2937
  322MOL0     H43439   4.136   1.888   2.389 -3.2907 -2.4194  1.1659
  322MOL0     H43440   4.282   1.715   2.581  0.1655 -1.0450 -0.1021
  322MOL0     H43441   4.333   1.724   2.410  0.5775 -1.4872 -0.0260
  322MOL0     H43442   4.071   1.612   2.513 -0.7267 -1.6744 -1.1150
  322MOL0     H43443   4.117   1.640   2.344 -0.1811 -0.9579  0.5829
  322MOL0     H43444   4.290   1.470   2.536 -4.0983 -0.5618  2.0438
  322MOL0     H43445   4.320   1.489   2.363  1.1227 -1.8151  1.2784
  322MOL0     H43446   4.215   1.277   2.442  0.5981  0.1015 -3.3498
  322MOL0     H43447   4.068   1.368   2.500  0.1168  3.8329  0.0275
  322MOL0     H43448   4.181   1.364   2.215  1.6784 -2.8114  0.6595
  322MOL0     H43449   4.018   1.425   2.269  0.9002  0.7165 -0.7086
  322MOL0     H43450   3.949   1.177   2.315 -0.7020 -0.3208 -1.2021
  322MOL0     H43451   4.103   1.125   2.261 -0.2797 -0.0546  0.4136
  322MOL0     H43452   4.365   2.215   2.679  3.8077  0.1278  0.5681
  322MOL0     H43453   4.486   2.324   2.854  0.7791 -0.7680 -0.3198
  322MOL0     H43454   4.823   2.526   3.069  0.7888  0.0044  0.1400
  322MOL0     H43455   4.955   2.611   3.258  1.2337 -0.1819 -4.2772
  322MOL0     H43456   6.527   3.253   3.729  0.6236 -0.7970 -1.5777
  322MOL0     H43457   6.691   3.165   3.892  0.8390  1.0877 -2.4642
  322MOL0     H43458   6.767   2.979   4.237  1.5616  0.7590  4.2218
  322MOL0     H43459   6.957   2.956   4.404  1.5873  0.6966 -0.7514
  322MOL0     H43460   7.353   2.912   4.330  0.0600 -0.1617 -1.8074
  322MOL0     H43461   7.209   3.002   4.274  1.0097  2.0262  1.8733
  322MOL0     H43462   7.139   3.046   4.485 -0.3181 -0.7770  0.9804
  322MOL0     H43463   7.301   3.125   4.440 -0.1093  0.3664  1.1711
  322MOL0     H43464   7.422   2.948   4.562 -1.1070 -1.5018 -0.4388
  322MOL0     H43465   7.269   2.879   4.598  1.3772 -1.2124 -1.9255
  322MOL0     H43466   7.374   3.155   4.659 -0.1111 -0.1373  2.7387
  322MOL0     H43467   7.362   3.031   4.787  2.2509  0.4566 -1.2169
  322MOL0     H43468   6.994   3.227   4.775 -1.9299 -1.5548  0.1610
  322MOL0     H43469   7.156   2.687   4.151 -0.0159 -0.4165 -1.0659
  322MOL0     H43470   6.978   2.701   3.980  1.2783 -2.0381  0.7480
  323MOL0     O43471   5.978  11.328   0.077  0.2121 -1.1699  0.0664
  323MOL0     C43472   6.037  11.388  -0.008  0.1153  0.4055 -0.0980
  323MOL0     O43473   5.992  11.484  -0.090  0.9956  0.2413  0.1348
  323MOL0     C43474   5.872  11.549  -0.063 -0.7059 -0.8897 -0.7059
  323MOL0     C43475   5.752  11.482  -0.036 -1.3167 -0.2525  0.3371
  323MOL0     C43476   5.631  11.557  -0.025 -0.8412  0.1388 -0.8026
  323MOL0     C43477   5.624  11.695  -0.050  0.1403 -0.1250 -1.1154
  323MOL0     O43478   5.505  11.770  -0.046 -0.2906  0.7050 -0.3477
  323MOL0     C43479   5.506  11.907  -0.055  0.4259 -0.0191 -0.0669
  323MOL0     C43480   5.357  11.960  -0.066 -0.7670  0.0293  1.5081
  323MOL0     C43481   5.244  11.895   0.019  0.4329  0.6086  0.0296
  323MOL0     C43482   5.101  11.947   0.002  1.0177 -0.5913  0.8713
  323MOL0     C43483   4.988  11.867   0.073  1.0263 -0.4328 -0.1902
  323MOL0     C43484   4.942  11.747  -0.014  0.2257  0.2364  0.6989
  323MOL0     C43485   4.862  11.648   0.064  0.2673  0.2909 -0.0324
  323MOL0     C43486   4.718  11.687   0.101  0.3701 -0.1615 -0.2633
  323MOL0     N43487   4.623  11.670  -0.012 -0.5438 -0.8043 -0.0330
  323MOL0     C43488   4.543  11.556  -0.022  0.5525 -0.4341 -0.0931
  323MOL0     C43489   4.475  11.573  -0.142 -0.1844  0.1551  0.2915
  323MOL0     C43490   4.372  11.481  -0.192 -0.4398 -0.5915  1.3378
  323MOL0     C43491   4.231  11.523  -0.151 -1.0313 -0.5496 -0.1847
  323MOL0     C43492   4.115  11.457  -0.234  0.1675 -0.2617 -0.2851
  323MOL0     C43493   3.980  11.463  -0.171 -0.0072 -0.1278 -0.4020
  323MOL0     O43494   3.989  11.357  -0.076  0.4764 -0.5416 -0.9372
  323MOL0     C43495   3.868  11.311  -0.017 -0.8410  0.5547 -0.1993
  323MOL0     C43496   3.888  11.194   0.049  0.1340  0.1142  0.0334
  323MOL0     C43497   3.781  11.123   0.107  0.1540 -0.6482 -0.1327
  323MOL0     C43498   3.813  10.981   0.151  0.7862  0.8956  0.2243
  323MOL0     C43499   3.661  11.194   0.123  0.2395 -0.0472 -0.0462
  323MOL0     C43500   3.552  11.148   0.214  1.0173  0.1168  0.7562
  323MOL0     O43501   3.490  11.254   0.270 -0.0246  0.1039 -0.1239
  323MOL0     C43502   3.366  11.233   0.316 -0.2572  0.2434 -0.3541
  323MOL0     C43503   3.251  11.182   0.249  0.3317  0.2997 -0.2495
  323MOL0     C43504   3.130  11.171   0.315  1.0970 -0.3065 -0.1030
  323MOL0     C43505   3.117  11.195   0.457 -0.3925 -0.4181 -0.0578
  323MOL0     O43506   3.009  11.166   0.539  0.3604  1.3631  0.8226
  323MOL0     C43507   2.897  11.118   0.463  0.6839 -0.4071  0.2528
  323MOL0     C43508   2.775  11.134   0.559  0.2098 -0.3954 -0.7792
  323MOL0     C43509   2.761  11.024   0.673 -0.0686 -0.3071 -0.3145
  323MOL0     C43510   2.725  11.073   0.812 -0.5142 -0.4053  0.1713
  323MOL0     C43511   2.608  11.157   0.828  0.7291 -0.0653  0.2599
  323MOL0     C43512   2.475  11.086   0.795 -0.0456 -0.0921 -0.7592
  323MOL0     C43513   2.364  11.172   0.838  0.8567 -0.3672  0.0750
  323MOL0     C43514   2.222  11.127   0.819  0.8283  0.8412 -0.8261
  323MOL0    Cl43515   2.172  10.988   0.944  0.0639  0.1894  0.3255
  323MOL0     C43516   3.230  11.248   0.525  0.1021  0.1694  0.7720
  323MOL0     C43517   3.349  11.258   0.452 -1.0463  1.1139 -0.5152
  323MOL0     O43518   3.522  11.028   0.222 -0.2645  0.7951 -0.2632
  323MOL0     C43519   3.653  11.322   0.065  0.0991  0.0383 -0.1957
  323MOL0     C43520   3.756  11.382  -0.008  1.1114 -0.4308 -0.7151
  323MOL0     N43521   4.525  11.688  -0.199 -0.9015 -0.4788 -0.1776
  323MOL0     N43522   4.609  11.749  -0.124 -0.3175 -0.7535 -0.2060
  323MOL0     C43523   5.744  11.757  -0.079  0.6698  0.3726  0.7491
  323MOL0     C43524   5.865  11.687  -0.077  0.7527 -0.1106 -0.5600
  323MOL0     C43525   6.174  11.349  -0.015  0.2037  0.4982 -0.2576
  323MOL0     C43526   6.250  11.395  -0.127  0.1211  0.7056 -0.6724
  323MOL0     C43527   6.385  11.357  -0.140 -0.5882  0.1143  0.5040
  323MOL0     C43528   6.438  11.262  -0.050 -0.1868 -0.5888 -0.3342
  323MOL0     O43529   6.559  11.208  -0.065 -0.0017 -0.8622 -0.8656
  323MOL0     C43530   6.659  11.298  -0.097 -0.2600 -0.0023  0.0788
  323MOL0     C43531   6.688  11.290  -0.244 -0.1631 -0.5215  0.2805
  323MOL0     C43532   6.745  11.150  -0.280 -0.0978 -0.3816 -0.6683
  323MOL0     C43533   6.887  11.154  -0.337 -0.4560  0.5330  0.3897
  323MOL0     C43534   6.984  11.160  -0.227  0.2935 -0.5969  0.1043
  323MOL0     C43535   7.060  11.151  -0.139 -0.2467 -0.1158  1.1447
  323MOL0     C43536   6.356  11.206   0.053 -0.3528 -1.0536  0.3459
  323MOL0     C43537   6.226  11.244   0.070  0.6943  0.0439 -0.9909
  323MOL0     H43538   5.747  11.374  -0.033  0.8943 -0.3613  2.8899
  323MOL0     H43539   5.538  11.509   0.006  1.1826 -3.0029  0.9309
  323MOL0     H43540   5.549  11.952   0.036  1.5723 -0.6061 -0.3047
  323MOL0     H43541   5.565  11.935  -0.142  1.0601  0.0961  0.3908
  323MOL0     H43542   5.344  12.067  -0.045 -2.5304  0.4482 -1.2489
  323MOL0     H43543   5.329  11.955  -0.172  0.9182  0.3270  1.0142
  323MOL0     H43544   5.236  11.789  -0.008 -0.0271  0.7620 -0.4739
  323MOL0     H43545   5.265  11.897   0.126  0.9099 -1.4503  0.0198
  323MOL0     H43546   5.110  12.050   0.036 -1.5820  0.0654 -0.2489
  323MOL0     H43547   5.068  11.941  -0.102 -2.1490  1.6885  1.5939
  323MOL0     H43548   5.019  11.837   0.174  0.3597 -0.2000  0.0948
  323MOL0     H43549   4.905  11.938   0.081  2.7116  1.5525  0.5934
  323MOL0     H43550   4.892  11.776  -0.107  0.5061 -2.4503 -0.3970
  323MOL0     H43551   5.026  11.690  -0.055 -1.0176 -0.4531 -1.0469
  323MOL0     H43552   4.862  11.563  -0.005 -1.7654  2.2258 -2.6245
  323MOL0     H43553   4.913  11.633   0.159 -0.6465  1.4961  0.6729
  323MOL0     H43554   4.725  11.788   0.144  0.5546 -0.7920  1.2519
  323MOL0     H43555   4.690  11.619   0.181  1.5612  0.0504  0.3563
  323MOL0     H43556   4.539  11.472   0.046  4.0719 -1.7245 -1.2447
  323MOL0     H43557   4.371  11.491  -0.301 -2.9856  0.7249  1.4129
  323MOL0     H43558   4.384  11.375  -0.167 -1.5044 -1.3534 -1.0291
  323MOL0     H43559   4.214  11.630  -0.136  1.8219  0.2573 -1.9950
  323MOL0     H43560   4.220  11.483  -0.050 -1.1538 -1.6197 -0.6172
  323MOL0     H43561   4.142  11.356  -0.266  0.8102 -0.0774 -0.3339
  323MOL0     H43562   4.113  11.510  -0.330  1.4530 -0.8895 -0.6766
  323MOL0     H43563   3.905  11.453  -0.250  1.0397  0.9590 -1.5691
  323MOL0     H43564   3.957  11.556  -0.119 -1.3216  0.4150 -1.8986
  323MOL0     H43565   3.989  11.155   0.041 -0.6924 -1.7898 -2.7062
  323MOL0     H43566   3.744  10.930   0.219  2.4110  0.9623  2.0057
  323MOL0     H43567   3.828  10.914   0.065  1.1981 -0.5129  1.3553
  323MOL0     H43568   3.908  10.978   0.205 -0.6619 -1.8062  2.9350
  323MOL0     H43569   3.252  11.149   0.145 -0.3104  1.1980 -0.5599
  323MOL0     H43570   3.045  11.136   0.257  2.9117 -0.6802 -2.6866
  323MOL0     H43571   2.880  11.172   0.370  2.0774  0.7280  0.6127
  323MOL0     H43572   2.909  11.011   0.445  0.9993 -0.7555  2.2881
  323MOL0     H43573   2.778  11.237   0.596  0.0822 -0.4542 -0.6008
  323MOL0     H43574   2.679  11.133   0.508 -0.2491 -2.9585 -0.0032
  323MOL0     H43575   2.852  10.964   0.675 -0.7604 -1.3505  0.5686
  323MOL0     H43576   2.678  10.958   0.646 -1.5522  1.1167  0.5779
  323MOL0     H43577   2.716  10.981   0.870  0.7011  0.2576  1.4767
  323MOL0     H43578   2.808  11.120   0.866 -1.5445 -2.7256  4.1205
  323MOL0     H43579   2.607  11.242   0.760  1.4593 -2.2601 -2.6652
  323MOL0     H43580   2.614  11.187   0.933  3.4421 -0.1957  0.2267
  323MOL0     H43581   2.470  11.068   0.687  0.3517  0.2950 -0.8427
  323MOL0     H43582   2.474  10.991   0.849 -2.0100  0.9786  1.2668
  323MOL0     H43583   2.370  11.264   0.778 -5.4271 -1.3799 -2.8917
  323MOL0     H43584   2.369  11.192   0.945 -1.3109 -0.7230  0.2836
  323MOL0     H43585   2.203  11.087   0.719  0.7188 -2.2574  0.3242
  323MOL0     H43586   2.164  11.219   0.831  1.5955  1.2555 -0.1529
  323MOL0     H43587   3.235  11.280   0.629 -0.4170  0.7021  0.6363
  323MOL0     H43588   3.442  11.277   0.503  0.5566  1.2786 -3.2921
  323MOL0     H43589   3.555  11.368   0.076 -1.0952 -2.3645 -0.2276
  323MOL0     H43590   3.751  11.483  -0.050  4.3070  0.6012  1.0227
  323MOL0     H43591   5.752  11.860  -0.113  0.5395  1.2146  3.1135
  323MOL0     H43592   5.958  11.738  -0.100  1.0348 -0.5853 -0.4745
  323MOL0     H43593   6.212  11.468  -0.197 -1.9624 -0.2660 -0.6277
  323MOL0     H43594   6.445  11.401  -0.219 -0.3211 -0.2775  0.4874
  323MOL0     H43595   6.621  11.398  -0.078 -0.5024 -0.5868  3.0602
  323MOL0     H43596   6.741  11.265  -0.032 -0.3688  0.6644  0.5616
  323MOL0     H43597   6.763  11.369  -0.255 -3.2079  2.4890 -0.8073
  323MOL0     H43598   6.604  11.313  -0.311  0.2193 -2.5119 -0.9789
  323MOL0     H43599   6.685  11.101  -0.357 -1.1202  0.2059 -0.2591
  323MOL0     H43600   6.738  11.075  -0.201 -0.7532 -1.4556 -1.7180
  323MOL0     H43601   6.885  11.241  -0.404  0.0869  0.9861  0.9468
  323MOL0     H43602   6.912  11.071  -0.403  0.5027 -0.5939  2.1125
  323MOL0     H43603   7.137  11.148  -0.064 -1.4817 -2.1039  2.4025
  323MOL0     H43604   6.400  11.126   0.112  1.8885 -0.2084 -0.0867
  323MOL0     H43605   6.167  11.200   0.149  0.4766  0.5364 -0.8736
  324MOL0     O43606   3.236   3.396   6.203 -0.4274  0.1505  0.0024
  324MOL0     C43607   3.135   3.350   6.148  0.4780  0.6700 -0.7779
  324MOL0     O43608   3.124   3.222   6.101  0.0749  0.4302 -0.4022
  324MOL0     C43609   3.224   3.147   6.038 -0.2828  0.3845 -0.2267
  324MOL0     C43610   3.339   3.200   5.985 -0.5570  0.4009  1.1372
  324MOL0     C43611   3.441   3.120   5.934  0.4065  0.2740 -0.4023
  324MOL0     C43612   3.423   2.972   5.933  0.4461 -0.2929  0.3437
  324MOL0     O43613   3.514   2.884   5.887  0.3562 -0.0242 -0.9787
  324MOL0     C43614   3.634   2.941   5.827 -0.0590  0.6552 -0.2351
  324MOL0     C43615   3.698   2.808   5.791 -0.5549 -0.3180 -0.9219
  324MOL0     C43616   3.850   2.812   5.783  0.4099  0.0970 -1.2960
  324MOL0     C43617   3.914   2.893   5.679 -0.2765 -1.2269 -0.7055
  324MOL0     C43618   4.050   2.839   5.639 -0.4277  0.5048  0.8319
  324MOL0     C43619   4.146   2.855   5.761  0.6381  0.1215  0.1933
  324MOL0     C43620   4.165   2.727   5.839  0.8552 -0.1034  0.4745
  324MOL0     C43621   4.259   2.750   5.950  0.5567  0.4249  0.0521
  324MOL0     N43622   4.192   2.821   6.065 -0.2838  0.7074 -0.0385
  324MOL0     C43623   4.095   2.773   6.151  0.1041  0.4090  0.5634
  324MOL0     C43624   4.041   2.886   6.199 -0.7252  0.8749 -0.0272
  324MOL0     C43625   3.902   2.892   6.269 -0.5785 -0.3289  0.7761
  324MOL0     C43626   3.772   2.881   6.179 -0.2784 -0.2884 -0.1792
  324MOL0     C43627   3.651   2.885   6.272 -1.3946 -0.0149 -0.4397
  324MOL0     C43628   3.621   3.012   6.352  0.6427  0.1477  0.3101
  324MOL0     O43629   3.540   2.980   6.461 -0.1672 -0.3661 -0.3139
  324MOL0     C43630   3.410   3.013   6.455  0.7219 -0.4243  0.6713
  324MOL0     C43631   3.311   2.906   6.464 -0.2218  0.1163 -0.4063
  324MOL0     C43632   3.177   2.934   6.465  1.1088 -0.5414 -0.3765
  324MOL0     C43633   3.081   2.822   6.493 -0.1819 -0.0228 -0.4030
  324MOL0     C43634   3.131   3.063   6.457 -0.0047  0.0796  0.2814
  324MOL0     C43635   2.976   3.103   6.467  0.2225  0.9699 -0.0531
  324MOL0     O43636   2.894   3.065   6.353 -0.6492 -0.1202  0.1816
  324MOL0     C43637   2.760   3.087   6.361  0.4588  0.1819  0.4461
  324MOL0     C43638   2.695   3.209   6.336 -0.5048 -0.0858 -0.3474
  324MOL0     C43639   2.559   3.223   6.342  0.5212  0.3702 -0.6133
  324MOL0     C43640   2.479   3.109   6.360 -0.2349 -0.4362  1.1824
  324MOL0     O43641   2.346   3.118   6.384  0.3056  0.7476 -0.1561
  324MOL0     C43642   2.267   3.223   6.337  0.3571  0.4211  0.5179
  324MOL0     C43643   2.235   3.179   6.196  0.6780 -0.5648  0.3098
  324MOL0     C43644   2.188   3.292   6.105  0.1887  0.2570  0.4112
  324MOL0     C43645   2.173   3.253   5.963 -0.1468  0.6141 -0.0060
  324MOL0     C43646   2.142   3.370   5.873 -0.1821  0.0592  0.7034
  324MOL0     C43647   2.114   3.337   5.723 -0.0788  0.3412  0.1249
  324MOL0     C43648   2.075   3.463   5.637  1.0051 -0.5028 -0.1213
  324MOL0     C43649   1.970   3.442   5.540  0.5174  0.3548  0.7484
  324MOL0    Cl43650   2.029   3.316   5.424  0.3169 -0.0070 -0.1436
  324MOL0     C43651   2.536   2.987   6.376  0.1294 -0.5264  0.3281
  324MOL0     C43652   2.671   2.977   6.380 -0.0107  0.0501 -0.6387
  324MOL0     O43653   2.939   3.184   6.551 -1.3151 -0.1655 -0.3816
  324MOL0     C43654   3.232   3.168   6.454  0.1023 -0.9665  0.0809
  324MOL0     C43655   3.369   3.145   6.456  0.6740  0.9151  0.7437
  324MOL0     N43656   4.108   2.998   6.162  0.0257 -0.5887  0.4398
  324MOL0     N43657   4.215   2.950   6.097  1.4864  0.2625  0.9322
  324MOL0     C43658   3.306   2.919   5.986 -0.8152  0.0277 -0.0731
  324MOL0     C43659   3.212   3.007   6.038 -0.0855  0.3457  0.4573
  324MOL0     C43660   3.012   3.441   6.148 -0.2781 -0.5663 -0.6702
  324MOL0     C43661   2.883   3.404   6.112 -0.1773 -0.4097  0.9872
  324MOL0     C43662   2.778   3.485   6.101  1.0036 -0.3023 -0.3427
  324MOL0     C43663   2.785   3.622   6.137 -0.3557  0.0627 -0.1014
  324MOL0     O43664   2.671   3.700   6.155 -0.3541 -0.6114  0.0994
  324MOL0     C43665   2.547   3.642   6.114  0.2614 -0.2373 -0.1347
  324MOL0     C43666   2.437   3.746   6.130 -0.2476  0.6814 -0.1261
  324MOL0     C43667   2.303   3.700   6.058  0.9778 -0.9577 -0.4771
  324MOL0     C43668   2.207   3.817   6.031  0.8170 -0.4373  0.2595
  324MOL0     C43669   2.077   3.763   5.991 -0.6171 -0.0851 -0.1264
  324MOL0     C43670   1.979   3.709   5.948  0.7966  0.0509 -0.3890
  324MOL0     C43671   2.917   3.671   6.167  0.4280 -0.3593  0.3341
  324MOL0     C43672   3.028   3.577   6.171 -0.5052  0.3745 -0.1090
  324MOL0     H43673   3.364   3.305   5.976  1.2649 -0.0613  0.1701
  324MOL0     H43674   3.534   3.169   5.907 -0.2974  1.7610 -0.2247
  324MOL0     H43675   3.616   3.007   5.742 -0.4360 -1.2182 -1.6502
  324MOL0     H43676   3.692   2.990   5.906  1.8341 -1.0994 -0.4769
  324MOL0     H43677   3.686   2.739   5.875 -1.1203  1.1457  0.2553
  324MOL0     H43678   3.664   2.787   5.689  3.0674  2.9946 -3.0727
  324MOL0     H43679   3.884   2.854   5.878 -1.1201  0.7796 -1.0264
  324MOL0     H43680   3.889   2.710   5.782  2.0625  0.6896 -1.2256
  324MOL0     H43681   3.854   2.894   5.588 -3.8417  0.4698  1.4302
  324MOL0     H43682   3.916   2.998   5.712 -1.1813 -1.3173 -0.3166
  324MOL0     H43683   4.047   2.733   5.614 -2.1391  0.4845  1.0088
  324MOL0     H43684   4.095   2.892   5.554 -3.1408  1.1509 -0.2863
  324MOL0     H43685   4.242   2.888   5.719 -0.3058  1.6344 -0.8869
  324MOL0     H43686   4.107   2.938   5.821 -2.2713  1.0483 -2.6695
  324MOL0     H43687   4.071   2.695   5.886  0.7407 -0.5257 -0.0441
  324MOL0     H43688   4.209   2.654   5.772  0.0062  0.7706 -1.0939
  324MOL0     H43689   4.351   2.796   5.914  0.9056 -0.9718 -0.9352
  324MOL0     H43690   4.290   2.651   5.984  2.0707 -0.3247 -3.0945
  324MOL0     H43691   4.059   2.671   6.159  2.3478 -0.5666 -0.7411
  324MOL0     H43692   3.904   2.815   6.347 -1.2195  2.1957  3.4808
  324MOL0     H43693   3.893   2.986   6.325  2.5438  0.6448 -0.1187
  324MOL0     H43694   3.771   2.792   6.116 -0.0808 -0.5705  0.2099
  324MOL0     H43695   3.765   2.964   6.108 -0.3298  0.5349  0.7661
  324MOL0     H43696   3.660   2.808   6.350 -0.5218  2.3825  1.9922
  324MOL0     H43697   3.565   2.859   6.210 -0.4651 -0.4706 -1.5550
  324MOL0     H43698   3.578   3.081   6.279  1.4031 -0.8262 -1.0869
  324MOL0     H43699   3.709   3.061   6.395  1.5645 -0.9972 -0.2469
  324MOL0     H43700   3.351   2.806   6.476  0.4043  0.7107  4.1257
  324MOL0     H43701   3.115   2.723   6.461 -1.7660 -1.8883  3.1698
  324MOL0     H43702   3.063   2.813   6.600  1.4978  0.7680 -0.0235
  324MOL0     H43703   2.991   2.842   6.435 -1.1385 -0.7394  0.7962
  324MOL0     H43704   2.762   3.291   6.313  0.0793  0.1070  1.8430
  324MOL0     H43705   2.518   3.323   6.341  1.4149  0.7512 -0.4154
  324MOL0     H43706   2.177   3.227   6.399  0.6929  2.2286  0.9537
  324MOL0     H43707   2.312   3.323   6.331 -1.2071  1.0705 -1.3035
  324MOL0     H43708   2.315   3.121   6.148 -0.9995  0.7271 -4.7197
  324MOL0     H43709   2.145   3.117   6.205 -0.4508  0.7371 -1.4388
  324MOL0     H43710   2.270   3.364   6.099  0.6208 -0.2794 -0.4913
  324MOL0     H43711   2.094   3.335   6.138 -0.7577 -0.8446 -0.7569
  324MOL0     H43712   2.274   3.218   5.938  0.8348  2.5612  1.0687
  324MOL0     H43713   2.094   3.178   5.953 -1.2979  1.8088 -0.1094
  324MOL0     H43714   2.237   3.423   5.861 -0.6806  0.9126  0.4377
  324MOL0     H43715   2.068   3.438   5.915  0.3241 -0.6423  2.8255
  324MOL0     H43716   2.192   3.288   5.664 -0.5261  2.0769 -2.0339
  324MOL0     H43717   2.023   3.277   5.715 -1.4414  2.5523 -2.4238
  324MOL0     H43718   2.167   3.503   5.593  1.2529 -2.2306 -1.3012
  324MOL0     H43719   2.030   3.531   5.710 -1.9103 -2.4387  0.0602
  324MOL0     H43720   1.942   3.533   5.486  0.8704 -0.0872 -0.1964
  324MOL0     H43721   1.884   3.411   5.599  0.5931 -0.6009  0.3600
  324MOL0     H43722   2.472   2.900   6.384 -0.1595 -0.2531  1.0402
  324MOL0     H43723   2.719   2.880   6.378  0.6477  0.3768 -1.0739
  324MOL0     H43724   3.205   3.273   6.444  2.9247 -0.3805 -3.8883
  324MOL0     H43725   3.436   3.230   6.451 -0.4063  1.7342 -1.2794
  324MOL0     H43726   3.281   2.814   5.975  0.9568 -0.8427  2.9647
  324MOL0     H43727   3.126   2.953   6.076  1.9351 -0.9019  3.6514
  324MOL0     H43728   2.860   3.308   6.066 -0.1593  1.2821 -2.9159
  324MOL0     H43729   2.685   3.436   6.074  0.4475  0.5527 -0.0140
  324MOL0     H43730   2.553   3.620   6.007 -0.5258 -2.4756  0.2308
  324MOL0     H43731   2.524   3.544   6.155 -0.9372 -0.4130 -1.1565
  324MOL0     H43732   2.477   3.833   6.078  0.8240 -0.3679 -1.1468
  324MOL0     H43733   2.420   3.762   6.237 -1.8827 -2.3251  0.1716
  324MOL0     H43734   2.254   3.624   6.120  0.3217  0.8031  1.2901
  324MOL0     H43735   2.330   3.659   5.960 -0.5488  0.9837 -1.7855
  324MOL0     H43736   2.251   3.890   5.962 -0.2940  2.6515  2.5559
  324MOL0     H43737   2.188   3.872   6.124 -0.5927 -0.4222 -0.0113
  324MOL0     H43738   1.881   3.675   5.919 -0.2563  0.0319  2.8172
  324MOL0     H43739   2.943   3.772   6.195  2.3103 -0.4611 -0.9145
  324MOL0     H43740   3.124   3.624   6.188  0.0317 -0.9700  0.7238
  325MOL0     O43741   8.982  10.977   6.237  0.1183  0.5955 -0.4720
  325MOL0     C43742   9.052  11.073   6.247  0.1038  1.1618  0.2310
  325MOL0     O43743   9.079  11.158   6.147  0.0663  0.6504 -0.0032
  325MOL0     C43744   9.009  11.170   6.024  0.0089 -0.3654  0.6964
  325MOL0     C43745   8.874  11.138   5.989  1.0061  0.2508 -1.2760
  325MOL0     C43746   8.825  11.149   5.862  0.2512  0.7864  1.3965
  325MOL0     C43747   8.908  11.201   5.762 -0.1801  0.9839 -0.7583
  325MOL0     O43748   8.877  11.210   5.633 -0.5499  0.7435 -0.2952
  325MOL0     C43749   8.800  11.092   5.588 -0.5239  1.0084  0.2697
  325MOL0     C43750   8.774  11.096   5.439 -0.1993 -0.6342  0.4293
  325MOL0     C43751   8.906  11.108   5.350  0.3123 -0.1834 -0.0750
  325MOL0     C43752   8.971  10.966   5.343 -0.7543 -0.2417  0.0949
  325MOL0     C43753   9.088  10.938   5.243  0.4289  0.0254 -0.3942
  325MOL0     C43754   9.130  10.789   5.245  0.0853  0.1409  0.5098
  325MOL0     C43755   9.267  10.768   5.171  0.1605  1.3195 -0.3715
  325MOL0     C43756   9.322  10.617   5.178  0.3521 -0.7061 -0.6995
  325MOL0     N43757   9.220  10.517   5.158 -0.1116 -0.3968  0.4473
  325MOL0     C43758   9.169  10.486   5.038  0.3877  0.6337 -0.3036
  325MOL0     C43759   9.062  10.407   5.060  0.5949 -0.1231  0.7354
  325MOL0     C43760   8.963  10.361   4.959 -0.1041  0.2979  0.3544
  325MOL0     C43761   8.992  10.220   4.906  0.9003 -0.1082  0.0332
  325MOL0     C43762   8.896  10.204   4.783  0.6060 -0.0643 -0.4273
  325MOL0     C43763   8.864  10.056   4.751  0.1371 -0.0445 -0.0335
  325MOL0     O43764   8.804   9.997   4.869 -0.2564 -0.5420 -0.0411
  325MOL0     C43765   8.669  10.000   4.880  0.1811  0.0280  0.6110
  325MOL0     C43766   8.634   9.970   5.011 -0.2084  0.8820 -1.0008
  325MOL0     C43767   8.498   9.952   5.044 -0.4840  0.3287  0.1301
  325MOL0     C43768   8.478   9.914   5.188 -1.7077  0.1628  0.2492
  325MOL0     C43769   8.395   9.974   4.948 -0.0520 -0.7962  0.5865
  325MOL0     C43770   8.246   9.958   4.973 -0.0331 -0.6342  0.4376
  325MOL0     O43771   8.148  10.005   4.884 -1.1760  0.2396  0.0132
  325MOL0     C43772   8.015   9.981   4.919  0.2919  0.4636  0.6971
  325MOL0     C43773   7.942  10.032   5.025 -0.4598  0.0362 -0.5086
  325MOL0     C43774   7.810  10.003   5.049  0.2588 -0.4290 -0.2713
  325MOL0     C43775   7.744   9.923   4.954  0.6513  0.3649 -0.2314
  325MOL0     O43776   7.619   9.871   4.965  0.6610 -0.3818 -0.7885
  325MOL0     C43777   7.535   9.938   5.063  0.3789 -0.0657  0.5800
  325MOL0     C43778   7.389   9.934   5.019 -0.1020  0.2785 -0.5516
  325MOL0     C43779   7.350   9.791   4.999  1.3734  0.5908 -0.1200
  325MOL0     C43780   7.201   9.758   5.053 -0.1356  0.1892 -0.5669
  325MOL0     C43781   7.163   9.615   5.004 -0.7202 -0.0372  1.0913
  325MOL0     C43782   7.247   9.498   5.069  0.1924 -0.4084 -0.3487
  325MOL0     C43783   7.252   9.500   5.220  0.3162 -0.1076 -0.5222
  325MOL0     C43784   7.310   9.368   5.286  0.3263 -0.2568 -0.4633
  325MOL0    Cl43785   7.248   9.220   5.204  0.0369  0.2982 -0.0298
  325MOL0     C43786   7.808   9.880   4.846  0.3552 -0.0388  0.1695
  325MOL0     C43787   7.940   9.910   4.824  0.0864  0.3906 -0.1121
  325MOL0     O43788   8.214   9.914   5.084 -0.2574 -0.0897  1.0077
  325MOL0     C43789   8.430   9.996   4.814  0.3643  0.0937 -1.1312
  325MOL0     C43790   8.565  10.020   4.788  0.6115 -0.5607  0.9469
  325MOL0     N43791   9.054  10.386   5.193  0.1479 -0.5078 -0.6633
  325MOL0     N43792   9.148  10.457   5.250  0.5756  1.3944  0.3940
  325MOL0     C43793   9.033  11.249   5.797  0.7084  0.1679  0.9402
  325MOL0     C43794   9.084  11.224   5.919  0.3662  0.4517  0.0915
  325MOL0     C43795   9.112  11.092   6.376 -0.1268  0.0515 -0.1501
  325MOL0     C43796   9.183  11.207   6.401  0.0272 -0.7319 -0.3158
  325MOL0     C43797   9.259  11.220   6.517  0.0227  0.6123  1.1006
  325MOL0     C43798   9.265  11.118   6.615 -0.2337  0.0823 -0.0583
  325MOL0     O43799   9.337  11.115   6.738 -0.1348  0.1867 -0.0204
  325MOL0     C43800   9.426  11.222   6.761  0.3691 -0.4806 -0.3406
  325MOL0     C43801   9.546  11.214   6.669 -0.3592  0.6918 -0.4005
  325MOL0     C43802   9.674  11.249   6.751  0.4044  0.1354  0.2892
  325MOL0     C43803   9.685  11.390   6.806 -0.6748 -1.0899  0.6754
  325MOL0     C43804   9.821  11.425   6.858  0.6003  0.5635 -0.1598
  325MOL0     C43805   9.923  11.434   6.912  0.4040 -0.3366  0.3773
  325MOL0     C43806   9.179  11.008   6.599 -0.6136  0.3122  0.1276
  325MOL0     C43807   9.113  10.988   6.476 -1.2512 -0.9688  0.4008
  325MOL0     H43808   8.815  11.098   6.070  0.2223 -2.0134 -2.8830
  325MOL0     H43809   8.719  11.124   5.855  0.3454  0.6749  0.1227
  325MOL0     H43810   8.862  11.004   5.605  0.5224  1.5043 -0.8545
  325MOL0     H43811   8.698  11.089   5.628 -0.3764  1.7353  0.7052
  325MOL0     H43812   8.723  11.003   5.412 -0.0808  0.3859 -4.1732
  325MOL0     H43813   8.716  11.188   5.421  2.1450  0.9226  0.3914
  325MOL0     H43814   8.880  11.138   5.248  2.5169  0.0966 -0.6002
  325MOL0     H43815   8.985  11.179   5.376  1.4114 -0.0694 -3.3099
  325MOL0     H43816   9.018  10.941   5.438 -0.3640 -1.4179 -0.3945
  325MOL0     H43817   8.891  10.893   5.325  1.3291 -1.8815 -3.5040
  325MOL0     H43818   9.058  10.961   5.141  2.9983  3.6109 -0.5542
  325MOL0     H43819   9.177  10.995   5.274  1.4901 -1.4488 -0.6515
  325MOL0     H43820   9.137  10.756   5.349 -1.6046 -4.2526 -0.5711
  325MOL0     H43821   9.049  10.732   5.197  0.6028  0.8118 -1.2381
  325MOL0     H43822   9.241  10.779   5.065  0.0698 -1.0180 -0.6293
  325MOL0     H43823   9.346  10.835   5.207 -0.4274  0.2341  3.3679
  325MOL0     H43824   9.353  10.614   5.283 -3.6024 -2.1754  0.6175
  325MOL0     H43825   9.405  10.598   5.109 -0.3995  0.3481 -1.9521
  325MOL0     H43826   9.198  10.526   4.941  1.6098 -1.7967 -1.0183
  325MOL0     H43827   8.868  10.374   5.012  0.6782  0.0620  1.8802
  325MOL0     H43828   8.957  10.433   4.877 -1.7004  0.6545  0.7511
  325MOL0     H43829   8.978  10.152   4.990  2.3317 -2.5311 -1.5588
  325MOL0     H43830   9.099  10.224   4.881  0.4340  3.6169 -2.0869
  325MOL0     H43831   8.938  10.253   4.695 -1.4577  1.4417 -0.6737
  325MOL0     H43832   8.803  10.259   4.802  0.6190  0.0945 -0.8236
  325MOL0     H43833   8.957  10.005   4.724 -0.1052  0.6384 -2.4401
  325MOL0     H43834   8.800  10.046   4.663 -1.0170 -1.2612  0.9023
  325MOL0     H43835   8.715   9.956   5.081 -2.4517  0.1683  1.6343
  325MOL0     H43836   8.393   9.845   5.195 -1.6449 -0.2475 -2.2123
  325MOL0     H43837   8.573   9.874   5.225 -0.9602 -1.4782 -3.0581
  325MOL0     H43838   8.454  10.002   5.248 -0.7501  0.2952  0.4517
  325MOL0     H43839   7.989  10.102   5.094  0.5409 -1.3831  0.2909
  325MOL0     H43840   7.780  10.044   5.145  1.2485 -0.4888  0.0749
  325MOL0     H43841   7.548   9.894   5.163 -0.1792 -1.0022  0.2585
  325MOL0     H43842   7.552  10.046   5.060  1.2400 -0.2028 -0.3331
  325MOL0     H43843   7.325   9.985   5.092 -0.3311  2.0011 -1.8717
  325MOL0     H43844   7.375   9.983   4.922  2.7465  2.2831 -0.0917
  325MOL0     H43845   7.419   9.716   5.038  0.2994  0.2636  1.2240
  325MOL0     H43846   7.357   9.771   4.892  3.1078  1.3183 -0.1758
  325MOL0     H43847   7.200   9.746   5.161 -3.0057 -2.1179 -0.7180
  325MOL0     H43848   7.126   9.830   5.017 -0.5132  1.0288  1.7338
  325MOL0     H43849   7.174   9.611   4.895  0.1631 -0.3076  1.1781
  325MOL0     H43850   7.057   9.600   5.027 -0.9194  1.3312  1.1491
  325MOL0     H43851   7.201   9.403   5.042 -1.2163  0.8641 -2.7130
  325MOL0     H43852   7.348   9.495   5.026  1.2437 -1.4563  1.9924
  325MOL0     H43853   7.150   9.522   5.254  0.4697 -0.2327  0.0143
  325MOL0     H43854   7.311   9.582   5.260  0.5043  0.1491 -1.3081
  325MOL0     H43855   7.267   9.360   5.387  2.6369  1.5226  0.7529
  325MOL0     H43856   7.419   9.369   5.283  0.3327 -0.4118 -0.2915
  325MOL0     H43857   7.761   9.821   4.767  0.4341 -2.5574  1.8828
  325MOL0     H43858   7.992   9.870   4.738  0.3550 -0.7244  0.5369
  325MOL0     H43859   8.367  10.012   4.728  0.2382 -0.1739 -1.0894
  325MOL0     H43860   8.597  10.049   4.689 -2.3067 -1.7475 -0.4830
  325MOL0     H43861   9.077  11.325   5.734 -1.8336  0.6727 -0.3635
  325MOL0     H43862   9.178  11.265   5.952  0.5756 -0.7391  1.0578
  325MOL0     H43863   9.194  11.290   6.332 -1.6133  0.6351  0.9802
  325MOL0     H43864   9.307  11.314   6.543 -1.1821  1.3108  0.8813
  325MOL0     H43865   9.387  11.324   6.756  1.9437  0.1358 -0.8079
  325MOL0     H43866   9.457  11.210   6.865  1.2236 -2.0687 -0.7462
  325MOL0     H43867   9.528  11.290   6.592 -2.0292 -0.5161 -1.2854
  325MOL0     H43868   9.562  11.117   6.622 -2.8114  0.0053  0.0210
  325MOL0     H43869   9.761  11.217   6.694  0.2045 -0.6815  0.4346
  325MOL0     H43870   9.675  11.186   6.840 -1.2603  0.1628  0.3614
  325MOL0     H43871   9.625  11.405   6.896  0.7719  0.0096  1.5109
  325MOL0     H43872   9.671  11.469   6.731 -0.9546 -0.6651  1.1643
  325MOL0     H43873  10.023  11.443   6.951  0.6128  1.7552 -0.5231
  325MOL0     H43874   9.172  10.928   6.671 -1.8580 -1.7395 -2.1431
  325MOL0     H43875   9.072  10.890   6.452  1.0466 -2.1538  0.8956
  326MOL0     O43876   1.075  10.250   2.181  0.9913  0.3817  0.5137
  326MOL0     C43877   1.167  10.175   2.155  0.3983 -0.5860 -0.2949
  326MOL0     O43878   1.207  10.132   2.038 -0.3701  0.1353 -0.5254
  326MOL0     C43879   1.125  10.144   1.925 -0.1771 -0.2863 -0.3008
  326MOL0     C43880   0.983  10.120   1.923 -0.1410  0.2343  0.5391
  326MOL0     C43881   0.918  10.139   1.802  0.2478  0.3178  0.8669
  326MOL0     C43882   0.982  10.184   1.688 -0.4191  0.9380 -0.3487
  326MOL0     O43883   0.924  10.174   1.565 -0.4660 -0.5229 -0.0289
  326MOL0     C43884   1.002  10.151   1.452 -0.6390  1.2486 -0.3344
  326MOL0     C43885   0.931  10.096   1.324  1.0154  0.5312 -0.6422
  326MOL0     C43886   0.793  10.160   1.305  0.5375  0.0244 -0.1110
  326MOL0     C43887   0.739  10.118   1.170 -0.2230 -1.2966 -0.5278
  326MOL0     C43888   0.609  10.194   1.139 -0.1866  0.3938 -0.5892
  326MOL0     C43889   0.480  10.133   1.202  1.4974 -0.1023  0.2130
  326MOL0     C43890   0.345  10.171   1.139 -0.2437 -0.4756 -0.5613
  326MOL0     C43891   0.233  10.088   1.197  0.2280 -0.2582 -0.0696
  326MOL0     N43892   0.094  10.116   1.141 -0.0046  0.2528 -0.1593
  326MOL0     C43893   0.067  10.095   1.010 -0.5491 -0.5079  0.8039
  326MOL0     C43894  -0.058  10.131   0.995 -0.6121  1.1233  0.3880
  326MOL0     C43895  -0.136  10.124   0.870 -0.4530 -0.0373  0.1649
  326MOL0     C43896  -0.289  10.151   0.883  0.0917  0.2025  0.1828
  326MOL0     C43897  -0.359  10.011   0.902  0.9507 -0.4886 -0.3208
  326MOL0     C43898  -0.503  10.008   0.974 -0.3254  0.0948  0.1227
  326MOL0     O43899  -0.539   9.871   1.007 -0.4134  0.2792  0.0419
  326MOL0     C43900  -0.644   9.855   1.102 -0.5408 -0.6273 -0.1867
  326MOL0     C43901  -0.699   9.733   1.120  0.8995 -0.0063  0.3849
  326MOL0     C43902  -0.817   9.711   1.200 -0.2972 -1.1498  0.4225
  326MOL0     C43903  -0.855   9.576   1.225  0.4779  0.8190  0.9243
  326MOL0     C43904  -0.878   9.828   1.255  0.9066 -0.1640 -0.1222
  326MOL0     C43905  -0.994   9.817   1.347  0.2934  0.1446  0.0608
  326MOL0     O43906  -1.115   9.862   1.310  0.9414 -0.7262 -0.2051
  326MOL0     C43907  -1.235   9.855   1.380 -0.1807 -0.3620 -0.5807
  326MOL0     C43908  -1.280   9.753   1.468  0.5093  0.1425  0.1974
  326MOL0     C43909  -1.397   9.774   1.543 -0.5639 -0.0547  0.3016
  326MOL0     C43910  -1.479   9.890   1.522  0.2445 -0.3910 -0.1207
  326MOL0     O43911  -1.599   9.895   1.580  0.3197  0.3869 -0.3903
  326MOL0     C43912  -1.650  10.020   1.612 -0.7706 -0.7092 -0.2868
  326MOL0     C43913  -1.795   9.999   1.666  0.1566  0.1884 -0.5638
  326MOL0     C43914  -1.844  10.119   1.752  0.8428 -1.1040 -1.3000
  326MOL0     C43915  -1.849  10.248   1.670  0.0244  0.1488  0.3437
  326MOL0     C43916  -1.929  10.359   1.738  0.1945 -0.2519  0.3507
  326MOL0     C43917  -1.917  10.487   1.651 -0.0491 -0.8703  0.2787
  326MOL0     C43918  -2.011  10.489   1.534 -0.4067 -0.3363 -0.1075
  326MOL0     C43919  -2.033  10.633   1.491  0.5920  0.7825  0.3821
  326MOL0    Cl43920  -1.879  10.725   1.465  0.2706 -0.0529  0.0564
  326MOL0     C43921  -1.433   9.992   1.430 -0.5436 -0.3895 -0.4470
  326MOL0     C43922  -1.314   9.972   1.361  0.1112 -0.6646  0.8074
  326MOL0     O43923  -0.974   9.757   1.450  0.0987  0.0859 -0.0161
  326MOL0     C43924  -0.823   9.952   1.239 -0.7687 -0.0028 -0.2818
  326MOL0     C43925  -0.707   9.968   1.162 -0.1421  0.2895  0.3066
  326MOL0     N43926  -0.106  10.176   1.112 -0.7551 -0.6117  0.3158
  326MOL0     N43927  -0.016  10.164   1.193 -0.4820  0.1788 -0.3421
  326MOL0     C43928   1.123  10.214   1.696  0.9918  0.0940  0.2307
  326MOL0     C43929   1.195  10.197   1.820 -0.2779  0.3789  0.5723
  326MOL0     C43930   1.257  10.133   2.269  0.1737 -0.9604 -0.1969
  326MOL0     C43931   1.249  10.200   2.397  1.1513  0.2437  0.3145
  326MOL0     C43932   1.317  10.154   2.498 -0.0445 -0.1864  0.2346
  326MOL0     C43933   1.407  10.043   2.496  1.4810 -1.0042 -0.9979
  326MOL0     O43934   1.466   9.999   2.615  0.3011 -0.2819 -0.1399
  326MOL0     C43935   1.555   9.889   2.607 -0.3900 -0.3504 -0.3655
  326MOL0     C43936   1.647   9.865   2.738  0.2192 -0.8809  0.4688
  326MOL0     C43937   1.570   9.808   2.859 -0.3793 -0.2130  0.3284
  326MOL0     C43938   1.657   9.810   2.979  0.1231  0.9197  0.1390
  326MOL0     C43939   1.584   9.815   3.110 -0.4075  0.4469  0.6467
  326MOL0     C43940   1.521   9.822   3.216  0.1729  0.2337  0.4147
  326MOL0     C43941   1.416   9.979   2.374  0.0990 -0.2870 -0.2350
  326MOL0     C43942   1.357  10.036   2.258  0.5931 -0.4841 -0.0341
  326MOL0     H43943   0.932  10.079   2.009 -2.2565  2.5522  0.5039
  326MOL0     H43944   0.809  10.133   1.803  0.0455  1.0277 -2.6668
  326MOL0     H43945   1.048  10.246   1.423 -0.9832  1.5553  0.1143
  326MOL0     H43946   1.083  10.080   1.469 -0.5242  0.8919 -2.0997
  326MOL0     H43947   0.997  10.130   1.244 -0.0318  1.6368 -1.0758
  326MOL0     H43948   0.918   9.988   1.327 -0.6648  0.6700 -1.3968
  326MOL0     H43949   0.723  10.135   1.385 -0.1816  5.3012  1.3441
  326MOL0     H43950   0.795  10.269   1.314  0.7626 -0.0904  1.4290
  326MOL0     H43951   0.816  10.137   1.095 -0.5820  1.7704 -0.2513
  326MOL0     H43952   0.710  10.013   1.159 -1.0730 -1.0300 -0.9303
  326MOL0     H43953   0.610  10.297   1.175  1.4202 -0.4077  1.9826
  326MOL0     H43954   0.591  10.199   1.032 -2.4007  0.1480 -0.2701
  326MOL0     H43955   0.477  10.025   1.182 -0.8007 -0.5994  2.6102
  326MOL0     H43956   0.466  10.141   1.310  0.0491 -2.8983  0.3255
  326MOL0     H43957   0.334  10.279   1.154  3.3137 -0.1268  0.4950
  326MOL0     H43958   0.361  10.150   1.033 -1.3682 -2.2151 -0.4300
  326MOL0     H43959   0.244  10.097   1.306  0.1182 -0.8388 -0.0044
  326MOL0     H43960   0.248   9.982   1.177  1.8101 -0.2258  0.8324
  326MOL0     H43961   0.129  10.044   0.936 -0.5991 -0.8889  1.0253
  326MOL0     H43962  -0.087  10.180   0.790 -2.1400  0.4366 -0.5803
  326MOL0     H43963  -0.127  10.021   0.834 -0.3154 -0.7150  2.0691
  326MOL0     H43964  -0.327  10.180   0.784 -0.0449 -1.4688 -0.2863
  326MOL0     H43965  -0.317  10.221   0.962 -1.6240 -0.5161  0.2574
  326MOL0     H43966  -0.292   9.932   0.938  0.8725 -0.3403  0.1592
  326MOL0     H43967  -0.385   9.977   0.801  3.7788 -1.5386 -0.7862
  326MOL0     H43968  -0.591  10.062   0.937 -1.9132 -0.4665  2.8259
  326MOL0     H43969  -0.480  10.051   1.072 -1.2273 -2.9958  1.8452
  326MOL0     H43970  -0.666   9.644   1.067 -2.1040 -0.6542 -0.6025
  326MOL0     H43971  -0.868   9.547   1.330  2.3045  0.2470  1.0337
  326MOL0     H43972  -0.948   9.564   1.169  0.2106 -0.0267  1.5314
  326MOL0     H43973  -0.770   9.512   1.201  1.9951  1.6929  3.5426
  326MOL0     H43974  -1.216   9.666   1.482 -0.0655  0.1798  3.9779
  326MOL0     H43975  -1.423   9.682   1.594 -1.5853  0.0989  0.0818
  326MOL0     H43976  -1.588  10.067   1.687  0.8094 -2.1832 -0.6036
  326MOL0     H43977  -1.643  10.097   1.535  0.0620 -0.4140  0.0847
  326MOL0     H43978  -1.856   9.968   1.581  2.2320  0.6394 -2.3091
  326MOL0     H43979  -1.795   9.914   1.735 -1.9007  0.5325 -0.0583
  326MOL0     H43980  -1.767  10.128   1.830  5.7430 -4.2739 -5.0766
  326MOL0     H43981  -1.942  10.090   1.790  2.0020 -1.1616  1.9706
  326MOL0     H43982  -1.750  10.291   1.656 -0.3540  1.0814  0.4564
  326MOL0     H43983  -1.883  10.219   1.571  1.6311  0.3257 -0.2786
  326MOL0     H43984  -1.874  10.378   1.830  1.2119 -0.4082 -0.2107
  326MOL0     H43985  -2.032  10.322   1.747  0.0012  0.4551  1.1773
  326MOL0     H43986  -1.932  10.582   1.703  2.1138  0.1368 -0.8032
  326MOL0     H43987  -1.812  10.502   1.626 -0.4946  1.5239 -0.3905
  326MOL0     H43988  -2.109  10.447   1.559 -0.7377 -0.2714 -1.2279
  326MOL0     H43989  -1.972  10.424   1.456 -1.3475 -0.3439 -0.5828
  326MOL0     H43990  -2.092  10.681   1.569 -0.0466  2.1545 -0.8962
  326MOL0     H43991  -2.101  10.632   1.405  0.4392 -0.6806  0.4828
  326MOL0     H43992  -1.494  10.077   1.402  1.4132  0.6573 -1.8052
  326MOL0     H43993  -1.290  10.052   1.291 -0.6741 -1.3330 -0.2476
  326MOL0     H43994  -0.850  10.033   1.305  2.0337  0.1572  0.8136
  326MOL0     H43995  -0.668  10.069   1.153  0.7637 -0.2277 -2.1801
  326MOL0     H43996   1.176  10.262   1.615  0.8415  0.6857  0.4747
  326MOL0     H43997   1.303  10.195   1.831 -0.4844  0.0583  3.3176
  326MOL0     H43998   1.183  10.286   2.399  0.2949 -0.4225  1.3595
  326MOL0     H43999   1.313  10.211   2.591  1.6506 -1.7974  1.3588
  326MOL0     H44000   1.501   9.797   2.586  1.2865 -2.3325  3.1376
  326MOL0     H44001   1.624   9.909   2.525  1.9577 -0.4644  1.4772
  326MOL0     H44002   1.708   9.952   2.764 -1.4759  0.6980 -0.5453
  326MOL0     H44003   1.719   9.787   2.713 -0.2098 -1.0489 -0.2915
  326MOL0     H44004   1.520   9.713   2.836 -1.8830  0.8219 -0.8209
  326MOL0     H44005   1.491   9.880   2.879  1.5919  2.4196 -0.7739
  326MOL0     H44006   1.737   9.884   2.967  1.4583 -0.3158  1.0816
  326MOL0     H44007   1.716   9.718   2.983  2.2093  2.1340 -1.0941
  326MOL0     H44008   1.461   9.815   3.305 -1.2850 -1.6691 -0.6487
  326MOL0     H44009   1.474   9.889   2.360  0.7147  0.3389 -2.1151
  326MOL0     H44010   1.372   9.976   2.169  0.9794 -0.6299  0.1296
  327MOL0     O44011   5.866   1.876   8.091  0.6141 -0.0271 -0.0357
  327MOL0     C44012   5.898   1.954   8.001  0.9309  1.4137  0.7287
  327MOL0     O44013   5.818   2.046   7.939 -0.6654 -0.2755 -0.8838
  327MOL0     C44014   5.691   2.063   7.996 -0.4439  0.2059 -0.9788
  327MOL0     C44015   5.663   2.168   8.078  0.0782  0.1714 -0.1649
  327MOL0     C44016   5.540   2.177   8.139  0.5973 -0.4811 -0.0762
  327MOL0     C44017   5.435   2.099   8.091 -0.0954 -0.6063 -0.7768
  327MOL0     O44018   5.302   2.123   8.116 -0.0076 -0.8038  0.4728
  327MOL0     C44019   5.245   2.246   8.170 -0.0456 -0.0750  0.0948
  327MOL0     C44020   5.099   2.236   8.131  0.1413 -0.9249  0.4578
  327MOL0     C44021   5.022   2.135   8.202  0.7944  0.8377  0.2110
  327MOL0     C44022   4.872   2.161   8.173  0.8686 -0.3192 -0.1780
  327MOL0     C44023   4.788   2.057   8.251  0.3129 -0.1772  0.3693
  327MOL0     C44024   4.656   2.048   8.200 -0.6258 -0.6270 -0.2181
  327MOL0     C44025   4.565   2.179   8.205  0.6905 -0.1239 -0.4566
  327MOL0     C44026   4.419   2.139   8.186 -0.0481 -0.3165 -0.0750
  327MOL0     N44027   4.323   2.261   8.179 -0.5259 -0.5324 -0.3982
  327MOL0     C44028   4.266   2.315   8.293 -0.1752 -1.1948  0.0078
  327MOL0     C44029   4.154   2.373   8.254 -0.5837 -0.2547 -0.2413
  327MOL0     C44030   4.055   2.443   8.358  0.0313  0.3990 -0.4296
  327MOL0     C44031   4.040   2.586   8.313 -0.8901 -0.6194  1.3276
  327MOL0     C44032   3.964   2.660   8.418 -0.1684  0.1919 -0.4990
  327MOL0     C44033   3.834   2.607   8.461  0.4935 -0.5252 -0.2302
  327MOL0     O44034   3.774   2.711   8.544 -0.2049  0.6550  0.6415
  327MOL0     C44035   3.640   2.714   8.545 -0.7748  0.2650 -0.3734
  327MOL0     C44036   3.565   2.734   8.430  0.2889 -0.5813  0.4761
  327MOL0     C44037   3.430   2.746   8.437 -0.2724 -0.0542  0.3186
  327MOL0     C44038   3.355   2.741   8.308  1.1029 -0.4297  0.0677
  327MOL0     C44039   3.365   2.739   8.567  0.1530 -0.1808 -0.3987
  327MOL0     C44040   3.220   2.742   8.579  0.8445  0.8350 -0.2766
  327MOL0     O44041   3.173   2.841   8.656 -0.6114 -0.1424 -0.8446
  327MOL0     C44042   3.041   2.825   8.703 -0.1665 -0.4209 -0.2569
  327MOL0     C44043   2.931   2.867   8.634  0.8384  0.6714  0.0462
  327MOL0     C44044   2.800   2.833   8.679 -0.5853 -0.1111 -0.1245
  327MOL0     C44045   2.780   2.764   8.798 -0.1298 -0.5798  0.1034
  327MOL0     O44046   2.651   2.749   8.833 -0.1687 -0.2873 -0.2826
  327MOL0     C44047   2.608   2.728   8.962  1.2229 -0.9014 -0.5274
  327MOL0     C44048   2.463   2.781   8.967 -0.8232  0.6569  0.5138
  327MOL0     C44049   2.376   2.763   9.093 -1.1295  0.3646 -0.1597
  327MOL0     C44050   2.246   2.837   9.054 -0.4418  0.1512  0.7465
  327MOL0     C44051   2.156   2.862   9.183  0.4047 -0.0345  0.9363
  327MOL0     C44052   2.021   2.929   9.155 -0.6487  0.2311  0.0983
  327MOL0     C44053   1.933   2.927   9.284 -0.3600 -1.0347 -0.9445
  327MOL0     C44054   1.806   3.011   9.282 -0.3491  0.5571 -1.0701
  327MOL0    Cl44055   1.869   3.183   9.262 -0.2410  0.3920 -0.4204
  327MOL0     C44056   2.886   2.729   8.871 -0.3948  0.4484 -0.8203
  327MOL0     C44057   3.020   2.754   8.824  0.0420  0.1415 -0.2220
  327MOL0     O44058   3.153   2.655   8.521  1.5109  0.3861  0.9224
  327MOL0     C44059   3.445   2.720   8.680  0.1609  0.3169  0.0409
  327MOL0     C44060   3.581   2.712   8.669  0.3221 -0.8625  0.6076
  327MOL0     N44061   4.132   2.342   8.123  0.7534 -0.7624  0.5248
  327MOL0     N44062   4.237   2.282   8.075 -0.7262  0.2120  0.1410
  327MOL0     C44063   5.469   1.996   8.008  0.5027  0.8585 -1.0810
  327MOL0     C44064   5.594   1.976   7.966 -0.9582  0.1687 -0.1397
  327MOL0     C44065   6.037   1.943   7.955 -0.1965  1.1976  0.4617
  327MOL0     C44066   6.093   2.026   7.849 -0.1583  0.5611 -0.1850
  327MOL0     C44067   6.226   2.024   7.806  0.8680 -0.4235 -0.2426
  327MOL0     C44068   6.310   1.922   7.851  0.6047  0.2056  0.1322
  327MOL0     O44069   6.437   1.898   7.815 -0.3726 -0.5579  1.0067
  327MOL0     C44070   6.491   1.970   7.696 -0.0062  0.1527 -0.6634
  327MOL0     C44071   6.431   1.900   7.568 -0.8347  0.2783  0.7567
  327MOL0     C44072   6.480   1.944   7.431 -0.2130  0.2875  0.3802
  327MOL0     C44073   6.629   1.942   7.411 -0.1617 -0.7396  0.3301
  327MOL0     C44074   6.670   1.803   7.425  0.4906 -0.2009  0.2455
  327MOL0     C44075   6.697   1.684   7.413  0.5568 -0.0653  0.4631
  327MOL0     C44076   6.254   1.838   7.955 -0.2044 -0.3906  0.8340
  327MOL0     C44077   6.127   1.847   8.006  0.1909  0.0637 -0.6306
  327MOL0     H44078   5.744   2.240   8.088 -0.3934  0.8355 -0.9629
  327MOL0     H44079   5.518   2.260   8.205  0.6523  0.2373 -0.9418
  327MOL0     H44080   5.253   2.254   8.279  1.9794  1.1834 -0.0802
  327MOL0     H44081   5.280   2.334   8.115 -1.3310 -0.7003 -1.7949
  327MOL0     H44082   5.062   2.335   8.157 -2.4716 -2.0066  1.2327
  327MOL0     H44083   5.091   2.203   8.027  0.6892 -2.1870  0.8006
  327MOL0     H44084   5.053   2.036   8.165 -0.5412  1.2327 -2.1599
  327MOL0     H44085   5.039   2.132   8.310  0.7769  0.9250  0.2168
  327MOL0     H44086   4.844   2.257   8.216 -3.5364 -2.2346  1.8533
  327MOL0     H44087   4.843   2.157   8.068 -3.8464 -2.2436  0.9449
  327MOL0     H44088   4.843   1.964   8.233  0.7726  0.0638  0.5003
  327MOL0     H44089   4.792   2.070   8.360  3.1450  1.6261  0.1604
  327MOL0     H44090   4.676   2.014   8.097  4.4239  0.5813  0.1315
  327MOL0     H44091   4.597   1.975   8.256  0.0702  0.1051  1.5169
  327MOL0     H44092   4.592   2.226   8.300  1.4072 -4.8269  1.9787
  327MOL0     H44093   4.589   2.243   8.120 -2.3826 -1.1831 -2.2537
  327MOL0     H44094   4.388   2.074   8.268 -0.4791 -1.3011 -1.0021
  327MOL0     H44095   4.410   2.084   8.092  2.3716  0.3498 -0.7864
  327MOL0     H44096   4.312   2.327   8.390 -1.7658 -0.5925  0.7178
  327MOL0     H44097   3.956   2.396   8.355 -0.7528  1.9829 -3.0515
  327MOL0     H44098   4.093   2.427   8.459  2.8242 -0.0516 -1.4636
  327MOL0     H44099   3.992   2.593   8.215  0.5716 -1.5624  0.5041
  327MOL0     H44100   4.137   2.632   8.295 -0.7179 -1.5308 -0.1910
  327MOL0     H44101   3.964   2.765   8.389  0.3786 -0.2419 -2.1688
  327MOL0     H44102   4.028   2.653   8.506  0.4018 -4.1593 -1.0370
  327MOL0     H44103   3.853   2.515   8.518  0.9474 -0.2539  0.0615
  327MOL0     H44104   3.772   2.586   8.373 -0.1945 -2.0870  0.5813
  327MOL0     H44105   3.621   2.740   8.337 -0.4086  0.0723  0.0930
  327MOL0     H44106   3.278   2.664   8.308  2.7850 -2.3123 -2.8170
  327MOL0     H44107   3.313   2.841   8.294  0.8143 -0.8744 -2.8840
  327MOL0     H44108   3.417   2.710   8.223  1.2005  2.3969 -1.0081
  327MOL0     H44109   2.936   2.910   8.534  2.0212 -0.7265 -0.5202
  327MOL0     H44110   2.717   2.865   8.617  0.1470  3.3165  0.4799
  327MOL0     H44111   2.601   2.622   8.987  1.9751 -0.4707  1.7835
  327MOL0     H44112   2.676   2.768   9.037  1.2696 -0.1024 -0.9864
  327MOL0     H44113   2.475   2.888   8.945  4.9114  0.8454  2.6889
  327MOL0     H44114   2.413   2.730   8.885  0.9219  1.7577 -1.3300
  327MOL0     H44115   2.425   2.807   9.180  1.2068  0.3439 -1.3762
  327MOL0     H44116   2.359   2.655   9.102  0.5340  0.1605  0.9932
  327MOL0     H44117   2.274   2.936   9.017  3.6296 -0.3246  2.0844
  327MOL0     H44118   2.188   2.787   8.975  2.3180  0.3778 -1.6036
  327MOL0     H44119   2.205   2.941   9.242 -1.0670  1.6624 -0.0005
  327MOL0     H44120   2.144   2.768   9.237  2.6016 -0.6483  0.4609
  327MOL0     H44121   2.029   3.030   9.113 -3.5250  0.2016 -0.7714
  327MOL0     H44122   1.968   2.868   9.081 -1.6577  1.3367 -0.1315
  327MOL0     H44123   1.996   2.963   9.367  1.9002 -1.1576 -2.5202
  327MOL0     H44124   1.918   2.821   9.304 -1.8404 -0.3495  2.1996
  327MOL0     H44125   1.761   3.014   9.382 -0.0578 -1.8653 -0.7971
  327MOL0     H44126   1.740   2.979   9.201 -1.7450 -1.8029  0.8723
  327MOL0     H44127   2.877   2.677   8.965  2.8136  1.8670  0.4428
  327MOL0     H44128   3.097   2.718   8.892 -1.3759 -0.6548  1.0460
  327MOL0     H44129   3.401   2.699   8.777 -1.4460  0.6790 -0.5733
  327MOL0     H44130   3.637   2.686   8.758 -0.9346 -1.1419  1.3459
  327MOL0     H44131   5.393   1.928   7.970  1.6423 -1.0749 -0.0533
  327MOL0     H44132   5.599   1.898   7.890 -0.8041  1.5590 -1.6044
  327MOL0     H44133   6.031   2.111   7.822 -1.4273 -0.4625 -0.5792
  327MOL0     H44134   6.264   2.104   7.743  4.9898 -0.3966  1.9519
  327MOL0     H44135   6.486   2.079   7.704 -0.8661  0.0432  0.6800
  327MOL0     H44136   6.599   1.951   7.701 -0.3309 -1.7872  3.7990
  327MOL0     H44137   6.323   1.915   7.567 -0.5670  2.9745 -1.9279
  327MOL0     H44138   6.461   1.796   7.578  1.3186  0.8110  0.3226
  327MOL0     H44139   6.446   2.048   7.426 -2.3083 -0.3999 -1.3676
  327MOL0     H44140   6.434   1.886   7.350  1.2279  2.6093 -2.2925
  327MOL0     H44141   6.680   1.998   7.490  0.1469  1.7905 -1.5276
  327MOL0     H44142   6.664   1.992   7.320 -0.7086  2.3134  1.6785
  327MOL0     H44143   6.716   1.579   7.405  0.6579 -0.0462  0.4588
  327MOL0     H44144   6.321   1.771   8.009  2.2405 -0.9194 -2.5776
  327MOL0     H44145   6.092   1.769   8.072 -2.1749 -0.2728 -2.1733
  328MOL0     O44146   2.628   4.193   5.134  0.1264  0.3728 -0.0783
  328MOL0     C44147   2.645   4.197   5.255 -0.3651  0.0463  0.8631
  328MOL0     O44148   2.559   4.168   5.358 -0.1097 -0.5752  0.4163
  328MOL0     C44149   2.433   4.130   5.318  0.1007  0.5970  0.7866
  328MOL0     C44150   2.399   4.000   5.280  0.5185 -0.6669 -0.0453
  328MOL0     C44151   2.272   3.987   5.214 -0.1061  0.0901 -0.6247
  328MOL0     C44152   2.174   4.085   5.206 -0.7607 -0.1033  0.3522
  328MOL0     O44153   2.055   4.057   5.136 -0.6362  0.2133 -0.1029
  328MOL0     C44154   1.968   4.170   5.106  0.9728  0.1427 -0.3837
  328MOL0     C44155   1.857   4.142   5.020 -0.2152  0.8687  0.6672
  328MOL0     C44156   1.802   3.999   5.045  0.0135 -0.2138 -1.1938
  328MOL0     C44157   1.828   3.903   4.927  0.0491 -0.3678  0.8724
  328MOL0     C44158   1.766   3.769   4.945  0.3227 -0.3106  1.1859
  328MOL0     C44159   1.620   3.771   4.893  0.5188 -0.4058 -0.0468
  328MOL0     C44160   1.556   3.631   4.933 -0.1817 -0.4532 -0.2830
  328MOL0     C44161   1.469   3.648   5.052 -0.3785 -0.2484  0.0106
  328MOL0     N44162   1.330   3.693   5.033  0.0412  0.1547  0.0692
  328MOL0     C44163   1.225   3.612   5.046  1.0591 -0.2690  0.8597
  328MOL0     C44164   1.121   3.699   5.070 -0.7920 -0.5359  0.6511
  328MOL0     C44165   0.978   3.668   5.083 -0.1096  0.8130 -0.1168
  328MOL0     C44166   0.895   3.751   5.185 -0.3508 -0.9379  0.4663
  328MOL0     C44167   0.879   3.683   5.322 -0.4113  0.7629  0.2013
  328MOL0     C44168   0.986   3.714   5.424 -0.0960 -0.3950 -0.0281
  328MOL0     O44169   1.116   3.663   5.383  0.1112 -0.7317 -0.6564
  328MOL0     C44170   1.218   3.638   5.472  0.1611  0.7638 -0.7398
  328MOL0     C44171   1.349   3.638   5.420  0.3514 -0.3664  0.2846
  328MOL0     C44172   1.467   3.604   5.490 -0.0639 -0.2448 -0.5234
  328MOL0     C44173   1.598   3.598   5.419  0.7208 -0.1916  0.7844
  328MOL0     C44174   1.452   3.570   5.630  0.2285  1.1183 -0.0872
  328MOL0     C44175   1.567   3.547   5.722  0.1401  0.8737 -0.5854
  328MOL0     O44176   1.537   3.486   5.849 -0.5507  0.3847  0.9196
  328MOL0     C44177   1.604   3.507   5.963 -0.6816 -0.2175  0.2784
  328MOL0     C44178   1.689   3.402   6.004  0.1901 -1.5959  0.3331
  328MOL0     C44179   1.755   3.418   6.131 -0.6359 -0.5313  0.3625
  328MOL0     C44180   1.730   3.529   6.211  0.1301 -0.1174  0.7950
  328MOL0     O44181   1.789   3.538   6.333 -0.1236  0.9642  0.3585
  328MOL0     C44182   1.901   3.456   6.372 -0.3197 -0.3406  0.4462
  328MOL0     C44183   1.954   3.520   6.494  0.4549  0.4104 -0.2291
  328MOL0     C44184   2.044   3.427   6.583  0.0556 -0.3731 -0.9640
  328MOL0     C44185   2.072   3.491   6.723  0.2546 -0.1504  0.3745
  328MOL0     C44186   2.157   3.620   6.722 -0.8823  0.5351  0.3021
  328MOL0     C44187   2.199   3.650   6.865  0.5489 -0.5132  1.5635
  328MOL0     C44188   2.319   3.749   6.854  0.8358  0.3317 -0.1138
  328MOL0     C44189   2.378   3.770   6.990  0.8557 -0.2567  0.0708
  328MOL0    Cl44190   2.261   3.870   7.089 -0.3121 -0.1101  0.2353
  328MOL0     C44191   1.641   3.629   6.167 -0.2010  0.8388 -0.2044
  328MOL0     C44192   1.573   3.618   6.044 -0.0713 -0.1345  0.3076
  328MOL0     O44193   1.676   3.579   5.689 -0.0557  0.4245  0.4180
  328MOL0     C44194   1.318   3.564   5.679 -0.7496  0.6608  0.2236
  328MOL0     C44195   1.204   3.591   5.603 -0.8267  0.0489  0.2580
  328MOL0     N44196   1.168   3.828   5.065 -0.6478 -0.7936 -0.0305
  328MOL0     N44197   1.296   3.820   5.037  0.8400  0.4925 -0.3983
  328MOL0     C44198   2.215   4.213   5.258  0.7026 -0.0139 -0.4276
  328MOL0     C44199   2.338   4.234   5.311 -0.5898  0.5815 -0.0770
  328MOL0     C44200   2.783   4.230   5.301 -0.6568  0.1522 -0.0921
  328MOL0     C44201   2.881   4.282   5.211  0.1019 -1.0063  0.4986
  328MOL0     C44202   2.998   4.329   5.267 -0.1348 -0.4426 -0.7487
  328MOL0     C44203   3.023   4.324   5.409  0.5023 -0.1476 -0.1015
  328MOL0     O44204   3.121   4.385   5.473  0.2610 -0.1218 -0.2084
  328MOL0     C44205   3.242   4.407   5.399 -0.3631  0.0154 -0.0162
  328MOL0     C44206   3.327   4.513   5.475  0.4941 -0.0905 -1.0213
  328MOL0     C44207   3.257   4.649   5.489 -0.3749  0.3807 -0.5457
  328MOL0     C44208   3.317   4.717   5.617  0.1712  0.3731  0.2939
  328MOL0     C44209   3.453   4.772   5.589 -0.6878  0.7327 -0.2619
  328MOL0     C44210   3.555   4.825   5.579 -0.5175 -0.8301 -0.4852
  328MOL0     C44211   2.932   4.261   5.482  0.2430  0.5169 -0.4048
  328MOL0     C44212   2.812   4.216   5.436  0.0939 -0.1410  0.3801
  328MOL0     H44213   2.468   3.918   5.297  3.1951  1.5659  0.5643
  328MOL0     H44214   2.253   3.886   5.179 -0.4268 -0.5787  1.3204
  328MOL0     H44215   1.922   4.192   5.203  1.0663  2.6447 -0.8455
  328MOL0     H44216   2.030   4.254   5.072  0.1669  1.2429  0.7416
  328MOL0     H44217   1.776   4.214   5.035 -0.3218  0.6077  1.3743
  328MOL0     H44218   1.897   4.140   4.917  3.9422 -1.6846  2.0685
  328MOL0     H44219   1.854   3.956   5.132 -0.6159  0.4681 -0.4705
  328MOL0     H44220   1.699   4.003   5.082  0.9961 -1.0081  1.9070
  328MOL0     H44221   1.803   3.953   4.832 -0.7789 -0.6576  0.9275
  328MOL0     H44222   1.936   3.885   4.928 -0.1023 -1.6069 -0.7398
  328MOL0     H44223   1.824   3.697   4.887  0.1853 -0.8714  1.7303
  328MOL0     H44224   1.767   3.739   5.050 -1.9509 -1.5946  0.8999
  328MOL0     H44225   1.556   3.854   4.924 -3.6216 -1.4784 -4.4771
  328MOL0     H44226   1.621   3.788   4.785 -1.0840  2.5283  0.3032
  328MOL0     H44227   1.505   3.584   4.849 -0.3470  2.6363 -2.0569
  328MOL0     H44228   1.635   3.563   4.966  0.5671  0.6705  0.3230
  328MOL0     H44229   1.516   3.714   5.125 -1.9045  0.4966  0.3547
  328MOL0     H44230   1.482   3.547   5.092  2.1570  0.5097  1.3265
  328MOL0     H44231   1.213   3.505   5.035  1.0990 -0.2262  0.3374
  328MOL0     H44232   0.926   3.666   4.987 -0.4399  0.7924  0.0588
  328MOL0     H44233   0.966   3.563   5.110  0.5694 -0.2256 -3.4377
  328MOL0     H44234   0.796   3.766   5.142 -0.0407  1.8204  0.4906
  328MOL0     H44235   0.944   3.848   5.199  1.1502 -1.6752  0.4988
  328MOL0     H44236   0.866   3.576   5.304  0.0380  0.9469 -1.3754
  328MOL0     H44237   0.788   3.720   5.370 -0.9002 -0.7974  0.5269
  328MOL0     H44238   0.964   3.669   5.521  0.6637 -0.1761  0.2500
  328MOL0     H44239   0.985   3.821   5.446  3.4257  0.0181 -1.1207
  328MOL0     H44240   1.348   3.657   5.313 -0.3825  1.3251  0.5618
  328MOL0     H44241   1.569   3.576   5.316  1.2280 -0.6841  0.7381
  328MOL0     H44242   1.657   3.688   5.439 -0.2542  0.4227  0.9409
  328MOL0     H44243   1.658   3.513   5.454  0.8135  0.0665  1.2516
  328MOL0     H44244   1.690   3.312   5.943  0.6880 -1.6407  0.4039
  328MOL0     H44245   1.814   3.329   6.153  3.5087  2.1385  1.1520
  328MOL0     H44246   1.872   3.353   6.396 -1.1979 -0.2059 -0.0095
  328MOL0     H44247   1.968   3.454   6.286  0.6750 -0.7822  1.2039
  328MOL0     H44248   2.001   3.617   6.474 -1.1633  1.2379 -0.2106
  328MOL0     H44249   1.860   3.557   6.536  0.7152  1.4300 -0.5214
  328MOL0     H44250   2.141   3.417   6.532  1.8973  0.0879  2.2114
  328MOL0     H44251   1.992   3.332   6.599 -1.0545  0.2131 -0.9613
  328MOL0     H44252   1.983   3.521   6.779  2.1630  2.9176  2.0433
  328MOL0     H44253   2.119   3.407   6.775  1.6340 -0.0107 -0.6011
  328MOL0     H44254   2.092   3.701   6.686  1.1889  2.0737 -0.1942
  328MOL0     H44255   2.249   3.609   6.663 -0.8845  0.7359  0.2594
  328MOL0     H44256   2.113   3.681   6.925  0.1965 -1.2737  1.4634
  328MOL0     H44257   2.250   3.561   6.903  2.7599 -0.0273 -0.1014
  328MOL0     H44258   2.272   3.843   6.823 -3.1194 -2.3449 -3.1859
  328MOL0     H44259   2.392   3.718   6.779  0.4816  1.8574 -1.1402
  328MOL0     H44260   2.477   3.813   6.971  1.8337 -2.6031 -0.4329
  328MOL0     H44261   2.399   3.678   7.045  0.0613 -0.6148 -0.1970
  328MOL0     H44262   1.633   3.707   6.241  1.2076  0.0166  0.8628
  328MOL0     H44263   1.520   3.691   5.983  1.4998 -0.6833 -1.8178
  328MOL0     H44264   1.292   3.547   5.783  2.1282  1.5417  1.2052
  328MOL0     H44265   1.114   3.567   5.658 -0.8084 -3.6270 -1.0443
  328MOL0     H44266   2.136   4.287   5.260 -0.4583 -1.2439  0.5103
  328MOL0     H44267   2.358   4.337   5.335  0.5242  0.9781 -2.3610
  328MOL0     H44268   2.874   4.287   5.103 -1.9126  0.5146  0.6509
  328MOL0     H44269   3.059   4.372   5.188 -2.3319 -1.7889 -3.3536
  328MOL0     H44270   3.308   4.321   5.386 -1.3283 -0.5393 -1.5429
  328MOL0     H44271   3.227   4.444   5.297 -1.8108  1.1199  0.5579
  328MOL0     H44272   3.426   4.535   5.434 -0.2093  1.5111 -1.9357
  328MOL0     H44273   3.340   4.464   5.572 -0.4776 -0.5577 -1.1081
  328MOL0     H44274   3.149   4.631   5.498 -0.0407 -2.2155 -1.0044
  328MOL0     H44275   3.288   4.706   5.402  3.0339  2.9681  2.0756
  328MOL0     H44276   3.311   4.647   5.700  0.1406 -1.8356 -1.4625
  328MOL0     H44277   3.259   4.809   5.627 -1.1070 -0.2545 -0.9995
  328MOL0     H44278   3.654   4.860   5.555 -0.2364 -3.2606 -3.4534
  328MOL0     H44279   2.945   4.235   5.587 -1.6748 -0.1836 -0.2887
  328MOL0     H44280   2.751   4.164   5.510  0.9586 -0.2358  1.0423
  329MOL0     O44281   7.787   5.447   6.191  0.8317  0.0919 -0.4750
  329MOL0     C44282   7.729   5.431   6.088 -0.2906 -0.2441  0.5188
  329MOL0     O44283   7.594   5.423   6.064  0.4819 -0.3153 -0.7588
  329MOL0     C44284   7.504   5.463   6.161  0.5685  0.0239  0.5439
  329MOL0     C44285   7.376   5.499   6.115  0.2692 -0.4528 -0.0222
  329MOL0     C44286   7.269   5.534   6.202 -0.0673  0.3010  0.3198
  329MOL0     C44287   7.289   5.545   6.337  0.4130  0.8426 -0.3799
  329MOL0     O44288   7.179   5.573   6.421  0.0981 -0.5176  0.2841
  329MOL0     C44289   7.048   5.574   6.355 -0.0439 -0.2538 -0.7271
  329MOL0     C44290   6.938   5.567   6.467 -1.5188 -0.3703 -0.2145
  329MOL0     C44291   6.799   5.582   6.408 -0.2548  0.1091 -1.5374
  329MOL0     C44292   6.790   5.716   6.325  0.9715 -0.4582 -0.1878
  329MOL0     C44293   6.634   5.737   6.308 -0.2881 -0.3177 -0.3085
  329MOL0     C44294   6.570   5.628   6.215  0.1377 -0.3536  1.4453
  329MOL0     C44295   6.435   5.669   6.167  0.1184  0.1733 -1.0152
  329MOL0     C44296   6.402   5.590   6.042  0.2776  0.6084  0.6056
  329MOL0     N44297   6.281   5.633   5.972 -0.2801 -0.0421  0.2627
  329MOL0     C44298   6.156   5.630   6.025  0.5387 -0.3084 -0.4741
  329MOL0     C44299   6.078   5.685   5.926 -0.2962  0.7434 -0.2305
  329MOL0     C44300   5.926   5.702   5.928 -0.4137 -0.0016 -0.7160
  329MOL0     C44301   5.857   5.671   5.799 -0.0712 -0.2937 -0.3231
  329MOL0     C44302   5.707   5.675   5.795  0.0903 -0.2612 -0.4692
  329MOL0     C44303   5.638   5.814   5.818 -0.1241  0.3979  0.7633
  329MOL0     O44304   5.662   5.896   5.700 -0.9512 -0.5188 -0.1628
  329MOL0     C44305   5.598   5.881   5.581 -0.5215  0.6837 -0.5245
  329MOL0     C44306   5.639   5.966   5.479  0.0242 -0.1722 -0.9438
  329MOL0     C44307   5.598   5.962   5.349  0.7131  0.8396 -0.3255
  329MOL0     C44308   5.668   6.066   5.260  0.3610  0.0331 -0.9482
  329MOL0     C44309   5.485   5.882   5.324  0.9032 -0.1631  0.3421
  329MOL0     C44310   5.418   5.879   5.190 -1.0429 -0.3358  0.3512
  329MOL0     O44311   5.292   5.822   5.170 -0.2572  0.2382 -0.2555
  329MOL0     C44312   5.216   5.845   5.057  0.0405  0.2452 -0.2876
  329MOL0     C44313   5.194   5.967   5.006  0.0000  0.3396 -0.4532
  329MOL0     C44314   5.109   5.980   4.895  0.1352 -0.1016  0.4853
  329MOL0     C44315   5.050   5.879   4.829  0.0826  0.5303  0.2761
  329MOL0     O44316   4.982   5.906   4.710 -0.0144  0.0142  0.0991
  329MOL0     C44317   4.967   5.798   4.614 -0.2950  0.0159 -0.2958
  329MOL0     C44318   4.886   5.852   4.502  0.6931 -0.0637 -0.0537
  329MOL0     C44319   4.815   5.736   4.438 -0.8290  0.1111 -0.2864
  329MOL0     C44320   4.728   5.775   4.322  1.3734  0.7596 -0.7501
  329MOL0     C44321   4.808   5.810   4.194 -0.0366  0.9298 -0.8810
  329MOL0     C44322   4.710   5.843   4.081  0.3625  0.6818  0.3257
  329MOL0     C44323   4.778   5.917   3.959 -0.6513  0.7884 -1.2770
  329MOL0     C44324   4.683   5.899   3.838 -0.4149 -0.1570  0.1790
  329MOL0    Cl44325   4.737   6.023   3.723  0.1211 -0.4494  0.0516
  329MOL0     C44326   5.084   5.747   4.875  0.2750  0.2686 -0.0312
  329MOL0     C44327   5.163   5.731   4.991  0.9737 -0.4097 -1.3323
  329MOL0     O44328   5.486   5.918   5.090 -1.4182  0.1098 -0.8968
  329MOL0     C44329   5.442   5.785   5.425  0.0922 -0.3783  1.4730
  329MOL0     C44330   5.493   5.792   5.552  0.1329 -0.1832  0.4581
  329MOL0     N44331   6.161   5.714   5.813  0.6112 -1.0470  0.1177
  329MOL0     N44332   6.272   5.679   5.843  0.1508  0.3958 -0.5064
  329MOL0     C44333   7.422   5.505   6.387  0.4562 -0.4208 -0.6105
  329MOL0     C44334   7.523   5.465   6.300 -0.6564 -0.4829 -1.2685
  329MOL0     C44335   7.816   5.396   5.971  0.3847  0.0071  0.5948
  329MOL0     C44336   7.767   5.405   5.840  0.6512  0.1805 -0.7354
  329MOL0     C44337   7.844   5.355   5.735  0.0068 -0.2200  0.2583
  329MOL0     C44338   7.972   5.310   5.750 -0.2648 -0.3223  0.0038
  329MOL0     O44339   8.055   5.267   5.648  0.2668  0.8844 -0.0742
  329MOL0     C44340   8.014   5.301   5.516  0.1572 -0.6888 -0.0430
  329MOL0     C44341   8.121   5.276   5.412 -0.7519 -0.1376 -0.5288
  329MOL0     C44342   8.131   5.136   5.360  0.0292 -0.3500  0.2031
  329MOL0     C44343   8.229   5.122   5.247 -0.4998 -0.1053 -1.0599
  329MOL0     C44344   8.368   5.101   5.295  0.4078 -0.4992  0.2187
  329MOL0     C44345   8.481   5.086   5.338 -0.4275 -0.9357 -1.3584
  329MOL0     C44346   8.022   5.309   5.881 -0.0903 -0.1657 -0.2916
  329MOL0     C44347   7.946   5.348   5.987  0.3840  0.1645  0.5798
  329MOL0     H44348   7.356   5.480   6.010  0.2539 -0.0960 -0.0866
  329MOL0     H44349   7.174   5.555   6.155 -1.1861 -2.6133  1.0105
  329MOL0     H44350   7.032   5.653   6.281  0.6066  0.6276  0.0475
  329MOL0     H44351   7.040   5.487   6.288  0.3818 -0.0274 -1.0825
  329MOL0     H44352   6.953   5.469   6.514 -1.6900 -1.2473 -1.8702
  329MOL0     H44353   6.964   5.642   6.541  2.5715  1.7518 -3.4392
  329MOL0     H44354   6.772   5.502   6.339 -0.5481 -1.0182 -0.1575
  329MOL0     H44355   6.731   5.571   6.493 -1.4638 -3.0121 -2.7572
  329MOL0     H44356   6.822   5.806   6.379  0.8537  0.1483 -1.1079
  329MOL0     H44357   6.835   5.722   6.226  0.8516  4.5500 -0.2006
  329MOL0     H44358   6.582   5.735   6.405  0.2150 -1.1562 -0.0443
  329MOL0     H44359   6.621   5.831   6.254 -1.1444  0.0812  0.5522
  329MOL0     H44360   6.645   5.621   6.135 -0.5300  0.9139  0.6755
  329MOL0     H44361   6.563   5.537   6.275 -2.6782 -0.2577  1.3794
  329MOL0     H44362   6.355   5.660   6.242 -1.3080  0.3915 -2.4554
  329MOL0     H44363   6.434   5.776   6.145 -1.2237  1.2274  3.2580
  329MOL0     H44364   6.380   5.490   6.079 -2.8323  2.1641  3.5262
  329MOL0     H44365   6.489   5.603   5.976 -0.2495 -1.7988 -0.6910
  329MOL0     H44366   6.123   5.598   6.123 -0.5865 -0.4199 -0.8745
  329MOL0     H44367   5.880   5.643   6.007  1.4171 -0.4356  0.0713
  329MOL0     H44368   5.919   5.809   5.952 -0.3024  0.5613 -2.9061
  329MOL0     H44369   5.893   5.577   5.756  2.0741  1.7714 -3.5203
  329MOL0     H44370   5.911   5.740   5.733  1.9200  0.3294  1.8357
  329MOL0     H44371   5.670   5.608   5.873 -2.9284  0.8451 -0.8277
  329MOL0     H44372   5.667   5.632   5.704 -6.0283  3.5213 -0.1264
  329MOL0     H44373   5.695   5.869   5.894  2.6878  0.4370 -1.2246
  329MOL0     H44374   5.532   5.800   5.841 -0.3468  2.9988  1.6801
  329MOL0     H44375   5.716   6.039   5.500 -1.0978  1.1972 -1.5053
  329MOL0     H44376   5.698   6.017   5.167 -1.3084 -1.2315 -0.8721
  329MOL0     H44377   5.597   6.148   5.242  0.4163  0.4437  0.5663
  329MOL0     H44378   5.759   6.104   5.308 -0.0015 -2.2978  1.8841
  329MOL0     H44379   5.250   6.043   5.060  1.1057 -0.4707 -0.4216
  329MOL0     H44380   5.104   6.086   4.871 -1.2214 -0.1985  0.2783
  329MOL0     H44381   5.065   5.760   4.586  1.3908  0.6986  3.9647
  329MOL0     H44382   4.920   5.711   4.661  0.3374  0.3484  0.9877
  329MOL0     H44383   4.815   5.932   4.523  0.1138 -0.6528  0.2752
  329MOL0     H44384   4.969   5.892   4.443  0.6504  1.7725  1.0313
  329MOL0     H44385   4.761   5.695   4.523  0.3315  0.6974  0.7707
  329MOL0     H44386   4.891   5.661   4.412  0.9132  1.9036 -0.5964
  329MOL0     H44387   4.653   5.698   4.304  1.0086  0.4694  1.6256
  329MOL0     H44388   4.680   5.868   4.356 -0.0148 -0.6977  1.6030
  329MOL0     H44389   4.847   5.712   4.163 -1.7126 -1.0544  2.6699
  329MOL0     H44390   4.895   5.875   4.206  2.0939 -1.4842 -2.0590
  329MOL0     H44391   4.666   5.751   4.042 -0.2714  0.4441  1.5492
  329MOL0     H44392   4.627   5.907   4.113  0.5381  2.1803 -1.9660
  329MOL0     H44393   4.876   5.877   3.931 -2.0567 -2.2199 -2.3462
  329MOL0     H44394   4.797   6.023   3.976 -1.4109  0.9923 -1.6690
  329MOL0     H44395   4.576   5.906   3.862 -0.7809 -2.8383 -0.3466
  329MOL0     H44396   4.705   5.798   3.803  3.7116  0.0927  1.5286
  329MOL0     H44397   5.051   5.667   4.810  2.8129  0.2141 -1.3626
  329MOL0     H44398   5.178   5.639   5.048 -1.2294 -1.4893 -2.3769
  329MOL0     H44399   5.361   5.719   5.394  1.3476 -1.9216  1.3262
  329MOL0     H44400   5.455   5.734   5.635  1.8849  3.1866  3.9144
  329MOL0     H44401   7.448   5.521   6.491  2.9557  1.9686 -1.4815
  329MOL0     H44402   7.613   5.434   6.352 -1.7186  0.8576  1.5721
  329MOL0     H44403   7.671   5.437   5.802  0.3757 -0.4409 -0.5640
  329MOL0     H44404   7.800   5.368   5.637 -0.3023 -1.6339  0.1923
  329MOL0     H44405   7.918   5.250   5.500 -0.2922 -0.4226  1.6433
  329MOL0     H44406   7.985   5.406   5.514 -1.9771 -1.2394 -1.0297
  329MOL0     H44407   8.219   5.303   5.454 -0.9572  1.9900 -1.2885
  329MOL0     H44408   8.094   5.337   5.325 -0.4305 -0.9065 -1.1820
  329MOL0     H44409   8.034   5.102   5.322 -0.2683 -0.5869  1.1396
  329MOL0     H44410   8.152   5.069   5.444 -1.8282  0.4791  1.3920
  329MOL0     H44411   8.237   5.216   5.192 -3.1178  3.6420  4.1757
  329MOL0     H44412   8.195   5.045   5.177 -0.3965 -0.9453 -0.2040
  329MOL0     H44413   8.580   5.066   5.375 -0.8879 -1.3317 -0.3070
  329MOL0     H44414   8.122   5.273   5.899 -0.1440 -0.6818 -0.9777
  329MOL0     H44415   7.988   5.342   6.087  1.6476  0.0376  0.0707
  330MOL0     O44416   3.128   5.424  10.459  0.0564 -0.1149  0.4683
  330MOL0     C44417   3.026   5.357  10.430 -0.0797 -0.1044  0.3986
  330MOL0     O44418   3.004   5.235  10.492  0.3536  0.0197 -0.1807
  330MOL0     C44419   3.096   5.179  10.578  0.6474 -0.6466 -0.3092
  330MOL0     C44420   3.174   5.071  10.528  0.1628 -0.3483 -0.2565
  330MOL0     C44421   3.278   5.016  10.608  0.1564  0.4079  0.2121
  330MOL0     C44422   3.300   5.068  10.733  0.1932 -0.2090 -0.5687
  330MOL0     O44423   3.413   5.018  10.794  0.1084 -0.4818 -0.4489
  330MOL0     C44424   3.482   5.107  10.885 -0.8136 -0.0677  0.3700
  330MOL0     C44425   3.634   5.077  10.883 -0.0324 -0.0231  0.1413
  330MOL0     C44426   3.668   4.953  10.966  0.8287 -0.7745 -0.7297
  330MOL0     C44427   3.816   4.929  10.963 -0.4832 -0.2373  1.2521
  330MOL0     C44428   3.921   5.037  11.001 -0.5995  0.7931 -0.2685
  330MOL0     C44429   3.966   5.003  11.136  0.0613 -0.1629  0.0605
  330MOL0     C44430   4.037   5.130  11.192  0.9867 -0.0762 -0.2662
  330MOL0     C44431   4.074   5.111  11.337 -0.1493 -0.4899 -0.4019
  330MOL0     N44432   4.189   5.014  11.355  0.6974  0.4033  0.7410
  330MOL0     C44433   4.320   5.042  11.339 -0.0074  0.2867  0.0101
  330MOL0     C44434   4.378   4.921  11.372  0.3541  0.0358 -0.3550
  330MOL0     C44435   4.523   4.889  11.382 -0.4471 -0.3934 -0.7156
  330MOL0     C44436   4.568   4.758  11.324 -0.0920 -0.0742 -0.4541
  330MOL0     C44437   4.718   4.760  11.327 -0.7177 -0.1827  0.4228
  330MOL0     C44438   4.767   4.630  11.266  0.0943  0.5439  0.1288
  330MOL0     O44439   4.897   4.633  11.200  0.0822  0.1486  0.6081
  330MOL0     C44440   4.916   4.536  11.106 -0.4702 -0.3875 -0.4110
  330MOL0     C44441   4.832   4.423  11.090  0.4565  0.4165  0.4566
  330MOL0     C44442   4.864   4.319  10.998  0.7638 -0.6550  0.2212
  330MOL0     C44443   4.756   4.211  10.987  0.2205  0.3151  0.2557
  330MOL0     C44444   4.983   4.320  10.926 -0.4549  0.3992  0.3678
  330MOL0     C44445   5.034   4.208  10.848 -0.5787  0.2980 -0.2201
  330MOL0     O44446   5.165   4.214  10.821  0.0155 -0.3349 -0.0100
  330MOL0     C44447   5.230   4.109  10.767  0.1589 -0.5967  0.4433
  330MOL0     C44448   5.298   4.121  10.642 -0.0555 -0.0203 -0.9860
  330MOL0     C44449   5.397   4.028  10.609  0.0109  0.1142 -0.6491
  330MOL0     C44450   5.423   3.917  10.686 -0.0239  0.0717 -0.4831
  330MOL0     O44451   5.515   3.832  10.632  0.7848 -0.6003 -0.3205
  330MOL0     C44452   5.558   3.724  10.713  0.3002  0.3768  0.3580
  330MOL0     C44453   5.657   3.757  10.820 -0.6920 -0.0547  0.4198
  330MOL0     C44454   5.755   3.879  10.769 -0.4368 -0.0714 -0.3615
  330MOL0     C44455   5.880   3.873  10.847  0.2692  0.4689 -0.7984
  330MOL0     C44456   5.973   3.989  10.825  0.7615 -0.5788  0.0107
  330MOL0     C44457   6.117   3.965  10.868 -0.3824 -0.2338 -1.3522
  330MOL0     C44458   6.210   4.085  10.839 -0.0415  0.4928 -0.3994
  330MOL0     C44459   6.340   4.083  10.908 -0.0426 -0.6808  0.2180
  330MOL0    Cl44460   6.392   4.245  10.964 -0.4075  0.0497 -0.4193
  330MOL0     C44461   5.353   3.904  10.812 -0.2542 -0.0033  0.4633
  330MOL0     C44462   5.259   3.997  10.847 -0.0793  0.9640 -0.5913
  330MOL0     O44463   4.972   4.111  10.817  0.6497 -0.0327 -1.0509
  330MOL0     C44464   5.065   4.438  10.938  0.6010  0.5596  0.4177
  330MOL0     C44465   5.025   4.540  11.029  0.0456  1.2416 -0.1127
  330MOL0     N44466   4.281   4.832  11.413 -0.0110 -0.2659  0.6830
  330MOL0     N44467   4.169   4.885  11.398  0.4103 -0.4698  0.6645
  330MOL0     C44468   3.212   5.168  10.786 -0.2828 -0.0812 -0.6786
  330MOL0     C44469   3.116   5.234  10.711 -0.2329  0.5873  0.9186
  330MOL0     C44470   2.926   5.404  10.338  0.9565 -0.1799 -0.1979
  330MOL0     C44471   2.822   5.322  10.280  0.6158 -0.6786  0.0177
  330MOL0     C44472   2.710   5.387  10.216 -0.2377  0.1581  0.0365
  330MOL0     C44473   2.714   5.524  10.183  0.1841  1.3321  0.1171
  330MOL0     O44474   2.613   5.570  10.095 -0.0042 -0.4888  0.3929
  330MOL0     C44475   2.610   5.711  10.058  0.3727  1.1371  0.6390
  330MOL0     C44476   2.501   5.725   9.949 -0.4121 -0.1020 -0.0651
  330MOL0     C44477   2.541   5.852   9.879 -0.2600  0.2774 -0.4047
  330MOL0     C44478   2.506   5.984   9.951  0.3257 -0.7496  0.2606
  330MOL0     C44479   2.463   6.091   9.856  0.5474 -0.2154  0.0660
  330MOL0     C44480   2.448   6.177   9.776  0.1885 -0.7507 -0.3534
  330MOL0     C44481   2.828   5.599  10.228  0.2015  0.5128 -0.0196
  330MOL0     C44482   2.931   5.541  10.297 -0.0876  0.3610 -0.6514
  330MOL0     H44483   3.155   5.037  10.427 -2.0372 -1.9115  0.6035
  330MOL0     H44484   3.339   4.938  10.563  0.3453  0.3651  0.5359
  330MOL0     H44485   3.472   5.210  10.850 -2.6124  0.3106  1.8427
  330MOL0     H44486   3.434   5.105  10.983 -2.3792 -1.4623 -0.3890
  330MOL0     H44487   3.667   5.070  10.779 -2.2956  1.9141 -0.8225
  330MOL0     H44488   3.686   5.161  10.929 -0.4738  0.6052 -0.4749
  330MOL0     H44489   3.631   4.975  11.066  0.5441 -2.8895 -0.3255
  330MOL0     H44490   3.602   4.871  10.933 -3.5907  2.8114 -1.8359
  330MOL0     H44491   3.836   4.839  11.021  0.5061 -0.2895  0.8662
  330MOL0     H44492   3.839   4.903  10.859  1.2507 -0.9623  1.7801
  330MOL0     H44493   4.006   5.020  10.934 -0.9242 -3.1774  0.1294
  330MOL0     H44494   3.879   5.138  10.986 -2.3815  0.2896  0.9593
  330MOL0     H44495   3.884   4.976  11.204 -0.3293 -0.3155 -0.4707
  330MOL0     H44496   4.039   4.923  11.145  0.1112  0.0543  2.3460
  330MOL0     H44497   4.125   5.150  11.130  0.8061  2.4640  0.1922
  330MOL0     H44498   3.967   5.215  11.185 -0.5716 -1.3949 -1.6699
  330MOL0     H44499   3.995   5.082  11.407  0.4538 -1.5255 -0.1147
  330MOL0     H44500   4.109   5.207  11.377  2.1918  0.5676 -4.4021
  330MOL0     H44501   4.368   5.140  11.334  1.2399 -0.3380 -0.8482
  330MOL0     H44502   4.576   4.967  11.326 -1.6370  0.0438 -1.2546
  330MOL0     H44503   4.555   4.895  11.486 -1.4746  2.2660 -0.4776
  330MOL0     H44504   4.535   4.741  11.221  2.0282  3.0324 -1.8112
  330MOL0     H44505   4.529   4.676  11.384 -0.2622  0.1894 -0.1979
  330MOL0     H44506   4.758   4.768  11.429  0.0855  3.3167 -0.0195
  330MOL0     H44507   4.769   4.840  11.274  1.2529 -0.6432  1.5449
  330MOL0     H44508   4.693   4.600  11.193 -0.9162  0.9003  0.9814
  330MOL0     H44509   4.775   4.545  11.334 -0.0569 -0.5148 -1.1568
  330MOL0     H44510   4.737   4.408  11.140 -1.1352  0.6774 -2.2802
  330MOL0     H44511   4.738   4.179  10.884  3.8238  2.6213 -1.2822
  330MOL0     H44512   4.786   4.119  11.039  0.4837  0.5716  0.5594
  330MOL0     H44513   4.661   4.246  11.028  0.2270  0.6573 -0.0209
  330MOL0     H44514   5.274   4.209  10.584 -0.2521  0.6909  0.1503
  330MOL0     H44515   5.446   4.042  10.513 -0.8737 -0.4520 -1.2013
  330MOL0     H44516   5.473   3.667  10.751  0.7192  0.2957  1.1721
  330MOL0     H44517   5.609   3.656  10.644 -0.4384 -0.2299  0.4030
  330MOL0     H44518   5.604   3.785  10.911 -0.9149  1.2960 -0.1016
  330MOL0     H44519   5.720   3.668  10.829  0.4856  0.3715 -2.4062
  330MOL0     H44520   5.700   3.972  10.787 -1.5267 -0.3237 -2.1699
  330MOL0     H44521   5.776   3.873  10.662  1.6028 -0.7006  0.0216
  330MOL0     H44522   5.855   3.875  10.953  0.0206 -0.5366 -0.8237
  330MOL0     H44523   5.927   3.774  10.838  0.9970  0.8286 -1.0340
  330MOL0     H44524   5.938   4.074  10.885  4.1749  1.3216 -0.4309
  330MOL0     H44525   5.977   4.021  10.721 -0.4740 -2.2396 -0.5981
  330MOL0     H44526   6.125   3.934  10.972  3.2099  0.5824 -1.2449
  330MOL0     H44527   6.156   3.877  10.815  4.7781  0.5359  0.5955
  330MOL0     H44528   6.163   4.181  10.864 -1.4534 -0.0690 -0.8417
  330MOL0     H44529   6.220   4.083  10.730 -0.0447 -1.5840 -0.3940
  330MOL0     H44530   6.421   4.053  10.841 -0.4339 -0.6325 -0.2818
  330MOL0     H44531   6.356   4.018  10.994 -1.5665 -1.9124 -0.3821
  330MOL0     H44532   5.361   3.811  10.867  0.6776 -0.3892 -0.2897
  330MOL0     H44533   5.201   3.977  10.937  0.2185  0.7652 -0.4426
  330MOL0     H44534   5.158   4.460  10.886 -0.1034 -0.8159 -1.5222
  330MOL0     H44535   5.096   4.620  11.048  1.1277  0.1250  0.7334
  330MOL0     H44536   3.221   5.200  10.890  0.4590  2.3908 -1.4278
  330MOL0     H44537   3.060   5.320  10.746 -1.2549  1.3851 -2.3666
  330MOL0     H44538   2.813   5.217  10.307  0.8848 -1.3525 -2.3282
  330MOL0     H44539   2.619   5.337  10.186 -1.9837  2.4975  1.1153
  330MOL0     H44540   2.601   5.780  10.143 -0.0275  3.6318 -1.2879
  330MOL0     H44541   2.708   5.733  10.017  0.6978  1.4973  1.5774
  330MOL0     H44542   2.397   5.730   9.981 -1.1265 -0.8908 -2.0908
  330MOL0     H44543   2.510   5.637   9.884  1.1811  0.0759 -0.1267
  330MOL0     H44544   2.494   5.851   9.780  0.0812 -0.2985 -0.5627
  330MOL0     H44545   2.647   5.849   9.853 -0.4202  0.5910 -1.1391
  330MOL0     H44546   2.585   6.024  10.017  0.4474  1.4689 -1.1148
  330MOL0     H44547   2.419   5.977  10.017  0.6914  0.0370  0.8543
  330MOL0     H44548   2.444   6.259   9.706 -0.3723 -0.0989  0.4312
  330MOL0     H44549   2.845   5.705  10.210  2.5977  0.1008 -0.6036
  330MOL0     H44550   2.998   5.613  10.343 -0.1965  1.2554 -1.8326
  331MOL0     O44551   2.134   4.673  11.301  0.6373 -0.1119  0.0974
  331MOL0     C44552   2.078   4.563  11.311  0.7971 -0.4466  0.5426
  331MOL0     O44553   2.050   4.498  11.425 -0.3429  0.6230 -0.3595
  331MOL0     C44554   2.101   4.556  11.539 -0.6756  0.8072  0.3785
  331MOL0     C44555   2.234   4.573  11.566 -0.8696 -0.2385 -1.0618
  331MOL0     C44556   2.267   4.627  11.693 -0.9609  0.3134  1.1422
  331MOL0     C44557   2.174   4.675  11.780  0.4183  0.3438  0.2950
  331MOL0     O44558   2.184   4.758  11.885  0.8218  0.4108  0.1329
  331MOL0     C44559   2.303   4.842  11.885  0.7926  0.4524  0.0741
  331MOL0     C44560   2.302   4.903  12.027  0.2005  0.1388  0.4554
  331MOL0     C44561   2.365   4.805  12.128 -1.0379 -0.2410  0.6424
  331MOL0     C44562   2.522   4.800  12.103  0.3313 -0.0386 -0.9779
  331MOL0     C44563   2.586   4.679  12.174  1.0154  0.2960  0.1450
  331MOL0     C44564   2.744   4.663  12.159  0.1347  0.4932 -0.5529
  331MOL0     C44565   2.817   4.786  12.174 -0.3165  0.2933 -0.7127
  331MOL0     C44566   2.971   4.754  12.195  0.8852  0.1697  0.8158
  331MOL0     N44567   3.052   4.871  12.240  0.4789  0.5169 -0.1950
  331MOL0     C44568   3.072   4.909  12.365 -0.2255  0.6916 -0.5541
  331MOL0     C44569   3.116   5.038  12.366 -0.8917  0.1069  0.0977
  331MOL0     C44570   3.177   5.119  12.473 -0.1302 -0.4351  0.1093
  331MOL0     C44571   3.106   5.092  12.606 -0.1831 -0.4308 -1.0373
  331MOL0     C44572   3.146   5.209  12.702 -0.5497  0.1120  0.1282
  331MOL0     C44573   3.290   5.225  12.750  1.1387  0.5516 -0.0711
  331MOL0     O44574   3.299   5.283  12.884  0.0212  0.1204  0.6034
  331MOL0     C44575   3.417   5.324  12.923 -0.0461  1.0082  0.3532
  331MOL0     C44576   3.521   5.361  12.841 -0.2499  0.1594  0.5770
  331MOL0     C44577   3.653   5.366  12.891  0.0433  0.7840  0.4481
  331MOL0     C44578   3.765   5.413  12.798 -0.3102  0.1269  0.1100
  331MOL0     C44579   3.675   5.349  13.027  0.4175  0.6823  0.5995
  331MOL0     C44580   3.805   5.350  13.097 -0.6550 -0.1512 -0.2072
  331MOL0     O44581   3.808   5.387  13.224  0.4272  0.3297 -0.1190
  331MOL0     C44582   3.928   5.430  13.272  0.1501 -0.1213 -0.0365
  331MOL0     C44583   3.993   5.532  13.217 -0.7284 -0.0175  0.1176
  331MOL0     C44584   4.111   5.597  13.270  0.7131 -0.4677  0.6667
  331MOL0     C44585   4.146   5.567  13.399  0.3737  0.5611  0.9977
  331MOL0     O44586   4.243   5.643  13.462 -0.4056 -0.1817 -0.1885
  331MOL0     C44587   4.229   5.679  13.601  1.0743  0.6118  0.2291
  331MOL0     C44588   4.343   5.604  13.680 -0.1423  0.2501  0.6805
  331MOL0     C44589   4.328   5.641  13.829 -0.0166 -0.9048 -0.3324
  331MOL0     C44590   4.439   5.597  13.924 -1.0041  0.5898 -0.0347
  331MOL0     C44591   4.418   5.633  14.073  0.0377  0.5769 -0.4935
  331MOL0     C44592   4.514   5.572  14.180 -0.2258 -0.3557 -0.0276
  331MOL0     C44593   4.660   5.566  14.127  1.9982 -0.0442 -0.0627
  331MOL0     C44594   4.757   5.538  14.242 -0.6652 -0.6608 -0.0749
  331MOL0    Cl44595   4.775   5.681  14.339  0.0278 -0.4251  0.0548
  331MOL0     C44596   4.080   5.458  13.465  0.1136 -0.3152 -0.5362
  331MOL0     C44597   3.979   5.388  13.399  0.1344 -0.3083  0.3504
  331MOL0     O44598   3.904   5.321  13.023  0.1714 -0.0167  0.3500
  331MOL0     C44599   3.562   5.337  13.106 -0.0550  0.2811  0.6946
  331MOL0     C44600   3.436   5.321  13.056 -0.5556  0.3917 -0.4892
  331MOL0     N44601   3.127   5.074  12.233 -0.0165 -0.1366 -0.0333
  331MOL0     N44602   3.078   4.979  12.161 -0.3118  0.4860  0.2894
  331MOL0     C44603   2.045   4.635  11.758 -0.1594 -0.5115  0.0352
  331MOL0     C44604   2.005   4.582  11.634 -0.3554  0.0196 -0.6402
  331MOL0     C44605   2.056   4.492  11.186 -0.6627  0.0373  0.1076
  331MOL0     C44606   2.068   4.555  11.062  0.7085  0.3474 -0.1146
  331MOL0     C44607   2.030   4.490  10.946  1.2273  0.0018  1.0455
  331MOL0     C44608   1.997   4.354  10.945  0.3928 -0.2173 -0.0885
  331MOL0     O44609   1.992   4.311  10.816 -0.0312 -0.4356 -0.2861
  331MOL0     C44610   1.968   4.173  10.788 -0.2947 -0.1030  0.5655
  331MOL0     C44611   2.096   4.094  10.786 -0.1980  0.3502 -0.0880
  331MOL0     C44612   2.079   3.936  10.775 -0.6467 -0.6519 -0.2269
  331MOL0     C44613   2.213   3.877  10.779  0.3518 -0.1763  0.5341
  331MOL0     C44614   2.284   3.896  10.903  0.7084  0.1640  0.8940
  331MOL0     C44615   2.359   3.914  10.991  0.8805 -1.1674 -0.3892
  331MOL0     C44616   1.999   4.285  11.066 -0.1837 -0.8088 -0.0581
  331MOL0     C44617   2.022   4.359  11.189 -0.1569  0.0275 -0.4351
  331MOL0     H44618   2.303   4.564  11.482  2.6813  2.1451  1.3437
  331MOL0     H44619   2.373   4.644  11.705 -0.8557  0.3655  0.1671
  331MOL0     H44620   2.394   4.786  11.861  0.6143 -0.6290  1.8061
  331MOL0     H44621   2.282   4.920  11.811 -1.3113 -2.2021 -2.3834
  331MOL0     H44622   2.366   4.992  12.033  0.8537 -0.0069 -2.6767
  331MOL0     H44623   2.199   4.924  12.056  0.5248  1.2867  0.8270
  331MOL0     H44624   2.337   4.843  12.227  0.7710  1.0244  0.7233
  331MOL0     H44625   2.332   4.702  12.111  0.7836 -0.4715 -2.3519
  331MOL0     H44626   2.531   4.787  11.995 -0.6855  0.0595 -1.0877
  331MOL0     H44627   2.570   4.892  12.138 -0.4718 -0.3032  0.9574
  331MOL0     H44628   2.558   4.686  12.279 -0.9755 -0.1108 -0.3114
  331MOL0     H44629   2.531   4.588  12.147 -1.7544  2.1802 -1.0756
  331MOL0     H44630   2.769   4.588  12.235  0.2245 -0.0071 -1.0724
  331MOL0     H44631   2.765   4.612  12.064 -0.3044 -1.5184  0.3620
  331MOL0     H44632   2.791   4.858  12.097  0.3004  4.1027  2.2987
  331MOL0     H44633   2.780   4.833  12.266 -0.3265  0.0152 -0.5721
  331MOL0     H44634   2.990   4.715  12.095 -5.0360  1.5231 -1.2610
  331MOL0     H44635   2.986   4.676  12.270  3.4776 -1.1353 -0.9196
  331MOL0     H44636   3.061   4.839  12.447  2.2443  0.9785  0.0964
  331MOL0     H44637   3.285   5.111  12.480 -0.0149  1.1212  0.4826
  331MOL0     H44638   3.162   5.225  12.449  0.9180  0.2377  2.1913
  331MOL0     H44639   3.139   4.997  12.650  1.8432  1.3370  1.5539
  331MOL0     H44640   2.997   5.099  12.592 -0.7656  3.2160  3.0686
  331MOL0     H44641   3.091   5.200  12.796 -1.3451 -1.8643 -0.4615
  331MOL0     H44642   3.123   5.304  12.654  3.0931  0.3806 -1.4152
  331MOL0     H44643   3.329   5.294  12.675 -1.2323  2.3384  0.2266
  331MOL0     H44644   3.345   5.131  12.751 -0.0522 -0.1700  0.5667
  331MOL0     H44645   3.499   5.398  12.742 -1.5583  2.0535  1.5060
  331MOL0     H44646   3.819   5.321  12.770 -1.5909 -0.9167  0.9511
  331MOL0     H44647   3.727   5.459  12.707  3.4047  0.0875 -1.6498
  331MOL0     H44648   3.819   5.493  12.849 -1.9217  1.0690  0.3874
  331MOL0     H44649   3.956   5.581  13.128  0.0151 -2.6660 -1.7436
  331MOL0     H44650   4.161   5.671  13.209 -0.3355  0.1825  0.5692
  331MOL0     H44651   4.251   5.786  13.600 -2.5201  1.6425 -4.3079
  331MOL0     H44652   4.131   5.667  13.649  1.4209  0.0469  0.8021
  331MOL0     H44653   4.335   5.495  13.673  1.3083  0.2464 -2.7460
  331MOL0     H44654   4.443   5.632  13.646  0.6013 -2.3793  0.4797
  331MOL0     H44655   4.237   5.600  13.874  1.5722 -2.0583  2.0803
  331MOL0     H44656   4.321   5.751  13.829 -1.0800 -0.9677 -0.5601
  331MOL0     H44657   4.448   5.488  13.920  2.1563  0.7798 -0.8654
  331MOL0     H44658   4.535   5.635  13.888 -1.4172  2.1721  0.4652
  331MOL0     H44659   4.318   5.605  14.107  1.2618 -2.6985  0.8386
  331MOL0     H44660   4.422   5.742  14.075  0.7454  0.5427  0.5012
  331MOL0     H44661   4.517   5.626  14.275  0.4924 -2.0254  0.9409
  331MOL0     H44662   4.485   5.471  14.209  2.6554 -1.7697 -1.5976
  331MOL0     H44663   4.679   5.668  14.094  1.0278  1.0773  2.5688
  331MOL0     H44664   4.658   5.490  14.048 -1.9239  1.6087 -1.8044
  331MOL0     H44665   4.856   5.514  14.205 -0.2217 -0.6481  1.0566
  331MOL0     H44666   4.719   5.458  14.307 -0.4277 -1.3321 -0.7583
  331MOL0     H44667   4.121   5.424  13.560  1.3797 -0.5296 -1.1412
  331MOL0     H44668   3.946   5.290  13.434 -0.4292 -1.7231 -3.5981
  331MOL0     H44669   3.580   5.335  13.213  2.6624  2.9251  0.4082
  331MOL0     H44670   3.354   5.288  13.119 -0.8296 -0.3584 -1.2268
  331MOL0     H44671   1.958   4.656  11.819 -1.9371 -2.0526 -1.8416
  331MOL0     H44672   1.898   4.568  11.622 -0.8682  0.3157  2.7017
  331MOL0     H44673   2.101   4.659  11.060  0.2771  0.5048  0.5009
  331MOL0     H44674   2.017   4.561  10.865 -0.2002  0.8896  2.0114
  331MOL0     H44675   1.905   4.132  10.867 -1.7083 -1.6645 -1.2627
  331MOL0     H44676   1.901   4.163  10.702  0.6286 -3.2330  0.0949
  331MOL0     H44677   2.148   4.125  10.878  1.1575 -0.1862 -0.6558
  331MOL0     H44678   2.155   4.138  10.706 -1.8983  1.5836 -0.7313
  331MOL0     H44679   2.025   3.913  10.682  0.0726 -0.9513 -0.5792
  331MOL0     H44680   2.021   3.904  10.862  0.4588  0.8992  1.1518
  331MOL0     H44681   2.269   3.909  10.690 -1.3081  2.1945  0.2593
  331MOL0     H44682   2.206   3.768  10.770 -0.7084 -0.0555 -0.3437
  331MOL0     H44683   2.406   3.943  11.083 -4.8500  3.2061  1.8238
  331MOL0     H44684   1.968   4.182  11.052 -1.0104 -0.2890 -2.5966
  331MOL0     H44685   2.013   4.305  11.283  1.6039 -1.8943 -1.2904
  332MOL0     O44686   3.170   0.283   6.726  0.6151 -0.0133  0.3257
  332MOL0     C44687   3.242   0.191   6.676 -0.3107  0.6008 -1.1262
  332MOL0     O44688   3.219   0.056   6.695 -0.9793  0.1132 -0.1697
  332MOL0     C44689   3.093   0.019   6.751  0.5435  0.1680  0.6215
  332MOL0     C44690   2.980   0.044   6.665  1.1359 -0.0574 -0.5207
  332MOL0     C44691   2.845   0.029   6.719  0.0934  0.3991 -0.2826
  332MOL0     C44692   2.828  -0.031   6.841  0.1934  0.3901 -0.9442
  332MOL0     O44693   2.693  -0.034   6.880 -0.0661 -0.6208  0.0125
  332MOL0     C44694   2.663  -0.115   6.990 -0.1898  0.0271 -0.7260
  332MOL0     C44695   2.522  -0.161   6.973  0.2832  0.3719 -0.7912
  332MOL0     C44696   2.504  -0.289   7.064 -0.4218 -1.3838  0.4855
  332MOL0     C44697   2.358  -0.323   7.101  1.2879 -0.0689 -0.2180
  332MOL0     C44698   2.296  -0.239   7.208  0.2200 -0.3115 -0.1266
  332MOL0     C44699   2.146  -0.255   7.220  1.2695 -1.1325 -0.3910
  332MOL0     C44700   2.091  -0.153   7.333  0.1330 -0.5530  0.3169
  332MOL0     C44701   1.938  -0.170   7.367  0.2302  0.0270  0.1063
  332MOL0     N44702   1.841  -0.127   7.267  0.2732  0.4311 -0.4899
  332MOL0     C44703   1.706  -0.168   7.266 -0.4425  0.2890 -0.2229
  332MOL0     C44704   1.660  -0.121   7.155  0.4996 -0.2126 -0.5106
  332MOL0     C44705   1.521  -0.128   7.088  0.0674  0.4221  0.4040
  332MOL0     C44706   1.413  -0.098   7.186  0.5827 -0.1514  0.5025
  332MOL0     C44707   1.280  -0.057   7.115  0.0208 -0.1997  0.3514
  332MOL0     C44708   1.223  -0.182   7.044 -0.7158  0.1591  0.6924
  332MOL0     O44709   1.155  -0.267   7.139 -0.0995  0.2258 -0.3364
  332MOL0     C44710   1.077  -0.377   7.093 -0.5306 -0.2109 -0.6668
  332MOL0     C44711   1.000  -0.444   7.188  0.3210  1.1993 -0.1677
  332MOL0     C44712   0.922  -0.559   7.155 -0.2835 -0.5492 -0.3784
  332MOL0     C44713   0.849  -0.613   7.285 -1.2347 -0.0812  0.9880
  332MOL0     C44714   0.914  -0.616   7.026  0.2195 -0.1521  0.0327
  332MOL0     C44715   0.830  -0.737   6.981  0.7937 -0.8184 -0.2458
  332MOL0     O44716   0.782  -0.809   7.075  0.0495  0.7104  0.7642
  332MOL0     C44717   0.683  -0.905   7.043  0.0443  0.5398 -0.8057
  332MOL0     C44718   0.716  -1.034   7.002  1.3454  0.1204 -0.2094
  332MOL0     C44719   0.612  -1.118   6.960  0.1337  0.2531 -0.7024
  332MOL0     C44720   0.478  -1.082   6.963  0.2425  0.3245  0.5535
  332MOL0     O44721   0.387  -1.182   6.950 -0.5051  0.4189 -0.0167
  332MOL0     C44722   0.250  -1.146   6.972 -0.1873  0.4596  0.0183
  332MOL0     C44723   0.169  -1.275   6.952 -0.1622  0.1676  0.1849
  332MOL0     C44724   0.026  -1.278   7.003 -0.1307 -1.4242  0.7364
  332MOL0     C44725  -0.048  -1.403   6.962  0.0420  0.5738 -0.0694
  332MOL0     C44726  -0.199  -1.404   7.010 -0.2912  0.2304  0.4183
  332MOL0     C44727  -0.230  -1.517   7.109 -0.3000  0.1130  0.4144
  332MOL0     C44728  -0.384  -1.541   7.123 -0.7200 -0.2886 -0.2792
  332MOL0     C44729  -0.424  -1.668   7.195 -1.1835 -0.6076  0.1198
  332MOL0    Cl44730  -0.372  -1.655   7.357 -0.5503 -0.0588  0.1202
  332MOL0     C44731   0.443  -0.944   6.995 -0.5386  0.4033 -0.1235
  332MOL0     C44732   0.549  -0.860   7.038  0.1070 -0.6577  0.3741
  332MOL0     O44733   0.833  -0.772   6.863 -0.3009  0.0314 -0.3075
  332MOL0     C44734   0.997  -0.539   6.929 -0.7445  0.2835 -0.1836
  332MOL0     C44735   1.071  -0.423   6.962 -0.2825  0.3652  0.4381
  332MOL0     N44736   1.764  -0.055   7.089  0.1633 -0.0155 -0.0994
  332MOL0     N44737   1.866  -0.046   7.164  0.2925 -0.1587  0.1126
  332MOL0     C44738   2.945  -0.060   6.919  0.5040  0.1444 -0.0981
  332MOL0     C44739   3.072  -0.038   6.872  0.2859  1.2693 -0.8977
  332MOL0     C44740   3.375   0.217   6.623 -0.3768 -0.7700  0.7923
  332MOL0     C44741   3.474   0.115   6.607  0.1315  0.1875  0.4234
  332MOL0     C44742   3.602   0.151   6.553  1.1031  0.1062  0.3045
  332MOL0     C44743   3.630   0.278   6.498 -0.7619  0.5910 -0.4387
  332MOL0     O44744   3.755   0.278   6.452 -0.6351 -0.1211  0.4750
  332MOL0     C44745   3.818   0.399   6.424  0.1635 -0.2019 -0.9025
  332MOL0     C44746   3.779   0.469   6.293 -0.1729  0.0334 -0.3239
  332MOL0     C44747   3.785   0.377   6.171  0.8084 -0.5180  0.2921
  332MOL0     C44748   3.693   0.423   6.055 -0.0797 -0.2085  0.3069
  332MOL0     C44749   3.740   0.554   5.998 -0.5406 -0.0292 -0.0380
  332MOL0     C44750   3.798   0.653   5.954 -0.1111 -0.2001 -0.2588
  332MOL0     C44751   3.536   0.378   6.510  0.7741  0.2399  1.1325
  332MOL0     C44752   3.410   0.343   6.571 -0.0071  0.9451 -0.1449
  332MOL0     H44753   3.004   0.085   6.568  0.8743  0.1134 -0.5155
  332MOL0     H44754   2.757   0.060   6.664  0.2794  2.7268  0.6128
  332MOL0     H44755   2.731  -0.201   6.998  2.8156  2.0597 -2.2071
  332MOL0     H44756   2.654  -0.069   7.088 -2.9416  0.8100 -1.2685
  332MOL0     H44757   2.454  -0.083   7.010  0.3771  1.1056 -2.1074
  332MOL0     H44758   2.507  -0.173   6.865 -0.9678  2.1885 -0.8636
  332MOL0     H44759   2.538  -0.365   6.994  0.8575  0.2428 -0.7435
  332MOL0     H44760   2.573  -0.281   7.148  1.9604  1.9181 -1.5523
  332MOL0     H44761   2.300  -0.316   7.009  2.2377 -1.2578 -0.9347
  332MOL0     H44762   2.345  -0.426   7.135 -0.1012 -0.3205 -1.3985
  332MOL0     H44763   2.345  -0.256   7.304  1.4470  1.9327 -0.2790
  332MOL0     H44764   2.328  -0.137   7.186  1.9065  0.0343  3.3289
  332MOL0     H44765   2.095  -0.231   7.126  1.2563  1.5053  0.1945
  332MOL0     H44766   2.119  -0.355   7.253 -1.3136 -0.0588  1.0423
  332MOL0     H44767   2.144  -0.177   7.426 -0.8289 -2.4574  0.4249
  332MOL0     H44768   2.108  -0.047   7.314  0.8241 -0.1089  2.9656
  332MOL0     H44769   1.925  -0.104   7.453 -0.5170  3.1596 -2.2436
  332MOL0     H44770   1.908  -0.274   7.386 -2.3112  0.6789 -0.0778
  332MOL0     H44771   1.645  -0.226   7.334  0.0608  1.6820  1.4927
  332MOL0     H44772   1.518  -0.059   7.003  2.0749 -0.2065 -0.2314
  332MOL0     H44773   1.500  -0.227   7.046 -1.9404  1.2785 -0.7210
  332MOL0     H44774   1.443  -0.019   7.255  1.5371 -0.7894  0.8392
  332MOL0     H44775   1.396  -0.188   7.246  0.4962  1.1973  2.5930
  332MOL0     H44776   1.310   0.014   7.037  4.2864 -2.3920 -0.3210
  332MOL0     H44777   1.214  -0.023   7.196  0.0290 -2.1564  1.2413
  332MOL0     H44778   1.308  -0.233   6.997  0.8669  2.1182  1.2974
  332MOL0     H44779   1.156  -0.145   6.966 -0.9688  0.5454  1.0918
  332MOL0     H44780   1.002  -0.392   7.284 -0.3595  2.3968 -0.7743
  332MOL0     H44781   0.826  -0.531   7.354 -1.9833  0.6884 -0.1253
  332MOL0     H44782   0.757  -0.664   7.256  0.0506 -1.4712 -0.8629
  332MOL0     H44783   0.910  -0.688   7.337  1.7885  1.1964 -0.4803
  332MOL0     H44784   0.823  -1.048   6.993  1.1497 -0.2332 -2.6003
  332MOL0     H44785   0.652  -1.210   6.918  4.0009  1.6433 -0.5341
  332MOL0     H44786   0.232  -1.115   7.076 -1.1936 -0.3862  0.1198
  332MOL0     H44787   0.214  -1.076   6.897  0.5436  0.3207 -0.4705
  332MOL0     H44788   0.149  -1.303   6.849  0.1757 -0.6555  0.3340
  332MOL0     H44789   0.223  -1.357   7.001  2.2852  0.2855 -2.1188
  332MOL0     H44790  -0.030  -1.195   6.958  0.4981 -1.2744  0.2263
  332MOL0     H44791   0.027  -1.264   7.112 -0.8889  1.6591  0.4652
  332MOL0     H44792  -0.058  -1.397   6.853 -1.8666 -0.4167  0.0193
  332MOL0     H44793  -0.001  -1.498   6.990 -1.3128  0.9268  3.9727
  332MOL0     H44794  -0.265  -1.416   6.924  0.9713 -0.4760 -0.4948
  332MOL0     H44795  -0.222  -1.312   7.064  0.4497  1.1324 -0.7405
  332MOL0     H44796  -0.178  -1.608   7.075  2.7651  1.7709  0.2690
  332MOL0     H44797  -0.177  -1.482   7.198  1.1255 -2.3175  0.6050
  332MOL0     H44798  -0.439  -1.536   7.028 -1.5144 -1.6205  0.0767
  332MOL0     H44799  -0.411  -1.458   7.188  2.0700  0.3734  0.1727
  332MOL0     H44800  -0.381  -1.756   7.146  1.1680  0.2876  0.4353
  332MOL0     H44801  -0.532  -1.684   7.195 -1.6595  2.0751  0.9173
  332MOL0     H44802   0.339  -0.914   6.990 -0.8015  0.3310  2.9092
  332MOL0     H44803   0.527  -0.758   7.071 -2.2011 -1.0758  0.2964
  332MOL0     H44804   0.994  -0.573   6.826  1.1152 -1.4277  0.2586
  332MOL0     H44805   1.127  -0.386   6.877  2.5421 -0.2689  1.9002
  332MOL0     H44806   2.918  -0.107   7.013 -4.3628 -0.0858 -1.3837
  332MOL0     H44807   3.155  -0.065   6.937 -1.3176 -1.8137  0.0730
  332MOL0     H44808   3.463   0.012   6.639  1.8497  0.3482  1.6724
  332MOL0     H44809   3.680   0.077   6.539  1.1054  0.2410 -0.4261
  332MOL0     H44810   3.795   0.470   6.504 -0.7179 -0.7251 -0.6770
  332MOL0     H44811   3.924   0.376   6.417  0.6637  2.1231 -2.0663
  332MOL0     H44812   3.849   0.552   6.286  2.0557 -1.5231  1.6978
  332MOL0     H44813   3.680   0.513   6.308 -0.2716 -0.4815  0.6325
  332MOL0     H44814   3.752   0.274   6.189  0.0000 -0.4847 -0.8902
  332MOL0     H44815   3.885   0.374   6.127 -0.4195  1.2770 -2.9318
  332MOL0     H44816   3.589   0.433   6.088  0.2528  2.0464  0.8818
  332MOL0     H44817   3.690   0.347   5.977 -5.5227  0.2220 -0.3001
  332MOL0     H44818   3.847   0.739   5.913 -0.4682 -0.2509 -0.8056
  332MOL0     H44819   3.539   0.482   6.479 -0.3730 -0.0349  0.0278
  332MOL0     H44820   3.333   0.414   6.599 -1.5229 -1.0815  1.1512
  333MOL0     O44821   5.832  10.795   8.141  0.3993  0.4048 -0.1820
  333MOL0     C44822   5.886  10.759   8.247  0.4513 -1.0356  0.5131
  333MOL0     O44823   5.886  10.635   8.304  0.2726  0.1500  0.2340
  333MOL0     C44824   5.829  10.536   8.233 -1.2441 -0.6946  0.1927
  333MOL0     C44825   5.891  10.484   8.124  0.4216  0.4167  0.0573
  333MOL0     C44826   5.824  10.391   8.047 -0.5078  0.7750  0.0257
  333MOL0     C44827   5.711  10.331   8.090  0.9744  0.3714 -0.0528
  333MOL0     O44828   5.663  10.238   8.001  0.5675  0.1414  0.0982
  333MOL0     C44829   5.525  10.197   7.990  0.1444  0.4666 -0.1313
  333MOL0     C44830   5.492  10.081   7.877  0.1414 -0.5369  0.0386
  333MOL0     C44831   5.516  10.138   7.736  0.0441  1.0761 -0.4153
  333MOL0     C44832   5.482  10.030   7.636  0.4981  0.1696 -0.1282
  333MOL0     C44833   5.470  10.086   7.493 -0.8130  0.0372  0.4910
  333MOL0     C44834   5.458   9.989   7.388  0.1361  0.0484  0.8067
  333MOL0     C44835   5.384  10.049   7.261 -0.3272 -0.2030 -0.6086
  333MOL0     C44836   5.361   9.934   7.167  0.5585  0.0140 -0.1461
  333MOL0     N44837   5.266   9.971   7.062  0.2138 -0.2455 -0.1963
  333MOL0     C44838   5.129   9.930   7.052 -0.7598  0.1381  0.0461
  333MOL0     C44839   5.082  10.005   6.956  0.3165  0.3755  0.5304
  333MOL0     C44840   4.944  10.018   6.900  0.7577  0.2814 -0.3834
  333MOL0     C44841   4.851  10.106   6.993 -0.2056  0.1609  0.3907
  333MOL0     C44842   4.706  10.124   6.950  0.6289  0.7714  0.7941
  333MOL0     C44843   4.615  10.174   7.063 -0.2220  0.1826  0.1692
  333MOL0     O44844   4.493  10.225   7.006  0.0015 -0.0659 -0.3332
  333MOL0     C44845   4.384  10.253   7.087 -0.8168 -0.0714 -0.2786
  333MOL0     C44846   4.384  10.253   7.233 -1.2721  0.4852 -0.0282
  333MOL0     C44847   4.268  10.281   7.309  0.6456 -0.9869  1.1434
  333MOL0     C44848   4.293  10.275   7.457  0.1278  0.7894 -0.3347
  333MOL0     C44849   4.141  10.310   7.245 -0.5732 -0.7241  0.0497
  333MOL0     C44850   4.013  10.337   7.316 -0.0061 -0.4527 -0.9219
  333MOL0     O44851   4.015  10.377   7.454 -0.1582 -0.5091  0.1368
  333MOL0     C44852   3.907  10.419   7.518  0.5319 -0.0467 -0.6508
  333MOL0     C44853   3.814  10.502   7.453  0.7401  0.1349 -0.6080
  333MOL0     C44854   3.686  10.537   7.522  0.4451 -0.4404  0.1813
  333MOL0     C44855   3.669  10.515   7.659 -0.2164  0.2680  0.3138
  333MOL0     O44856   3.561  10.545   7.739  0.2982  0.6397 -0.7828
  333MOL0     C44857   3.471  10.650   7.697  0.2141 -0.5795  1.0706
  333MOL0     C44858   3.373  10.693   7.812 -0.7840  0.5966  0.2120
  333MOL0     C44859   3.449  10.755   7.932 -0.7959 -0.4058 -0.3285
  333MOL0     C44860   3.359  10.790   8.050 -0.0190 -0.9352  0.1428
  333MOL0     C44861   3.400  10.904   8.144  0.1560  0.8889 -0.5672
  333MOL0     C44862   3.539  10.884   8.213 -0.6678  0.5257  0.6753
  333MOL0     C44863   3.560  10.974   8.339  0.1049 -0.5600  0.2373
  333MOL0     C44864   3.705  10.990   8.394 -0.0324 -0.6828  0.0862
  333MOL0    Cl44865   3.728  10.822   8.463 -0.0563  0.5954 -0.1981
  333MOL0     C44866   3.772  10.444   7.719  0.4018 -0.0266 -0.8637
  333MOL0     C44867   3.881  10.395   7.650 -0.4471  0.5370  0.0068
  333MOL0     O44868   3.911  10.311   7.257 -0.5749 -0.4145  0.1934
  333MOL0     C44869   4.150  10.319   7.106  0.5275 -0.2266 -0.1854
  333MOL0     C44870   4.258  10.280   7.030 -0.1317 -0.5904  0.1849
  333MOL0     N44871   5.172  10.100   6.923  0.3356 -0.8530 -0.7891
  333MOL0     N44872   5.286  10.083   6.984  0.0703  0.0455  0.3225
  333MOL0     C44873   5.643  10.381   8.205 -0.4989  0.7566  0.3553
  333MOL0     C44874   5.706  10.491   8.275 -0.4055  0.6295  0.1375
  333MOL0     C44875   5.966  10.867   8.305 -0.6591  0.0111 -1.1240
  333MOL0     C44876   6.005  10.982   8.227  0.1969  0.3128 -0.6414
  333MOL0     C44877   6.089  11.077   8.289  0.2356 -0.5619  0.4321
  333MOL0     C44878   6.115  11.068   8.425  0.1083 -0.2087 -0.3062
  333MOL0     O44879   6.186  11.157   8.502  0.1591  0.2938  0.4011
  333MOL0     C44880   6.168  11.294   8.464 -0.3392 -0.1601  0.1934
  333MOL0     C44881   6.305  11.338   8.399  0.3051  0.1700 -0.2054
  333MOL0     C44882   6.282  11.468   8.317  0.1123  0.6712  0.2850
  333MOL0     C44883   6.255  11.447   8.166 -1.1346  0.0447  0.0062
  333MOL0     C44884   6.112  11.430   8.143 -0.0185 -1.2089 -0.3067
  333MOL0     C44885   5.994  11.429   8.109  0.5846  0.0166  0.7120
  333MOL0     C44886   6.088  10.955   8.495  0.8378 -0.5718 -0.0966
  333MOL0     C44887   6.013  10.852   8.438 -0.7076 -1.3617 -0.3124
  333MOL0     H44888   5.981  10.536   8.093  0.1811  0.2757 -0.9309
  333MOL0     H44889   5.875  10.364   7.956  0.0118 -0.2565  0.6089
  333MOL0     H44890   5.481  10.170   8.086 -1.3823  1.7549 -0.4319
  333MOL0     H44891   5.471  10.282   7.948  0.3235  0.4359 -0.4210
  333MOL0     H44892   5.548   9.987   7.880  1.6368  0.1917 -2.3508
  333MOL0     H44893   5.386  10.057   7.890  0.3270 -0.6680  1.5840
  333MOL0     H44894   5.443  10.216   7.712 -1.7121 -0.1594  0.6992
  333MOL0     H44895   5.617  10.180   7.731  0.5083  0.0388  0.1016
  333MOL0     H44896   5.569   9.967   7.655  0.5664  0.9805  2.6113
  333MOL0     H44897   5.389   9.978   7.660  0.7748  0.4522  1.6640
  333MOL0     H44898   5.385  10.155   7.494 -1.8675 -1.2147  1.3292
  333MOL0     H44899   5.558  10.146   7.468  0.8523 -1.6794  1.9005
  333MOL0     H44900   5.559   9.958   7.359  0.4741  2.0364 -0.3388
  333MOL0     H44901   5.415   9.894   7.422  1.5556 -1.9307 -2.4529
  333MOL0     H44902   5.297  10.113   7.279 -0.1581 -0.6397  2.2799
  333MOL0     H44903   5.452  10.122   7.215 -0.5331 -0.4229 -1.2647
  333MOL0     H44904   5.314   9.855   7.226  0.2467 -0.7680 -1.3840
  333MOL0     H44905   5.454   9.893   7.125  1.2618  1.1756  0.2492
  333MOL0     H44906   5.076   9.849   7.100 -2.3542  1.1665  0.1082
  333MOL0     H44907   4.961  10.068   6.805 -0.2289  0.2571 -0.5839
  333MOL0     H44908   4.901   9.918   6.887  1.1402  0.1538 -0.6977
  333MOL0     H44909   4.890  10.203   7.025 -2.3934  1.0976  0.4263
  333MOL0     H44910   4.838  10.046   7.083 -3.4034 -2.5265 -1.6029
  333MOL0     H44911   4.669  10.023   6.927  1.2367  0.1388  2.4623
  333MOL0     H44912   4.696  10.163   6.848 -2.2084 -2.2491 -0.2741
  333MOL0     H44913   4.667  10.259   7.108  1.3622 -0.2318 -0.7787
  333MOL0     H44914   4.608  10.095   7.138  2.6235  1.3250  1.7718
  333MOL0     H44915   4.475  10.221   7.281 -1.0049 -3.6493 -2.7941
  333MOL0     H44916   4.245  10.183   7.492  1.0242  1.5665  3.4058
  333MOL0     H44917   4.400  10.265   7.479  0.5200  3.4179 -0.6862
  333MOL0     H44918   4.250  10.353   7.520  0.0175  1.1986 -0.9109
  333MOL0     H44919   3.821  10.519   7.346 -0.7349 -0.5795 -0.8323
  333MOL0     H44920   3.620  10.604   7.468 -1.0759 -0.4685  1.9106
  333MOL0     H44921   3.541  10.734   7.692 -0.1350 -0.3357 -1.7895
  333MOL0     H44922   3.427  10.639   7.597  1.7670  0.1391  0.2680
  333MOL0     H44923   3.287  10.750   7.776 -2.0319 -1.5793 -0.3935
  333MOL0     H44924   3.320  10.608   7.858 -1.2701 -0.0713 -1.5279
  333MOL0     H44925   3.496  10.849   7.904 -2.9269  1.8792  2.9818
  333MOL0     H44926   3.522  10.682   7.967  0.4796  0.5555 -0.8840
  333MOL0     H44927   3.262  10.819   8.008  0.9866  0.8241 -1.0709
  333MOL0     H44928   3.347  10.697   8.108  2.5730 -1.0708  0.6045
  333MOL0     H44929   3.322  10.914   8.220  1.5500  1.3789  0.8493
  333MOL0     H44930   3.387  10.998   8.090 -3.1275  1.7625  1.4877
  333MOL0     H44931   3.547  10.779   8.244  1.4424  0.1030 -1.0638
  333MOL0     H44932   3.614  10.914   8.140 -0.8897 -0.5658 -0.0158
  333MOL0     H44933   3.487  10.938   8.412 -3.2180  0.8589 -2.1357
  333MOL0     H44934   3.522  11.072   8.309  0.0774  0.4142  3.1719
  333MOL0     H44935   3.725  11.070   8.466  2.2582 -1.4740  0.4163
  333MOL0     H44936   3.780  11.003   8.315 -0.6353 -0.3791 -0.4407
  333MOL0     H44937   3.766  10.428   7.826  0.5979 -0.2492 -0.8855
  333MOL0     H44938   3.958  10.347   7.711  2.5561 -0.6322 -4.1636
  333MOL0     H44939   4.058  10.346   7.057  0.6216  3.1107  1.1948
  333MOL0     H44940   4.251  10.284   6.921 -0.0271 -1.5574  0.1351
  333MOL0     H44941   5.550  10.338   8.240 -0.1835  1.6059  2.4016
  333MOL0     H44942   5.661  10.556   8.349  3.5451  5.1026 -0.9240
  333MOL0     H44943   5.977  10.999   8.124  0.8163  0.6789 -0.7562
  333MOL0     H44944   6.106  11.163   8.225 -4.2892 -0.2452 -0.6565
  333MOL0     H44945   6.086  11.308   8.394  0.2209  0.7238 -0.3017
  333MOL0     H44946   6.144  11.345   8.558  1.1457  0.8823  0.0421
  333MOL0     H44947   6.332  11.248   8.343  1.3319 -0.4074  1.1841
  333MOL0     H44948   6.378  11.349   8.478 -1.2820 -0.5005  1.4264
  333MOL0     H44949   6.365  11.539   8.310 -0.7245  1.4749 -4.1241
  333MOL0     H44950   6.187  11.512   8.350 -1.1833 -1.2963 -0.6048
  333MOL0     H44951   6.308  11.359   8.128 -0.5036  1.8600 -3.7288
  333MOL0     H44952   6.301  11.535   8.122  3.6294 -0.4516  3.2257
  333MOL0     H44953   5.896  11.439   8.067  1.6697 -2.3977 -2.9168
  333MOL0     H44954   6.115  10.948   8.600  0.9469  0.7244 -0.0221
  333MOL0     H44955   5.994  10.763   8.498  0.3910 -1.3569  0.0641
  334MOL0     O44956   1.477   5.224   7.128 -0.4296  0.2482 -0.0766
  334MOL0     C44957   1.500   5.262   7.249 -0.4846 -0.0273  0.2887
  334MOL0     O44958   1.469   5.182   7.354 -0.0167 -0.0668 -0.0224
  334MOL0     C44959   1.451   5.046   7.354  0.9294  0.3995  0.3000
  334MOL0     C44960   1.380   4.997   7.468  0.0744  0.5702  0.2340
  334MOL0     C44961   1.348   4.857   7.485 -0.1125 -0.5385  0.0054
  334MOL0     C44962   1.392   4.765   7.389  0.7129  0.3191  1.3393
  334MOL0     O44963   1.373   4.629   7.401 -0.6463  0.0187 -0.1631
  334MOL0     C44964   1.308   4.575   7.511 -1.4620  0.4349  0.8731
  334MOL0     C44965   1.308   4.433   7.485 -0.0643 -1.5048 -0.2855
  334MOL0     C44966   1.317   4.342   7.612 -1.0196  0.5779 -0.2565
  334MOL0     C44967   1.261   4.206   7.586 -0.1331  0.5404  0.5921
  334MOL0     C44968   1.141   4.171   7.669 -0.9420  0.3736  0.0269
  334MOL0     C44969   1.087   4.042   7.623  0.2837 -1.0916  0.4205
  334MOL0     C44970   0.941   4.021   7.625  0.2170  0.0846 -0.0404
  334MOL0     C44971   0.881   3.984   7.766 -0.5564  0.3854  0.9115
  334MOL0     N44972   0.735   3.979   7.763  0.5243  0.0068 -0.2700
  334MOL0     C44973   0.653   3.867   7.758  0.1320 -0.0186  0.2568
  334MOL0     C44974   0.530   3.921   7.729  0.0094 -0.1651  1.1703
  334MOL0     C44975   0.407   3.847   7.689 -1.0262 -0.0738 -0.1930
  334MOL0     C44976   0.310   3.812   7.809  0.3889  0.9095 -1.1218
  334MOL0     C44977   0.173   3.754   7.757  0.6146 -0.3547 -0.0136
  334MOL0     C44978   0.087   3.872   7.715 -0.1027  0.3842  0.1783
  334MOL0     O44979  -0.048   3.825   7.704  0.2681 -0.3124 -0.0208
  334MOL0     C44980  -0.148   3.912   7.750 -0.0000  0.5859  0.2862
  334MOL0     C44981  -0.271   3.860   7.715  0.5831 -0.6823 -0.4326
  334MOL0     C44982  -0.390   3.931   7.718  0.7114  0.8085 -0.1983
  334MOL0     C44983  -0.517   3.861   7.658 -0.7173 -0.3885 -0.5889
  334MOL0     C44984  -0.380   4.071   7.762 -0.7834  0.2734 -0.0476
  334MOL0     C44985  -0.496   4.163   7.765  0.3542 -0.0329 -0.0728
  334MOL0     O44986  -0.622   4.131   7.711 -0.0061 -0.0803  0.1261
  334MOL0     C44987  -0.738   4.195   7.725 -0.4487 -0.0408 -0.4559
  334MOL0     C44988  -0.845   4.126   7.670 -0.3934 -0.5751 -0.6774
  334MOL0     C44989  -0.973   4.174   7.668  0.0466 -0.1661 -0.4340
  334MOL0     C44990  -0.999   4.298   7.722  0.5689 -0.0452  0.8028
  334MOL0     O44991  -1.128   4.357   7.706 -0.0810  0.1893  0.5961
  334MOL0     C44992  -1.228   4.310   7.799  0.2462  0.2160  0.1801
  334MOL0     C44993  -1.209   4.358   7.943  1.0940  0.1384  0.0115
  334MOL0     C44994  -1.302   4.293   8.047  0.8680 -0.1780 -1.2445
  334MOL0     C44995  -1.416   4.389   8.102 -0.1123  0.7362  0.0789
  334MOL0     C44996  -1.502   4.311   8.211 -0.3029 -0.6375 -0.6799
  334MOL0     C44997  -1.604   4.388   8.281  0.5723 -0.1283  1.2687
  334MOL0     C44998  -1.721   4.431   8.192  1.6370 -0.3512  0.2143
  334MOL0     C44999  -1.858   4.439   8.256  0.1414 -1.0892 -0.6666
  334MOL0    Cl45000  -1.911   4.279   8.277 -0.5805 -0.1195 -0.1323
  334MOL0     C45001  -0.894   4.372   7.780  0.0414  0.8358 -0.0834
  334MOL0     C45002  -0.769   4.317   7.790 -0.0077 -0.7061  0.0749
  334MOL0     O45003  -0.475   4.273   7.822  0.2526  0.2506  0.3887
  334MOL0     C45004  -0.256   4.127   7.808  0.1007  0.1905 -0.2418
  334MOL0     C45005  -0.139   4.046   7.790 -0.2020  0.2380 -0.6938
  334MOL0     N45006   0.539   4.056   7.725 -0.6946 -1.0442 -0.5145
  334MOL0     N45007   0.660   4.092   7.756 -0.3776  0.7888  0.0008
  334MOL0     C45008   1.464   4.813   7.276 -0.0044  0.8460 -0.3364
  334MOL0     C45009   1.492   4.953   7.265 -0.2651 -0.7530 -0.2815
  334MOL0     C45010   1.575   5.396   7.271 -0.3417  0.1168 -0.3071
  334MOL0     C45011   1.650   5.420   7.391  0.9845  0.9186  0.1084
  334MOL0     C45012   1.720   5.539   7.402 -0.0272 -0.7221 -0.3322
  334MOL0     C45013   1.706   5.639   7.311 -0.2901  0.1280 -0.0203
  334MOL0     O45014   1.762   5.758   7.305  0.6064 -0.4105  0.1790
  334MOL0     C45015   1.802   5.819   7.434 -0.7439  0.8343 -0.3251
  334MOL0     C45016   1.857   5.957   7.397  1.0085  0.8079 -0.6685
  334MOL0     C45017   1.737   6.052   7.406 -0.5166 -0.4816 -0.4189
  334MOL0     C45018   1.777   6.198   7.414  0.5285 -0.5390  0.0801
  334MOL0     C45019   1.656   6.278   7.408  0.7394 -0.3917  0.9965
  334MOL0     C45020   1.553   6.346   7.409  0.0865 -0.2938 -0.0149
  334MOL0     C45021   1.623   5.620   7.204  0.0887 -0.4920  0.6315
  334MOL0     C45022   1.559   5.501   7.183 -0.1862 -0.7933 -0.6671
  334MOL0     H45023   1.369   5.074   7.544  0.5927  0.4782  0.4077
  334MOL0     H45024   1.290   4.822   7.570  2.4445 -1.4878  1.4605
  334MOL0     H45025   1.364   4.583   7.605  0.2808 -1.4494  0.0503
  334MOL0     H45026   1.204   4.605   7.523 -1.6310 -0.3331  1.4099
  334MOL0     H45027   1.209   4.420   7.439  0.0531  1.6204 -1.6727
  334MOL0     H45028   1.389   4.412   7.414  0.9268  1.1612 -0.0427
  334MOL0     H45029   1.421   4.327   7.643 -1.4408 -1.3449  0.3571
  334MOL0     H45030   1.277   4.380   7.706 -0.4264 -2.6704  1.4285
  334MOL0     H45031   1.240   4.187   7.480  1.9415 -0.2033  0.2695
  334MOL0     H45032   1.341   4.137   7.615 -0.5019  1.1285  3.2601
  334MOL0     H45033   1.171   4.160   7.773 -0.9600 -0.3299 -0.0370
  334MOL0     H45034   1.076   4.258   7.659 -1.3148  0.4106  2.2492
  334MOL0     H45035   1.105   4.045   7.515  1.5920  3.2087  0.5677
  334MOL0     H45036   1.151   3.970   7.675  3.8950  1.2377 -0.3548
  334MOL0     H45037   0.890   4.116   7.607  1.6465  1.1783  1.3911
  334MOL0     H45038   0.924   3.943   7.550 -1.4426  0.4703 -0.1043
  334MOL0     H45039   0.889   4.070   7.833  1.2029  1.4926 -0.6051
  334MOL0     H45040   0.922   3.892   7.808 -1.3369 -0.1889  0.4418
  334MOL0     H45041   0.665   3.759   7.765  1.5598  0.0762 -0.4259
  334MOL0     H45042   0.354   3.900   7.610  1.5848 -0.1949 -2.1603
  334MOL0     H45043   0.445   3.760   7.635 -1.0495  0.6262 -1.3657
  334MOL0     H45044   0.291   3.904   7.864  0.2081 -0.6760  1.6510
  334MOL0     H45045   0.344   3.737   7.881  0.9527  2.3824  0.2062
  334MOL0     H45046   0.123   3.702   7.839 -0.2750  3.2860  1.9761
  334MOL0     H45047   0.183   3.699   7.663  1.8621  0.2203 -0.2530
  334MOL0     H45048   0.119   3.915   7.621  1.5211  0.3050  0.6690
  334MOL0     H45049   0.090   3.954   7.787 -0.1581 -0.7695  1.5492
  334MOL0     H45050  -0.268   3.756   7.684  0.4645  0.0200 -3.0726
  334MOL0     H45051  -0.496   3.756   7.635  1.1024 -0.5707  1.5901
  334MOL0     H45052  -0.600   3.869   7.728 -0.7681 -2.8749 -0.2960
  334MOL0     H45053  -0.545   3.916   7.568  3.3512  4.5472  0.6619
  334MOL0     H45054  -0.830   4.043   7.602 -0.7871  0.1578 -1.6857
  334MOL0     H45055  -1.055   4.121   7.621 -1.3758  0.5748  1.0875
  334MOL0     H45056  -1.324   4.352   7.764  0.3591  0.2741 -0.0612
  334MOL0     H45057  -1.239   4.202   7.792  0.4637  0.1596  0.7177
  334MOL0     H45058  -1.110   4.318   7.967  1.8636  0.0566 -2.8989
  334MOL0     H45059  -1.218   4.467   7.940 -3.5182 -0.0223 -0.1462
  334MOL0     H45060  -1.246   4.273   8.139  0.2585  1.8770 -0.3695
  334MOL0     H45061  -1.341   4.199   8.008  0.4005 -1.4286  1.9177
  334MOL0     H45062  -1.374   4.484   8.137 -0.1694  0.9694 -0.4884
  334MOL0     H45063  -1.487   4.411   8.022  1.2146  0.0676 -1.3386
  334MOL0     H45064  -1.428   4.280   8.286  0.0982 -0.5927 -1.0489
  334MOL0     H45065  -1.539   4.216   8.170  1.0111 -1.0488 -0.9942
  334MOL0     H45066  -1.638   4.321   8.360 -0.2254  0.8217  1.7578
  334MOL0     H45067  -1.567   4.480   8.328  2.3093  0.4411 -1.0030
  334MOL0     H45068  -1.744   4.362   8.110  0.9950 -1.7636  1.5420
  334MOL0     H45069  -1.699   4.531   8.153  3.4030 -0.5317  0.6871
  334MOL0     H45070  -1.938   4.483   8.196 -1.3438 -1.3952  0.9989
  334MOL0     H45071  -1.846   4.492   8.351 -1.3089 -0.6185 -0.7297
  334MOL0     H45072  -0.898   4.474   7.819  1.6005 -0.1112  2.9455
  334MOL0     H45073  -0.689   4.378   7.830 -1.2189  1.2899 -0.3993
  334MOL0     H45074  -0.233   4.226   7.848  1.1304 -0.8348  1.9176
  334MOL0     H45075  -0.046   4.095   7.817 -0.1343 -1.0613  1.7424
  334MOL0     H45076   1.498   4.739   7.204 -2.7613  0.1967 -1.1024
  334MOL0     H45077   1.553   4.983   7.180 -0.3056  1.6870  0.4875
  334MOL0     H45078   1.661   5.347   7.470  4.4451 -1.6613 -2.4562
  334MOL0     H45079   1.789   5.557   7.484 -0.1607 -3.6450  0.5484
  334MOL0     H45080   1.726   5.822   7.513 -0.2420  1.4176  0.1488
  334MOL0     H45081   1.890   5.774   7.481 -0.1273  1.3866 -0.9413
  334MOL0     H45082   1.900   5.953   7.297  2.6803 -2.9300  0.0408
  334MOL0     H45083   1.923   6.006   7.469 -1.8122  1.6611  1.5310
  334MOL0     H45084   1.665   6.025   7.483  0.2137  2.1957  1.3499
  334MOL0     H45085   1.678   6.032   7.316 -1.0518  1.9615 -0.6902
  334MOL0     H45086   1.851   6.229   7.340 -1.1524  2.8039 -0.3861
  334MOL0     H45087   1.822   6.216   7.513 -1.1264 -1.6802  1.0948
  334MOL0     H45088   1.469   6.412   7.401  0.7247  1.0088  2.8709
  334MOL0     H45089   1.591   5.689   7.127 -3.1356 -1.8176  0.6170
  334MOL0     H45090   1.497   5.496   7.095 -0.1223 -0.4020 -0.7321
  335MOL0     O45091   1.616   7.385   9.398 -0.5753 -0.4130  0.2209
  335MOL0     C45092   1.671   7.459   9.313 -0.1784 -0.3801 -0.2892
  335MOL0     O45093   1.607   7.531   9.213  0.5940 -0.4079 -0.3553
  335MOL0     C45094   1.466   7.511   9.218 -0.4364 -1.2379 -0.0222
  335MOL0     C45095   1.391   7.583   9.315 -0.5739 -1.2948  0.3920
  335MOL0     C45096   1.257   7.578   9.309 -0.1977  0.7432 -0.5506
  335MOL0     C45097   1.185   7.498   9.220  0.3624  0.2497 -0.1293
  335MOL0     O45098   1.049   7.494   9.233  0.2223  0.3121 -0.6393
  335MOL0     C45099   0.981   7.397   9.151 -0.0515  0.0358 -0.0915
  335MOL0     C45100   0.835   7.402   9.193  0.0720  0.0985  0.2018
  335MOL0     C45101   0.814   7.380   9.342  0.5249 -0.5809  0.0132
  335MOL0     C45102   0.670   7.353   9.369 -1.1263  0.7138 -0.0695
  335MOL0     C45103   0.641   7.320   9.515 -0.0074 -0.3576 -0.2618
  335MOL0     C45104   0.499   7.257   9.539  0.5065 -0.4041 -1.2834
  335MOL0     C45105   0.486   7.199   9.674 -0.3850  0.5361 -0.5892
  335MOL0     C45106   0.488   7.285   9.796  0.3396  0.1426  0.3809
  335MOL0     N45107   0.481   7.208   9.918 -0.8800  0.0801  0.4784
  335MOL0     C45108   0.396   7.115   9.957 -0.3187  0.4116 -0.8799
  335MOL0     C45109   0.414   7.105  10.094  0.4753  0.4944  0.1416
  335MOL0     C45110   0.336   7.016  10.184  0.3524 -0.1574  0.9797
  335MOL0     C45111   0.386   6.871  10.166  0.0331 -0.6473 -0.6542
  335MOL0     C45112   0.302   6.756  10.234 -0.1635  0.1429 -0.1143
  335MOL0     C45113   0.155   6.731  10.179 -0.1661 -0.1939 -0.0894
  335MOL0     O45114   0.057   6.809  10.256 -0.5822 -0.4230 -0.3063
  335MOL0     C45115  -0.029   6.744  10.342 -0.7181  0.5860 -0.1397
  335MOL0     C45116  -0.161   6.769  10.335  1.2865  0.3059 -0.3947
  335MOL0     C45117  -0.258   6.704  10.419 -0.6444  0.3832 -1.1721
  335MOL0     C45118  -0.402   6.745  10.411 -0.1075 -0.3901 -0.2477
  335MOL0     C45119  -0.211   6.601  10.505 -0.6581 -0.1711  0.7255
  335MOL0     C45120  -0.298   6.531  10.595  1.3124  0.6519  0.9345
  335MOL0     O45121  -0.253   6.403  10.613 -0.0591 -0.7927  0.3532
  335MOL0     C45122  -0.335   6.302  10.647  0.6100  0.5513 -0.6271
  335MOL0     C45123  -0.449   6.284  10.567  0.6935 -0.2892  0.5857
  335MOL0     C45124  -0.525   6.165  10.575  0.6585  0.1003 -0.2971
  335MOL0     C45125  -0.498   6.073  10.680  0.4824  0.5843  0.0704
  335MOL0     O45126  -0.563   5.953  10.702  0.0419 -1.0426  0.0471
  335MOL0     C45127  -0.700   5.942  10.665  0.3061 -0.2045  0.6986
  335MOL0     C45128  -0.748   5.799  10.663  0.3069 -0.1796  0.1118
  335MOL0     C45129  -0.647   5.723  10.584  0.7147  0.1457  0.0068
  335MOL0     C45130  -0.688   5.584  10.544  0.1311 -0.0436  0.4453
  335MOL0     C45131  -0.561   5.512  10.492  0.0512  0.0360  0.2990
  335MOL0     C45132  -0.516   5.531  10.346 -0.1750  0.0768  0.0685
  335MOL0     C45133  -0.624   5.518  10.239 -0.3814  0.5457 -0.0602
  335MOL0     C45134  -0.711   5.402  10.236 -0.7852  0.2084  0.4889
  335MOL0    Cl45135  -0.840   5.434  10.120  0.3828 -0.2786  0.0798
  335MOL0     C45136  -0.397   6.097  10.772 -0.8495 -0.0422  0.3444
  335MOL0     C45137  -0.311   6.209  10.747 -0.3174  0.4408  0.0542
  335MOL0     O45138  -0.408   6.572  10.635 -0.0146  0.0676  0.1319
  335MOL0     C45139  -0.072   6.578  10.507 -0.0151 -0.0790 -0.1964
  335MOL0     C45140   0.020   6.649  10.432  1.0899 -0.0282 -0.4911
  335MOL0     N45141   0.529   7.180  10.126  0.7020 -1.6081 -0.0400
  335MOL0     N45142   0.570   7.237  10.021 -0.9916 -0.3253  0.7143
  335MOL0     C45143   1.258   7.441   9.119 -0.9425  0.0866 -0.7090
  335MOL0     C45144   1.398   7.435   9.122  0.0577 -0.1815  0.5583
  335MOL0     C45145   1.815   7.464   9.319 -0.7120 -0.0892 -0.4353
  335MOL0     C45146   1.890   7.530   9.215 -0.5889  0.7521  0.4610
  335MOL0     C45147   2.028   7.540   9.220 -0.3931  0.0154  0.3123
  335MOL0     C45148   2.101   7.476   9.324 -0.3417 -0.1214  0.7995
  335MOL0     O45149   2.234   7.462   9.315 -0.1075 -0.4600  0.3853
  335MOL0     C45150   2.320   7.416   9.419  0.7576 -0.6043 -0.1381
  335MOL0     C45151   2.351   7.526   9.527 -0.0656 -1.1076  0.5466
  335MOL0     C45152   2.443   7.472   9.642 -0.5814 -0.3640 -0.6460
  335MOL0     C45153   2.597   7.495   9.625  0.2596 -0.7084 -0.7272
  335MOL0     C45154   2.645   7.427   9.512  0.1363  0.1352  0.9411
  335MOL0     C45155   2.680   7.353   9.422  0.2551  0.4616 -0.7245
  335MOL0     C45156   2.024   7.416   9.427  0.2544  0.3207 -1.0030
  335MOL0     C45157   1.889   7.426   9.432  0.3901 -0.1289  1.0286
  335MOL0     H45158   1.444   7.652   9.380 -2.1555  0.1688  0.1798
  335MOL0     H45159   1.206   7.640   9.382 -0.7236  1.9888 -1.9233
  335MOL0     H45160   0.978   7.441   9.051  1.8495  2.1822  0.7160
  335MOL0     H45161   1.016   7.293   9.155 -1.7901 -0.5771  2.8468
  335MOL0     H45162   0.793   7.502   9.178  1.2240  0.6979  0.8502
  335MOL0     H45163   0.771   7.333   9.137  1.0502  0.6985 -1.7518
  335MOL0     H45164   0.859   7.285   9.374  0.4689 -0.2776  1.0232
  335MOL0     H45165   0.849   7.471   9.391  1.2369 -0.5602 -0.5311
  335MOL0     H45166   0.598   7.426   9.331 -0.0388  0.4763 -2.8411
  335MOL0     H45167   0.654   7.255   9.322  2.6916  1.7541 -4.2260
  335MOL0     H45168   0.713   7.251   9.560  0.1255  2.1621  3.9976
  335MOL0     H45169   0.649   7.414   9.571 -1.3659  0.7176 -1.7708
  335MOL0     H45170   0.423   7.334   9.527 -3.2793 -3.7671 -0.9449
  335MOL0     H45171   0.488   7.173   9.470  0.8457 -1.2763 -0.3206
  335MOL0     H45172   0.391   7.144   9.674  0.4585 -1.0540  1.3441
  335MOL0     H45173   0.570   7.130   9.682 -1.2713 -0.8174 -2.1138
  335MOL0     H45174   0.403   7.352   9.783  0.4912  0.1631 -0.5887
  335MOL0     H45175   0.581   7.342   9.798  1.1514 -1.0554 -0.9178
  335MOL0     H45176   0.327   7.057   9.897 -1.1460  0.0920  0.3385
  335MOL0     H45177   0.337   7.052  10.287 -3.2650  0.8340  0.8060
  335MOL0     H45178   0.233   7.045  10.164  1.9238  5.9294 -0.4707
  335MOL0     H45179   0.484   6.859  10.212 -0.4074 -1.9298  0.0062
  335MOL0     H45180   0.395   6.849  10.060 -1.2409  0.9012 -1.1125
  335MOL0     H45181   0.292   6.760  10.343  1.4776 -1.0133  0.1166
  335MOL0     H45182   0.361   6.666  10.213 -2.4052 -1.1948 -1.0893
  335MOL0     H45183   0.146   6.622  10.169  2.9872 -0.4660 -1.1020
  335MOL0     H45184   0.159   6.775  10.079 -0.9225  0.3485  0.1140
  335MOL0     H45185  -0.196   6.842  10.263  3.5953  2.0696  0.1514
  335MOL0     H45186  -0.417   6.803  10.319 -0.1281  1.4421  0.8594
  335MOL0     H45187  -0.469   6.659  10.406 -0.8795 -0.1303  3.3472
  335MOL0     H45188  -0.422   6.808  10.498  0.1813 -1.6722  0.7746
  335MOL0     H45189  -0.462   6.349  10.481 -1.5497 -3.1109 -1.3946
  335MOL0     H45190  -0.596   6.143  10.496  0.0090  0.7996  0.0837
  335MOL0     H45191  -0.751   5.997  10.745 -0.2759  2.2140 -1.2179
  335MOL0     H45192  -0.723   5.991  10.570  0.1632  1.1058  1.3754
  335MOL0     H45193  -0.770   5.765  10.765  0.4782 -0.5227  0.0339
  335MOL0     H45194  -0.846   5.800  10.613  0.0844 -0.4072  0.5315
  335MOL0     H45195  -0.547   5.721  10.630  0.8501  0.8813 -0.2385
  335MOL0     H45196  -0.632   5.779  10.491  1.0478 -2.3983 -1.5550
  335MOL0     H45197  -0.719   5.517  10.625  0.1556 -2.0895 -1.1717
  335MOL0     H45198  -0.773   5.575  10.476  0.8076  1.2798 -0.6220
  335MOL0     H45199  -0.566   5.404  10.512 -0.0843 -0.2401 -1.1376
  335MOL0     H45200  -0.476   5.545  10.553  1.5669 -0.4222 -1.4761
  335MOL0     H45201  -0.458   5.623  10.337  2.7610 -1.6109  0.5838
  335MOL0     H45202  -0.452   5.443  10.332 -1.9734 -1.4629  0.9069
  335MOL0     H45203  -0.570   5.510  10.144  1.7316  0.8857  1.0515
  335MOL0     H45204  -0.681   5.612  10.242 -0.2579  0.7105 -1.7051
  335MOL0     H45205  -0.766   5.401  10.331  0.9503  2.4261  1.6172
  335MOL0     H45206  -0.661   5.306  10.223  0.4688  0.4733  2.7646
  335MOL0     H45207  -0.382   6.033  10.858 -0.6415 -1.3733 -0.6617
  335MOL0     H45208  -0.241   6.252  10.818 -1.4428  2.9388 -0.2276
  335MOL0     H45209  -0.031   6.505  10.575 -0.0431  0.0138 -0.0812
  335MOL0     H45210   0.127   6.632  10.444  0.9604 -0.2810  0.4568
  335MOL0     H45211   1.210   7.376   9.046  1.3129 -1.1587 -1.1853
  335MOL0     H45212   1.451   7.386   9.041 -0.7198 -0.1543  0.0257
  335MOL0     H45213   1.830   7.561   9.129 -4.9840 -2.7051  1.9096
  335MOL0     H45214   2.086   7.587   9.141 -0.5590  0.8924  0.7012
  335MOL0     H45215   2.278   7.334   9.479 -0.3872  1.7848  2.5877
  335MOL0     H45216   2.409   7.375   9.370  1.0989  0.0941 -0.1153
  335MOL0     H45217   2.257   7.563   9.569  0.2203 -1.2371  1.3124
  335MOL0     H45218   2.395   7.610   9.472 -2.3187 -0.6312 -0.6691
  335MOL0     H45219   2.438   7.363   9.650  3.0552 -0.8010 -1.9572
  335MOL0     H45220   2.414   7.513   9.739 -2.7086 -3.8535  0.3479
  335MOL0     H45221   2.654   7.471   9.715  1.3615 -0.4027 -1.3277
  335MOL0     H45222   2.624   7.600   9.611 -0.1617 -0.4497  0.3544
  335MOL0     H45223   2.677   7.298   9.330 -0.4398 -0.1458 -0.3466
  335MOL0     H45224   2.072   7.373   9.514  1.2896 -1.2318 -2.2801
  335MOL0     H45225   1.840   7.372   9.512 -0.3411 -1.7894 -0.4671
  336MOL0     O45226   3.306   9.779   0.331 -0.7988  0.3099 -0.3330
  336MOL0     C45227   3.329   9.767   0.447  0.1448  0.6571 -0.8152
  336MOL0     O45228   3.254   9.832   0.551 -0.5062 -0.2585 -0.0106
  336MOL0     C45229   3.166   9.936   0.517 -0.6107 -0.0008  0.4786
  336MOL0     C45230   3.164  10.051   0.597  1.2251 -0.2153 -0.7370
  336MOL0     C45231   3.070  10.160   0.562 -0.8842  0.2844 -0.2279
  336MOL0     C45232   2.974  10.126   0.462 -0.8706 -0.3675 -0.3665
  336MOL0     O45233   2.881  10.219   0.446  0.2051 -0.9244  0.1241
  336MOL0     C45234   2.900  10.304   0.333 -0.1999  0.1316 -0.2270
  336MOL0     C45235   2.787  10.408   0.305  1.1545 -0.1177 -0.3138
  336MOL0     C45236   2.660  10.331   0.277  0.3142 -0.8172  0.0795
  336MOL0     C45237   2.567  10.422   0.199  0.0836  0.4849 -0.4971
  336MOL0     C45238   2.453  10.345   0.122  0.0888  0.8856 -0.6990
  336MOL0     C45239   2.345  10.425   0.054 -1.3454 -0.6977  0.2714
  336MOL0     C45240   2.264  10.516   0.140 -0.4259  0.4356  0.2811
  336MOL0     C45241   2.226  10.620   0.037 -1.3554 -0.4209 -0.8161
  336MOL0     N45242   2.124  10.715   0.099 -0.3626  0.0243 -0.3482
  336MOL0     C45243   2.142  10.829   0.176  0.1671  0.5946  0.6527
  336MOL0     C45244   2.006  10.863   0.205  0.0974  0.5341 -0.1316
  336MOL0     C45245   1.953  10.986   0.278 -0.7971 -0.6705 -0.4970
  336MOL0     C45246   1.811  11.001   0.230  0.0872  0.2484 -0.7021
  336MOL0     C45247   1.752  11.128   0.288 -0.0326  0.4697  0.5057
  336MOL0     C45248   1.613  11.159   0.229  0.1600 -0.1181  0.3567
  336MOL0     O45249   1.518  11.074   0.288 -0.3730 -1.0275  0.1919
  336MOL0     C45250   1.460  11.118   0.404 -1.0905  1.0449  1.4429
  336MOL0     C45251   1.516  11.204   0.500  0.3747  0.9963 -0.1150
  336MOL0     C45252   1.445  11.239   0.617 -0.8064 -0.1190 -0.1526
  336MOL0     C45253   1.520  11.329   0.723  0.2344  0.3302 -0.3012
  336MOL0     C45254   1.310  11.206   0.638  1.0342 -1.1785  0.1089
  336MOL0     C45255   1.209  11.253   0.742 -0.3554  0.2928 -0.6978
  336MOL0     O45256   1.078  11.243   0.706 -0.5108  0.5898 -0.0706
  336MOL0     C45257   0.986  11.290   0.790  0.3265 -0.8727 -0.2631
  336MOL0     C45258   0.854  11.237   0.762 -1.2313  0.5334 -0.2900
  336MOL0     C45259   0.743  11.286   0.828 -0.7740  0.2779 -0.7510
  336MOL0     C45260   0.743  11.377   0.933 -0.4168  0.2634  0.6021
  336MOL0     O45261   0.622  11.424   0.984  1.3933 -0.2089  0.4513
  336MOL0     C45262   0.622  11.534   1.087  0.6966 -0.5059  0.5282
  336MOL0     C45263   0.477  11.579   1.111  0.1455  0.6174  0.5911
  336MOL0     C45264   0.409  11.468   1.186 -0.4815  0.8136 -0.5896
  336MOL0     C45265   0.284  11.419   1.108  0.1659 -0.1916  0.2423
  336MOL0     C45266   0.207  11.307   1.178  1.2319 -0.1467  0.0228
  336MOL0     C45267   0.111  11.232   1.083  0.0001  0.8213  0.0325
  336MOL0     C45268   0.021  11.137   1.172  0.2203 -0.1504  0.2490
  336MOL0     C45269  -0.049  11.201   1.293  0.5070  0.5927  0.8210
  336MOL0    Cl45270  -0.216  11.136   1.300 -0.1262 -0.2975 -0.1507
  336MOL0     C45271   0.869  11.437   0.959  0.3166  0.2641  0.3045
  336MOL0     C45272   0.994  11.394   0.888 -0.1531 -0.4328  1.1126
  336MOL0     O45273   1.249  11.297   0.854  0.1130 -0.0360 -0.3144
  336MOL0     C45274   1.257  11.116   0.541 -0.2149 -1.0857 -0.0264
  336MOL0     C45275   1.329  11.077   0.428 -0.5077 -0.4139 -0.9642
  336MOL0     N45276   1.920  10.760   0.155  0.1625 -0.4895  0.5590
  336MOL0     N45277   1.996  10.685   0.087  0.3405 -1.0227  0.3076
  336MOL0     C45278   2.980  10.012   0.380 -0.4801 -0.4829 -0.1818
  336MOL0     C45279   3.071   9.919   0.419  0.4323  0.0889 -1.0623
  336MOL0     C45280   3.438   9.669   0.481  1.1200 -0.1308  0.0966
  336MOL0     C45281   3.516   9.608   0.375 -0.8752  0.6633 -0.4712
  336MOL0     C45282   3.609   9.505   0.406 -0.0494  0.1907  0.0351
  336MOL0     C45283   3.633   9.471   0.533  0.0375 -0.0168  0.2891
  336MOL0     O45284   3.726   9.376   0.576  0.1545 -0.0655 -0.8319
  336MOL0     C45285   3.862   9.423   0.580  0.5557  0.3073  0.0460
  336MOL0     C45286   3.920   9.427   0.731  0.9518 -0.3636  0.2640
  336MOL0     C45287   3.881   9.289   0.799  0.9187  0.0346 -0.6375
  336MOL0     C45288   3.988   9.264   0.913  0.2308 -0.7135  0.4097
  336MOL0     C45289   3.938   9.138   0.976 -0.6192  0.0631 -0.5233
  336MOL0     C45290   3.909   9.036   1.039 -0.6941  0.1672  0.1492
  336MOL0     C45291   3.563   9.535   0.636 -0.8766 -0.1619  0.2714
  336MOL0     C45292   3.454   9.624   0.615  0.0499  0.0313  0.6667
  336MOL0     H45293   3.225  10.059   0.686 -1.2429 -2.4400  1.3103
  336MOL0     H45294   3.046  10.248   0.621 -1.0036  0.1758 -0.1115
  336MOL0     H45295   2.982  10.376   0.348 -0.9108  0.5316  2.2030
  336MOL0     H45296   2.909  10.236   0.248  1.0645 -1.5740  1.1820
  336MOL0     H45297   2.772  10.476   0.390  1.2163 -0.1142 -0.3052
  336MOL0     H45298   2.823  10.462   0.217 -2.2967  2.4474 -0.3428
  336MOL0     H45299   2.689  10.251   0.207 -3.8051 -2.0297 -0.5154
  336MOL0     H45300   2.615  10.279   0.362 -1.1207 -0.7059 -0.5790
  336MOL0     H45301   2.531  10.499   0.269 -1.9982 -0.7890 -0.0589
  336MOL0     H45302   2.623  10.470   0.119  0.3854 -0.5286 -0.9104
  336MOL0     H45303   2.509  10.286   0.049 -0.1841 -0.8689  0.4596
  336MOL0     H45304   2.398  10.278   0.188 -1.1083  1.5442 -0.9873
  336MOL0     H45305   2.404  10.479  -0.021  0.8840  0.2043  2.5301
  336MOL0     H45306   2.278  10.361  -0.003 -0.8893 -2.1834  1.3490
  336MOL0     H45307   2.183  10.458   0.183 -0.4627 -0.6920 -1.2145
  336MOL0     H45308   2.314  10.559   0.227 -2.7091  0.7028  1.5200
  336MOL0     H45309   2.190  10.577  -0.057 -0.8885  1.2938 -1.8196
  336MOL0     H45310   2.314  10.676   0.004 -2.4225  1.5453 -0.4937
  336MOL0     H45311   2.239  10.872   0.198  2.4582 -2.4778 -2.2820
  336MOL0     H45312   1.958  10.984   0.388  1.3513 -1.8094 -0.5610
  336MOL0     H45313   2.014  11.066   0.237  2.5000 -2.2724  0.9150
  336MOL0     H45314   1.760  10.908   0.254 -3.5056  1.6604 -2.1591
  336MOL0     H45315   1.798  11.011   0.121 -1.1811  0.8656 -0.5166
  336MOL0     H45316   1.810  11.212   0.250 -2.3536  1.2903 -1.5123
  336MOL0     H45317   1.759  11.134   0.397  0.9017 -1.2632  0.5788
  336MOL0     H45318   1.618  11.140   0.121  1.7685  0.2662  0.3355
  336MOL0     H45319   1.589  11.262   0.254  4.1963  1.0798  0.0396
  336MOL0     H45320   1.618  11.240   0.493  0.5852  0.4005 -0.1432
  336MOL0     H45321   1.628  11.343   0.711  0.8423 -3.5133 -0.8000
  336MOL0     H45322   1.473  11.427   0.717  1.6086  1.0910  0.9814
  336MOL0     H45323   1.511  11.284   0.822  1.6091  0.0383 -0.2917
  336MOL0     H45324   0.851  11.154   0.693 -2.1414 -0.4241  0.8650
  336MOL0     H45325   0.645  11.251   0.798 -0.4137 -2.8046  1.1394
  336MOL0     H45326   0.675  11.496   1.175  0.7441  1.4197  1.3693
  336MOL0     H45327   0.680  11.623   1.063  0.2087  1.7484  6.2738
  336MOL0     H45328   0.475  11.665   1.177  2.3141 -1.9901  4.4401
  336MOL0     H45329   0.430  11.598   1.014 -0.8916 -0.3867  0.8764
  336MOL0     H45330   0.370  11.513   1.278  0.3239  0.9191 -0.2858
  336MOL0     H45331   0.473  11.389   1.228  1.4763  1.6921 -1.7373
  336MOL0     H45332   0.219  11.502   1.079  0.4864 -0.2046 -0.5480
  336MOL0     H45333   0.315  11.369   1.016 -1.1840  0.1939 -0.4549
  336MOL0     H45334   0.155  11.346   1.266  1.0939 -0.4950  0.0997
  336MOL0     H45335   0.273  11.235   1.228  0.3325 -1.5998 -0.7772
  336MOL0     H45336   0.045  11.307   1.040 -2.4027 -1.4976 -0.5805
  336MOL0     H45337   0.165  11.183   1.001  1.1245  3.5705 -1.0039
  336MOL0     H45338   0.081  11.052   1.206  0.8613 -1.1899 -3.1042
  336MOL0     H45339  -0.053  11.107   1.098  2.6878  2.4136 -3.6278
  336MOL0     H45340  -0.051  11.309   1.276  1.2413  0.4892  0.0263
  336MOL0     H45341   0.011  11.180   1.382  0.4667  2.6687  1.3852
  336MOL0     H45342   0.872  11.518   1.031 -0.7545  0.2178  0.4106
  336MOL0     H45343   1.083  11.445   0.922 -0.0069 -0.5997  0.9832
  336MOL0     H45344   1.157  11.076   0.548 -0.5755 -0.0859  0.9207
  336MOL0     H45345   1.278  11.002   0.369  1.0011 -1.9910 -0.3725
  336MOL0     H45346   2.910  10.009   0.297 -0.4643 -0.0877 -0.2153
  336MOL0     H45347   3.064   9.824   0.368  4.1461 -1.8057  1.5577
  336MOL0     H45348   3.508   9.632   0.270  1.8182 -3.8551 -2.0070
  336MOL0     H45349   3.661   9.462   0.321  0.5483  0.2580  0.3612
  336MOL0     H45350   3.913   9.353   0.514 -3.3870 -1.1147 -1.8021
  336MOL0     H45351   3.868   9.520   0.530 -4.2487 -0.8262 -3.4667
  336MOL0     H45352   3.882   9.512   0.787 -0.0885  0.1249 -1.1052
  336MOL0     H45353   4.026   9.438   0.708  0.8005  0.3182 -0.1485
  336MOL0     H45354   3.881   9.207   0.726  6.4281  0.9025 -2.0618
  336MOL0     H45355   3.779   9.309   0.835  0.5721  0.4639 -1.7953
  336MOL0     H45356   3.975   9.347   0.983 -3.8960 -0.0578 -0.8832
  336MOL0     H45357   4.091   9.249   0.879 -0.7682 -2.0321 -2.3418
  336MOL0     H45358   3.878   8.949   1.093  0.5470 -0.0311  0.5706
  336MOL0     H45359   3.599   9.506   0.734  2.6243  0.1761 -0.7631
  336MOL0     H45360   3.395   9.648   0.702  0.4329 -0.7143  1.1454
  337MOL0     O45361   0.283   0.031   9.823 -0.1299 -0.2673  0.5354
  337MOL0     C45362   0.321   0.024   9.936  0.4575 -1.1277 -0.8759
  337MOL0     O45363   0.452   0.041   9.975 -0.0586  0.5788  0.2260
  337MOL0     C45364   0.540   0.107   9.885  0.3510  0.2336  1.5853
  337MOL0     C45365   0.571   0.247   9.891 -0.6780  0.1451 -0.0542
  337MOL0     C45366   0.668   0.304   9.804 -0.1027 -0.4413 -0.1314
  337MOL0     C45367   0.734   0.228   9.711 -0.1238 -0.4422 -0.0814
  337MOL0     O45368   0.839   0.279   9.634  0.4134 -0.1192 -0.1720
  337MOL0     C45369   0.950   0.201   9.605  0.0831  0.0256 -0.1531
  337MOL0     C45370   1.058   0.288   9.540  0.5459  0.0001  0.6934
  337MOL0     C45371   1.181   0.210   9.514  0.4603 -0.4902 -0.2117
  337MOL0     C45372   1.308   0.294   9.486 -0.5765  0.0988 -0.5936
  337MOL0     C45373   1.409   0.217   9.412  0.0177  0.7502 -1.0415
  337MOL0     C45374   1.544   0.286   9.399 -0.6828 -0.0429 -1.2011
  337MOL0     C45375   1.576   0.389   9.292  0.6128  0.6535 -0.2231
  337MOL0     C45376   1.516   0.531   9.341 -0.5808  0.1443  0.9053
  337MOL0     N45377   1.541   0.636   9.245  0.2634 -0.6426 -0.5001
  337MOL0     C45378   1.529   0.610   9.114  0.4272  0.1386  0.3124
  337MOL0     C45379   1.562   0.714   9.042  0.5315 -0.5352 -0.3266
  337MOL0     C45380   1.562   0.706   8.892 -0.2040  0.5896  0.3415
  337MOL0     C45381   1.427   0.764   8.853  0.7156  0.0555  0.4094
  337MOL0     C45382   1.381   0.744   8.707  0.0357 -0.1858  0.0711
  337MOL0     C45383   1.402   0.604   8.654  0.0048 -0.2986 -0.2455
  337MOL0     O45384   1.363   0.502   8.750  0.5296 -0.8018  0.6813
  337MOL0     C45385   1.242   0.498   8.812 -0.0962  0.4900  0.6864
  337MOL0     C45386   1.242   0.422   8.926 -0.2124  0.5199  0.5769
  337MOL0     C45387   1.126   0.404   9.005  0.1089 -0.5228 -0.5991
  337MOL0     C45388   1.122   0.330   9.132 -0.1787  0.2462  0.2160
  337MOL0     C45389   1.002   0.454   8.961  0.6428 -0.5274  0.4916
  337MOL0     C45390   0.881   0.474   9.039  0.3280  0.2156 -0.5166
  337MOL0     O45391   0.871   0.478   9.172 -0.0411 -0.4407  0.4176
  337MOL0     C45392   0.751   0.446   9.231 -0.6814  0.5148 -0.8019
  337MOL0     C45393   0.737   0.328   9.298 -0.4608  0.6089 -0.2533
  337MOL0     C45394   0.622   0.294   9.366 -0.7013 -0.4243  0.4675
  337MOL0     C45395   0.514   0.377   9.354 -0.2516 -1.1852 -0.1708
  337MOL0     O45396   0.398   0.342   9.407 -0.2066 -0.1813  0.3021
  337MOL0     C45397   0.390   0.232   9.499 -0.2358 -0.4804 -0.3977
  337MOL0     C45398   0.257   0.235   9.563 -0.0387  0.5189  0.3935
  337MOL0     C45399   0.234   0.335   9.683  0.2658 -0.3650  0.4655
  337MOL0     C45400   0.099   0.322   9.756  0.2661  1.2222  0.3527
  337MOL0     C45401   0.075   0.433   9.870 -0.2826  0.1075  0.2442
  337MOL0     C45402  -0.047   0.415   9.954  0.5557 -0.0347  0.5507
  337MOL0     C45403  -0.045   0.292  10.034 -0.3429  0.5976 -0.5676
  337MOL0     C45404  -0.109   0.314  10.167  0.7537 -0.2424 -0.1667
  337MOL0    Cl45405  -0.033   0.437  10.256 -0.0885  0.3108 -0.5130
  337MOL0     C45406   0.525   0.495   9.287  0.0965 -0.3638 -0.0980
  337MOL0     C45407   0.640   0.529   9.229  0.5627  0.2281 -0.0795
  337MOL0     O45408   0.785   0.483   8.969  0.4297  0.5171 -0.0525
  337MOL0     C45409   1.011   0.532   8.843  0.4052  0.3039 -0.0330
  337MOL0     C45410   1.123   0.560   8.773 -0.1536  0.6526  0.1637
  337MOL0     N45411   1.590   0.817   9.141  1.3447 -0.1801 -0.0386
  337MOL0     N45412   1.568   0.767   9.265  0.7812  0.8337 -0.1601
  337MOL0     C45413   0.703   0.096   9.710  0.1668 -0.3787  0.3280
  337MOL0     C45414   0.613   0.032   9.796  0.4053 -0.8211 -0.7244
  337MOL0     C45415   0.220   0.001  10.054  0.0651 -0.9992  1.2920
  337MOL0     C45416   0.264   0.028  10.188 -0.3932  0.2291 -1.0271
  337MOL0     C45417   0.177   0.008  10.290  0.9475  0.6781  0.0754
  337MOL0     C45418   0.052  -0.053  10.277  0.6706  0.7408  0.1611
  337MOL0     O45419  -0.029  -0.071  10.386  0.5514  0.0555  0.0874
  337MOL0     C45420  -0.008   0.012  10.502 -1.0201 -0.6993  0.2496
  337MOL0     C45421  -0.115  -0.008  10.607  0.0061  0.6907  0.8133
  337MOL0     C45422  -0.112   0.085  10.721  0.9449  1.1456 -0.6534
  337MOL0     C45423  -0.229   0.048  10.811  0.0431 -0.7493 -0.2439
  337MOL0     C45424  -0.206   0.097  10.943 -0.3076  0.4208 -0.4959
  337MOL0     C45425  -0.171   0.139  11.048  0.1328 -0.2753 -0.3047
  337MOL0     C45426   0.012  -0.082  10.150 -0.3435  0.7482  0.1686
  337MOL0     C45427   0.089  -0.043  10.040 -0.2428  0.6999 -0.0619
  337MOL0     H45428   0.530   0.294   9.980  0.5237 -0.8406  1.0658
  337MOL0     H45429   0.700   0.407   9.818 -1.4429 -0.1278  0.7589
  337MOL0     H45430   0.994   0.167   9.700 -1.5320  0.0422  0.6281
  337MOL0     H45431   0.931   0.119   9.536  2.1245  0.4625 -1.3418
  337MOL0     H45432   1.028   0.339   9.448  3.0286 -1.2274 -0.9095
  337MOL0     H45433   1.074   0.370   9.611  0.9557  0.3055  0.2620
  337MOL0     H45434   1.210   0.160   9.607  3.5404  0.3967 -0.5749
  337MOL0     H45435   1.164   0.136   9.436  1.1736 -1.3616  0.4259
  337MOL0     H45436   1.276   0.381   9.429 -2.5593  0.0719  0.3976
  337MOL0     H45437   1.356   0.329   9.579 -3.8473  0.9461  0.9104
  337MOL0     H45438   1.419   0.120   9.461 -0.5440 -0.0595 -2.4472
  337MOL0     H45439   1.378   0.192   9.309  3.1592  0.1868 -1.9462
  337MOL0     H45440   1.589   0.311   9.495 -0.6826 -2.6620 -0.4226
  337MOL0     H45441   1.612   0.205   9.370  0.7402 -0.2703  2.2691
  337MOL0     H45442   1.684   0.406   9.288  0.9890 -0.3843  2.8933
  337MOL0     H45443   1.551   0.355   9.191 -0.9874 -1.5535  0.8465
  337MOL0     H45444   1.559   0.566   9.435  0.3393  0.6683  0.3090
  337MOL0     H45445   1.408   0.534   9.354 -0.8689  1.3725 -1.2119
  337MOL0     H45446   1.505   0.513   9.070  0.5266 -0.0412  0.6547
  337MOL0     H45447   1.647   0.771   8.868  0.1338  0.3440  0.8504
  337MOL0     H45448   1.578   0.602   8.861 -0.8722 -0.5443  3.4599
  337MOL0     H45449   1.428   0.873   8.865 -1.3873  0.0119  1.3498
  337MOL0     H45450   1.356   0.715   8.919  0.7209 -0.3648  0.1063
  337MOL0     H45451   1.426   0.812   8.633 -0.4306 -2.3080 -2.3248
  337MOL0     H45452   1.274   0.767   8.708  0.4829  2.0965  0.2428
  337MOL0     H45453   1.507   0.585   8.626  0.6629 -0.6451  2.2357
  337MOL0     H45454   1.351   0.591   8.558  1.2802 -1.9380 -0.7650
  337MOL0     H45455   1.329   0.360   8.946  0.1651  0.2497 -1.6585
  337MOL0     H45456   1.221   0.288   9.153  0.3121  0.6442 -1.1627
  337MOL0     H45457   1.102   0.407   9.206  1.0974 -0.6494  1.5407
  337MOL0     H45458   1.054   0.246   9.152  3.5604 -3.0611  0.3956
  337MOL0     H45459   0.831   0.274   9.301  1.5965  3.8378 -1.0872
  337MOL0     H45460   0.628   0.198   9.417 -1.2168  0.4433  2.2620
  337MOL0     H45461   0.393   0.139   9.443  0.2209 -0.2438 -0.7698
  337MOL0     H45462   0.474   0.233   9.569 -0.3177 -1.6250 -0.2614
  337MOL0     H45463   0.177   0.252   9.490 -1.5827 -1.9981  1.3551
  337MOL0     H45464   0.244   0.133   9.601 -0.7238  0.3116 -0.3533
  337MOL0     H45465   0.238   0.439   9.648  1.7369 -0.2605  0.8734
  337MOL0     H45466   0.310   0.311   9.759  1.4296 -1.4190 -0.9734
  337MOL0     H45467   0.012   0.326   9.691 -1.1574 -0.6635  1.9946
  337MOL0     H45468   0.092   0.220   9.796 -2.7067  0.8773 -0.8318
  337MOL0     H45469   0.069   0.534   9.829  0.7236  0.2376  0.3855
  337MOL0     H45470   0.161   0.445   9.935 -1.9704 -0.7132  2.7710
  337MOL0     H45471  -0.038   0.500  10.022 -1.3263  0.5525  0.1172
  337MOL0     H45472  -0.139   0.425   9.896  0.7119  1.6460  0.5453
  337MOL0     H45473   0.059   0.265  10.055 -0.5797  1.6466  2.2855
  337MOL0     H45474  -0.094   0.213   9.976  1.4711 -1.3676  0.4160
  337MOL0     H45475  -0.102   0.225  10.231  1.7268  0.3564  0.5913
  337MOL0     H45476  -0.211   0.345  10.144  0.8014 -0.6880 -1.0203
  337MOL0     H45477   0.432   0.551   9.290  0.1527 -0.2988  1.3615
  337MOL0     H45478   0.666   0.630   9.198  2.4208 -0.4736 -0.9413
  337MOL0     H45479   0.925   0.589   8.808  0.1096  0.1858  0.4924
  337MOL0     H45480   1.126   0.625   8.686  0.0403 -2.5757 -2.4387
  337MOL0     H45481   0.743   0.040   9.625 -0.5862 -1.1349  0.4645
  337MOL0     H45482   0.590  -0.073   9.788 -4.3934  0.0282 -1.0395
  337MOL0     H45483   0.358   0.075  10.215 -0.2317 -2.5245  4.8600
  337MOL0     H45484   0.210   0.045  10.387  1.0570 -0.0794  0.3321
  337MOL0     H45485   0.094  -0.002  10.539 -1.1875  1.5464  1.7934
  337MOL0     H45486  -0.020   0.113  10.461 -2.9363 -1.9603 -2.6812
  337MOL0     H45487  -0.104  -0.111  10.644  0.1865  1.3701  2.7390
  337MOL0     H45488  -0.212  -0.006  10.557 -0.1138  1.5805  1.0803
  337MOL0     H45489  -0.115   0.192  10.697 -1.6049  1.0672 -0.9778
  337MOL0     H45490  -0.016   0.068  10.770  1.2969  0.5333 -1.5282
  337MOL0     H45491  -0.238  -0.061  10.813 -0.6639 -0.6802  1.2244
  337MOL0     H45492  -0.327   0.090  10.786  0.3684  1.3513  1.7350
  337MOL0     H45493  -0.151   0.192  11.139 -0.1952 -2.7972  1.3547
  337MOL0     H45494  -0.073  -0.148  10.140 -1.0735  1.4067  1.6902
  337MOL0     H45495   0.050  -0.058   9.940  0.1323  1.1612 -0.2824
  338MOL0     O45496   0.684   3.295   8.930  0.4289 -0.0081  0.3268
  338MOL0     C45497   0.665   3.289   8.809  0.1550 -0.1778 -0.1084
  338MOL0     O45498   0.559   3.240   8.747 -0.5474 -1.0678  0.2949
  338MOL0     C45499   0.463   3.187   8.829 -0.4310 -0.1522 -0.1933
  338MOL0     C45500   0.410   3.055   8.816  0.1613 -0.6337  0.1523
  338MOL0     C45501   0.328   3.002   8.914 -0.0887 -1.3158  0.0974
  338MOL0     C45502   0.274   3.074   9.020 -0.0412 -0.4322  0.1895
  338MOL0     O45503   0.196   3.001   9.103  0.4542 -0.2755  0.3883
  338MOL0     C45504   0.133   3.062   9.220  0.0493  0.5981 -0.0478
  338MOL0     C45505   0.031   2.966   9.278  0.0212 -0.1989 -0.9193
  338MOL0     C45506   0.087   2.821   9.299 -0.4720 -0.9642  0.4246
  338MOL0     C45507  -0.006   2.733   9.382 -0.1114 -0.1326 -0.7259
  338MOL0     C45508   0.070   2.630   9.466  0.2093  0.2839  0.3427
  338MOL0     C45509   0.130   2.516   9.381  0.2662 -0.2842 -0.4924
  338MOL0     C45510   0.016   2.446   9.303  0.6268  0.2115  0.0114
  338MOL0     C45511   0.028   2.295   9.275  0.0320 -0.2844  0.1695
  338MOL0     N45512  -0.019   2.213   9.380  0.2931  0.0956 -0.2802
  338MOL0     C45513  -0.054   2.239   9.508  0.5456  0.2092 -0.6626
  338MOL0     C45514  -0.110   2.125   9.556 -0.7295  0.7025  0.1632
  338MOL0     C45515  -0.158   2.100   9.691  0.8019 -0.8095 -0.5256
  338MOL0     C45516  -0.284   2.020   9.693  0.7465 -0.8669  0.4674
  338MOL0     C45517  -0.410   2.109   9.653 -0.3182  0.1588  0.0629
  338MOL0     C45518  -0.534   2.019   9.682  0.0668  0.3073 -0.3331
  338MOL0     O45519  -0.550   2.012   9.830  0.4901 -0.0706 -0.0107
  338MOL0     C45520  -0.628   1.909   9.868 -0.1311 -0.3759 -0.2799
  338MOL0     C45521  -0.573   1.782   9.898  0.3017 -1.0108  0.0923
  338MOL0     C45522  -0.652   1.671   9.915  0.1094  0.3419  0.1775
  338MOL0     C45523  -0.591   1.536   9.947  0.1714 -0.4462  0.4583
  338MOL0     C45524  -0.799   1.695   9.921 -0.9432 -0.0037 -0.9705
  338MOL0     C45525  -0.895   1.585   9.947 -0.0837  0.0746 -0.1789
  338MOL0     O45526  -0.975   1.599  10.055  0.8372  0.6614 -1.4223
  338MOL0     C45527  -1.037   1.492  10.114  0.9227  0.3585  0.1227
  338MOL0     C45528  -1.174   1.509  10.146 -0.0104  0.7283 -0.8334
  338MOL0     C45529  -1.241   1.403  10.206  0.6657  0.4335  0.1878
  338MOL0     C45530  -1.184   1.274  10.230  0.2175 -0.5430 -0.3307
  338MOL0     O45531  -1.254   1.157  10.261 -0.0649 -0.2838 -1.2135
  338MOL0     C45532  -1.185   1.057  10.350  0.0983 -0.0786  0.5277
  338MOL0     C45533  -1.285   0.970  10.424  0.6468 -0.1656  0.1947
  338MOL0     C45534  -1.320   0.861  10.323 -0.9101 -0.3091 -0.6597
  338MOL0     C45535  -1.426   0.762  10.376  0.1154 -0.3097  0.1949
  338MOL0     C45536  -1.385   0.671  10.499  0.3481  0.0744  0.2651
  338MOL0     C45537  -1.515   0.605  10.561 -0.4230 -0.1226  0.3465
  338MOL0     C45538  -1.472   0.498  10.657  0.2999 -0.0930 -0.0125
  338MOL0     C45539  -1.597   0.460  10.745  0.2288  0.9436 -0.0866
  338MOL0    Cl45540  -1.716   0.361  10.648  0.3524  0.0155  0.0190
  338MOL0     C45541  -1.047   1.268  10.206  0.4193 -0.1504  0.7187
  338MOL0     C45542  -0.972   1.379  10.153  0.0307  0.1789 -0.5603
  338MOL0     O45543  -0.888   1.485   9.876  0.0059 -0.1431  0.5301
  338MOL0     C45544  -0.843   1.828   9.909  0.2166  0.4115  0.5417
  338MOL0     C45545  -0.761   1.924   9.863 -1.1757  0.1893 -0.2101
  338MOL0     N45546  -0.092   2.025   9.453 -1.0387  0.0890 -0.8920
  338MOL0     N45547  -0.024   2.077   9.363  0.5034  0.6741 -0.0520
  338MOL0     C45548   0.323   3.201   9.044 -0.1689 -0.1088 -0.5746
  338MOL0     C45549   0.410   3.257   8.951 -0.9623  0.7403  0.0468
  338MOL0     C45550   0.776   3.354   8.737 -0.5702  0.3392 -0.5858
  338MOL0     C45551   0.882   3.414   8.802  0.2351  0.5071 -0.3685
  338MOL0     C45552   0.992   3.471   8.740  0.4512  0.4101  0.1451
  338MOL0     C45553   0.987   3.474   8.598 -0.3617 -0.1249 -1.2498
  338MOL0     O45554   1.080   3.539   8.516  0.6056 -0.1008 -0.5956
  338MOL0     C45555   1.169   3.627   8.584  1.0577 -0.3297 -0.5928
  338MOL0     C45556   1.240   3.687   8.459  0.0027 -0.3019 -0.2126
  338MOL0     C45557   1.366   3.763   8.495  0.3970 -0.3974 -0.9451
  338MOL0     C45558   1.337   3.889   8.586 -0.7896 -0.6883  0.5858
  338MOL0     C45559   1.277   4.013   8.524  0.4777 -0.8807  0.3554
  338MOL0     C45560   1.224   4.096   8.451 -0.3292  0.3937 -0.3302
  338MOL0     C45561   0.886   3.410   8.532 -0.1693  0.1505 -0.5886
  338MOL0     C45562   0.783   3.346   8.600 -0.6239  0.2315  0.6723
  338MOL0     H45563   0.456   2.988   8.744  2.7672  0.0604  1.0614
  338MOL0     H45564   0.293   2.900   8.918  0.1735 -1.3760  1.3498
  338MOL0     H45565   0.210   3.080   9.296 -1.3566 -0.3325  1.6886
  338MOL0     H45566   0.089   3.158   9.192 -1.5283 -0.3391 -0.9402
  338MOL0     H45567  -0.016   3.001   9.371 -1.0618  2.2079 -2.2822
  338MOL0     H45568  -0.054   2.960   9.210 -0.8695  0.5459  0.0837
  338MOL0     H45569   0.110   2.778   9.201 -0.3640 -2.3342  1.0198
  338MOL0     H45570   0.185   2.839   9.345 -0.1488 -1.2513 -0.1377
  338MOL0     H45571  -0.061   2.794   9.455  0.8478  0.9911 -0.8963
  338MOL0     H45572  -0.077   2.682   9.317 -1.3118 -3.3004  2.7099
  338MOL0     H45573   0.148   2.673   9.530 -0.0036 -0.9700  1.5043
  338MOL0     H45574  -0.010   2.599   9.533  1.6865  2.4637  3.3739
  338MOL0     H45575   0.203   2.554   9.310 -1.0486  1.4005 -1.0032
  338MOL0     H45576   0.171   2.442   9.451  2.4722  0.2115 -1.1788
  338MOL0     H45577  -0.080   2.456   9.355 -0.0214 -2.7815 -0.4430
  338MOL0     H45578   0.001   2.505   9.212 -0.3082 -0.0942 -0.0416
  338MOL0     H45579   0.128   2.264   9.244 -1.1513 -3.2380 -1.1622
  338MOL0     H45580  -0.039   2.265   9.193 -1.4484  1.6102  0.6259
  338MOL0     H45581  -0.050   2.336   9.557  0.4575 -1.2662  2.4858
  338MOL0     H45582  -0.086   2.033   9.738 -0.7119 -2.5151 -0.5300
  338MOL0     H45583  -0.163   2.189   9.755  2.8154 -0.1356 -1.2370
  338MOL0     H45584  -0.304   1.994   9.798 -0.4527 -0.4462  0.3610
  338MOL0     H45585  -0.269   1.924   9.642  1.3145  0.0939 -1.2086
  338MOL0     H45586  -0.402   2.125   9.545 -0.7490 -3.2301 -0.5924
  338MOL0     H45587  -0.407   2.204   9.707 -1.0077 -0.1331  0.6314
  338MOL0     H45588  -0.540   1.914   9.653  0.5813 -0.3761  1.8441
  338MOL0     H45589  -0.625   2.066   9.642 -0.3989 -1.7731 -1.8724
  338MOL0     H45590  -0.466   1.771   9.915  0.1270 -0.3770  1.6994
  338MOL0     H45591  -0.484   1.528   9.926 -0.2444 -2.2483 -1.3885
  338MOL0     H45592  -0.604   1.508  10.052 -1.6769 -1.2148  0.0701
  338MOL0     H45593  -0.635   1.461   9.880  0.2024  0.1273 -0.2242
  338MOL0     H45594  -1.219   1.606  10.133 -4.7230 -1.2381 -1.3554
  338MOL0     H45595  -1.347   1.418  10.226  0.1065 -3.0994  0.5585
  338MOL0     H45596  -1.121   0.992  10.290 -2.1028 -0.9028 -1.0095
  338MOL0     H45597  -1.127   1.110  10.427 -0.3596  1.6497 -0.2783
  338MOL0     H45598  -1.225   0.936  10.508  0.1980  4.0300  2.4920
  338MOL0     H45599  -1.371   1.016  10.473 -1.4353 -2.4127 -1.1141
  338MOL0     H45600  -1.231   0.805  10.295 -1.1558 -0.7530 -0.5624
  338MOL0     H45601  -1.375   0.912  10.244  0.4460  2.6834  0.1796
  338MOL0     H45602  -1.516   0.821  10.395  0.6995  0.6995 -0.0942
  338MOL0     H45603  -1.443   0.694  10.292  3.2121  0.8989 -1.6092
  338MOL0     H45604  -1.332   0.718  10.583 -1.5901 -1.3067  2.3698
  338MOL0     H45605  -1.318   0.592  10.464 -0.3650 -0.1359 -0.6861
  338MOL0     H45606  -1.571   0.686  10.607 -0.8742  1.0283 -2.0607
  338MOL0     H45607  -1.581   0.550  10.492  0.8177 -1.8640  0.4714
  338MOL0     H45608  -1.392   0.527  10.726  1.0179  1.2868 -1.3766
  338MOL0     H45609  -1.433   0.409  10.606  3.7904  1.4543 -0.3331
  338MOL0     H45610  -1.639   0.556  10.774  0.3865  1.0589 -0.2402
  338MOL0     H45611  -1.578   0.416  10.844 -2.1816  1.5951  0.7275
  338MOL0     H45612  -0.999   1.174  10.230 -1.3435 -1.2585  0.1322
  338MOL0     H45613  -0.867   1.362  10.132 -0.1858  2.1201 -4.0964
  338MOL0     H45614  -0.951   1.840   9.904  0.3947  1.9395 -0.2008
  338MOL0     H45615  -0.800   2.025   9.860 -0.7682  0.5967  3.6160
  338MOL0     H45616   0.281   3.263   9.123 -0.7717  1.4526 -2.0484
  338MOL0     H45617   0.438   3.359   8.976 -1.0881  1.7358 -3.2832
  338MOL0     H45618   0.888   3.401   8.910 -0.2239 -1.1721 -0.5242
  338MOL0     H45619   1.063   3.509   8.812 -0.4531  0.6785  0.9094
  338MOL0     H45620   1.119   3.697   8.653 -1.6764  0.6754 -3.3964
  338MOL0     H45621   1.256   3.581   8.632  2.1134  0.2049 -1.9279
  338MOL0     H45622   1.178   3.751   8.395  0.1506 -0.8729 -0.9379
  338MOL0     H45623   1.266   3.595   8.405 -0.1192 -1.2957  1.3378
  338MOL0     H45624   1.429   3.793   8.410 -0.4100 -1.1508 -1.8436
  338MOL0     H45625   1.427   3.691   8.550  0.5349  2.0331  2.3854
  338MOL0     H45626   1.437   3.911   8.626 -0.7687 -0.6446  0.5080
  338MOL0     H45627   1.278   3.852   8.670  0.6221 -1.3617  1.3267
  338MOL0     H45628   1.182   4.164   8.380  2.2554 -0.0113 -2.4185
  338MOL0     H45629   0.889   3.404   8.424 -0.0274 -0.9054 -0.5397
  338MOL0     H45630   0.719   3.295   8.529 -1.5822  3.2745 -0.8443
  339MOL0     O45631   8.134  10.702   9.053 -0.7148 -0.3988 -0.2657
  339MOL0     C45632   8.100  10.819   9.073 -0.3898  0.4868  0.0380
  339MOL0     O45633   7.975  10.872   9.039 -0.2188  0.7468  0.8420
  339MOL0     C45634   7.858  10.803   8.997  0.0831 -0.2402 -0.1601
  339MOL0     C45635   7.731  10.865   9.003  0.5639  0.6052 -1.2014
  339MOL0     C45636   7.607  10.802   8.963 -0.9391  0.0764 -0.3278
  339MOL0     C45637   7.613  10.669   8.906  0.3435 -0.6458 -0.3972
  339MOL0     O45638   7.504  10.590   8.870 -0.4136  0.0618  0.6505
  339MOL0     C45639   7.411  10.645   8.784 -0.0708 -0.4496  0.2586
  339MOL0     C45640   7.352  10.537   8.687  0.2721  0.1069 -0.1524
  339MOL0     C45641   7.197  10.536   8.701 -0.2107 -0.2861  0.2669
  339MOL0     C45642   7.129  10.445   8.597  0.4070 -0.5825  0.1063
  339MOL0     C45643   6.976  10.454   8.613  0.3588  0.4198 -0.2526
  339MOL0     C45644   6.907  10.365   8.501 -0.8408  0.3900 -1.2036
  339MOL0     C45645   6.755  10.382   8.515  0.3785 -0.4098  0.5523
  339MOL0     C45646   6.699  10.500   8.433 -0.7227 -0.4849 -1.1900
  339MOL0     N45647   6.564  10.537   8.478 -0.0794  0.1719 -0.2219
  339MOL0     C45648   6.460  10.448   8.477  0.0889  0.5649 -0.0993
  339MOL0     C45649   6.368  10.504   8.553  0.6049  0.1386  1.1364
  339MOL0     C45650   6.255  10.431   8.619 -0.2559 -0.0453  0.5177
  339MOL0     C45651   6.115  10.491   8.599  0.7055  0.9077  0.5059
  339MOL0     C45652   6.007  10.383   8.617  1.0779 -0.6399  0.1748
  339MOL0     C45653   5.875  10.447   8.630  0.9818 -0.2866 -0.6775
  339MOL0     O45654   5.798  10.361   8.714  0.7086  0.7580  0.1217
  339MOL0     C45655   5.668  10.348   8.685  0.8801  0.0175  0.4825
  339MOL0     C45656   5.624  10.219   8.695  0.0718  1.1155 -0.4440
  339MOL0     C45657   5.495  10.184   8.668 -0.1523  0.1476  0.4397
  339MOL0     C45658   5.457  10.044   8.669  0.7401  0.8752  0.2100
  339MOL0     C45659   5.404  10.285   8.631  0.0069 -0.8667  0.4537
  339MOL0     C45660   5.270  10.241   8.586  0.2382  0.1421  0.0093
  339MOL0     O45661   5.176  10.326   8.643  0.0552 -0.0643 -0.0675
  339MOL0     C45662   5.049  10.319   8.589 -0.4350 -0.7315  0.3141
  339MOL0     C45663   5.010  10.412   8.491  0.3818 -0.3614  0.1772
  339MOL0     C45664   4.880  10.402   8.444 -0.4393 -0.4258  0.7448
  339MOL0     C45665   4.788  10.309   8.485 -0.1893 -0.1882 -0.8134
  339MOL0     O45666   4.657  10.302   8.448 -0.0212 -0.0694 -0.0824
  339MOL0     C45667   4.602  10.433   8.479 -0.2560 -0.2294 -0.5138
  339MOL0     C45668   4.451  10.430   8.496 -0.5351  0.0069 -0.7112
  339MOL0     C45669   4.369  10.355   8.391  0.3487  0.6851  0.1149
  339MOL0     C45670   4.224  10.398   8.353 -0.3399  0.0755  0.2909
  339MOL0     C45671   4.126  10.370   8.469 -0.0019 -0.5485 -0.5576
  339MOL0     C45672   3.991  10.445   8.456  0.0420  0.1994  0.6068
  339MOL0     C45673   3.910  10.418   8.580 -0.7891 -0.3980 -1.1292
  339MOL0     C45674   3.773  10.480   8.583  0.9425  0.8973  0.8336
  339MOL0    Cl45675   3.687  10.409   8.432 -0.2109 -0.0567 -0.5302
  339MOL0     C45676   4.831  10.218   8.574 -0.2263 -0.4567 -0.5949
  339MOL0     C45677   4.962  10.226   8.626 -0.1104 -0.9037 -0.8060
  339MOL0     O45678   5.248  10.153   8.501  0.0288  0.9100 -0.1055
  339MOL0     C45679   5.446  10.412   8.605 -0.1606  0.0468 -0.1445
  339MOL0     C45680   5.581  10.452   8.639 -0.5592  0.7970 -0.6496
  339MOL0     N45681   6.409  10.627   8.587 -0.7606 -0.0803  0.5782
  339MOL0     N45682   6.535  10.640   8.556  0.6158 -0.3274  0.0431
  339MOL0     C45683   7.739  10.614   8.901 -0.2991  0.1217  0.2888
  339MOL0     C45684   7.852  10.676   8.944 -0.3409 -0.4547 -0.1130
  339MOL0     C45685   8.200  10.911   9.144  0.8440 -0.7797 -0.0286
  339MOL0     C45686   8.201  11.053   9.122 -0.1760  0.7477 -0.2241
  339MOL0     C45687   8.284  11.136   9.196 -0.3460  0.4238  0.1124
  339MOL0     C45688   8.383  11.079   9.280 -0.1838  0.5568  0.4021
  339MOL0     O45689   8.465  11.141   9.367  0.5619  0.3240 -0.0327
  339MOL0     C45690   8.457  11.280   9.364  0.2815  1.2128 -0.4964
  339MOL0     C45691   8.553  11.340   9.468  0.3994 -0.0128  0.0143
  339MOL0     C45692   8.704  11.320   9.417 -0.4000  0.0808 -0.1583
  339MOL0     C45693   8.798  11.392   9.515  0.0924 -0.1482  0.0013
  339MOL0     C45694   8.902  11.303   9.580  0.7886  1.1276 -0.5468
  339MOL0     C45695   8.988  11.231   9.618 -0.0586 -0.0447  0.3492
  339MOL0     C45696   8.373  10.944   9.305  1.0935 -0.9466 -0.4445
  339MOL0     C45697   8.288  10.858   9.235 -0.1979  0.2356  0.3753
  339MOL0     H45698   7.721  10.958   9.058  0.2393 -0.0794 -0.0502
  339MOL0     H45699   7.512  10.844   8.993 -0.5014  0.3685  0.7063
  339MOL0     H45700   7.333  10.683   8.850 -1.9638 -1.5681 -1.2207
  339MOL0     H45701   7.461  10.723   8.725 -1.6207  2.3066  2.3525
  339MOL0     H45702   7.382  10.556   8.583 -2.5414  0.0833 -1.0479
  339MOL0     H45703   7.391  10.441   8.720  2.6915  1.2630  0.6304
  339MOL0     H45704   7.181  10.514   8.807  0.9970 -1.1206  0.2908
  339MOL0     H45705   7.160  10.635   8.673 -1.1540 -0.5783  0.4668
  339MOL0     H45706   7.159  10.477   8.497 -0.3576  0.4057  0.1780
  339MOL0     H45707   7.170  10.346   8.621 -0.3459 -1.3553 -1.6725
  339MOL0     H45708   6.955  10.430   8.718 -0.0043 -0.2068 -0.4623
  339MOL0     H45709   6.948  10.559   8.612  1.2547  0.6748  0.1159
  339MOL0     H45710   6.939  10.387   8.399  0.1947 -2.6327 -1.6466
  339MOL0     H45711   6.950  10.267   8.524 -1.5886  0.3027 -0.0571
  339MOL0     H45712   6.702  10.290   8.489 -0.8285 -0.5858  3.3332
  339MOL0     H45713   6.724  10.396   8.619  0.5265  0.7871  0.4403
  339MOL0     H45714   6.698  10.492   8.324 -3.5055  1.9273 -1.4584
  339MOL0     H45715   6.761  10.586   8.459  0.4834 -1.7119  0.2426
  339MOL0     H45716   6.457  10.346   8.442 -1.3225  0.6847 -0.3983
  339MOL0     H45717   6.247  10.327   8.585 -1.1392  0.1704  0.0200
  339MOL0     H45718   6.259  10.433   8.728 -2.9088 -1.4530  0.7249
  339MOL0     H45719   6.088  10.535   8.503 -4.3418 -1.3747  0.5645
  339MOL0     H45720   6.103  10.565   8.678  1.5718  0.7941  0.7559
  339MOL0     H45721   6.036  10.323   8.704  1.3225  0.7640  1.0919
  339MOL0     H45722   6.016  10.304   8.542  1.3699 -1.8944  1.4917
  339MOL0     H45723   5.833  10.475   8.533 -3.0460 -1.4005  0.5472
  339MOL0     H45724   5.890  10.541   8.685  1.8223 -0.7312 -0.1258
  339MOL0     H45725   5.689  10.133   8.709 -0.6971  0.6706  0.5268
  339MOL0     H45726   5.351  10.021   8.680  0.9102 -1.2232 -1.8139
  339MOL0     H45727   5.489   9.992   8.578  0.9171 -0.0029  0.7672
  339MOL0     H45728   5.507   9.998   8.755  0.4289  1.5685  0.7698
  339MOL0     H45729   5.083  10.489   8.466 -0.0059 -0.6546 -2.1400
  339MOL0     H45730   4.859  10.470   8.362  2.0332  1.6661  1.6703
  339MOL0     H45731   4.642  10.477   8.571 -0.8020 -0.6821 -0.0528
  339MOL0     H45732   4.629  10.496   8.394  2.1674 -1.5718 -0.8339
  339MOL0     H45733   4.421  10.406   8.598 -3.9973  4.1158 -0.4881
  339MOL0     H45734   4.430  10.537   8.491  2.1656  0.8156  1.9923
  339MOL0     H45735   4.373  10.256   8.437 -1.4503  1.1529  1.3488
  339MOL0     H45736   4.433  10.338   8.303  3.6774 -2.1529  2.7968
  339MOL0     H45737   4.223  10.498   8.309 -0.9177 -0.1390 -0.1904
  339MOL0     H45738   4.196  10.332   8.271 -1.7537  1.2712 -0.2511
  339MOL0     H45739   4.178  10.400   8.561  0.2288  0.4363 -0.9942
  339MOL0     H45740   4.099  10.264   8.477 -1.4703 -0.1617  0.0391
  339MOL0     H45741   4.009  10.552   8.444  2.1669 -0.1368  0.4666
  339MOL0     H45742   3.936  10.409   8.368 -1.2857 -0.5416  1.6933
  339MOL0     H45743   3.968  10.458   8.664 -0.6333 -5.1065  1.3638
  339MOL0     H45744   3.907  10.310   8.594  1.8975 -0.2308  2.3924
  339MOL0     H45745   3.771  10.586   8.557 -0.8209  0.6617 -0.1317
  339MOL0     H45746   3.716  10.453   8.672  0.2769 -1.1974 -0.1780
  339MOL0     H45747   4.751  10.149   8.600 -1.1599 -0.7252 -3.7920
  339MOL0     H45748   4.998  10.167   8.710 -0.7491  0.7922  0.7133
  339MOL0     H45749   5.386  10.492   8.562  0.0001 -0.1274 -0.6994
  339MOL0     H45750   5.609  10.555   8.618 -1.4334  0.9048 -1.3297
  339MOL0     H45751   7.725  10.510   8.871 -1.8771 -0.0453  1.4969
  339MOL0     H45752   7.940  10.614   8.932  0.4996  0.7042 -0.0995
  339MOL0     H45753   8.127  11.106   9.063 -1.0874 -0.8055 -0.5610
  339MOL0     H45754   8.276  11.245   9.196 -3.0775  0.3440  2.7457
  339MOL0     H45755   8.474  11.327   9.267 -0.2712 -0.3794 -1.3964
  339MOL0     H45756   8.354  11.305   9.387 -0.4148 -2.5748  1.3260
  339MOL0     H45757   8.532  11.290   9.563  1.1178  0.1737  0.2816
  339MOL0     H45758   8.523  11.445   9.473  0.2658 -0.0252 -0.5036
  339MOL0     H45759   8.715  11.356   9.314 -1.0376  2.1184  0.4285
  339MOL0     H45760   8.724  11.213   9.417 -3.4081 -0.5962  0.7993
  339MOL0     H45761   8.741  11.443   9.593 -2.5891  0.5095 -2.2604
  339MOL0     H45762   8.856  11.465   9.458  1.2482 -1.0540 -0.0472
  339MOL0     H45763   9.070  11.165   9.641  0.3423 -0.0570 -0.9869
  339MOL0     H45764   8.435  10.903   9.384  3.2860  0.9523 -1.1014
  339MOL0     H45765   8.298  10.751   9.251 -0.2338  0.2152  0.2652
  340MOL0     O45766   6.901   2.091   3.334  0.0260 -0.4257 -0.3140
  340MOL0     C45767   6.928   2.084   3.213  0.3775  0.2498  0.2153
  340MOL0     O45768   6.881   2.163   3.109  0.3265  0.2111 -0.1792
  340MOL0     C45769   6.783   2.253   3.102 -0.2370 -0.7989  1.1329
  340MOL0     C45770   6.757   2.321   2.976  0.4050  0.2495 -0.7670
  340MOL0     C45771   6.647   2.403   2.974 -0.5310  0.0612 -0.2117
  340MOL0     C45772   6.559   2.425   3.082  0.1930  0.2365 -0.7554
  340MOL0     O45773   6.440   2.500   3.086 -0.6397 -0.2123  0.1915
  340MOL0     C45774   6.391   2.553   2.966 -0.1761  0.3816 -0.1406
  340MOL0     C45775   6.262   2.631   2.989 -0.1786 -0.0083  0.3143
  340MOL0     C45776   6.241   2.714   2.866  0.0338 -0.4820  0.4673
  340MOL0     C45777   6.155   2.646   2.755 -0.4852 -0.0498  0.7312
  340MOL0     C45778   6.125   2.748   2.645  0.0683  0.4850  0.8950
  340MOL0     C45779   6.038   2.688   2.537  0.1821  1.2058  0.7129
  340MOL0     C45780   5.965   2.791   2.453 -0.0072 -0.0554 -0.9283
  340MOL0     C45781   5.852   2.850   2.534 -0.0938 -0.4292 -0.6249
  340MOL0     N45782   5.771   2.927   2.445  0.4426  0.4772  0.4426
  340MOL0     C45783   5.649   2.891   2.396 -0.4706  0.9500  0.1829
  340MOL0     C45784   5.609   2.985   2.310 -0.6079  0.2937 -0.0102
  340MOL0     C45785   5.489   2.991   2.226 -0.8583 -0.0413 -0.8007
  340MOL0     C45786   5.376   3.053   2.300  1.0517 -1.5059  0.7629
  340MOL0     C45787   5.291   3.126   2.201  0.6299 -0.5113 -0.2261
  340MOL0     C45788   5.156   3.060   2.171  0.9079 -1.1011 -0.2225
  340MOL0     O45789   5.175   2.934   2.118  0.1675  0.5585  1.1466
  340MOL0     C45790   5.070   2.864   2.073  0.7433  0.0739  1.2499
  340MOL0     C45791   5.088   2.751   1.988  0.7617  0.1362 -0.5276
  340MOL0     C45792   4.990   2.661   1.945  0.1309  0.0109 -0.4103
  340MOL0     C45793   5.031   2.547   1.852  0.2044 -0.3764  0.5082
  340MOL0     C45794   4.854   2.696   1.988 -1.8336  0.3702  0.7784
  340MOL0     C45795   4.734   2.609   1.950  0.6371  0.5298 -0.1073
  340MOL0     O45796   4.627   2.647   2.026  0.4212  0.3046 -0.9297
  340MOL0     C45797   4.495   2.625   1.986 -1.6118 -0.6001 -0.6250
  340MOL0     C45798   4.406   2.590   2.089  0.2053 -0.2553  0.0966
  340MOL0     C45799   4.266   2.561   2.052 -0.2609 -0.8083 -0.6838
  340MOL0     C45800   4.224   2.580   1.915  0.5173 -0.4284 -0.0893
  340MOL0     O45801   4.094   2.561   1.882  0.6046 -0.7544 -0.2723
  340MOL0     C45802   3.997   2.499   1.974  1.0447 -0.4213 -0.1964
  340MOL0     C45803   3.870   2.446   1.893 -0.7211  0.0117  0.1867
  340MOL0     C45804   3.792   2.560   1.821  0.6492  0.7930 -1.1335
  340MOL0     C45805   3.745   2.665   1.921 -0.0501 -0.0971  0.0767
  340MOL0     C45806   3.657   2.764   1.835  0.2255 -0.2290  0.0553
  340MOL0     C45807   3.552   2.832   1.935  0.3212 -0.6671  0.5242
  340MOL0     C45808   3.456   2.945   1.874  0.2254 -0.0592  0.5833
  340MOL0     C45809   3.373   2.891   1.744 -0.1682  0.1720 -0.2610
  340MOL0    Cl45810   3.262   2.761   1.787  0.0692 -0.6692 -0.5934
  340MOL0     C45811   4.319   2.619   1.813  0.5934 -0.8810 -0.6758
  340MOL0     C45812   4.454   2.637   1.851  0.5814 -0.8297  0.5415
  340MOL0     O45813   4.737   2.507   1.883 -0.3691 -0.5364  0.2203
  340MOL0     C45814   4.828   2.809   2.061  0.0678 -0.5927 -0.5427
  340MOL0     C45815   4.935   2.894   2.101 -0.0727 -0.2253  0.5488
  340MOL0     N45816   5.711   3.075   2.305  0.3470 -0.1271 -1.2969
  340MOL0     N45817   5.810   3.042   2.388  0.3729  0.1655  0.0971
  340MOL0     C45818   6.596   2.364   3.209  0.2101  0.1135  0.4232
  340MOL0     C45819   6.708   2.287   3.215  0.0912 -0.0070 -0.7081
  340MOL0     C45820   7.039   1.994   3.171 -1.5281  0.2884 -0.2071
  340MOL0     C45821   7.056   1.951   3.040 -0.8835 -0.0933 -0.6383
  340MOL0     C45822   7.159   1.854   3.010  0.8039  1.0511 -0.8871
  340MOL0     C45823   7.238   1.803   3.109 -0.7380  0.5699  0.8692
  340MOL0     O45824   7.341   1.713   3.076  0.2815  1.3215 -0.2549
  340MOL0     C45825   7.412   1.626   3.172  0.0497  0.4405 -0.5261
  340MOL0     C45826   7.367   1.482   3.164 -0.0498 -1.1263  0.3867
  340MOL0     C45827   7.406   1.403   3.038 -0.0949 -0.4054  0.3986
  340MOL0     C45828   7.563   1.373   3.041 -0.2923  0.0235 -0.1477
  340MOL0     C45829   7.633   1.361   3.170 -0.2870  0.0788 -0.3312
  340MOL0     C45830   7.701   1.345   3.273  0.1382 -0.2547 -0.0837
  340MOL0     C45831   7.213   1.838   3.239  1.2973 -0.2401  0.3695
  340MOL0     C45832   7.131   1.942   3.268 -0.2009 -0.0734  0.7280
  340MOL0     H45833   6.827   2.309   2.894  0.8730 -1.0506 -0.1999
  340MOL0     H45834   6.638   2.452   2.878 -0.8991 -0.4525 -0.4429
  340MOL0     H45835   6.465   2.611   2.910  0.1143  3.0025  2.6998
  340MOL0     H45836   6.376   2.474   2.891 -0.1981  0.3862 -0.1409
  340MOL0     H45837   6.173   2.570   3.006 -0.2033 -0.9300 -2.5165
  340MOL0     H45838   6.276   2.699   3.073 -2.5561 -0.8172  1.4374
  340MOL0     H45839   6.206   2.813   2.897  1.5687  0.6529 -1.2477
  340MOL0     H45840   6.339   2.742   2.827  0.3221 -2.6751 -0.5324
  340MOL0     H45841   6.218   2.561   2.727  0.4947 -0.2525  3.3097
  340MOL0     H45842   6.066   2.600   2.797 -0.3862 -2.1041 -1.1069
  340MOL0     H45843   6.085   2.841   2.685 -0.5936  0.6584 -0.1381
  340MOL0     H45844   6.218   2.775   2.594 -2.5375  2.6698 -3.2754
  340MOL0     H45845   6.109   2.634   2.473  1.4775  0.3859  2.7388
  340MOL0     H45846   5.967   2.614   2.575 -0.4941  1.7789  0.5738
  340MOL0     H45847   6.033   2.873   2.429 -2.6035  3.6699  3.0503
  340MOL0     H45848   5.925   2.735   2.368 -0.9786  0.3880 -0.7838
  340MOL0     H45849   5.904   2.904   2.613  2.4853 -4.0506  0.4239
  340MOL0     H45850   5.786   2.775   2.578 -2.9053  1.7596 -0.8214
  340MOL0     H45851   5.603   2.794   2.413 -1.0162  1.0725 -0.5897
  340MOL0     H45852   5.526   3.042   2.137 -0.6322 -0.9264 -1.2269
  340MOL0     H45853   5.471   2.890   2.188  0.6898  0.2796 -2.5302
  340MOL0     H45854   5.397   3.120   2.384  0.0233 -0.4166  0.1761
  340MOL0     H45855   5.315   2.969   2.337  1.0151 -0.9761  1.9373
  340MOL0     H45856   5.337   3.144   2.103 -2.3366 -0.3175 -1.6843
  340MOL0     H45857   5.257   3.220   2.245 -0.4316 -2.3855  3.3015
  340MOL0     H45858   5.094   3.119   2.104  1.0815 -0.1353  0.4348
  340MOL0     H45859   5.104   3.044   2.266 -0.2482 -3.4667 -1.1893
  340MOL0     H45860   5.192   2.729   1.964  0.4430 -0.3336 -1.5237
  340MOL0     H45861   5.008   2.572   1.748  0.6479  1.7810  0.8778
  340MOL0     H45862   5.139   2.532   1.848  0.7557  2.7614  0.6410
  340MOL0     H45863   4.985   2.459   1.898  1.9900 -1.3783  0.4594
  340MOL0     H45864   4.442   2.569   2.189 -0.0391 -1.3486 -0.0323
  340MOL0     H45865   4.190   2.524   2.120 -1.0212 -1.6250 -1.9335
  340MOL0     H45866   4.039   2.408   2.017  0.3106  0.5642  2.8563
  340MOL0     H45867   3.971   2.565   2.058  0.8512 -0.1620 -0.4586
  340MOL0     H45868   3.904   2.375   1.816 -1.6841 -2.2519  1.7570
  340MOL0     H45869   3.802   2.385   1.953  1.2066 -1.4195  1.0076
  340MOL0     H45870   3.706   2.522   1.767  0.0762  2.7621 -1.6763
  340MOL0     H45871   3.860   2.598   1.744 -0.7767  1.8076 -1.9333
  340MOL0     H45872   3.690   2.616   2.002  0.7006  2.2829  2.1305
  340MOL0     H45873   3.822   2.729   1.965 -0.1244  0.5585 -0.7074
  340MOL0     H45874   3.618   2.707   1.750  0.7209 -0.2140 -0.1888
  340MOL0     H45875   3.727   2.843   1.808  0.8497 -0.1477  1.8039
  340MOL0     H45876   3.484   2.754   1.968  0.8762 -2.4209 -2.1855
  340MOL0     H45877   3.605   2.869   2.024  0.7122  0.4451 -0.1417
  340MOL0     H45878   3.516   3.032   1.844 -2.7179  2.2102  0.8319
  340MOL0     H45879   3.390   2.971   1.957  1.5584  2.8814  0.8455
  340MOL0     H45880   3.441   2.845   1.672 -1.5328 -0.6890 -1.0297
  340MOL0     H45881   3.325   2.977   1.698 -0.6556  0.8186  1.3931
  340MOL0     H45882   4.271   2.638   1.717  0.4955  4.3338  0.1087
  340MOL0     H45883   4.521   2.654   1.767  0.4794 -1.1428  0.3960
  340MOL0     H45884   4.731   2.851   2.086  0.7667  2.2631 -2.2076
  340MOL0     H45885   4.909   2.973   2.170  1.2706  0.5266  0.2315
  340MOL0     H45886   6.539   2.399   3.295 -0.0325 -0.1957  0.3896
  340MOL0     H45887   6.727   2.247   3.315 -2.9644 -1.7328 -0.7306
  340MOL0     H45888   6.985   1.992   2.969 -2.5457 -1.3013  0.2771
  340MOL0     H45889   7.168   1.810   2.911  0.3154 -1.5408  0.1284
  340MOL0     H45890   7.518   1.630   3.146 -0.0513 -0.7180 -1.1589
  340MOL0     H45891   7.405   1.654   3.278  0.7396  0.4065 -0.4654
  340MOL0     H45892   7.258   1.486   3.163 -0.0145  0.6029  0.0809
  340MOL0     H45893   7.406   1.431   3.252  2.0365 -0.7081 -0.2436
  340MOL0     H45894   7.396   1.467   2.949  4.1115  0.0759  0.0602
  340MOL0     H45895   7.354   1.313   3.005  2.5510 -1.3040 -1.7404
  340MOL0     H45896   7.626   1.447   2.989  1.2358 -1.4328 -0.4593
  340MOL0     H45897   7.584   1.277   2.994 -0.7313  0.2320 -0.7880
  340MOL0     H45898   7.758   1.333   3.363  1.3324  0.7989 -0.6646
  340MOL0     H45899   7.282   1.798   3.313  3.5439 -0.9506 -1.9713
  340MOL0     H45900   7.121   1.972   3.372  3.3037 -0.3203  1.2383
  341MOL0     O45901   1.685   6.809  10.716 -0.4359 -0.3248 -0.5634
  341MOL0     C45902   1.737   6.902  10.646  0.8117  0.1329  0.1990
  341MOL0     O45903   1.692   7.025  10.640 -0.7586  0.1811  0.6550
  341MOL0     C45904   1.553   7.033  10.657 -0.7976  0.2967 -0.3982
  341MOL0     C45905   1.458   7.006  10.558 -0.4767  0.2109  0.1157
  341MOL0     C45906   1.323   7.008  10.587  0.2615  0.3447 -0.1322
  341MOL0     C45907   1.274   7.041  10.714  0.9355 -0.1570  0.1223
  341MOL0     O45908   1.130   7.031  10.752 -1.0525  0.8011 -0.2107
  341MOL0     C45909   1.043   7.020  10.644 -0.0596 -0.2427  0.1434
  341MOL0     C45910   0.903   7.040  10.697 -0.0146  0.3286  0.0031
  341MOL0     C45911   0.788   6.973  10.617  0.0504 -0.4426  0.4016
  341MOL0     C45912   0.784   6.818  10.635  0.2990 -0.3588 -0.8597
  341MOL0     C45913   0.664   6.754  10.559 -0.3363  0.0925  0.3329
  341MOL0     C45914   0.669   6.794  10.408  0.7084  0.6615  0.1633
  341MOL0     C45915   0.790   6.721  10.348 -0.5578 -0.2116 -0.6504
  341MOL0     C45916   0.794   6.750  10.196 -1.9900  0.1220 -0.0699
  341MOL0     N45917   0.712   6.661  10.113 -0.1316  0.5768 -0.2639
  341MOL0     C45918   0.687   6.530  10.132 -0.4263  0.5687  0.0301
  341MOL0     C45919   0.604   6.498  10.028  1.4493  0.0896 -0.1768
  341MOL0     C45920   0.545   6.364   9.991  0.1782 -0.2688  0.0533
  341MOL0     C45921   0.403   6.335  10.020 -1.4201 -0.2904 -0.7657
  341MOL0     C45922   0.307   6.426   9.951 -0.5332 -1.2348  1.1086
  341MOL0     C45923   0.174   6.401  10.014  0.1041  0.5611 -0.3735
  341MOL0     O45924   0.122   6.271   9.993 -0.0156  0.7670  0.4143
  341MOL0     C45925  -0.006   6.243  10.042  0.1620  0.1455 -0.2755
  341MOL0     C45926  -0.072   6.326  10.134 -0.3909  0.8655 -0.1518
  341MOL0     C45927  -0.201   6.297  10.181  0.5752  0.7686  0.3298
  341MOL0     C45928  -0.268   6.396  10.276  0.5857  0.3475 -0.3015
  341MOL0     C45929  -0.270   6.184  10.138 -1.2337 -0.6559  1.0196
  341MOL0     C45930  -0.406   6.145  10.179  0.1924  0.3521 -0.2184
  341MOL0     O45931  -0.471   6.099  10.066 -0.1776 -0.4917  0.3684
  341MOL0     C45932  -0.577   6.014  10.090 -0.0185  0.6993  1.1092
  341MOL0     C45933  -0.571   5.885  10.056 -0.3162  0.1530  0.5960
  341MOL0     C45934  -0.677   5.790  10.062 -0.5041 -0.4377  0.4732
  341MOL0     C45935  -0.799   5.834  10.118 -0.5392  0.1183 -0.3647
  341MOL0     O45936  -0.905   5.747  10.130  0.3560 -0.9260  0.3686
  341MOL0     C45937  -0.970   5.752  10.254  0.5191 -0.0160  0.5406
  341MOL0     C45938  -1.069   5.636  10.262 -0.9758  0.0493 -0.0070
  341MOL0     C45939  -1.196   5.652  10.352  0.1646 -0.4245  0.9286
  341MOL0     C45940  -1.172   5.721  10.484  0.2435  1.5204 -0.7614
  341MOL0     C45941  -1.308   5.764  10.543  0.2224 -0.2309 -0.7424
  341MOL0     C45942  -1.322   5.810  10.684 -0.1166 -0.0384 -0.0094
  341MOL0     C45943  -1.472   5.827  10.744  0.1996  0.3473  0.2414
  341MOL0     C45944  -1.470   5.889  10.880 -0.4346  0.1992 -0.4671
  341MOL0    Cl45945  -1.417   6.054  10.873 -0.0561  0.4644  0.3902
  341MOL0     C45946  -0.801   5.970  10.160  0.4017 -0.4029 -0.1097
  341MOL0     C45947  -0.694   6.054  10.142  0.6004  0.3772  0.3676
  341MOL0     O45948  -0.444   6.139  10.294  0.5711 -0.1831  0.2296
  341MOL0     C45949  -0.196   6.092  10.053 -0.5670 -0.0583  0.0215
  341MOL0     C45950  -0.070   6.128  10.009 -0.0461 -0.4170  0.1548
  341MOL0     N45951   0.570   6.617   9.961  0.0540  0.1160  0.3422
  341MOL0     N45952   0.640   6.711  10.014  0.3182 -0.6394  0.9312
  341MOL0     C45953   1.371   7.069  10.815 -0.3635  0.2596 -0.1128
  341MOL0     C45954   1.505   7.058  10.789 -0.3106  0.0722 -0.2176
  341MOL0     C45955   1.865   6.865  10.565 -0.2604  0.7403 -0.2368
  341MOL0     C45956   1.935   6.750  10.604 -0.7602 -0.5497 -0.4510
  341MOL0     C45957   2.061   6.723  10.548  0.0353  0.7428 -0.0762
  341MOL0     C45958   2.116   6.799  10.445 -0.5458  0.8008  0.2021
  341MOL0     O45959   2.243   6.771  10.403 -0.4242  0.8239  0.1532
  341MOL0     C45960   2.258   6.687  10.287  0.5325 -0.3997 -0.7305
  341MOL0     C45961   2.397   6.729  10.226 -0.2811  0.2326 -0.9183
  341MOL0     C45962   2.510   6.647  10.296 -1.1253  0.1866 -0.1636
  341MOL0     C45963   2.645   6.648  10.217  0.5694 -0.0418  0.0579
  341MOL0     C45964   2.703   6.785  10.224  0.1794  0.6192  0.0446
  341MOL0     C45965   2.747   6.900  10.228  0.0503 -0.0519  0.4830
  341MOL0     C45966   2.046   6.917  10.406  0.8025  0.5414 -0.6948
  341MOL0     C45967   1.919   6.939  10.465  0.4144 -0.8317 -0.5436
  341MOL0     H45968   1.497   6.993  10.458 -1.9597  0.8281 -0.5718
  341MOL0     H45969   1.254   6.976  10.510  0.8573 -0.1665 -0.4605
  341MOL0     H45970   1.058   7.090  10.562 -0.1389 -0.3926  0.0019
  341MOL0     H45971   1.058   6.921  10.598  0.1923 -0.0676 -0.1582
  341MOL0     H45972   0.900   6.993  10.796 -0.3047  0.9215  0.2800
  341MOL0     H45973   0.884   7.146  10.712  0.4101  0.3804  0.2135
  341MOL0     H45974   0.685   7.008  10.634 -0.5288 -2.4940  1.4036
  341MOL0     H45975   0.819   6.997  10.515 -0.6731  0.1396  0.3074
  341MOL0     H45976   0.881   6.769  10.623  0.6825  0.3883 -0.9206
  341MOL0     H45977   0.756   6.803  10.739  1.3285 -1.3617 -0.7077
  341MOL0     H45978   0.677   6.647  10.578 -0.2426  0.2023  0.8905
  341MOL0     H45979   0.567   6.791  10.592 -2.0490 -1.7187 -2.2582
  341MOL0     H45980   0.579   6.745  10.369  2.8185 -1.7710 -2.0641
  341MOL0     H45981   0.683   6.901  10.391 -0.7419  0.5501 -2.0211
  341MOL0     H45982   0.885   6.761  10.384 -1.8660  2.7517 -0.2318
  341MOL0     H45983   0.786   6.615  10.377 -1.5379 -0.3509 -1.2394
  341MOL0     H45984   0.898   6.736  10.167 -1.5458  2.8504 -0.0894
  341MOL0     H45985   0.758   6.853  10.191 -0.6375  0.5867 -0.8100
  341MOL0     H45986   0.742   6.472  10.205 -1.6173  0.6619  1.0460
  341MOL0     H45987   0.565   6.347   9.885  2.9088  0.7351  0.3483
  341MOL0     H45988   0.601   6.287  10.045 -0.3773  0.1859  1.3357
  341MOL0     H45989   0.388   6.348  10.128 -0.2480  2.1769 -0.8374
  341MOL0     H45990   0.376   6.233   9.992 -2.7363  0.5467 -2.7849
  341MOL0     H45991   0.299   6.389   9.848  2.0439 -2.3836  1.2557
  341MOL0     H45992   0.339   6.530   9.951  0.6052 -1.5706  1.1945
  341MOL0     H45993   0.094   6.463   9.973 -0.3003 -0.7943 -1.7723
  341MOL0     H45994   0.180   6.421  10.121 -1.4401  0.1513 -0.1814
  341MOL0     H45995  -0.023   6.417  10.166  1.2146 -0.7083  2.2238
  341MOL0     H45996  -0.249   6.500  10.248 -0.3780  0.6694  0.1870
  341MOL0     H45997  -0.375   6.371  10.273 -0.1082  2.2745  2.9723
  341MOL0     H45998  -0.225   6.375  10.375  2.8191  2.3902 -0.7620
  341MOL0     H45999  -0.473   5.851  10.022 -1.2575 -0.4497 -1.6705
  341MOL0     H46000  -0.650   5.698  10.011 -1.7523  0.4604 -1.9782
  341MOL0     H46001  -0.892   5.740  10.330  1.5291 -1.0457 -0.6113
  341MOL0     H46002  -1.018   5.851  10.253  1.1131  0.3062 -1.1445
  341MOL0     H46003  -1.100   5.622  10.158  0.0778  1.1104 -0.4853
  341MOL0     H46004  -1.009   5.551  10.297  3.4950  2.7510 -0.4165
  341MOL0     H46005  -1.223   5.550  10.379 -0.7452 -0.2030  0.8772
  341MOL0     H46006  -1.274   5.702  10.294  0.8628 -3.3498 -2.9294
  341MOL0     H46007  -1.129   5.649  10.554 -1.4102  1.6365  0.4342
  341MOL0     H46008  -1.102   5.805  10.473  0.5395  1.2010 -1.3795
  341MOL0     H46009  -1.379   5.683  10.522  1.4210 -2.0587  1.7688
  341MOL0     H46010  -1.340   5.852  10.486  1.0949  2.7948  3.0516
  341MOL0     H46011  -1.274   5.737  10.750  0.8980  0.2417 -0.4205
  341MOL0     H46012  -1.268   5.905  10.686  1.5190 -0.8668  3.3214
  341MOL0     H46013  -1.502   5.723  10.759  1.8471 -0.1544  0.3328
  341MOL0     H46014  -1.533   5.889  10.678  0.0643  0.2910  0.3135
  341MOL0     H46015  -1.398   5.826  10.933 -1.2587 -1.2152 -0.9719
  341MOL0     H46016  -1.564   5.891  10.934 -1.2501 -0.4659 -1.7962
  341MOL0     H46017  -0.889   6.019  10.199  0.1576 -1.1255  0.2667
  341MOL0     H46018  -0.729   6.155  10.163 -0.1015  0.9832 -3.0987
  341MOL0     H46019  -0.233   6.000  10.008  1.6818 -1.5894  1.1514
  341MOL0     H46020  -0.026   6.053   9.943 -2.2770 -1.9774  0.3317
  341MOL0     H46021   1.346   7.100  10.916 -2.9140  1.1509 -0.9287
  341MOL0     H46022   1.574   7.076  10.871 -1.4401 -1.4819  1.1097
  341MOL0     H46023   1.891   6.685  10.678  0.8738 -0.4614  0.6482
  341MOL0     H46024   2.112   6.630  10.574 -0.4848 -0.0154 -1.6097
  341MOL0     H46025   2.249   6.581  10.313 -3.4215 -0.4045 -1.6326
  341MOL0     H46026   2.178   6.693  10.213  0.0132  0.9289 -0.1084
  341MOL0     H46027   2.420   6.833  10.248  0.7430 -0.2852  0.5868
  341MOL0     H46028   2.393   6.703  10.120 -0.3026  1.1563 -1.1476
  341MOL0     H46029   2.480   6.542  10.312  0.3295 -0.7810 -3.0616
  341MOL0     H46030   2.539   6.686  10.394  0.6572 -0.9624 -0.1924
  341MOL0     H46031   2.623   6.615  10.115 -1.8565 -1.9656  1.1267
  341MOL0     H46032   2.714   6.576  10.262  0.1609  0.6311  1.8362
  341MOL0     H46033   2.764   7.006  10.228 -1.4497  0.2222  1.3131
  341MOL0     H46034   2.075   6.974  10.318  0.5895 -1.2601 -1.9801
  341MOL0     H46035   1.854   7.016  10.423  1.2155  0.2253  0.0924
  342MOL0     O46036   0.475   5.219   3.819  0.4084  0.1728  0.3411
  342MOL0     C46037   0.381   5.290   3.777  0.3072 -0.9725  0.4818
  342MOL0     O46038   0.253   5.291   3.824  0.6933  0.2521 -0.4864
  342MOL0     C46039   0.203   5.201   3.913  0.3939  0.3698 -0.7185
  342MOL0     C46040   0.105   5.250   4.000 -0.9991  0.4087  0.4312
  342MOL0     C46041   0.054   5.162   4.091  0.0360 -0.6921  0.4643
  342MOL0     C46042   0.086   5.022   4.098  0.3680  0.1254 -0.2655
  342MOL0     O46043   0.013   4.935   4.180  0.1865  0.0986 -0.3062
  342MOL0     C46044  -0.038   4.807   4.132 -0.2170  0.6218 -0.0567
  342MOL0     C46045  -0.150   4.813   4.036 -0.3365  0.8084  0.1904
  342MOL0     C46046  -0.286   4.817   4.101  0.2175  0.3238  0.4519
  342MOL0     C46047  -0.396   4.870   4.009  0.3083  0.7714 -0.1398
  342MOL0     C46048  -0.537   4.857   4.077  0.8581  0.0637  0.1916
  342MOL0     C46049  -0.552   4.979   4.176  0.2524 -0.4151  0.4471
  342MOL0     C46050  -0.693   4.955   4.239  1.0577 -0.7176  0.5313
  342MOL0     C46051  -0.704   5.037   4.367 -0.1836 -0.1712 -0.4502
  342MOL0     N46052  -0.671   5.175   4.342 -0.5839  0.0886  0.0790
  342MOL0     C46053  -0.546   5.225   4.347 -0.1385 -1.3525  0.6972
  342MOL0     C46054  -0.563   5.356   4.301 -0.0677  0.2856  0.7732
  342MOL0     C46055  -0.444   5.443   4.282 -0.5150  0.3425 -0.8415
  342MOL0     C46056  -0.337   5.382   4.197  0.2043 -1.0970  0.7985
  342MOL0     C46057  -0.360   5.379   4.055  0.1797 -0.2868 -0.2385
  342MOL0     C46058  -0.355   5.526   3.995  0.2014  0.1343  0.4708
  342MOL0     O46059  -0.485   5.582   4.022 -0.6067 -0.2867 -0.0130
  342MOL0     C46060  -0.506   5.718   4.056  0.0223  0.1408  0.0640
  342MOL0     C46061  -0.416   5.827   4.042 -0.5393  0.2555  0.0663
  342MOL0     C46062  -0.439   5.958   4.064  0.1900  0.2062 -0.3940
  342MOL0     C46063  -0.320   6.063   4.030  1.4531  0.2081 -0.4386
  342MOL0     C46064  -0.567   5.987   4.119 -0.1163 -0.8491 -0.4816
  342MOL0     C46065  -0.602   6.123   4.170 -0.7163 -0.2015 -0.1707
  342MOL0     O46066  -0.551   6.221   4.096  0.1836  0.1096 -0.3047
  342MOL0     C46067  -0.598   6.344   4.105 -0.0161 -0.8317  0.1902
  342MOL0     C46068  -0.555   6.443   4.196  0.2129 -0.1983  0.2697
  342MOL0     C46069  -0.622   6.566   4.209 -1.0284  0.1868 -0.0680
  342MOL0     C46070  -0.734   6.588   4.120 -0.2719 -0.3078 -0.2083
  342MOL0     O46071  -0.816   6.698   4.121  0.7432  0.1309  0.5377
  342MOL0     C46072  -0.834   6.765   4.249  0.2019 -0.1247  1.1657
  342MOL0     C46073  -0.923   6.889   4.229  0.5939  1.0819  0.1786
  342MOL0     C46074  -0.957   6.959   4.364  0.3789  0.3406  0.5217
  342MOL0     C46075  -0.843   7.062   4.409  0.1063  0.2168 -0.1009
  342MOL0     C46076  -0.863   7.099   4.557  0.1376 -0.6889  0.1304
  342MOL0     C46077  -0.994   7.160   4.593 -0.5500  0.2893 -0.4735
  342MOL0     C46078  -0.987   7.226   4.739  0.4735 -0.5516  0.0904
  342MOL0     C46079  -1.092   7.344   4.751 -0.4401  0.9200  0.3237
  342MOL0    Cl46080  -1.047   7.489   4.653 -0.1861  0.2773 -0.0088
  342MOL0     C46081  -0.780   6.483   4.042  1.0072 -0.3713  0.2358
  342MOL0     C46082  -0.717   6.363   4.030  0.2289 -0.3154 -0.1023
  342MOL0     O46083  -0.682   6.143   4.259  0.1714  0.4286 -0.3988
  342MOL0     C46084  -0.663   5.881   4.131  0.4059 -0.5863 -0.7588
  342MOL0     C46085  -0.631   5.757   4.089 -0.1298 -0.2437 -0.7320
  342MOL0     N46086  -0.694   5.375   4.268  0.2085 -0.8927 -0.3867
  342MOL0     N46087  -0.757   5.272   4.300  0.2730  0.5777  0.2776
  342MOL0     C46088   0.178   4.977   4.006 -0.7213 -0.6000  0.1657
  342MOL0     C46089   0.240   5.064   3.916 -0.7104  0.6798  0.0267
  342MOL0     C46090   0.425   5.410   3.692 -0.5260 -0.5736  0.2455
  342MOL0     C46091   0.551   5.467   3.702  0.4145  0.4087 -0.0464
  342MOL0     C46092   0.591   5.578   3.632 -0.1989 -0.4427 -0.4310
  342MOL0     C46093   0.505   5.637   3.534 -0.1634 -0.0799 -0.6625
  342MOL0     O46094   0.521   5.753   3.467 -0.2201 -0.3183  0.2236
  342MOL0     C46095   0.660   5.802   3.444  0.5824 -0.2939  0.4258
  342MOL0     C46096   0.726   5.712   3.338 -0.0316 -0.6053 -0.3922
  342MOL0     C46097   0.853   5.786   3.282 -0.6653  0.9075  0.8249
  342MOL0     C46098   0.932   5.709   3.171  1.1806  0.7670  0.1608
  342MOL0     C46099   0.849   5.686   3.055 -0.4127  0.1044 -0.1562
  342MOL0     C46100   0.770   5.686   2.963 -0.4017 -0.0717  1.0882
  342MOL0     C46101   0.383   5.572   3.516  0.2202 -0.4964 -0.4313
  342MOL0     C46102   0.341   5.464   3.590  0.5843 -0.3903 -0.2588
  342MOL0     H46103   0.087   5.356   3.982  2.7573  0.7506 -2.6839
  342MOL0     H46104  -0.022   5.207   4.154  0.0194  0.0373 -0.0691
  342MOL0     H46105   0.044   4.747   4.090 -0.5736  0.2978 -0.3001
  342MOL0     H46106  -0.078   4.746   4.213  0.9427 -1.2792 -0.8382
  342MOL0     H46107  -0.139   4.907   3.981 -2.7413 -0.8870 -3.6129
  342MOL0     H46108  -0.138   4.729   3.967  0.3099 -0.8901  2.2740
  342MOL0     H46109  -0.305   4.713   4.131 -0.1914 -0.0662 -1.0746
  342MOL0     H46110  -0.276   4.872   4.195  2.8718 -0.8240  0.9268
  342MOL0     H46111  -0.383   4.974   3.979 -2.6447  1.6783  1.2991
  342MOL0     H46112  -0.399   4.807   3.920 -2.7954 -0.7228  0.8733
  342MOL0     H46113  -0.615   4.855   4.000  0.1307 -1.7085  0.9210
  342MOL0     H46114  -0.552   4.762   4.129 -3.0405  0.2510 -0.3003
  342MOL0     H46115  -0.478   4.967   4.256  0.5629 -0.0674  0.2148
  342MOL0     H46116  -0.540   5.074   4.122 -0.4725 -0.1173  0.7983
  342MOL0     H46117  -0.766   4.997   4.168  0.2829 -0.9242  1.1892
  342MOL0     H46118  -0.709   4.849   4.257 -0.3996 -1.3187 -3.2644
  342MOL0     H46119  -0.639   5.000   4.448  2.3911 -0.1445 -2.3859
  342MOL0     H46120  -0.805   5.026   4.407  0.5893 -1.1674  1.3769
  342MOL0     H46121  -0.455   5.186   4.390 -0.6286 -1.7948  1.3449
  342MOL0     H46122  -0.456   5.551   4.267  0.9864  0.9854  2.0348
  342MOL0     H46123  -0.399   5.444   4.381 -2.1198 -1.9054 -0.0068
  342MOL0     H46124  -0.304   5.281   4.224  0.9592 -0.7863  1.0643
  342MOL0     H46125  -0.255   5.445   4.231  0.5316  0.0447 -1.8569
  342MOL0     H46126  -0.457   5.334   4.032  0.1711 -0.4183  0.0466
  342MOL0     H46127  -0.285   5.309   4.020  0.2214 -0.3768  0.0286
  342MOL0     H46128  -0.330   5.528   3.889  2.5336  2.8693  0.9296
  342MOL0     H46129  -0.275   5.582   4.046 -1.1776  0.5150  2.3236
  342MOL0     H46130  -0.320   5.792   4.006  0.4229 -0.2364  2.8753
  342MOL0     H46131  -0.312   6.140   4.108  0.7837 -2.0205  1.9817
  342MOL0     H46132  -0.228   6.012   4.000  0.1846 -1.9705 -0.8099
  342MOL0     H46133  -0.356   6.109   3.938  2.4005 -1.3113 -1.6174
  342MOL0     H46134  -0.474   6.408   4.261  0.3156  0.8587  0.7309
  342MOL0     H46135  -0.605   6.638   4.289 -0.9322 -1.1476  1.1469
  342MOL0     H46136  -0.899   6.702   4.310 -2.5490 -2.1713 -3.3403
  342MOL0     H46137  -0.750   6.796   4.312 -0.0772 -1.0593  2.0360
  342MOL0     H46138  -0.875   6.962   4.164  1.7636 -0.7102 -1.0706
  342MOL0     H46139  -1.012   6.842   4.185  1.5425 -1.2976  0.6176
  342MOL0     H46140  -0.954   6.882   4.442 -1.3876  0.6569  0.9420
  342MOL0     H46141  -1.062   6.989   4.363  0.3338  0.2039  0.8774
  342MOL0     H46142  -0.747   7.009   4.401 -0.0802 -0.4082  1.5597
  342MOL0     H46143  -0.837   7.149   4.343  2.1941 -0.5033 -0.9577
  342MOL0     H46144  -0.780   7.166   4.583 -0.1495  0.2581 -1.2732
  342MOL0     H46145  -0.853   7.009   4.617 -1.1277  1.1207  3.2999
  342MOL0     H46146  -1.029   7.235   4.521 -2.9190 -1.1243 -0.8887
  342MOL0     H46147  -1.083   7.096   4.592 -1.1708  0.9907  2.0172
  342MOL0     H46148  -0.885   7.258   4.763  0.3058  0.9180 -1.0341
  342MOL0     H46149  -1.018   7.158   4.819 -1.3997  0.4367  0.2541
  342MOL0     H46150  -1.087   7.368   4.857  1.7136  0.7714  0.3064
  342MOL0     H46151  -1.190   7.301   4.730  0.3348 -0.7163 -0.1012
  342MOL0     H46152  -0.871   6.505   3.988  1.6955 -1.4304 -1.4409
  342MOL0     H46153  -0.744   6.289   3.956  2.5210 -0.4991 -0.8315
  342MOL0     H46154  -0.760   5.891   4.178  1.1589  4.3085  0.2276
  342MOL0     H46155  -0.708   5.681   4.097  0.5154 -0.7650  0.9048
  342MOL0     H46156   0.196   4.873   3.981 -0.1639 -0.1513 -1.3935
  342MOL0     H46157   0.316   5.019   3.853 -2.2379  0.4552 -1.7098
  342MOL0     H46158   0.620   5.420   3.772  0.9007  1.2197  0.0247
  342MOL0     H46159   0.690   5.619   3.646 -0.5419  0.7893 -1.4740
  342MOL0     H46160   0.658   5.901   3.399  0.4097 -2.2962 -4.5541
  342MOL0     H46161   0.723   5.795   3.534 -2.4081 -0.6372  2.6343
  342MOL0     H46162   0.666   5.684   3.251  0.4372 -0.2401 -0.8429
  342MOL0     H46163   0.750   5.617   3.385  0.4882 -0.3653 -0.1615
  342MOL0     H46164   0.923   5.803   3.364  0.4067 -3.2087  1.0140
  342MOL0     H46165   0.812   5.873   3.230 -4.7579 -2.9703 -3.4927
  342MOL0     H46166   0.984   5.620   3.208  0.7467  0.8588  1.0399
  342MOL0     H46167   1.018   5.772   3.144 -0.0847  1.5556 -2.3263
  342MOL0     H46168   0.691   5.680   2.891 -1.0614 -1.7723  1.8976
  342MOL0     H46169   0.314   5.616   3.445 -0.2048 -1.6922 -0.7929
  342MOL0     H46170   0.236   5.440   3.577  0.0249 -0.2050  3.0012
  343MOL0     O46171   9.073   2.477   0.127  0.0760  0.2533 -0.6700
  343MOL0     C46172   9.155   2.560   0.094 -0.2369 -0.7684 -0.9744
  343MOL0     O46173   9.142   2.656  -0.003  0.3049  0.0721  0.3064
  343MOL0     C46174   9.024   2.647  -0.072 -0.4370  0.7457  0.6446
  343MOL0     C46175   8.904   2.704  -0.032 -0.7144 -0.1073 -0.1008
  343MOL0     C46176   8.790   2.693  -0.105 -0.3259 -0.0462 -0.4813
  343MOL0     C46177   8.784   2.610  -0.219 -0.7477 -0.7594  0.0443
  343MOL0     O46178   8.670   2.614  -0.300 -0.3392  0.2632  0.1548
  343MOL0     C46179   8.559   2.699  -0.276  0.4684 -0.4201  0.0404
  343MOL0     C46180   8.442   2.616  -0.224 -0.0082 -0.0020 -0.3330
  343MOL0     C46181   8.305   2.641  -0.303  0.6376  0.3532 -0.5268
  343MOL0     C46182   8.185   2.564  -0.244  1.2998  0.0187 -0.9262
  343MOL0     C46183   8.056   2.600  -0.315  0.4875 -0.8667 -0.1353
  343MOL0     C46184   8.029   2.546  -0.458 -0.0793  0.2407 -0.2679
  343MOL0     C46185   7.925   2.627  -0.529  0.9152  1.4714  0.0871
  343MOL0     C46186   7.784   2.620  -0.459 -0.0675  0.0029 -0.5412
  343MOL0     N46187   7.687   2.664  -0.559 -0.0901  0.3491  0.2073
  343MOL0     C46188   7.606   2.774  -0.532 -0.5470  0.0357  0.3363
  343MOL0     C46189   7.515   2.770  -0.629  0.1349  0.7159 -0.4609
  343MOL0     C46190   7.417   2.899  -0.638 -0.9191  0.2211  0.6675
  343MOL0     C46191   7.280   2.846  -0.679  0.4282 -0.9594 -0.1640
  343MOL0     C46192   7.167   2.945  -0.700  0.9193 -0.4624 -0.7286
  343MOL0     C46193   7.030   2.881  -0.735  0.4378  0.0879 -0.7976
  343MOL0     O46194   6.973   2.840  -0.602 -0.8340 -0.5551  0.4854
  343MOL0     C46195   6.848   2.798  -0.610  0.0114 -0.2741  0.1158
  343MOL0     C46196   6.821   2.668  -0.653 -0.0722 -0.2780 -0.3821
  343MOL0     C46197   6.690   2.622  -0.690  0.0273 -0.0765  0.5820
  343MOL0     C46198   6.690   2.481  -0.738 -0.2392 -0.4110 -1.4815
  343MOL0     C46199   6.579   2.715  -0.691  0.2981 -0.1403  0.0058
  343MOL0     C46200   6.440   2.676  -0.719  0.4519 -0.8008 -0.1932
  343MOL0     O46201   6.359   2.795  -0.724  0.0196  0.2510  0.7371
  343MOL0     C46202   6.236   2.780  -0.787  0.6683 -0.4463  1.3682
  343MOL0     C46203   6.216   2.702  -0.901  0.0651 -0.9413  0.5965
  343MOL0     C46204   6.088   2.701  -0.974 -0.5515 -0.4211  0.4662
  343MOL0     C46205   5.987   2.791  -0.939  0.4119  0.6401 -0.8009
  343MOL0     O46206   5.868   2.801  -1.010 -0.4043  0.3600  0.2261
  343MOL0     C46207   5.796   2.674  -1.022  0.0741  1.1106  0.2989
  343MOL0     C46208   5.659   2.678  -0.955  0.1712 -0.4841 -0.1235
  343MOL0     C46209   5.561   2.774  -1.019  0.1364 -0.6287  0.2485
  343MOL0     C46210   5.441   2.809  -0.928  0.2403 -0.7043  0.3307
  343MOL0     C46211   5.325   2.882  -1.002 -0.1666  0.4443 -0.6471
  343MOL0     C46212   5.231   2.941  -0.903  0.0993 -0.3592  0.1467
  343MOL0     C46213   5.105   2.997  -0.971  0.5633 -0.5959 -0.8617
  343MOL0     C46214   5.121   3.139  -1.030 -0.3432  1.2618  0.3656
  343MOL0    Cl46215   4.976   3.225  -0.983  0.2578 -0.2776  0.4670
  343MOL0     C46216   6.012   2.879  -0.828  0.5314 -0.3047  0.0566
  343MOL0     C46217   6.131   2.863  -0.750  0.5943  1.0542 -0.4932
  343MOL0     O46218   6.394   2.561  -0.711 -0.0263  0.3617  0.2652
  343MOL0     C46219   6.614   2.844  -0.647 -0.9394  0.5358  0.7096
  343MOL0     C46220   6.740   2.886  -0.610 -0.5462  0.5114 -0.5608
  343MOL0     N46221   7.529   2.645  -0.691  0.2152  0.0153  0.6130
  343MOL0     N46222   7.628   2.586  -0.653  0.4750  0.7807  0.2693
  343MOL0     C46223   8.914   2.565  -0.274 -0.6567 -0.2941 -0.0857
  343MOL0     C46224   9.035   2.582  -0.203 -0.1343 -0.6839 -0.7433
  343MOL0     C46225   9.285   2.567   0.174  0.3686  0.7149  0.1770
  343MOL0     C46226   9.355   2.685   0.204  0.1109 -0.7067 -0.5232
  343MOL0     C46227   9.479   2.676   0.272  1.2861 -0.7101  0.2570
  343MOL0     C46228   9.540   2.557   0.307  1.0090  0.1113  0.0609
  343MOL0     O46229   9.664   2.550   0.366 -0.0815  0.1895  0.3228
  343MOL0     C46230   9.687   2.629   0.480  0.5514 -0.4200 -0.6227
  343MOL0     C46231   9.794   2.736   0.434 -0.6458 -0.2440 -0.6859
  343MOL0     C46232   9.935   2.683   0.378  0.2029 -0.0654 -0.2316
  343MOL0     C46233  10.000   2.570   0.454 -0.6028  0.4146  0.1702
  343MOL0     C46234  10.135   2.555   0.386  0.4375  1.5404 -0.5656
  343MOL0     C46235  10.242   2.537   0.328  0.0334 -0.2318  0.8569
  343MOL0     C46236   9.460   2.440   0.288 -0.6628 -0.4050  0.2416
  343MOL0     C46237   9.337   2.449   0.223  0.1809 -0.4155  0.0170
  343MOL0     H46238   8.915   2.771   0.052  0.0874  0.6984 -0.8184
  343MOL0     H46239   8.697   2.729  -0.062 -0.6899 -0.6746 -0.7282
  343MOL0     H46240   8.586   2.781  -0.208  0.2896  0.1665 -0.5880
  343MOL0     H46241   8.534   2.747  -0.371 -1.7923 -0.1737  0.7010
  343MOL0     H46242   8.479   2.513  -0.221 -0.3812 -0.1832 -1.4465
  343MOL0     H46243   8.430   2.642  -0.118 -0.7545  0.3757 -0.5031
  343MOL0     H46244   8.284   2.747  -0.320  2.0474  0.9994  1.3441
  343MOL0     H46245   8.325   2.598  -0.401 -2.5291 -2.6476 -0.0514
  343MOL0     H46246   8.204   2.457  -0.254  0.8223 -0.0238 -1.4823
  343MOL0     H46247   8.177   2.573  -0.136  0.1684 -2.6994 -0.7242
  343MOL0     H46248   7.982   2.558  -0.247 -0.6257 -0.7610 -1.2367
  343MOL0     H46249   8.042   2.709  -0.312 -1.3262 -1.0410 -1.0743
  343MOL0     H46250   8.123   2.554  -0.513 -1.2117  2.0275 -2.0391
  343MOL0     H46251   7.996   2.441  -0.453 -2.3669  0.9035 -0.3150
  343MOL0     H46252   7.958   2.731  -0.521  0.1503  1.7086  0.2217
  343MOL0     H46253   7.914   2.602  -0.635  0.6903  0.1608  0.3989
  343MOL0     H46254   7.791   2.683  -0.370  2.2781 -1.7921  0.6499
  343MOL0     H46255   7.766   2.519  -0.422  0.8277  0.2443  0.5934
  343MOL0     H46256   7.620   2.855  -0.461 -1.1192 -1.7158  2.5780
  343MOL0     H46257   7.417   2.954  -0.543  1.6340  1.6573 -0.0812
  343MOL0     H46258   7.450   2.969  -0.716  1.6564 -0.4692  1.0416
  343MOL0     H46259   7.244   2.777  -0.602 -3.6726 -2.9657 -3.4375
  343MOL0     H46260   7.300   2.795  -0.773 -0.3871 -0.1871 -0.7732
  343MOL0     H46261   7.197   3.005  -0.786 -0.3077 -2.9545 -3.0388
  343MOL0     H46262   7.147   2.995  -0.605  1.1801  0.0945 -0.9646
  343MOL0     H46263   7.043   2.791  -0.795  1.5303  1.1428 -2.2266
  343MOL0     H46264   6.971   2.947  -0.799  1.6466  1.6228 -0.4000
  343MOL0     H46265   6.901   2.598  -0.673  0.8096  1.0457 -1.7242
  343MOL0     H46266   6.741   2.492  -0.834  0.5970 -2.6700 -1.3582
  343MOL0     H46267   6.740   2.408  -0.673  0.6898  1.1462 -0.3784
  343MOL0     H46268   6.587   2.455  -0.762 -0.5240  1.8619 -3.0585
  343MOL0     H46269   6.296   2.643  -0.945 -1.1052  0.3357 -3.8190
  343MOL0     H46270   6.082   2.633  -1.058 -0.9466  1.1909 -0.8625
  343MOL0     H46271   5.773   2.656  -1.127  1.7589 -0.0348  0.0875
  343MOL0     H46272   5.851   2.585  -0.989  2.4161  2.0541 -0.8665
  343MOL0     H46273   5.611   2.580  -0.953  0.0936 -0.4895 -1.5529
  343MOL0     H46274   5.691   2.712  -0.856  0.7538 -2.7676  0.5304
  343MOL0     H46275   5.524   2.747  -1.118  0.9262 -1.2194  0.1035
  343MOL0     H46276   5.613   2.869  -1.031  0.2249 -0.7253 -0.1534
  343MOL0     H46277   5.408   2.721  -0.872 -1.2686 -1.1864 -1.2384
  343MOL0     H46278   5.472   2.883  -0.853 -0.7132  0.0369  0.0183
  343MOL0     H46279   5.284   2.819  -1.082  0.3575  0.6387 -1.0681
  343MOL0     H46280   5.365   2.970  -1.053 -0.1576  0.0313 -1.3670
  343MOL0     H46281   5.191   2.865  -0.835 -4.6695  2.9010  1.4792
  343MOL0     H46282   5.275   3.024  -0.847  0.8357 -0.4153 -0.3254
  343MOL0     H46283   5.031   3.021  -0.894  0.1145  2.1566 -2.0053
  343MOL0     H46284   5.055   2.926  -1.037 -0.4038 -1.4441  0.7140
  343MOL0     H46285   5.143   3.133  -1.137  1.0682 -0.3773  0.6884
  343MOL0     H46286   5.213   3.189  -0.997  0.0289  0.7579  0.1122
  343MOL0     H46287   5.937   2.953  -0.800  1.2759  0.4994 -0.0450
  343MOL0     H46288   6.146   2.926  -0.663 -0.6029 -0.5359  0.9543
  343MOL0     H46289   6.534   2.917  -0.657 -1.5112  0.2777  2.8331
  343MOL0     H46290   6.760   2.991  -0.592  1.7522  0.0160  0.1683
  343MOL0     H46291   8.907   2.509  -0.366  0.9402 -0.6771  0.0041
  343MOL0     H46292   9.134   2.564  -0.246  0.3338 -0.9874  0.4102
  343MOL0     H46293   9.298   2.776   0.186 -0.2922 -0.3958  2.0135
  343MOL0     H46294   9.531   2.770   0.288  0.0789 -0.0706  0.5189
  343MOL0     H46295   9.602   2.683   0.521  1.6303  0.3165  0.7057
  343MOL0     H46296   9.722   2.557   0.554  3.5754  2.0500  0.5549
  343MOL0     H46297   9.813   2.786   0.529  1.1678  1.0879 -1.6950
  343MOL0     H46298   9.751   2.809   0.365  0.1983  2.9174  1.9252
  343MOL0     H46299  10.005   2.766   0.370 -0.4233  0.3077 -4.1260
  343MOL0     H46300   9.917   2.644   0.277  3.1890  1.2496 -1.4066
  343MOL0     H46301   9.954   2.471   0.448  1.8238 -0.7612 -0.3258
  343MOL0     H46302  10.031   2.604   0.553  1.8674  4.7536 -1.8085
  343MOL0     H46303  10.333   2.547   0.273 -1.0485  4.2482 -0.5645
  343MOL0     H46304   9.500   2.344   0.318  1.2731 -0.0939 -1.1733
  343MOL0     H46305   9.300   2.350   0.197 -1.8030  0.5791 -1.1940
  344MOL0     O46306   0.309  10.758   5.950  0.0709 -0.2561 -0.3643
  344MOL0     C46307   0.282  10.656   5.886  0.9609  0.4120  0.3634
  344MOL0     O46308   0.375  10.543   5.864  0.4692 -0.4387 -0.6969
  344MOL0     C46309   0.499  10.548   5.921 -0.1874 -0.6813 -0.2206
  344MOL0     C46310   0.611  10.514   5.836 -0.2425  0.1558  0.1162
  344MOL0     C46311   0.744  10.508   5.889  0.0940 -0.9367  1.0712
  344MOL0     C46312   0.765  10.534   6.020  0.7215 -0.1702  0.0329
  344MOL0     O46313   0.896  10.531   6.073 -0.0823  0.3514  0.3210
  344MOL0     C46314   1.008  10.474   5.995 -0.2097 -0.1985  0.1432
  344MOL0     C46315   1.131  10.449   6.084  0.1513  0.3905  0.3401
  344MOL0     C46316   1.214  10.567   6.097  1.1635 -0.1716 -0.3045
  344MOL0     C46317   1.346  10.529   6.164 -0.2853  0.2701 -0.1525
  344MOL0     C46318   1.463  10.631   6.165  0.0443 -0.3863 -0.3577
  344MOL0     C46319   1.426  10.766   6.231  0.0735 -0.1690  0.1640
  344MOL0     C46320   1.560  10.838   6.255 -0.1277  0.7278  0.2019
  344MOL0     C46321   1.521  10.982   6.293  0.2745  0.1524  0.8733
  344MOL0     N46322   1.646  11.063   6.293 -0.7125 -0.6527 -0.5761
  344MOL0     C46323   1.778  11.020   6.276  0.5120 -0.9864 -0.1401
  344MOL0     C46324   1.849  11.130   6.287 -0.1907 -0.0885 -0.7746
  344MOL0     C46325   1.995  11.115   6.321  0.4473 -0.1623  0.2487
  344MOL0     C46326   2.008  11.084   6.472  0.2276  0.3683  0.9640
  344MOL0     C46327   2.148  11.071   6.518 -1.3017 -0.4003 -0.0709
  344MOL0     C46328   2.165  11.003   6.661  0.3786 -0.2412  0.2598
  344MOL0     O46329   2.060  11.043   6.757  0.0770 -0.4132 -0.3961
  344MOL0     C46330   2.039  10.971   6.861  0.2451 -0.5483 -0.2001
  344MOL0     C46331   2.114  10.858   6.895  0.1440  0.1721  0.0818
  344MOL0     C46332   2.091  10.798   7.020 -0.0492  0.8939 -0.6016
  344MOL0     C46333   2.179  10.691   7.057 -0.3713 -0.3750 -0.1242
  344MOL0     C46334   1.994  10.847   7.105  0.3009 -0.5108 -0.5940
  344MOL0     C46335   1.955  10.788   7.234  0.0899  0.4155 -0.0499
  344MOL0     O46336   1.977  10.651   7.245 -0.5925  0.3556 -0.3917
  344MOL0     C46337   1.919  10.583   7.344 -0.4527  0.7403  0.3378
  344MOL0     C46338   2.004  10.503   7.420 -0.2165  0.5524 -0.4078
  344MOL0     C46339   1.957  10.411   7.518 -0.7072  0.1366 -0.0866
  344MOL0     C46340   1.818  10.402   7.533 -0.1278  0.0064 -0.1392
  344MOL0     O46341   1.756  10.310   7.620 -0.0247  0.5388  0.0417
  344MOL0     C46342   1.832  10.207   7.690 -0.4714  0.0420 -0.8445
  344MOL0     C46343   1.870  10.082   7.604 -0.0499 -0.3802 -0.0858
  344MOL0     C46344   1.992  10.006   7.667  0.1691  0.3025  0.1532
  344MOL0     C46345   2.019   9.878   7.579  0.9201 -0.4281  1.6841
  344MOL0     C46346   2.117   9.783   7.656  0.1932  0.0017  0.0546
  344MOL0     C46347   2.254   9.843   7.687 -0.7261 -0.2071 -0.0153
  344MOL0     C46348   2.341   9.906   7.579  0.2983  0.4920 -0.0802
  344MOL0     C46349   2.372   9.821   7.457 -0.0419  0.4245  0.0810
  344MOL0    Cl46350   2.506   9.708   7.486 -0.1828 -0.1748  0.3726
  344MOL0     C46351   1.731  10.481   7.455 -0.6223 -0.1401  0.2857
  344MOL0     C46352   1.784  10.580   7.370  0.2772  0.7748  0.5580
  344MOL0     O46353   1.888  10.854   7.315  0.5012 -0.0741  0.6027
  344MOL0     C46354   1.914  10.959   7.067  0.4885 -1.0894  0.8763
  344MOL0     C46355   1.942  11.030   6.944  0.0775  1.1458  0.0676
  344MOL0     N46356   1.760  11.244   6.311 -0.1072  0.3677 -0.3780
  344MOL0     N46357   1.645  11.200   6.306  0.9354  0.3481 -0.3609
  344MOL0     C46358   0.661  10.577   6.114 -0.3760 -0.4968  0.4570
  344MOL0     C46359   0.528  10.586   6.060 -0.6850 -0.3055  0.5005
  344MOL0     C46360   0.156  10.645   5.820  0.6066  0.2374  0.1230
  344MOL0     C46361   0.047  10.726   5.862  0.4092  0.6793  0.6664
  344MOL0     C46362  -0.071  10.733   5.798 -0.4099  0.0607  0.1918
  344MOL0     C46363  -0.082  10.658   5.675  0.2229  0.6710  0.0274
  344MOL0     O46364  -0.201  10.660   5.606  0.3947 -0.2602 -0.1113
  344MOL0     C46365  -0.319  10.624   5.682  0.2755  0.2414 -0.5177
  344MOL0     C46366  -0.311  10.489   5.753 -0.0261  1.1107  0.0595
  344MOL0     C46367  -0.450  10.429   5.760  0.3076 -1.0519  0.6443
  344MOL0     C46368  -0.546  10.492   5.869  0.0164 -0.0257 -0.2036
  344MOL0     C46369  -0.644  10.582   5.805 -0.7901  0.7366 -0.0242
  344MOL0     C46370  -0.696  10.663   5.735  0.3140  0.3222  0.3192
  344MOL0     C46371   0.025  10.585   5.625 -0.1974 -0.3178  0.0069
  344MOL0     C46372   0.139  10.572   5.705  0.1287 -0.6667  0.0572
  344MOL0     H46373   0.596  10.486   5.732 -1.6995  0.7616  0.1363
  344MOL0     H46374   0.818  10.486   5.813 -0.6609  0.0442  0.0231
  344MOL0     H46375   0.982  10.372   5.965 -1.3099 -0.5026  1.9517
  344MOL0     H46376   1.030  10.525   5.901  0.3009 -1.8389 -0.6729
  344MOL0     H46377   1.090  10.409   6.177  1.3863  0.1518  0.7965
  344MOL0     H46378   1.193  10.367   6.046 -2.6500 -1.3430 -0.8478
  344MOL0     H46379   1.239  10.620   6.004  1.2830  1.0274  0.3885
  344MOL0     H46380   1.152  10.638   6.152  1.6691  1.1267 -1.3700
  344MOL0     H46381   1.314  10.518   6.269  1.4516  0.5483  0.4376
  344MOL0     H46382   1.378  10.436   6.117 -5.2802 -0.5268 -2.5923
  344MOL0     H46383   1.544  10.575   6.213 -1.1344 -2.6961 -0.8906
  344MOL0     H46384   1.507  10.649   6.067 -0.5015 -1.2582 -0.7763
  344MOL0     H46385   1.364  10.811   6.154  0.9710 -1.3351 -1.3050
  344MOL0     H46386   1.368  10.761   6.324 -3.2358 -0.8979 -1.8051
  344MOL0     H46387   1.621  10.795   6.334 -0.7779 -0.4474  0.0941
  344MOL0     H46388   1.611  10.835   6.158  1.0824 -1.9036  0.8377
  344MOL0     H46389   1.468  10.994   6.389 -1.2109  1.1118 -0.0287
  344MOL0     H46390   1.451  11.019   6.218  0.8444 -3.4011 -1.6363
  344MOL0     H46391   1.818  10.919   6.273  4.1774  0.2671  0.7369
  344MOL0     H46392   2.043  11.038   6.259 -0.3962 -1.1316  0.7658
  344MOL0     H46393   2.051  11.205   6.292  2.0676 -1.1652  0.1063
  344MOL0     H46394   1.961  10.989   6.496 -1.1186  0.0630 -2.2837
  344MOL0     H46395   1.953  11.158   6.531  1.1027  1.2049  0.7640
  344MOL0     H46396   2.192  11.171   6.532  0.9768 -1.4261  0.7127
  344MOL0     H46397   2.214  11.019   6.449 -0.6277  1.9731 -1.3103
  344MOL0     H46398   2.261  11.018   6.710  0.7414 -1.0125 -0.1776
  344MOL0     H46399   2.161  10.897   6.632 -1.9969  0.0748 -0.7924
  344MOL0     H46400   2.193  10.814   6.834 -1.0195 -1.7813 -0.0979
  344MOL0     H46401   2.265  10.688   6.989 -1.7304  0.0383 -1.9422
  344MOL0     H46402   2.231  10.694   7.153  1.7781  2.3083 -1.2369
  344MOL0     H46403   2.118  10.602   7.044 -2.3045  0.9305 -0.4009
  344MOL0     H46404   2.111  10.510   7.402  0.3575 -1.8780  1.4721
  344MOL0     H46405   2.030  10.345   7.564 -1.5801 -0.3540  0.6214
  344MOL0     H46406   1.926  10.254   7.720  0.6255 -1.1359 -2.2812
  344MOL0     H46407   1.787  10.167   7.782  1.9175 -0.6403  0.1036
  344MOL0     H46408   1.788  10.010   7.616  0.1942 -1.1525 -2.5870
  344MOL0     H46409   1.878  10.104   7.497 -0.5248 -1.1376 -0.2846
  344MOL0     H46410   1.971   9.977   7.770 -0.9174  2.8575  0.7377
  344MOL0     H46411   2.080  10.070   7.677  0.1116  0.3242  0.5260
  344MOL0     H46412   1.924   9.825   7.565  1.3823 -0.5654 -2.0586
  344MOL0     H46413   2.061   9.907   7.482  0.8242  1.3443  2.1503
  344MOL0     H46414   2.152   9.701   7.592  1.2701  0.8227 -0.4498
  344MOL0     H46415   2.064   9.753   7.746  0.0234 -0.1897 -0.1097
  344MOL0     H46416   2.241   9.928   7.754  0.7664  1.3864 -1.6412
  344MOL0     H46417   2.314   9.761   7.725 -3.1033 -1.1695  1.9083
  344MOL0     H46418   2.434   9.946   7.621 -0.2754  3.2932 -1.2740
  344MOL0     H46419   2.281   9.990   7.543 -3.2160 -0.9931  1.7982
  344MOL0     H46420   2.402   9.897   7.384 -1.3843  0.2897 -0.6270
  344MOL0     H46421   2.299   9.751   7.415  1.9926 -0.5838 -2.0073
  344MOL0     H46422   1.626  10.478   7.482 -0.5553 -0.7292  0.4977
  344MOL0     H46423   1.715  10.645   7.318 -1.2441 -0.3675  1.0629
  344MOL0     H46424   1.830  11.001   7.121  0.5520 -1.1531  1.0236
  344MOL0     H46425   1.894  11.125   6.924  0.5306  1.2758 -0.4314
  344MOL0     H46426   0.684  10.618   6.211  0.3549  2.5852 -0.8793
  344MOL0     H46427   0.451  10.638   6.115 -2.8567 -3.4500  0.7112
  344MOL0     H46428   0.060  10.790   5.949  1.3397  1.1757  0.1845
  344MOL0     H46429  -0.139  10.804   5.841  0.2278 -0.3399  1.9437
  344MOL0     H46430  -0.329  10.699   5.761 -0.7376 -0.8409  0.4083
  344MOL0     H46431  -0.396  10.624   5.605 -0.3981  1.4045  0.1301
  344MOL0     H46432  -0.263  10.504   5.850 -1.3564  0.9518  0.7733
  344MOL0     H46433  -0.248  10.419   5.698 -0.9083  0.4811 -0.1812
  344MOL0     H46434  -0.441  10.322   5.780 -1.6618 -1.7401 -1.6906
  344MOL0     H46435  -0.501  10.428   5.664  1.9275  0.8946 -0.3207
  344MOL0     H46436  -0.477  10.534   5.942  1.2398  1.1497 -1.9893
  344MOL0     H46437  -0.596  10.406   5.917  0.0899 -0.7219 -1.3406
  344MOL0     H46438  -0.739  10.742   5.676 -1.4525  0.3609  1.5679
  344MOL0     H46439   0.020  10.542   5.525  0.1367  0.6204 -0.4249
  344MOL0     H46440   0.233  10.532   5.669  2.1617  1.5077  2.5102
  345MOL0     O46441   7.733   4.551  11.286 -0.8990 -0.2588 -0.2602
  345MOL0     C46442   7.625   4.485  11.302 -0.6510  0.0176  0.0852
  345MOL0     O46443   7.550   4.476  11.417  0.0259  0.8439 -0.2102
  345MOL0     C46444   7.545   4.581  11.513 -0.3094  0.8948  0.1152
  345MOL0     C46445   7.594   4.712  11.494  0.4655  0.5175 -0.0572
  345MOL0     C46446   7.583   4.807  11.602  0.0596 -0.8037  0.5960
  345MOL0     C46447   7.521   4.778  11.723  0.4353  0.9891  0.0745
  345MOL0     O46448   7.523   4.863  11.832 -0.0012 -0.4154  1.3445
  345MOL0     C46449   7.406   4.875  11.913 -0.5238 -0.1053 -0.3136
  345MOL0     C46450   7.421   5.004  11.999 -0.0169  0.4273 -0.1978
  345MOL0     C46451   7.304   5.040  12.097  0.7903  0.0693 -0.6919
  345MOL0     C46452   7.160   5.067  12.053 -0.2564  0.1983  0.6622
  345MOL0     C46453   7.065   5.098  12.170 -0.4819  0.6329  0.8283
  345MOL0     C46454   6.925   5.099  12.100  0.1065 -0.4535 -0.9459
  345MOL0     C46455   6.806   5.132  12.201 -0.4683  0.7775  0.1027
  345MOL0     C46456   6.680   5.056  12.140 -0.3145  0.3584 -0.1904
  345MOL0     N46457   6.563   5.072  12.226  0.2899  0.4623  0.1415
  345MOL0     C46458   6.440   5.003  12.202 -0.1472  0.3540  0.3607
  345MOL0     C46459   6.364   5.049  12.306 -0.1417 -0.0126 -0.5424
  345MOL0     C46460   6.223   5.006  12.334 -0.3861  0.1149  0.1111
  345MOL0     C46461   6.157   5.117  12.414 -0.4741 -0.7685  0.7054
  345MOL0     C46462   6.008   5.079  12.415 -0.1884 -0.1281 -0.8362
  345MOL0     C46463   5.974   4.953  12.507 -0.4600  0.4535  0.5762
  345MOL0     O46464   5.834   4.921  12.485 -0.4432  0.0301  0.8885
  345MOL0     C46465   5.757   4.957  12.589  0.7204  0.1709 -0.7490
  345MOL0     C46466   5.709   4.855  12.684 -0.0655 -0.1797  0.1866
  345MOL0     C46467   5.604   4.882  12.768 -0.4364  0.2303  0.2437
  345MOL0     C46468   5.557   4.769  12.857 -0.0418  0.1704 -0.0707
  345MOL0     C46469   5.553   5.008  12.786  0.2744  0.2132 -0.3842
  345MOL0     C46470   5.449   5.053  12.900 -0.2403 -0.2528 -0.0095
  345MOL0     O46471   5.434   5.190  12.922 -0.0659  0.1501  0.5711
  345MOL0     C46472   5.352   5.253  13.007  0.6944  0.5613  0.4030
  345MOL0     C46473   5.337   5.382  12.974  0.1561 -0.1940  0.8685
  345MOL0     C46474   5.273   5.475  13.063  0.5086  0.1996 -0.2517
  345MOL0     C46475   5.220   5.431  13.186 -0.4104  1.0253 -0.4211
  345MOL0     O46476   5.138   5.508  13.270 -0.0947 -0.0324 -0.3535
  345MOL0     C46477   5.116   5.645  13.245  0.5427  0.3420 -0.2302
  345MOL0     C46478   5.041   5.702  13.367 -0.0438  1.2850  0.2112
  345MOL0     C46479   5.004   5.851  13.350  0.3959  0.6352 -0.4406
  345MOL0     C46480   4.934   5.910  13.472  0.2136  0.5536 -0.0267
  345MOL0     C46481   4.933   6.064  13.486  1.3434 -0.3697  0.3487
  345MOL0     C46482   4.833   6.138  13.394  1.0213  0.6312 -0.3604
  345MOL0     C46483   4.845   6.288  13.414 -0.7295  0.3397 -0.1841
  345MOL0     C46484   4.735   6.354  13.325  0.8053 -0.5244  0.2092
  345MOL0    Cl46485   4.765   6.350  13.156  0.4201  0.1537 -0.0603
  345MOL0     C46486   5.221   5.288  13.206  0.1650  0.8990 -0.7348
  345MOL0     C46487   5.289   5.197  13.121  0.6446 -0.1046  0.0322
  345MOL0     O46488   5.376   4.969  12.950  0.2279  0.2285 -0.4412
  345MOL0     C46489   5.615   5.108  12.703 -0.0911 -0.2798 -0.1477
  345MOL0     C46490   5.703   5.083  12.597  0.6959 -0.1349  0.5386
  345MOL0     N46491   6.438   5.140  12.384 -0.2793  0.0830 -0.3970
  345MOL0     N46492   6.550   5.150  12.333 -0.2054  0.3516 -0.4237
  345MOL0     C46493   7.479   4.645  11.737  0.1035  0.1148  0.5872
  345MOL0     C46494   7.482   4.551  11.634 -0.1933  0.0664  0.4041
  345MOL0     C46495   7.583   4.405  11.178  0.4874  0.0587 -0.6162
  345MOL0     C46496   7.645   4.418  11.052  1.3238 -0.4578  0.8723
  345MOL0     C46497   7.584   4.362  10.937  0.5619  0.0457 -0.6115
  345MOL0     C46498   7.470   4.287  10.947  0.8426 -0.3116  0.0376
  345MOL0     O46499   7.408   4.228  10.845 -0.0950  0.4087  0.5730
  345MOL0     C46500   7.451   4.262  10.712  0.6393  0.4190 -0.2577
  345MOL0     C46501   7.373   4.181  10.615  0.5021 -0.0737  0.5758
  345MOL0     C46502   7.440   4.161  10.475 -0.0816 -0.0053  0.4374
  345MOL0     C46503   7.324   4.143  10.372  0.2764 -0.3557 -0.1615
  345MOL0     C46504   7.381   4.132  10.241 -0.3503  0.6013 -0.0484
  345MOL0     C46505   7.437   4.147  10.136  0.0259 -0.6091  0.2266
  345MOL0     C46506   7.409   4.271  11.072 -0.5900  0.2304 -0.0213
  345MOL0     C46507   7.466   4.327  11.183 -0.0693 -0.2195 -0.6566
  345MOL0     H46508   7.631   4.738  11.395 -1.0708  3.2163 -0.0288
  345MOL0     H46509   7.627   4.906  11.595  0.0625 -0.7974  0.7019
  345MOL0     H46510   7.320   4.892  11.848 -0.3995 -2.1045 -1.0825
  345MOL0     H46511   7.389   4.786  11.975 -2.8106  0.1813 -0.4449
  345MOL0     H46512   7.520   4.993  12.045 -0.4985 -3.2797  0.3111
  345MOL0     H46513   7.424   5.087  11.928 -0.2348  1.2306  0.7220
  345MOL0     H46514   7.281   4.960  12.169  0.8479  1.8691  1.4475
  345MOL0     H46515   7.337   5.127  12.154 -0.1219 -2.1077  3.6452
  345MOL0     H46516   7.160   5.155  11.988  0.4244 -0.9714 -1.0179
  345MOL0     H46517   7.131   4.974  12.002 -2.4072  0.2389  1.6779
  345MOL0     H46518   7.061   5.013  12.238 -0.4781 -0.1789 -0.1651
  345MOL0     H46519   7.089   5.193  12.219  0.2400  2.2731 -2.4209
  345MOL0     H46520   6.905   5.175  12.023 -2.7605  2.6372  2.5099
  345MOL0     H46521   6.907   4.999  12.060  1.5910 -0.8871 -0.6046
  345MOL0     H46522   6.822   5.084  12.298 -0.8666 -1.1002 -0.7195
  345MOL0     H46523   6.795   5.241  12.205 -1.5140  0.6949 -0.2773
  345MOL0     H46524   6.707   4.950  12.137  0.3242  0.5463 -1.2978
  345MOL0     H46525   6.665   5.087  12.037  1.6737 -0.3186 -0.7300
  345MOL0     H46526   6.406   4.934  12.125 -0.5498  0.8644  0.0708
  345MOL0     H46527   6.173   4.971  12.243 -0.6960 -0.8297  0.6355
  345MOL0     H46528   6.220   4.915  12.394 -0.2100 -0.7205 -1.1111
  345MOL0     H46529   6.172   5.213  12.364 -1.2362 -0.6530  0.6870
  345MOL0     H46530   6.205   5.122  12.511 -2.2853 -0.0537  1.6195
  345MOL0     H46531   5.972   5.069  12.312  2.2039 -1.8612 -1.5823
  345MOL0     H46532   5.948   5.158  12.461  3.3438  0.4794  3.4064
  345MOL0     H46533   6.006   4.970  12.610  0.6458 -1.7362  0.6609
  345MOL0     H46534   6.031   4.864  12.479  0.7725  0.2987  3.2083
  345MOL0     H46535   5.760   4.760  12.691 -2.2168 -1.4317 -0.3806
  345MOL0     H46536   5.448   4.761  12.866  0.1395 -3.8347  0.4075
  345MOL0     H46537   5.578   4.673  12.809 -1.6899 -0.8244  1.0852
  345MOL0     H46538   5.609   4.769  12.953  1.0676 -0.7190 -0.6543
  345MOL0     H46539   5.388   5.435  12.895 -1.9128  2.9998  1.4964
  345MOL0     H46540   5.274   5.578  13.029  1.6140  0.8432  1.5638
  345MOL0     H46541   5.205   5.707  13.233  0.6397  0.5558  1.3544
  345MOL0     H46542   5.049   5.645  13.159  0.2142 -0.4931  0.0157
  345MOL0     H46543   4.953   5.639  13.378  1.3655 -0.5488  1.5991
  345MOL0     H46544   5.105   5.686  13.455  1.9451  0.1070 -1.3732
  345MOL0     H46545   4.937   5.853  13.263 -2.6859 -1.9432  1.6344
  345MOL0     H46546   5.094   5.909  13.330  1.0560 -0.4566 -0.7391
  345MOL0     H46547   4.831   5.874  13.480  0.2752  0.8190  3.0753
  345MOL0     H46548   4.992   5.882  13.560 -0.5087 -2.7854 -0.4970
  345MOL0     H46549   5.033   6.105  13.471  1.4280 -0.3655  0.9128
  345MOL0     H46550   4.906   6.076  13.591 -0.4848  3.9322 -0.4001
  345MOL0     H46551   4.863   6.103  13.295  0.9812  0.7922 -0.4309
  345MOL0     H46552   4.735   6.106  13.430  0.3777  0.9971 -1.6910
  345MOL0     H46553   4.948   6.323  13.404 -0.2679 -0.9603 -0.0925
  345MOL0     H46554   4.824   6.310  13.519 -0.6922 -2.0811  0.3801
  345MOL0     H46555   4.731   6.459  13.356  2.8087 -0.2068 -0.4102
  345MOL0     H46556   4.641   6.300  13.338  1.4014 -1.4100  0.8985
  345MOL0     H46557   5.159   5.247  13.285  0.5466 -2.8566 -2.1963
  345MOL0     H46558   5.298   5.090  13.137  1.1689 -0.0089  0.4198
  345MOL0     H46559   5.600   5.213  12.726  2.3140 -0.3263  1.9888
  345MOL0     H46560   5.744   5.163  12.536 -1.9733  1.2400  0.4336
  345MOL0     H46561   7.444   4.604  11.831 -0.9671  1.0924  0.6431
  345MOL0     H46562   7.435   4.453  11.642 -3.2241  1.2106 -1.5165
  345MOL0     H46563   7.742   4.468  11.055  2.5540 -2.6351 -0.3221
  345MOL0     H46564   7.633   4.369  10.840  0.3372  0.9685 -0.6716
  345MOL0     H46565   7.438   4.368  10.690  0.1058  0.0842 -1.6811
  345MOL0     H46566   7.556   4.230  10.699  0.2960 -0.2529 -1.6569
  345MOL0     H46567   7.271   4.219  10.607 -0.7327 -3.3031 -0.4934
  345MOL0     H46568   7.366   4.076  10.647  1.0562 -0.8284 -1.6552
  345MOL0     H46569   7.509   4.076  10.481  1.5864  1.3586  1.1245
  345MOL0     H46570   7.500   4.250  10.454 -0.4113  0.1920  0.3185
  345MOL0     H46571   7.261   4.232  10.372  0.2639 -0.3044  1.9266
  345MOL0     H46572   7.256   4.061  10.398 -0.4849  0.0070 -0.9930
  345MOL0     H46573   7.505   4.172  10.057 -0.2222  0.5421  0.3583
  345MOL0     H46574   7.315   4.218  11.077  0.1450 -1.2434 -1.0873
  345MOL0     H46575   7.418   4.319  11.280  1.2288  2.3519  0.2982
  346MOL0     O46576   8.294   6.452   7.089  0.5573 -0.1429  0.0255
  346MOL0     C46577   8.308   6.535   7.178  0.0871  0.0751 -0.0276
  346MOL0     O46578   8.204   6.602   7.237 -1.0440  0.1934  0.7705
  346MOL0     C46579   8.079   6.587   7.177 -0.1108  0.0781  0.0016
  346MOL0     C46580   7.990   6.487   7.207  0.1251 -0.0242  0.4830
  346MOL0     C46581   7.863   6.484   7.142  0.3026 -0.3993 -0.0003
  346MOL0     C46582   7.824   6.590   7.050 -0.4395  0.5340 -0.0836
  346MOL0     O46583   7.698   6.595   6.992  0.0340 -0.1621  0.0377
  346MOL0     C46584   7.582   6.580   7.082  0.4082 -0.5931 -0.0935
  346MOL0     C46585   7.445   6.595   7.009  0.0423  0.3494  0.6841
  346MOL0     C46586   7.332   6.610   7.121 -0.6105 -0.3359  0.0072
  346MOL0     C46587   7.192   6.586   7.060  0.0929  0.5861  0.7779
  346MOL0     C46588   7.079   6.588   7.165 -0.7728  0.6328  0.6445
  346MOL0     C46589   6.951   6.558   7.089  0.2037  0.0555  0.2206
  346MOL0     C46590   6.827   6.549   7.184  0.6287  0.8032 -1.0322
  346MOL0     C46591   6.711   6.484   7.107  0.0355  0.1406  0.5243
  346MOL0     N46592   6.596   6.501   7.186  0.6712  0.1378 -0.5024
  346MOL0     C46593   6.491   6.583   7.148 -0.5165  0.3889  0.0880
  346MOL0     C46594   6.388   6.555   7.238 -0.5094 -0.4809 -0.3276
  346MOL0     C46595   6.257   6.626   7.238  1.1175 -0.4486  1.1643
  346MOL0     C46596   6.132   6.537   7.261 -0.2284  0.6639  0.6099
  346MOL0     C46597   5.998   6.594   7.205 -0.4433  0.1834 -0.4036
  346MOL0     C46598   5.901   6.478   7.181 -0.1032 -0.2449  0.3232
  346MOL0     O46599   5.772   6.509   7.137 -0.1092  0.3516  0.6720
  346MOL0     C46600   5.676   6.410   7.126  0.1746  0.2044 -0.4717
  346MOL0     C46601   5.555   6.439   7.064 -0.1842  0.5277 -0.1226
  346MOL0     C46602   5.456   6.345   7.040 -0.0642 -0.2377 -0.9925
  346MOL0     C46603   5.315   6.384   7.004 -0.7229  0.0824 -0.2399
  346MOL0     C46604   5.497   6.207   7.067 -0.9987 -0.1148  0.1904
  346MOL0     C46605   5.410   6.085   7.040 -0.4482 -0.0375  0.6330
  346MOL0     O46606   5.274   6.092   7.049 -0.0488 -0.9229  0.4178
  346MOL0     C46607   5.199   5.993   6.996  0.7323  0.2634  0.0645
  346MOL0     C46608   5.133   5.998   6.879  0.2302 -0.6817  0.2422
  346MOL0     C46609   5.057   5.901   6.819  0.5675 -0.4259 -0.6085
  346MOL0     C46610   5.041   5.785   6.892 -1.0077  0.1116  0.4269
  346MOL0     O46611   4.961   5.682   6.842 -0.6286  0.5726 -0.1601
  346MOL0     C46612   4.824   5.713   6.819 -0.0745  0.0944 -0.3751
  346MOL0     C46613   4.755   5.627   6.714  0.2763 -0.3576 -0.4697
  346MOL0     C46614   4.622   5.691   6.665 -0.3571 -0.5217 -0.3018
  346MOL0     C46615   4.513   5.677   6.768 -0.1951  0.3619 -0.4052
  346MOL0     C46616   4.377   5.741   6.717 -1.0673  1.0143 -1.2037
  346MOL0     C46617   4.260   5.738   6.822  0.0467 -0.0846  0.1333
  346MOL0     C46618   4.154   5.629   6.791 -0.8080  0.4596 -0.0203
  346MOL0     C46619   4.021   5.650   6.858  0.1840  0.1757  0.3646
  346MOL0    Cl46620   4.051   5.662   7.032  0.0638 -0.3839  0.1362
  346MOL0     C46621   5.081   5.775   7.024  0.1496  0.5089 -0.1570
  346MOL0     C46622   5.174   5.874   7.072  0.3172  0.1035  0.2822
  346MOL0     O46623   5.478   5.993   6.996  0.8722 -0.5376  0.2049
  346MOL0     C46624   5.623   6.173   7.120  0.4753 -0.6117 -0.5878
  346MOL0     C46625   5.703   6.275   7.163 -0.9232 -0.3592 -0.3938
  346MOL0     N46626   6.438   6.468   7.338  0.4782  0.0607 -0.2145
  346MOL0     N46627   6.561   6.436   7.298 -0.6233 -0.7779 -0.4010
  346MOL0     C46628   7.926   6.675   7.002 -0.3914  0.3279 -0.0556
  346MOL0     C46629   8.055   6.671   7.069  0.8003 -0.2140  0.6290
  346MOL0     C46630   8.440   6.567   7.225 -0.9721 -1.1364 -0.7505
  346MOL0     C46631   8.554   6.509   7.174  0.6077  0.0236 -0.3771
  346MOL0     C46632   8.679   6.540   7.226  0.4347 -0.6519  0.0206
  346MOL0     C46633   8.700   6.633   7.326  0.2620  0.4941  0.3176
  346MOL0     O46634   8.821   6.669   7.374 -0.1312 -0.0353  0.5062
  346MOL0     C46635   8.924   6.566   7.393  0.0845  0.0003 -0.7047
  346MOL0     C46636   9.053   6.619   7.449 -0.6613  0.5567  0.7065
  346MOL0     C46637   9.051   6.675   7.590 -0.5501  0.5740 -0.7220
  346MOL0     C46638   9.186   6.719   7.636  0.0004 -0.0032  0.3267
  346MOL0     C46639   9.252   6.614   7.730  0.1796  0.9462  0.5271
  346MOL0     C46640   9.309   6.525   7.788 -0.4162  0.9339 -0.4007
  346MOL0     C46641   8.582   6.702   7.366 -0.5707  0.4220 -0.2246
  346MOL0     C46642   8.456   6.668   7.325 -0.0968  1.2192  0.0161
  346MOL0     H46643   8.012   6.407   7.277  1.9777 -1.1545 -1.3023
  346MOL0     H46644   7.784   6.412   7.158 -0.1915 -0.9390 -3.8539
  346MOL0     H46645   7.573   6.490   7.144 -2.3594 -0.8214 -0.6977
  346MOL0     H46646   7.585   6.667   7.147  2.8868 -0.2446 -0.5834
  346MOL0     H46647   7.447   6.683   6.944  0.6337 -0.1110  0.0624
  346MOL0     H46648   7.438   6.510   6.940 -2.0176  0.7662  0.3044
  346MOL0     H46649   7.352   6.530   7.193 -0.4576 -0.7049 -0.4423
  346MOL0     H46650   7.341   6.706   7.174  3.5711 -1.0507  0.9548
  346MOL0     H46651   7.180   6.664   6.984  1.1855  1.7709  1.7790
  346MOL0     H46652   7.196   6.490   7.007  2.8149  1.3435 -0.5762
  346MOL0     H46653   7.093   6.507   7.237 -1.1226  1.5101  1.7315
  346MOL0     H46654   7.074   6.669   7.239 -1.5117 -1.2448  2.7894
  346MOL0     H46655   6.938   6.624   7.003 -0.8931 -2.7369 -1.9189
  346MOL0     H46656   6.958   6.461   7.038  0.2374  0.4029 -0.4377
  346MOL0     H46657   6.857   6.501   7.278 -2.9642  0.0133 -0.1375
  346MOL0     H46658   6.797   6.649   7.217  0.9429  0.2449  1.0719
  346MOL0     H46659   6.727   6.381   7.076  2.1379  0.3958  0.5812
  346MOL0     H46660   6.700   6.533   7.010 -1.5410  0.0465  0.6319
  346MOL0     H46661   6.498   6.655   7.067  1.9186  0.9627  0.7383
  346MOL0     H46662   6.257   6.708   7.311  1.0677  0.1861  0.4740
  346MOL0     H46663   6.251   6.664   7.136  0.8573 -2.6923  0.2887
  346MOL0     H46664   6.121   6.523   7.369  4.5902  2.9518  1.6903
  346MOL0     H46665   6.148   6.443   7.208 -0.0290  0.5447  0.8804
  346MOL0     H46666   6.010   6.647   7.109 -2.1383  0.3854 -0.5334
  346MOL0     H46667   5.961   6.674   7.271  0.5638  0.0741  0.3088
  346MOL0     H46668   5.887   6.428   7.277 -1.0347 -2.0817 -0.7093
  346MOL0     H46669   5.947   6.410   7.109  0.6012 -0.5890  1.0758
  346MOL0     H46670   5.519   6.540   7.048 -1.3224 -0.2180 -2.8682
  346MOL0     H46671   5.316   6.483   6.958 -0.6037  0.9788  1.6050
  346MOL0     H46672   5.262   6.310   6.943 -2.2462  0.2469  0.8328
  346MOL0     H46673   5.267   6.399   7.102  0.1988 -0.7525  0.3612
  346MOL0     H46674   5.163   6.081   6.815  1.2527  1.1377  2.8706
  346MOL0     H46675   4.996   5.906   6.730 -0.4511 -1.9523 -0.0365
  346MOL0     H46676   4.760   5.697   6.906 -2.4327  0.9405 -1.8524
  346MOL0     H46677   4.809   5.819   6.801 -0.7759  0.6395  2.8835
  346MOL0     H46678   4.818   5.605   6.627 -0.5565  1.3587 -1.5520
  346MOL0     H46679   4.741   5.529   6.762 -1.9915  0.4224  0.5861
  346MOL0     H46680   4.606   5.632   6.574 -0.4867  0.4000 -0.8818
  346MOL0     H46681   4.645   5.796   6.646 -0.5311  0.0382  2.2783
  346MOL0     H46682   4.500   5.569   6.782  2.5934 -0.1301 -0.8962
  346MOL0     H46683   4.542   5.724   6.863 -1.5292 -1.3222  0.8892
  346MOL0     H46684   4.331   5.695   6.629  0.4934 -1.1613 -0.9885
  346MOL0     H46685   4.390   5.847   6.696 -1.2712  2.0411  2.9760
  346MOL0     H46686   4.291   5.722   6.925  0.7550  3.5151  0.5998
  346MOL0     H46687   4.204   5.831   6.808  0.2504 -0.0497 -0.4887
  346MOL0     H46688   4.200   5.539   6.832  1.2217  2.1021  1.5476
  346MOL0     H46689   4.133   5.616   6.685  1.0464 -0.0931 -0.3484
  346MOL0     H46690   3.944   5.578   6.830  1.3225  0.0394 -2.9055
  346MOL0     H46691   3.980   5.746   6.825 -1.9849 -0.8965 -0.2229
  346MOL0     H46692   5.056   5.689   7.086  0.3747  0.6374  0.1143
  346MOL0     H46693   5.230   5.873   7.164  1.4701  1.1988 -0.3627
  346MOL0     H46694   5.655   6.072   7.143 -0.4202 -1.0195 -1.0701
  346MOL0     H46695   5.799   6.243   7.202 -1.4962 -1.1669  0.4112
  346MOL0     H46696   7.898   6.749   6.928  0.3917 -3.4419 -4.5744
  346MOL0     H46697   8.140   6.727   7.031  0.2035  0.5700  0.4538
  346MOL0     H46698   8.544   6.445   7.087  1.2404 -1.9617  0.9155
  346MOL0     H46699   8.765   6.498   7.174  1.2714  1.5799 -0.5508
  346MOL0     H46700   8.890   6.495   7.468 -1.6721  3.1860  1.7779
  346MOL0     H46701   8.945   6.522   7.295  2.3294 -1.6766  0.4591
  346MOL0     H46702   9.072   6.702   7.380 -2.7132  0.5250  0.0362
  346MOL0     H46703   9.125   6.538   7.434 -1.6224 -0.1313 -0.2438
  346MOL0     H46704   9.009   6.614   7.670  3.6730  0.0259  1.2965
  346MOL0     H46705   8.987   6.764   7.578 -0.9833  0.7297  2.1642
  346MOL0     H46706   9.181   6.816   7.686  0.5903  1.7336 -2.7681
  346MOL0     H46707   9.252   6.741   7.552 -1.0048  1.3762 -0.1456
  346MOL0     H46708   9.363   6.436   7.816 -1.0548  1.0736  1.3853
  346MOL0     H46709   8.593   6.789   7.430 -3.3601 -0.5251  1.7567
  346MOL0     H46710   8.368   6.722   7.357 -1.5299 -1.0733  0.1655
  347MOL0     O46711   7.282   0.917  11.356 -0.1389 -0.0411 -0.2325
  347MOL0     C46712   7.212   0.835  11.294  0.3366  0.5203 -0.2458
  347MOL0     O46713   7.243   0.777  11.173 -0.2939  0.0015 -0.1807
  347MOL0     C46714   7.367   0.806  11.123  0.6195  0.0748 -1.4416
  347MOL0     C46715   7.471   0.761  11.204 -0.2798  0.1756  0.3245
  347MOL0     C46716   7.595   0.796  11.151  0.1523  0.2179  0.0138
  347MOL0     C46717   7.614   0.853  11.027 -0.0536 -0.7956  0.3019
  347MOL0     O46718   7.742   0.867  10.981 -0.1088  0.5034 -0.1464
  347MOL0     C46719   7.769   0.962  10.879 -0.4700  0.1453 -0.0835
  347MOL0     C46720   7.917   0.979  10.847 -1.0724  0.2642 -0.4378
  347MOL0     C46721   7.999   0.993  10.973  0.8609 -0.5133 -0.0651
  347MOL0     C46722   8.151   0.984  10.951  0.0995  0.0284 -0.0698
  347MOL0     C46723   8.217   0.849  10.911 -0.0798 -0.3829  0.2567
  347MOL0     C46724   8.158   0.723  10.972  0.0582  0.5209 -0.1459
  347MOL0     C46725   8.233   0.593  10.929  0.5561  0.1869 -0.1419
  347MOL0     C46726   8.149   0.467  10.950 -0.4359  0.1468  0.5183
  347MOL0     N46727   8.223   0.341  10.906 -0.3568 -0.6163  0.1194
  347MOL0     C46728   8.262   0.313  10.782 -0.0699  0.0218  0.0772
  347MOL0     C46729   8.314   0.183  10.789  1.1001 -0.4824 -0.3220
  347MOL0     C46730   8.338   0.085  10.682 -0.1319  0.1519 -0.3514
  347MOL0     C46731   8.362   0.156  10.545 -0.2368 -0.6555  1.3213
  347MOL0     C46732   8.369   0.064  10.425  0.0981  0.4712  0.7805
  347MOL0     C46733   8.374   0.145  10.290  0.2342  0.5594  0.1579
  347MOL0     O46734   8.270   0.242  10.286 -0.2935 -0.3030 -0.7677
  347MOL0     C46735   8.137   0.223  10.287  0.1991  0.6215  1.1173
  347MOL0     C46736   8.061   0.341  10.293 -0.3840  0.5325 -0.3206
  347MOL0     C46737   7.924   0.331  10.275  0.1850 -0.3409 -0.0484
  347MOL0     C46738   7.858   0.469  10.275  0.4241  1.3709  0.1752
  347MOL0     C46739   7.858   0.207  10.250  0.3901  0.2891 -0.5882
  347MOL0     C46740   7.714   0.200  10.208  0.2824  0.0897  0.3885
  347MOL0     O46741   7.675   0.074  10.194  0.1922 -0.3599  0.0350
  347MOL0     C46742   7.550   0.038  10.138  0.7252  0.6204 -0.0935
  347MOL0     C46743   7.487   0.098  10.029  0.3599 -0.1805  0.2623
  347MOL0     C46744   7.359   0.061   9.994 -0.3754 -0.1914 -0.0910
  347MOL0     C46745   7.294  -0.040  10.061 -0.1584 -0.5066 -0.3360
  347MOL0     O46746   7.156  -0.053  10.038  0.0444 -0.7949 -0.3090
  347MOL0     C46747   7.122  -0.182   9.999 -0.3780  0.8529 -0.0557
  347MOL0     C46748   6.971  -0.214   9.973 -0.8284  0.0700  0.6178
  347MOL0     C46749   6.923  -0.358   9.936 -0.4843  0.4173 -0.0689
  347MOL0     C46750   6.774  -0.361   9.912  0.3407 -0.2453  0.4153
  347MOL0     C46751   6.729  -0.500   9.874  1.3015  0.5069 -0.0693
  347MOL0     C46752   6.571  -0.489   9.862 -0.4105  0.6621  0.0713
  347MOL0     C46753   6.508  -0.629   9.864 -0.3616 -0.0490  0.3722
  347MOL0     C46754   6.371  -0.621   9.801 -0.2452 -0.8926  0.1734
  347MOL0    Cl46755   6.248  -0.538   9.910 -0.3407  0.1447  0.1711
  347MOL0     C46756   7.361  -0.111  10.165  0.5641  0.1504  1.0437
  347MOL0     C46757   7.484  -0.069  10.200 -0.4432 -0.5971  0.0909
  347MOL0     O46758   7.656   0.296  10.154  0.4617 -0.4686 -0.4603
  347MOL0     C46759   7.939   0.093  10.258  0.1806  0.4101  0.4110
  347MOL0     C46760   8.080   0.097  10.267  0.0692  0.1635  0.5503
  347MOL0     N46761   8.306   0.152  10.916  0.3558  0.4344 -0.3321
  347MOL0     N46762   8.269   0.249  10.987  0.0234  0.1566 -0.2174
  347MOL0     C46763   7.504   0.902  10.951  0.0625  0.4117  0.1811
  347MOL0     C46764   7.378   0.863  10.994 -0.9383  0.2993 -0.2339
  347MOL0     C46765   7.070   0.831  11.323  0.8774 -0.4184  0.3357
  347MOL0     C46766   6.979   0.767  11.241  0.1444 -0.4641  0.0381
  347MOL0     C46767   6.843   0.773  11.270 -0.5014  0.2819  0.0694
  347MOL0     C46768   6.796   0.844  11.383 -0.0269  0.9330  0.5895
  347MOL0     O46769   6.661   0.864  11.408  0.5612  0.6029 -0.2307
  347MOL0     C46770   6.567   0.790  11.332 -0.0606 -0.4538  0.1499
  347MOL0     C46771   6.430   0.815  11.382 -0.0010 -0.1490 -0.1556
  347MOL0     C46772   6.329   0.731  11.312 -0.2172 -1.1761 -0.1576
  347MOL0     C46773   6.202   0.728  11.394 -0.6541  0.0368 -0.3906
  347MOL0     C46774   6.100   0.667  11.311 -0.0953  0.6411 -1.1392
  347MOL0     C46775   6.014   0.609  11.246 -0.8549  0.3835 -0.5446
  347MOL0     C46776   6.886   0.908  11.466  0.7404  0.0142 -0.1976
  347MOL0     C46777   7.023   0.898  11.434  0.5478 -0.1891 -0.0823
  347MOL0     H46778   7.464   0.712  11.300  1.8336 -0.0828  0.3893
  347MOL0     H46779   7.678   0.770  11.216 -0.3900  1.0342  1.0497
  347MOL0     H46780   7.722   0.947  10.782 -0.3722  1.7661 -0.3957
  347MOL0     H46781   7.714   1.050  10.911 -2.4596  0.1581 -3.1659
  347MOL0     H46782   7.948   0.893  10.788 -1.7233 -0.2371 -0.0667
  347MOL0     H46783   7.932   1.068  10.786 -3.0183  0.8510 -0.1081
  347MOL0     H46784   7.981   1.094  11.012  0.7841  0.5538 -2.6373
  347MOL0     H46785   7.976   0.916  11.047  1.0572 -0.3786  0.1375
  347MOL0     H46786   8.191   1.056  10.880  1.9871 -1.7652 -0.9367
  347MOL0     H46787   8.187   1.008  11.051 -0.1961  0.1262  0.0134
  347MOL0     H46788   8.217   0.841  10.802  0.1881 -0.0359  0.2280
  347MOL0     H46789   8.321   0.858  10.944  0.3730  2.8240 -1.5456
  347MOL0     H46790   8.170   0.734  11.080 -2.1519  0.2581  0.1783
  347MOL0     H46791   8.055   0.706  10.938  1.1119 -0.6301 -3.0521
  347MOL0     H46792   8.268   0.614  10.827  2.2005 -0.6955  0.1954
  347MOL0     H46793   8.326   0.581  10.986  0.2694  0.8974  0.4846
  347MOL0     H46794   8.059   0.468  10.887  0.3199  0.1368 -0.5720
  347MOL0     H46795   8.121   0.471  11.056  0.2793  1.3263  0.6786
  347MOL0     H46796   8.254   0.373  10.691  0.9260  0.5635  0.3317
  347MOL0     H46797   8.432   0.035  10.706  0.3849  0.6914 -1.1834
  347MOL0     H46798   8.240   0.037  10.679 -0.8503  1.4986  0.3291
  347MOL0     H46799   8.448   0.219  10.571 -0.4579  0.7838 -1.1479
  347MOL0     H46800   8.283   0.230  10.528 -1.8417 -1.7375  3.5958
  347MOL0     H46801   8.278   0.003  10.426  0.1035  0.4525  1.7001
  347MOL0     H46802   8.461   0.004  10.428 -1.3338 -2.0828 -1.5462
  347MOL0     H46803   8.377   0.084  10.198  0.5532  1.0565 -0.1640
  347MOL0     H46804   8.469   0.198  10.298  0.4990 -0.0520  1.2406
  347MOL0     H46805   8.116   0.434  10.308  0.6649 -0.1840  0.4100
  347MOL0     H46806   7.836   0.509  10.176 -0.8767 -5.3879 -2.8221
  347MOL0     H46807   7.756   0.465  10.317 -0.0905 -2.6145 -0.9766
  347MOL0     H46808   7.929   0.542  10.314  2.0182  1.0892 -2.0043
  347MOL0     H46809   7.544   0.175   9.978 -1.7682  0.7253 -0.8556
  347MOL0     H46810   7.303   0.108   9.913  2.2621  2.3171 -0.6623
  347MOL0     H46811   7.181  -0.215   9.912 -0.4652 -1.2078  0.5982
  347MOL0     H46812   7.154  -0.261  10.068  1.7275 -1.3277 -3.2311
  347MOL0     H46813   6.903  -0.179  10.051 -0.6097  0.2536  0.7266
  347MOL0     H46814   6.946  -0.156   9.883 -0.7774  0.2245  0.7036
  347MOL0     H46815   6.954  -0.429  10.013 -2.7497 -1.9265 -1.1898
  347MOL0     H46816   6.973  -0.376   9.840  3.4790 -2.8275  2.2903
  347MOL0     H46817   6.734  -0.319  10.005  3.8687  2.9772  0.7558
  347MOL0     H46818   6.743  -0.302   9.826  2.7825  0.6797  0.0723
  347MOL0     H46819   6.766  -0.568   9.951  1.0870  2.5349  1.9544
  347MOL0     H46820   6.772  -0.531   9.779  0.5062  0.5713 -0.4568
  347MOL0     H46821   6.531  -0.450   9.956 -0.6095  0.7478 -0.0499
  347MOL0     H46822   6.543  -0.424   9.778 -0.5171  0.6986  0.1347
  347MOL0     H46823   6.498  -0.667   9.966 -2.0328 -0.7938 -0.0459
  347MOL0     H46824   6.580  -0.699   9.822  1.1511  2.2936 -1.2344
  347MOL0     H46825   6.332  -0.723   9.794  0.7109 -1.4434  2.0696
  347MOL0     H46826   6.373  -0.577   9.701  1.4725 -0.5722  0.3185
  347MOL0     H46827   7.321  -0.198  10.215 -2.5126  0.9528  0.1801
  347MOL0     H46828   7.532  -0.124  10.281  0.5559 -1.0609 -0.8007
  347MOL0     H46829   7.889  -0.003  10.242  2.6144 -1.2089  2.0115
  347MOL0     H46830   8.136   0.004  10.272  1.0439  0.7874  2.5671
  347MOL0     H46831   7.522   0.955  10.858  0.0108 -0.6036 -0.4128
  347MOL0     H46832   7.281   0.894  10.955 -1.3309 -0.9492 -0.2970
  347MOL0     H46833   6.994   0.710  11.151 -0.1052  0.8500 -0.8709
  347MOL0     H46834   6.778   0.720  11.202 -2.1306  1.9590  0.2460
  347MOL0     H46835   6.569   0.820  11.227 -0.1310 -2.5617 -0.5037
  347MOL0     H46836   6.586   0.682  11.330  0.1684 -0.4133 -1.2933
  347MOL0     H46837   6.412   0.922  11.370 -1.6807 -0.4551 -0.5627
  347MOL0     H46838   6.431   0.773  11.484  0.9491 -0.7652 -0.3986
  347MOL0     H46839   6.361   0.627  11.299  1.4040 -0.8364  0.8771
  347MOL0     H46840   6.309   0.766  11.210  0.6049 -0.5144 -0.0995
  347MOL0     H46841   6.171   0.830  11.415  1.2732  1.1682 -2.5708
  347MOL0     H46842   6.225   0.657  11.475  0.4188 -0.7005 -1.3068
  347MOL0     H46843   5.950   0.548  11.186  2.5284 -3.2864 -0.8880
  347MOL0     H46844   6.851   0.962  11.553 -0.6371 -0.1433 -0.6428
  347MOL0     H46845   7.089   0.945  11.506  2.5066 -2.6096 -0.1589
  348MOL0     O46846   7.120   0.117   4.257  0.1655  0.9265  0.4254
  348MOL0     C46847   7.125   0.172   4.369  1.0985 -0.6248  0.4290
  348MOL0     O46848   7.040   0.280   4.406 -0.0962  0.2309 -0.1862
  348MOL0     C46849   6.986   0.349   4.304 -0.6410 -0.0283  0.0181
  348MOL0     C46850   6.837   0.350   4.295  0.3832  0.3467  0.3478
  348MOL0     C46851   6.779   0.435   4.198  0.0600 -0.8745  0.3965
  348MOL0     C46852   6.860   0.517   4.117  1.3194  0.1089  0.0888
  348MOL0     O46853   6.800   0.602   4.034  0.3249  0.0523 -0.2400
  348MOL0     C46854   6.802   0.738   4.072 -0.2199  0.1786  0.0403
  348MOL0     C46855   6.737   0.822   3.959  0.0980 -0.0079 -0.5077
  348MOL0     C46856   6.594   0.775   3.927  0.1366 -0.8749  0.7404
  348MOL0     C46857   6.491   0.823   4.022  0.0455 -0.7484 -0.5477
  348MOL0     C46858   6.351   0.783   3.980  0.1221  0.4825 -0.3070
  348MOL0     C46859   6.330   0.632   3.960  0.5036 -0.2876  0.0704
  348MOL0     C46860   6.392   0.541   4.062 -0.0601 -0.0450 -0.6689
  348MOL0     C46861   6.338   0.573   4.199 -1.3716 -0.0421  0.0478
  348MOL0     N46862   6.416   0.499   4.300  0.4889  1.0767 -0.2605
  348MOL0     C46863   6.476   0.555   4.411  1.3586  0.7072 -0.5004
  348MOL0     C46864   6.541   0.448   4.460 -0.5461 -0.2182 -0.4873
  348MOL0     C46865   6.619   0.431   4.584 -0.4819  0.5421 -0.2789
  348MOL0     C46866   6.705   0.557   4.611  0.2947  0.5909 -0.4878
  348MOL0     C46867   6.658   0.644   4.729 -0.5227 -0.6657 -1.1279
  348MOL0     C46868   6.538   0.734   4.718  0.8799 -0.1380 -0.4067
  348MOL0     O46869   6.493   0.746   4.846  0.1530  0.1774 -1.1220
  348MOL0     C46870   6.384   0.822   4.868  0.8178  0.8516  0.0860
  348MOL0     C46871   6.268   0.763   4.912  0.1840  0.3698 -0.6436
  348MOL0     C46872   6.139   0.819   4.914  0.0569 -1.4185  0.5436
  348MOL0     C46873   6.023   0.726   4.960 -0.1226 -0.2480  0.4259
  348MOL0     C46874   6.131   0.959   4.860 -0.0594 -0.2038 -0.4702
  348MOL0     C46875   5.999   1.044   4.861 -1.1352  0.9250 -0.1593
  348MOL0     O46876   6.003   1.121   4.749 -0.7042  0.5947  0.3372
  348MOL0     C46877   5.880   1.171   4.695 -0.3348  1.0264  1.0061
  348MOL0     C46878   5.874   1.296   4.650 -0.8629 -0.4620 -0.3239
  348MOL0     C46879   5.760   1.353   4.599 -0.6839  0.6429 -0.0708
  348MOL0     C46880   5.646   1.278   4.578  0.3076 -0.0382 -0.2922
  348MOL0     O46881   5.520   1.335   4.543  0.6525  0.4745  0.3106
  348MOL0     C46882   5.510   1.465   4.487  0.3302  0.1172  0.0662
  348MOL0     C46883   5.539   1.446   4.337  0.0325 -0.0513 -0.1927
  348MOL0     C46884   5.584   1.573   4.273 -0.1294 -0.1123  1.0213
  348MOL0     C46885   5.628   1.543   4.128  0.9008 -0.7666 -0.2559
  348MOL0     C46886   5.663   1.669   4.041  0.2526  0.4668 -0.1765
  348MOL0     C46887   5.740   1.625   3.920  0.1269  0.6841  1.0390
  348MOL0     C46888   5.807   1.742   3.843  0.4442 -0.2595 -0.5526
  348MOL0     C46889   5.740   1.746   3.707  0.3561  0.9156  0.0368
  348MOL0    Cl46890   5.821   1.856   3.601  0.0546  0.0460  0.2474
  348MOL0     C46891   5.654   1.143   4.614 -0.1716  0.1535  0.5927
  348MOL0     C46892   5.765   1.089   4.675 -0.0304  0.6074  0.6590
  348MOL0     O46893   5.914   1.039   4.944 -0.0097  0.8587  0.0202
  348MOL0     C46894   6.252   1.020   4.811  0.4233 -0.0406 -0.4269
  348MOL0     C46895   6.375   0.955   4.823  0.0744 -0.0842 -0.4681
  348MOL0     N46896   6.527   0.340   4.382  0.1351 -0.1026  0.0335
  348MOL0     N46897   6.458   0.378   4.281 -0.2028  0.9684 -0.3963
  348MOL0     C46898   7.000   0.511   4.124  0.3116  0.3734  0.1140
  348MOL0     C46899   7.059   0.432   4.221  0.1187  0.0275  0.9235
  348MOL0     C46900   7.207   0.119   4.470 -0.6712 -1.1801  0.4137
  348MOL0     C46901   7.182   0.138   4.608  0.4969 -1.0197  0.3760
  348MOL0     C46902   7.238   0.057   4.704 -0.2798 -0.8184 -0.5386
  348MOL0     C46903   7.346  -0.022   4.679 -0.4966  0.6389 -0.6077
  348MOL0     O46904   7.408  -0.093   4.785  0.2829  0.6424  0.3411
  348MOL0     C46905   7.508  -0.197   4.774  0.5547  0.1154  0.4886
  348MOL0     C46906   7.446  -0.306   4.861 -0.9056  0.3484  0.2006
  348MOL0     C46907   7.336  -0.392   4.786 -0.1638 -0.5025 -0.0533
  348MOL0     C46908   7.269  -0.499   4.885 -0.6243  0.0445  0.1530
  348MOL0     C46909   7.200  -0.428   4.992  0.4615  0.0879  0.7162
  348MOL0     C46910   7.136  -0.367   5.070 -0.4018  0.3334  0.1386
  348MOL0     C46911   7.388  -0.032   4.547 -0.2017  0.1563  0.1807
  348MOL0     C46912   7.321   0.038   4.444 -0.6491  0.6736 -0.2788
  348MOL0     H46913   6.778   0.278   4.351 -2.5705  0.9530 -1.7759
  348MOL0     H46914   6.673   0.425   4.178  0.3654  0.5477 -2.4631
  348MOL0     H46915   6.747   0.756   4.165 -2.3441  1.8524 -1.4384
  348MOL0     H46916   6.908   0.763   4.082  0.0708 -0.9196 -0.1367
  348MOL0     H46917   6.749   0.925   3.997  1.6443 -0.1961 -0.4095
  348MOL0     H46918   6.791   0.807   3.866  1.8360 -1.1129  0.6167
  348MOL0     H46919   6.577   0.826   3.831  0.7238 -0.5530  0.8045
  348MOL0     H46920   6.594   0.666   3.915  0.0975 -0.7229 -0.9906
  348MOL0     H46921   6.515   0.786   4.122  2.8522  0.8148 -0.5359
  348MOL0     H46922   6.495   0.932   4.031  0.0997 -0.8629  1.3182
  348MOL0     H46923   6.291   0.819   4.064  1.1740 -0.8832  1.0777
  348MOL0     H46924   6.316   0.832   3.888 -1.9088 -1.6085 -0.7349
  348MOL0     H46925   6.224   0.605   3.963  0.4099 -0.0985 -1.0120
  348MOL0     H46926   6.371   0.602   3.863  1.2478  1.2510 -0.1327
  348MOL0     H46927   6.388   0.434   4.040  0.5133 -0.4289  0.9864
  348MOL0     H46928   6.498   0.563   4.072  0.2339  0.0144 -3.2394
  348MOL0     H46929   6.231   0.551   4.203 -0.9402 -2.5626 -0.4851
  348MOL0     H46930   6.350   0.677   4.230  2.0945 -0.2669 -0.0980
  348MOL0     H46931   6.478   0.654   4.454 -0.2022  0.4665  0.2101
  348MOL0     H46932   6.552   0.403   4.666 -0.8452 -1.5428 -1.2232
  348MOL0     H46933   6.697   0.357   4.566 -0.5765  0.5535 -0.7489
  348MOL0     H46934   6.717   0.623   4.525  0.4794  2.1681  0.6980
  348MOL0     H46935   6.808   0.526   4.630  0.2994  0.9876  0.1619
  348MOL0     H46936   6.743   0.704   4.763 -0.8161 -1.9199  2.2424
  348MOL0     H46937   6.640   0.577   4.814 -0.7432 -1.0820 -1.4995
  348MOL0     H46938   6.455   0.679   4.672 -1.9960  0.4260  3.5248
  348MOL0     H46939   6.559   0.833   4.679 -1.5157  1.5279  2.1688
  348MOL0     H46940   6.274   0.662   4.950 -1.0004  0.3970 -0.3445
  348MOL0     H46941   5.995   0.748   5.064 -0.6336  1.6580 -0.0753
  348MOL0     H46942   5.930   0.729   4.902  0.0286  0.4309  0.2104
  348MOL0     H46943   6.051   0.621   4.954 -2.0547 -0.7208 -3.0907
  348MOL0     H46944   5.966   1.354   4.656  0.8205 -2.7681 -2.0781
  348MOL0     H46945   5.767   1.460   4.584  1.8765  0.9696  2.6217
  348MOL0     H46946   5.404   1.490   4.494  0.4016  0.6773 -0.7735
  348MOL0     H46947   5.567   1.535   4.549 -1.6715  0.1841  1.9356
  348MOL0     H46948   5.606   1.361   4.321 -1.9898 -1.4400 -1.8677
  348MOL0     H46949   5.445   1.407   4.297 -0.3515 -0.5017  1.1077
  348MOL0     H46950   5.668   1.619   4.327 -0.2374  2.0260 -0.5181
  348MOL0     H46951   5.515   1.658   4.280  2.5317  2.2787  0.6309
  348MOL0     H46952   5.714   1.476   4.135  1.1277 -0.3250  1.5191
  348MOL0     H46953   5.560   1.473   4.078  1.9275 -3.0728  1.3685
  348MOL0     H46954   5.717   1.742   4.101  0.7010  1.4908 -1.7649
  348MOL0     H46955   5.573   1.723   4.011  0.5364 -0.1014 -2.1781
  348MOL0     H46956   5.824   1.555   3.931 -1.4544 -1.2244  1.5272
  348MOL0     H46957   5.666   1.566   3.865  1.9384  0.9487 -1.8842
  348MOL0     H46958   5.913   1.724   3.827  0.0269 -0.8099 -3.1083
  348MOL0     H46959   5.783   1.837   3.891  0.6878 -0.2425 -0.4669
  348MOL0     H46960   5.639   1.785   3.722 -0.8577 -1.7991 -0.4408
  348MOL0     H46961   5.734   1.644   3.668 -0.3448 -0.4261  3.3382
  348MOL0     H46962   5.565   1.083   4.600 -1.0958  1.7794 -0.9060
  348MOL0     H46963   5.765   0.988   4.713 -1.0370 -0.3728 -1.7336
  348MOL0     H46964   6.263   1.123   4.778  0.0047  1.0289  2.4360
  348MOL0     H46965   6.469   1.005   4.801 -0.7239  1.8606  0.3406
  348MOL0     H46966   7.046   0.580   4.053  0.8449 -2.3090 -2.3332
  348MOL0     H46967   7.167   0.433   4.236  0.2608  1.7688  0.0911
  348MOL0     H46968   7.101   0.202   4.641  1.6433 -0.2977  1.9352
  348MOL0     H46969   7.192   0.064   4.802 -0.4022 -3.1325 -0.3616
  348MOL0     H46970   7.526  -0.232   4.672 -0.3742  4.0189 -1.2233
  348MOL0     H46971   7.608  -0.163   4.801  0.5952 -0.3543  0.9556
  348MOL0     H46972   7.401  -0.260   4.949 -0.2634  2.5027 -0.5409
  348MOL0     H46973   7.531  -0.371   4.883  1.3483  2.5434 -1.4262
  348MOL0     H46974   7.381  -0.446   4.703  2.1445 -0.3431  1.0271
  348MOL0     H46975   7.259  -0.330   4.739 -1.3317 -1.3507  0.6784
  348MOL0     H46976   7.345  -0.562   4.932  1.4234  2.3722  0.1985
  348MOL0     H46977   7.197  -0.561   4.832  1.6790 -1.3336 -1.5353
  348MOL0     H46978   7.078  -0.304   5.134  0.3683  0.1450  1.0401
  348MOL0     H46979   7.459  -0.106   4.510 -0.1228  0.0318  0.5765
  348MOL0     H46980   7.335   0.003   4.342 -0.2972 -0.0171 -0.0003
  349MOL0     O46981   8.072   5.788   6.632 -0.3440 -0.4053  0.1583
  349MOL0     C46982   7.985   5.754   6.707  0.1491 -0.7958 -0.8448
  349MOL0     O46983   7.994   5.665   6.816 -1.2242 -0.5770 -0.1927
  349MOL0     C46984   8.118   5.617   6.852  0.0883 -0.0013  0.2137
  349MOL0     C46985   8.114   5.486   6.901 -0.3368  0.1208  0.0028
  349MOL0     C46986   8.237   5.426   6.933  0.0609 -0.4449  0.9600
  349MOL0     C46987   8.360   5.494   6.912 -0.5057  0.5758 -0.0495
  349MOL0     O46988   8.475   5.434   6.961 -0.1522 -0.2415  0.6585
  349MOL0     C46989   8.594   5.513   6.954 -0.1441  0.2766 -0.3806
  349MOL0     C46990   8.707   5.471   7.052 -0.4888 -0.1241  0.4201
  349MOL0     C46991   8.662   5.406   7.183 -0.4142 -1.2166 -0.0329
  349MOL0     C46992   8.768   5.398   7.296  0.9808 -0.0702  0.4370
  349MOL0     C46993   8.689   5.343   7.425  1.2094  0.0043 -0.8857
  349MOL0     C46994   8.657   5.190   7.413  0.7496  1.1787  0.1713
  349MOL0     C46995   8.633   5.130   7.555 -0.6633  0.8764  0.6474
  349MOL0     C46996   8.625   4.974   7.549 -0.1668  0.3682  0.5415
  349MOL0     N46997   8.511   4.936   7.464  0.4126  0.4380  1.0277
  349MOL0     C46998   8.378   4.961   7.491 -0.1271 -0.6947  0.1008
  349MOL0     C46999   8.316   4.973   7.369 -0.0485  0.6462 -0.7646
  349MOL0     C47000   8.186   5.041   7.346 -0.0927  0.3867  0.5987
  349MOL0     C47001   8.217   5.182   7.271  0.3273  0.1731  0.4369
  349MOL0     C47002   8.082   5.253   7.251  0.1276 -0.3649  0.6788
  349MOL0     C47003   8.003   5.182   7.131  0.5603 -0.3896 -0.4800
  349MOL0     O47004   8.090   5.128   7.018  0.3670 -0.3346 -0.4087
  349MOL0     C47005   8.041   5.035   6.935 -0.1295 -0.2715 -0.0693
  349MOL0     C47006   8.123   4.978   6.836  1.2341  0.1418  0.1923
  349MOL0     C47007   8.076   4.871   6.752 -0.2559  0.0318  0.8267
  349MOL0     C47008   8.188   4.798   6.670  0.5186  1.0206  0.4047
  349MOL0     C47009   7.950   4.827   6.765  0.5639 -0.2551  0.3553
  349MOL0     C47010   7.899   4.703   6.703 -0.3760 -0.3246  0.1533
  349MOL0     O47011   7.799   4.635   6.769  1.3967  0.0191 -0.2144
  349MOL0     C47012   7.705   4.569   6.697 -0.1762 -0.4135 -0.0215
  349MOL0     C47013   7.719   4.440   6.666 -0.2048  0.0516  0.4080
  349MOL0     C47014   7.619   4.369   6.598 -0.4555  0.4867  0.5043
  349MOL0     C47015   7.500   4.427   6.570  0.3792  0.3449 -0.3273
  349MOL0     O47016   7.403   4.374   6.488  0.1448 -0.7631 -0.6019
  349MOL0     C47017   7.368   4.238   6.507 -0.4452 -0.1778 -0.4198
  349MOL0     C47018   7.288   4.201   6.386 -0.1043 -0.6001 -0.4716
  349MOL0     C47019   7.143   4.263   6.393  0.2612 -0.6542 -0.0651
  349MOL0     C47020   7.084   4.275   6.254  0.2209  0.0948 -0.1237
  349MOL0     C47021   6.946   4.357   6.246 -0.1237 -0.1839 -1.1205
  349MOL0     C47022   6.908   4.376   6.105  0.0045  1.6332  0.1394
  349MOL0     C47023   6.780   4.448   6.096 -0.3218  0.4649  0.4289
  349MOL0     C47024   6.664   4.353   6.114  0.1154 -0.5406  0.1620
  349MOL0    Cl47025   6.510   4.459   6.116 -0.2412  0.0709  0.4021
  349MOL0     C47026   7.478   4.555   6.611 -0.5022 -0.4842  0.5112
  349MOL0     C47027   7.581   4.629   6.674  0.5093 -0.3394  0.2407
  349MOL0     O47028   7.932   4.666   6.586  0.0493 -0.3373 -0.6766
  349MOL0     C47029   7.868   4.888   6.863  0.1846  0.7619 -0.7832
  349MOL0     C47030   7.905   4.991   6.945  0.0725 -0.3268 -0.4464
  349MOL0     N47031   8.407   4.931   7.271  0.0577 -0.6942  0.3347
  349MOL0     N47032   8.519   4.908   7.334 -0.4019 -0.4707  0.3076
  349MOL0     C47033   8.356   5.618   6.854 -0.0143  0.0864  0.5080
  349MOL0     C47034   8.240   5.685   6.843  0.0847  0.2265 -0.0619
  349MOL0     C47035   7.852   5.806   6.676 -0.5709  0.0439 -0.2405
  349MOL0     C47036   7.740   5.749   6.736  0.6033  0.8425 -0.2564
  349MOL0     C47037   7.607   5.787   6.697 -0.2054  0.0874 -0.3786
  349MOL0     C47038   7.581   5.887   6.600  0.0305 -0.4652  0.6280
  349MOL0     O47039   7.465   5.922   6.547 -0.1930 -0.4062 -0.5592
  349MOL0     C47040   7.349   5.853   6.597  0.4180  0.0474 -0.5957
  349MOL0     C47041   7.211   5.887   6.521 -0.8203  0.0116  0.4654
  349MOL0     C47042   7.163   6.035   6.547  0.2699 -0.2527 -0.0354
  349MOL0     C47043   7.018   6.061   6.512  0.7249 -0.0606 -0.1112
  349MOL0     C47044   6.927   5.976   6.591 -0.4682  0.2826 -0.9532
  349MOL0     C47045   6.855   5.906   6.663  0.0370 -0.9286  0.0469
  349MOL0     C47046   7.695   5.941   6.542  0.7974 -0.0371 -0.0393
  349MOL0     C47047   7.830   5.908   6.571  0.7225 -0.2282  0.2988
  349MOL0     H47048   8.026   5.423   6.908 -0.1344 -0.2850 -0.8978
  349MOL0     H47049   8.241   5.326   6.975  0.6959 -1.8132 -2.0266
  349MOL0     H47050   8.638   5.502   6.854 -0.1275  0.4532 -0.3936
  349MOL0     H47051   8.586   5.621   6.969 -2.5845  0.0530  0.3897
  349MOL0     H47052   8.767   5.391   7.007 -0.2668  1.0873 -1.5629
  349MOL0     H47053   8.775   5.557   7.059 -3.0195  2.1323 -0.8990
  349MOL0     H47054   8.589   5.474   7.228  0.3195  0.0302 -0.6649
  349MOL0     H47055   8.608   5.311   7.169 -1.4836 -0.4078 -1.8289
  349MOL0     H47056   8.857   5.345   7.261  2.3769  0.8638  2.3773
  349MOL0     H47057   8.818   5.491   7.324  2.0644 -1.1332  2.1782
  349MOL0     H47058   8.747   5.370   7.514  0.0965  4.3107 -1.2611
  349MOL0     H47059   8.595   5.396   7.435  1.1364 -0.4176  1.2804
  349MOL0     H47060   8.562   5.172   7.363  0.4702 -1.4592  1.4698
  349MOL0     H47061   8.740   5.131   7.373  2.6803  2.4131  2.1172
  349MOL0     H47062   8.717   5.153   7.621  1.4189 -2.2064 -0.6815
  349MOL0     H47063   8.545   5.168   7.608 -1.0810  1.0645 -0.1655
  349MOL0     H47064   8.599   4.936   7.648 -2.1133  0.4609  0.1072
  349MOL0     H47065   8.706   4.932   7.489  0.0548  1.7704 -0.1920
  349MOL0     H47066   8.352   4.985   7.594  3.3716  0.1078  0.9403
  349MOL0     H47067   8.118   4.981   7.285 -2.4720 -0.6363  4.0090
  349MOL0     H47068   8.122   5.053   7.434  1.0753  0.9986  1.4023
  349MOL0     H47069   8.267   5.156   7.178 -0.0782  0.1468  0.2252
  349MOL0     H47070   8.290   5.234   7.334  1.4425 -0.9805  0.1548
  349MOL0     H47071   8.099   5.357   7.221  0.1078 -1.3198 -3.1860
  349MOL0     H47072   8.018   5.256   7.340  2.7068 -0.4138  2.6353
  349MOL0     H47073   7.935   5.262   7.099  0.5295  1.0733  2.8313
  349MOL0     H47074   7.951   5.103   7.185  0.7404  0.4429  0.9750
  349MOL0     H47075   8.228   5.002   6.823  1.3115  0.4690  1.2856
  349MOL0     H47076   8.160   4.793   6.564  0.7653 -1.3551  0.4096
  349MOL0     H47077   8.277   4.862   6.667  0.2015  1.4414 -0.4206
  349MOL0     H47078   8.215   4.697   6.703  2.7999  1.9579  1.6361
  349MOL0     H47079   7.811   4.388   6.686  1.1052  1.1838 -2.2026
  349MOL0     H47080   7.637   4.273   6.550 -1.9833 -0.3105  1.4495
  349MOL0     H47081   7.455   4.171   6.509 -1.6144 -1.7795  2.2813
  349MOL0     H47082   7.312   4.216   6.598 -1.0979 -0.2346 -0.8341
  349MOL0     H47083   7.341   4.248   6.303 -0.4259  1.1327  0.2757
  349MOL0     H47084   7.274   4.094   6.368  1.7229 -0.9494 -0.0458
  349MOL0     H47085   7.140   4.369   6.420  2.8629 -0.4156 -0.4218
  349MOL0     H47086   7.071   4.203   6.448 -0.1610  0.0494  0.1705
  349MOL0     H47087   7.153   4.338   6.198  0.8845 -1.7938 -1.5175
  349MOL0     H47088   7.086   4.174   6.211  1.9932 -0.8042  1.8831
  349MOL0     H47089   6.954   4.461   6.280 -0.4783  0.2677 -2.3822
  349MOL0     H47090   6.877   4.308   6.315  2.7647  0.1986  2.3854
  349MOL0     H47091   6.988   4.427   6.051 -0.5987  4.4434  1.6994
  349MOL0     H47092   6.895   4.278   6.058 -1.1478  1.0391  1.5960
  349MOL0     H47093   6.767   4.496   5.999 -0.8519  0.4064  0.4642
  349MOL0     H47094   6.760   4.522   6.175 -1.0978  0.1745  0.5162
  349MOL0     H47095   6.664   4.305   6.213 -5.2057  0.5229  0.9886
  349MOL0     H47096   6.665   4.273   6.040 -0.3067 -0.3793 -0.0155
  349MOL0     H47097   7.381   4.594   6.582  0.9187  1.0063 -2.7746
  349MOL0     H47098   7.555   4.729   6.707 -2.0235 -1.2243  1.1723
  349MOL0     H47099   7.766   4.850   6.874  0.1556  1.2052  0.7309
  349MOL0     H47100   7.844   5.034   7.024  1.1141 -1.3693  0.9760
  349MOL0     H47101   8.442   5.682   6.837 -2.1001  2.1977 -3.5790
  349MOL0     H47102   8.231   5.790   6.816  1.1664  0.4712  0.4901
  349MOL0     H47103   7.753   5.683   6.821  2.0902  2.3190  0.7137
  349MOL0     H47104   7.528   5.735   6.749  2.2413 -1.4572  2.1038
  349MOL0     H47105   7.356   5.744   6.584 -3.1498 -0.1658 -1.6803
  349MOL0     H47106   7.338   5.884   6.702  3.0701  0.5949 -0.4167
  349MOL0     H47107   7.138   5.814   6.556 -1.0663 -0.0002 -0.0516
  349MOL0     H47108   7.237   5.872   6.415  1.7486  1.5137  0.7888
  349MOL0     H47109   7.219   6.098   6.476 -0.8794 -2.6186 -3.2957
  349MOL0     H47110   7.185   6.069   6.648  3.0632  2.9752 -1.5173
  349MOL0     H47111   6.999   6.045   6.406  1.1082  0.7814 -0.3072
  349MOL0     H47112   6.992   6.166   6.526 -1.4394 -0.8734  3.1378
  349MOL0     H47113   6.783   5.853   6.723 -0.9981  1.4614  1.0247
  349MOL0     H47114   7.670   6.004   6.458 -1.4512  0.2056  0.7351
  349MOL0     H47115   7.907   5.959   6.514 -1.9815  1.8395 -1.7508
  350MOL0     O47116  10.740   4.880   5.148  0.1513 -0.7446  0.2121
  350MOL0     C47117  10.852   4.915   5.095 -0.3725  1.2794 -0.3492
  350MOL0     O47118  10.895   5.038   5.075  0.2564 -0.2452  0.0865
  350MOL0     C47119  10.803   5.141   5.078 -0.2236 -0.0704  0.4338
  350MOL0     C47120  10.661   5.141   5.060  1.0571 -1.2942  0.1548
  350MOL0     C47121  10.585   5.258   5.088  1.3737  0.8523 -0.1187
  350MOL0     C47122  10.644   5.380   5.120  0.4032 -0.1859 -0.7369
  350MOL0     O47123  10.569   5.496   5.117 -0.3601  0.7908  0.4710
  350MOL0     C47124  10.617   5.620   5.176  0.2540 -0.0326 -0.7529
  350MOL0     C47125  10.535   5.738   5.139  0.1476 -0.3744  0.2314
  350MOL0     C47126  10.614   5.871   5.162  0.0735 -1.1703  0.8449
  350MOL0     C47127  10.544   5.982   5.084 -0.2696 -0.6029 -0.4586
  350MOL0     C47128  10.423   6.037   5.146 -0.8480  1.1575 -1.4338
  350MOL0     C47129  10.385   6.170   5.093 -1.1128 -0.3744 -0.6781
  350MOL0     C47130  10.236   6.198   5.088  0.2318 -0.3869  0.3980
  350MOL0     C47131  10.202   6.320   4.989 -0.4728  0.4776  0.2191
  350MOL0     N47132  10.054   6.336   4.964 -0.8416  0.0713 -0.2605
  350MOL0     C47133   9.975   6.444   5.000  0.4161  0.4088 -1.6005
  350MOL0     C47134   9.851   6.399   4.956 -0.2427 -0.0809  0.2245
  350MOL0     C47135   9.717   6.477   4.970  0.3386 -0.2221  0.0116
  350MOL0     C47136   9.743   6.627   4.988  0.2646  0.2766 -0.1310
  350MOL0     C47137   9.611   6.706   5.004  0.1846 -0.3523  0.5189
  350MOL0     C47138   9.640   6.854   5.033  1.1052 -0.0091  0.8224
  350MOL0     O47139   9.528   6.948   5.018  0.0868 -0.6107  0.0422
  350MOL0     C47140   9.464   6.972   4.897 -0.0633 -0.6647  0.4973
  350MOL0     C47141   9.345   7.045   4.891  0.6624 -1.0244 -0.2616
  350MOL0     C47142   9.266   7.058   4.783 -0.9190  0.3733 -0.0933
  350MOL0     C47143   9.131   7.123   4.788  0.0757 -0.1228  0.1763
  350MOL0     C47144   9.319   7.013   4.655 -0.2440  0.1067 -0.6091
  350MOL0     C47145   9.240   7.026   4.534 -0.7487 -0.1260 -0.2583
  350MOL0     O47146   9.107   6.985   4.535 -0.6557 -0.2444  0.5782
  350MOL0     C47147   9.023   7.018   4.428  0.0060 -0.3491 -0.2932
  350MOL0     C47148   9.000   7.154   4.398  0.3393 -0.8362 -0.4228
  350MOL0     C47149   8.930   7.186   4.277  0.1969 -0.1030  0.5953
  350MOL0     C47150   8.893   7.079   4.186 -0.8642 -0.2934 -0.2016
  350MOL0     O47151   8.835   7.092   4.066  0.0468 -0.5833  0.0527
  350MOL0     C47152   8.884   7.197   3.980 -0.3995  0.0445  1.0614
  350MOL0     C47153   8.790   7.205   3.856 -0.1912 -1.4392  0.3656
  350MOL0     C47154   8.836   7.088   3.762  0.5197 -0.3590 -0.1505
  350MOL0     C47155   8.752   7.110   3.628 -0.7460 -0.4285 -0.5086
  350MOL0     C47156   8.749   6.994   3.543  0.0568  1.0637 -0.1435
  350MOL0     C47157   8.649   6.997   3.430  0.3317 -0.0652 -0.2976
  350MOL0     C47158   8.650   7.128   3.346  0.3136 -0.1836 -0.7629
  350MOL0     C47159   8.541   7.122   3.246  0.1189 -0.5389 -0.5545
  350MOL0    Cl47160   8.517   7.285   3.156  0.2584 -0.0014 -0.0637
  350MOL0     C47161   8.922   6.944   4.213  0.3035  0.7375 -0.7912
  350MOL0     C47162   8.982   6.916   4.345  0.0620  0.4053  1.0929
  350MOL0     O47163   9.296   7.073   4.438 -0.8697  0.2562 -0.4028
  350MOL0     C47164   9.446   6.955   4.649 -0.1709 -0.7611  0.0260
  350MOL0     C47165   9.513   6.931   4.769  0.1220 -0.9146  0.6624
  350MOL0     N47166   9.862   6.274   4.900  1.0443 -0.3039  0.3584
  350MOL0     N47167   9.984   6.236   4.909  0.6321  0.3493 -0.4986
  350MOL0     C47168  10.779   5.380   5.116 -0.3476  0.2744 -0.3163
  350MOL0     C47169  10.851   5.270   5.091  0.2297 -0.4831  0.4530
  350MOL0     C47170  10.956   4.800   5.078  0.1236  0.4694 -0.4348
  350MOL0     C47171  10.911   4.671   5.080 -0.5870 -0.4999  1.0783
  350MOL0     C47172  11.005   4.565   5.041 -0.4281 -0.4592  0.4235
  350MOL0     C47173  11.139   4.586   5.011  1.3327 -0.0020 -0.1709
  350MOL0     O47174  11.230   4.503   4.958 -0.5113  0.0157 -0.3402
  350MOL0     C47175  11.181   4.377   4.919 -0.4094 -0.3811  0.0319
  350MOL0     C47176  11.285   4.269   4.932  0.5501 -0.1262  0.2823
  350MOL0     C47177  11.291   4.219   5.078 -0.9786  0.2815  0.3736
  350MOL0     C47178  11.358   4.081   5.081 -0.8416  0.0046  0.2934
  350MOL0     C47179  11.495   4.085   5.009 -0.2870 -1.5562 -0.2667
  350MOL0     C47180  11.613   4.083   4.976  0.3087 -0.5641  0.5112
  350MOL0     C47181  11.181   4.717   5.031  0.1074 -0.0304 -0.2380
  350MOL0     C47182  11.091   4.821   5.062 -0.7492  0.1968 -0.1303
  350MOL0     H47183  10.623   5.043   5.036  0.5064 -1.4540  1.5742
  350MOL0     H47184  10.482   5.235   5.115  1.3762 -1.5979 -1.8936
  350MOL0     H47185  10.591   5.593   5.279 -3.3800  0.7954 -1.3085
  350MOL0     H47186  10.725   5.632   5.161  0.4454 -0.4482  0.2113
  350MOL0     H47187  10.501   5.720   5.037 -0.1490  0.2124  0.2271
  350MOL0     H47188  10.444   5.752   5.199 -1.0210  0.1880 -1.6220
  350MOL0     H47189  10.613   5.903   5.266 -1.7922  0.3958  0.4174
  350MOL0     H47190  10.722   5.862   5.147  0.4001  2.7538 -0.2787
  350MOL0     H47191  10.622   6.059   5.076 -0.5443 -0.0187  1.7560
  350MOL0     H47192  10.511   5.950   4.985 -3.0162 -0.8030  0.4328
  350MOL0     H47193  10.344   5.963   5.127 -1.7477  0.8799  2.3690
  350MOL0     H47194  10.446   6.047   5.253  4.4821 -0.7889 -2.0819
  350MOL0     H47195  10.445   6.244   5.148 -4.3705 -0.3867  3.3921
  350MOL0     H47196  10.427   6.179   4.993  0.8645 -0.9612  0.0359
  350MOL0     H47197  10.186   6.109   5.049  2.1678 -1.6523  0.6731
  350MOL0     H47198  10.210   6.227   5.191  1.1010 -0.6110  0.6907
  350MOL0     H47199  10.250   6.310   4.892 -2.2009 -2.5029 -0.4501
  350MOL0     H47200  10.246   6.407   5.038 -3.6037  1.7514  0.9874
  350MOL0     H47201  10.009   6.528   5.060 -0.5659 -1.4059  1.7045
  350MOL0     H47202   9.659   6.459   4.880  1.6643 -0.2513 -0.8593
  350MOL0     H47203   9.673   6.435   5.061  6.3583  1.4094  4.3092
  350MOL0     H47204   9.801   6.664   4.903  2.9022  1.0370  1.8749
  350MOL0     H47205   9.806   6.652   5.074 -0.3384 -0.2776  0.4802
  350MOL0     H47206   9.551   6.669   5.087  2.2341 -0.9606  1.7969
  350MOL0     H47207   9.554   6.710   4.911  0.9329  1.3152  0.0800
  350MOL0     H47208   9.716   6.890   4.962  0.3372  0.9281  0.4536
  350MOL0     H47209   9.684   6.867   5.132 -1.0602  1.1761  1.7004
  350MOL0     H47210   9.306   7.091   4.981 -2.9765 -3.2478 -0.4955
  350MOL0     H47211   9.117   7.154   4.893  3.0148  0.0398  0.5993
  350MOL0     H47212   9.134   7.218   4.733  1.2277 -1.0236 -1.3808
  350MOL0     H47213   9.049   7.057   4.759  1.1246 -0.9398 -1.0087
  350MOL0     H47214   9.042   7.231   4.461  1.7570 -0.1778 -2.0963
  350MOL0     H47215   8.908   7.291   4.258  1.6561  0.6974  2.8660
  350MOL0     H47216   8.883   7.293   4.033  4.2249  0.1311  1.3823
  350MOL0     H47217   8.989   7.179   3.955  0.0573  4.1174 -0.6496
  350MOL0     H47218   8.687   7.195   3.892  0.7142  1.2623  4.3974
  350MOL0     H47219   8.800   7.301   3.806 -0.8527 -1.1390  0.7943
  350MOL0     H47220   8.787   7.000   3.805 -1.2069  1.1037  0.9670
  350MOL0     H47221   8.945   7.088   3.748  0.6078  1.8835  0.2369
  350MOL0     H47222   8.651   7.137   3.662 -1.0712 -3.5803  1.4266
  350MOL0     H47223   8.813   7.190   3.585 -1.1710  0.4474  0.4893
  350MOL0     H47224   8.710   6.914   3.607  1.7387 -0.1364 -0.5527
  350MOL0     H47225   8.851   6.972   3.512  0.6107  3.5264 -0.2637
  350MOL0     H47226   8.666   6.915   3.361  3.2990  0.0110  0.2056
  350MOL0     H47227   8.553   6.970   3.475  1.8122 -2.3797  1.7493
  350MOL0     H47228   8.746   7.144   3.297  0.6020  2.8839  0.5286
  350MOL0     H47229   8.630   7.214   3.411 -0.9960  0.7980 -2.3683
  350MOL0     H47230   8.450   7.089   3.299 -0.8103 -1.2286 -2.4896
  350MOL0     H47231   8.561   7.043   3.174  0.4693 -0.1934 -0.8404
  350MOL0     H47232   8.893   6.861   4.150  1.7514 -0.4240  0.0234
  350MOL0     H47233   9.001   6.813   4.371 -0.2084 -0.2169 -0.9752
  350MOL0     H47234   9.478   6.910   4.556  2.2575 -2.7126  1.6957
  350MOL0     H47235   9.605   6.876   4.759 -0.6063 -1.7379 -2.6550
  350MOL0     H47236  10.843   5.467   5.121  1.2129 -0.7355 -1.7123
  350MOL0     H47237  10.959   5.279   5.099  0.0460  4.1670  0.1887
  350MOL0     H47238  10.808   4.645   5.100 -1.0005 -0.0120 -0.3378
  350MOL0     H47239  10.966   4.464   5.038  1.1037 -1.0598 -2.4134
  350MOL0     H47240  11.099   4.343   4.983  0.0942 -0.6262  0.5563
  350MOL0     H47241  11.142   4.392   4.818 -1.9093  2.7650  0.9455
  350MOL0     H47242  11.381   4.309   4.896 -0.5458  2.8994  0.4635
  350MOL0     H47243  11.260   4.184   4.868 -0.2378 -0.9753  1.6804
  350MOL0     H47244  11.189   4.209   5.117 -1.2914  0.5940 -0.3542
  350MOL0     H47245  11.339   4.293   5.142 -2.0273 -0.2650  1.8591
  350MOL0     H47246  11.294   4.006   5.032 -0.1979 -0.6062  0.3711
  350MOL0     H47247  11.375   4.054   5.185  1.3867 -1.4393 -0.3731
  350MOL0     H47248  11.715   4.062   4.948  1.2436  0.3981  2.9489
  350MOL0     H47249  11.285   4.741   5.014  0.6429  0.5376  3.1637
  350MOL0     H47250  11.127   4.923   5.069  2.4923 -0.9066  1.1966
  351MOL0     O47251   9.928   1.861   7.636 -0.3319  0.5966  0.3056
  351MOL0     C47252   9.906   1.791   7.533  0.0997 -0.1921  0.4273
  351MOL0     O47253   9.777   1.751   7.506 -0.4880  0.3691  0.2418
  351MOL0     C47254   9.674   1.786   7.590 -0.4954 -0.7660 -0.4356
  351MOL0     C47255   9.678   1.761   7.726 -0.8103  0.9560  0.0261
  351MOL0     C47256   9.561   1.761   7.809 -0.2702 -0.1853  0.7376
  351MOL0     C47257   9.442   1.805   7.753 -0.4346 -0.1357  0.5307
  351MOL0     O47258   9.319   1.787   7.815 -0.3429 -0.1492  0.3897
  351MOL0     C47259   9.315   1.791   7.957  0.1126  0.6406 -0.5628
  351MOL0     C47260   9.314   1.927   8.024  0.7079  0.0631  0.4701
  351MOL0     C47261   9.180   2.006   7.999 -0.2519 -0.1414  0.9781
  351MOL0     C47262   9.169   2.068   7.855 -0.5915  0.2247 -0.3665
  351MOL0     C47263   9.303   2.146   7.809  0.5782  0.0373 -0.5658
  351MOL0     C47264   9.349   2.263   7.907 -0.2824  0.6206  0.5145
  351MOL0     C47265   9.480   2.332   7.853  0.9120 -0.5623  1.0146
  351MOL0     C47266   9.447   2.444   7.752  0.5497 -0.3707  0.5992
  351MOL0     N47267   9.568   2.502   7.688  0.2608 -0.1035 -0.7253
  351MOL0     C47268   9.636   2.437   7.586 -0.1402 -1.6358  0.8715
  351MOL0     C47269   9.734   2.528   7.567  0.3835 -0.9585 -0.1669
  351MOL0     C47270   9.838   2.498   7.464  0.7132 -0.2476 -0.5569
  351MOL0     C47271   9.901   2.624   7.406 -0.0059 -0.1123 -0.0119
  351MOL0     C47272   9.978   2.594   7.280  0.0607 -0.7732 -0.3864
  351MOL0     C47273  10.026   2.725   7.220 -0.1116  0.0500 -0.4543
  351MOL0     O47274  10.109   2.687   7.116  0.4108  0.5816  0.3013
  351MOL0     C47275  10.240   2.728   7.128 -0.0130 -1.0291  0.3360
  351MOL0     C47276  10.302   2.799   7.027 -0.6908 -0.4952  0.0167
  351MOL0     C47277  10.440   2.807   7.022  0.6432  0.0166  0.3819
  351MOL0     C47278  10.487   2.877   6.887  0.0949  0.0120  0.3700
  351MOL0     C47279  10.528   2.760   7.117  0.4268  0.9002  0.0869
  351MOL0     C47280  10.675   2.759   7.114 -0.5914 -0.2506  0.4901
  351MOL0     O47281  10.730   2.717   7.224 -0.1464 -0.2036 -0.4494
  351MOL0     C47282  10.871   2.718   7.246  0.0197 -0.4766 -0.0186
  351MOL0     C47283  10.963   2.645   7.164  0.6517  0.6842 -0.5181
  351MOL0     C47284  11.099   2.666   7.180  0.5566 -0.4089  0.7035
  351MOL0     C47285  11.150   2.752   7.268  0.1718 -0.1632  0.9129
  351MOL0     O47286  11.287   2.765   7.253  1.0202 -1.3810 -0.9283
  351MOL0     C47287  11.348   2.888   7.303 -1.1313 -1.1308 -0.1283
  351MOL0     C47288  11.498   2.886   7.290  1.0202 -0.2120  0.1484
  351MOL0     C47289  11.545   2.863   7.145 -0.0440  0.2036 -0.2564
  351MOL0     C47290  11.697   2.886   7.131  0.3514 -0.0854  0.5000
  351MOL0     C47291  11.741   2.910   6.980  0.1736  0.4152  0.1046
  351MOL0     C47292  11.893   2.951   6.968  0.4410 -0.0868  0.3346
  351MOL0     C47293  11.944   2.948   6.824 -0.0283 -0.5649 -0.6042
  351MOL0     C47294  12.096   2.957   6.827  0.3479 -0.3229  0.6871
  351MOL0    Cl47295  12.144   3.113   6.913  0.1651 -0.0842  0.0585
  351MOL0     C47296  11.066   2.827   7.349  0.5241 -0.3434 -0.1115
  351MOL0     C47297  10.924   2.802   7.344 -0.0000 -0.0826  0.0388
  351MOL0     O47298  10.726   2.798   7.009  0.1848 -0.3985  0.1930
  351MOL0     C47299  10.464   2.693   7.223 -0.7769  0.3452  0.5735
  351MOL0     C47300  10.325   2.674   7.227 -0.1165 -1.1126 -0.0087
  351MOL0     N47301   9.729   2.630   7.652  0.3251 -0.5712  0.3812
  351MOL0     N47302   9.626   2.626   7.716  0.2778  0.5982 -0.0599
  351MOL0     C47303   9.431   1.827   7.615 -0.0458 -0.6432 -0.1459
  351MOL0     C47304   9.552   1.833   7.538  0.5285 -0.2521  0.6598
  351MOL0     C47305  10.010   1.743   7.448 -0.1904 -0.2500  0.3267
  351MOL0     C47306  10.143   1.780   7.474  0.0966 -0.3575  0.4493
  351MOL0     C47307  10.251   1.733   7.393  0.5568  0.2000 -0.3507
  351MOL0     C47308  10.220   1.635   7.291  0.6328 -0.8328 -0.4181
  351MOL0     O47309  10.323   1.594   7.197  0.4874  0.0513  0.1429
  351MOL0     C47310  10.390   1.471   7.232 -0.6740  0.3998 -0.2611
  351MOL0     C47311  10.504   1.509   7.322 -0.0683  0.3707  1.2783
  351MOL0     C47312  10.613   1.590   7.242 -0.7269 -0.2291  0.5167
  351MOL0     C47313  10.707   1.677   7.336  0.5611 -0.2247  0.5579
  351MOL0     C47314  10.822   1.725   7.254 -0.1738  0.0256 -0.0359
  351MOL0     C47315  10.910   1.775   7.190  0.2721  1.1129  0.5184
  351MOL0     C47316  10.089   1.601   7.270  0.7556  0.4859 -0.4207
  351MOL0     C47317   9.981   1.656   7.347 -0.4625 -0.8926  0.5675
  351MOL0     H47318   9.762   1.710   7.771 -0.9337 -0.5339 -1.3446
  351MOL0     H47319   9.582   1.720   7.907  1.7560  0.6540  0.7170
  351MOL0     H47320   9.224   1.747   7.999  1.1966  0.1407  1.3929
  351MOL0     H47321   9.381   1.718   8.004 -3.0881 -2.9042 -1.1170
  351MOL0     H47322   9.316   1.906   8.132 -1.4543 -1.0433  0.3367
  351MOL0     H47323   9.400   1.991   8.002  1.2661 -1.1647 -1.0849
  351MOL0     H47324   9.097   1.935   8.012  1.1092 -2.0750 -0.2557
  351MOL0     H47325   9.176   2.085   8.075 -0.3708  2.2846 -1.4074
  351MOL0     H47326   9.140   1.983   7.793 -0.0454 -0.6345  0.5242
  351MOL0     H47327   9.083   2.136   7.852 -1.9550 -1.3384  1.0488
  351MOL0     H47328   9.391   2.081   7.808  3.7921  3.7949  2.3878
  351MOL0     H47329   9.286   2.181   7.706 -0.2176 -1.5412 -0.9941
  351MOL0     H47330   9.269   2.334   7.923 -1.5570 -1.3352  3.7169
  351MOL0     H47331   9.365   2.217   8.005  1.1515 -0.2262 -0.0706
  351MOL0     H47332   9.550   2.370   7.928  3.2350 -0.1538 -1.2036
  351MOL0     H47333   9.542   2.260   7.799 -1.5940 -0.1250 -2.8326
  351MOL0     H47334   9.398   2.528   7.802  0.0317  0.4139 -1.1380
  351MOL0     H47335   9.389   2.416   7.663  3.2959 -0.5034 -1.2940
  351MOL0     H47336   9.611   2.345   7.535 -0.2072 -2.2282  1.9527
  351MOL0     H47337   9.914   2.436   7.512  0.8451 -0.7889 -1.4498
  351MOL0     H47338   9.797   2.436   7.384  2.6284 -4.5051  1.4702
  351MOL0     H47339   9.970   2.652   7.487 -0.8663  0.5309  0.5188
  351MOL0     H47340   9.821   2.698   7.392  0.5698  0.8889  1.6603
  351MOL0     H47341   9.921   2.543   7.202 -1.7502 -1.0037  1.0158
  351MOL0     H47342  10.055   2.523   7.314 -1.0402 -0.4377  3.2012
  351MOL0     H47343  10.079   2.789   7.292 -1.7178  0.2593  0.5822
  351MOL0     H47344   9.934   2.777   7.194 -0.6763  1.0398  2.9878
  351MOL0     H47345  10.247   2.838   6.941 -2.0737  1.0949  1.5500
  351MOL0     H47346  10.541   2.796   6.839  3.0408  1.3706  1.1726
  351MOL0     H47347  10.409   2.900   6.814  0.7274 -2.0838 -1.0274
  351MOL0     H47348  10.554   2.963   6.889 -0.3258  0.8175 -5.4239
  351MOL0     H47349  10.918   2.587   7.084 -1.4389 -0.3829  1.3145
  351MOL0     H47350  11.164   2.600   7.123  0.9090 -0.7592  1.5024
  351MOL0     H47351  11.311   2.971   7.241  1.0893 -0.6796 -0.9457
  351MOL0     H47352  11.318   2.888   7.408 -2.7695  1.6450 -0.4837
  351MOL0     H47353  11.539   2.985   7.310 -0.8437  0.8899 -1.1047
  351MOL0     H47354  11.534   2.803   7.351 -3.0742 -1.5213  1.1499
  351MOL0     H47355  11.508   2.938   7.075 -1.2095  2.1973  2.2816
  351MOL0     H47356  11.514   2.761   7.121 -0.4951 -0.5068  2.8033
  351MOL0     H47357  11.718   2.980   7.184 -1.6032 -0.8980  2.8831
  351MOL0     H47358  11.751   2.810   7.188 -1.3292  0.5369  3.1225
  351MOL0     H47359  11.676   2.983   6.931 -1.0883  1.0679  2.5877
  351MOL0     H47360  11.740   2.811   6.932  0.0726 -1.3301  3.3984
  351MOL0     H47361  11.898   3.055   7.002 -0.8052 -1.5263  5.7500
  351MOL0     H47362  11.946   2.874   7.025 -0.6024  0.3966  2.0296
  351MOL0     H47363  11.902   3.030   6.766 -1.1340  0.1708  1.1566
  351MOL0     H47364  11.933   2.855   6.768  0.6511 -0.3024 -1.1846
  351MOL0     H47365  12.143   2.951   6.729 -0.0021 -2.0882  0.5845
  351MOL0     H47366  12.138   2.878   6.891 -3.5720 -0.3333  3.6290
  351MOL0     H47367  11.105   2.902   7.417 -1.3843  1.5593 -1.0027
  351MOL0     H47368  10.852   2.860   7.401  0.8658 -0.5480  1.6539
  351MOL0     H47369  10.519   2.654   7.308  1.3776  0.5551 -0.6441
  351MOL0     H47370  10.289   2.628   7.318  1.7168 -0.2948  1.1818
  351MOL0     H47371   9.334   1.827   7.565  0.2667  0.6047 -0.7928
  351MOL0     H47372   9.536   1.862   7.434  0.0276  1.3879  1.1662
  351MOL0     H47373  10.161   1.858   7.547 -1.7867  1.0936 -0.5481
  351MOL0     H47374  10.343   1.783   7.420 -0.1859  1.2789  0.2944
  351MOL0     H47375  10.315   1.417   7.292  1.1627  1.6769  3.5155
  351MOL0     H47376  10.426   1.418   7.144 -1.9959  3.1252 -2.6022
  351MOL0     H47377  10.544   1.413   7.356  2.6881  1.4727  1.4760
  351MOL0     H47378  10.468   1.566   7.408 -2.2180 -0.0796  0.7226
  351MOL0     H47379  10.571   1.656   7.166 -3.3955  0.2705  2.2939
  351MOL0     H47380  10.672   1.513   7.191 -0.1225  2.2525 -2.9034
  351MOL0     H47381  10.743   1.608   7.413 -0.5011 -2.2777 -0.7002
  351MOL0     H47382  10.651   1.756   7.386  0.8199 -0.4630  1.2491
  351MOL0     H47383  10.997   1.825   7.150 -0.7583  2.0265 -0.6731
  351MOL0     H47384  10.049   1.524   7.206  2.6816  0.2906 -1.4880
  351MOL0     H47385   9.881   1.627   7.317 -0.5316 -0.5330  0.4360
  352MOL0     O47386   7.332   6.434   5.825  0.6497 -0.0015 -0.2221
  352MOL0     C47387   7.219   6.475   5.858  0.4292  0.4339 -0.2687
  352MOL0     O47388   7.179   6.505   5.984 -0.2951 -0.6522 -0.1574
  352MOL0     C47389   7.280   6.488   6.073  0.5380  0.0341 -0.7296
  352MOL0     C47390   7.269   6.381   6.156 -0.7538  0.2518 -0.4821
  352MOL0     C47391   7.357   6.369   6.265 -0.9445  0.7261  0.1235
  352MOL0     C47392   7.445   6.467   6.299  0.5853  0.1963  0.4237
  352MOL0     O47393   7.540   6.463   6.394  0.4790  0.1695 -0.4130
  352MOL0     C47394   7.516   6.361   6.498 -0.3220 -0.7528  0.4821
  352MOL0     C47395   7.608   6.372   6.621  0.0211 -0.5989 -0.9455
  352MOL0     C47396   7.765   6.373   6.598  0.2438 -0.5671  0.0416
  352MOL0     C47397   7.849   6.446   6.704  0.4444 -1.1516 -0.3437
  352MOL0     C47398   7.994   6.424   6.665  0.4611 -0.2113 -0.7127
  352MOL0     C47399   8.087   6.503   6.762 -0.2153 -0.5598 -0.0330
  352MOL0     C47400   8.236   6.491   6.717 -0.3392  1.0928  0.5567
  352MOL0     C47401   8.330   6.607   6.769 -0.1762  0.4369 -0.6885
  352MOL0     N47402   8.278   6.740   6.733  0.1820  0.0854  0.2777
  352MOL0     C47403   8.244   6.781   6.603  1.0997  0.2405  0.2909
  352MOL0     C47404   8.142   6.869   6.624  1.2495 -0.0692  0.9109
  352MOL0     C47405   8.051   6.922   6.521 -0.0936  0.2683  0.5928
  352MOL0     C47406   7.999   6.812   6.421  0.4901 -0.4967  0.3832
  352MOL0     C47407   7.870   6.862   6.372  0.3832  0.2220  1.0591
  352MOL0     C47408   7.822   6.747   6.276 -0.8626 -0.0431  0.3600
  352MOL0     O47409   7.898   6.772   6.156 -1.1191  0.2663  0.3205
  352MOL0     C47410   7.952   6.663   6.092 -1.0766  0.5619 -0.1831
  352MOL0     C47411   8.030   6.572   6.164 -0.1779 -0.5520 -0.6779
  352MOL0     C47412   8.109   6.472   6.101  0.1864  1.2152 -0.3110
  352MOL0     C47413   8.203   6.401   6.187 -0.0856 -0.0952 -0.0505
  352MOL0     C47414   8.098   6.462   5.964 -0.3531  0.2901  0.4714
  352MOL0     C47415   8.182   6.362   5.881 -0.1469 -0.0547  0.1586
  352MOL0     O47416   8.151   6.351   5.742 -0.0572  0.5487  0.1896
  352MOL0     C47417   8.222   6.266   5.657  0.0058  0.2331 -0.8024
  352MOL0     C47418   8.174   6.133   5.654  0.6041 -0.2355 -0.0834
  352MOL0     C47419   8.239   6.045   5.566 -0.7657 -0.1600 -0.0906
  352MOL0     C47420   8.338   6.085   5.479  1.3062 -0.7728  1.1457
  352MOL0     O47421   8.380   5.983   5.393 -0.2094  0.6430 -0.1317
  352MOL0     C47422   8.518   5.979   5.362 -0.5805 -0.2111  0.3780
  352MOL0     C47423   8.548   5.866   5.259 -0.1424  0.4577 -0.5388
  352MOL0     C47424   8.497   5.924   5.125 -0.6087 -0.4070 -0.4272
  352MOL0     C47425   8.510   5.814   5.005  0.0976  0.2744 -0.0326
  352MOL0     C47426   8.661   5.797   4.972 -0.0164 -0.2073 -0.0589
  352MOL0     C47427   8.689   5.682   4.871 -0.0265 -0.1377 -0.3155
  352MOL0     C47428   8.827   5.622   4.888  0.4085  0.9013 -0.8132
  352MOL0     C47429   8.859   5.527   4.775  0.1647  0.0538 -0.0596
  352MOL0    Cl47430   8.832   5.614   4.610 -0.2098 -0.2957 -0.6840
  352MOL0     C47431   8.388   6.213   5.490  0.5246  0.5964 -0.4829
  352MOL0     C47432   8.330   6.307   5.579 -0.3145  0.1206 -0.6359
  352MOL0     O47433   8.269   6.296   5.938  0.2692 -0.8233  0.2007
  352MOL0     C47434   8.014   6.547   5.895  0.4501  0.2157 -0.2620
  352MOL0     C47435   7.949   6.648   5.953  0.5146  0.3339 -0.4239
  352MOL0     N47436   8.123   6.893   6.762  0.8068  0.3948  0.8495
  352MOL0     N47437   8.209   6.819   6.821 -0.1402 -0.5494 -0.2839
  352MOL0     C47438   7.447   6.579   6.208  0.1324  0.7325 -0.4398
  352MOL0     C47439   7.363   6.593   6.103 -0.7683 -0.0798  0.2727
  352MOL0     C47440   7.122   6.472   5.742  0.2971 -0.0001  0.2495
  352MOL0     C47441   7.153   6.438   5.610  0.2273 -0.5208 -0.3674
  352MOL0     C47442   7.040   6.434   5.518  0.3117 -0.0107  0.3455
  352MOL0     C47443   6.910   6.446   5.557 -0.3052  0.1165 -0.3066
  352MOL0     O47444   6.803   6.429   5.473  0.2932  0.4395 -0.1457
  352MOL0     C47445   6.811   6.468   5.330  0.1103  0.6975 -0.5425
  352MOL0     C47446   6.838   6.615   5.305  0.3224  0.2201 -0.1879
  352MOL0     C47447   6.743   6.713   5.392 -0.3968  0.2259  0.1667
  352MOL0     C47448   6.806   6.848   5.436  0.1103 -0.0728 -0.3349
  352MOL0     C47449   6.930   6.827   5.522 -0.3760  0.1524  0.4825
  352MOL0     C47450   7.034   6.808   5.577 -0.3890  0.5453  0.8733
  352MOL0     C47451   6.887   6.491   5.682  0.6110 -0.0735 -0.2647
  352MOL0     C47452   6.991   6.518   5.770 -0.6391  0.4574  0.3351
  352MOL0     H47453   7.208   6.303   6.113  0.0946 -0.3910 -0.5617
  352MOL0     H47454   7.362   6.276   6.320 -1.0586  0.7824  0.2312
  352MOL0     H47455   7.414   6.370   6.536 -0.1479 -0.7242  0.9541
  352MOL0     H47456   7.509   6.258   6.462 -1.5168 -1.0069  1.3928
  352MOL0     H47457   7.583   6.458   6.683  1.7771 -1.5132  1.1786
  352MOL0     H47458   7.599   6.284   6.686 -1.2790  0.6377  0.6461
  352MOL0     H47459   7.808   6.273   6.603  1.1370 -0.1651  0.4721
  352MOL0     H47460   7.784   6.397   6.493  0.9786 -4.4383 -0.8542
  352MOL0     H47461   7.813   6.549   6.689  2.6852 -0.5082 -1.7280
  352MOL0     H47462   7.828   6.423   6.809  0.9344  2.0458  0.5794
  352MOL0     H47463   8.024   6.319   6.669  1.2606  0.0605  2.1086
  352MOL0     H47464   8.015   6.454   6.562  0.5970  0.3661 -0.5166
  352MOL0     H47465   8.050   6.606   6.756 -4.4947 -1.8736  0.3827
  352MOL0     H47466   8.080   6.474   6.867 -2.5764 -0.8395 -0.2130
  352MOL0     H47467   8.266   6.396   6.761 -0.0166  0.4745 -0.9455
  352MOL0     H47468   8.249   6.489   6.608 -0.0773 -0.4157  0.6066
  352MOL0     H47469   8.427   6.602   6.720 -0.2631 -1.2978 -0.7294
  352MOL0     H47470   8.345   6.604   6.877  1.1601  0.1437 -0.8733
  352MOL0     H47471   8.264   6.742   6.503 -0.0458  4.1657 -1.6445
  352MOL0     H47472   7.971   6.970   6.579 -0.0042  3.7531 -1.8672
  352MOL0     H47473   8.103   7.003   6.470 -2.4596 -0.5011 -3.4222
  352MOL0     H47474   7.997   6.712   6.467  2.0261 -0.9360 -0.4579
  352MOL0     H47475   8.063   6.811   6.333 -3.1982  1.0183 -2.6223
  352MOL0     H47476   7.889   6.948   6.307  0.6849 -2.4385 -2.7544
  352MOL0     H47477   7.799   6.879   6.453 -1.7509  0.8280 -0.8066
  352MOL0     H47478   7.713   6.754   6.270 -1.1947  1.1427  4.7168
  352MOL0     H47479   7.837   6.649   6.323  1.0928  0.1299  0.2012
  352MOL0     H47480   8.047   6.576   6.271 -3.3441  1.7658 -0.1183
  352MOL0     H47481   8.209   6.297   6.155  1.4100  0.1469 -0.6330
  352MOL0     H47482   8.306   6.438   6.184 -0.7912  1.9980 -0.4558
  352MOL0     H47483   8.171   6.388   6.290 -0.4369 -0.1025 -0.1574
  352MOL0     H47484   8.097   6.114   5.727 -0.1671  1.3413 -0.4584
  352MOL0     H47485   8.214   5.939   5.562  1.7222 -0.7940 -0.3279
  352MOL0     H47486   8.565   6.070   5.321 -0.5008 -1.7449 -3.3088
  352MOL0     H47487   8.581   5.954   5.448  1.4370  0.8193 -0.7125
  352MOL0     H47488   8.654   5.837   5.264 -0.3214  0.0586  2.5114
  352MOL0     H47489   8.485   5.781   5.286  1.1955 -0.5095 -0.3596
  352MOL0     H47490   8.556   6.014   5.104 -1.3138 -0.2912 -2.0517
  352MOL0     H47491   8.394   5.959   5.137 -0.8820 -1.7629  1.6886
  352MOL0     H47492   8.470   5.721   5.047 -4.7436  2.4271  0.7748
  352MOL0     H47493   8.443   5.838   4.922  0.9868 -1.2413 -1.2445
  352MOL0     H47494   8.717   5.794   5.066 -1.6254 -1.0337  0.9111
  352MOL0     H47495   8.692   5.892   4.928  2.4362 -1.6998 -1.8073
  352MOL0     H47496   8.614   5.608   4.899  0.0293 -0.3089 -0.6100
  352MOL0     H47497   8.677   5.717   4.768 -0.7071  1.2040  0.1955
  352MOL0     H47498   8.849   5.565   4.979 -0.5010 -0.5675 -1.4828
  352MOL0     H47499   8.898   5.705   4.896  0.5783  0.6696  0.2835
  352MOL0     H47500   8.799   5.436   4.788 -0.2599  0.3780  0.2599
  352MOL0     H47501   8.963   5.494   4.786 -0.8803 -3.3753  0.6966
  352MOL0     H47502   8.468   6.249   5.426  0.3112  1.6787 -0.1606
  352MOL0     H47503   8.371   6.407   5.584 -0.0737 -0.0212  2.4833
  352MOL0     H47504   8.006   6.538   5.787  2.1780 -1.1297 -0.3256
  352MOL0     H47505   7.877   6.716   5.908  1.3346  0.2876 -1.8758
  352MOL0     H47506   7.522   6.653   6.231  1.9468 -1.7830  2.4364
  352MOL0     H47507   7.370   6.679   6.038  0.4323  0.0204  0.5065
  352MOL0     H47508   7.252   6.434   5.564  0.4225  0.3144 -0.0323
  352MOL0     H47509   7.068   6.414   5.415  0.3800  0.7620  0.2119
  352MOL0     H47510   6.878   6.398   5.280 -1.8048 -2.8152  1.4326
  352MOL0     H47511   6.709   6.453   5.293 -0.7472  0.1470  1.8799
  352MOL0     H47512   6.821   6.613   5.197  4.0972  4.5017 -1.1733
  352MOL0     H47513   6.940   6.649   5.327  0.3434 -1.5338  3.1410
  352MOL0     H47514   6.718   6.668   5.488  1.4226  1.5516  1.3259
  352MOL0     H47515   6.649   6.728   5.337  0.8002  0.2804 -1.9624
  352MOL0     H47516   6.737   6.906   5.498  2.8381  2.2207  0.7820
  352MOL0     H47517   6.831   6.923   5.360  1.9813 -1.6662 -1.3692
  352MOL0     H47518   7.129   6.781   5.618 -0.2914 -1.0495 -0.3123
  352MOL0     H47519   6.784   6.516   5.702  0.3886 -0.9491 -0.2647
  352MOL0     H47520   6.971   6.545   5.873 -1.1568 -1.2323  0.7023
  353MOL0     O47521   0.654   2.204   9.258 -0.3472  0.3131  0.1855
  353MOL0     C47522   0.665   2.103   9.328 -0.7661 -0.3693 -0.6649
  353MOL0     O47523   0.768   2.014   9.325  0.6089  0.5098  0.2587
  353MOL0     C47524   0.884   2.044   9.261 -0.8174  0.2650 -0.2201
  353MOL0     C47525   0.906   1.999   9.131  0.0969  0.9781 -1.2604
  353MOL0     C47526   1.018   2.045   9.071 -0.1384 -0.1260 -0.2715
  353MOL0     C47527   1.115   2.130   9.119  0.7725  0.7353  0.6140
  353MOL0     O47528   1.215   2.171   9.036 -0.1350 -0.4793  0.6158
  353MOL0     C47529   1.302   2.272   9.083 -1.0415  0.5529  0.0223
  353MOL0     C47530   1.414   2.294   8.980  0.4231 -0.0948 -0.5926
  353MOL0     C47531   1.486   2.165   8.961 -0.4604  0.1900 -0.4682
  353MOL0     C47532   1.619   2.193   8.879  0.3160 -0.0986  0.6039
  353MOL0     C47533   1.687   2.063   8.838 -0.2593  0.3007 -0.3839
  353MOL0     C47534   1.831   2.083   8.783 -0.2333  0.9313 -0.9109
  353MOL0     C47535   1.904   1.953   8.748  0.3421 -0.3661  0.2792
  353MOL0     C47536   2.049   1.975   8.714 -1.0872 -0.3596  0.1094
  353MOL0     N47537   2.130   1.852   8.744  0.2421 -0.4486  0.0803
  353MOL0     C47538   2.193   1.792   8.635  0.5590 -0.0507  0.1300
  353MOL0     C47539   2.274   1.701   8.698 -0.1570 -0.3422  0.3438
  353MOL0     C47540   2.368   1.603   8.635 -0.2919  0.3763  0.0443
  353MOL0     C47541   2.523   1.638   8.628  0.4024 -0.2178  0.0956
  353MOL0     C47542   2.532   1.787   8.610 -0.3093  0.0466 -0.1621
  353MOL0     C47543   2.678   1.831   8.601  0.1215  0.1138 -0.2557
  353MOL0     O47544   2.742   1.762   8.496  0.2446 -0.3086 -1.0711
  353MOL0     C47545   2.876   1.788   8.493  0.4176  0.3879  0.0752
  353MOL0     C47546   2.945   1.696   8.409  0.5157 -0.0487 -0.1467
  353MOL0     C47547   3.082   1.707   8.399  0.5951  0.0361  0.0863
  353MOL0     C47548   3.160   1.596   8.328  0.4739  1.2631  0.0359
  353MOL0     C47549   3.149   1.812   8.459 -0.7742 -0.2707 -0.8047
  353MOL0     C47550   3.304   1.843   8.449  0.2996 -0.5127 -0.2231
  353MOL0     O47551   3.375   1.754   8.385  0.7184 -0.1433  0.7597
  353MOL0     C47552   3.493   1.792   8.338 -0.1099  0.2821  0.6654
  353MOL0     C47553   3.520   1.913   8.278 -0.7627 -0.0732  0.9542
  353MOL0     C47554   3.654   1.929   8.231  0.4441  0.5878  0.7763
  353MOL0     C47555   3.752   1.824   8.210  0.0972  0.2940 -0.3304
  353MOL0     O47556   3.879   1.832   8.152 -0.0500 -1.0149 -0.0948
  353MOL0     C47557   3.937   1.961   8.133  0.8017 -0.0344 -0.2628
  353MOL0     C47558   3.966   2.046   8.258 -0.2995  0.4362 -0.8913
  353MOL0     C47559   4.085   1.992   8.344 -0.0775  0.1824 -0.0433
  353MOL0     C47560   4.040   1.892   8.455 -0.6733  0.6054  1.0899
  353MOL0     C47561   4.149   1.791   8.492  0.1865  0.1118  0.3344
  353MOL0     C47562   4.271   1.864   8.558  0.1306  0.0838  0.5516
  353MOL0     C47563   4.365   1.760   8.635 -0.3676 -0.8983  0.6111
  353MOL0     C47564   4.508   1.808   8.668  0.0298  0.7499  1.2058
  353MOL0    Cl47565   4.599   1.832   8.514 -0.3021 -0.7589  0.1181
  353MOL0     C47566   3.710   1.700   8.269  0.4422  0.6670 -0.5466
  353MOL0     C47567   3.590   1.689   8.336 -0.2209  0.0310 -1.1249
  353MOL0     O47568   3.344   1.946   8.506  0.1175  0.4217 -0.6059
  353MOL0     C47569   3.075   1.904   8.534 -0.7082  0.4219 -0.0697
  353MOL0     C47570   2.943   1.894   8.554  0.2044 -0.0948  0.2135
  353MOL0     N47571   2.255   1.709   8.834 -0.6596 -0.1995 -0.6142
  353MOL0     N47572   2.171   1.802   8.859 -0.4250  0.0441  0.4353
  353MOL0     C47573   1.096   2.163   9.260 -0.0894 -0.6267 -0.1586
  353MOL0     C47574   0.978   2.130   9.322 -0.5121  0.5418 -0.3581
  353MOL0     C47575   0.560   2.070   9.425  0.3438  0.8626  0.5046
  353MOL0     C47576   0.434   2.128   9.412 -0.1740 -0.3530  0.6634
  353MOL0     C47577   0.335   2.083   9.504 -0.0256 -0.7090  0.6888
  353MOL0     C47578   0.362   2.012   9.613  0.2824  0.0040 -0.3167
  353MOL0     O47579   0.263   1.960   9.702 -0.3503 -0.1233 -0.2694
  353MOL0     C47580   0.163   1.887   9.626 -0.2146 -0.5916  0.5918
  353MOL0     C47581   0.171   1.739   9.664 -0.6354 -0.3414  0.1559
  353MOL0     C47582   0.199   1.717   9.815 -0.2943 -0.2918 -0.9926
  353MOL0     C47583   0.165   1.585   9.882 -0.3749  0.2646 -0.5035
  353MOL0     C47584   0.247   1.479   9.823 -0.2500  0.4228  0.1981
  353MOL0     C47585   0.331   1.398   9.780  0.5910 -1.2058  0.4288
  353MOL0     C47586   0.494   1.983   9.645  0.5257 -0.5483  0.4825
  353MOL0     C47587   0.587   1.992   9.539 -0.2209 -0.0312  0.7597
  353MOL0     H47588   0.831   1.930   9.094 -0.3922  1.5567 -1.3643
  353MOL0     H47589   1.021   2.027   8.964 -1.3230 -1.5435 -0.1039
  353MOL0     H47590   1.248   2.362   9.112  1.7643  1.8056  1.7731
  353MOL0     H47591   1.358   2.228   9.167  0.8436  1.6084 -0.6272
  353MOL0     H47592   1.375   2.331   8.884  2.7024  1.9935 -0.8271
  353MOL0     H47593   1.479   2.370   9.025 -0.1071  0.0955 -0.1452
  353MOL0     H47594   1.514   2.129   9.061 -3.2468 -1.9069 -0.3406
  353MOL0     H47595   1.425   2.089   8.912  0.4382 -1.0263  0.2435
  353MOL0     H47596   1.592   2.241   8.784 -1.7224 -0.4160  0.9776
  353MOL0     H47597   1.688   2.241   8.949 -1.9465 -0.4297  3.2513
  353MOL0     H47598   1.690   1.993   8.922  0.9612  1.8844  0.9728
  353MOL0     H47599   1.626   2.027   8.755  1.8659 -1.3984 -1.2897
  353MOL0     H47600   1.821   2.149   8.696 -5.0267  0.5834 -0.8958
  353MOL0     H47601   1.883   2.132   8.865 -1.6603 -1.7392  1.7757
  353MOL0     H47602   1.906   1.875   8.825  0.9275 -1.3207 -0.6709
  353MOL0     H47603   1.863   1.907   8.657  0.2079 -0.8643  0.5905
  353MOL0     H47604   2.091   2.056   8.774 -1.0085 -0.0979 -0.3004
  353MOL0     H47605   2.060   1.994   8.607  0.4058 -0.3896  0.2384
  353MOL0     H47606   2.184   1.830   8.534 -1.7052 -0.2879  0.1987
  353MOL0     H47607   2.361   1.513   8.697 -0.1933  0.0093 -0.4677
  353MOL0     H47608   2.319   1.596   8.537 -1.7805 -0.9537  0.8395
  353MOL0     H47609   2.556   1.574   8.546  0.7458  2.8355 -2.3282
  353MOL0     H47610   2.571   1.604   8.720 -2.2156 -0.2943  1.5225
  353MOL0     H47611   2.482   1.842   8.690 -0.9734 -0.4993 -0.1901
  353MOL0     H47612   2.480   1.814   8.517 -0.6359 -1.8671 -0.5764
  353MOL0     H47613   2.731   1.806   8.693  0.7979  1.3361 -0.2986
  353MOL0     H47614   2.676   1.939   8.586 -0.4330  0.3726  1.4425
  353MOL0     H47615   2.890   1.610   8.372  2.0419 -0.2866 -2.0116
  353MOL0     H47616   3.230   1.547   8.395 -0.5187  2.0192  1.6891
  353MOL0     H47617   3.085   1.526   8.289 -0.0623  1.6791  0.2970
  353MOL0     H47618   3.219   1.618   8.238 -1.8438 -1.4732 -2.3990
  353MOL0     H47619   3.445   1.990   8.262 -0.5140  0.3932  1.9299
  353MOL0     H47620   3.672   2.026   8.185  2.3529 -0.7563 -1.5174
  353MOL0     H47621   4.036   1.948   8.088  1.3662 -1.0643  1.2201
  353MOL0     H47622   3.878   2.029   8.070  3.1596  1.7187 -0.7031
  353MOL0     H47623   3.977   2.147   8.219 -1.4263  0.0729 -2.2685
  353MOL0     H47624   3.877   2.044   8.322  0.0032 -0.5918 -0.4844
  353MOL0     H47625   4.134   2.078   8.391  2.6608 -0.6008 -1.2655
  353MOL0     H47626   4.162   1.942   8.284  1.0498 -2.3032  3.1600
  353MOL0     H47627   4.001   1.937   8.547 -1.2701 -0.4836  1.3830
  353MOL0     H47628   3.960   1.836   8.405  0.7171  0.1094 -0.6733
  353MOL0     H47629   4.173   1.736   8.400 -1.4625 -2.1681  1.1507
  353MOL0     H47630   4.102   1.718   8.558 -0.7573 -2.6801 -3.0818
  353MOL0     H47631   4.327   1.919   8.482 -2.8923 -0.3227 -2.2053
  353MOL0     H47632   4.241   1.946   8.625  1.4960 -1.4219  3.1842
  353MOL0     H47633   4.379   1.664   8.586  2.6587  0.6701 -1.8925
  353MOL0     H47634   4.308   1.754   8.729  1.1676 -1.1483  1.5649
  353MOL0     H47635   4.551   1.724   8.724 -3.2846 -1.1701  1.1049
  353MOL0     H47636   4.518   1.898   8.729 -0.4206  1.5172  0.1654
  353MOL0     H47637   3.776   1.614   8.259  0.5007  0.3330  2.0591
  353MOL0     H47638   3.564   1.592   8.375  1.2854  0.2141  0.4724
  353MOL0     H47639   3.119   1.989   8.585  1.3080 -1.8344  2.2498
  353MOL0     H47640   2.884   1.960   8.618 -2.4880 -0.9238 -1.2547
  353MOL0     H47641   1.169   2.226   9.312 -0.6830  1.2501 -1.4738
  353MOL0     H47642   0.950   2.175   9.416 -0.4016 -3.9195  2.0958
  353MOL0     H47643   0.412   2.203   9.337 -2.1584 -1.4420  0.0799
  353MOL0     H47644   0.240   2.134   9.489  1.5273  2.1329 -0.3089
  353MOL0     H47645   0.064   1.917   9.659 -0.5291 -2.3778  1.4163
  353MOL0     H47646   0.155   1.904   9.519 -3.7898  0.4314  0.8956
  353MOL0     H47647   0.247   1.702   9.595 -0.1069 -1.3111  1.2159
  353MOL0     H47648   0.077   1.685   9.646 -0.9812 -0.3207  1.7286
  353MOL0     H47649   0.147   1.791   9.877 -0.1519 -2.4169  1.8348
  353MOL0     H47650   0.306   1.733   9.835 -0.4112 -2.6612  2.5404
  353MOL0     H47651   0.058   1.566   9.874 -0.2262 -0.3428 -1.2099
  353MOL0     H47652   0.189   1.591   9.988 -0.8077  1.9130 -0.4704
  353MOL0     H47653   0.406   1.327   9.751 -0.8564 -2.4771 -0.3668
  353MOL0     H47654   0.531   1.937   9.737 -2.1175 -1.5308  1.1704
  353MOL0     H47655   0.680   1.940   9.559  1.6865  2.5323 -0.7757
  354MOL0     O47656   9.473   0.005   7.219  0.3764  0.0362  0.5866
  354MOL0     C47657   9.566  -0.073   7.221  0.3184  0.0146  0.2222
  354MOL0     O47658   9.548  -0.214   7.209  0.0671 -0.0289 -0.6532
  354MOL0     C47659   9.423  -0.268   7.203 -0.7556  0.1479 -0.0689
  354MOL0     C47660   9.378  -0.351   7.097  0.2389 -0.3015 -0.0991
  354MOL0     C47661   9.249  -0.403   7.097  0.2559  0.3434 -0.0269
  354MOL0     C47662   9.167  -0.384   7.213  0.2878  1.1880  0.7097
  354MOL0     O47663   9.047  -0.448   7.194  0.0568  0.2557  0.2271
  354MOL0     C47664   8.962  -0.432   7.295 -0.3811 -0.3128 -0.2997
  354MOL0     C47665   8.851  -0.541   7.290 -0.3955 -0.9921 -0.5206
  354MOL0     C47666   8.736  -0.491   7.202 -0.3042 -0.4214 -0.5472
  354MOL0     C47667   8.652  -0.611   7.152  0.5158 -0.8743  0.5585
  354MOL0     C47668   8.523  -0.577   7.059  1.2343  0.4674  0.0073
  354MOL0     C47669   8.460  -0.705   7.006 -0.6616  0.3454  0.0376
  354MOL0     C47670   8.329  -0.680   6.948  0.8163 -0.4204  0.3811
  354MOL0     C47671   8.280  -0.820   6.894 -0.1426 -1.7313 -0.0639
  354MOL0     N47672   8.179  -0.822   6.790 -0.0124  0.9055 -0.0782
  354MOL0     C47673   8.060  -0.752   6.798  0.3388  0.1209  0.1302
  354MOL0     C47674   8.002  -0.775   6.674 -0.1199  0.0140 -0.3256
  354MOL0     C47675   7.868  -0.712   6.627  0.2473  1.4539  0.4169
  354MOL0     C47676   7.856  -0.699   6.475  0.4668 -1.1075  0.6200
  354MOL0     C47677   7.790  -0.823   6.407  0.5259 -0.6801  0.1762
  354MOL0     C47678   7.632  -0.809   6.413 -0.1501 -0.3700  0.3785
  354MOL0     O47679   7.587  -0.807   6.278 -0.2919  0.3577 -0.4646
  354MOL0     C47680   7.543  -0.690   6.227  0.0273  0.9888  0.4733
  354MOL0     C47681   7.551  -0.679   6.086  0.5726  0.8006 -0.6485
  354MOL0     C47682   7.538  -0.559   6.016 -0.2245  0.8906  0.5276
  354MOL0     C47683   7.560  -0.569   5.874 -0.8613 -0.0239 -0.6543
  354MOL0     C47684   7.497  -0.440   6.081 -0.2203 -0.3177 -1.0216
  354MOL0     C47685   7.471  -0.317   6.011 -0.4681  0.4122 -0.2298
  354MOL0     O47686   7.522  -0.199   6.065 -0.1023 -0.0789  0.4891
  354MOL0     C47687   7.503  -0.075   6.012  0.7965 -0.7383 -1.4394
  354MOL0     C47688   7.387  -0.005   6.044  0.4960 -0.1291  0.0188
  354MOL0     C47689   7.371   0.130   6.018  0.1926 -0.3960  0.5888
  354MOL0     C47690   7.472   0.198   5.940  1.0253 -0.3395 -0.0870
  354MOL0     O47691   7.440   0.329   5.907  0.7756 -0.2257  1.0176
  354MOL0     C47692   7.528   0.402   5.811  0.4311  0.3286 -0.7263
  354MOL0     C47693   7.470   0.530   5.778 -0.3859  0.6052  0.4036
  354MOL0     C47694   7.321   0.517   5.723 -0.6261 -0.0710 -0.8172
  354MOL0     C47695   7.259   0.648   5.667  0.0315  0.1016 -0.7003
  354MOL0     C47696   7.107   0.630   5.634  0.1237 -0.5889 -0.5883
  354MOL0     C47697   7.045   0.769   5.609  0.6714 -0.4585  0.4421
  354MOL0     C47698   6.894   0.738   5.566  0.1599  0.9940  0.3090
  354MOL0     C47699   6.809   0.867   5.600 -0.2806 -0.4245 -0.7060
  354MOL0    Cl47700   6.643   0.843   5.549  0.3848 -0.3615 -0.0206
  354MOL0     C47701   7.585   0.127   5.903 -1.1816  0.0643  0.2079
  354MOL0     C47702   7.609  -0.009   5.949 -0.0177 -0.5941 -0.1961
  354MOL0     O47703   7.412  -0.328   5.906 -0.4182  0.3659 -0.4765
  354MOL0     C47704   7.482  -0.446   6.221  0.2060 -0.1383  0.9691
  354MOL0     C47705   7.502  -0.567   6.292  0.3796  0.8460  0.4500
  354MOL0     N47706   8.083  -0.865   6.609 -0.7780 -0.0027  0.4373
  354MOL0     N47707   8.194  -0.891   6.669  0.4135 -0.3785 -0.1029
  354MOL0     C47708   9.213  -0.308   7.314 -0.7472 -0.3846 -0.3630
  354MOL0     C47709   9.335  -0.250   7.313  0.6533 -0.2818 -0.1152
  354MOL0     C47710   9.700  -0.034   7.245  0.2438  0.1073 -0.0947
  354MOL0     C47711   9.812  -0.125   7.249  0.3129 -1.3717  0.7326
  354MOL0     C47712   9.938  -0.084   7.292  0.1045  0.0468 -0.0620
  354MOL0     C47713   9.958   0.046   7.318 -0.5092 -1.1583  0.3334
  354MOL0     O47714  10.075   0.085   7.367 -0.3892 -0.4936  0.1921
  354MOL0     C47715  10.068   0.117   7.510  0.4323 -0.2770 -0.2390
  354MOL0     C47716  10.194   0.062   7.587 -0.2807 -0.0676  0.3730
  354MOL0     C47717  10.189   0.094   7.736 -0.9005  1.0115 -0.0392
  354MOL0     C47718  10.092   0.011   7.821 -0.2760  0.8021 -0.3522
  354MOL0     C47719  10.067   0.046   7.955  0.3973 -0.1311  0.0193
  354MOL0     C47720  10.036   0.063   8.068 -0.7054  0.2604  0.6182
  354MOL0     C47721   9.856   0.144   7.311  0.6287  0.6545 -0.1626
  354MOL0     C47722   9.730   0.104   7.264 -0.0596  0.1906 -0.7263
  354MOL0     H47723   9.447  -0.358   7.012 -0.4293  2.3105 -0.9572
  354MOL0     H47724   9.206  -0.457   7.013 -1.0383  1.5891 -0.2008
  354MOL0     H47725   9.010  -0.442   7.392 -0.5263  0.1644 -0.1752
  354MOL0     H47726   8.918  -0.332   7.298 -2.1707 -0.9747 -2.1884
  354MOL0     H47727   8.890  -0.629   7.238  1.6757  0.0632 -0.8344
  354MOL0     H47728   8.826  -0.576   7.391  0.8526 -1.1213 -0.2291
  354MOL0     H47729   8.687  -0.408   7.253  3.0767  0.8639  0.8733
  354MOL0     H47730   8.785  -0.464   7.108 -0.2781 -2.6896 -1.2472
  354MOL0     H47731   8.720  -0.679   7.099 -0.8537 -3.1536  1.6038
  354MOL0     H47732   8.611  -0.650   7.245  2.1705 -0.3743  1.5494
  354MOL0     H47733   8.454  -0.520   7.123  1.3934  0.5912  0.0694
  354MOL0     H47734   8.553  -0.519   6.972  1.0199 -1.1862 -1.2093
  354MOL0     H47735   8.532  -0.748   6.936  0.9716  0.9827  1.2865
  354MOL0     H47736   8.447  -0.780   7.084  0.3803 -0.4320 -0.5039
  354MOL0     H47737   8.265  -0.636   7.025  3.3442 -0.3949  2.5853
  354MOL0     H47738   8.333  -0.613   6.861 -1.1317 -0.7160  0.0166
  354MOL0     H47739   8.247  -0.870   6.986 -3.8252  1.6352  0.7152
  354MOL0     H47740   8.365  -0.876   6.854  1.9002  1.7320 -0.9755
  354MOL0     H47741   8.022  -0.682   6.873  0.7507  0.9735 -0.4396
  354MOL0     H47742   7.772  -0.748   6.666 -1.2912  3.2369 -1.4808
  354MOL0     H47743   7.870  -0.615   6.679  3.0730  1.1448  1.0452
  354MOL0     H47744   7.955  -0.687   6.430  0.8907 -1.7521  1.3464
  354MOL0     H47745   7.801  -0.611   6.443  0.7943 -0.2992  2.1877
  354MOL0     H47746   7.820  -0.916   6.457 -1.1495  0.2061  3.1007
  354MOL0     H47747   7.811  -0.829   6.300 -0.2274 -0.2193 -0.0044
  354MOL0     H47748   7.603  -0.723   6.474  1.4503 -0.4378  1.3176
  354MOL0     H47749   7.593  -0.904   6.450 -0.6309 -0.0726  0.6481
  354MOL0     H47750   7.561  -0.767   6.023 -1.9939 -1.4075  1.7749
  354MOL0     H47751   7.577  -0.469   5.835 -1.1543  1.7560  3.2985
  354MOL0     H47752   7.644  -0.634   5.848 -1.2769  0.5973 -4.1102
  354MOL0     H47753   7.470  -0.614   5.832 -1.9565  0.6520  0.8786
  354MOL0     H47754   7.303  -0.056   6.092  0.2522 -0.7729 -1.0608
  354MOL0     H47755   7.281   0.185   6.045  0.6567 -0.0835  1.5423
  354MOL0     H47756   7.627   0.406   5.858  1.3361 -3.0520 -2.0176
  354MOL0     H47757   7.542   0.325   5.734 -0.2408 -3.3256  2.4850
  354MOL0     H47758   7.481   0.584   5.872 -0.6599  1.9746 -0.3261
  354MOL0     H47759   7.538   0.584   5.711 -1.3025  3.6940  1.7875
  354MOL0     H47760   7.261   0.480   5.807  0.3888  2.1716  1.0074
  354MOL0     H47761   7.316   0.449   5.638 -2.1290  0.5230 -1.2437
  354MOL0     H47762   7.267   0.725   5.744 -2.9846 -1.5969  1.5492
  354MOL0     H47763   7.322   0.686   5.587 -0.3286  2.8294  0.1920
  354MOL0     H47764   7.053   0.579   5.715  1.4715  2.4320  2.4276
  354MOL0     H47765   7.079   0.583   5.539 -2.9991 -0.5987  0.2184
  354MOL0     H47766   7.060   0.830   5.699  3.4059 -0.3440  0.0064
  354MOL0     H47767   7.104   0.823   5.535  0.0655  1.3640  1.2351
  354MOL0     H47768   6.858   0.654   5.626 -4.3532  2.1546 -0.3864
  354MOL0     H47769   6.896   0.704   5.462 -0.4152  0.3258  0.5111
  354MOL0     H47770   6.857   0.951   5.548  0.2880 -0.9296 -1.0126
  354MOL0     H47771   6.822   0.885   5.707  1.4215  2.6192 -1.3004
  354MOL0     H47772   7.664   0.180   5.852  0.8961 -1.1432  1.9825
  354MOL0     H47773   7.703  -0.062   5.944 -0.6801 -1.7289 -0.8859
  354MOL0     H47774   7.455  -0.358   6.279  0.2464  0.7611 -0.3275
  354MOL0     H47775   7.495  -0.568   6.400 -0.1205  0.1358  0.4187
  354MOL0     H47776   9.162  -0.296   7.409 -0.3938  0.6623 -0.2959
  354MOL0     H47777   9.362  -0.201   7.406  0.5966  2.4463 -1.4444
  354MOL0     H47778   9.795  -0.229   7.226 -1.9213 -0.5142 -2.0616
  354MOL0     H47779  10.029  -0.143   7.301 -0.2177 -0.4958 -0.3439
  354MOL0     H47780  10.069   0.225   7.524 -1.5388  0.3437 -3.5733
  354MOL0     H47781   9.991   0.056   7.558  2.2000 -1.1590  1.6319
  354MOL0     H47782  10.288   0.103   7.548  0.0290 -1.7336 -0.7521
  354MOL0     H47783  10.197  -0.048   7.585 -1.6666 -0.1530  1.5981
  354MOL0     H47784  10.175   0.203   7.742  2.3701  1.6328 -1.3962
  354MOL0     H47785  10.291   0.071   7.766 -1.4045 -0.7598  0.4064
  354MOL0     H47786  10.125  -0.093   7.824 -4.6290 -0.7768  0.0197
  354MOL0     H47787   9.999   0.017   7.764  0.1557  3.6307 -0.9069
  354MOL0     H47788  10.000   0.090   8.166 -3.1637  0.0323 -0.1623
  354MOL0     H47789   9.873   0.246   7.344 -1.4586  1.1829 -0.5595
  354MOL0     H47790   9.647   0.173   7.274  0.2252  0.3501  0.9372
  355MOL0     O47791   7.309   9.890   8.711  0.7438  0.3149 -0.1615
  355MOL0     C47792   7.325   9.997   8.769 -0.9599  0.1396 -0.2555
  355MOL0     O47793   7.228  10.092   8.788 -0.0711  1.1682 -0.1356
  355MOL0     C47794   7.099  10.066   8.730 -0.0908 -2.0288 -1.2869
  355MOL0     C47795   6.994  10.086   8.826 -0.7715 -0.1035  0.5415
  355MOL0     C47796   6.859  10.060   8.782  1.4989 -0.3967  0.6173
  355MOL0     C47797   6.831  10.016   8.650  0.7844 -0.7083  0.3242
  355MOL0     O47798   6.701   9.999   8.612  0.5082 -0.5913 -0.3445
  355MOL0     C47799   6.674   9.917   8.500  0.2117 -0.4944  0.0198
  355MOL0     C47800   6.645  10.015   8.384  0.5954 -0.4281  0.5471
  355MOL0     C47801   6.636   9.928   8.255 -0.3190 -0.1377 -0.2128
  355MOL0     C47802   6.674  10.013   8.130 -0.1066 -0.5787 -1.3039
  355MOL0     C47803   6.708   9.932   8.011  0.2092 -0.3280  0.3200
  355MOL0     C47804   6.858   9.946   7.963  0.5330  0.3869  0.5040
  355MOL0     C47805   6.955   9.882   8.058  0.5923 -0.1141  0.3733
  355MOL0     C47806   7.099   9.922   8.030  0.1257 -0.3252  0.3980
  355MOL0     N47807   7.198   9.891   8.126  0.6171  0.5600 -0.5652
  355MOL0     C47808   7.322   9.952   8.133 -0.6119 -0.3349  0.1542
  355MOL0     C47809   7.381   9.899   8.245 -0.4487  0.6632  0.1250
  355MOL0     C47810   7.516   9.942   8.285 -0.9423 -0.0849 -0.1491
  355MOL0     C47811   7.586   9.823   8.352 -0.1609  0.0756 -0.0605
  355MOL0     C47812   7.736   9.846   8.390  0.0090 -0.9145  0.1593
  355MOL0     C47813   7.815   9.722   8.427  0.2201 -0.2140  0.2974
  355MOL0     O47814   7.723   9.639   8.502 -0.4433 -0.5047 -0.7126
  355MOL0     C47815   7.738   9.613   8.636 -0.7722 -1.0202 -0.4440
  355MOL0     C47816   7.623   9.574   8.709 -0.6162 -0.5238 -0.0149
  355MOL0     C47817   7.622   9.544   8.846 -0.1851 -0.2919 -0.0265
  355MOL0     C47818   7.483   9.507   8.903  0.0702 -0.8995  0.2203
  355MOL0     C47819   7.743   9.535   8.920  0.7481 -0.7319  0.0983
  355MOL0     C47820   7.755   9.488   9.055 -0.3005 -0.0549 -0.1489
  355MOL0     O47821   7.882   9.445   9.100  0.6720  0.3575 -0.3038
  355MOL0     C47822   7.906   9.393   9.227  0.4392  0.0699  0.6496
  355MOL0     C47823   7.823   9.300   9.283  0.4688 -0.4379 -1.4488
  355MOL0     C47824   7.855   9.240   9.405 -0.7498  0.3541  0.3007
  355MOL0     C47825   7.971   9.273   9.465 -0.4773 -0.0422 -0.1925
  355MOL0     O47826   8.003   9.213   9.582  0.2943 -0.1463  0.0285
  355MOL0     C47827   7.917   9.249   9.689 -0.1512 -0.0349 -0.3376
  355MOL0     C47828   8.002   9.215   9.813  0.1887 -0.0097  0.5350
  355MOL0     C47829   8.043   9.069   9.828  0.0641  0.3216  0.0383
  355MOL0     C47830   8.175   9.060   9.903 -0.6293 -0.0861 -0.5783
  355MOL0     C47831   8.298   9.133   9.840 -0.3782  0.3987  0.0029
  355MOL0     C47832   8.312   9.135   9.692  0.0183  1.1017 -0.0410
  355MOL0     C47833   8.459   9.169   9.658 -0.9779 -0.4180 -0.6113
  355MOL0     C47834   8.557   9.046   9.663 -0.1541 -0.3647 -0.5135
  355MOL0    Cl47835   8.722   9.102   9.662  0.1296 -0.2512 -0.0004
  355MOL0     C47836   8.063   9.364   9.408 -0.4635  0.3454 -0.3881
  355MOL0     C47837   8.029   9.417   9.287  0.5688  0.3184 -0.3557
  355MOL0     O47838   7.653   9.489   9.122 -0.2463 -0.0848  0.1736
  355MOL0     C47839   7.856   9.567   8.845 -0.1046  0.4770  0.2208
  355MOL0     C47840   7.854   9.622   8.710 -0.7590  0.5704  0.2992
  355MOL0     N47841   7.295   9.809   8.309  0.2726  0.0048  0.4455
  355MOL0     N47842   7.190   9.802   8.231 -0.3891 -0.4125  0.4571
  355MOL0     C47843   6.944   9.989   8.571  0.1068 -0.4079  0.0967
  355MOL0     C47844   7.076  10.020   8.606 -0.4002 -0.6689 -0.2751
  355MOL0     C47845   7.465  10.046   8.800  0.0569  1.0044 -0.3527
  355MOL0     C47846   7.481  10.171   8.849 -0.9475 -0.5105  0.2021
  355MOL0     C47847   7.613  10.214   8.876  0.4448  0.2870 -0.1965
  355MOL0     C47848   7.726  10.138   8.843  0.5024  0.3448 -0.1405
  355MOL0     O47849   7.853  10.187   8.870 -0.6259 -0.0840  0.2515
  355MOL0     C47850   7.874  10.214   9.007 -0.2003 -0.2548  0.0950
  355MOL0     C47851   7.849  10.098   9.102 -0.1825  0.9657 -0.1399
  355MOL0     C47852   7.940   9.968   9.086 -0.4701  0.6097  0.2222
  355MOL0     C47853   7.894   9.850   9.172 -1.1623  0.1947  0.1137
  355MOL0     C47854   7.753   9.822   9.153 -0.5031  0.1498 -0.3330
  355MOL0     C47855   7.641   9.798   9.129 -0.3597 -0.0529  0.3041
  355MOL0     C47856   7.705  10.015   8.792  0.0165 -0.2400  0.9858
  355MOL0     C47857   7.572   9.963   8.774  0.2176 -0.0374  0.6258
  355MOL0     H47858   7.014  10.142   8.917 -0.2723  0.0898  0.3135
  355MOL0     H47859   6.769  10.067   8.843  0.1182 -2.8400 -0.9455
  355MOL0     H47860   6.747   9.838   8.482 -1.1701 -1.6864 -0.5382
  355MOL0     H47861   6.577   9.869   8.511 -0.4189  0.9362  0.9526
  355MOL0     H47862   6.554  10.069   8.411  0.8559 -0.7716  2.2959
  355MOL0     H47863   6.726  10.088   8.376 -1.2562  1.6379 -0.1816
  355MOL0     H47864   6.711   9.849   8.262 -0.7913 -0.4583  4.0751
  355MOL0     H47865   6.536   9.885   8.243  0.0424 -0.2491 -3.9981
  355MOL0     H47866   6.594  10.087   8.116 -1.0195 -1.7199 -2.2241
  355MOL0     H47867   6.765  10.065   8.162 -0.9350  0.4987 -0.5896
  355MOL0     H47868   6.691   9.826   8.033  2.6899 -0.4126  2.3144
  355MOL0     H47869   6.637   9.956   7.932  0.9665 -0.9997 -0.5830
  355MOL0     H47870   6.873   9.905   7.863 -0.5854  0.5217  0.2708
  355MOL0     H47871   6.869  10.054   7.961 -0.4189  0.5510  2.2554
  355MOL0     H47872   6.928   9.918   8.158 -0.9807  1.7962 -0.6473
  355MOL0     H47873   6.940   9.775   8.041  1.8906 -0.5442  1.7681
  355MOL0     H47874   7.105  10.031   8.023  2.9022 -0.5125 -2.3450
  355MOL0     H47875   7.125   9.884   7.931  1.3795  1.7270 -0.1290
  355MOL0     H47876   7.365  10.022   8.062 -1.4389 -1.3395 -1.3938
  355MOL0     H47877   7.571   9.974   8.196  2.5308 -0.7528  1.5596
  355MOL0     H47878   7.509  10.021   8.360 -0.8459  0.0879 -0.3194
  355MOL0     H47879   7.578   9.733   8.292  0.3359 -0.8824  1.2499
  355MOL0     H47880   7.530   9.810   8.446 -0.5444  1.2767 -0.1057
  355MOL0     H47881   7.728   9.923   8.468  1.1927 -0.2494 -0.3290
  355MOL0     H47882   7.787   9.897   8.308 -2.2148 -0.0975 -0.7867
  355MOL0     H47883   7.901   9.751   8.488  1.4625 -3.1078  0.0786
  355MOL0     H47884   7.856   9.672   8.339 -2.7192 -0.0316 -1.2940
  355MOL0     H47885   7.531   9.567   8.651 -1.8670  1.2654  1.6258
  355MOL0     H47886   7.404   9.498   8.829 -0.4441 -0.9881  0.7715
  355MOL0     H47887   7.499   9.411   8.953  3.1281 -0.7488 -0.3043
  355MOL0     H47888   7.452   9.589   8.969  1.5382  1.8535 -2.2437
  355MOL0     H47889   7.726   9.275   9.243 -0.9303 -0.8959  1.8638
  355MOL0     H47890   7.794   9.160   9.447 -0.2467 -1.7293 -2.6734
  355MOL0     H47891   7.885   9.353   9.685  0.4931  0.2035  0.4221
  355MOL0     H47892   7.828   9.186   9.677  0.3257 -0.4827 -1.7287
  355MOL0     H47893   8.098   9.265   9.797  1.6318 -3.0270 -0.9631
  355MOL0     H47894   7.953   9.241   9.908  0.8238  0.5568  0.7190
  355MOL0     H47895   8.048   9.013   9.734 -1.4499 -2.2624  1.3615
  355MOL0     H47896   7.965   9.017   9.885  2.2216 -2.2749  0.8528
  355MOL0     H47897   8.168   9.098  10.006 -0.4795 -0.8452 -0.2817
  355MOL0     H47898   8.193   8.952   9.907  0.0709  0.0286 -0.5584
  355MOL0     H47899   8.390   9.090   9.882 -1.5993 -1.3317  1.0080
  355MOL0     H47900   8.293   9.235   9.879 -0.2893 -0.1821  1.6234
  355MOL0     H47901   8.280   9.041   9.646 -2.4984  0.6004  2.4892
  355MOL0     H47902   8.250   9.213   9.647  0.3991  0.4296 -1.8386
  355MOL0     H47903   8.492   9.244   9.731 -0.6912 -1.0517 -0.0847
  355MOL0     H47904   8.456   9.208   9.555 -1.3323 -0.6250 -0.6795
  355MOL0     H47905   8.547   8.988   9.571 -0.9263  0.7571 -1.1677
  355MOL0     H47906   8.527   8.982   9.746 -1.1116 -2.5157 -2.3853
  355MOL0     H47907   8.157   9.392   9.454 -2.1001  5.6467  0.4209
  355MOL0     H47908   8.104   9.478   9.237  2.4242 -2.3748 -1.0820
  355MOL0     H47909   7.955   9.540   8.882 -0.7215 -3.9970 -0.8164
  355MOL0     H47910   7.952   9.650   8.673  0.5556 -1.8238  1.6989
  355MOL0     H47911   6.934   9.937   8.476  0.6356 -0.7928  0.2466
  355MOL0     H47912   7.171  10.010   8.555  1.7606 -3.2725  3.7170
  355MOL0     H47913   7.398  10.230   8.885 -1.5239 -0.1493 -1.6250
  355MOL0     H47914   7.627  10.311   8.923  1.1984 -0.1798  0.5609
  355MOL0     H47915   7.977  10.244   9.029 -0.7909  2.3995 -0.4888
  355MOL0     H47916   7.809  10.299   9.029 -0.9301  0.2589 -3.4323
  355MOL0     H47917   7.744  10.068   9.092 -0.1037  0.0835  1.3956
  355MOL0     H47918   7.863  10.143   9.201 -2.0783  2.4424 -0.4629
  355MOL0     H47919   8.048   9.989   9.087  0.1275 -2.1292  0.8106
  355MOL0     H47920   7.928   9.940   8.981  2.4096  1.3776 -0.4063
  355MOL0     H47921   7.910   9.879   9.276  1.8725 -2.9249  0.6723
  355MOL0     H47922   7.960   9.765   9.158 -0.1833  1.2671 -2.3768
  355MOL0     H47923   7.538   9.772   9.116 -1.9215  4.0344  2.5426
  355MOL0     H47924   7.785   9.951   8.757 -1.2457 -1.0342 -0.5793
  355MOL0     H47925   7.557   9.872   8.717 -0.4997  0.2260  0.3844
  356MOL0     O47926   8.882   9.982  10.510  0.1095 -0.0715 -0.1237
  356MOL0     C47927   8.922   9.957  10.394  0.3828 -0.3722 -0.2520
  356MOL0     O47928   8.856   9.879  10.304  0.1681 -0.3148 -0.8426
  356MOL0     C47929   8.731   9.831  10.326 -0.3688 -0.5048 -0.1570
  356MOL0     C47930   8.714   9.698  10.287  0.0690  0.1908 -0.1800
  356MOL0     C47931   8.598   9.630  10.318  0.4972 -0.6424  0.3921
  356MOL0     C47932   8.488   9.699  10.370 -0.2954 -0.0873  0.8017
  356MOL0     O47933   8.369   9.638  10.403 -1.1304  0.3385  0.0317
  356MOL0     C47934   8.384   9.519  10.479  0.9304  0.5301 -0.0304
  356MOL0     C47935   8.297   9.515  10.604 -0.0896 -1.4422  0.4954
  356MOL0     C47936   8.324   9.383  10.685 -0.4272 -0.1560 -0.1891
  356MOL0     C47937   8.211   9.372  10.777  0.3106  0.3001 -0.4508
  356MOL0     C47938   8.189   9.228  10.833 -0.3584  0.3747 -1.2859
  356MOL0     C47939   8.061   9.230  10.912 -1.0670  0.0997  1.0718
  356MOL0     C47940   8.037   9.101  10.968 -2.0601  0.4633  0.9259
  356MOL0     C47941   7.897   9.082  11.031 -0.3546  0.7621  0.4476
  356MOL0     N47942   7.849   8.944  11.046 -0.1240  0.0362  0.3539
  356MOL0     C47943   7.775   8.875  10.951 -0.0258 -0.6319 -0.2512
  356MOL0     C47944   7.750   8.760  11.013  0.8973 -1.0512 -0.2656
  356MOL0     C47945   7.689   8.640  10.961  0.2942 -0.0407 -0.2478
  356MOL0     C47946   7.553   8.635  11.021  0.1318  0.3282  0.0389
  356MOL0     C47947   7.468   8.520  10.969  0.3267  0.7231  0.2443
  356MOL0     C47948   7.323   8.571  10.936 -0.0155 -0.6474 -0.5911
  356MOL0     O47949   7.318   8.678  10.849 -0.6259  0.3298  0.1732
  356MOL0     C47950   7.201   8.754  10.851 -1.0426  0.2533  0.0971
  356MOL0     C47951   7.091   8.720  10.931 -0.1420 -1.0243  0.9926
  356MOL0     C47952   6.980   8.805  10.944 -0.7508  0.8092  0.1762
  356MOL0     C47953   6.870   8.738  11.020  0.4276 -0.0872 -0.1360
  356MOL0     C47954   6.983   8.930  10.879  0.7724 -1.1224  0.4218
  356MOL0     C47955   6.875   9.032  10.877 -0.2501 -1.3782 -0.0684
  356MOL0     O47956   6.753   8.990  10.850  0.8458 -0.5239 -0.2568
  356MOL0     C47957   6.640   9.067  10.819 -0.2815 -0.1960 -0.5151
  356MOL0     C47958   6.554   9.027  10.719  0.0031  0.1768 -0.1350
  356MOL0     C47959   6.436   9.092  10.699  0.3726  0.3298  0.0515
  356MOL0     C47960   6.399   9.215  10.759  0.8969 -0.4047 -0.4429
  356MOL0     O47961   6.288   9.276  10.713 -0.5375 -0.6016  0.1883
  356MOL0     C47962   6.246   9.402  10.771 -0.3149 -0.7590 -0.5604
  356MOL0     C47963   6.157   9.453  10.653  0.4337  0.2550 -0.3948
  356MOL0     C47964   6.045   9.349  10.620  0.5427  0.3413 -0.4947
  356MOL0     C47965   5.938   9.417  10.534  0.0250  0.3552 -1.3178
  356MOL0     C47966   5.819   9.327  10.511 -0.1616 -0.4543 -0.0647
  356MOL0     C47967   5.703   9.408  10.449  0.5223 -0.0869  0.2313
  356MOL0     C47968   5.574   9.337  10.476  1.0321  0.3490 -0.8690
  356MOL0     C47969   5.466   9.371  10.370 -0.4187  0.3383 -0.1176
  356MOL0    Cl47970   5.378   9.533  10.401  0.1438 -0.6501  0.6763
  356MOL0     C47971   6.497   9.269  10.844  0.6526 -0.1094 -0.2262
  356MOL0     C47972   6.615   9.195  10.878  0.6471  0.5240  0.3329
  356MOL0     O47973   6.909   9.147  10.902  0.2567  0.1117  0.4506
  356MOL0     C47974   7.105   8.967  10.809  0.2662  0.6132 -0.0705
  356MOL0     C47975   7.210   8.879  10.793 -0.0577  0.3621 -0.0241
  356MOL0     N47976   7.805   8.756  11.137 -0.5339  0.2997 -0.4490
  356MOL0     N47977   7.861   8.873  11.159  0.6030 -0.3045  0.5262
  356MOL0     C47978   8.506   9.836  10.398 -0.4040  0.6161  0.0960
  356MOL0     C47979   8.625   9.908  10.381 -0.7741 -0.6320 -0.6098
  356MOL0     C47980   9.048  10.012  10.358 -0.7561 -0.4500 -0.0023
  356MOL0     C47981   9.135   9.929  10.290  0.0017  0.7316  0.2634
  356MOL0     C47982   9.263   9.970  10.259  0.5770  0.0265  0.7392
  356MOL0     C47983   9.310  10.093  10.287  0.1498  0.2568  0.7190
  356MOL0     O47984   9.434  10.133  10.248  0.0054  0.6037 -0.1990
  356MOL0     C47985   9.523  10.054  10.160 -0.3917  0.4537  0.2388
  356MOL0     C47986   9.676  10.089  10.191  0.1955 -0.1671 -1.1587
  356MOL0     C47987   9.705  10.237  10.230 -0.8045  0.4808  0.4198
  356MOL0     C47988   9.853  10.274  10.258  0.1826  0.4445  0.5751
  356MOL0     C47989   9.945  10.172  10.315  0.2287 -0.4761 -0.6654
  356MOL0     C47990  10.024  10.092  10.368 -0.2477 -0.7467  0.4262
  356MOL0     C47991   9.230  10.181  10.364  0.0294 -0.0566 -0.3608
  356MOL0     C47992   9.103  10.130  10.407  0.0317  0.0340  0.7771
  356MOL0     H47993   8.804   9.655  10.244  0.1163  1.5600 -1.5100
  356MOL0     H47994   8.586   9.526  10.287  0.6350 -0.2606 -1.0453
  356MOL0     H47995   8.367   9.423  10.429 -2.1747  0.9863 -0.0879
  356MOL0     H47996   8.486   9.522  10.517  1.2582  2.9658 -0.9223
  356MOL0     H47997   8.324   9.602  10.664 -0.4372 -0.8631 -0.1554
  356MOL0     H47998   8.192   9.519  10.571 -0.7198 -0.4039  2.4686
  356MOL0     H47999   8.322   9.301  10.614 -3.2269  1.6929 -2.4840
  356MOL0     H48000   8.423   9.376  10.731  0.4456  1.5718 -1.7001
  356MOL0     H48001   8.217   9.441  10.862 -1.6979 -0.0700  0.0455
  356MOL0     H48002   8.117   9.400  10.729  0.8059  2.4283 -0.2418
  356MOL0     H48003   8.174   9.154  10.753 -0.0146 -3.0585  1.5850
  356MOL0     H48004   8.269   9.191  10.898  0.0632  2.3079 -0.6516
  356MOL0     H48005   8.057   9.304  10.992  0.2038  0.4238  0.8648
  356MOL0     H48006   7.975   9.235  10.845 -0.2655 -0.6719 -0.0559
  356MOL0     H48007   8.051   9.028  10.888  0.6838  1.9688 -0.1069
  356MOL0     H48008   8.110   9.097  11.050 -3.1269  0.1628  1.8810
  356MOL0     H48009   7.820   9.131  10.971 -1.9594 -1.8783  0.2131
  356MOL0     H48010   7.900   9.131  11.129  1.6118  0.3566  0.6397
  356MOL0     H48011   7.781   8.899  10.845  3.8217 -0.8642 -0.2223
  356MOL0     H48012   7.678   8.642  10.852 -4.0274 -1.4844 -0.0491
  356MOL0     H48013   7.747   8.552  10.992  1.6976  0.9413  0.0092
  356MOL0     H48014   7.506   8.734  11.012 -2.6216 -0.8874  0.1185
  356MOL0     H48015   7.551   8.607  11.127 -3.0340  0.1471  0.0264
  356MOL0     H48016   7.486   8.435  11.036  1.0826 -0.5505 -1.4911
  356MOL0     H48017   7.494   8.490  10.867 -1.8732 -0.0362 -0.1641
  356MOL0     H48018   7.286   8.598  11.036  1.0427 -0.0615 -0.3407
  356MOL0     H48019   7.256   8.495  10.894 -0.9655  0.1214 -0.5110
  356MOL0     H48020   7.092   8.620  10.973  0.6086 -1.4637 -0.0329
  356MOL0     H48021   6.857   8.783  11.119 -2.4743 -1.8957  0.4472
  356MOL0     H48022   6.773   8.748  10.969  1.9478  1.3795 -2.9753
  356MOL0     H48023   6.893   8.632  11.035 -0.0156 -0.2544 -0.6268
  356MOL0     H48024   6.556   8.935  10.660 -1.7767  0.3288 -0.5003
  356MOL0     H48025   6.371   9.063  10.617  0.1189  0.9026  0.0453
  356MOL0     H48026   6.214   9.383  10.874  2.9387  2.5477  1.2671
  356MOL0     H48027   6.319   9.483  10.769 -0.3516 -0.7267 -0.5627
  356MOL0     H48028   6.104   9.542  10.688  2.0302  1.2769 -0.4979
  356MOL0     H48029   6.220   9.481  10.569  1.4910 -0.1163  0.2619
  356MOL0     H48030   6.000   9.306  10.710  0.8545 -0.2745 -0.6314
  356MOL0     H48031   6.085   9.260  10.571 -1.7143 -1.8466  1.3480
  356MOL0     H48032   5.918   9.511  10.587  0.7676 -0.4364  0.4521
  356MOL0     H48033   5.974   9.438  10.433  0.4691 -2.5349 -1.8291
  356MOL0     H48034   5.787   9.285  10.607  0.2207  1.1016  0.7880
  356MOL0     H48035   5.856   9.251  10.442  2.5571  1.1409 -0.5265
  356MOL0     H48036   5.680   9.503  10.498  0.1977 -0.6425  1.2060
  356MOL0     H48037   5.732   9.427  10.346  2.9423 -1.5157  0.5713
  356MOL0     H48038   5.536   9.349  10.579  0.6748 -1.5421 -0.7565
  356MOL0     H48039   5.594   9.230  10.469  0.0439  0.0974 -0.0202
  356MOL0     H48040   5.391   9.293  10.385 -1.2584  1.1102 -0.1764
  356MOL0     H48041   5.511   9.373  10.271  1.9382 -3.9369  0.6209
  356MOL0     H48042   6.484   9.359  10.903 -3.0385  1.5189 -3.0706
  356MOL0     H48043   6.678   9.236  10.957  0.8165  0.1514  0.3905
  356MOL0     H48044   7.110   9.055  10.746  0.7537  1.6970  1.4375
  356MOL0     H48045   7.297   8.908  10.734 -1.4445  0.8496 -1.9371
  356MOL0     H48046   8.422   9.891  10.438  0.0091  1.9981 -0.8572
  356MOL0     H48047   8.648  10.012  10.401 -0.2901 -1.3742  3.5849
  356MOL0     H48048   9.110   9.829  10.257  0.4866  0.0813  1.8028
  356MOL0     H48049   9.334   9.899  10.219 -0.9841 -1.2494  0.0861
  356MOL0     H48050   9.515   9.946  10.180 -0.2319  0.6832  1.6613
  356MOL0     H48051   9.506  10.093  10.059  0.7727  3.4654  1.0971
  356MOL0     H48052   9.738  10.076  10.102  3.2193  0.7898  0.6499
  356MOL0     H48053   9.709  10.019  10.269 -1.0915  0.3395 -0.1168
  356MOL0     H48054   9.661  10.262  10.327  0.2730  1.2639  0.7308
  356MOL0     H48055   9.664  10.308  10.157  0.4249 -0.6340 -1.4379
  356MOL0     H48056   9.862  10.359  10.325  2.2594  1.6948 -1.1503
  356MOL0     H48057   9.901  10.313  10.167 -2.5573  2.9242  0.0614
  356MOL0     H48058  10.090  10.026  10.421  3.6425 -0.6277 -3.6628
  356MOL0     H48059   9.262  10.276  10.406  0.0852 -0.7595  1.2564
  356MOL0     H48060   9.035  10.190  10.467  1.0009  1.7399  0.2321
  357MOL0     O48061   9.204  11.384   1.932  0.0431  0.2348  0.4139
  357MOL0     C48062   9.215  11.262   1.957 -0.6501  0.0967 -0.1209
  357MOL0     O48063   9.326  11.184   1.920  0.0340  0.2396  0.9214
  357MOL0     C48064   9.430  11.247   1.856  0.4477 -0.2177 -0.3204
  357MOL0     C48065   9.403  11.303   1.727  0.0307 -0.2444 -0.6183
  357MOL0     C48066   9.502  11.366   1.648  0.1868  0.9244 -0.3252
  357MOL0     C48067   9.634  11.368   1.698 -0.0616  0.5439 -0.5465
  357MOL0     O48068   9.732  11.434   1.626 -0.3436 -0.0774 -0.6831
  357MOL0     C48069   9.694  11.555   1.557  0.5983 -0.6337 -0.4705
  357MOL0     C48070   9.814  11.635   1.507 -0.0798 -0.3644 -0.8532
  357MOL0     C48071   9.764  11.772   1.468 -0.8021 -0.4808 -0.7793
  357MOL0     C48072   9.784  11.864   1.590  0.3989 -0.5094 -0.1155
  357MOL0     C48073   9.709  11.993   1.579  0.7590 -0.2078  0.2552
  357MOL0     C48074   9.747  12.084   1.692  0.8522  0.1559  0.1972
  357MOL0     C48075   9.674  12.221   1.697  0.3040  1.0100  0.0307
  357MOL0     C48076   9.715  12.291   1.818  0.1932  0.2397 -0.5516
  357MOL0     N48077   9.670  12.427   1.844  0.6582 -0.4166  0.3765
  357MOL0     C48078   9.722  12.516   1.940  0.9864 -0.6911 -0.0879
  357MOL0     C48079   9.645  12.630   1.920 -0.2519  0.1346  0.2307
  357MOL0     C48080   9.665  12.768   1.978 -0.3711 -0.2470 -0.4884
  357MOL0     C48081   9.741  12.859   1.885 -0.3634  0.3229  0.4799
  357MOL0     C48082   9.883  12.811   1.883 -0.8896  0.4387  0.0261
  357MOL0     C48083   9.975  12.889   1.794 -0.1527  0.6482 -0.2284
  357MOL0     O48084  10.094  12.816   1.754 -0.1096  0.1359 -0.0814
  357MOL0     C48085  10.203  12.834   1.832 -0.5542  0.1403 -0.5367
  357MOL0     C48086  10.333  12.803   1.775 -0.5203 -0.1512  0.1784
  357MOL0     C48087  10.454  12.831   1.839  0.2964  0.4024 -0.9606
  357MOL0     C48088  10.578  12.803   1.768  0.0989  0.5578  0.2556
  357MOL0     C48089  10.443  12.879   1.976  0.1198  0.2416 -0.8124
  357MOL0     C48090  10.562  12.899   2.073  0.3745 -0.2474  0.2877
  357MOL0     O48091  10.682  12.905   2.022  0.3821  0.4552  0.0340
  357MOL0     C48092  10.797  12.901   2.090 -0.3716  0.1025 -0.2666
  357MOL0     C48093  10.916  12.959   2.028 -0.7713  0.4703 -0.1985
  357MOL0     C48094  11.037  12.975   2.088  0.1501  0.2649  0.1765
  357MOL0     C48095  11.048  12.944   2.225 -0.7044  0.1999 -0.9941
  357MOL0     O48096  11.167  12.955   2.288 -0.1244 -0.9859  0.2704
  357MOL0     C48097  11.285  12.974   2.205 -0.2805 -0.3962  0.1758
  357MOL0     C48098  11.400  12.963   2.308  0.3168  1.0462  0.2170
  357MOL0     C48099  11.386  13.089   2.400  0.1432 -0.2553 -0.0518
  357MOL0     C48100  11.503  13.105   2.492 -0.7891 -0.7119  0.6846
  357MOL0     C48101  11.496  13.234   2.573 -1.2976 -0.1766  0.2091
  357MOL0     C48102  11.601  13.339   2.541 -0.4625  0.2843 -0.0384
  357MOL0     C48103  11.746  13.317   2.587  0.8008  0.5017  0.1509
  357MOL0     C48104  11.823  13.444   2.552 -0.0731 -0.2514 -0.4534
  357MOL0    Cl48105  11.973  13.439   2.637 -0.1704 -0.4716 -0.0927
  357MOL0     C48106  10.942  12.883   2.290  0.0047  1.3769 -0.4204
  357MOL0     C48107  10.818  12.855   2.228 -0.2316  0.7051  0.2638
  357MOL0     O48108  10.536  12.913   2.190 -0.2555  0.7655  0.4481
  357MOL0     C48109  10.317  12.907   2.033 -0.5522  0.8208 -0.2406
  357MOL0     C48110  10.197  12.876   1.967  0.9039 -0.2358  0.4733
  357MOL0     N48111   9.564  12.615   1.806 -0.4896  0.5181 -1.0327
  357MOL0     N48112   9.569  12.493   1.771  0.9483 -0.6573 -0.4835
  357MOL0     C48113   9.659  11.319   1.826 -0.1512 -0.4106  0.3470
  357MOL0     C48114   9.562  11.264   1.909  0.0880  0.8102  0.0607
  357MOL0     C48115   9.093  11.205   2.027 -0.3787  1.0699 -0.7224
  357MOL0     C48116   8.980  11.275   2.066 -0.8983 -0.0394  0.7060
  357MOL0     C48117   8.859  11.219   2.112 -0.4395 -0.3370  0.8296
  357MOL0     C48118   8.867  11.074   2.137  0.3611  0.5255 -0.7250
  357MOL0     O48119   8.754  11.008   2.179 -0.6190 -0.0563 -0.6196
  357MOL0     C48120   8.666  10.993   2.069  0.3545  0.0714 -0.2813
  357MOL0     C48121   8.530  11.053   2.096 -0.2654  0.0447  0.5572
  357MOL0     C48122   8.464  10.981   2.205 -0.4129  0.3554 -0.1522
  357MOL0     C48123   8.318  11.022   2.215  0.3410  0.3096  1.2573
  357MOL0     C48124   8.253  10.966   2.332 -0.0587 -0.0626 -0.6123
  357MOL0     C48125   8.218  10.923   2.441 -0.2865 -0.7847  0.0969
  357MOL0     C48126   8.985  11.002   2.112  0.8795 -0.2367 -0.0178
  357MOL0     C48127   9.090  11.064   2.057 -0.3347  0.3181 -0.1199
  357MOL0     H48128   9.299  11.298   1.698 -0.4726 -2.0399  1.2255
  357MOL0     H48129   9.461  11.407   1.556  0.8279 -0.5761 -1.3103
  357MOL0     H48130   9.630  11.533   1.471  0.7271  0.3828 -0.8379
  357MOL0     H48131   9.646  11.617   1.632 -0.4309 -2.2097  0.2344
  357MOL0     H48132   9.896  11.645   1.578 -2.1922  1.7735  1.4907
  357MOL0     H48133   9.854  11.571   1.428  1.3458 -3.4766  2.1452
  357MOL0     H48134   9.835  11.816   1.398 -1.1895  3.0718  0.8808
  357MOL0     H48135   9.661  11.783   1.430 -0.9653  3.3644  0.4258
  357MOL0     H48136   9.766  11.815   1.686  0.3344  0.3780  0.3374
  357MOL0     H48137   9.891  11.887   1.591  0.0003  1.5451  0.5760
  357MOL0     H48138   9.748  12.033   1.485 -0.2746 -1.7915 -0.9031
  357MOL0     H48139   9.600  11.983   1.580  0.6680  0.6236 -0.3750
  357MOL0     H48140   9.723  12.032   1.785 -2.9498  0.6877 -0.3294
  357MOL0     H48141   9.855  12.103   1.693  0.9610 -0.3333 -0.8891
  357MOL0     H48142   9.683  12.279   1.604 -2.8283 -0.8072 -1.5918
  357MOL0     H48143   9.568  12.197   1.705  0.4194  0.3910 -0.1868
  357MOL0     H48144   9.824  12.301   1.829  0.5041 -0.9090 -2.1428
  357MOL0     H48145   9.689  12.216   1.894  0.1479 -0.5337 -1.3128
  357MOL0     H48146   9.805  12.505   2.009  2.6386  2.3539 -1.4246
  357MOL0     H48147   9.561  12.800   1.980 -1.0620 -2.3493  0.7417
  357MOL0     H48148   9.714  12.766   2.076  0.3455 -1.7710 -0.8428
  357MOL0     H48149   9.736  12.960   1.925 -2.0459  0.9582 -1.2220
  357MOL0     H48150   9.700  12.845   1.784 -2.2041 -0.4451  1.2958
  357MOL0     H48151   9.895  12.708   1.847  2.4744 -1.0574  4.5510
  357MOL0     H48152   9.919  12.802   1.986  0.6411  0.9764 -0.4430
  357MOL0     H48153   9.985  12.985   1.845 -2.6368 -0.2654  2.2298
  357MOL0     H48154   9.921  12.920   1.704 -0.5368  1.4180  0.2552
  357MOL0     H48155  10.326  12.753   1.679  0.6941  1.9490 -1.0831
  357MOL0     H48156  10.647  12.887   1.771  1.2143 -0.3537  1.3312
  357MOL0     H48157  10.618  12.711   1.813 -2.7312 -1.6314 -1.3543
  357MOL0     H48158  10.571  12.775   1.662  3.4103 -2.3438  0.6025
  357MOL0     H48159  10.900  13.002   1.930  1.2931 -0.9167 -1.2196
  357MOL0     H48160  11.115  13.024   2.029 -2.0665  0.8700 -2.5046
  357MOL0     H48161  11.293  12.901   2.124  1.2059  0.8587 -0.8604
  357MOL0     H48162  11.288  13.074   2.162 -1.0529 -0.5180 -0.1582
  357MOL0     H48163  11.397  12.868   2.362 -2.4027  0.5887 -0.5624
  357MOL0     H48164  11.495  12.969   2.256  2.1266 -0.2245  3.1236
  357MOL0     H48165  11.296  13.095   2.462  0.8899  1.9756  0.9039
  357MOL0     H48166  11.388  13.183   2.343 -1.5349 -0.2954 -0.2302
  357MOL0     H48167  11.506  13.034   2.575  1.7114 -0.7305  0.6344
  357MOL0     H48168  11.596  13.091   2.436 -0.5796 -1.5909  1.2345
  357MOL0     H48169  11.495  13.208   2.679  2.0840  0.9231  0.6356
  357MOL0     H48170  11.398  13.278   2.554 -0.5017  2.1593  1.2576
  357MOL0     H48171  11.610  13.362   2.435  2.4097 -1.8353 -0.3836
  357MOL0     H48172  11.566  13.429   2.592  1.6648  2.1755 -1.7396
  357MOL0     H48173  11.798  13.239   2.530 -1.1043 -0.4398 -0.3542
  357MOL0     H48174  11.742  13.290   2.693 -0.9830  0.1753  0.0187
  357MOL0     H48175  11.765  13.528   2.592  2.4100  1.6230 -0.5909
  357MOL0     H48176  11.825  13.458   2.444  1.2882  3.5255 -0.0925
  357MOL0     H48177  10.955  12.861   2.396 -1.8933 -1.0429 -0.5912
  357MOL0     H48178  10.734  12.817   2.286 -0.9176 -0.5891 -1.5049
  357MOL0     H48179  10.300  12.938   2.135  0.1962 -1.0293  0.4952
  357MOL0     H48180  10.109  12.906   2.023 -0.6210 -1.5319 -1.1070
  357MOL0     H48181   9.758  11.331   1.869 -1.1060  1.0691  2.2374
  357MOL0     H48182   9.589  11.207   1.997 -0.8457 -3.5090 -2.1911
  357MOL0     H48183   8.991  11.383   2.054  2.4093 -0.2836  0.6892
  357MOL0     H48184   8.770  11.281   2.125 -0.1953 -0.0230  1.0300
  357MOL0     H48185   8.707  11.044   1.982 -0.7525 -0.7928 -1.3569
  357MOL0     H48186   8.662  10.886   2.046  3.1318 -0.0227 -0.7143
  357MOL0     H48187   8.469  11.053   2.005 -2.9506 -0.5678  2.2512
  357MOL0     H48188   8.543  11.158   2.123  1.9582 -0.5685  2.1875
  357MOL0     H48189   8.519  11.002   2.297  0.3599  0.7868 -0.7015
  357MOL0     H48190   8.474  10.875   2.183  0.2854 -0.6426  3.9908
  357MOL0     H48191   8.265  11.001   2.121  3.3786 -0.6543 -0.3878
  357MOL0     H48192   8.316  11.131   2.214 -0.8896  0.4199 -2.5457
  357MOL0     H48193   8.202  10.891   2.542 -2.9180  1.3522  0.4810
  357MOL0     H48194   8.996  10.896   2.132  0.9670  0.2032  2.5221
  357MOL0     H48195   9.179  11.003   2.045 -1.8900 -2.5065  1.5495
  358MOL0     O48196  10.998   1.027   5.313 -0.4378  0.1926  0.6715
  358MOL0     C48197  10.978   1.021   5.193 -0.0050  0.1415  0.0165
  358MOL0     O48198  11.050   0.947   5.102 -0.2070  0.6843  1.0466
  358MOL0     C48199  11.166   0.875   5.129  0.3278  0.6345 -0.0440
  358MOL0     C48200  11.250   0.914   5.235 -0.0082 -0.1737 -0.1895
  358MOL0     C48201  11.351   0.826   5.277  0.3764 -0.2022 -0.5386
  358MOL0     C48202  11.372   0.706   5.220  0.2622 -0.0765  0.5376
  358MOL0     O48203  11.484   0.642   5.259 -0.1699 -0.3542  0.3160
  358MOL0     C48204  11.515   0.517   5.198 -0.2372 -0.5627  0.5272
  358MOL0     C48205  11.641   0.452   5.248 -0.3045  0.6449  0.7231
  358MOL0     C48206  11.632   0.308   5.197  0.0488  0.1396 -0.2571
  358MOL0     C48207  11.753   0.229   5.264  0.3097 -0.3177 -0.3123
  358MOL0     C48208  11.774   0.085   5.212 -0.3791 -0.4753 -0.9059
  358MOL0     C48209  11.819   0.073   5.069  0.2725 -0.3739  0.8517
  358MOL0     C48210  11.826  -0.078   5.027  1.0953  0.1921  0.2777
  358MOL0     C48211  11.854  -0.081   4.875  0.1272  0.9416  0.4333
  358MOL0     N48212  11.834  -0.212   4.809  1.1161  0.8124  0.5278
  358MOL0     C48213  11.726  -0.300   4.816 -1.0067 -0.0002  0.1580
  358MOL0     C48214  11.766  -0.417   4.767  0.1578  0.3399  0.0051
  358MOL0     C48215  11.687  -0.549   4.735  0.5026 -1.0466 -0.5867
  358MOL0     C48216  11.698  -0.578   4.580  0.0734 -0.3909 -0.1119
  358MOL0     C48217  11.643  -0.710   4.546 -1.1665 -0.8487  0.1665
  358MOL0     C48218  11.490  -0.706   4.529  0.2431 -0.3584  1.5565
  358MOL0     O48219  11.443  -0.750   4.654 -0.0181 -0.5706 -0.5820
  358MOL0     C48220  11.318  -0.811   4.661 -0.0055  0.2701 -0.8864
  358MOL0     C48221  11.293  -0.910   4.768 -0.0012 -0.3420 -0.0111
  358MOL0     C48222  11.175  -0.973   4.785 -0.3101 -0.1470 -0.8320
  358MOL0     C48223  11.162  -1.053   4.916  0.4057  0.4823 -0.5555
  358MOL0     C48224  11.065  -0.947   4.695  0.1166  0.0650  0.2338
  358MOL0     C48225  10.936  -1.025   4.705  0.0827  0.5162  1.1357
  358MOL0     O48226  10.817  -0.965   4.653 -0.5165  0.3176  0.0091
  358MOL0     C48227  10.690  -1.002   4.663  0.2019  0.3770  0.3293
  358MOL0     C48228  10.646  -1.131   4.707  0.8536 -0.0131 -0.0121
  358MOL0     C48229  10.511  -1.153   4.725  0.0819  0.5702 -0.5167
  358MOL0     C48230  10.419  -1.051   4.695  0.8095  0.9264 -0.2788
  358MOL0     O48231  10.284  -1.074   4.710 -0.8326 -0.1068 -0.0025
  358MOL0     C48232  10.244  -1.085   4.850 -0.4081 -0.3631  0.2973
  358MOL0     C48233  10.098  -1.067   4.857  1.0445 -0.6709  0.1298
  358MOL0     C48234  10.011  -1.142   4.980  0.2671  0.1846  0.1176
  358MOL0     C48235  10.036  -1.098   5.125 -0.0427 -0.8010 -0.2423
  358MOL0     C48236   9.939  -1.173   5.226 -0.4596 -0.4399  0.8085
  358MOL0     C48237   9.804  -1.102   5.222  0.1802 -0.4379 -0.2348
  358MOL0     C48238   9.736  -1.134   5.357  0.3017 -0.0713 -0.2105
  358MOL0     C48239   9.589  -1.081   5.359  0.0040 -0.8397  0.5165
  358MOL0    Cl48240   9.606  -0.905   5.330 -0.0042 -0.0854  0.0060
  358MOL0     C48241  10.466  -0.929   4.646  0.5023 -0.6909 -0.2276
  358MOL0     C48242  10.599  -0.902   4.633  0.2246 -0.2665  0.4879
  358MOL0     O48243  10.926  -1.127   4.768  0.3337 -0.1852 -0.0601
  358MOL0     C48244  11.089  -0.854   4.586 -0.2530  0.2001  0.1571
  358MOL0     C48245  11.215  -0.802   4.570  0.0753 -0.0498 -0.0943
  358MOL0     N48246  11.900  -0.410   4.748 -0.1090 -0.0632 -0.6710
  358MOL0     N48247  11.936  -0.284   4.764  0.2494 -0.1393  0.7384
  358MOL0     C48248  11.281   0.667   5.119 -0.9155 -0.8068  0.1464
  358MOL0     C48249  11.182   0.756   5.074 -0.5802 -1.1527  0.2109
  358MOL0     C48250  10.840   1.071   5.139 -0.6099  0.1302  0.6250
  358MOL0     C48251  10.739   1.096   5.233 -0.4121 -0.4158  0.0398
  358MOL0     C48252  10.621   1.154   5.185  0.3022  0.6481 -0.6549
  358MOL0     C48253  10.598   1.167   5.050 -0.2565 -0.7775  0.6854
  358MOL0     O48254  10.469   1.221   5.021  0.3207  0.3871  0.3783
  358MOL0     C48255  10.468   1.326   4.919 -0.2305 -1.1216  0.1145
  358MOL0     C48256  10.336   1.401   4.903 -0.7718 -0.7771  0.5150
  358MOL0     C48257  10.222   1.315   4.843  0.0226 -0.7945 -0.2405
  358MOL0     C48258  10.262   1.217   4.724  0.1683 -0.0635 -1.0391
  358MOL0     C48259  10.267   1.288   4.602 -0.1768 -0.0840 -0.5677
  358MOL0     C48260  10.285   1.341   4.493  0.1664  0.1734 -0.1980
  358MOL0     C48261  10.691   1.132   4.957 -1.0792 -0.1512  0.1700
  358MOL0     C48262  10.816   1.084   5.004  0.3877 -0.3926  0.5111
  358MOL0     H48263  11.240   1.008   5.288  0.5977  1.0297 -2.1061
  358MOL0     H48264  11.418   0.856   5.357  1.6683  1.6179 -2.2170
  358MOL0     H48265  11.429   0.450   5.209 -0.5965  0.0309  1.4005
  358MOL0     H48266  11.529   0.523   5.090 -3.3365  0.3948  0.0895
  358MOL0     H48267  11.732   0.495   5.204 -0.7444  1.5809  0.6868
  358MOL0     H48268  11.637   0.437   5.356  0.1460 -2.2012  0.4137
  358MOL0     H48269  11.544   0.259   5.240 -0.2534 -0.1885 -1.2333
  358MOL0     H48270  11.634   0.285   5.090 -1.3714 -2.7379  0.2519
  358MOL0     H48271  11.843   0.288   5.247  0.6858 -0.0410  2.2092
  358MOL0     H48272  11.747   0.233   5.373  1.2080 -0.1483 -0.2558
  358MOL0     H48273  11.848   0.035   5.275 -1.1694 -1.8817 -1.0552
  358MOL0     H48274  11.678   0.035   5.231 -1.4230  2.2640  2.0733
  358MOL0     H48275  11.739   0.122   5.012  0.6781  0.5728  1.0742
  358MOL0     H48276  11.907   0.134   5.045 -1.4030  1.9162  0.0901
  358MOL0     H48277  11.898  -0.144   5.077 -3.1381 -4.6076  0.8768
  358MOL0     H48278  11.730  -0.128   5.042  0.5555 -0.0552 -3.1726
  358MOL0     H48279  11.955  -0.044   4.855 -0.1161  0.4595 -2.0026
  358MOL0     H48280  11.780  -0.024   4.817 -1.7885 -1.7393  0.0797
  358MOL0     H48281  11.624  -0.279   4.848 -0.7839  1.1464  0.1460
  358MOL0     H48282  11.732  -0.630   4.793  0.3439 -1.6720 -1.3212
  358MOL0     H48283  11.583  -0.552   4.770  0.5516  2.2691  0.1328
  358MOL0     H48284  11.805  -0.577   4.558  0.2198 -3.2590  0.1162
  358MOL0     H48285  11.647  -0.495   4.530  0.6496  0.9680  1.4814
  358MOL0     H48286  11.682  -0.791   4.609  1.1321  0.0992  0.0431
  358MOL0     H48287  11.692  -0.728   4.450 -1.3930  1.0470 -0.3274
  358MOL0     H48288  11.455  -0.764   4.442 -1.1779 -0.8647  2.4454
  358MOL0     H48289  11.458  -0.603   4.515 -3.3910 -1.3618  1.4999
  358MOL0     H48290  11.372  -0.901   4.842  0.6275 -0.1701 -0.6856
  358MOL0     H48291  11.075  -1.027   4.977  0.1478 -1.9646  0.2218
  358MOL0     H48292  11.163  -1.161   4.894  2.8119  0.9483 -3.4306
  358MOL0     H48293  11.239  -1.031   4.990 -0.9821  0.2387  1.0372
  358MOL0     H48294  10.714  -1.215   4.708  3.0335  1.5061  4.1143
  358MOL0     H48295  10.475  -1.250   4.758  2.1040 -0.0804 -0.0220
  358MOL0     H48296  10.274  -1.184   4.887 -2.1155 -1.9757 -2.2968
  358MOL0     H48297  10.294  -1.010   4.911  1.6747 -0.9309 -0.6150
  358MOL0     H48298  10.079  -0.959   4.850 -0.5177 -0.9440 -0.3464
  358MOL0     H48299  10.054  -1.120   4.772  2.0126  2.3413 -2.4350
  358MOL0     H48300  10.035  -1.249   4.984 -1.8702 -0.3438 -0.0642
  358MOL0     H48301   9.903  -1.134   4.963  0.2892  0.2545  0.0048
  358MOL0     H48302  10.142  -1.115   5.145  0.4608  0.2391 -1.8286
  358MOL0     H48303  10.009  -0.993   5.134  0.7281 -0.6302  0.0476
  358MOL0     H48304   9.974  -1.155   5.328 -1.6547  0.7074  1.0362
  358MOL0     H48305   9.931  -1.277   5.192 -0.4303  0.5567 -2.6592
  358MOL0     H48306   9.806  -0.994   5.205 -3.8603 -0.3182 -0.7777
  358MOL0     H48307   9.742  -1.140   5.140  2.3621 -4.2117 -0.3891
  358MOL0     H48308   9.791  -1.093   5.443 -0.3010  1.5891 -0.5866
  358MOL0     H48309   9.734  -1.243   5.364  1.1971 -0.1279 -0.7403
  358MOL0     H48310   9.538  -1.105   5.452 -0.1006 -1.6505  0.2545
  358MOL0     H48311   9.528  -1.128   5.282 -2.8500  0.3408  1.9309
  358MOL0     H48312  10.389  -0.856   4.620  0.3746  0.3701  2.7033
  358MOL0     H48313  10.639  -0.810   4.593 -1.4727 -0.2122 -1.1944
  358MOL0     H48314  11.017  -0.842   4.506 -0.9580 -3.9843 -0.0329
  358MOL0     H48315  11.226  -0.749   4.476  1.4304 -1.5453 -0.8129
  358MOL0     H48316  11.284   0.572   5.068  0.0454 -0.6343 -0.1488
  358MOL0     H48317  11.113   0.732   4.994 -1.2878  1.6355 -0.1027
  358MOL0     H48318  10.757   1.092   5.340  2.0943  1.4981 -0.2068
  358MOL0     H48319  10.546   1.178   5.259  1.3273  0.5396  0.4558
  358MOL0     H48320  10.533   1.401   4.965  0.7356 -0.5634 -2.0237
  358MOL0     H48321  10.508   1.303   4.820 -1.1998  2.2782 -1.2109
  358MOL0     H48322  10.355   1.487   4.838  0.1871 -0.5470  1.0807
  358MOL0     H48323  10.305   1.443   4.999  0.3517  1.0018  0.1390
  358MOL0     H48324  10.133   1.374   4.820 -0.3290 -1.1988  0.0803
  358MOL0     H48325  10.196   1.254   4.930  1.5187 -0.2512  0.6397
  358MOL0     H48326  10.178   1.147   4.714  1.7950 -2.1806 -0.6901
  358MOL0     H48327  10.357   1.167   4.744  0.1004  0.2875  0.2765
  358MOL0     H48328  10.296   1.386   4.396  0.5687 -0.9454 -0.6909
  358MOL0     H48329  10.658   1.140   4.853 -0.5137 -0.2199 -0.0156
  358MOL0     H48330  10.894   1.059   4.933 -0.7417  0.3241 -1.0123
  359MOL0     O48331   4.665   5.174  10.906  0.6982  0.9165  0.1418
  359MOL0     C48332   4.734   5.079  10.936  0.2429  0.2509  0.1194
  359MOL0     O48333   4.697   4.953  10.934  0.1870  0.1404 -0.8705
  359MOL0     C48334   4.574   4.921  10.904  0.7439 -0.2626  1.0222
  359MOL0     C48335   4.462   4.941  10.984  0.4948  0.3692  0.2311
  359MOL0     C48336   4.335   4.918  10.941  0.6028 -0.3579 -0.7659
  359MOL0     C48337   4.310   4.862  10.814 -1.4478  0.2015  0.1890
  359MOL0     O48338   4.194   4.826  10.762  0.0112 -1.2000  0.8335
  359MOL0     C48339   4.127   4.722  10.832 -0.2749 -0.0014  0.5688
  359MOL0     C48340   4.029   4.650  10.735  0.5565 -0.3609  0.7414
  359MOL0     C48341   3.962   4.527  10.799  1.1499 -0.7269  0.1266
  359MOL0     C48342   3.887   4.557  10.928 -0.3344  0.7075  0.0748
  359MOL0     C48343   3.779   4.459  10.940 -0.7820  0.2144  0.5410
  359MOL0     C48344   3.711   4.477  11.073  0.0910 -0.2682  0.2448
  359MOL0     C48345   3.616   4.600  11.072 -0.0927  0.3396 -0.0958
  359MOL0     C48346   3.494   4.580  11.164 -0.5076  0.7430 -0.1975
  359MOL0     N48347   3.419   4.705  11.181 -0.0394  0.9941 -0.2199
  359MOL0     C48348   3.296   4.736  11.134  0.8043  0.7207 -0.9804
  359MOL0     C48349   3.272   4.854  11.186 -0.2167  0.9267  0.3551
  359MOL0     C48350   3.146   4.930  11.156  0.0311  0.2859 -0.1301
  359MOL0     C48351   3.064   4.951  11.285 -0.0525 -0.4602  0.7820
  359MOL0     C48352   2.939   5.029  11.259  1.0131  0.1997 -0.6559
  359MOL0     C48353   2.855   5.079  11.383 -0.1848  0.3805  0.5276
  359MOL0     O48354   2.903   5.206  11.428  0.2134 -0.0255  0.7179
  359MOL0     C48355   2.842   5.277  11.530  0.5803 -0.3447  0.6470
  359MOL0     C48356   2.708   5.264  11.574  0.7961  0.5677  0.0637
  359MOL0     C48357   2.648   5.355  11.671  0.1230 -0.1971 -0.7677
  359MOL0     C48358   2.494   5.348  11.696  0.0674 -0.4271  0.5795
  359MOL0     C48359   2.729   5.452  11.734 -0.0259  0.0652 -0.3610
  359MOL0     C48360   2.681   5.569  11.821 -0.3863  0.5862 -0.1979
  359MOL0     O48361   2.763   5.614  11.918 -0.5605  0.7232 -0.1912
  359MOL0     C48362   2.731   5.723  12.003 -0.6972 -0.6815 -0.6598
  359MOL0     C48363   2.602   5.784  12.022  0.1864  0.1285  1.0493
  359MOL0     C48364   2.578   5.894  12.113 -0.5916 -0.7139  0.4647
  359MOL0     C48365   2.693   5.940  12.186  0.0091 -0.1760 -0.2005
  359MOL0     O48366   2.681   6.040  12.278  0.4559 -0.6078  1.0707
  359MOL0     C48367   2.798   6.103  12.343 -0.0875  0.2904  0.0436
  359MOL0     C48368   2.736   6.224  12.410  0.8925  0.5192  0.2450
  359MOL0     C48369   2.664   6.314  12.310  0.3239  0.2697  0.6426
  359MOL0     C48370   2.698   6.462  12.329  0.6266  0.1295  0.2463
  359MOL0     C48371   2.574   6.540  12.269 -0.4039 -1.4682 -0.5691
  359MOL0     C48372   2.613   6.681  12.241  0.0875 -0.5656  0.6952
  359MOL0     C48373   2.499   6.755  12.188 -0.4540 -0.3435 -0.5262
  359MOL0     C48374   2.556   6.883  12.117 -0.3974 -0.3807 -1.6362
  359MOL0    Cl48375   2.637   6.976  12.234 -0.1188 -0.2051  0.3870
  359MOL0     C48376   2.821   5.886  12.164  1.4484  1.2148 -0.5100
  359MOL0     C48377   2.835   5.777  12.078  0.8609  0.2548 -0.6689
  359MOL0     O48378   2.574   5.621  11.784  0.0401  0.4065  0.3436
  359MOL0     C48379   2.866   5.459  11.692  0.1653 -0.0628 -0.5940
  359MOL0     C48380   2.923   5.372  11.592 -0.2116 -0.6562 -0.1612
  359MOL0     N48381   3.376   4.905  11.260 -0.7550  0.1008 -0.2381
  359MOL0     N48382   3.456   4.803  11.263  0.3947  0.8914 -0.1689
  359MOL0     C48383   4.421   4.847  10.731 -0.0408 -1.0403  0.5881
  359MOL0     C48384   4.554   4.874  10.772 -0.5498 -0.9256 -0.4904
  359MOL0     C48385   4.877   5.118  10.940 -0.5636  0.3651  1.0501
  359MOL0     C48386   4.921   5.247  10.982  0.0580  0.4052 -0.4936
  359MOL0     C48387   5.057   5.285  10.972  0.5311  0.0723 -0.7051
  359MOL0     C48388   5.151   5.191  10.935 -0.0990 -0.6646 -0.4152
  359MOL0     O48389   5.281   5.225  10.940 -0.5424  0.0518  0.5047
  359MOL0     C48390   5.325   5.317  11.045  0.0230  0.1909  0.6276
  359MOL0     C48391   5.482   5.321  11.032  0.5238  0.3163 -0.1570
  359MOL0     C48392   5.539   5.426  11.130 -0.0083  0.3870  0.6732
  359MOL0     C48393   5.541   5.375  11.276 -0.7201 -1.0333 -0.4761
  359MOL0     C48394   5.640   5.433  11.369  0.1708 -0.5063 -0.0367
  359MOL0     C48395   5.742   5.483  11.424 -0.0385 -0.1807 -0.1377
  359MOL0     C48396   5.104   5.066  10.892 -0.1775 -0.4520 -0.4862
  359MOL0     C48397   4.969   5.030  10.895 -0.2957  1.3182 -0.3866
  359MOL0     H48398   4.481   4.986  11.081  1.0261  1.2243 -0.2538
  359MOL0     H48399   4.244   4.933  10.999  0.4529  0.8046 -1.2536
  359MOL0     H48400   4.195   4.643  10.869 -1.6705 -1.9743 -0.8718
  359MOL0     H48401   4.081   4.759  10.924  0.2287  0.0011  0.8287
  359MOL0     H48402   3.955   4.721  10.697  1.4364  1.5118  2.3543
  359MOL0     H48403   4.091   4.625  10.649  2.5939  3.5228  0.8712
  359MOL0     H48404   3.891   4.484  10.728  2.2956 -0.8970 -0.9529
  359MOL0     H48405   4.041   4.458  10.830  1.1112 -0.3181  1.1803
  359MOL0     H48406   3.954   4.559  11.014 -0.9937  2.8400  0.5902
  359MOL0     H48407   3.843   4.657  10.922 -4.7034 -0.8031  2.2035
  359MOL0     H48408   3.703   4.470  10.862  0.6017 -1.4997 -1.1427
  359MOL0     H48409   3.817   4.356  10.939 -1.7752 -0.2395  2.7140
  359MOL0     H48410   3.648   4.391  11.097 -2.9758  1.6513 -0.3546
  359MOL0     H48411   3.782   4.485  11.156  0.8325  2.8152 -0.5468
  359MOL0     H48412   3.673   4.683  11.114  3.2154 -2.6552  1.7819
  359MOL0     H48413   3.592   4.617  10.966  2.0061  0.2917 -0.6126
  359MOL0     H48414   3.529   4.541  11.260  1.4218 -1.9003 -1.8188
  359MOL0     H48415   3.425   4.514  11.111 -2.7828  2.5544  0.3286
  359MOL0     H48416   3.233   4.685  11.062 -2.1251  1.5001  0.8804
  359MOL0     H48417   3.176   5.023  11.107 -0.3439  1.3703  1.5915
  359MOL0     H48418   3.081   4.881  11.083  0.6779 -2.8978  1.2532
  359MOL0     H48419   3.124   5.014  11.351  2.4594  0.3302 -2.0253
  359MOL0     H48420   3.035   4.853  11.324 -1.8608 -1.4247 -2.5409
  359MOL0     H48421   2.871   4.967  11.200  1.9482  0.5687 -2.1644
  359MOL0     H48422   2.964   5.117  11.200  1.4790  0.2941 -0.3195
  359MOL0     H48423   2.864   5.005  11.463  0.8239 -0.3290 -0.2267
  359MOL0     H48424   2.750   5.069  11.352  0.5172 -0.1676 -1.9037
  359MOL0     H48425   2.648   5.182  11.534  2.0883 -1.4590  2.0043
  359MOL0     H48426   2.452   5.248  11.688 -2.5700  0.5140  1.5319
  359MOL0     H48427   2.472   5.383  11.797 -1.0462  0.8990 -0.0825
  359MOL0     H48428   2.443   5.420  11.631  0.6387  0.0057  0.5924
  359MOL0     H48429   2.508   5.745  11.983 -0.6150  2.4949  0.4833
  359MOL0     H48430   2.477   5.935  12.120 -0.6597  1.1715 -5.5391
  359MOL0     H48431   2.854   6.038  12.410 -2.0433 -3.0880 -1.3816
  359MOL0     H48432   2.874   6.140  12.273  1.1325 -1.0363  0.6281
  359MOL0     H48433   2.669   6.192  12.491  4.0112 -2.4659  1.9482
  359MOL0     H48434   2.815   6.278  12.463  1.2123  1.3194 -1.0074
  359MOL0     H48435   2.558   6.291  12.323  0.4588  0.5500  2.6647
  359MOL0     H48436   2.695   6.287  12.209 -1.4342  2.1805 -0.5049
  359MOL0     H48437   2.694   6.481  12.437 -1.5162  2.9041 -0.1701
  359MOL0     H48438   2.792   6.501  12.291  0.1081  1.8601  0.6348
  359MOL0     H48439   2.488   6.549  12.336  0.1517  2.6117 -0.1103
  359MOL0     H48440   2.542   6.490  12.177 -0.4038 -1.6417 -0.4743
  359MOL0     H48441   2.640   6.739  12.330 -1.5082  0.6963  0.4214
  359MOL0     H48442   2.689   6.676  12.163 -2.6739  1.3872 -2.4009
  359MOL0     H48443   2.438   6.792  12.272  3.2244  3.9992  0.6298
  359MOL0     H48444   2.431   6.699  12.122 -1.9794  3.0503 -2.0833
  359MOL0     H48445   2.472   6.933  12.066 -2.1780 -1.7587 -0.2085
  359MOL0     H48446   2.626   6.861  12.036 -0.1600  1.6059 -2.0246
  359MOL0     H48447   2.906   5.926  12.217  0.5778  0.7977  1.2881
  359MOL0     H48448   2.933   5.741  12.048  0.6381  1.6146 -3.2952
  359MOL0     H48449   2.922   5.536  11.746 -0.1510  2.3175 -3.3819
  359MOL0     H48450   3.030   5.365  11.571  0.0137  1.4543  0.0117
  359MOL0     H48451   4.397   4.804  10.634 -0.9232  0.2245  0.2280
  359MOL0     H48452   4.636   4.872  10.701 -0.3784 -0.1825 -0.3161
  359MOL0     H48453   4.838   5.311  11.010 -1.7579 -0.7287 -2.9294
  359MOL0     H48454   5.090   5.387  10.989 -0.9058  0.8945 -2.4693
  359MOL0     H48455   5.281   5.416  11.030  0.9676  0.4696 -0.4553
  359MOL0     H48456   5.291   5.271  11.138  0.8798  0.1693  0.9440
  359MOL0     H48457   5.507   5.362  10.934 -0.6485 -0.3779 -0.7696
  359MOL0     H48458   5.518   5.218  11.036 -1.8992 -0.7453 -2.7838
  359MOL0     H48459   5.486   5.521  11.117  0.0611  0.1957 -1.2012
  359MOL0     H48460   5.641   5.438  11.094 -0.6411  1.9051 -0.7919
  359MOL0     H48461   5.579   5.273  11.268  1.4301 -0.6064  2.4754
  359MOL0     H48462   5.446   5.386  11.329  0.2992 -1.3432  1.4765
  359MOL0     H48463   5.827   5.538  11.458 -1.2627  0.6969  1.6424
  359MOL0     H48464   5.173   4.987  10.864  1.3947  0.9478 -0.6682
  359MOL0     H48465   4.934   4.933  10.862  0.0378 -0.0247  2.8595
  360MOL0     O48466   1.796   8.995   0.764  0.3510  1.4093 -0.0273
  360MOL0     C48467   1.770   9.114   0.745  0.3965 -0.0564  0.3125
  360MOL0     O48468   1.852   9.202   0.667  0.6547  0.1448 -0.5124
  360MOL0     C48469   1.976   9.158   0.627  0.2097 -0.6760  0.5936
  360MOL0     C48470   2.087   9.149   0.723  0.0977 -0.2376  1.1749
  360MOL0     C48471   2.214   9.112   0.666  0.2554  0.9266  0.1974
  360MOL0     C48472   2.231   9.084   0.533 -1.1797  0.3140 -0.3258
  360MOL0     O48473   2.366   9.046   0.505 -0.8322 -0.9611 -0.1248
  360MOL0     C48474   2.387   8.956   0.396  0.0794 -0.0686  0.1167
  360MOL0     C48475   2.511   8.878   0.413 -0.0339 -0.1016  0.4162
  360MOL0     C48476   2.500   8.737   0.348 -0.6068  0.7680  0.0533
  360MOL0     C48477   2.637   8.673   0.359  0.2018  0.3474  0.7337
  360MOL0     C48478   2.655   8.552   0.277 -0.9091 -0.3468  0.4971
  360MOL0     C48479   2.571   8.432   0.331 -0.3480  0.2858 -0.0524
  360MOL0     C48480   2.613   8.296   0.279  0.0610  0.0508 -0.0682
  360MOL0     C48481   2.535   8.178   0.342 -0.3829 -0.1606  0.1815
  360MOL0     N48482   2.394   8.196   0.375 -0.7956 -0.6586 -0.4128
  360MOL0     C48483   2.292   8.155   0.302  0.2117 -0.8897 -0.9533
  360MOL0     C48484   2.181   8.192   0.374  0.3335  0.2354 -0.5464
  360MOL0     C48485   2.037   8.169   0.329  0.0732 -0.1463 -0.0314
  360MOL0     C48486   2.005   8.280   0.221 -0.2529  0.3726 -0.9735
  360MOL0     C48487   1.990   8.423   0.269 -0.6777  0.3862 -0.1627
  360MOL0     C48488   1.844   8.450   0.312  0.1681  0.1029  0.0694
  360MOL0     O48489   1.774   8.453   0.190 -0.2699  0.1375  0.6165
  360MOL0     C48490   1.638   8.454   0.198  0.0768 -1.0332 -0.4322
  360MOL0     C48491   1.576   8.527   0.101 -0.8697 -0.2143 -0.3632
  360MOL0     C48492   1.442   8.548   0.105 -0.7676 -0.6155 -0.5503
  360MOL0     C48493   1.398   8.650  -0.003 -0.8301  0.2242  0.1194
  360MOL0     C48494   1.357   8.492   0.200 -0.4459  0.5034 -0.7868
  360MOL0     C48495   1.211   8.496   0.196  1.1992  1.0189  0.5103
  360MOL0     O48496   1.139   8.451   0.307 -0.3762  0.0956 -0.7576
  360MOL0     C48497   1.008   8.480   0.298  0.2975  0.4824 -0.5785
  360MOL0     C48498   0.959   8.578   0.384  0.9020 -0.1646 -0.3740
  360MOL0     C48499   0.823   8.612   0.386 -0.2512  0.2954  1.8898
  360MOL0     C48500   0.736   8.546   0.305  0.3831  0.2297 -0.1079
  360MOL0     O48501   0.600   8.570   0.313 -0.6875 -0.2258  0.3423
  360MOL0     C48502   0.535   8.550   0.442  0.8018 -0.2387  0.0034
  360MOL0     C48503   0.403   8.631   0.438  0.6163  0.5853  0.7408
  360MOL0     C48504   0.422   8.773   0.479  0.3436 -0.4559 -0.7038
  360MOL0     C48505   0.509   8.860   0.392 -0.3606 -0.6731  0.2474
  360MOL0     C48506   0.530   9.006   0.444  0.1613 -0.0475 -0.0700
  360MOL0     C48507   0.596   9.017   0.576 -0.1151  0.9717 -0.0823
  360MOL0     C48508   0.723   8.939   0.585  0.0639  0.4113  0.3672
  360MOL0     C48509   0.815   9.005   0.689  0.1284 -0.3632 -0.2761
  360MOL0    Cl48510   0.710   9.013   0.835  0.4781  0.1297  0.1994
  360MOL0     C48511   0.784   8.453   0.207 -0.2607 -0.6920 -1.0674
  360MOL0     C48512   0.926   8.430   0.199  0.6573 -0.4098  0.2525
  360MOL0     O48513   1.162   8.523   0.089  0.4822 -0.0544  0.4595
  360MOL0     C48514   1.424   8.425   0.303  0.3786  0.7132  0.3179
  360MOL0     C48515   1.564   8.403   0.299  0.9614 -0.4037 -0.4958
  360MOL0     N48516   2.225   8.250   0.490  0.0249  0.3006  1.0475
  360MOL0     N48517   2.351   8.252   0.489 -0.1165 -0.2767 -0.2065
  360MOL0     C48518   2.125   9.100   0.445 -1.1164 -0.8433 -0.1892
  360MOL0     C48519   1.999   9.146   0.491 -0.3240  1.1365  0.6014
  360MOL0     C48520   1.644   9.162   0.806  0.2016 -1.0279 -0.2301
  360MOL0     C48521   1.580   9.277   0.759 -0.4278  0.7063 -0.4899
  360MOL0     C48522   1.469   9.333   0.822  0.6136  0.1800 -0.9642
  360MOL0     C48523   1.420   9.277   0.944  0.6222 -0.5477 -0.3854
  360MOL0     O48524   1.322   9.351   1.015  0.3053  0.4280  0.9023
  360MOL0     C48525   1.309   9.316   1.159  0.1694  0.3199 -0.5317
  360MOL0     C48526   1.204   9.405   1.219  0.4667  0.5160 -0.2558
  360MOL0     C48527   1.233   9.558   1.216 -0.1627  0.1060  0.8741
  360MOL0     C48528   1.100   9.636   1.225  0.5156 -0.5456  0.7864
  360MOL0     C48529   1.147   9.776   1.227  0.3242  0.4117  1.0147
  360MOL0     C48530   1.182   9.899   1.227  0.6042 -0.5601  0.0464
  360MOL0     C48531   1.491   9.162   0.991 -0.4730 -0.0257  0.1912
  360MOL0     C48532   1.596   9.106   0.929 -0.3125 -0.0627 -0.1752
  360MOL0     H48533   2.071   9.149   0.830 -1.6951  1.3273  0.9586
  360MOL0     H48534   2.294   9.103   0.740  0.4584  3.4970  0.4099
  360MOL0     H48535   2.307   8.883   0.388 -0.4326 -0.4517  5.4101
  360MOL0     H48536   2.398   9.007   0.300 -1.2329  0.0350  0.0044
  360MOL0     H48537   2.592   8.933   0.366 -1.2681 -0.9899 -3.0745
  360MOL0     H48538   2.515   8.879   0.523 -5.2836  0.4295  0.8919
  360MOL0     H48539   2.440   8.671   0.411 -0.1818  1.2263  0.9711
  360MOL0     H48540   2.472   8.754   0.244  1.4062  3.2170 -0.1978
  360MOL0     H48541   2.715   8.731   0.309  2.1533 -1.7250  1.2066
  360MOL0     H48542   2.661   8.664   0.465 -0.8960 -3.7180  0.8078
  360MOL0     H48543   2.630   8.578   0.174 -0.2601 -0.2057  0.3685
  360MOL0     H48544   2.757   8.514   0.277 -0.6092  0.3828 -0.6377
  360MOL0     H48545   2.561   8.428   0.439 -1.1492  2.2811 -0.0123
  360MOL0     H48546   2.469   8.444   0.293 -2.6957 -3.2427  4.2409
  360MOL0     H48547   2.610   8.297   0.170 -0.0113  2.8401 -0.1099
  360MOL0     H48548   2.714   8.281   0.320  0.2612 -0.7059 -0.8060
  360MOL0     H48549   2.582   8.163   0.440  1.2194 -2.6816 -0.8914
  360MOL0     H48550   2.550   8.086   0.285 -2.2388 -1.1047  1.1545
  360MOL0     H48551   2.286   8.112   0.202 -2.2672 -1.3181 -0.6875
  360MOL0     H48552   2.025   8.070   0.285 -4.5788 -0.4710  1.4424
  360MOL0     H48553   1.967   8.171   0.412 -0.0441 -2.3109 -0.0214
  360MOL0     H48554   1.913   8.245   0.173 -1.4027  0.6604  0.9389
  360MOL0     H48555   2.096   8.269   0.161  1.2835  1.1428  1.1081
  360MOL0     H48556   2.012   8.490   0.185 -1.8138  2.1723  0.8941
  360MOL0     H48557   2.063   8.449   0.346  1.4800 -2.6949 -0.9870
  360MOL0     H48558   1.842   8.551   0.355 -2.7197  0.4514 -0.6880
  360MOL0     H48559   1.819   8.375   0.386  1.1802 -2.3846 -1.9685
  360MOL0     H48560   1.640   8.579   0.031  0.5121 -2.6185 -1.0026
  360MOL0     H48561   1.318   8.715   0.034 -1.5644 -0.1362 -0.7898
  360MOL0     H48562   1.478   8.720  -0.029  0.1871 -0.9864 -0.0859
  360MOL0     H48563   1.366   8.589  -0.088 -1.4689  1.6778 -0.7073
  360MOL0     H48564   1.025   8.641   0.442 -1.5612  2.9595 -0.6449
  360MOL0     H48565   0.780   8.694   0.444  0.0844  2.4553 -0.7105
  360MOL0     H48566   0.514   8.445   0.465  1.6276 -1.2077 -3.1817
  360MOL0     H48567   0.605   8.599   0.511  2.0771  2.1488 -2.7941
  360MOL0     H48568   0.359   8.631   0.339  0.9235 -2.5712  0.5054
  360MOL0     H48569   0.335   8.581   0.508 -1.0690 -3.1460 -3.1663
  360MOL0     H48570   0.460   8.779   0.582 -0.0680  0.9719 -0.6206
  360MOL0     H48571   0.323   8.820   0.487  0.7967  0.3250  0.6862
  360MOL0     H48572   0.610   8.822   0.371 -0.0045  0.9160 -1.1742
  360MOL0     H48573   0.453   8.875   0.299  0.1351  2.0002  0.2960
  360MOL0     H48574   0.436   9.061   0.434  0.8513  1.2074  0.1204
  360MOL0     H48575   0.606   9.051   0.379  0.2944  0.6671  0.5634
  360MOL0     H48576   0.608   9.125   0.591 -0.3598  0.7164  2.3474
  360MOL0     H48577   0.521   8.987   0.651 -0.3987  1.3713 -0.2001
  360MOL0     H48578   0.773   8.930   0.488  0.2878  1.1539  0.4114
  360MOL0     H48579   0.714   8.837   0.625  1.9810  0.3630  0.7608
  360MOL0     H48580   0.829   9.106   0.649  0.7025 -0.4914 -0.4146
  360MOL0     H48581   0.910   8.952   0.697  0.9638  1.0792 -0.1918
  360MOL0     H48582   0.707   8.402   0.150 -0.1139 -1.1875 -0.8265
  360MOL0     H48583   0.973   8.369   0.123  0.5775 -0.4707  0.2520
  360MOL0     H48584   1.359   8.369   0.369 -0.2293 -0.7795 -1.4731
  360MOL0     H48585   1.612   8.327   0.360 -2.3387 -1.3277  1.1655
  360MOL0     H48586   2.136   9.113   0.338  1.5425  4.8940  0.3963
  360MOL0     H48587   1.917   9.172   0.425  1.5091 -1.6516 -3.1017
  360MOL0     H48588   1.636   9.318   0.676 -0.9003  0.6268 -0.8530
  360MOL0     H48589   1.424   9.424   0.784  0.1070 -0.1304 -1.1097
  360MOL0     H48590   1.283   9.212   1.177  1.3044 -0.0817 -1.1079
  360MOL0     H48591   1.405   9.335   1.209  0.0665  0.4214 -0.3694
  360MOL0     H48592   1.202   9.379   1.325 -2.0992  1.3069 -0.0312
  360MOL0     H48593   1.108   9.384   1.171  0.9734 -0.2478 -0.9620
  360MOL0     H48594   1.285   9.583   1.123 -1.0461  1.2770  0.6829
  360MOL0     H48595   1.309   9.587   1.288  1.3872 -0.0315 -0.6234
  360MOL0     H48596   1.056   9.628   1.325 -0.6137 -0.6005  0.2925
  360MOL0     H48597   1.014   9.616   1.160  1.2269  2.8986 -1.5000
  360MOL0     H48598   1.219   9.999   1.238 -0.1763 -0.2638  0.0709
  360MOL0     H48599   1.470   9.113   1.085 -1.1682  1.0355  0.6060
  360MOL0     H48600   1.632   9.014   0.974 -1.3368 -0.3822  0.0250
  361MOL0     O48601  10.639   2.432   5.053 -0.6513  0.3605 -0.1205
  361MOL0     C48602  10.683   2.314   5.045  0.2368  0.1600  0.5497
  361MOL0     O48603  10.632   2.210   4.973  0.1742  0.0557  0.1450
  361MOL0     C48604  10.523   2.236   4.898 -0.2374 -0.7674  0.2123
  361MOL0     C48605  10.418   2.155   4.925  0.8237  0.9450 -0.4153
  361MOL0     C48606  10.295   2.168   4.862 -0.3434 -0.0374 -0.2520
  361MOL0     C48607  10.296   2.257   4.749 -0.5489  0.7681  0.3302
  361MOL0     O48608  10.188   2.283   4.660  0.0098  0.5480  0.8846
  361MOL0     C48609  10.067   2.203   4.675  0.0540  0.0105 -0.4704
  361MOL0     C48610   9.978   2.214   4.541 -0.8881 -0.1369 -0.3590
  361MOL0     C48611   9.847   2.140   4.540 -0.0752 -0.2873  0.0027
  361MOL0     C48612   9.792   2.111   4.398 -0.8740 -0.3881  0.3204
  361MOL0     C48613   9.657   2.043   4.411 -0.2607  0.4419 -0.0022
  361MOL0     C48614   9.551   2.139   4.484 -0.3179  0.4581  0.1088
  361MOL0     C48615   9.407   2.098   4.444  0.0620 -0.1838 -1.1077
  361MOL0     C48616   9.298   2.202   4.492 -0.2525  0.0773  0.8770
  361MOL0     N48617   9.169   2.189   4.422  0.0243  0.0650  0.5403
  361MOL0     C48618   9.144   2.197   4.286 -0.0483  0.7547  0.9022
  361MOL0     C48619   9.018   2.161   4.271 -1.1185 -0.0992 -0.7518
  361MOL0     C48620   8.946   2.134   4.139 -0.2946  0.0623 -0.5744
  361MOL0     C48621   8.974   1.990   4.083  0.4151 -0.5005 -0.0628
  361MOL0     C48622   8.935   1.966   3.935  0.7152 -0.9714  0.0009
  361MOL0     C48623   8.995   1.844   3.872  0.7508  0.2470 -0.1318
  361MOL0     O48624   8.972   1.854   3.730  0.2227 -0.1841 -0.2206
  361MOL0     C48625   9.022   1.744   3.661 -0.3971  1.3532  0.4694
  361MOL0     C48626   9.159   1.722   3.656  0.5092  0.1691  0.5175
  361MOL0     C48627   9.212   1.603   3.611  0.0589 -0.0603 -0.2000
  361MOL0     C48628   9.359   1.596   3.608  0.4426 -0.2698  0.0782
  361MOL0     C48629   9.123   1.495   3.559 -0.4997 -0.5747 -0.5897
  361MOL0     C48630   9.168   1.391   3.470 -0.1653 -0.2078  0.6164
  361MOL0     O48631   9.083   1.285   3.442 -0.0556  0.0159 -0.0763
  361MOL0     C48632   9.117   1.186   3.357  0.1295  0.3617  0.3889
  361MOL0     C48633   9.219   1.180   3.261  0.8767 -0.2842 -0.1621
  361MOL0     C48634   9.240   1.065   3.186 -0.6476  0.3097 -0.7712
  361MOL0     C48635   9.165   0.956   3.199 -0.2534  1.4672 -0.2913
  361MOL0     O48636   9.182   0.839   3.124 -0.5784  0.1712 -0.1843
  361MOL0     C48637   9.232   0.863   2.991  0.4546  0.9890  0.4325
  361MOL0     C48638   9.220   0.742   2.915 -0.0995  0.0386  0.6809
  361MOL0     C48639   9.080   0.721   2.879  0.1113  0.1253  0.6319
  361MOL0     C48640   9.062   0.633   2.753  0.0981 -0.4937  0.2228
  361MOL0     C48641   8.914   0.587   2.737 -0.2052 -0.3463 -0.1424
  361MOL0     C48642   8.891   0.511   2.607 -0.0921  0.1336 -0.7525
  361MOL0     C48643   8.766   0.413   2.602 -0.5760 -0.9406  0.1465
  361MOL0     C48644   8.644   0.495   2.569  0.8257  0.3709 -0.8318
  361MOL0    Cl48645   8.635   0.530   2.397 -0.2795  0.1661  0.2463
  361MOL0     C48646   9.058   0.968   3.296 -0.6651 -0.1899  0.6812
  361MOL0     C48647   9.030   1.080   3.368 -0.3229  0.3623  0.3524
  361MOL0     O48648   9.279   1.399   3.417  0.2891  0.2342 -0.4940
  361MOL0     C48649   8.989   1.514   3.570  0.4331 -0.5961 -0.3340
  361MOL0     C48650   8.940   1.640   3.610  0.6660 -0.7023  0.0907
  361MOL0     N48651   8.953   2.140   4.396  0.1066 -0.3007  0.4425
  361MOL0     N48652   9.049   2.158   4.483  0.2017 -0.4999 -1.3021
  361MOL0     C48653  10.401   2.343   4.726 -0.1963  0.3962 -0.3226
  361MOL0     C48654  10.515   2.334   4.800 -0.4475  0.2320 -0.4175
  361MOL0     C48655  10.801   2.288   5.122  0.3666  0.1741  0.3366
  361MOL0     C48656  10.854   2.158   5.139 -0.2255  0.1536 -0.6539
  361MOL0     C48657  10.973   2.140   5.214  0.4400  0.5133 -0.5997
  361MOL0     C48658  11.052   2.240   5.254 -0.1570  1.2876 -0.4033
  361MOL0     O48659  11.154   2.197   5.335  0.4580 -0.1105  0.0495
  361MOL0     C48660  11.217   2.301   5.405  0.2218  0.0183  0.3078
  361MOL0     C48661  11.305   2.240   5.519  0.0974 -0.5268 -1.1209
  361MOL0     C48662  11.239   2.217   5.662  0.2100  0.2984  0.0931
  361MOL0     C48663  11.334   2.186   5.783 -0.8578 -1.4641 -0.1620
  361MOL0     C48664  11.404   2.053   5.756 -0.9637 -0.9974 -0.5712
  361MOL0     C48665  11.479   1.960   5.733  0.6020 -0.5590 -0.0482
  361MOL0     C48666  11.006   2.369   5.225  0.5638 -0.2616 -0.3076
  361MOL0     C48667  10.884   2.396   5.154 -0.1672  0.2376 -1.1443
  361MOL0     H48668  10.441   2.079   4.999  2.3275  2.0837  0.3279
  361MOL0     H48669  10.224   2.095   4.899  0.6927 -0.7477  0.4041
  361MOL0     H48670  10.100   2.099   4.682  1.1622  0.3576 -0.3719
  361MOL0     H48671  10.021   2.223   4.772  1.5504  0.7287  0.1185
  361MOL0     H48672   9.963   2.322   4.528  1.4153  0.3911  0.9234
  361MOL0     H48673  10.044   2.171   4.466  1.5390  3.3693 -0.4940
  361MOL0     H48674   9.850   2.050   4.601  3.0166  0.1096  0.6190
  361MOL0     H48675   9.771   2.211   4.573 -0.3475 -0.1422 -0.9097
  361MOL0     H48676   9.776   2.210   4.355  0.5198 -0.7981 -1.2429
  361MOL0     H48677   9.861   2.070   4.325 -0.4789  0.7902  0.0193
  361MOL0     H48678   9.625   2.029   4.308  0.3618 -0.1443 -0.1263
  361MOL0     H48679   9.659   1.951   4.471 -3.0283  0.6273  0.5130
  361MOL0     H48680   9.567   2.135   4.592  1.6807 -3.9224 -0.1382
  361MOL0     H48681   9.563   2.242   4.450 -1.3267 -0.5145 -3.6757
  361MOL0     H48682   9.391   2.070   4.340 -3.8165 -0.4142 -0.5821
  361MOL0     H48683   9.381   2.004   4.495 -1.7743 -1.3690 -3.9757
  361MOL0     H48684   9.339   2.302   4.476 -0.9335  0.5236  1.8458
  361MOL0     H48685   9.293   2.202   4.601  1.6953 -1.0727  1.0080
  361MOL0     H48686   9.216   2.216   4.207 -0.0219 -1.6105  0.3030
  361MOL0     H48687   8.837   2.133   4.152 -0.2672 -0.0916 -0.3605
  361MOL0     H48688   8.975   2.217   4.075 -0.9440  0.8957  0.1915
  361MOL0     H48689   8.907   1.926   4.143  0.9227 -0.8820  0.1036
  361MOL0     H48690   9.078   1.973   4.110  1.0337  1.6011 -0.9539
  361MOL0     H48691   8.973   2.057   3.886 -0.4130 -0.4818 -0.0013
  361MOL0     H48692   8.825   1.961   3.934  0.7443 -1.7785  0.4198
  361MOL0     H48693   8.952   1.752   3.911  4.1575 -1.8225 -0.8392
  361MOL0     H48694   9.103   1.846   3.886  0.6405  2.8363  0.9546
  361MOL0     H48695   9.223   1.795   3.705  0.7527 -0.2355  0.8127
  361MOL0     H48696   9.386   1.612   3.503  0.3220  0.4148  0.1501
  361MOL0     H48697   9.410   1.673   3.666  0.6606 -0.1985 -0.2080
  361MOL0     H48698   9.400   1.501   3.645  0.7686  0.9138  3.0158
  361MOL0     H48699   9.298   1.250   3.235 -0.6143  0.5994 -2.6776
  361MOL0     H48700   9.311   1.070   3.104 -1.4983  0.5444 -1.5035
  361MOL0     H48701   9.195   0.955   2.944  1.3860  0.8297 -0.6483
  361MOL0     H48702   9.340   0.880   2.996  0.3910  2.0175 -0.9987
  361MOL0     H48703   9.279   0.739   2.824 -0.0429 -2.7727  0.7046
  361MOL0     H48704   9.267   0.657   2.966 -1.8265 -1.9305 -0.7965
  361MOL0     H48705   9.029   0.817   2.871 -1.2116 -0.6509 -0.7391
  361MOL0     H48706   9.031   0.662   2.957 -2.6346  1.3443 -0.0672
  361MOL0     H48707   9.089   0.699   2.670  2.3260 -1.6891 -0.0930
  361MOL0     H48708   9.127   0.545   2.757 -0.5820 -1.1026 -1.3945
  361MOL0     H48709   8.863   0.684   2.740 -1.2948 -0.8098 -1.9127
  361MOL0     H48710   8.882   0.523   2.819 -1.2791  1.9432  1.3403
  361MOL0     H48711   8.892   0.569   2.514 -1.0226  0.2125 -0.7206
  361MOL0     H48712   8.980   0.449   2.594 -0.4362 -0.2992 -1.0512
  361MOL0     H48713   8.751   0.366   2.700  1.7612 -0.1915  0.9327
  361MOL0     H48714   8.788   0.344   2.520  2.7583 -1.4985  1.3766
  361MOL0     H48715   8.640   0.578   2.641  2.2130 -0.6117  0.4482
  361MOL0     H48716   8.560   0.430   2.593 -0.4309  1.4271 -2.2208
  361MOL0     H48717   9.000   0.877   3.308 -2.0608  0.1666 -2.3596
  361MOL0     H48718   8.948   1.081   3.438 -0.7391  2.7324 -0.0720
  361MOL0     H48719   8.922   1.430   3.552  1.1838 -1.6099  1.3454
  361MOL0     H48720   8.834   1.654   3.631  0.9083  2.1747 -0.1946
  361MOL0     H48721  10.398   2.430   4.661  0.8700  1.3141  0.8136
  361MOL0     H48722  10.596   2.405   4.787  1.7724 -1.6524  2.0596
  361MOL0     H48723  10.798   2.079   5.091 -0.2250  0.8328 -1.8033
  361MOL0     H48724  11.007   2.040   5.236  0.5814  0.2159 -2.0569
  361MOL0     H48725  11.284   2.352   5.335 -0.9699  3.6154  1.5750
  361MOL0     H48726  11.140   2.374   5.431 -0.1340  1.0007 -2.9462
  361MOL0     H48727  11.354   2.334   5.546 -1.3625  0.5260 -1.9766
  361MOL0     H48728  11.369   2.157   5.486  0.9232 -0.1502 -0.4933
  361MOL0     H48729  11.176   2.128   5.655  0.3588 -0.0495  2.3938
  361MOL0     H48730  11.180   2.305   5.687 -0.9023  0.6101 -3.2416
  361MOL0     H48731  11.274   2.182   5.875 -2.4073  1.4285 -0.9230
  361MOL0     H48732  11.411   2.262   5.801 -1.3477 -1.2127  0.9877
  361MOL0     H48733  11.545   1.889   5.689 -0.2300 -0.9094 -0.7607
  361MOL0     H48734  11.068   2.453   5.253 -0.5996  0.4355  0.2600
  361MOL0     H48735  10.849   2.499   5.148 -0.6783  0.1920  0.5237
  362MOL0     O48736   6.411   2.334   3.948 -0.2865 -0.8899  0.1871
  362MOL0     C48737   6.445   2.440   3.887  0.5686 -0.4609  0.1291
  362MOL0     O48738   6.567   2.507   3.905  0.3861 -0.1513 -0.3683
  362MOL0     C48739   6.645   2.456   4.004  0.0584  0.6402  0.8695
  362MOL0     C48740   6.780   2.449   3.970  0.9510  0.2859  0.8341
  362MOL0     C48741   6.876   2.403   4.060  0.2000 -0.7794  0.2814
  362MOL0     C48742   6.836   2.361   4.190 -0.3288 -0.2600  0.5167
  362MOL0     O48743   6.914   2.297   4.284 -0.2695  0.8975  0.2526
  362MOL0     C48744   7.046   2.271   4.249 -0.7380 -0.7034  0.8667
  362MOL0     C48745   7.138   2.250   4.374  0.1603 -0.2152  1.1479
  362MOL0     C48746   7.120   2.109   4.420  0.1875 -0.8079 -0.8431
  362MOL0     C48747   7.189   1.991   4.350  0.2151  0.2548  1.3672
  362MOL0     C48748   7.136   1.856   4.414 -0.9633 -0.3957  0.2151
  362MOL0     C48749   7.193   1.737   4.335 -0.0759 -0.1143 -0.1500
  362MOL0     C48750   7.111   1.611   4.369 -0.3633 -1.2283  0.0576
  362MOL0     C48751   7.165   1.492   4.283  0.5711 -1.0244  0.4140
  362MOL0     N48752   7.303   1.462   4.328  0.0262  0.0296  0.1018
  362MOL0     C48753   7.383   1.381   4.257 -0.2233 -0.1326  0.0560
  362MOL0     C48754   7.480   1.349   4.337 -0.3551 -0.0474  0.1361
  362MOL0     C48755   7.605   1.267   4.304 -1.0038  0.3167  0.2329
  362MOL0     C48756   7.611   1.212   4.156  0.2897  0.6158 -0.1405
  362MOL0     C48757   7.744   1.130   4.155  0.2437  0.1002  0.4748
  362MOL0     C48758   7.754   1.040   4.037 -0.4767  0.1770  0.0600
  362MOL0     O48759   7.712   0.905   4.060  0.1621 -0.0456  0.4553
  362MOL0     C48760   7.803   0.815   4.102  0.5673  0.3281 -0.7205
  362MOL0     C48761   7.940   0.809   4.106 -0.0973 -0.2581 -0.6250
  362MOL0     C48762   8.016   0.700   4.142  0.7641 -0.1050 -0.3766
  362MOL0     C48763   8.166   0.727   4.142 -0.4417 -0.5545 -0.4981
  362MOL0     C48764   7.952   0.583   4.183  0.6252 -0.1398  0.4606
  362MOL0     C48765   8.019   0.466   4.226 -0.4881  1.4589  1.0364
  362MOL0     O48766   8.159   0.453   4.201  0.1699 -0.1721  0.1893
  362MOL0     C48767   8.241   0.350   4.249  0.1179 -1.1851  0.3702
  362MOL0     C48768   8.219   0.252   4.344  0.2021 -0.0038 -0.1141
  362MOL0     C48769   8.320   0.168   4.389  0.5362  0.0576 -0.0873
  362MOL0     C48770   8.456   0.191   4.341  0.3332 -0.3037  1.1821
  362MOL0     O48771   8.563   0.127   4.390  0.3120 -0.5164 -0.4768
  362MOL0     C48772   8.550   0.011   4.468  0.8228  0.0681  0.0152
  362MOL0     C48773   8.513  -0.122   4.396 -0.2565  0.3121  0.5327
  362MOL0     C48774   8.372  -0.164   4.424 -0.0006 -0.1856  0.0989
  362MOL0     C48775   8.349  -0.314   4.387 -0.3084  0.1891 -0.2382
  362MOL0     C48776   8.216  -0.373   4.450 -1.4547  0.4424 -0.7463
  362MOL0     C48777   8.189  -0.515   4.430 -0.7694 -0.1548 -0.7171
  362MOL0     C48778   8.186  -0.560   4.289 -0.4553  0.4333 -0.1937
  362MOL0     C48779   8.118  -0.706   4.277 -0.3082  0.4014 -0.4458
  362MOL0    Cl48780   7.938  -0.688   4.286  0.5698  0.2612 -0.2268
  362MOL0     C48781   8.474   0.294   4.246 -0.0539 -0.0132  0.6364
  362MOL0     C48782   8.363   0.372   4.191 -0.4825 -0.1260  0.5566
  362MOL0     O48783   7.951   0.369   4.258  0.6862  0.2767  0.4860
  362MOL0     C48784   7.812   0.583   4.177  0.2235  0.3758  0.4602
  362MOL0     C48785   7.736   0.691   4.128 -1.6073  1.1479  0.0970
  362MOL0     N48786   7.462   1.389   4.464 -0.7294 -0.7532 -0.2242
  362MOL0     N48787   7.347   1.449   4.458 -0.0019  0.8010  0.0849
  362MOL0     C48788   6.697   2.368   4.224 -0.3733  0.8271  1.0293
  362MOL0     C48789   6.607   2.422   4.138  0.0240 -0.7202  0.0162
  362MOL0     C48790   6.351   2.500   3.789  0.3883  0.3901 -0.3830
  362MOL0     C48791   6.220   2.451   3.775  1.0140 -0.0185 -0.6158
  362MOL0     C48792   6.138   2.519   3.678  0.4587  0.3563 -0.0594
  362MOL0     C48793   6.192   2.619   3.599 -0.1902 -0.0736 -0.4661
  362MOL0     O48794   6.111   2.682   3.508  0.4525  0.6028 -0.3551
  362MOL0     C48795   6.158   2.752   3.392 -0.3549 -0.5539 -0.9469
  362MOL0     C48796   6.052   2.766   3.280 -0.4654  0.1799  0.0611
  362MOL0     C48797   5.972   2.630   3.249 -0.1933  0.0062 -0.4267
  362MOL0     C48798   5.839   2.654   3.172  0.6790 -0.1244  0.2448
  362MOL0     C48799   5.772   2.514   3.183 -0.2051  0.2284 -0.6444
  362MOL0     C48800   5.727   2.403   3.212 -0.4836  0.0674 -0.0319
  362MOL0     C48801   6.316   2.670   3.610  0.4396  0.4799  0.2542
  362MOL0     C48802   6.398   2.609   3.698 -0.9329  0.6142 -0.5147
  362MOL0     H48803   6.814   2.460   3.868  4.1600  1.4551  1.9144
  362MOL0     H48804   6.980   2.404   4.031  0.1349 -0.2577  0.0680
  362MOL0     H48805   7.053   2.183   4.184  1.1619 -0.3337  0.5156
  362MOL0     H48806   7.080   2.360   4.196 -1.5987  0.0764  1.5979
  362MOL0     H48807   7.242   2.272   4.346  0.2200  2.1144  2.8813
  362MOL0     H48808   7.106   2.316   4.455  0.1641 -0.9104  1.7306
  362MOL0     H48809   7.145   2.097   4.526 -0.1825 -2.0309 -0.8769
  362MOL0     H48810   7.011   2.105   4.410  0.0715  2.1464 -1.6599
  362MOL0     H48811   7.182   1.991   4.241  0.4577  1.9997  1.3286
  362MOL0     H48812   7.297   1.997   4.369  0.1958  0.2918  1.4700
  362MOL0     H48813   7.179   1.862   4.515  3.2661  0.7714 -1.4283
  362MOL0     H48814   7.027   1.845   4.421 -1.0683  1.0987  1.6623
  362MOL0     H48815   7.186   1.753   4.227  1.5317 -0.9715 -0.4189
  362MOL0     H48816   7.301   1.735   4.354 -0.0941 -0.5926 -0.0701
  362MOL0     H48817   7.127   1.586   4.474  0.5785  2.7333  1.0217
  362MOL0     H48818   7.005   1.619   4.344 -0.4691 -0.5680  0.6914
  362MOL0     H48819   7.153   1.520   4.179 -1.9725  3.2309  1.6072
  362MOL0     H48820   7.098   1.407   4.303  0.6922 -1.3220 -0.4275
  362MOL0     H48821   7.375   1.357   4.151 -1.5709  1.2466 -0.1784
  362MOL0     H48822   7.698   1.324   4.313  1.4197 -3.2156 -0.3844
  362MOL0     H48823   7.612   1.183   4.374  1.5742 -1.3205 -1.7796
  362MOL0     H48824   7.610   1.289   4.078 -0.4015 -1.0320 -1.8191
  362MOL0     H48825   7.517   1.160   4.138  0.3675  0.9533 -1.7037
  362MOL0     H48826   7.754   1.056   4.235 -1.5327 -1.3693 -0.5764
  362MOL0     H48827   7.822   1.205   4.141 -1.2350  1.9197  1.5362
  362MOL0     H48828   7.855   1.035   3.994 -1.8044 -2.7827 -3.1517
  362MOL0     H48829   7.698   1.081   3.953  1.4593  0.9772 -0.9239
  362MOL0     H48830   7.986   0.904   4.078  0.3812  0.1028  1.2303
  362MOL0     H48831   8.192   0.720   4.248  0.5248 -0.9415 -0.7503
  362MOL0     H48832   8.236   0.668   4.083  0.7552  0.0329  0.2991
  362MOL0     H48833   8.187   0.827   4.102  2.4326 -1.7049 -2.1305
  362MOL0     H48834   8.118   0.255   4.383  0.3680  2.4837  0.3071
  362MOL0     H48835   8.293   0.091   4.461 -0.7559  2.4102  2.1154
  362MOL0     H48836   8.650   0.001   4.509  0.1930 -3.7702  1.0430
  362MOL0     H48837   8.480   0.020   4.551 -0.2537 -2.1587 -0.5616
  362MOL0     H48838   8.527  -0.097   4.290 -0.9683  4.6084  1.2491
  362MOL0     H48839   8.578  -0.202   4.432  1.5939 -0.8823 -4.5568
  362MOL0     H48840   8.299  -0.104   4.368 -1.7872 -3.2032 -1.0141
  362MOL0     H48841   8.343  -0.159   4.529  1.6903 -1.0853  0.6533
  362MOL0     H48842   8.347  -0.334   4.280 -0.0677 -1.4966  0.0316
  362MOL0     H48843   8.433  -0.373   4.425 -2.9097 -1.9835  2.7736
  362MOL0     H48844   8.139  -0.314   4.400 -1.6630 -1.8361 -3.3188
  362MOL0     H48845   8.208  -0.357   4.558  0.9111 -1.9192 -0.1270
  362MOL0     H48846   8.271  -0.567   4.479 -0.0112  1.7839  0.1379
  362MOL0     H48847   8.094  -0.532   4.482 -1.5288 -2.6923 -2.7338
  362MOL0     H48848   8.291  -0.556   4.260  0.0572 -2.1797  1.0395
  362MOL0     H48849   8.134  -0.490   4.222 -0.9672 -2.5532 -3.1764
  362MOL0     H48850   8.157  -0.767   4.360  3.1894 -0.2730 -2.3620
  362MOL0     H48851   8.147  -0.764   4.189 -1.0423  1.3120 -1.3065
  362MOL0     H48852   8.575   0.320   4.217 -1.3245  2.0017 -2.4615
  362MOL0     H48853   8.381   0.454   4.122 -0.2116  2.2455  3.2478
  362MOL0     H48854   7.748   0.499   4.203  1.8420 -1.4437 -1.2096
  362MOL0     H48855   7.628   0.688   4.132 -1.5953 -0.1061 -0.0539
  362MOL0     H48856   6.678   2.327   4.322  2.2069  0.7894  1.5894
  362MOL0     H48857   6.501   2.409   4.161  0.4777  0.3159  3.0642
  362MOL0     H48858   6.177   2.368   3.830  2.6006 -0.6878 -0.3399
  362MOL0     H48859   6.035   2.487   3.663 -0.0908  1.7872  0.5493
  362MOL0     H48860   6.178   2.856   3.418 -0.0176 -1.4053  2.7360
  362MOL0     H48861   6.247   2.704   3.350  2.3461  2.9410  0.2404
  362MOL0     H48862   6.096   2.800   3.185  0.4373  1.1030  0.7928
  362MOL0     H48863   5.980   2.840   3.315 -0.2130  0.3670  0.1852
  362MOL0     H48864   5.961   2.566   3.337  2.8579  0.8075  0.6736
  362MOL0     H48865   6.038   2.575   3.182  1.6556 -0.6510  1.8065
  362MOL0     H48866   5.860   2.665   3.065 -0.6948 -1.4028 -0.1883
  362MOL0     H48867   5.764   2.722   3.215 -0.1326 -1.4548  1.0156
  362MOL0     H48868   5.686   2.309   3.245 -0.3772  0.0582  0.0784
  362MOL0     H48869   6.349   2.756   3.553 -0.5766 -0.6979 -2.2611
  362MOL0     H48870   6.499   2.647   3.707 -0.7816  0.3532 -1.0780
  363MOL0     O48871   3.613  10.712   2.606 -0.3516  0.5972  0.7679
  363MOL0     C48872   3.494  10.734   2.611  0.9332  0.0428  0.2214
  363MOL0     O48873   3.420  10.757   2.498 -0.7104 -0.1082 -0.2683
  363MOL0     C48874   3.480  10.730   2.372  0.6797 -0.5106 -0.1529
  363MOL0     C48875   3.603  10.787   2.329  0.2265  0.7054  0.3526
  363MOL0     C48876   3.641  10.751   2.204  0.6315 -0.1346 -0.2006
  363MOL0     C48877   3.562  10.686   2.103 -0.9465 -0.2061 -0.8717
  363MOL0     O48878   3.612  10.677   1.974  0.8531  0.0561  0.8514
  363MOL0     C48879   3.718  10.773   1.929 -0.2627  0.5089  0.2581
  363MOL0     C48880   3.707  10.792   1.777 -0.4281 -0.4951  0.9983
  363MOL0     C48881   3.808  10.900   1.735  0.8624 -0.2365  0.0675
  363MOL0     C48882   3.827  10.921   1.586  0.1639 -0.9950  0.8978
  363MOL0     C48883   3.909  11.051   1.564  0.2715  0.2359 -0.3933
  363MOL0     C48884   3.958  11.062   1.433  0.4595 -0.9075  0.3412
  363MOL0     C48885   4.017  11.201   1.393  1.0710 -0.2803 -0.3285
  363MOL0     C48886   3.913  11.312   1.380 -0.2363  0.3627 -0.7596
  363MOL0     N48887   3.970  11.436   1.325 -0.0763  0.2953  1.3773
  363MOL0     C48888   3.947  11.480   1.206 -0.6652 -0.9364  0.5447
  363MOL0     C48889   4.024  11.595   1.186  0.5228  0.5339 -0.6965
  363MOL0     C48890   4.026  11.675   1.049  0.0295 -0.2335 -0.3196
  363MOL0     C48891   4.137  11.780   1.034  0.7861 -0.6610 -0.3047
  363MOL0     C48892   4.115  11.862   0.902 -0.0743 -0.7951 -0.8010
  363MOL0     C48893   3.988  11.958   0.923  0.1089  0.3426  0.3194
  363MOL0     O48894   3.874  11.909   0.840 -0.0762 -0.8077 -0.2080
  363MOL0     C48895   3.753  11.976   0.837  0.2882 -0.4284 -0.1106
  363MOL0     C48896   3.660  11.943   0.734  0.0114 -0.0541 -0.9621
  363MOL0     C48897   3.531  12.000   0.732 -0.6734 -0.0636  1.1059
  363MOL0     C48898   3.449  11.955   0.606  0.0025  0.2614 -0.8340
  363MOL0     C48899   3.493  12.092   0.839  0.0467  0.1497  0.6655
  363MOL0     C48900   3.357  12.152   0.845 -0.3313  0.5542 -0.1099
  363MOL0     O48901   3.318  12.214   0.957 -0.2432  0.5379 -0.5245
  363MOL0     C48902   3.234  12.321   0.971 -0.5289 -0.8510 -0.4598
  363MOL0     C48903   3.198  12.350   1.105 -0.6103 -0.1450 -0.1184
  363MOL0     C48904   3.107  12.446   1.143  0.6225 -0.8511 -0.5396
  363MOL0     C48905   3.038  12.516   1.044  0.1177 -0.1690  0.1743
  363MOL0     O48906   2.952  12.612   1.082  0.3978 -0.0375 -0.1434
  363MOL0     C48907   2.822  12.585   1.034  0.9631 -0.1850 -0.6124
  363MOL0     C48908   2.718  12.676   1.109  0.5252  0.2880 -0.5401
  363MOL0     C48909   2.731  12.821   1.077  0.1361 -0.0096  0.2700
  363MOL0     C48910   2.614  12.909   1.111  1.1718 -0.7764 -0.3607
  363MOL0     C48911   2.648  13.048   1.171 -0.4228 -0.1821 -1.4595
  363MOL0     C48912   2.519  13.139   1.190 -1.0822  1.7431  0.2861
  363MOL0     C48913   2.531  13.266   1.267 -0.4918 -0.5159  0.2414
  363MOL0     C48914   2.583  13.395   1.192 -0.1924  0.3151  0.3167
  363MOL0    Cl48915   2.445  13.467   1.119  0.1912 -0.3962 -0.0643
  363MOL0     C48916   3.054  12.482   0.905  0.8081  0.3855 -0.0039
  363MOL0     C48917   3.155  12.380   0.873 -0.0598 -0.5348 -0.9945
  363MOL0     O48918   3.284  12.153   0.748 -0.0374  0.5210 -0.4064
  363MOL0     C48919   3.584  12.108   0.944 -0.5771 -0.2232  0.1343
  363MOL0     C48920   3.711  12.054   0.938  0.2148 -0.5368  0.4198
  363MOL0     N48921   4.083  11.618   1.301 -0.1642  0.0251 -0.5025
  363MOL0     N48922   4.043  11.529   1.390 -0.3324 -0.2794  0.1684
  363MOL0     C48923   3.434  10.648   2.139  0.1466 -0.1784 -0.4968
  363MOL0     C48924   3.396  10.674   2.274  0.0985  1.0084  0.2095
  363MOL0     C48925   3.421  10.747   2.738  1.5837 -0.2621 -0.3249
  363MOL0     C48926   3.311  10.835   2.747  1.0123  0.5709 -0.0617
  363MOL0     C48927   3.246  10.857   2.869  0.0515  0.1070  0.1756
  363MOL0     C48928   3.303  10.808   2.978 -0.2638 -0.2121  0.4116
  363MOL0     O48929   3.257  10.827   3.109  0.3902 -0.7568 -0.1911
  363MOL0     C48930   3.224  10.967   3.160 -1.0154  1.2675  0.4641
  363MOL0     C48931   3.092  10.971   3.217  0.2751  0.9843 -0.7461
  363MOL0     C48932   2.994  11.065   3.143  1.9357 -0.1599  1.0592
  363MOL0     C48933   2.847  11.036   3.178 -0.1287  0.3111 -0.7687
  363MOL0     C48934   2.829  11.080   3.323 -0.4587  0.2689  0.7953
  363MOL0     C48935   2.797  11.101   3.441  0.1042 -0.0617  0.1714
  363MOL0     C48936   3.415  10.726   2.980 -0.3559  0.6080 -0.0108
  363MOL0     C48937   3.479  10.698   2.861 -0.9860  0.3486  0.3331
  363MOL0     H48938   3.672  10.848   2.386 -0.7703  1.4815  0.7705
  363MOL0     H48939   3.740  10.781   2.172  0.4208 -0.9445 -1.7457
  363MOL0     H48940   3.695  10.872   1.969  0.1013  0.8995 -0.4761
  363MOL0     H48941   3.811  10.727   1.962  0.9319 -0.0587 -3.3957
  363MOL0     H48942   3.738  10.700   1.726 -1.6415  0.7977 -2.3328
  363MOL0     H48943   3.609  10.825   1.743  0.7057 -0.0155 -2.1682
  363MOL0     H48944   3.754  10.984   1.779 -0.8195 -1.4028  0.3366
  363MOL0     H48945   3.905  10.879   1.781  1.4180 -0.2167 -1.0433
  363MOL0     H48946   3.879  10.834   1.546  2.9243 -0.2163  2.5584
  363MOL0     H48947   3.733  10.922   1.529  1.3858  1.5089 -1.2999
  363MOL0     H48948   3.836  11.130   1.583 -2.6325 -1.7735 -2.3999
  363MOL0     H48949   3.983  11.046   1.645  1.0648 -1.9013 -1.1748
  363MOL0     H48950   4.038  10.988   1.429  3.0986  1.8401 -1.9393
  363MOL0     H48951   3.880  11.036   1.360  0.9343  0.4739 -0.6894
  363MOL0     H48952   4.093  11.228   1.467 -1.5067 -0.3263  2.5328
  363MOL0     H48953   4.061  11.198   1.293 -0.3705 -2.1569 -0.9629
  363MOL0     H48954   3.865  11.318   1.478  3.9945  1.4679  1.5103
  363MOL0     H48955   3.831  11.278   1.317 -2.2420 -0.1910  1.9862
  363MOL0     H48956   3.893  11.427   1.128  0.8800 -0.7258 -0.7292
  363MOL0     H48957   4.030  11.609   0.962 -1.7256 -0.0287 -0.5989
  363MOL0     H48958   3.929  11.726   1.048  0.8148  1.4182  1.5619
  363MOL0     H48959   4.229  11.721   1.026  0.2833 -1.3167 -1.4209
  363MOL0     H48960   4.140  11.851   1.117  0.0293  0.3704 -1.1426
  363MOL0     H48961   4.109  11.798   0.813  2.9846  0.7918 -2.2832
  363MOL0     H48962   4.199  11.928   0.882  0.0166  0.9025  3.9233
  363MOL0     H48963   4.012  12.051   0.871  1.0845  0.2540  0.5830
  363MOL0     H48964   3.959  11.970   1.027  1.1016 -0.2278  0.6784
  363MOL0     H48965   3.697  11.871   0.662 -0.5370  1.1397 -2.4820
  363MOL0     H48966   3.358  11.907   0.643  0.9589 -1.1494 -0.2049
  363MOL0     H48967   3.438  12.041   0.540 -0.5748  0.5277 -0.4035
  363MOL0     H48968   3.503  11.876   0.555  0.8471 -0.0109  0.4302
  363MOL0     H48969   3.264  12.300   1.174  2.2374  0.5656 -2.1506
  363MOL0     H48970   3.086  12.474   1.246  1.1956  0.9784 -0.8939
  363MOL0     H48971   2.808  12.596   0.927 -0.7543 -0.3225 -0.4343
  363MOL0     H48972   2.795  12.480   1.053  3.4432 -0.9198 -0.8674
  363MOL0     H48973   2.616  12.644   1.084 -0.5631  1.2255  2.2350
  363MOL0     H48974   2.734  12.660   1.216 -0.2644  4.2940  0.3572
  363MOL0     H48975   2.747  12.817   0.969  0.5000  1.6259  0.2346
  363MOL0     H48976   2.822  12.865   1.121  0.1027  1.6309 -1.1884
  363MOL0     H48977   2.556  12.931   1.021  1.7456  0.8290 -0.3632
  363MOL0     H48978   2.546  12.852   1.176  0.2248 -0.9779 -1.4910
  363MOL0     H48979   2.716  13.089   1.096  0.4275  0.8832 -0.1419
  363MOL0     H48980   2.692  13.034   1.270 -5.0049 -1.5109  0.6851
  363MOL0     H48981   2.482  13.144   1.087 -1.0285 -2.3414 -0.0917
  363MOL0     H48982   2.445  13.077   1.241 -0.9716 -0.9712 -2.5399
  363MOL0     H48983   2.601  13.252   1.349 -1.0139 -1.3647  0.5536
  363MOL0     H48984   2.431  13.285   1.308 -2.3314 -0.1757 -3.8646
  363MOL0     H48985   2.665  13.375   1.122 -0.0330 -0.4093  0.7033
  363MOL0     H48986   2.621  13.455   1.274  2.8060 -1.8841  0.6942
  363MOL0     H48987   2.996  12.526   0.825  0.0730 -1.6791 -0.6790
  363MOL0     H48988   3.165  12.343   0.771 -1.4382 -3.9659 -0.0169
  363MOL0     H48989   3.553  12.160   1.034 -0.0624  1.0769 -0.4189
  363MOL0     H48990   3.771  12.074   1.026 -0.2415  1.6460  0.2898
  363MOL0     H48991   3.369  10.601   2.066  2.8406 -3.0836 -1.2341
  363MOL0     H48992   3.294  10.642   2.292  0.1108 -0.5851 -2.1279
  363MOL0     H48993   3.280  10.869   2.649 -0.8359  1.2675  0.7222
  363MOL0     H48994   3.153  10.912   2.865  1.4236  2.4809 -1.5573
  363MOL0     H48995   3.301  11.001   3.229  0.4520  1.2591 -1.1062
  363MOL0     H48996   3.231  11.028   3.070 -0.2668 -1.7957 -1.6996
  363MOL0     H48997   3.097  11.012   3.319  0.3474  0.3047 -0.4694
  363MOL0     H48998   3.045  10.873   3.231 -0.8232  1.1993 -2.6127
  363MOL0     H48999   3.000  11.060   3.034 -3.2915  2.5427  0.3350
  363MOL0     H49000   3.018  11.168   3.171  1.7434  0.7680 -1.8355
  363MOL0     H49001   2.814  10.933   3.162 -1.0347  0.4528  0.0721
  363MOL0     H49002   2.775  11.088   3.115 -0.1042  1.0063 -0.2390
  363MOL0     H49003   2.768  11.132   3.540  1.8530  0.1482  0.6582
  363MOL0     H49004   3.456  10.703   3.078 -2.4056 -0.6885  0.6143
  363MOL0     H49005   3.577  10.655   2.849 -0.5977  0.1338  3.5263
  364MOL0     O49006   0.531   7.559   5.745  0.0282  0.4503  0.7265
  364MOL0     C49007   0.515   7.513   5.630 -0.9016 -0.0879  0.0878
  364MOL0     O49008   0.407   7.522   5.556 -0.0730 -0.3792 -0.4465
  364MOL0     C49009   0.288   7.563   5.608  0.2363  1.0659  0.3576
  364MOL0     C49010   0.242   7.516   5.734 -0.7228 -0.1755  0.4643
  364MOL0     C49011   0.113   7.559   5.777 -1.0332 -0.0423 -0.5473
  364MOL0     C49012   0.035   7.646   5.703 -0.6142  0.6024  0.5614
  364MOL0     O49013  -0.088   7.672   5.759 -0.3969 -0.4277  0.3569
  364MOL0     C49014  -0.209   7.671   5.678  0.5839 -0.2948  0.3505
  364MOL0     C49015  -0.294   7.795   5.703  0.0720  0.8759 -0.9733
  364MOL0     C49016  -0.428   7.781   5.630  0.0352 -0.2507 -0.8076
  364MOL0     C49017  -0.526   7.886   5.661  0.7827 -0.3425  0.1893
  364MOL0     C49018  -0.667   7.846   5.625  0.0422 -0.7031 -0.1406
  364MOL0     C49019  -0.764   7.921   5.715 -0.2968 -0.5793 -0.5168
  364MOL0     C49020  -0.811   8.044   5.643 -0.3880  0.5545  0.9379
  364MOL0     C49021  -0.898   7.991   5.529  0.5846 -0.3602  0.2502
  364MOL0     N49022  -0.957   8.113   5.465  0.2861  0.0961  0.5827
  364MOL0     C49023  -1.080   8.163   5.500  0.2585 -0.2163  0.2622
  364MOL0     C49024  -1.077   8.289   5.437 -0.2152 -0.0323  0.3193
  364MOL0     C49025  -1.170   8.409   5.428 -1.1113 -1.2242  0.2629
  364MOL0     C49026  -1.239   8.454   5.565 -0.0305  0.1624 -0.7219
  364MOL0     C49027  -1.143   8.533   5.644  0.6142 -0.3854 -0.2339
  364MOL0     C49028  -1.145   8.679   5.610 -0.2200  0.0392  0.7617
  364MOL0     O49029  -1.241   8.758   5.677 -0.7113  0.0624 -0.1770
  364MOL0     C49030  -1.379   8.758   5.644  0.5987 -0.2980 -0.1720
  364MOL0     C49031  -1.474   8.786   5.742  0.4435 -0.0915  0.0353
  364MOL0     C49032  -1.609   8.813   5.709 -0.5358  0.3902  0.0758
  364MOL0     C49033  -1.707   8.834   5.829  0.3550  0.5967 -0.6827
  364MOL0     C49034  -1.639   8.826   5.572  0.6607 -0.2149  0.1578
  364MOL0     C49035  -1.765   8.889   5.521 -0.3242  0.7112 -0.7083
  364MOL0     O49036  -1.879   8.847   5.583 -0.4244 -0.0066  0.4612
  364MOL0     C49037  -2.002   8.895   5.553  0.2636  0.5763  0.1263
  364MOL0     C49038  -2.112   8.821   5.597  0.0768  0.7508  0.0466
  364MOL0     C49039  -2.249   8.849   5.561  0.1782 -0.7754 -0.1143
  364MOL0     C49040  -2.279   8.971   5.491 -0.3977  0.5047 -0.6818
  364MOL0     O49041  -2.413   9.001   5.467 -0.3576  0.9532 -0.3268
  364MOL0     C49042  -2.434   9.010   5.326  0.4518  0.4003  0.8731
  364MOL0     C49043  -2.590   9.019   5.298  0.5748  0.6268 -0.3124
  364MOL0     C49044  -2.624   9.168   5.353 -0.2066  0.7584  0.4053
  364MOL0     C49045  -2.775   9.192   5.313  0.1903  0.3348 -0.2477
  364MOL0     C49046  -2.834   9.322   5.381  0.5613 -0.0199  0.4278
  364MOL0     C49047  -2.988   9.345   5.353 -0.8768  0.2848 -0.0840
  364MOL0     C49048  -3.022   9.481   5.400 -0.1361  0.6979  0.6574
  364MOL0     C49049  -3.165   9.516   5.371 -1.1967  0.9421  0.2829
  364MOL0    Cl49050  -3.280   9.415   5.470  0.1516 -0.2983 -0.3562
  364MOL0     C49051  -2.168   9.045   5.443 -0.0203 -0.1285 -0.1454
  364MOL0     C49052  -2.032   9.011   5.478  0.5541  0.4704  1.4237
  364MOL0     O49053  -1.756   8.959   5.422  0.0823 -0.3378 -0.5199
  364MOL0     C49054  -1.542   8.787   5.478 -0.1957 -0.5352  0.4571
  364MOL0     C49055  -1.420   8.739   5.514  0.9344  0.3062  0.5761
  364MOL0     N49056  -0.964   8.296   5.355  0.0644  0.5916 -0.1451
  364MOL0     N49057  -0.901   8.191   5.372  0.0745  0.3541 -0.0373
  364MOL0     C49058   0.083   7.700   5.581  0.2617  0.4998  0.3500
  364MOL0     C49059   0.209   7.650   5.524 -1.2035 -0.2442  0.4555
  364MOL0     C49060   0.637   7.471   5.553 -0.1188  0.8959  0.9770
  364MOL0     C49061   0.769   7.499   5.598 -0.2364  0.1582 -0.4991
  364MOL0     C49062   0.880   7.459   5.524  1.0124  0.0868  1.4658
  364MOL0     C49063   0.854   7.370   5.421  0.2767 -0.0402 -0.0150
  364MOL0     O49064   0.959   7.309   5.357 -0.3663 -0.8111  0.7761
  364MOL0     C49065   1.096   7.336   5.395 -0.1774 -0.4995 -0.1205
  364MOL0     C49066   1.183   7.268   5.286  0.3912 -1.5567  0.3622
  364MOL0     C49067   1.326   7.275   5.305 -0.3672  0.5098  0.0541
  364MOL0     C49068   1.406   7.266   5.175 -0.1052 -0.2455  0.3601
  364MOL0     C49069   1.394   7.128   5.132 -0.0163  0.4486  0.5899
  364MOL0     C49070   1.366   7.016   5.088  0.6446 -0.0524 -0.3915
  364MOL0     C49071   0.731   7.337   5.385  0.0274  0.8052  1.1317
  364MOL0     C49072   0.621   7.388   5.442 -1.0277  0.2536  0.7897
  364MOL0     H49073   0.303   7.462   5.807 -1.0954 -2.4764 -0.8370
  364MOL0     H49074   0.083   7.530   5.877 -1.4021  4.0472  0.7034
  364MOL0     H49075  -0.185   7.673   5.571  1.1177 -1.4258  0.4322
  364MOL0     H49076  -0.267   7.581   5.702  2.2142 -0.5384  4.0344
  364MOL0     H49077  -0.317   7.818   5.808  1.6167 -1.5403 -0.0019
  364MOL0     H49078  -0.244   7.879   5.655 -0.7254  1.9492  0.0254
  364MOL0     H49079  -0.416   7.784   5.521 -1.0313  2.1155 -0.9160
  364MOL0     H49080  -0.477   7.686   5.649  0.9635 -0.5565  0.1277
  364MOL0     H49081  -0.510   7.912   5.766  1.2236  2.1248 -0.4169
  364MOL0     H49082  -0.510   7.975   5.599 -1.5931  0.5082  0.6708
  364MOL0     H49083  -0.687   7.864   5.519 -1.7802 -0.3846  0.2307
  364MOL0     H49084  -0.693   7.740   5.638 -1.5755 -0.2261  0.7371
  364MOL0     H49085  -0.848   7.856   5.739 -1.5326 -0.0555 -3.1410
  364MOL0     H49086  -0.711   7.956   5.804  0.6340 -1.1440 -0.8355
  364MOL0     H49087  -0.878   8.111   5.697 -3.3490  0.4549 -2.2838
  364MOL0     H49088  -0.725   8.102   5.607 -0.2800 -1.3131 -2.1804
  364MOL0     H49089  -0.984   7.938   5.572 -1.4490  2.5497  0.0360
  364MOL0     H49090  -0.855   7.927   5.451 -2.0775 -1.8146 -0.1203
  364MOL0     H49091  -1.156   8.127   5.568 -0.7107  1.2177 -0.0069
  364MOL0     H49092  -1.116   8.495   5.388 -1.5991 -1.1185 -0.1846
  364MOL0     H49093  -1.250   8.380   5.359 -1.3873 -0.1690  0.1217
  364MOL0     H49094  -1.260   8.358   5.613 -0.0311  0.2539 -0.5390
  364MOL0     H49095  -1.333   8.503   5.537  0.2150  0.2030 -1.5261
  364MOL0     H49096  -1.040   8.497   5.631  0.0858 -1.8178 -0.7106
  364MOL0     H49097  -1.167   8.530   5.751  3.1031  1.2546  0.4374
  364MOL0     H49098  -1.152   8.701   5.503  3.4134 -0.2287  0.3467
  364MOL0     H49099  -1.048   8.718   5.643  0.7831 -1.6078 -0.1229
  364MOL0     H49100  -1.446   8.801   5.846 -0.7993 -1.4233  0.5956
  364MOL0     H49101  -1.811   8.806   5.815  0.1463  1.0249 -0.0535
  364MOL0     H49102  -1.685   8.758   5.905  0.1407  0.2885 -0.9297
  364MOL0     H49103  -1.709   8.935   5.872  2.1123 -0.0362  1.0494
  364MOL0     H49104  -2.100   8.728   5.651 -1.4208 -0.0174 -0.8675
  364MOL0     H49105  -2.321   8.782   5.607 -0.7718 -0.9740 -1.8053
  364MOL0     H49106  -2.379   9.090   5.274 -1.7119  0.4019 -1.6018
  364MOL0     H49107  -2.401   8.916   5.282  3.3820  0.1280  3.2968
  364MOL0     H49108  -2.616   9.011   5.192  1.3473  2.8605 -0.7253
  364MOL0     H49109  -2.646   8.966   5.375 -1.4642  2.9906 -0.0276
  364MOL0     H49110  -2.564   9.253   5.318 -0.3870  1.5181  1.8629
  364MOL0     H49111  -2.613   9.159   5.461  5.2748  2.0574  0.2455
  364MOL0     H49112  -2.783   9.203   5.204 -0.3951  1.3697 -0.1089
  364MOL0     H49113  -2.830   9.103   5.345  2.0511 -0.4255  0.9927
  364MOL0     H49114  -2.786   9.407   5.332  0.5734  0.5668  1.4329
  364MOL0     H49115  -2.816   9.325   5.489 -0.5271 -1.6580  0.6924
  364MOL0     H49116  -3.001   9.361   5.246  2.5751 -5.2872 -1.7342
  364MOL0     H49117  -3.048   9.258   5.380  0.3636 -0.9076 -1.0147
  364MOL0     H49118  -2.961   9.551   5.343 -2.6938  2.9743  0.5306
  364MOL0     H49119  -2.990   9.488   5.504 -1.0452 -1.2454  1.1124
  364MOL0     H49120  -3.175   9.508   5.263 -1.0630  1.0894  0.2587
  364MOL0     H49121  -3.164   9.623   5.393  0.0043  0.7961  1.0493
  364MOL0     H49122  -2.183   9.129   5.377  0.1077 -0.6634 -0.8743
  364MOL0     H49123  -1.948   9.070   5.443  0.0271 -0.0663 -0.8867
  364MOL0     H49124  -1.574   8.794   5.375  3.2822 -1.2683 -0.8258
  364MOL0     H49125  -1.361   8.701   5.432 -1.0539 -1.6932 -0.0261
  364MOL0     H49126   0.011   7.767   5.534 -1.9649 -0.3168  2.3793
  364MOL0     H49127   0.248   7.679   5.427 -0.9602  2.8915  1.3896
  364MOL0     H49128   0.774   7.560   5.687  1.6133  1.5682 -1.5119
  364MOL0     H49129   0.976   7.490   5.561  2.2358 -0.4208 -1.0353
  364MOL0     H49130   1.119   7.441   5.413  2.7444 -0.5284 -2.7590
  364MOL0     H49131   1.126   7.285   5.487  3.0065 -2.8824 -2.2418
  364MOL0     H49132   1.154   7.308   5.189  2.3142 -1.9411 -0.4153
  364MOL0     H49133   1.157   7.162   5.294 -1.7594 -1.5044 -3.6363
  364MOL0     H49134   1.355   7.200   5.378 -0.8916 -1.3747 -1.5850
  364MOL0     H49135   1.354   7.374   5.342  0.2594 -0.0439  1.1121
  364MOL0     H49136   1.510   7.291   5.196  0.7909 -1.1112 -2.7031
  364MOL0     H49137   1.376   7.334   5.095  2.6534  1.1905  0.4389
  364MOL0     H49138   1.322   6.925   5.051 -0.3478  0.7123 -1.1665
  364MOL0     H49139   0.707   7.268   5.305  0.3065  2.4771 -0.4508
  364MOL0     H49140   0.525   7.357   5.404 -0.5939 -0.9604  0.6407
  365MOL0     O49141   0.970   3.003   0.264  0.3781  0.2626  0.6553
  365MOL0     C49142   1.002   2.890   0.284  1.1502  0.3383  0.7711
  365MOL0     O49143   0.926   2.777   0.256 -0.8451  0.0959 -0.1802
  365MOL0     C49144   0.787   2.776   0.251 -0.2684  0.3266 -0.1663
  365MOL0     C49145   0.730   2.643   0.232 -0.7691 -0.8943  0.6595
  365MOL0     C49146   0.588   2.637   0.215 -0.6824  0.3650  0.3401
  365MOL0     C49147   0.505   2.755   0.195  0.6002 -0.1241 -0.0975
  365MOL0     O49148   0.373   2.735   0.175  0.3382  0.1729 -0.0525
  365MOL0     C49149   0.278   2.838   0.227  0.2938  1.0706 -0.4956
  365MOL0     C49150   0.130   2.785   0.233  0.5295 -0.6751 -0.4335
  365MOL0     C49151   0.036   2.868   0.324  0.1283 -0.2994  0.2577
  365MOL0     C49152  -0.090   2.908   0.249 -0.2303  0.3000 -0.0024
  365MOL0     C49153  -0.198   2.947   0.349 -0.2479 -0.2377 -0.8863
  365MOL0     C49154  -0.174   3.088   0.414 -0.2037 -0.7371 -1.0824
  365MOL0     C49155  -0.293   3.125   0.502  0.2036 -0.3523  0.1425
  365MOL0     C49156  -0.370   3.009   0.561  0.0502 -0.2526  0.8711
  365MOL0     N49157  -0.468   3.068   0.644 -0.1152 -1.4559  0.5052
  365MOL0     C49158  -0.590   3.117   0.602 -0.7029  0.1279  0.6508
  365MOL0     C49159  -0.657   3.142   0.718 -1.5277 -0.1193  0.5753
  365MOL0     C49160  -0.806   3.161   0.723 -0.4062  0.2746 -0.1906
  365MOL0     C49161  -0.841   3.303   0.787 -0.1623 -0.9391 -0.5686
  365MOL0     C49162  -0.992   3.338   0.770  0.1962  0.4495  0.9361
  365MOL0     C49163  -1.081   3.296   0.887 -0.4286 -0.4543  0.1201
  365MOL0     O49164  -1.213   3.341   0.862 -0.1501  0.0478  0.0616
  365MOL0     C49165  -1.315   3.302   0.945 -0.7350 -0.5883 -0.6658
  365MOL0     C49166  -1.314   3.202   1.038  0.0985 -0.1195  0.0745
  365MOL0     C49167  -1.430   3.167   1.108 -0.7734  0.2249 -0.0316
  365MOL0     C49168  -1.410   3.049   1.204 -0.0948 -0.3650 -0.5227
  365MOL0     C49169  -1.551   3.228   1.098 -0.5866 -0.6268 -0.6791
  365MOL0     C49170  -1.683   3.161   1.143  0.4962 -0.2112  0.6284
  365MOL0     O49171  -1.792   3.243   1.153  0.2395 -0.0728  0.4889
  365MOL0     C49172  -1.910   3.185   1.166 -0.2327 -0.5623  0.2312
  365MOL0     C49173  -1.955   3.123   1.045 -0.6058  0.0189 -0.2951
  365MOL0     C49174  -2.076   3.055   1.050 -0.5858 -0.1328 -0.4482
  365MOL0     C49175  -2.147   3.038   1.168  0.2152 -0.3060  0.4406
  365MOL0     O49176  -2.273   2.981   1.182  0.1649 -0.9228  0.5621
  365MOL0     C49177  -2.298   2.867   1.095  0.9367  0.0036 -0.0406
  365MOL0     C49178  -2.409   2.784   1.158 -0.1662 -0.2320 -0.1774
  365MOL0     C49179  -2.453   2.666   1.070 -0.3519 -0.1800  0.2174
  365MOL0     C49180  -2.553   2.580   1.153  0.4007  0.0168 -0.7738
  365MOL0     C49181  -2.626   2.463   1.081 -0.3226  0.1314  0.5493
  365MOL0     C49182  -2.739   2.411   1.172 -0.3251  0.2664 -0.3216
  365MOL0     C49183  -2.824   2.299   1.097  1.1647  0.0551  0.8156
  365MOL0     C49184  -2.937   2.256   1.180  0.2869 -0.6171 -0.2417
  365MOL0    Cl49185  -3.019   2.110   1.112 -0.0999  0.4371 -0.0443
  365MOL0     C49186  -2.100   3.102   1.289 -0.1925  0.6908 -1.1213
  365MOL0     C49187  -1.977   3.164   1.288 -0.2564 -0.4366  0.0947
  365MOL0     O49188  -1.688   3.039   1.144  0.8937  0.1838 -1.0568
  365MOL0     C49189  -1.552   3.338   1.015  1.1163 -0.2568 -0.6793
  365MOL0     C49190  -1.438   3.369   0.942  0.0419  0.2046  0.2005
  365MOL0     N49191  -0.571   3.106   0.823  0.3989 -0.0989  0.3929
  365MOL0     N49192  -0.451   3.074   0.772  0.1859  0.4634 -0.3774
  365MOL0     C49193   0.563   2.878   0.222  0.4971  0.1284  0.5847
  365MOL0     C49194   0.697   2.886   0.244 -0.7500 -0.1261 -0.2986
  365MOL0     C49195   1.138   2.856   0.312  1.0307  0.0414  0.1842
  365MOL0     C49196   1.175   2.721   0.340 -0.2976 -0.6054  0.3822
  365MOL0     C49197   1.306   2.694   0.373 -0.1020  1.1219 -1.4470
  365MOL0     C49198   1.402   2.797   0.397  0.6352  0.7507 -0.2755
  365MOL0     O49199   1.520   2.774   0.468  0.6914 -0.3289 -1.0314
  365MOL0     C49200   1.533   2.653   0.550 -0.6743 -0.3939  0.1707
  365MOL0     C49201   1.669   2.659   0.621  0.2929 -0.1729 -1.3819
  365MOL0     C49202   1.660   2.624   0.773 -0.3544 -0.0060 -0.7050
  365MOL0     C49203   1.789   2.656   0.844 -1.0596  0.4093  0.0626
  365MOL0     C49204   1.795   2.595   0.977  0.6292 -0.3769 -0.1782
  365MOL0     C49205   1.797   2.545   1.082 -0.1885  0.5206 -0.1864
  365MOL0     C49206   1.368   2.930   0.361  1.0911  1.2632 -0.3614
  365MOL0     C49207   1.240   2.957   0.309 -0.0721 -0.1976 -0.0719
  365MOL0     H49208   0.796   2.557   0.220  1.7582  1.1793 -2.0583
  365MOL0     H49209   0.540   2.540   0.205 -0.7222  0.6185 -3.9076
  365MOL0     H49210   0.295   2.852   0.334 -1.6909  0.8010 -0.1066
  365MOL0     H49211   0.270   2.934   0.176 -1.6351  1.2126 -0.0187
  365MOL0     H49212   0.094   2.767   0.131  3.1799 -1.4102 -1.3363
  365MOL0     H49213   0.131   2.691   0.290 -0.8719 -1.4600 -1.6156
  365MOL0     H49214   0.007   2.797   0.401  1.1457  1.1127  2.0222
  365MOL0     H49215   0.082   2.956   0.371  0.4168 -1.0135  1.3485
  365MOL0     H49216  -0.069   2.991   0.182  0.7336 -1.5926 -2.1772
  365MOL0     H49217  -0.122   2.820   0.192 -2.9834  1.5046 -0.4353
  365MOL0     H49218  -0.297   2.958   0.305  0.0510  0.6797 -1.3473
  365MOL0     H49219  -0.211   2.872   0.428 -4.4468  1.3836  0.2168
  365MOL0     H49220  -0.095   3.093   0.489 -1.2373  0.2286 -0.0143
  365MOL0     H49221  -0.161   3.167   0.339 -2.5583  0.1677 -0.6201
  365MOL0     H49222  -0.265   3.190   0.586  0.4936 -1.0306  0.5739
  365MOL0     H49223  -0.369   3.183   0.449  0.8643 -1.2036 -1.8171
  365MOL0     H49224  -0.300   2.945   0.616  2.0785 -0.4383 -1.7432
  365MOL0     H49225  -0.417   2.955   0.479 -2.9758  2.4563  0.6000
  365MOL0     H49226  -0.629   3.118   0.500 -0.5784  3.4530  0.5551
  365MOL0     H49227  -0.839   3.149   0.619 -0.4094 -0.2535 -0.1345
  365MOL0     H49228  -0.850   3.074   0.773 -1.0633  0.5054 -0.3634
  365MOL0     H49229  -0.775   3.375   0.737  1.4810 -1.0987  1.2861
  365MOL0     H49230  -0.809   3.317   0.890 -0.7994 -1.4442 -0.2953
  365MOL0     H49231  -1.029   3.283   0.683 -0.6393 -2.0869  2.7355
  365MOL0     H49232  -1.008   3.444   0.754 -4.3203 -0.3542 -1.3673
  365MOL0     H49233  -1.032   3.323   0.981 -0.5149  2.8007 -0.6469
  365MOL0     H49234  -1.088   3.187   0.890  0.1019 -0.6543 -2.8532
  365MOL0     H49235  -1.221   3.148   1.055  0.6049  0.2946 -1.2740
  365MOL0     H49236  -1.411   2.948   1.163  1.7855 -0.1087 -1.3126
  365MOL0     H49237  -1.317   3.054   1.260 -0.2910  0.8367 -0.2623
  365MOL0     H49238  -1.475   3.056   1.292  0.7740  1.0868  0.0340
  365MOL0     H49239  -1.898   3.128   0.953 -0.5429 -2.0289 -0.4105
  365MOL0     H49240  -2.118   3.011   0.960  1.1680 -2.8809 -0.0487
  365MOL0     H49241  -2.337   2.892   0.996 -0.0033 -1.0873  0.0204
  365MOL0     H49242  -2.205   2.817   1.068  3.1012  4.1639 -1.1249
  365MOL0     H49243  -2.368   2.743   1.250  1.9025 -1.1122 -1.4238
  365MOL0     H49244  -2.494   2.851   1.177 -0.3388  0.3650 -2.6439
  365MOL0     H49245  -2.368   2.609   1.033 -1.1448 -1.1876 -0.1140
  365MOL0     H49246  -2.502   2.705   0.980 -1.0556  0.4127  0.8396
  365MOL0     H49247  -2.495   2.532   1.232  0.5051  1.7260  0.2278
  365MOL0     H49248  -2.627   2.642   1.206 -0.4194 -0.3723 -1.4347
  365MOL0     H49249  -2.552   2.385   1.061 -1.6228 -1.1388  0.4467
  365MOL0     H49250  -2.671   2.500   0.989  1.9150  2.7070  0.3656
  365MOL0     H49251  -2.696   2.377   1.267  2.1217 -1.6555 -1.9850
  365MOL0     H49252  -2.814   2.485   1.201 -1.0614  0.3483 -2.3067
  365MOL0     H49253  -2.758   2.212   1.094  2.4907  0.9277  2.6075
  365MOL0     H49254  -2.850   2.333   0.996  1.6060  0.3803  0.8061
  365MOL0     H49255  -3.009   2.338   1.176 -0.7549 -1.4108  1.3465
  365MOL0     H49256  -2.911   2.232   1.283 -2.1356  0.9804  0.8143
  365MOL0     H49257  -2.153   3.098   1.384 -0.2160  3.1755 -0.9602
  365MOL0     H49258  -1.935   3.211   1.376 -0.2468  0.5094 -0.3978
  365MOL0     H49259  -1.644   3.392   0.996  0.2123 -1.1569  0.9118
  365MOL0     H49260  -1.449   3.434   0.856  2.4152  0.2783 -0.1165
  365MOL0     H49261   0.500   2.966   0.217  0.7746  0.2393 -1.6278
  365MOL0     H49262   0.736   2.985   0.261  1.2431 -1.2470  2.5645
  365MOL0     H49263   1.092   2.655   0.364 -2.1294  1.9988  1.8207
  365MOL0     H49264   1.331   2.592   0.400 -0.4415  1.4644  0.2999
  365MOL0     H49265   1.442   2.641   0.610  0.8424  0.2288  2.6854
  365MOL0     H49266   1.539   2.577   0.471  2.4977  1.3206 -1.4113
  365MOL0     H49267   1.706   2.761   0.605 -3.4111  1.7257  0.7065
  365MOL0     H49268   1.731   2.580   0.579 -1.2674 -2.3823  0.2462
  365MOL0     H49269   1.637   2.517   0.781  1.2028 -0.3948 -1.1841
  365MOL0     H49270   1.577   2.681   0.817  0.9675  2.4662 -1.2629
  365MOL0     H49271   1.792   2.764   0.862 -0.8823  0.1909  1.4607
  365MOL0     H49272   1.877   2.620   0.790  0.1865  1.6981  1.1403
  365MOL0     H49273   1.796   2.507   1.182  2.7012 -0.3609 -0.4071
  365MOL0     H49274   1.444   3.005   0.377  2.5799 -0.2442 -0.1357
  365MOL0     H49275   1.211   3.060   0.292  1.3022 -0.1983 -3.0817
  366MOL0     O49276   4.490   5.967   1.093 -0.4876 -0.2575  0.8688
  366MOL0     C49277   4.460   5.861   1.046 -0.7455 -0.1120  0.1993
  366MOL0     O49278   4.342   5.833   0.979  0.5136 -0.0572 -0.2268
  366MOL0     C49279   4.255   5.927   0.943  0.8668  0.2186  0.0567
  366MOL0     C49280   4.296   6.017   0.842  0.1987  0.6270  0.6949
  366MOL0     C49281   4.202   6.108   0.797 -0.4747  0.1458  0.1092
  366MOL0     C49282   4.075   6.119   0.845  0.1643 -0.0478  0.5840
  366MOL0     O49283   3.973   6.203   0.794  0.2610 -0.0677  0.1682
  366MOL0     C49284   3.999   6.299   0.692 -0.1846  0.4074  0.0800
  366MOL0     C49285   3.989   6.238   0.559  0.0913 -0.0833  0.4446
  366MOL0     C49286   3.843   6.186   0.518  0.2000  0.0671  0.2715
  366MOL0     C49287   3.794   6.234   0.378  0.9646  0.9208  0.2728
  366MOL0     C49288   3.672   6.161   0.342  0.9329  0.3789  0.4894
  366MOL0     C49289   3.605   6.212   0.219 -0.4856 -0.3171  0.0380
  366MOL0     C49290   3.490   6.127   0.162 -0.5773  0.5182  0.0164
  366MOL0     C49291   3.443   6.172   0.023 -0.5166 -0.3093 -0.3215
  366MOL0     N49292   3.443   6.318   0.015  0.0715 -0.2230 -0.2457
  366MOL0     C49293   3.530   6.397  -0.053 -0.0564 -0.6877 -0.5220
  366MOL0     C49294   3.468   6.521  -0.046 -0.4984 -0.5163  0.6521
  366MOL0     C49295   3.524   6.644  -0.115  0.9748  0.8628 -0.8684
  366MOL0     C49296   3.511   6.784  -0.046 -0.5041 -0.0859 -0.5723
  366MOL0     C49297   3.583   6.816   0.084 -0.3355 -0.4649  0.0886
  366MOL0     C49298   3.550   6.723   0.191  0.1994  0.2396 -0.7544
  366MOL0     O49299   3.635   6.767   0.299  0.6971 -0.4948 -0.0889
  366MOL0     C49300   3.637   6.693   0.416 -0.8886 -0.0752 -0.2035
  366MOL0     C49301   3.563   6.585   0.457  0.3966  1.2550 -0.5127
  366MOL0     C49302   3.570   6.520   0.578 -0.9389  0.4131 -1.0170
  366MOL0     C49303   3.497   6.392   0.599  0.4668 -0.4171 -0.2024
  366MOL0     C49304   3.648   6.582   0.679  0.5361  0.6630  0.1939
  366MOL0     C49305   3.649   6.546   0.825  0.5043 -0.1164 -0.4084
  366MOL0     O49306   3.770   6.566   0.892  0.2445  0.9132  0.3877
  366MOL0     C49307   3.789   6.525   1.021 -0.2173  0.6988 -1.0323
  366MOL0     C49308   3.842   6.615   1.122  0.0604  0.1107  0.4010
  366MOL0     C49309   3.880   6.572   1.248 -0.4533  0.2667 -0.0794
  366MOL0     C49310   3.851   6.439   1.283 -0.0827  0.6822  0.2725
  366MOL0     O49311   3.892   6.394   1.407 -0.5275 -0.2219  0.1936
  366MOL0     C49312   3.817   6.317   1.507  0.1880  0.5904  0.3673
  366MOL0     C49313   3.857   6.364   1.653 -0.8967  0.2764 -0.4049
  366MOL0     C49314   4.007   6.341   1.689 -0.8954  0.1810  0.7931
  366MOL0     C49315   4.062   6.432   1.796 -0.8265  0.5367 -0.3130
  366MOL0     C49316   4.066   6.581   1.755 -0.1829  0.1857  1.0558
  366MOL0     C49317   4.145   6.664   1.855 -0.9525  0.3174 -0.4237
  366MOL0     C49318   4.095   6.805   1.842  0.5224 -0.2869 -0.2640
  366MOL0     C49319   4.186   6.916   1.885  0.4970  0.5586 -0.1002
  366MOL0    Cl49320   4.097   7.075   1.860  0.0240 -0.1138 -0.2072
  366MOL0     C49321   3.785   6.347   1.190  0.4893  0.0705  0.2409
  366MOL0     C49322   3.753   6.395   1.063  0.2131  0.6521 -0.0696
  366MOL0     O49323   3.546   6.506   0.882 -0.4027 -0.1373 -0.2005
  366MOL0     C49324   3.725   6.692   0.638 -0.9185 -0.7358 -0.3180
  366MOL0     C49325   3.718   6.746   0.513  0.4710 -0.1438 -0.7434
  366MOL0     N49326   3.352   6.507   0.018  0.0522  0.3924 -0.0272
  366MOL0     N49327   3.337   6.390   0.057 -0.0556  0.7824 -1.0686
  366MOL0     C49328   4.041   6.025   0.942  1.0362  0.4892  0.7326
  366MOL0     C49329   4.128   5.933   0.996 -1.8890  0.0687 -0.0609
  366MOL0     C49330   4.529   5.737   1.109 -0.3587 -0.7157  0.1500
  366MOL0     C49331   4.495   5.603   1.087 -0.4152 -0.5329  0.7357
  366MOL0     C49332   4.556   5.498   1.158  0.1119 -0.5510  0.0697
  366MOL0     C49333   4.667   5.529   1.246 -0.4242  0.0799  0.8938
  366MOL0     O49334   4.741   5.420   1.295  0.5673 -0.0724  0.6363
  366MOL0     C49335   4.832   5.442   1.396  0.3440 -0.1016  0.6080
  366MOL0     C49336   4.843   5.308   1.475 -0.3359  0.7063  0.3288
  366MOL0     C49337   4.916   5.198   1.389 -0.7075 -0.7015  0.1573
  366MOL0     C49338   5.066   5.217   1.374  0.3192 -0.0975  0.3061
  366MOL0     C49339   5.129   5.108   1.307 -0.7542  0.0787  0.2037
  366MOL0     C49340   5.185   5.022   1.237 -0.0852  0.2350 -0.0955
  366MOL0     C49341   4.712   5.667   1.258 -0.5683 -0.6973  0.1857
  366MOL0     C49342   4.638   5.767   1.193 -0.8946 -0.1916 -0.0952
  366MOL0     H49343   4.392   6.018   0.792  0.1325  0.2619  0.5579
  366MOL0     H49344   4.229   6.172   0.713  2.0713 -0.8091  0.1254
  366MOL0     H49345   3.928   6.380   0.714  0.7445  1.2911 -0.0782
  366MOL0     H49346   4.094   6.349   0.714  0.4925 -0.3471 -1.0028
  366MOL0     H49347   4.025   6.310   0.485  2.9138 -1.2991  0.5001
  366MOL0     H49348   4.054   6.150   0.565 -0.3610 -0.4495 -0.0354
  366MOL0     H49349   3.840   6.077   0.513  0.1989 -0.0107  1.5376
  366MOL0     H49350   3.771   6.208   0.597  1.5109 -2.4668  2.3400
  366MOL0     H49351   3.769   6.341   0.378  0.5755  0.8301  0.3637
  366MOL0     H49352   3.873   6.226   0.302 -0.6667  0.6127 -1.4744
  366MOL0     H49353   3.686   6.053   0.333  0.9031  0.3094  1.2370
  366MOL0     H49354   3.593   6.183   0.415  0.7061 -0.5610  0.5415
  366MOL0     H49355   3.564   6.309   0.247  3.2837  1.5439 -0.2356
  366MOL0     H49356   3.682   6.207   0.141  1.5714 -1.1567  1.9922
  366MOL0     H49357   3.531   6.027   0.142  0.6143  1.3955 -2.3619
  366MOL0     H49358   3.398   6.119   0.221 -0.1861  1.0790  0.7194
  366MOL0     H49359   3.343   6.140  -0.006 -0.8705  2.3816 -2.5166
  366MOL0     H49360   3.520   6.139  -0.047  0.4648  1.1102  0.0211
  366MOL0     H49361   3.631   6.385  -0.092  0.9610  0.6243  1.5087
  366MOL0     H49362   3.629   6.625  -0.142  1.0219  0.9824 -0.7710
  366MOL0     H49363   3.468   6.663  -0.207 -1.9657 -2.7649 -0.0895
  366MOL0     H49364   3.406   6.794  -0.018 -0.4543  0.0632 -0.4370
  366MOL0     H49365   3.540   6.856  -0.123 -0.7935 -3.3948 -4.1018
  366MOL0     H49366   3.570   6.916   0.128  0.4595 -1.1877  2.0914
  366MOL0     H49367   3.690   6.823   0.060 -0.7911  1.2704 -1.7383
  366MOL0     H49368   3.570   6.616   0.176 -1.0655 -0.2491  0.8074
  366MOL0     H49369   3.443   6.738   0.208  0.1440  1.4614 -2.0082
  366MOL0     H49370   3.516   6.520   0.384  2.2833 -0.9260  0.1154
  366MOL0     H49371   3.443   6.358   0.510  2.0964 -0.6301 -1.1513
  366MOL0     H49372   3.559   6.311   0.637 -0.8475 -0.3645  2.2681
  366MOL0     H49373   3.433   6.423   0.682  1.5710 -1.4154  1.0490
  366MOL0     H49374   3.877   6.715   1.097  1.8925 -0.6772 -0.3577
  366MOL0     H49375   3.938   6.634   1.317 -2.8173  0.6910  1.6608
  366MOL0     H49376   3.714   6.354   1.502  0.9157  2.7490  0.0416
  366MOL0     H49377   3.827   6.210   1.490 -0.8876  0.6340 -0.6275
  366MOL0     H49378   3.815   6.465   1.648  0.9720  1.0446 -1.8587
  366MOL0     H49379   3.797   6.307   1.724 -1.1339  0.2543 -0.6249
  366MOL0     H49380   4.063   6.358   1.597 -0.5773 -0.3122  0.8927
  366MOL0     H49381   4.032   6.235   1.700  2.7878  0.8899  0.3826
  366MOL0     H49382   4.002   6.429   1.888  1.0237 -3.2105  0.9739
  366MOL0     H49383   4.160   6.388   1.815 -0.6061 -0.3040 -2.9722
  366MOL0     H49384   3.966   6.618   1.731  0.0065 -0.9703 -2.0446
  366MOL0     H49385   4.108   6.593   1.654  0.1312 -0.9586  1.0319
  366MOL0     H49386   4.144   6.632   1.959  1.6948  1.5947  0.0829
  366MOL0     H49387   4.249   6.661   1.822 -1.2117 -0.1953 -1.2472
  366MOL0     H49388   4.004   6.821   1.900  2.1710  0.9502  2.1411
  366MOL0     H49389   4.073   6.830   1.737  3.1076  2.6725 -0.2419
  366MOL0     H49390   4.274   6.912   1.820  1.1859 -0.4218  0.8595
  366MOL0     H49391   4.220   6.902   1.988  3.3140  1.1127 -0.8748
  366MOL0     H49392   3.755   6.248   1.221  0.1757  0.0665 -0.0663
  366MOL0     H49393   3.721   6.322   0.990  2.6591 -1.0332  0.4095
  366MOL0     H49394   3.787   6.754   0.701 -0.5174 -1.5017  0.0493
  366MOL0     H49395   3.775   6.835   0.489  1.0352 -0.3238 -0.1037
  366MOL0     H49396   3.936   6.024   0.970  0.8690 -1.5555  0.1859
  366MOL0     H49397   4.100   5.861   1.073  0.4065  1.1687  1.9006
  366MOL0     H49398   4.403   5.587   1.032 -2.9581  1.4657  4.0075
  366MOL0     H49399   4.515   5.398   1.151 -0.0197 -1.0364  4.6415
  366MOL0     H49400   4.928   5.467   1.349 -0.5010 -0.1910 -1.2871
  366MOL0     H49401   4.801   5.526   1.457  3.0813  2.0971 -0.7887
  366MOL0     H49402   4.748   5.277   1.520  0.4754 -1.7748  0.4347
  366MOL0     H49403   4.915   5.325   1.556  3.7459  2.0560 -3.2456
  366MOL0     H49404   4.872   5.192   1.289 -1.6676  2.1725  0.3201
  366MOL0     H49405   4.895   5.102   1.437 -1.5127 -0.4792  0.2632
  366MOL0     H49406   5.105   5.226   1.476  0.1568  1.6733  0.2462
  366MOL0     H49407   5.087   5.311   1.321 -3.3792 -1.0920 -3.5227
  366MOL0     H49408   5.243   4.949   1.184  1.5010  0.0970  1.7228
  366MOL0     H49409   4.798   5.700   1.316 -1.6331 -0.0577  1.4438
  366MOL0     H49410   4.669   5.870   1.207  2.2218 -1.1414  0.5890
  367MOL0     O49411   7.198  10.537   9.979 -0.5877  0.1036  0.0884
  367MOL0     C49412   7.178  10.658   9.964 -0.6472  0.3451 -0.2122
  367MOL0     O49413   7.060  10.715   9.933 -0.6253 -0.7104  0.2067
  367MOL0     C49414   6.953  10.636   9.902 -0.2597 -0.4343 -0.6581
  367MOL0     C49415   6.889  10.648   9.784  0.3373 -0.9904  0.6748
  367MOL0     C49416   6.776  10.569   9.763  0.1441  0.0974 -0.9982
  367MOL0     C49417   6.725  10.490   9.861  0.5077  1.3259 -0.7211
  367MOL0     O49418   6.608  10.414   9.843  0.4782  0.4392 -0.3018
  367MOL0     C49419   6.527  10.384   9.954  0.0990  0.0576 -0.0962
  367MOL0     C49420   6.394  10.331   9.904  1.6522 -0.6334 -0.4159
  367MOL0     C49421   6.279  10.294  10.005  0.2919  0.2982  0.0962
  367MOL0     C49422   6.157  10.206   9.942 -1.4079  0.2828 -0.0278
  367MOL0     C49423   6.023  10.246   9.998  1.8388 -0.3529  0.7261
  367MOL0     C49424   5.938  10.361   9.929 -0.4316 -0.1320  0.3469
  367MOL0     C49425   5.796  10.360  10.010 -0.6555  0.3228 -0.3770
  367MOL0     C49426   5.695  10.249   9.961  0.2923 -0.6530 -0.8874
  367MOL0     N49427   5.567  10.256  10.031 -0.4197  0.5524 -0.4209
  367MOL0     C49428   5.457  10.277   9.960  0.2315  0.1844 -0.9141
  367MOL0     C49429   5.359  10.221  10.049 -0.4874  0.2682  0.0679
  367MOL0     C49430   5.217  10.216  10.033  0.5683  0.2558 -0.1388
  367MOL0     C49431   5.151  10.239   9.897 -0.2542 -0.3699  0.1244
  367MOL0     C49432   5.030  10.140   9.890  0.6013  0.2148 -0.1451
  367MOL0     C49433   4.949  10.146   9.763  0.8982  0.9633 -0.8958
  367MOL0     O49434   4.808  10.152   9.806 -0.7493 -0.3857  0.5313
  367MOL0     C49435   4.713  10.122   9.708 -0.1355 -0.2810  0.3058
  367MOL0     C49436   4.750  10.110   9.569  0.0321  0.3293  0.5176
  367MOL0     C49437   4.662  10.075   9.465 -0.0762  0.4968  0.5145
  367MOL0     C49438   4.724  10.041   9.328 -1.1747 -0.7553 -0.1802
  367MOL0     C49439   4.522  10.055   9.490 -0.4712  0.1058  0.4265
  367MOL0     C49440   4.424  10.028   9.381 -1.1210 -0.4870  1.0047
  367MOL0     O49441   4.458  10.002   9.247  0.2110 -0.5346  0.0661
  367MOL0     C49442   4.356   9.964   9.156 -0.2157 -0.6108 -0.4393
  367MOL0     C49443   4.256  10.063   9.123 -0.3795 -0.2908 -0.4752
  367MOL0     C49444   4.146  10.038   9.032 -0.4706  0.3899  0.1670
  367MOL0     C49445   4.140   9.912   8.974 -0.3646  1.3258  0.4183
  367MOL0     O49446   4.037   9.891   8.884 -0.1098 -0.2987  0.2877
  367MOL0     C49447   4.076   9.823   8.771 -0.4471  0.2010 -0.5787
  367MOL0     C49448   4.019   9.888   8.655 -0.0766 -0.6523 -0.0442
  367MOL0     C49449   4.089  10.015   8.600 -0.6286  0.9921  0.4962
  367MOL0     C49450   4.226   9.984   8.534  0.9069 -0.3088  0.2115
  367MOL0     C49451   4.212   9.939   8.386  0.0689 -0.6667  0.6183
  367MOL0     C49452   4.347   9.936   8.309 -0.6560  0.1656  0.1682
  367MOL0     C49453   4.329   9.881   8.172  0.2152 -0.5382  0.5268
  367MOL0     C49454   4.449   9.891   8.075 -0.6923  0.8408 -1.2106
  367MOL0    Cl49455   4.605   9.847   8.146 -0.4329  0.2257 -0.5939
  367MOL0     C49456   4.240   9.815   8.995  0.0973  0.4176 -0.3802
  367MOL0     C49457   4.350   9.842   9.084  0.5627 -0.3035  0.4574
  367MOL0     O49458   4.307  10.053   9.411  0.3664 -0.2762 -0.1040
  367MOL0     C49459   4.483  10.073   9.625 -0.8681 -0.2490 -0.4112
  367MOL0     C49460   4.577  10.103   9.731  0.5602  0.1675 -0.0408
  367MOL0     N49461   5.416  10.166  10.164 -0.4203 -0.1168  0.3246
  367MOL0     N49462   5.538  10.200  10.155 -0.0773 -0.7166  0.1327
  367MOL0     C49463   6.785  10.488   9.980 -0.4361  0.3585 -0.6608
  367MOL0     C49464   6.903  10.563  10.006 -0.1987  0.6651  0.7799
  367MOL0     C49465   7.300  10.739   9.971  0.2018  0.2787 -0.5266
  367MOL0     C49466   7.288  10.882   9.953  1.0828  0.4502 -0.4805
  367MOL0     C49467   7.397  10.961   9.956 -0.1555 -0.9607  0.8245
  367MOL0     C49468   7.520  10.906   9.981 -0.4395 -0.4783  0.1127
  367MOL0     O49469   7.616  11.001   9.974  0.1329  0.0596 -0.0103
  367MOL0     C49470   7.742  10.965   9.907 -0.5077  0.6782 -1.1991
  367MOL0     C49471   7.830  11.085   9.883  0.2924  0.0026  0.2465
  367MOL0     C49472   7.856  11.173  10.008  0.3513  0.5284 -0.2094
  367MOL0     C49473   8.003  11.151  10.059  0.4542 -0.4581  0.2602
  367MOL0     C49474   8.020  11.020  10.121  0.4852 -0.0484 -0.0471
  367MOL0     C49475   8.025  10.916  10.180  0.0574  0.3569  0.2443
  367MOL0     C49476   7.530  10.767  10.009  0.7736  0.6133  0.8084
  367MOL0     C49477   7.425  10.679  10.004 -0.1538  0.0353  0.9082
  367MOL0     H49478   6.923  10.724   9.716 -1.4163  0.9542  1.8630
  367MOL0     H49479   6.721  10.590   9.672 -1.4485  3.4697  0.5854
  367MOL0     H49480   6.578  10.309  10.015  0.1484  2.7512  3.5562
  367MOL0     H49481   6.515  10.477  10.012  2.1676  1.6408 -2.0129
  367MOL0     H49482   6.340  10.410   9.851  0.3363 -1.0095  0.3453
  367MOL0     H49483   6.411  10.248   9.834 -0.5514 -0.5267 -1.1427
  367MOL0     H49484   6.308  10.252  10.102  0.1613 -0.7562 -0.2986
  367MOL0     H49485   6.224  10.379  10.045 -1.9450 -1.9295  2.0618
  367MOL0     H49486   6.133  10.219   9.836 -0.6601  0.8504 -0.1415
  367MOL0     H49487   6.179  10.102   9.968  3.1151  1.4651  1.8796
  367MOL0     H49488   5.968  10.152   9.989  0.5739  0.5070 -1.3700
  367MOL0     H49489   6.028  10.265  10.105  0.9709 -0.7588  0.8437
  367MOL0     H49490   5.981  10.462   9.934 -0.8900  0.0268  1.7947
  367MOL0     H49491   5.916  10.332   9.826 -1.0948  0.5040  0.2926
  367MOL0     H49492   5.798  10.338  10.118  1.2138 -2.8323 -0.9433
  367MOL0     H49493   5.763  10.463   9.997  2.9945  1.5299 -1.2931
  367MOL0     H49494   5.736  10.148   9.967  0.3742 -0.5498  0.4139
  367MOL0     H49495   5.684  10.262   9.853 -1.4954 -3.2562 -1.1049
  367MOL0     H49496   5.441  10.310   9.858 -0.6369 -2.3758 -1.6840
  367MOL0     H49497   5.190  10.123  10.084  1.0469  1.3218  2.1800
  367MOL0     H49498   5.178  10.285  10.107  0.7798  0.5887 -0.3348
  367MOL0     H49499   5.225  10.220   9.819  0.8136 -0.6524  1.1728
  367MOL0     H49500   5.126  10.345   9.883  0.3448 -0.3428 -0.8488
  367MOL0     H49501   4.970  10.166   9.978  0.7597 -0.2082  0.0888
  367MOL0     H49502   5.075  10.041   9.899  0.5288  0.2167  0.2713
  367MOL0     H49503   4.978  10.056   9.708  0.5873  1.6844 -2.3158
  367MOL0     H49504   4.980  10.231   9.701  0.6469  1.3537 -0.4913
  367MOL0     H49505   4.843  10.154   9.536 -0.9359  1.4584 -0.8329
  367MOL0     H49506   4.832  10.061   9.333 -1.1818 -0.8346  0.4219
  367MOL0     H49507   4.705   9.936   9.308 -0.1043 -0.9391 -0.2872
  367MOL0     H49508   4.684  10.108   9.252 -1.2852  0.5117  0.9453
  367MOL0     H49509   4.245  10.152   9.183 -1.4445 -1.9776  1.9961
  367MOL0     H49510   4.066  10.109   9.012 -1.7427 -0.7510  0.9391
  367MOL0     H49511   4.185   9.825   8.761  0.0600  1.8312  3.4012
  367MOL0     H49512   4.044   9.719   8.784  1.8158 -0.3643  1.0022
  367MOL0     H49513   4.006   9.807   8.583 -1.9467 -1.9229  1.6126
  367MOL0     H49514   3.919   9.918   8.687  0.1342  0.2913 -0.2183
  367MOL0     H49515   4.122  10.076   8.684 -2.5958  0.1263  1.9771
  367MOL0     H49516   4.031  10.076   8.530 -0.5582  3.6363  2.5908
  367MOL0     H49517   4.284  10.076   8.534  2.0692 -1.0030 -1.4602
  367MOL0     H49518   4.280   9.909   8.592  2.3283 -0.8740 -1.7421
  367MOL0     H49519   4.146  10.008   8.333 -0.0405 -1.9424 -0.9647
  367MOL0     H49520   4.163   9.841   8.377 -1.0658  0.0127 -1.1244
  367MOL0     H49521   4.393  10.035   8.306 -1.4584  0.6020  1.2634
  367MOL0     H49522   4.409   9.870   8.371 -0.2240  1.8501  1.6197
  367MOL0     H49523   4.254   9.944   8.122  0.2456  0.3980  1.6346
  367MOL0     H49524   4.292   9.781   8.195  1.2443 -0.5309  2.3448
  367MOL0     H49525   4.454   9.995   8.040  0.5991  0.5021 -2.0970
  367MOL0     H49526   4.437   9.827   7.988  3.1039 -2.6409  0.4743
  367MOL0     H49527   4.225   9.714   8.957 -1.0732  0.7708 -0.8936
  367MOL0     H49528   4.420   9.765   9.114  0.8462  0.9483  3.3891
  367MOL0     H49529   4.377  10.068   9.650 -0.1978  1.7962  3.5566
  367MOL0     H49530   4.542  10.116   9.833  1.9679  0.6089  0.4139
  367MOL0     H49531   6.743  10.434  10.064 -0.5540  1.7150  0.1843
  367MOL0     H49532   6.954  10.546  10.100  0.2584 -0.3527  0.3650
  367MOL0     H49533   7.191  10.927   9.934  0.4629 -1.1251 -1.3492
  367MOL0     H49534   7.399  11.066   9.929  0.2352 -1.5171 -1.5401
  367MOL0     H49535   7.793  10.894   9.973 -1.9868  1.3072  0.7263
  367MOL0     H49536   7.720  10.916   9.812 -2.7315  1.7200 -1.2964
  367MOL0     H49537   7.785  11.151   9.809 -0.5954 -1.1536 -0.2673
  367MOL0     H49538   7.925  11.037   9.857 -0.5730 -1.9930  0.6298
  367MOL0     H49539   7.791  11.147  10.091 -0.1419 -0.4236 -0.8749
  367MOL0     H49540   7.838  11.278   9.983 -3.1006  0.8253  2.8890
  367MOL0     H49541   8.030  11.220  10.139  0.1114  0.5416 -0.4636
  367MOL0     H49542   8.078  11.171   9.982 -1.9645  0.5933 -2.0034
  367MOL0     H49543   8.028  10.821  10.228 -3.0776 -1.8449 -3.3841
  367MOL0     H49544   7.625  10.723  10.040  1.2307 -1.0916 -2.5855
  367MOL0     H49545   7.449  10.575  10.022  1.0680  0.2707  0.6891
  368MOL0     O49546   0.953   5.029   8.502 -0.7176  0.9284 -0.7737
  368MOL0     C49547   0.908   4.981   8.603 -0.1309  0.0895  0.9846
  368MOL0     O49548   0.974   4.946   8.727 -0.1395 -0.2697  0.8811
  368MOL0     C49549   1.110   4.956   8.732 -0.6896  0.8762 -0.6533
  368MOL0     C49550   1.205   4.947   8.629 -0.9161  0.1603  0.4141
  368MOL0     C49551   1.344   4.936   8.660 -0.0150 -1.1146 -0.1411
  368MOL0     C49552   1.384   4.930   8.788 -0.4506 -0.3377  0.2339
  368MOL0     O49553   1.514   4.887   8.814 -0.8210  0.2137 -0.1464
  368MOL0     C49554   1.597   4.976   8.879 -0.1597 -0.4465  0.0492
  368MOL0     C49555   1.727   4.906   8.894 -0.4054 -0.1422 -0.1437
  368MOL0     C49556   1.855   5.006   8.873 -0.4674  0.8455  0.4829
  368MOL0     C49557   1.980   4.938   8.930  0.2000  0.1845  0.1529
  368MOL0     C49558   2.101   5.035   8.943  0.2557 -0.1548  0.5290
  368MOL0     C49559   2.231   4.959   8.988 -0.3191  0.6493  0.2915
  368MOL0     C49560   2.355   5.057   9.007 -0.3871  0.4225 -0.4010
  368MOL0     C49561   2.491   4.990   8.989  0.2414 -0.6200 -0.5589
  368MOL0     N49562   2.528   4.898   9.104 -0.4740 -0.3521 -0.7270
  368MOL0     C49563   2.622   4.803   9.102 -0.8397  0.7446 -0.2035
  368MOL0     C49564   2.651   4.763   9.222  0.1484  0.2665  0.4793
  368MOL0     C49565   2.756   4.662   9.267 -0.3916  0.0039 -0.0099
  368MOL0     C49566   2.893   4.670   9.194 -1.4685  0.2214 -0.2832
  368MOL0     C49567   2.995   4.559   9.232 -0.2862  0.6387 -1.6026
  368MOL0     C49568   3.133   4.597   9.183 -0.6583 -0.7030  0.4876
  368MOL0     O49569   3.218   4.501   9.235  0.0594  0.0141  0.4343
  368MOL0     C49570   3.357   4.509   9.216 -0.2094 -0.3756  0.0832
  368MOL0     C49571   3.443   4.448   9.307 -0.0146 -0.8365  0.0641
  368MOL0     C49572   3.585   4.457   9.299 -0.2831  0.1397 -0.7761
  368MOL0     C49573   3.661   4.386   9.412 -0.4841 -0.2587  0.7698
  368MOL0     C49574   3.640   4.533   9.193 -0.7338  0.2460  0.3398
  368MOL0     C49575   3.790   4.553   9.172 -0.1036  0.3055 -0.7056
  368MOL0     O49576   3.827   4.576   9.046  0.4254  0.3115 -1.2106
  368MOL0     C49577   3.958   4.597   9.014  0.4295 -0.9982 -0.3964
  368MOL0     C49578   4.010   4.532   8.899 -0.7658  0.2708  0.6774
  368MOL0     C49579   4.145   4.553   8.868  0.0573 -0.8498 -0.2591
  368MOL0     C49580   4.226   4.646   8.931 -1.2564 -0.7163  0.1579
  368MOL0     O49581   4.360   4.675   8.898  0.7099 -0.2116 -0.0531
  368MOL0     C49582   4.413   4.640   8.772  0.7438  0.0058  0.3655
  368MOL0     C49583   4.556   4.683   8.770 -0.7166 -0.7556 -0.1171
  368MOL0     C49584   4.627   4.662   8.639 -0.5054 -0.5672  0.3070
  368MOL0     C49585   4.727   4.775   8.611  0.7032  0.0760 -0.2464
  368MOL0     C49586   4.838   4.798   8.716  0.1097  0.2584  0.2580
  368MOL0     C49587   4.946   4.692   8.717 -0.3751  0.8518  0.2041
  368MOL0     C49588   5.068   4.718   8.632  0.4019 -0.3392 -0.2811
  368MOL0     C49589   5.186   4.621   8.655  0.0121 -0.4801  0.4575
  368MOL0    Cl49590   5.153   4.448   8.629  0.1172  0.3921  0.0625
  368MOL0     C49591   4.168   4.722   9.035 -0.8273 -0.2311 -1.4916
  368MOL0     C49592   4.043   4.693   9.081 -0.2296  0.5594  0.2131
  368MOL0     O49593   3.857   4.553   9.271  0.0833 -0.3090 -0.4528
  368MOL0     C49594   3.547   4.587   9.088 -0.0784 -0.6494 -0.2152
  368MOL0     C49595   3.413   4.571   9.102 -0.0590  0.8133 -0.0649
  368MOL0     N49596   2.555   4.829   9.302  0.2541 -0.1378 -0.3479
  368MOL0     N49597   2.483   4.910   9.232 -0.3616 -0.1912  0.0482
  368MOL0     C49598   1.294   4.948   8.896 -0.2067  0.7778 -0.2501
  368MOL0     C49599   1.162   4.956   8.867 -0.2973 -0.5625 -0.7277
  368MOL0     C49600   0.761   4.957   8.591  0.6493 -0.0024  1.0666
  368MOL0     C49601   0.694   4.868   8.675 -0.3691 -0.0775  0.0757
  368MOL0     C49602   0.555   4.846   8.653 -0.1520 -0.0664 -1.0329
  368MOL0     C49603   0.473   4.916   8.567 -0.1236  0.1778 -0.4947
  368MOL0     O49604   0.338   4.878   8.564  0.5579 -1.3151 -0.2409
  368MOL0     C49605   0.251   4.940   8.473 -0.5697 -0.4139 -0.2528
  368MOL0     C49606   0.115   4.881   8.511 -0.4767  0.3760 -0.3880
  368MOL0     C49607  -0.003   4.946   8.438 -0.5127  0.2419  0.0161
  368MOL0     C49608  -0.065   5.052   8.517  0.3114 -0.3578  0.1355
  368MOL0     C49609  -0.186   5.094   8.444 -0.4915 -1.0051 -0.1196
  368MOL0     C49610  -0.267   5.133   8.369  0.7918  0.2537  0.6687
  368MOL0     C49611   0.538   5.000   8.473  0.4734 -0.7358 -0.0518
  368MOL0     C49612   0.683   5.012   8.485  0.0422  0.3711  0.2637
  368MOL0     H49613   1.175   4.933   8.525 -1.2965  1.4988  0.3315
  368MOL0     H49614   1.414   4.918   8.579 -0.5494 -4.5220  0.0406
  368MOL0     H49615   1.611   5.061   8.813  0.4554  0.0586  0.8061
  368MOL0     H49616   1.559   5.010   8.976 -2.1393 -0.2831 -0.7318
  368MOL0     H49617   1.712   4.846   8.985 -4.4007 -2.8977 -2.3009
  368MOL0     H49618   1.727   4.831   8.814 -0.9499  0.5607 -0.8108
  368MOL0     H49619   1.879   5.023   8.768  3.7272  0.3530  1.1887
  368MOL0     H49620   1.844   5.099   8.930  0.6253  0.3201  1.5929
  368MOL0     H49621   1.947   4.910   9.031  1.0796  3.0182  1.3086
  368MOL0     H49622   2.003   4.845   8.877  2.3150  1.5630 -1.4952
  368MOL0     H49623   2.122   5.096   8.855 -0.3595 -1.0207 -0.2353
  368MOL0     H49624   2.090   5.100   9.030  2.3004 -1.9608  2.2802
  368MOL0     H49625   2.208   4.895   9.073  3.8850 -1.2813  0.2376
  368MOL0     H49626   2.270   4.883   8.920  1.7920 -0.0210  2.1059
  368MOL0     H49627   2.338   5.131   8.928 -1.4977  1.0208  0.3741
  368MOL0     H49628   2.338   5.091   9.110 -4.2560 -1.4608 -0.2242
  368MOL0     H49629   2.560   5.075   8.988 -1.1959  0.6980  1.6162
  368MOL0     H49630   2.511   4.939   8.894 -0.2674  0.6699 -1.3861
  368MOL0     H49631   2.676   4.771   9.013 -3.3534  0.2801 -1.6617
  368MOL0     H49632   2.782   4.680   9.372  1.3740  0.0399 -0.4109
  368MOL0     H49633   2.713   4.562   9.259  1.5806 -0.8585 -0.4349
  368MOL0     H49634   2.929   4.773   9.206 -1.0171  0.0073  0.2533
  368MOL0     H49635   2.875   4.650   9.088 -2.4992 -1.1819  0.1188
  368MOL0     H49636   2.971   4.459   9.194  1.0602 -0.8095  1.0537
  368MOL0     H49637   3.003   4.543   9.340 -0.8453 -1.8364 -1.8654
  368MOL0     H49638   3.161   4.699   9.212 -0.3691 -0.9500  1.0959
  368MOL0     H49639   3.130   4.596   9.073 -1.1117 -1.2254  0.5028
  368MOL0     H49640   3.393   4.384   9.379 -0.3659 -1.7885 -1.0016
  368MOL0     H49641   3.762   4.352   9.391 -1.9474 -1.8237 -5.6637
  368MOL0     H49642   3.660   4.455   9.498 -0.3559 -0.5682  1.0196
  368MOL0     H49643   3.611   4.293   9.440  0.1054 -0.1176  2.4255
  368MOL0     H49644   3.953   4.454   8.850 -1.7161 -0.1302  2.3526
  368MOL0     H49645   4.193   4.495   8.790 -0.6377 -1.5433 -0.1820
  368MOL0     H49646   4.404   4.532   8.755 -2.8677  0.3088 -0.2792
  368MOL0     H49647   4.356   4.684   8.690 -2.0548  0.2287  2.3244
  368MOL0     H49648   4.554   4.791   8.792  1.6942 -1.0877  2.3228
  368MOL0     H49649   4.616   4.635   8.848  3.3425  2.6171 -0.7992
  368MOL0     H49650   4.556   4.658   8.556 -2.5676  3.9353  1.5237
  368MOL0     H49651   4.686   4.571   8.648  2.1925  0.9337 -0.8847
  368MOL0     H49652   4.779   4.750   8.518  0.5537 -0.5265 -0.1699
  368MOL0     H49653   4.666   4.863   8.590  0.2139  0.0145  0.8585
  368MOL0     H49654   4.789   4.806   8.813  1.9218 -0.6329  1.2994
  368MOL0     H49655   4.886   4.893   8.694  0.1764  0.6023  1.8169
  368MOL0     H49656   4.985   4.684   8.819  1.1481 -0.8099 -0.4513
  368MOL0     H49657   4.899   4.597   8.690  1.3823  0.4216 -1.5748
  368MOL0     H49658   5.108   4.818   8.652  0.9620 -0.6149  0.0309
  368MOL0     H49659   5.034   4.711   8.529 -0.1159 -3.0405 -0.0048
  368MOL0     H49660   5.228   4.637   8.755  1.8076 -1.0087 -0.1954
  368MOL0     H49661   5.263   4.654   8.585 -1.1438  2.6005  0.4742
  368MOL0     H49662   4.228   4.805   9.072 -3.2121  1.1936 -0.6089
  368MOL0     H49663   3.999   4.742   9.168 -3.2385 -0.1154 -0.8092
  368MOL0     H49664   3.588   4.628   8.996 -0.9426  0.2729 -0.2109
  368MOL0     H49665   3.350   4.604   9.021  0.2754 -3.0648 -2.0990
  368MOL0     H49666   1.319   4.922   8.998  0.7081 -1.9938 -1.0922
  368MOL0     H49667   1.095   4.978   8.950  3.1203 -3.0560  3.0337
  368MOL0     H49668   0.742   4.812   8.754 -0.8314  2.5481  2.3527
  368MOL0     H49669   0.500   4.774   8.713  2.0510  1.0325  2.6115
  368MOL0     H49670   0.265   5.047   8.495  0.7834 -1.2540  3.7498
  368MOL0     H49671   0.273   4.913   8.369 -1.0158  0.0743 -0.4774
  368MOL0     H49672   0.108   4.886   8.620 -3.6779  0.5987 -0.5143
  368MOL0     H49673   0.119   4.778   8.475  3.5738  0.1738  0.1704
  368MOL0     H49674  -0.081   4.870   8.429 -2.5292  2.4355 -2.9307
  368MOL0     H49675   0.029   4.980   8.339  0.8434  0.3857  0.4824
  368MOL0     H49676   0.001   5.139   8.517 -0.7129  0.4462 -0.5427
  368MOL0     H49677  -0.092   5.024   8.619 -3.2416  1.7124 -0.0594
  368MOL0     H49678  -0.320   5.161   8.280  1.7372 -2.0218 -0.6905
  368MOL0     H49679   0.482   5.053   8.396  0.8414 -0.8198 -0.3776
  368MOL0     H49680   0.741   5.077   8.419  2.0574 -0.2320  1.3726
  369MOL0     O49681   8.756   8.918   7.049 -0.3806  0.8355  0.3598
  369MOL0     C49682   8.768   8.846   6.948 -0.7390 -0.0792 -0.1075
  369MOL0     O49683   8.687   8.845   6.834  0.2637  0.4194  0.1979
  369MOL0     C49684   8.599   8.950   6.828  0.2228  1.1062 -0.4248
  369MOL0     C49685   8.475   8.944   6.891  1.1868  0.7119  0.6682
  369MOL0     C49686   8.384   9.046   6.874 -0.3730  0.0347 -0.0136
  369MOL0     C49687   8.405   9.150   6.795 -0.0170 -0.9807  1.4139
  369MOL0     O49688   8.321   9.246   6.753  0.2827  0.2781 -0.0235
  369MOL0     C49689   8.272   9.203   6.618  0.3608 -0.3285 -0.6257
  369MOL0     C49690   8.143   9.288   6.588  1.0303 -0.5076 -0.1504
  369MOL0     C49691   8.068   9.269   6.462  0.3075  0.4798  0.9869
  369MOL0     C49692   8.139   9.350   6.348  0.0859 -0.0712  0.1632
  369MOL0     C49693   8.072   9.342   6.216  0.5904 -0.1135 -0.6636
  369MOL0     C49694   8.161   9.402   6.107  0.3012 -0.5582 -0.1815
  369MOL0     C49695   8.088   9.382   5.972  1.1626  0.0191  0.0485
  369MOL0     C49696   8.168   9.462   5.872  0.1718 -0.1734 -0.7225
  369MOL0     N49697   8.287   9.398   5.829  0.1429 -0.4729 -0.1234
  369MOL0     C49698   8.293   9.285   5.759  0.1627 -0.8101  0.4350
  369MOL0     C49699   8.421   9.252   5.742  0.2124 -1.2573  0.2381
  369MOL0     C49700   8.450   9.124   5.666  0.6255 -0.6397  0.0586
  369MOL0     C49701   8.419   9.006   5.759  0.2765  0.7346  0.6438
  369MOL0     C49702   8.447   8.867   5.687  0.0823  0.3197  0.2481
  369MOL0     C49703   8.355   8.760   5.730  0.4101 -0.2493  0.3190
  369MOL0     O49704   8.219   8.795   5.688 -0.2159  0.5622  0.0123
  369MOL0     C49705   8.117   8.707   5.700  0.3442  0.6770  0.5147
  369MOL0     C49706   8.130   8.588   5.777 -0.7750  0.2609 -0.1116
  369MOL0     C49707   8.039   8.485   5.770  0.7981  0.2804 -0.9119
  369MOL0     C49708   8.076   8.358   5.841 -1.0604  0.1659 -0.0441
  369MOL0     C49709   7.914   8.507   5.705  0.0179  0.0309 -0.2580
  369MOL0     C49710   7.801   8.402   5.699  0.2681  0.3448 -0.0407
  369MOL0     O49711   7.669   8.455   5.716  1.3835 -0.2575 -0.2083
  369MOL0     C49712   7.570   8.362   5.722 -0.0345 -1.4654 -0.7318
  369MOL0     C49713   7.484   8.357   5.836 -0.3623  0.1705 -0.8209
  369MOL0     C49714   7.362   8.295   5.828  1.3189  0.7692 -0.7826
  369MOL0     C49715   7.313   8.226   5.710  0.6966 -0.5015  0.1295
  369MOL0     O49716   7.203   8.153   5.708  0.1363 -0.2872  0.2152
  369MOL0     C49717   7.173   8.063   5.598  0.5777  0.0551 -0.1423
  369MOL0     C49718   7.038   8.017   5.648 -0.2545  0.1067 -0.0126
  369MOL0     C49719   6.982   7.900   5.576  0.7744  0.1290  0.2633
  369MOL0     C49720   6.862   7.840   5.634 -0.0020  0.4784 -0.3526
  369MOL0     C49721   6.808   7.726   5.547  0.6403  0.2213  0.5039
  369MOL0     C49722   6.670   7.659   5.582  0.4053 -0.0153  0.1669
  369MOL0     C49723   6.673   7.505   5.573  0.6715  0.3045 -0.6318
  369MOL0     C49724   6.537   7.438   5.590 -0.6383  0.3128 -0.3745
  369MOL0    Cl49725   6.546   7.262   5.558 -0.4942 -0.1304  0.7275
  369MOL0     C49726   7.401   8.241   5.597  0.5586  0.8778 -0.3191
  369MOL0     C49727   7.522   8.303   5.603 -0.6761 -0.8937  0.0901
  369MOL0     O49728   7.825   8.280   5.675 -0.9554 -0.5094  0.1088
  369MOL0     C49729   7.893   8.636   5.640  0.8225 -0.7415 -0.1153
  369MOL0     C49730   8.005   8.714   5.616  0.4095  0.0997 -0.3334
  369MOL0     N49731   8.503   9.346   5.807  0.2243  0.5376  0.1949
  369MOL0     N49732   8.417   9.429   5.859 -0.5319  0.0278 -0.1565
  369MOL0     C49733   8.527   9.147   6.723 -0.5564 -0.6488  0.3849
  369MOL0     C49734   8.626   9.056   6.745 -0.6656 -0.0009  0.8873
  369MOL0     C49735   8.900   8.776   6.935  0.1813  0.0241 -0.8226
  369MOL0     C49736   8.931   8.686   6.827  1.1061  0.2164 -0.5068
  369MOL0     C49737   9.039   8.598   6.843  0.2215  0.3295 -0.0085
  369MOL0     C49738   9.122   8.599   6.957 -0.2160 -0.6053  0.5779
  369MOL0     O49739   9.222   8.504   6.955  0.2127  0.2918 -0.4187
  369MOL0     C49740   9.295   8.476   7.074  0.5861  0.1634 -0.3408
  369MOL0     C49741   9.404   8.582   7.095  0.0582  0.5264 -0.8095
  369MOL0     C49742   9.536   8.574   7.010 -0.5013 -0.6159  0.7652
  369MOL0     C49743   9.597   8.437   6.965 -0.0664  0.1654  0.9678
  369MOL0     C49744   9.510   8.347   6.891  0.7820 -0.1122  0.1296
  369MOL0     C49745   9.435   8.261   6.842 -0.3399 -0.7165 -0.7133
  369MOL0     C49746   9.101   8.703   7.050 -0.3620  0.9660 -0.9076
  369MOL0     C49747   8.996   8.793   7.039  0.5116  1.0303  0.2320
  369MOL0     H49748   8.458   8.858   6.955 -3.5666 -1.1151 -2.5277
  369MOL0     H49749   8.294   9.022   6.930  0.2680 -2.8505 -0.0988
  369MOL0     H49750   8.341   9.219   6.535 -2.1904 -0.8492 -2.9957
  369MOL0     H49751   8.249   9.096   6.620 -3.6634  0.3179 -2.1358
  369MOL0     H49752   8.078   9.254   6.669 -0.0725 -2.7618 -1.8730
  369MOL0     H49753   8.169   9.394   6.598  2.5173 -0.8437 -0.2313
  369MOL0     H49754   8.060   9.162   6.442 -2.3166  0.0002  3.8423
  369MOL0     H49755   7.966   9.309   6.469  0.0264 -0.0926  0.2567
  369MOL0     H49756   8.143   9.456   6.372  2.5069 -0.5276  2.1965
  369MOL0     H49757   8.241   9.315   6.328  0.3183  1.7289 -2.2543
  369MOL0     H49758   8.050   9.237   6.194 -2.5994 -0.3282  2.6237
  369MOL0     H49759   7.976   9.389   6.237  1.6710  1.2732  1.5367
  369MOL0     H49760   8.175   9.508   6.130  0.7991 -1.0592  2.1310
  369MOL0     H49761   8.258   9.350   6.102  1.3619  1.4724 -3.4500
  369MOL0     H49762   8.077   9.274   5.955  1.0431  0.0905 -0.3218
  369MOL0     H49763   7.987   9.424   5.977  0.4829 -1.3873 -1.0833
  369MOL0     H49764   8.183   9.565   5.906 -2.1738 -0.2945  0.9605
  369MOL0     H49765   8.114   9.480   5.779 -0.6867  0.7074 -0.0805
  369MOL0     H49766   8.209   9.228   5.721  0.2467 -1.9226  1.8579
  369MOL0     H49767   8.385   9.120   5.579  2.0237 -3.4964 -0.9723
  369MOL0     H49768   8.551   9.142   5.628  0.7478  4.0662  1.9295
  369MOL0     H49769   8.321   9.017   5.806 -1.6971 -4.5286 -1.4229
  369MOL0     H49770   8.501   9.020   5.829  1.5279  1.0150 -0.8099
  369MOL0     H49771   8.544   8.832   5.723  1.5208  3.3761 -0.2948
  369MOL0     H49772   8.454   8.865   5.578  2.9575  0.4702  0.3716
  369MOL0     H49773   8.352   8.758   5.840 -2.0857  0.9470  0.3571
  369MOL0     H49774   8.378   8.659   5.696 -0.9146 -0.5429  0.2394
  369MOL0     H49775   8.227   8.562   5.819 -1.2048  1.1917  1.5390
  369MOL0     H49776   8.148   8.384   5.919  0.6805 -1.0440 -1.1823
  369MOL0     H49777   7.990   8.305   5.883  0.0480 -0.9037  0.9408
  369MOL0     H49778   8.126   8.281   5.782 -3.3283 -1.6534  0.2940
  369MOL0     H49779   7.527   8.398   5.926 -0.3230 -2.2688  0.3444
  369MOL0     H49780   7.321   8.294   5.929  0.8618 -2.7812 -0.8963
  369MOL0     H49781   7.149   8.131   5.515 -0.2714 -2.2615 -1.9258
  369MOL0     H49782   7.246   7.986   5.571  0.8856  0.3258 -0.0811
  369MOL0     H49783   7.045   7.982   5.751 -1.3212 -1.6425 -0.4833
  369MOL0     H49784   6.973   8.104   5.667 -0.0705 -0.1382  1.9316
  369MOL0     H49785   7.054   7.818   5.565 -1.2603 -1.6654 -0.4982
  369MOL0     H49786   6.961   7.940   5.476  0.2232 -1.4024 -0.2719
  369MOL0     H49787   6.893   7.795   5.729  1.7414 -0.8487 -1.4973
  369MOL0     H49788   6.783   7.914   5.650 -1.6432 -1.4935  1.4008
  369MOL0     H49789   6.884   7.648   5.533 -2.3573 -2.6413 -1.0939
  369MOL0     H49790   6.795   7.763   5.445 -1.0502 -0.6938  0.3560
  369MOL0     H49791   6.636   7.685   5.683 -3.3559 -1.8764 -0.4553
  369MOL0     H49792   6.584   7.695   5.524  1.3228  0.2738 -1.0634
  369MOL0     H49793   6.747   7.480   5.650 -0.3406  1.3602  0.7414
  369MOL0     H49794   6.713   7.475   5.476  1.0259  2.9426 -1.3624
  369MOL0     H49795   6.462   7.481   5.524 -1.0803 -2.0082 -1.4931
  369MOL0     H49796   6.501   7.444   5.693 -1.4441 -1.4651 -0.5170
  369MOL0     H49797   7.364   8.201   5.503  0.2859 -0.7087  0.4232
  369MOL0     H49798   7.578   8.319   5.511 -0.3628  0.4473  0.4838
  369MOL0     H49799   7.800   8.661   5.591 -0.9640 -2.0456  2.3742
  369MOL0     H49800   8.000   8.803   5.553  1.4454 -0.2966 -1.0077
  369MOL0     H49801   8.554   9.235   6.664  0.2895  0.7680  2.7617
  369MOL0     H49802   8.722   9.051   6.695 -1.1603 -0.7853 -0.0168
  369MOL0     H49803   8.866   8.674   6.741  1.9542  1.5725 -1.3741
  369MOL0     H49804   9.055   8.520   6.769 -2.2270  1.2471 -1.6326
  369MOL0     H49805   9.224   8.469   7.157 -1.4802 -0.0102 -2.0282
  369MOL0     H49806   9.319   8.370   7.063 -1.1596 -0.4363  0.9555
  369MOL0     H49807   9.436   8.568   7.198 -0.7767  0.2716 -0.5763
  369MOL0     H49808   9.366   8.685   7.094  2.4381  1.6335  3.1225
  369MOL0     H49809   9.616   8.627   7.063 -1.6904  1.5113  0.5412
  369MOL0     H49810   9.514   8.629   6.919  0.6037  0.1196  0.9192
  369MOL0     H49811   9.633   8.388   7.056  1.7399  0.1061  0.2564
  369MOL0     H49812   9.676   8.451   6.890  0.3506 -3.5185  0.5128
  369MOL0     H49813   9.366   8.190   6.800  0.2475 -1.4845 -0.4113
  369MOL0     H49814   9.166   8.723   7.135 -1.5929 -1.5277  0.7510
  369MOL0     H49815   8.982   8.859   7.125 -0.3912 -0.2586  1.1238
  370MOL0     O49816   3.629   4.255   8.974  0.5761 -0.2301 -0.5212
  370MOL0     C49817   3.642   4.139   8.939  0.3083  0.0548 -0.0283
  370MOL0     O49818   3.537   4.059   8.921  1.0361  0.2221  0.3261
  370MOL0     C49819   3.398   4.086   8.928 -0.2838 -0.1507 -1.2644
  370MOL0     C49820   3.302   4.004   8.859 -0.8051 -0.2125 -1.3834
  370MOL0     C49821   3.163   4.016   8.887  0.0378  0.1098  0.1897
  370MOL0     C49822   3.108   4.106   8.980  0.3220  0.1631  0.8271
  370MOL0     O49823   2.966   4.100   9.006  0.6531 -0.2924 -0.0071
  370MOL0     C49824   2.901   4.222   9.019  1.0948  0.5206  0.8958
  370MOL0     C49825   2.749   4.191   8.996 -0.1404  0.0909  0.2529
  370MOL0     C49826   2.706   4.201   8.846 -0.4185  0.8981  1.0431
  370MOL0     C49827   2.559   4.211   8.823  0.1378 -0.1410 -0.3692
  370MOL0     C49828   2.527   4.216   8.670  0.8384  0.3237 -0.8977
  370MOL0     C49829   2.535   4.354   8.608  0.5983 -0.1262 -0.5610
  370MOL0     C49830   2.466   4.345   8.480  0.4043  0.8387  0.6347
  370MOL0     C49831   2.481   4.483   8.401  0.8235  0.3700 -0.2407
  370MOL0     N49832   2.344   4.498   8.349  0.3059 -0.0677 -0.2832
  370MOL0     C49833   2.314   4.520   8.215  0.0267  0.9115  0.4026
  370MOL0     C49834   2.180   4.539   8.209 -0.5678 -0.1728 -0.3042
  370MOL0     C49835   2.090   4.575   8.097 -0.2793 -0.7928 -0.0324
  370MOL0     C49836   2.024   4.451   8.028 -0.5493 -0.0315 -0.4551
  370MOL0     C49837   1.899   4.412   8.108  0.0563 -0.6053 -0.3677
  370MOL0     C49838   1.807   4.297   8.041 -0.0091  0.6323 -0.7754
  370MOL0     O49839   1.705   4.267   8.139 -0.5914 -0.2806  0.7861
  370MOL0     C49840   1.605   4.175   8.101 -0.5061  0.4155  0.4580
  370MOL0     C49841   1.592   4.119   7.971 -0.1944 -0.7166  0.1386
  370MOL0     C49842   1.484   4.032   7.938  0.2282 -0.1598 -0.6927
  370MOL0     C49843   1.489   3.970   7.796 -1.1803 -0.1442  0.4601
  370MOL0     C49844   1.387   4.001   8.040  0.8941 -0.7143 -0.0811
  370MOL0     C49845   1.282   3.897   8.012 -0.0843 -0.3959 -1.0533
  370MOL0     O49846   1.201   3.862   8.119 -0.3015 -0.4558  0.4307
  370MOL0     C49847   1.084   3.792   8.091  0.7247  0.0307  0.0389
  370MOL0     C49848   1.086   3.658   8.057 -0.1384  0.8572 -0.3512
  370MOL0     C49849   0.967   3.588   8.044  1.1545  0.8044 -0.4618
  370MOL0     C49850   0.847   3.650   8.068  0.3444  0.0705  0.1928
  370MOL0     O49851   0.738   3.570   8.056  0.6759  0.2061  0.3383
  370MOL0     C49852   0.617   3.595   8.129  0.3053  0.4057  0.4899
  370MOL0     C49853   0.527   3.468   8.112 -0.8444  0.0663 -0.1327
  370MOL0     C49854   0.402   3.480   8.193  0.0861 -0.3372 -0.7174
  370MOL0     C49855   0.303   3.577   8.131 -0.2431  0.0833  0.0099
  370MOL0     C49856   0.163   3.567   8.191  0.7783  0.3648  0.1229
  370MOL0     C49857   0.141   3.630   8.332  0.0513 -0.1958  0.7558
  370MOL0     C49858   0.202   3.547   8.444 -0.2990 -0.6060 -0.0097
  370MOL0     C49859   0.311   3.636   8.510  0.5816  0.1648  0.1268
  370MOL0    Cl49860   0.254   3.803   8.564  0.1512 -0.5155 -0.2264
  370MOL0     C49861   0.850   3.788   8.094  0.3095  0.0509  0.4698
  370MOL0     C49862   0.962   3.857   8.107  0.7304  1.2710 -0.0973
  370MOL0     O49863   1.278   3.832   7.912  0.3991  0.1163  0.6669
  370MOL0     C49864   1.403   4.056   8.170  1.2647  0.6739 -0.0592
  370MOL0     C49865   1.512   4.138   8.197  0.3081 -0.5309  0.1017
  370MOL0     N49866   2.143   4.534   8.344  0.1153  0.1411 -0.4548
  370MOL0     N49867   2.239   4.521   8.432 -0.5948 -0.0125 -0.5088
  370MOL0     C49868   3.200   4.192   9.043  0.4270 -0.1308  0.1265
  370MOL0     C49869   3.339   4.174   9.017  0.4662  1.0678  0.6310
  370MOL0     C49870   3.776   4.079   8.920  0.3975  0.0992 -0.2934
  370MOL0     C49871   3.797   3.946   8.888 -0.2655  0.2408  0.0089
  370MOL0     C49872   3.930   3.894   8.867  0.0048 -0.2332 -0.6577
  370MOL0     C49873   4.041   3.982   8.864  0.9102 -0.2270  0.8963
  370MOL0     O49874   4.158   3.922   8.851 -0.3671 -0.5043  0.4485
  370MOL0     C49875   4.277   4.003   8.872 -0.6909  0.1920 -0.3526
  370MOL0     C49876   4.396   3.912   8.852  0.5663  0.1350 -0.0042
  370MOL0     C49877   4.537   3.964   8.890  0.2955  0.5835  0.6684
  370MOL0     C49878   4.564   4.006   9.028  0.0460  0.3044 -0.2763
  370MOL0     C49879   4.563   3.896   9.127 -0.8400  0.2292 -0.4648
  370MOL0     C49880   4.554   3.793   9.199  1.0325  0.3523 -0.1728
  370MOL0     C49881   4.022   4.124   8.901  0.0832 -0.6691 -0.0208
  370MOL0     C49882   3.890   4.160   8.925  0.7810 -0.1726  1.0603
  370MOL0     H49883   3.339   3.935   8.783 -0.6381 -0.1164 -1.3891
  370MOL0     H49884   3.090   3.957   8.833 -0.1876  0.3621  0.2168
  370MOL0     H49885   2.899   4.276   9.115  0.4152  1.6492  0.2717
  370MOL0     H49886   2.945   4.289   8.945  0.5152  0.5645  0.5867
  370MOL0     H49887   2.720   4.089   9.021 -1.1452 -0.2690 -2.1153
  370MOL0     H49888   2.687   4.264   9.049  0.4193 -1.2895  2.9855
  370MOL0     H49889   2.749   4.288   8.796 -1.3219 -0.0393 -1.5270
  370MOL0     H49890   2.742   4.113   8.793  4.1994  1.0892  3.3160
  370MOL0     H49891   2.521   4.116   8.860 -0.7228  0.5278  0.5208
  370MOL0     H49892   2.509   4.286   8.885 -2.7940 -0.8310 -1.7451
  370MOL0     H49893   2.602   4.150   8.625  1.8563  1.3724 -0.7843
  370MOL0     H49894   2.428   4.171   8.653 -0.3402  2.3302  0.2514
  370MOL0     H49895   2.473   4.416   8.673  1.6604  2.6955 -2.0963
  370MOL0     H49896   2.636   4.395   8.594  0.2023  0.9592 -0.2920
  370MOL0     H49897   2.502   4.268   8.412 -1.4055 -0.2007  0.7754
  370MOL0     H49898   2.362   4.313   8.495  1.5607 -2.6429  2.1589
  370MOL0     H49899   2.553   4.473   8.319  1.3057  0.2909  0.1877
  370MOL0     H49900   2.502   4.566   8.468  0.6124 -0.2804  0.6469
  370MOL0     H49901   2.388   4.517   8.136 -0.4425  0.1267 -0.0239
  370MOL0     H49902   2.008   4.641   8.126  0.2421  0.9489 -2.2099
  370MOL0     H49903   2.158   4.626   8.028  1.7190 -0.0745  2.3179
  370MOL0     H49904   2.099   4.372   8.016  1.3377  1.6314 -0.1539
  370MOL0     H49905   1.988   4.482   7.929 -0.9785  0.5530 -0.1211
  370MOL0     H49906   1.833   4.499   8.123 -0.6042 -1.0922 -0.4053
  370MOL0     H49907   1.932   4.381   8.208  0.4894  0.4154 -0.1833
  370MOL0     H49908   1.876   4.215   8.018  1.9711  1.5897  1.3885
  370MOL0     H49909   1.749   4.339   7.958 -1.2702  1.1084  0.3142
  370MOL0     H49910   1.648   4.137   7.880 -2.7455  1.6164 -1.1257
  370MOL0     H49911   1.393   3.969   7.744 -0.7669  1.3308 -0.4173
  370MOL0     H49912   1.565   4.018   7.733 -0.0700 -3.3898 -0.9080
  370MOL0     H49913   1.524   3.867   7.805  1.2153  0.4548 -0.8603
  370MOL0     H49914   1.184   3.616   8.039 -0.4154  1.1120 -2.8330
  370MOL0     H49915   0.969   3.487   8.003  1.8675  0.4915  0.3264
  370MOL0     H49916   0.626   3.608   8.237 -1.9963  0.1570  0.7547
  370MOL0     H49917   0.558   3.683   8.102 -2.2175 -0.6501  2.2235
  370MOL0     H49918   0.511   3.452   8.005  0.2448 -0.4810 -0.2298
  370MOL0     H49919   0.569   3.380   8.160 -1.7978 -0.1918  0.2467
  370MOL0     H49920   0.427   3.521   8.292  2.7815 -1.4657 -0.8434
  370MOL0     H49921   0.346   3.387   8.205 -0.2709  0.1023  1.4542
  370MOL0     H49922   0.336   3.681   8.131 -1.7475  0.6033 -1.4095
  370MOL0     H49923   0.284   3.551   8.026 -0.3312 -0.6522  0.2014
  370MOL0     H49924   0.117   3.468   8.183  0.7721  0.4207 -0.6094
  370MOL0     H49925   0.101   3.622   8.120 -3.9640 -3.1750  0.9276
  370MOL0     H49926   0.178   3.733   8.330  0.6013 -0.3736 -1.9135
  370MOL0     H49927   0.035   3.625   8.358  0.2639 -4.4890  1.4906
  370MOL0     H49928   0.246   3.454   8.405  1.0583 -0.8280  1.9022
  370MOL0     H49929   0.127   3.519   8.518 -1.8929 -2.2355 -2.0925
  370MOL0     H49930   0.389   3.641   8.433 -0.7242  2.3078 -1.1619
  370MOL0     H49931   0.337   3.583   8.602  2.2200 -0.1573 -0.4843
  370MOL0     H49932   0.749   3.824   8.110 -0.6695 -2.6580  0.8827
  370MOL0     H49933   0.955   3.964   8.122 -0.8379  0.7512  4.1988
  370MOL0     H49934   1.320   4.044   8.239 -0.9375  0.4136 -2.6230
  370MOL0     H49935   1.525   4.171   8.299  0.7846 -2.3199  0.6661
  370MOL0     H49936   3.168   4.258   9.124  0.4661 -1.2776  1.1133
  370MOL0     H49937   3.405   4.245   9.066  0.3166  0.9682  0.9795
  370MOL0     H49938   3.716   3.875   8.876 -1.5312  0.8953  3.5394
  370MOL0     H49939   3.948   3.790   8.843  0.3775 -0.3092 -0.0595
  370MOL0     H49940   4.279   4.088   8.804  0.4166  0.3560 -0.1394
  370MOL0     H49941   4.272   4.055   8.968  1.0619  1.4785 -0.9101
  370MOL0     H49942   4.398   3.877   8.748 -1.7022  0.9599 -0.3800
  370MOL0     H49943   4.384   3.827   8.921 -0.0457  0.9418  0.9113
  370MOL0     H49944   4.569   4.042   8.819  0.0794  0.6320  0.6233
  370MOL0     H49945   4.609   3.886   8.864  1.3483  1.9216 -0.7177
  370MOL0     H49946   4.506   4.093   9.063  0.4251  1.0175 -1.3708
  370MOL0     H49947   4.665   4.046   9.017 -0.6078  2.0645 -0.1660
  370MOL0     H49948   4.544   3.693   9.237  0.9529 -0.3422 -1.9209
  370MOL0     H49949   4.109   4.188   8.907  1.5279 -2.3604 -1.7816
  370MOL0     H49950   3.861   4.263   8.943 -1.8951 -0.4039 -1.1846
  371MOL0     O49951   7.877  10.388   8.112 -0.9443 -0.2464 -0.5197
  371MOL0     C49952   7.917  10.272   8.122  0.7669  0.5511  1.0173
  371MOL0     O49953   7.861  10.166   8.052  0.4593 -0.2272 -0.2875
  371MOL0     C49954   7.743  10.192   7.987 -0.0995 -0.6697 -0.7301
  371MOL0     C49955   7.624  10.220   8.064  0.4747  0.9944  0.2600
  371MOL0     C49956   7.503  10.239   7.989  0.0326  0.2716  0.4524
  371MOL0     C49957   7.508  10.254   7.853  0.1945  0.9514  0.4394
  371MOL0     O49958   7.387  10.284   7.802 -0.5328  0.8709 -0.4840
  371MOL0     C49959   7.365  10.288   7.668 -0.1797  0.3335  0.8695
  371MOL0     C49960   7.225  10.240   7.646  0.0598 -0.2621  0.4361
  371MOL0     C49961   7.206  10.097   7.684  0.4735  0.1161 -0.0633
  371MOL0     C49962   7.071  10.044   7.646  0.5496 -0.3634  0.1849
  371MOL0     C49963   7.043  10.043   7.496 -0.2750  0.1470  1.0326
  371MOL0     C49964   6.956   9.933   7.457  0.7698  0.1768 -0.6979
  371MOL0     C49965   6.822   9.917   7.545 -0.1085 -0.1243 -0.0093
  371MOL0     C49966   6.742  10.050   7.557  0.9523 -0.1873  0.0890
  371MOL0     N49967   6.683  10.102   7.436 -0.7144  0.9984 -0.0548
  371MOL0     C49968   6.560  10.059   7.383 -0.4422 -0.1539 -0.4536
  371MOL0     C49969   6.514  10.157   7.308  0.0311 -0.0030 -0.0488
  371MOL0     C49970   6.377  10.180   7.263  1.2723 -0.6231 -0.0881
  371MOL0     C49971   6.287  10.269   7.359  0.5497  1.0083 -0.2919
  371MOL0     C49972   6.262  10.233   7.505 -0.0689  0.3533 -0.2947
  371MOL0     C49973   6.184  10.109   7.519  0.1946 -0.2769  0.5632
  371MOL0     O49974   6.054  10.107   7.449  0.0864 -0.7334  0.1713
  371MOL0     C49975   5.960  10.193   7.490 -0.6167 -0.3098 -0.6271
  371MOL0     C49976   5.869  10.242   7.399 -0.1017  0.6856 -0.4456
  371MOL0     C49977   5.761  10.324   7.426 -0.1731 -0.0554 -0.2870
  371MOL0     C49978   5.675  10.371   7.306  0.3739  0.1180 -0.8385
  371MOL0     C49979   5.749  10.373   7.551 -0.3997 -0.1925  0.0088
  371MOL0     C49980   5.652  10.473   7.589  0.0960  0.8187 -0.2496
  371MOL0     O49981   5.704  10.581   7.664 -0.0911  0.1585  1.2419
  371MOL0     C49982   5.621  10.666   7.726  0.5122 -0.6122  0.1765
  371MOL0     C49983   5.657  10.696   7.853 -0.2375  0.5623 -0.5097
  371MOL0     C49984   5.583  10.791   7.924  0.4645 -0.3141  0.6221
  371MOL0     C49985   5.476  10.865   7.868  0.1391  0.0887  0.0138
  371MOL0     O49986   5.421  10.952   7.962 -0.6820 -0.4750 -0.1020
  371MOL0     C49987   5.301  11.022   7.926 -0.7819 -0.1104 -1.0572
  371MOL0     C49988   5.314  11.154   7.840  0.6525  0.7741  1.0307
  371MOL0     C49989   5.438  11.241   7.854 -0.2983 -0.1379 -0.7034
  371MOL0     C49990   5.451  11.283   8.001 -0.5950 -0.0788 -0.4151
  371MOL0     C49991   5.592  11.344   8.030 -0.0457 -0.3449  1.1410
  371MOL0     C49992   5.618  11.359   8.176  0.0765  0.2414  0.0694
  371MOL0     C49993   5.710  11.242   8.232  0.0639  1.0366  0.2745
  371MOL0     C49994   5.707  11.263   8.387  0.0890  0.6649  0.6269
  371MOL0    Cl49995   5.748  11.109   8.470 -0.2996 -0.4259  0.4096
  371MOL0     C49996   5.435  10.832   7.736  0.2335  0.1482  0.5264
  371MOL0     C49997   5.507  10.729   7.674  0.2965  0.4552 -0.7038
  371MOL0     O49998   5.533  10.444   7.572 -0.0585 -0.1068 -0.5227
  371MOL0     C49999   5.834  10.339   7.652 -0.3443 -0.9479 -0.6768
  371MOL0     C50000   5.937  10.244   7.622  0.3734  0.1621 -0.5873
  371MOL0     N50001   6.610  10.253   7.310  0.2804 -0.9443  0.2775
  371MOL0     N50002   6.703  10.231   7.394  0.4993  0.2217  1.1432
  371MOL0     C50003   7.628  10.230   7.776  0.0592 -0.3298  0.1998
  371MOL0     C50004   7.741  10.191   7.841 -0.1617 -0.1574 -0.1245
  371MOL0     C50005   8.035  10.233   8.206  0.4127 -0.1535  0.3495
  371MOL0     C50006   8.048  10.087   8.228 -0.4464  0.1874 -0.8602
  371MOL0     C50007   8.151  10.042   8.308  0.1676  0.0765  0.4140
  371MOL0     C50008   8.245  10.130   8.361  0.6011 -0.6888 -0.0527
  371MOL0     O50009   8.350  10.074   8.424  0.6895  0.0573  0.0504
  371MOL0     C50010   8.363   9.932   8.457 -0.1239  0.9112  0.2722
  371MOL0     C50011   8.292   9.887   8.585  0.3108 -0.3750  0.1318
  371MOL0     C50012   8.344   9.958   8.708 -0.7632 -0.0960  0.2441
  371MOL0     C50013   8.257   9.947   8.835 -0.2819  0.8924 -0.2732
  371MOL0     C50014   8.237   9.811   8.886  0.2089 -0.6181 -0.4610
  371MOL0     C50015   8.215   9.705   8.936 -0.6571  0.0336 -0.7273
  371MOL0     C50016   8.238  10.266   8.327 -0.1738 -0.6399  0.3297
  371MOL0     C50017   8.129  10.327   8.254 -0.0780  0.2625  0.2767
  371MOL0     H50018   7.617  10.225   8.172 -0.2037 -1.6242  0.4245
  371MOL0     H50019   7.417  10.270   8.048 -0.3998  0.1871 -0.1349
  371MOL0     H50020   7.377  10.394   7.644  1.6421 -0.2014 -0.8792
  371MOL0     H50021   7.432  10.230   7.603 -1.5998 -1.1791  0.6722
  371MOL0     H50022   7.164  10.308   7.706 -0.9894 -0.9599  0.1860
  371MOL0     H50023   7.187  10.244   7.544 -3.1186  2.6021  1.5498
  371MOL0     H50024   7.277  10.033   7.631  1.0259 -1.6418  2.6066
  371MOL0     H50025   7.221  10.083   7.791 -1.9048 -0.9452  0.1924
  371MOL0     H50026   7.063   9.938   7.673  1.3696 -0.4513  0.1095
  371MOL0     H50027   7.001  10.094   7.714 -0.6282 -0.1389 -1.1519
  371MOL0     H50028   6.993  10.137   7.468  0.1277 -0.6067 -2.6315
  371MOL0     H50029   7.134  10.029   7.438 -1.3259  0.9607 -0.9182
  371MOL0     H50030   6.924   9.952   7.354  0.4166  0.8381 -0.4698
  371MOL0     H50031   7.013   9.840   7.468  2.5700  1.1953 -1.0790
  371MOL0     H50032   6.758   9.845   7.495  1.1840  0.1084 -2.1076
  371MOL0     H50033   6.844   9.868   7.640 -1.4652 -4.5763 -1.7630
  371MOL0     H50034   6.808  10.128   7.596  2.9597 -0.7437 -1.9667
  371MOL0     H50035   6.658  10.039   7.626  0.0346  1.1409 -0.7698
  371MOL0     H50036   6.507   9.967   7.403 -0.6041  0.2283  0.9489
  371MOL0     H50037   6.385  10.230   7.167 -0.7255  1.4391  0.7355
  371MOL0     H50038   6.338  10.084   7.230  1.5641 -0.6371 -0.3993
  371MOL0     H50039   6.182  10.270   7.328  0.4592  0.7428  0.0020
  371MOL0     H50040   6.327  10.371   7.365 -2.4747  2.3527 -1.0709
  371MOL0     H50041   6.201  10.313   7.548 -1.6695 -1.2957  0.6696
  371MOL0     H50042   6.352  10.224   7.568 -1.7950  1.6070  2.5402
  371MOL0     H50043   6.160  10.079   7.621 -0.5163 -2.2023 -0.1276
  371MOL0     H50044   6.252  10.035   7.477  0.1595 -0.7585  1.3318
  371MOL0     H50045   5.878  10.204   7.298  2.4861 -4.4081  1.3420
  371MOL0     H50046   5.569  10.367   7.330  0.8530  0.8820  1.7151
  371MOL0     H50047   5.712  10.471   7.284  1.2220  0.1433  0.5529
  371MOL0     H50048   5.698  10.308   7.220  3.2569  1.8615 -1.4980
  371MOL0     H50049   5.721  10.635   7.916 -2.7382  2.1167  3.9696
  371MOL0     H50050   5.617  10.816   8.024 -0.5672 -0.7041  1.0766
  371MOL0     H50051   5.231  10.950   7.883  0.7649 -2.3892  0.0374
  371MOL0     H50052   5.264  11.059   8.022  0.8719  1.3060 -0.8932
  371MOL0     H50053   5.286  11.119   7.740  1.1600 -1.2627  1.5605
  371MOL0     H50054   5.232  11.226   7.855 -0.8386 -0.6862  0.2321
  371MOL0     H50055   5.418  11.328   7.791 -1.7775  1.0060  1.2232
  371MOL0     H50056   5.531  11.192   7.823  1.9848  0.9171  3.7041
  371MOL0     H50057   5.360  11.338   8.028 -0.5148 -0.6880  1.1943
  371MOL0     H50058   5.452  11.200   8.073 -2.4216 -0.2618 -0.5451
  371MOL0     H50059   5.607  11.440   7.979 -0.3231 -0.6066  0.5645
  371MOL0     H50060   5.665  11.275   7.987 -0.1923  0.2360 -0.0919
  371MOL0     H50061   5.670  11.450   8.206  2.2359 -1.4887  1.8417
  371MOL0     H50062   5.520  11.355   8.225  0.2139 -1.7590  0.2580
  371MOL0     H50063   5.814  11.248   8.199  0.2861 -2.2828  0.0876
  371MOL0     H50064   5.673  11.144   8.200 -0.1104  1.9833 -2.7394
  371MOL0     H50065   5.606  11.287   8.421 -0.0410  2.1323 -0.6805
  371MOL0     H50066   5.779  11.340   8.415 -0.9130  1.5094  0.9233
  371MOL0     H50067   5.344  10.860   7.684 -0.0130 -1.1759  0.1871
  371MOL0     H50068   5.486  10.692   7.574 -2.7485 -2.0952  0.6814
  371MOL0     H50069   5.832  10.384   7.751 -0.5205  3.2160 -2.3807
  371MOL0     H50070   6.002  10.217   7.705 -1.9323 -2.0578  0.6414
  371MOL0     H50071   7.642  10.247   7.670  1.4650  0.9731  0.5652
  371MOL0     H50072   7.836  10.176   7.789  0.3997  0.9563  0.5339
  371MOL0     H50073   7.983  10.021   8.173 -1.7874  0.2076  0.6160
  371MOL0     H50074   8.136   9.935   8.310 -1.6550  0.1680 -2.4351
  371MOL0     H50075   8.355   9.860   8.375 -0.2680  0.8887  0.3062
  371MOL0     H50076   8.468   9.905   8.473 -0.0456  1.6172  1.0707
  371MOL0     H50077   8.305   9.778   8.593 -2.3209 -1.0141 -2.4722
  371MOL0     H50078   8.186   9.902   8.560  0.1817  0.3942  1.0860
  371MOL0     H50079   8.369  10.063   8.690  1.4396 -0.8777 -1.6833
  371MOL0     H50080   8.441   9.912   8.729 -1.2906 -0.4764  2.0888
  371MOL0     H50081   8.159   9.986   8.808  0.6441  2.2656 -1.8691
  371MOL0     H50082   8.312  10.011   8.905  2.5159 -1.5063 -0.0754
  371MOL0     H50083   8.211   9.617   8.998 -0.3584  0.3640 -0.2354
  371MOL0     H50084   8.310  10.348   8.333 -0.5096 -0.4210  2.1157
  371MOL0     H50085   8.131  10.432   8.230  1.4806 -0.3764 -3.0002
  372MOL0     O50086   6.113   7.347  11.149 -0.0577  0.3680 -0.7314
  372MOL0     C50087   6.214   7.348  11.221  0.1518 -0.1368  0.4933
  372MOL0     O50088   6.214   7.316  11.352 -0.5041 -0.3213  0.9065
  372MOL0     C50089   6.109   7.282  11.422  0.3310 -0.2929 -0.8198
  372MOL0     C50090   5.984   7.345  11.410 -0.2830 -0.0553  0.4203
  372MOL0     C50091   5.875   7.324  11.493  0.6052 -0.3403  0.0977
  372MOL0     C50092   5.875   7.207  11.572  0.8783  0.0230  0.4052
  372MOL0     O50093   5.764   7.187  11.656 -0.2622 -0.4629 -0.6204
  372MOL0     C50094   5.748   7.083  11.758  0.6390  0.9578 -1.1686
  372MOL0     C50095   5.642   7.130  11.861 -0.4178 -0.3037  0.0920
  372MOL0     C50096   5.502   7.169  11.802 -0.1971  0.1996  0.6954
  372MOL0     C50097   5.420   7.040  11.784 -0.4688  1.2053  0.7705
  372MOL0     C50098   5.272   7.080  11.759 -1.0213 -1.0939  0.0708
  372MOL0     C50099   5.246   7.108  11.609 -0.5542  0.2031  0.0787
  372MOL0     C50100   5.105   7.114  11.570  0.5786 -0.5139 -0.4285
  372MOL0     C50101   5.022   7.211  11.659  0.1161 -0.0681 -0.0171
  372MOL0     N50102   4.891   7.237  11.593 -0.5212  0.4213  0.0055
  372MOL0     C50103   4.845   7.348  11.524 -0.1286  0.3072 -0.8166
  372MOL0     C50104   4.717   7.308  11.486 -0.2816  0.3227  0.6009
  372MOL0     C50105   4.627   7.388  11.406  1.2527 -0.6740 -0.0674
  372MOL0     C50106   4.546   7.303  11.294 -0.4068 -1.2456  0.1277
  372MOL0     C50107   4.406   7.253  11.341 -0.9756 -1.0027  0.3886
  372MOL0     C50108   4.358   7.161  11.225 -0.8377  0.5557 -0.7111
  372MOL0     O50109   4.245   7.083  11.259 -0.4073 -0.5336 -0.6932
  372MOL0     C50110   4.139   7.134  11.337 -0.5232 -0.1765  0.1753
  372MOL0     C50111   4.097   7.045  11.437  0.4903  0.1912 -0.3283
  372MOL0     C50112   3.999   7.082  11.531 -0.5042 -0.6992 -0.1457
  372MOL0     C50113   3.970   6.973  11.640 -0.6499 -0.8210 -0.7209
  372MOL0     C50114   3.927   7.207  11.514  0.2489 -0.7218  0.3585
  372MOL0     C50115   3.822   7.252  11.605 -0.1680  0.1968  0.0292
  372MOL0     O50116   3.795   7.168  11.712  1.1840 -0.3956 -0.4156
  372MOL0     C50117   3.709   7.219  11.811  0.4386 -0.6768  0.3785
  372MOL0     C50118   3.746   7.285  11.925 -0.0116 -0.5525  0.1235
  372MOL0     C50119   3.657   7.347  12.014 -0.4721 -0.0915 -0.1163
  372MOL0     C50120   3.521   7.339  11.981  0.5473  0.1035  0.2325
  372MOL0     O50121   3.431   7.402  12.056  0.2276 -0.6478 -0.1485
  372MOL0     C50122   3.458   7.436  12.192 -0.4119  0.3654  0.9317
  372MOL0     C50123   3.325   7.464  12.253 -0.3713 -0.2114 -0.6916
  372MOL0     C50124   3.218   7.354  12.249 -0.6244 -0.4268 -0.6035
  372MOL0     C50125   3.155   7.305  12.385 -0.1490 -0.1116 -0.0296
  372MOL0     C50126   3.023   7.385  12.423 -0.2631  0.7286 -0.1916
  372MOL0     C50127   2.965   7.337  12.558 -1.2480 -0.0083 -1.1226
  372MOL0     C50128   2.843   7.415  12.604  0.0705 -0.8118  0.7933
  372MOL0     C50129   2.724   7.393  12.511  0.5005  1.0189  0.0132
  372MOL0    Cl50130   2.662   7.228  12.512 -0.1435  0.2932  0.0663
  372MOL0     C50131   3.483   7.253  11.874 -0.1756  0.3515  0.3371
  372MOL0     C50132   3.571   7.193  11.789 -0.1171  0.1568 -0.4890
  372MOL0     O50133   3.764   7.357  11.598 -0.1313  0.4046 -0.0508
  372MOL0     C50134   3.962   7.290  11.402  0.7224  0.6723  0.0757
  372MOL0     C50135   4.074   7.254  11.332  0.8794 -0.6023 -0.1323
  372MOL0     N50136   4.688   7.180  11.524 -0.6615 -0.3398  0.2680
  372MOL0     N50137   4.782   7.149  11.619  0.3017  0.0257  0.0537
  372MOL0     C50138   5.992   7.124  11.569  0.5372  0.2089  0.2948
  372MOL0     C50139   6.109   7.161  11.496 -0.2149  0.0827 -0.2413
  372MOL0     C50140   6.343   7.377  11.159 -0.5423 -0.1634  0.3204
  372MOL0     C50141   6.469   7.345  11.231 -0.4420  0.3859  0.6085
  372MOL0     C50142   6.591   7.387  11.183  0.1530 -0.0778 -0.0137
  372MOL0     C50143   6.605   7.456  11.062  0.5665 -0.7696 -0.1397
  372MOL0     O50144   6.717   7.511  11.008 -0.0966 -0.6740  0.2360
  372MOL0     C50145   6.848   7.488  11.065 -0.8243  0.7647 -0.6918
  372MOL0     C50146   6.929   7.365  11.010  0.4136  0.7142  0.6450
  372MOL0     C50147   6.934   7.359  10.857  0.3238  0.4588  0.4183
  372MOL0     C50148   6.980   7.228  10.800 -0.8323  0.2761 -0.0769
  372MOL0     C50149   7.117   7.205  10.850 -1.2294  0.3765 -0.7183
  372MOL0     C50150   7.227   7.187  10.902 -0.2808 -0.6805  0.1493
  372MOL0     C50151   6.486   7.478  10.993  0.3284 -0.6273  0.4032
  372MOL0     C50152   6.357   7.434  11.039  0.3543 -0.3304  0.3413
  372MOL0     H50153   5.978   7.432  11.344  0.7339 -0.6960 -0.5580
  372MOL0     H50154   5.787   7.388  11.495 -0.2096 -1.4676  1.3667
  372MOL0     H50155   5.717   6.990  11.709  1.0217 -0.3054  0.9085
  372MOL0     H50156   5.845   7.065  11.804 -0.8974 -1.7721  1.3307
  372MOL0     H50157   5.635   7.059  11.944 -2.7607  1.1480  1.2620
  372MOL0     H50158   5.686   7.223  11.898 -4.6523  1.4160  1.3800
  372MOL0     H50159   5.454   7.235  11.874  0.9338  1.4196  0.3703
  372MOL0     H50160   5.521   7.217  11.706  2.0831 -0.3491  0.8131
  372MOL0     H50161   5.463   6.979  11.704  0.1371  1.3625  0.9779
  372MOL0     H50162   5.425   6.976  11.872 -1.3983 -0.8632 -0.5965
  372MOL0     H50163   5.200   6.999  11.772 -0.5680 -2.1526 -3.2522
  372MOL0     H50164   5.247   7.167  11.820  3.0629  0.5350 -0.2163
  372MOL0     H50165   5.285   7.208  11.587 -0.0873  0.6352  2.5791
  372MOL0     H50166   5.301   7.036  11.547 -2.4946 -1.8926  0.6608
  372MOL0     H50167   5.099   7.152  11.468  1.5449  0.5621 -0.1093
  372MOL0     H50168   5.060   7.014  11.569  1.1697 -0.7800 -1.0204
  372MOL0     H50169   5.079   7.304  11.666  0.0832  0.0887 -1.5701
  372MOL0     H50170   5.001   7.173  11.760  1.6928 -2.1903 -0.4077
  372MOL0     H50171   4.904   7.438  11.508  2.5269 -1.5809 -2.3457
  372MOL0     H50172   4.550   7.420  11.476  1.0697 -1.3135  0.0293
  372MOL0     H50173   4.686   7.468  11.359 -1.9122  0.8325 -1.7932
  372MOL0     H50174   4.612   7.221  11.264 -0.3534 -2.0216  2.1545
  372MOL0     H50175   4.538   7.373  11.211  1.8241 -1.8458 -0.6754
  372MOL0     H50176   4.337   7.334  11.369 -0.4756 -0.0456 -1.0516
  372MOL0     H50177   4.431   7.197  11.432 -0.5996 -4.0254 -1.4674
  372MOL0     H50178   4.441   7.091  11.217 -1.6768 -0.4183 -1.1238
  372MOL0     H50179   4.334   7.217  11.134  0.0941 -2.6931 -3.1814
  372MOL0     H50180   4.154   6.954  11.455 -2.1875 -1.6518 -0.6767
  372MOL0     H50181   3.871   6.929  11.628 -1.1000  0.4416 -1.8658
  372MOL0     H50182   4.053   6.901  11.640  1.3270  1.2100  2.1872
  372MOL0     H50183   3.973   7.019  11.739  0.1672 -0.5581 -0.8627
  372MOL0     H50184   3.852   7.296  11.949  0.0062 -0.8156  0.1618
  372MOL0     H50185   3.696   7.401  12.099  0.3068  1.1037 -1.1871
  372MOL0     H50186   3.509   7.351  12.238 -0.5322 -1.2609 -1.7487
  372MOL0     H50187   3.519   7.526  12.203 -1.1065  0.6349  3.2940
  372MOL0     H50188   3.341   7.510  12.351 -1.6291 -1.0499 -0.0659
  372MOL0     H50189   3.289   7.546  12.192  0.3854 -1.3998 -2.8387
  372MOL0     H50190   3.277   7.274  12.202  0.5979 -1.6923  2.7286
  372MOL0     H50191   3.142   7.383  12.176  2.6851  0.1278 -4.1526
  372MOL0     H50192   3.139   7.202  12.351  4.4049 -0.3914 -2.0311
  372MOL0     H50193   3.223   7.320  12.468  2.5628 -1.9890 -1.7534
  372MOL0     H50194   2.944   7.371  12.348 -2.7714  2.3097  1.9806
  372MOL0     H50195   3.040   7.493  12.430 -2.1089  0.9783  1.4230
  372MOL0     H50196   2.942   7.230  12.565  2.1141 -0.7428  1.7912
  372MOL0     H50197   3.046   7.337  12.632  1.8424 -1.9683 -4.2271
  372MOL0     H50198   2.868   7.521  12.606 -0.3307 -0.6972  3.4818
  372MOL0     H50199   2.824   7.391  12.709 -1.2299 -1.7910  0.3567
  372MOL0     H50200   2.744   7.425  12.409  3.1009 -0.0767  0.1144
  372MOL0     H50201   2.640   7.455  12.546 -0.7783 -2.6339  4.4674
  372MOL0     H50202   3.376   7.233  11.867 -0.1590  0.5386 -0.6095
  372MOL0     H50203   3.539   7.122  11.713  1.1002 -0.0439 -0.8261
  372MOL0     H50204   3.912   7.384  11.385 -3.4735 -1.3211  0.1491
  372MOL0     H50205   4.110   7.324  11.257  0.6142  1.0734  1.2278
  372MOL0     H50206   6.004   7.035  11.630 -2.6895 -0.7244 -0.2787
  372MOL0     H50207   6.204   7.109  11.494 -0.0359  0.2900  1.4254
  372MOL0     H50208   6.468   7.288  11.323 -1.7386 -1.6090 -0.5802
  372MOL0     H50209   6.669   7.387  11.259  0.0196 -2.2329  0.1805
  372MOL0     H50210   6.907   7.579  11.060  1.3877 -0.5022  0.7485
  372MOL0     H50211   6.839   7.478  11.173  4.6596 -0.3429 -0.0585
  372MOL0     H50212   6.885   7.273  11.051 -0.7378  0.2699 -1.3773
  372MOL0     H50213   7.034   7.368  11.038  0.9758  0.7150 -1.2911
  372MOL0     H50214   6.997   7.440  10.819  1.1450  0.0755  0.9299
  372MOL0     H50215   6.837   7.365  10.806  0.8206 -0.7414 -0.7047
  372MOL0     H50216   6.975   7.220  10.691  1.2110  1.2640 -0.2936
  372MOL0     H50217   6.928   7.138  10.834 -1.7771  1.0165  0.4754
  372MOL0     H50218   7.323   7.176  10.949  1.5390  0.8429 -2.8969
  372MOL0     H50219   6.508   7.539  10.906  1.8384  2.4194  2.7186
  372MOL0     H50220   6.272   7.452  10.974  0.7757 -0.7690 -0.3436
  373MOL0     O50221  11.234   3.927   3.026 -0.9453 -0.3597  0.9142
  373MOL0     C50222  11.127   3.910   3.088 -0.0523  0.0271  0.7001
  373MOL0     O50223  11.113   3.828   3.197  0.5327  0.0174 -0.3297
  373MOL0     C50224  11.226   3.764   3.247  0.0108  0.2808 -0.0498
  373MOL0     C50225  11.287   3.661   3.182 -0.2895  0.1332 -0.2853
  373MOL0     C50226  11.407   3.610   3.231 -0.6422 -0.6333  0.0104
  373MOL0     C50227  11.459   3.647   3.355 -0.2135  0.2206  0.7191
  373MOL0     O50228  11.570   3.585   3.393  0.1343 -0.1310  0.1183
  373MOL0     C50229  11.655   3.651   3.489 -0.0865 -0.2853 -0.3178
  373MOL0     C50230  11.796   3.631   3.438 -0.4105  0.7085  0.0520
  373MOL0     C50231  11.847   3.489   3.422 -0.1777 -0.4978  1.0577
  373MOL0     C50232  12.007   3.486   3.390 -0.4621  0.2909 -0.0061
  373MOL0     C50233  12.054   3.339   3.385 -0.5379  0.2058  0.2125
  373MOL0     C50234  12.070   3.269   3.518  0.2408  0.8253  0.3020
  373MOL0     C50235  12.186   3.323   3.602 -0.5113 -0.5696  0.8003
  373MOL0     C50236  12.175   3.300   3.750  0.3955 -0.3483 -0.0629
  373MOL0     N50237  12.178   3.155   3.778 -0.1346  0.1117  0.6977
  373MOL0     C50238  12.087   3.080   3.846 -0.0465 -0.3550  0.4654
  373MOL0     C50239  12.126   2.955   3.837  1.1325 -0.0965  0.3102
  373MOL0     C50240  12.041   2.839   3.880 -0.3554 -0.4251 -0.5004
  373MOL0     C50241  11.927   2.805   3.782 -0.1788 -0.2623 -0.6252
  373MOL0     C50242  11.829   2.698   3.826 -0.3140  0.6253  0.5528
  373MOL0     C50243  11.697   2.707   3.745  0.1385 -0.1453  0.8632
  373MOL0     O50244  11.621   2.825   3.775  0.0929 -0.4849  0.8945
  373MOL0     C50245  11.554   2.885   3.671 -0.1158  0.5103  0.0656
  373MOL0     C50246  11.614   2.988   3.594  0.4748 -0.6342  0.2305
  373MOL0     C50247  11.540   3.061   3.495 -0.0807  0.2932 -0.4237
  373MOL0     C50248  11.613   3.174   3.434 -0.4854  0.0574  1.1146
  373MOL0     C50249  11.399   3.040   3.488 -0.2505  0.2548 -0.4051
  373MOL0     C50250  11.295   3.122   3.410 -0.2108  0.4552  1.1814
  373MOL0     O50251  11.167   3.094   3.429 -0.2138 -0.4941 -0.6821
  373MOL0     C50252  11.059   3.149   3.365 -0.3110 -0.9907 -0.3657
  373MOL0     C50253  11.056   3.222   3.243  0.2937  0.5998  0.1511
  373MOL0     C50254  10.933   3.256   3.183  0.4950  0.2368 -0.5065
  373MOL0     C50255  10.809   3.228   3.256 -0.1231  0.9231  0.5926
  373MOL0     O50256  10.693   3.243   3.198 -0.1852  0.0643 -0.7436
  373MOL0     C50257  10.675   3.256   3.054 -0.1430 -0.4804 -0.1296
  373MOL0     C50258  10.530   3.258   3.011 -0.0676  0.8159 -0.3781
  373MOL0     C50259  10.445   3.362   3.095  0.7189 -0.4628 -0.0515
  373MOL0     C50260  10.301   3.362   3.046  0.2127  0.4924 -0.4207
  373MOL0     C50261  10.224   3.457   3.123  1.4212 -0.8321  0.1185
  373MOL0     C50262  10.169   3.395   3.262  0.3517 -0.3066  0.2263
  373MOL0     C50263  10.043   3.472   3.314 -0.4128 -0.0038  0.3512
  373MOL0     C50264  10.078   3.614   3.331 -0.2908  0.1446 -0.4965
  373MOL0    Cl50265   9.957   3.680   3.437  0.4411 -0.2277 -0.5778
  373MOL0     C50266  10.811   3.173   3.381  0.0402 -0.0187  0.1789
  373MOL0     C50267  10.932   3.128   3.428 -0.8126  0.6335 -0.1429
  373MOL0     O50268  11.333   3.190   3.320  0.5448 -0.0543 -0.1671
  373MOL0     C50269  11.344   2.937   3.573  0.6013 -0.6848 -0.2331
  373MOL0     C50270  11.425   2.862   3.658  0.2550  0.3382 -0.1581
  373MOL0     N50271  12.231   2.945   3.747 -0.4576 -0.0730  0.2296
  373MOL0     N50272  12.259   3.066   3.719  0.3448  0.0885 -0.5438
  373MOL0     C50273  11.384   3.728   3.433  0.0714 -0.0127 -0.1080
  373MOL0     C50274  11.270   3.790   3.383 -0.2283 -0.8693 -0.2211
  373MOL0     C50275  11.002   3.957   3.020  0.5234  0.1312 -0.0336
  373MOL0     C50276  10.996   4.030   2.900  0.0430 -0.0242 -0.4326
  373MOL0     C50277  10.874   4.072   2.853  0.0499 -0.4667 -0.0462
  373MOL0     C50278  10.746   4.049   2.913 -0.8443  0.4794 -1.4754
  373MOL0     O50279  10.629   4.102   2.877 -0.4516  0.0525 -1.3979
  373MOL0     C50280  10.623   4.160   2.750  0.0458  0.7245  0.9296
  373MOL0     C50281  10.478   4.212   2.708  0.7349  0.1786 -0.7812
  373MOL0     C50282  10.419   4.296   2.824 -0.2289  0.7150 -0.2453
  373MOL0     C50283  10.277   4.334   2.804  0.3361 -0.5690 -0.0255
  373MOL0     C50284  10.227   4.438   2.908  0.2155  0.1258 -0.0971
  373MOL0     C50285  10.154   4.510   2.975  0.4650  0.2972  0.1763
  373MOL0     C50286  10.751   3.982   3.040  0.2633  0.6193  0.5729
  373MOL0     C50287  10.875   3.942   3.097 -0.0724  0.4065  0.2299
  373MOL0     H50288  11.250   3.623   3.087  0.2100 -0.4719 -0.2400
  373MOL0     H50289  11.466   3.535   3.179  1.9922  2.1546 -1.3445
  373MOL0     H50290  11.642   3.759   3.502  0.5188 -0.4294  1.8772
  373MOL0     H50291  11.653   3.599   3.585  0.9583 -0.6878 -0.4961
  373MOL0     H50292  11.798   3.675   3.338  0.7910  0.5693 -0.0060
  373MOL0     H50293  11.854   3.684   3.515 -0.3488  1.1279 -0.2803
  373MOL0     H50294  11.841   3.451   3.524 -0.9016  0.7895  1.5147
  373MOL0     H50295  11.785   3.436   3.349  4.8825 -1.0280 -3.5656
  373MOL0     H50296  12.018   3.523   3.288 -1.8338 -1.9006 -1.0268
  373MOL0     H50297  12.069   3.542   3.460 -1.7071  1.9407 -0.1680
  373MOL0     H50298  11.989   3.281   3.319 -0.1278  0.8306 -0.7657
  373MOL0     H50299  12.154   3.337   3.340  0.8623 -1.2791  3.1031
  373MOL0     H50300  11.976   3.271   3.574  1.6856  3.6521  2.9753
  373MOL0     H50301  12.097   3.169   3.485  0.6469  1.5556 -1.7236
  373MOL0     H50302  12.279   3.280   3.564  0.1155  0.9466  0.5314
  373MOL0     H50303  12.180   3.432   3.588 -0.2619 -0.7501 -1.0087
  373MOL0     H50304  12.081   3.345   3.781  0.0064 -0.6534 -0.7953
  373MOL0     H50305  12.248   3.353   3.812 -2.2820  1.4468  1.7608
  373MOL0     H50306  11.999   3.119   3.897  0.1786  1.6417 -0.5868
  373MOL0     H50307  12.110   2.755   3.875 -0.9071 -0.9060 -0.1059
  373MOL0     H50308  11.998   2.853   3.980  1.1931 -0.6098  0.2087
  373MOL0     H50309  11.972   2.783   3.685 -2.1395 -1.2958 -1.3531
  373MOL0     H50310  11.867   2.896   3.769  3.6048  2.7367  0.9122
  373MOL0     H50311  11.809   2.710   3.933 -1.3173  0.0701  0.4386
  373MOL0     H50312  11.870   2.599   3.804  1.8010  1.2565  1.3335
  373MOL0     H50313  11.643   2.622   3.788  0.6705  0.1008  2.0580
  373MOL0     H50314  11.707   2.689   3.638  2.1754  1.6706  0.6894
  373MOL0     H50315  11.715   3.013   3.624  0.1262  0.5942  0.4174
  373MOL0     H50316  11.664   3.129   3.348  1.8200  0.6466  2.1068
  373MOL0     H50317  11.550   3.258   3.406 -0.5363  0.4070  2.2134
  373MOL0     H50318  11.698   3.219   3.485  3.2778 -1.7066 -2.9624
  373MOL0     H50319  11.150   3.259   3.203 -1.4861  2.5862 -2.4622
  373MOL0     H50320  10.923   3.312   3.091 -0.7202  0.9709  0.0426
  373MOL0     H50321  10.729   3.347   3.025 -0.3556 -0.3120  0.0031
  373MOL0     H50322  10.728   3.175   3.003  2.4995 -0.1436  1.8468
  373MOL0     H50323  10.529   3.290   2.907  0.4620  1.8680 -0.0664
  373MOL0     H50324  10.482   3.159   3.014  5.9358 -2.6057 -1.3018
  373MOL0     H50325  10.489   3.458   3.069  0.8305 -0.8975 -1.5934
  373MOL0     H50326  10.448   3.341   3.202 -0.8683  1.7209  0.4898
  373MOL0     H50327  10.298   3.410   2.947 -0.8601  2.1431  0.3517
  373MOL0     H50328  10.250   3.266   3.037 -1.4229  1.3502 -0.9159
  373MOL0     H50329  10.138   3.486   3.061  1.8850  2.8669  1.0067
  373MOL0     H50330  10.280   3.549   3.136 -1.1557  1.1639 -1.6898
  373MOL0     H50331  10.154   3.287   3.249 -0.3450 -0.0686 -1.1124
  373MOL0     H50332  10.249   3.414   3.334 -2.2811  3.0991  2.5936
  373MOL0     H50333  10.005   3.435   3.410 -0.2615 -3.7219 -0.8678
  373MOL0     H50334   9.961   3.465   3.242  0.5053  0.4555 -0.7710
  373MOL0     H50335  10.081   3.664   3.234  0.3261 -1.5063 -1.3673
  373MOL0     H50336  10.170   3.641   3.384 -0.7636 -0.2477  0.5490
  373MOL0     H50337  10.716   3.145   3.426 -0.1563  1.2737  0.6097
  373MOL0     H50338  10.939   3.082   3.527 -4.4809  2.6657  1.2566
  373MOL0     H50339  11.237   2.919   3.563  0.5601  0.6372 -3.3195
  373MOL0     H50340  11.383   2.778   3.713 -0.4318  0.0490 -1.0965
  373MOL0     H50341  11.432   3.761   3.525  2.2812  0.3674 -1.3122
  373MOL0     H50342  11.205   3.859   3.436  0.6721 -0.9206  0.9847
  373MOL0     H50343  11.080   4.044   2.832  0.4459 -2.8063 -0.6102
  373MOL0     H50344  10.867   4.128   2.761 -3.8798 -1.6564 -0.6338
  373MOL0     H50345  10.685   4.250   2.754 -3.8937  3.6729  3.3638
  373MOL0     H50346  10.649   4.095   2.666 -1.3234 -0.5721  1.4733
  373MOL0     H50347  10.415   4.125   2.686  1.3908 -0.4505 -0.2106
  373MOL0     H50348  10.490   4.276   2.620  1.3031  1.4649  0.2007
  373MOL0     H50349  10.484   4.384   2.828 -0.1221  0.9041 -3.4765
  373MOL0     H50350  10.426   4.250   2.923 -2.5510  2.7767  0.9976
  373MOL0     H50351  10.210   4.248   2.810  2.1261 -2.0787 -0.6935
  373MOL0     H50352  10.269   4.382   2.706  0.9272 -2.6323 -1.1393
  373MOL0     H50353  10.097   4.573   3.041 -2.0138  0.2543 -1.7970
  373MOL0     H50354  10.662   3.953   3.096  1.1963 -0.6704  1.4563
  373MOL0     H50355  10.882   3.892   3.193  2.8591 -0.0122 -0.1135
  374MOL0     O50356   6.440   1.130   9.847 -1.0154 -0.1231 -0.0081
  374MOL0     C50357   6.492   1.113   9.737  0.0128 -0.7071  0.9035
  374MOL0     O50358   6.532   0.985   9.694  0.0461 -0.9980 -0.0363
  374MOL0     C50359   6.500   0.878   9.770 -0.1371 -0.3466  0.0476
  374MOL0     C50360   6.599   0.800   9.831  0.6090  0.5395 -0.6575
  374MOL0     C50361   6.570   0.695   9.920  0.0560  1.4117  0.1652
  374MOL0     C50362   6.442   0.655   9.948 -1.0276 -0.0456  0.7631
  374MOL0     O50363   6.404   0.545  10.020 -0.0258  0.5476 -0.2595
  374MOL0     C50364   6.501   0.479  10.093  0.0482 -0.0958  0.5124
  374MOL0     C50365   6.441   0.386  10.195 -0.2826 -0.3565 -0.1721
  374MOL0     C50366   6.371   0.279  10.121  0.6453  0.3106  0.3614
  374MOL0     C50367   6.275   0.183  10.208  0.6196 -0.6129  0.0919
  374MOL0     C50368   6.141   0.248  10.245  0.1574  0.2675 -0.0492
  374MOL0     C50369   6.040   0.247  10.124 -0.2631 -1.3926 -0.2968
  374MOL0     C50370   5.888   0.253  10.160  0.0229  0.8717  0.4941
  374MOL0     C50371   5.804   0.275  10.032 -0.7083  0.3640 -0.3957
  374MOL0     N50372   5.672   0.222  10.011 -0.3602 -0.2182  0.0819
  374MOL0     C50373   5.568   0.302   9.970  0.5388 -0.9087 -0.3504
  374MOL0     C50374   5.474   0.213   9.927  0.9361  0.5702  0.0640
  374MOL0     C50375   5.340   0.252   9.860 -0.0702 -0.4871 -0.1355
  374MOL0     C50376   5.210   0.173   9.896 -0.7584 -0.1572 -0.3572
  374MOL0     C50377   5.168   0.193  10.045  0.3429  0.2158 -1.0800
  374MOL0     C50378   5.026   0.149  10.081 -0.1534  0.7063  0.7530
  374MOL0     O50379   5.011   0.166  10.222  0.7699  0.2655 -0.1661
  374MOL0     C50380   4.933   0.073  10.278 -0.6616 -0.7367 -0.4670
  374MOL0     C50381   4.806   0.115  10.325  0.7212 -0.0182  0.2949
  374MOL0     C50382   4.720   0.019  10.392 -1.3092  0.1366 -0.2981
  374MOL0     C50383   4.583   0.072  10.424  0.0942 -0.2109  0.3840
  374MOL0     C50384   4.773  -0.117  10.416  0.4402 -0.9304 -0.8307
  374MOL0     C50385   4.684  -0.225  10.461  0.1985 -0.7557 -0.2919
  374MOL0     O50386   4.562  -0.200  10.522 -0.0714  0.1716  0.1172
  374MOL0     C50387   4.505  -0.298  10.605 -0.4315  0.5790  0.1861
  374MOL0     C50388   4.572  -0.405  10.670  1.1469  0.1695 -0.2361
  374MOL0     C50389   4.509  -0.505  10.736 -0.4697  0.2327 -0.2108
  374MOL0     C50390   4.370  -0.500  10.749 -0.0259 -0.0039 -0.6588
  374MOL0     O50391   4.309  -0.598  10.811  0.6804  0.0690  0.5005
  374MOL0     C50392   4.341  -0.652  10.935 -0.6834  0.5877 -0.0313
  374MOL0     C50393   4.205  -0.707  10.980  0.6447  0.1650 -0.2475
  374MOL0     C50394   4.209  -0.785  11.116 -0.5385 -0.9893  0.2493
  374MOL0     C50395   4.259  -0.921  11.102  1.0634  0.7410 -0.4180
  374MOL0     C50396   4.167  -1.013  11.023  0.1859 -0.1992  0.1072
  374MOL0     C50397   4.233  -1.152  10.998  0.8666 -0.0328 -0.0980
  374MOL0     C50398   4.171  -1.263  11.089  0.4051 -0.0333  0.4295
  374MOL0     C50399   4.047  -1.329  11.025 -0.3086  0.7982  0.3097
  374MOL0    Cl50400   3.979  -1.455  11.131 -0.0561 -0.1065 -0.2139
  374MOL0     C50401   4.304  -0.393  10.697 -0.5106  0.2164 -0.6026
  374MOL0     C50402   4.367  -0.300  10.618 -0.8353 -0.6027 -0.1019
  374MOL0     O50403   4.726  -0.337  10.432 -0.2838 -0.1867  0.0158
  374MOL0     C50404   4.898  -0.142  10.379 -0.8822  0.3836  0.5159
  374MOL0     C50405   4.985  -0.052  10.317  0.0163 -0.5943  0.2544
  374MOL0     N50406   5.523   0.082   9.960 -0.0888 -0.3328  0.4127
  374MOL0     N50407   5.651   0.092   9.987 -0.6021 -0.6004 -0.1286
  374MOL0     C50408   6.343   0.721   9.875  0.5441  1.0346 -0.1368
  374MOL0     C50409   6.370   0.832   9.800 -0.9067 -1.0591  0.6746
  374MOL0     C50410   6.494   1.235   9.646 -0.1574  0.7643  0.1456
  374MOL0     C50411   6.469   1.366   9.681  0.1949  0.1833 -0.5923
  374MOL0     C50412   6.481   1.475   9.601 -0.2926  0.8528  0.8814
  374MOL0     C50413   6.545   1.459   9.474  0.0936  0.5956  0.6153
  374MOL0     O50414   6.577   1.572   9.408  0.2143  0.4508  0.1110
  374MOL0     C50415   6.698   1.574   9.325 -0.8110  0.0230  0.1915
  374MOL0     C50416   6.812   1.543   9.421 -1.1169 -0.1144  0.0829
  374MOL0     C50417   6.834   1.651   9.524  0.3581 -0.9981  0.3532
  374MOL0     C50418   6.891   1.592   9.651 -0.2924 -0.6074  0.3780
  374MOL0     C50419   6.951   1.692   9.740 -0.3561 -0.1759 -0.2720
  374MOL0     C50420   6.996   1.771   9.815 -0.0993 -0.5882 -0.3914
  374MOL0     C50421   6.573   1.326   9.433  0.0569  0.4809 -0.0172
  374MOL0     C50422   6.544   1.212   9.515 -0.1212 -0.3225  0.0359
  374MOL0     H50423   6.703   0.828   9.817  0.4695  1.4808  0.1294
  374MOL0     H50424   6.648   0.642   9.974 -1.6507 -2.2760 -0.6750
  374MOL0     H50425   6.563   0.421  10.024 -1.9240 -1.9343  0.1575
  374MOL0     H50426   6.557   0.544  10.160 -0.7634  0.3944  0.7288
  374MOL0     H50427   6.516   0.345  10.265 -1.4347 -1.4807  0.4546
  374MOL0     H50428   6.364   0.439  10.251  0.4340 -0.6652  1.1523
  374MOL0     H50429   6.309   0.318  10.040  0.2126  0.5992  0.8301
  374MOL0     H50430   6.457   0.220  10.087  2.2894  3.1621 -0.7936
  374MOL0     H50431   6.253   0.097  10.145 -0.4439  0.4461 -1.0385
  374MOL0     H50432   6.333   0.158  10.297  0.0017 -1.3293  0.2951
  374MOL0     H50433   6.104   0.185  10.327  3.5921 -0.3664  1.1594
  374MOL0     H50434   6.157   0.348  10.286  0.9739  0.8679 -1.7375
  374MOL0     H50435   6.051   0.339  10.065 -3.1592  2.1019  3.9816
  374MOL0     H50436   6.061   0.166  10.054 -0.5518  0.3992 -2.6154
  374MOL0     H50437   5.867   0.155  10.203  1.1261  0.3480 -0.1087
  374MOL0     H50438   5.852   0.319  10.239 -4.6204 -2.3586  1.4333
  374MOL0     H50439   5.868   0.251   9.947  2.0136  2.2691  0.9731
  374MOL0     H50440   5.794   0.383  10.018 -0.3713  0.2450 -1.6120
  374MOL0     H50441   5.562   0.408   9.951 -2.0682 -1.3330 -2.4676
  374MOL0     H50442   5.300   0.348   9.893  1.7832  1.0068 -1.9615
  374MOL0     H50443   5.355   0.252   9.752  2.7988  0.1893  0.1857
  374MOL0     H50444   5.224   0.065   9.886  0.0956  0.0311 -1.3755
  374MOL0     H50445   5.136   0.202   9.821 -0.6466 -0.0092 -0.4122
  374MOL0     H50446   5.192   0.297  10.069 -0.0766  0.0847 -0.0512
  374MOL0     H50447   5.239   0.136  10.107 -0.1611 -1.9195 -2.3679
  374MOL0     H50448   5.024   0.045  10.045  0.4480  0.8994  0.1392
  374MOL0     H50449   4.957   0.212  10.024  1.1397  1.1772 -0.3426
  374MOL0     H50450   4.780   0.218  10.302 -1.3708  0.2493  3.2979
  374MOL0     H50451   4.561   0.172  10.384  1.8079 -0.1626 -0.5405
  374MOL0     H50452   4.505   0.005  10.389  1.0179 -0.7957 -0.5997
  374MOL0     H50453   4.589   0.080  10.533  4.1202 -0.8632  0.3494
  374MOL0     H50454   4.677  -0.424  10.648  0.6485 -1.1073 -1.7187
  374MOL0     H50455   4.574  -0.581  10.777 -0.0572  1.6247  1.8881
  374MOL0     H50456   4.415  -0.727  10.906  0.2593  1.1528  0.8118
  374MOL0     H50457   4.373  -0.584  11.014 -2.1422 -1.1289  2.1581
  374MOL0     H50458   4.141  -0.621  11.001  0.9019  0.3682 -0.2988
  374MOL0     H50459   4.156  -0.769  10.904 -0.9402  1.8848 -0.6801
  374MOL0     H50460   4.111  -0.780  11.164 -0.0207  4.1484  1.3761
  374MOL0     H50461   4.275  -0.728  11.183  0.8302 -2.1042 -0.1013
  374MOL0     H50462   4.361  -0.920  11.063  0.5608  0.9196 -1.7862
  374MOL0     H50463   4.273  -0.968  11.200 -1.6165  0.6041 -0.0351
  374MOL0     H50464   4.145  -0.970  10.925 -1.4484  2.5042  1.5398
  374MOL0     H50465   4.071  -1.017  11.074  1.1812 -2.0764  1.9684
  374MOL0     H50466   4.232  -1.177  10.892  4.2248  0.1578 -0.2913
  374MOL0     H50467   4.339  -1.146  11.024  1.3669 -0.5937 -1.8924
  374MOL0     H50468   4.154  -1.228  11.192  0.7794  2.2994 -0.2437
  374MOL0     H50469   4.238  -1.348  11.105  0.1169  0.2273  3.7117
  374MOL0     H50470   4.066  -1.368  10.925  0.5495  1.8642  0.0436
  374MOL0     H50471   3.979  -1.243  11.020 -1.1953  0.0977 -0.0551
  374MOL0     H50472   4.196  -0.398  10.698 -0.4853 -0.4673  1.5019
  374MOL0     H50473   4.302  -0.222  10.580 -0.6218 -0.1434  0.4584
  374MOL0     H50474   4.948  -0.235  10.407  3.5859  2.3382 -0.2142
  374MOL0     H50475   5.087  -0.083  10.297  1.5379  2.9354  1.7425
  374MOL0     H50476   6.239   0.687   9.875  0.9616 -0.3036  0.1195
  374MOL0     H50477   6.292   0.892   9.754  0.9980 -0.3617 -1.9045
  374MOL0     H50478   6.440   1.390   9.783 -2.0184  0.5951 -1.2594
  374MOL0     H50479   6.457   1.576   9.632 -0.2883  1.0271  0.3414
  374MOL0     H50480   6.699   1.506   9.239  2.3609  1.7964 -1.3777
  374MOL0     H50481   6.703   1.671   9.274  1.0852 -0.7269 -1.1525
  374MOL0     H50482   6.914   1.538   9.379 -0.6375 -0.5660  1.2622
  374MOL0     H50483   6.790   1.449   9.473  0.2447  0.0788  1.0804
  374MOL0     H50484   6.737   1.699   9.541 -0.6544 -2.7055 -0.3267
  374MOL0     H50485   6.899   1.727   9.480  1.2979 -1.2743  1.2318
  374MOL0     H50486   6.973   1.522   9.638 -2.3411 -3.5199  1.9783
  374MOL0     H50487   6.813   1.543   9.710 -1.4538 -0.4186 -0.9501
  374MOL0     H50488   7.029   1.847   9.884  0.5044 -0.0009 -1.3088
  374MOL0     H50489   6.612   1.310   9.332  1.7947  1.3834  0.4648
  374MOL0     H50490   6.563   1.110   9.482 -0.8550 -1.0314  1.7251
  375MOL0     O50491   7.109  10.125   6.242  0.9065 -0.0007  0.0905
  375MOL0     C50492   7.155  10.079   6.348  0.4668 -0.4828 -0.7400
  375MOL0     O50493   7.090   9.985   6.429  0.0429  0.6822 -0.4450
  375MOL0     C50494   6.963   9.963   6.417 -0.0337  0.1374 -0.2284
  375MOL0     C50495   6.915   9.846   6.363  0.8035 -0.3972  0.5081
  375MOL0     C50496   6.779   9.814   6.367  0.5913  0.6940 -1.1374
  375MOL0     C50497   6.685   9.900   6.429 -0.5209 -0.0217 -0.5204
  375MOL0     O50498   6.547   9.887   6.455 -0.4662  0.2259 -0.4212
  375MOL0     C50499   6.462   9.815   6.357 -0.5446 -0.7338  1.4919
  375MOL0     C50500   6.329   9.775   6.417  0.0154  0.3008  0.0736
  375MOL0     C50501   6.347   9.715   6.557 -0.6249  1.0247  0.4437
  375MOL0     C50502   6.409   9.569   6.548  0.8132  0.6200  1.2823
  375MOL0     C50503   6.484   9.519   6.671 -1.0559  0.3915  0.3671
  375MOL0     C50504   6.615   9.594   6.692  0.7463  0.2740  1.4910
  375MOL0     C50505   6.690   9.535   6.819  0.4496 -0.4615  0.2134
  375MOL0     C50506   6.839   9.491   6.797 -0.6510  0.4664  0.1186
  375MOL0     N50507   6.885   9.373   6.880 -0.9163  0.4762  0.3129
  375MOL0     C50508   6.889   9.249   6.822  0.8773 -0.6005 -0.0417
  375MOL0     C50509   6.932   9.175   6.924  0.1957 -0.3664  0.7650
  375MOL0     C50510   6.973   9.031   6.907 -1.1931 -0.4666 -0.2891
  375MOL0     C50511   6.871   8.940   6.969 -1.1010  0.1625  0.4017
  375MOL0     C50512   6.916   8.793   6.944 -0.3785  0.3771 -0.0833
  375MOL0     C50513   6.812   8.701   6.990 -0.3672 -0.0113  0.1257
  375MOL0     O50514   6.822   8.682   7.134  0.6690  0.0896 -0.1511
  375MOL0     C50515   6.722   8.623   7.206 -0.3899 -0.4960  0.5594
  375MOL0     C50516   6.717   8.663   7.337 -0.4203 -0.0987 -0.2028
  375MOL0     C50517   6.623   8.605   7.432  0.4232  0.4263 -0.2526
  375MOL0     C50518   6.638   8.630   7.579  0.3623 -0.6615 -0.3738
  375MOL0     C50519   6.532   8.514   7.380  0.4172  0.2769 -0.0956
  375MOL0     C50520   6.422   8.442   7.456 -1.1043  0.5521 -1.2648
  375MOL0     O50521   6.365   8.332   7.397  0.0477  0.0886 -0.1065
  375MOL0     C50522   6.270   8.257   7.458  0.0604 -0.0938 -1.2479
  375MOL0     C50523   6.188   8.169   7.380 -0.1479  0.2472 -0.6191
  375MOL0     C50524   6.091   8.091   7.437 -0.5151 -0.5425  0.2071
  375MOL0     C50525   6.068   8.092   7.578 -0.2369  0.1636  0.3799
  375MOL0     O50526   5.954   8.021   7.626 -0.6449  0.5260  0.6037
  375MOL0     C50527   5.948   7.978   7.760  0.6771  0.2197  0.9384
  375MOL0     C50528   5.814   7.893   7.779  0.0867  0.0073 -0.3969
  375MOL0     C50529   5.792   7.776   7.682 -0.1829  0.5478  0.6032
  375MOL0     C50530   5.886   7.658   7.692 -0.0128 -0.0577 -0.4553
  375MOL0     C50531   5.831   7.526   7.634 -0.1702  0.0951 -0.1663
  375MOL0     C50532   5.815   7.528   7.478  0.0396  0.9983 -0.0297
  375MOL0     C50533   5.776   7.381   7.432  0.2658 -0.8319  0.6827
  375MOL0     C50534   5.751   7.369   7.284  0.3942  0.1182  0.5188
  375MOL0    Cl50535   5.897   7.373   7.181  0.1125 -0.2419 -0.4692
  375MOL0     C50536   6.145   8.182   7.649  0.7661 -0.5787  0.1230
  375MOL0     C50537   6.243   8.264   7.597  0.6185 -1.7226  0.5880
  375MOL0     O50538   6.381   8.502   7.552  0.0519  0.9967 -0.8750
  375MOL0     C50539   6.541   8.487   7.239  0.4701  0.3345  0.0558
  375MOL0     C50540   6.628   8.543   7.150  0.3965 -0.8334 -0.4268
  375MOL0     N50541   6.962   9.262   7.032 -0.5415  0.1768 -1.4296
  375MOL0     N50542   6.918   9.384   7.009 -0.2368 -0.9048  0.5032
  375MOL0     C50543   6.736  10.029   6.475 -0.3689 -0.1281 -0.0719
  375MOL0     C50544   6.868  10.060   6.460 -0.6843 -0.1697 -0.0734
  375MOL0     C50545   7.296  10.111   6.378 -0.2392  0.1698 -0.0166
  375MOL0     C50546   7.367  10.016   6.458  0.4684  0.2193 -0.5599
  375MOL0     C50547   7.507  10.028   6.476  0.4828 -0.8228  0.2716
  375MOL0     C50548   7.576  10.127   6.418 -0.5513 -0.4020  0.2564
  375MOL0     O50549   7.712  10.151   6.444 -0.0070 -0.3070  0.0426
  375MOL0     C50550   7.794  10.056   6.504 -1.0489  0.6420  0.1273
  375MOL0     C50551   7.913  10.137   6.573  0.2299 -0.3052  0.8362
  375MOL0     C50552   8.028  10.064   6.625  0.2762 -0.9121  0.3942
  375MOL0     C50553   8.143  10.142   6.693  1.2050  0.3969  1.1606
  375MOL0     C50554   8.273  10.067   6.697  0.1327 -0.2009 -0.0832
  375MOL0     C50555   8.374  10.007   6.710  0.2130 -1.0068 -0.4917
  375MOL0     C50556   7.498  10.221   6.337 -0.0606  0.3773  0.0599
  375MOL0     C50557   7.361  10.214   6.319 -1.0613  0.2703 -1.2941
  375MOL0     H50558   6.988   9.777   6.323  0.6648  0.7060 -1.8092
  375MOL0     H50559   6.752   9.714   6.333 -3.2153  0.5340  1.6653
  375MOL0     H50560   6.445   9.874   6.266 -1.8752 -3.2252  0.0029
  375MOL0     H50561   6.511   9.724   6.320  0.1696  1.4058 -3.7488
  375MOL0     H50562   6.267   9.865   6.427 -0.8682 -0.5411  3.8161
  375MOL0     H50563   6.281   9.704   6.349  1.8437 -0.1034 -0.8385
  375MOL0     H50564   6.422   9.777   6.607  0.5965 -1.5735  2.0548
  375MOL0     H50565   6.253   9.723   6.614  0.6522  1.5446  2.5931
  375MOL0     H50566   6.327   9.501   6.520 -0.0969  0.1625  4.6063
  375MOL0     H50567   6.473   9.563   6.460 -1.1349 -0.3075 -0.1724
  375MOL0     H50568   6.419   9.527   6.758 -2.7084 -1.5312 -0.6170
  375MOL0     H50569   6.504   9.411   6.672 -0.0667  0.5629  0.0059
  375MOL0     H50570   6.678   9.583   6.603 -0.7206  2.3678  0.1048
  375MOL0     H50571   6.582   9.697   6.709 -0.4708  0.4374 -1.4024
  375MOL0     H50572   6.695   9.608   6.901  0.7924 -2.1258  1.7220
  375MOL0     H50573   6.639   9.446   6.855  0.6061 -0.5716  0.1626
  375MOL0     H50574   6.905   9.575   6.821  0.4643 -0.2574 -0.3784
  375MOL0     H50575   6.846   9.468   6.691  0.5009  0.1033  0.2629
  375MOL0     H50576   6.854   9.214   6.725 -0.5217 -4.1218  1.5896
  375MOL0     H50577   6.986   9.007   6.802  3.3138 -2.1397  0.4195
  375MOL0     H50578   7.070   9.009   6.955 -1.3531  1.4410  1.0264
  375MOL0     H50579   6.776   8.960   6.919 -1.8275 -2.2922  0.6763
  375MOL0     H50580   6.852   8.965   7.073 -4.2201  2.3719 -0.5451
  375MOL0     H50581   7.004   8.782   7.007 -0.5290  4.3388  1.1012
  375MOL0     H50582   6.940   8.773   6.840  0.5042 -0.4817  0.2712
  375MOL0     H50583   6.841   8.609   6.939  1.0913  0.5321 -0.0560
  375MOL0     H50584   6.709   8.713   6.955 -0.2329  3.8196  0.6720
  375MOL0     H50585   6.781   8.744   7.369 -0.1808  0.5808 -2.2751
  375MOL0     H50586   6.561   8.706   7.597  0.9236 -0.5498  1.8632
  375MOL0     H50587   6.624   8.541   7.639  0.4454  0.7774  1.8930
  375MOL0     H50588   6.737   8.672   7.600  0.4211 -0.9059 -0.1655
  375MOL0     H50589   6.193   8.158   7.272 -0.5191 -1.7871 -0.4758
  375MOL0     H50590   6.043   8.013   7.379  0.4270  0.1419 -1.5530
  375MOL0     H50591   6.027   7.905   7.784 -2.0740 -3.1760  0.4730
  375MOL0     H50592   5.948   8.063   7.828  2.1008  0.9015  0.1392
  375MOL0     H50593   5.816   7.850   7.880  1.3268 -0.3052 -0.5385
  375MOL0     H50594   5.729   7.962   7.773  0.1591  0.1594  0.2862
  375MOL0     H50595   5.803   7.815   7.581 -2.3121 -0.7973 -0.2052
  375MOL0     H50596   5.687   7.747   7.689  0.6582 -3.7332 -1.4466
  375MOL0     H50597   5.976   7.679   7.634 -0.0012  1.5044  0.0921
  375MOL0     H50598   5.918   7.651   7.796  2.7452  1.4109 -1.1228
  375MOL0     H50599   5.731   7.519   7.677  0.4633 -1.0394  1.2168
  375MOL0     H50600   5.894   7.444   7.670  2.3477  0.9493 -2.2845
  375MOL0     H50601   5.743   7.607   7.457 -2.2201 -0.5179  1.5018
  375MOL0     H50602   5.912   7.546   7.431  0.5907 -1.4604 -0.0083
  375MOL0     H50603   5.688   7.344   7.486 -0.7644 -1.0359 -1.0688
  375MOL0     H50604   5.867   7.322   7.446  0.3649 -1.2915 -1.5405
  375MOL0     H50605   5.677   7.446   7.262 -0.1652 -0.8514 -1.2430
  375MOL0     H50606   5.700   7.272   7.271 -0.9477  0.9883 -1.1679
  375MOL0     H50607   6.118   8.192   7.754  1.9984 -2.3809  0.6477
  375MOL0     H50608   6.304   8.328   7.658  2.4863 -1.5300 -1.3579
  375MOL0     H50609   6.464   8.422   7.199  1.1864 -0.2769 -0.3640
  375MOL0     H50610   6.630   8.496   7.052  4.0193  0.9383 -1.3779
  375MOL0     H50611   6.676  10.111   6.512  3.1339  1.9854  1.4392
  375MOL0     H50612   6.919  10.150   6.493  0.9822 -0.3353 -2.0103
  375MOL0     H50613   7.317   9.929   6.498  3.1321 -1.4308 -0.5310
  375MOL0     H50614   7.557   9.946   6.525  1.3623  0.8965  2.4109
  375MOL0     H50615   7.738  10.011   6.587 -1.4524 -0.6324 -0.7834
  375MOL0     H50616   7.834   9.975   6.442 -0.8853 -1.4163  2.7166
  375MOL0     H50617   7.872  10.183   6.663  1.6845  3.1308 -0.0812
  375MOL0     H50618   7.947  10.214   6.503 -0.4007  0.9367  1.8646
  375MOL0     H50619   8.074  10.009   6.542  1.3004 -1.3880  1.2611
  375MOL0     H50620   7.990   9.990   6.696 -1.2524 -0.5645 -0.0352
  375MOL0     H50621   8.108  10.162   6.795 -2.9193  0.7648 -0.1603
  375MOL0     H50622   8.152  10.244   6.653  3.3308  0.7769  2.4186
  375MOL0     H50623   8.463   9.956   6.740 -0.6340 -2.6665 -0.6647
  375MOL0     H50624   7.541  10.307   6.286 -0.6459 -1.3215 -3.6838
  375MOL0     H50625   7.307  10.299   6.278 -1.9757  0.1995 -0.2764
  376MOL0     O50626   1.790   7.450   4.520 -0.4900 -0.2227 -0.0860
  376MOL0     C50627   1.798   7.553   4.587 -0.4311 -0.2615  0.7195
  376MOL0     O50628   1.690   7.620   4.635 -0.4405 -0.2819 -0.4397
  376MOL0     C50629   1.575   7.545   4.649 -0.0675 -0.9266 -0.2975
  376MOL0     C50630   1.572   7.416   4.712  0.5593 -0.6072 -0.8076
  376MOL0     C50631   1.451   7.347   4.730  0.0821 -0.8425  0.0016
  376MOL0     C50632   1.336   7.402   4.677 -0.2227 -0.4967 -0.1450
  376MOL0     O50633   1.217   7.336   4.673  0.3552  0.3473 -0.4373
  376MOL0     C50634   1.227   7.190   4.676 -0.6096  0.2348  0.5953
  376MOL0     C50635   1.187   7.134   4.803 -0.0146  0.7278 -0.7382
  376MOL0     C50636   1.038   7.157   4.834  0.4334 -0.4622 -0.4335
  376MOL0     C50637   0.999   7.102   4.970  0.1810  0.7981 -0.1928
  376MOL0     C50638   0.890   7.187   5.038 -0.3169  1.2845 -0.0001
  376MOL0     C50639   0.761   7.216   4.951 -0.7503  0.6644 -0.3306
  376MOL0     C50640   0.690   7.085   4.906 -1.0185 -0.1684  0.8877
  376MOL0     C50641   0.550   7.125   4.856  0.0260  0.5227 -0.2919
  376MOL0     N50642   0.470   7.194   4.961 -1.0210 -0.5027 -0.1574
  376MOL0     C50643   0.439   7.330   4.969  0.6667 -0.1031  0.3568
  376MOL0     C50644   0.395   7.368   5.095  0.3850  0.9324  0.3490
  376MOL0     C50645   0.356   7.500   5.154 -0.3381  0.4997  1.2504
  376MOL0     C50646   0.477   7.592   5.156  0.5669 -0.1593  1.0028
  376MOL0     C50647   0.447   7.726   5.228 -0.4001 -0.0479  0.4877
  376MOL0     C50648   0.316   7.804   5.204  0.4343  0.4230  0.2135
  376MOL0     O50649   0.333   7.924   5.275 -0.1983  0.0059  0.2784
  376MOL0     C50650   0.223   7.997   5.318  0.1931 -0.2241 -0.2396
  376MOL0     C50651   0.113   8.025   5.236 -0.6303  0.3327  0.1764
  376MOL0     C50652   0.014   8.116   5.284 -0.4897  0.4850 -0.2291
  376MOL0     C50653  -0.093   8.156   5.188  0.5912 -0.0204 -0.2843
  376MOL0     C50654   0.018   8.166   5.416  0.5195 -0.1042  0.0271
  376MOL0     C50655  -0.086   8.234   5.480  0.2008  0.1320  0.4798
  376MOL0     O50656  -0.197   8.171   5.478  0.2981  0.4847  0.0048
  376MOL0     C50657  -0.302   8.208   5.553  0.5632 -0.0871 -0.2108
  376MOL0     C50658  -0.403   8.297   5.506  0.6642  0.5839  0.2536
  376MOL0     C50659  -0.513   8.321   5.587  0.0798  0.4296  1.1640
  376MOL0     C50660  -0.520   8.280   5.722 -0.7775 -0.3878  0.6789
  376MOL0     O50661  -0.619   8.316   5.806  0.3712  0.4018 -0.1516
  376MOL0     C50662  -0.713   8.410   5.762 -0.3695 -0.3843  0.4827
  376MOL0     C50663  -0.828   8.404   5.863 -0.5048  0.9774  0.2198
  376MOL0     C50664  -0.862   8.540   5.930 -0.3151 -0.2702 -0.0160
  376MOL0     C50665  -0.983   8.544   6.016  0.5627 -0.1549  0.0660
  376MOL0     C50666  -1.020   8.676   6.081 -0.1089  0.3173  0.1914
  376MOL0     C50667  -1.126   8.642   6.181 -0.4106 -0.3037  0.3158
  376MOL0     C50668  -1.200   8.763   6.237 -0.0256  0.1247 -0.0874
  376MOL0     C50669  -1.288   8.702   6.351 -0.7071  0.0230 -0.3298
  376MOL0    Cl50670  -1.188   8.650   6.492  0.4041 -0.1524  0.0475
  376MOL0     C50671  -0.423   8.205   5.774  0.0076  0.8589 -0.1405
  376MOL0     C50672  -0.315   8.166   5.688  1.2793  0.9097  0.0090
  376MOL0     O50673  -0.056   8.335   5.542  0.8541 -0.8934 -0.9677
  376MOL0     C50674   0.128   8.135   5.502  0.0867 -0.1866 -0.1879
  376MOL0     C50675   0.228   8.056   5.445  0.1888 -0.3275  0.2873
  376MOL0     N50676   0.412   7.243   5.164  0.5300  0.2830 -0.1314
  376MOL0     N50677   0.448   7.146   5.080  0.8596  1.0484  0.0075
  376MOL0     C50678   1.338   7.527   4.610 -0.3476 -0.3431  1.0328
  376MOL0     C50679   1.457   7.593   4.598  0.0474 -0.0216  0.6722
  376MOL0     C50680   1.932   7.618   4.608 -0.1288 -0.5648 -0.1665
  376MOL0     C50681   2.046   7.561   4.554  0.3872 -0.7098 -1.0365
  376MOL0     C50682   2.176   7.622   4.578 -0.2493 -1.0849  0.6411
  376MOL0     C50683   2.182   7.744   4.645  0.1074 -0.0930  0.0635
  376MOL0     O50684   2.309   7.796   4.650 -0.1088 -0.4363  0.0710
  376MOL0     C50685   2.318   7.936   4.696  0.8459  0.0987 -0.1295
  376MOL0     C50686   2.468   7.980   4.716  0.2452 -0.5073  0.4136
  376MOL0     C50687   2.523   7.988   4.570 -0.3792  0.3513 -0.6098
  376MOL0     C50688   2.666   8.037   4.563 -0.3720 -0.0271 -0.4696
  376MOL0     C50689   2.662   8.181   4.598 -1.0529 -0.1779  0.8207
  376MOL0     C50690   2.687   8.302   4.620  0.0733  0.1678  0.1382
  376MOL0     C50691   2.060   7.801   4.692  0.1940  0.0213 -0.4494
  376MOL0     C50692   1.939   7.739   4.681  1.3767 -0.5000  0.0765
  376MOL0     H50693   1.666   7.375   4.748  0.6365  0.6725  0.5577
  376MOL0     H50694   1.453   7.254   4.785 -1.0993  0.1494  1.8590
  376MOL0     H50695   1.155   7.152   4.603 -0.5959 -2.8640  2.0093
  376MOL0     H50696   1.324   7.147   4.649 -1.8710 -3.0225  0.7775
  376MOL0     H50697   1.200   7.026   4.812 -0.2645  0.8960  2.9407
  376MOL0     H50698   1.232   7.182   4.890 -3.2465 -0.8356  2.0223
  376MOL0     H50699   1.020   7.265   4.823 -0.1007 -0.2103  2.1968
  376MOL0     H50700   0.976   7.103   4.763  2.2753  0.9313 -3.2883
  376MOL0     H50701   0.966   6.999   4.954  1.0155  0.8863 -2.8735
  376MOL0     H50702   1.084   7.095   5.039  1.3120  0.1780 -1.5981
  376MOL0     H50703   0.869   7.134   5.131 -2.6760 -0.9835 -1.6679
  376MOL0     H50704   0.936   7.284   5.056  0.5636  1.7313 -3.7280
  376MOL0     H50705   0.692   7.287   4.998 -1.3874 -0.1162 -0.0705
  376MOL0     H50706   0.798   7.275   4.867 -0.3514  2.0370  0.7693
  376MOL0     H50707   0.753   7.042   4.827 -1.2861 -0.4229  0.8140
  376MOL0     H50708   0.678   7.020   4.993 -1.2499 -0.8176  0.3728
  376MOL0     H50709   0.497   7.038   4.817  0.0173  0.6718 -0.6162
  376MOL0     H50710   0.569   7.184   4.766  1.0663  0.7856  0.0787
  376MOL0     H50711   0.444   7.401   4.887  1.1857 -0.7204 -0.1672
  376MOL0     H50712   0.274   7.551   5.103  1.2118  2.6707  0.8277
  376MOL0     H50713   0.334   7.485   5.261  1.6354 -0.1001  1.6182
  376MOL0     H50714   0.502   7.617   5.052  1.3091  1.0398  1.4395
  376MOL0     H50715   0.560   7.542   5.208 -1.2572 -3.4295  0.9911
  376MOL0     H50716   0.530   7.792   5.203  0.9610 -1.5417  0.8646
  376MOL0     H50717   0.459   7.705   5.335 -0.0740 -2.7307  0.0151
  376MOL0     H50718   0.234   7.744   5.245  0.6092 -0.6249 -0.9043
  376MOL0     H50719   0.290   7.808   5.098 -3.9419  0.3404  1.0999
  376MOL0     H50720   0.121   7.998   5.132  2.3085 -1.5299  0.7983
  376MOL0     H50721  -0.183   8.102   5.217  0.3492 -2.2638 -4.5055
  376MOL0     H50722  -0.098   8.265   5.194  2.6318  0.0570  1.0681
  376MOL0     H50723  -0.069   8.121   5.087 -1.1205  0.1036 -0.7665
  376MOL0     H50724  -0.401   8.347   5.410  1.6505  2.7415  1.3382
  376MOL0     H50725  -0.593   8.380   5.542  2.1729  1.5185 -1.4505
  376MOL0     H50726  -0.680   8.514   5.754 -1.4362 -0.0631  0.1046
  376MOL0     H50727  -0.752   8.379   5.665 -2.0828 -0.5087  1.1765
  376MOL0     H50728  -0.915   8.375   5.802  1.6320 -3.2040 -1.2502
  376MOL0     H50729  -0.810   8.326   5.937  1.5802  2.5786  1.5029
  376MOL0     H50730  -0.863   8.620   5.856  0.2117 -0.2019  0.0496
  376MOL0     H50731  -0.782   8.562   6.002  0.4745  0.4419 -1.0840
  376MOL0     H50732  -1.072   8.523   5.957 -0.6477 -1.9083  2.3553
  376MOL0     H50733  -0.977   8.464   6.090 -0.5189 -0.2908  0.0157
  376MOL0     H50734  -1.050   8.749   6.005 -0.7098  0.3426  0.4494
  376MOL0     H50735  -0.945   8.728   6.141  2.8043 -1.9075 -1.2463
  376MOL0     H50736  -1.206   8.584   6.134  1.4633 -2.1815 -0.7076
  376MOL0     H50737  -1.077   8.584   6.259 -0.7472 -0.4815  0.3999
  376MOL0     H50738  -1.256   8.808   6.155  1.1095 -0.6911 -1.3497
  376MOL0     H50739  -1.135   8.842   6.276  0.1435 -0.1021  0.0961
  376MOL0     H50740  -1.344   8.615   6.316  0.8060  0.8365 -5.4823
  376MOL0     H50741  -1.353   8.778   6.397 -1.7068  0.6090 -2.5928
  376MOL0     H50742  -0.431   8.154   5.870  1.3816  0.6130 -0.1283
  376MOL0     H50743  -0.239   8.099   5.728 -0.3231 -0.4254  0.9700
  376MOL0     H50744   0.143   8.164   5.606  0.7526  1.0231 -0.6061
  376MOL0     H50745   0.305   8.027   5.516  0.5816 -0.8611 -0.3446
  376MOL0     H50746   1.246   7.574   4.576  0.1525  0.9496  1.3929
  376MOL0     H50747   1.469   7.682   4.535 -0.9763 -1.0455 -1.0474
  376MOL0     H50748   2.033   7.464   4.507 -0.7803 -0.5413 -1.0747
  376MOL0     H50749   2.267   7.576   4.539  0.1081  0.4157 -0.3992
  376MOL0     H50750   2.264   7.998   4.623 -0.7736 -2.1836 -1.0245
  376MOL0     H50751   2.261   7.952   4.788  0.2226 -1.1569 -0.2717
  376MOL0     H50752   2.518   7.905   4.778  0.6070  1.6951  2.9537
  376MOL0     H50753   2.460   8.077   4.767 -0.7501  0.0888 -0.8141
  376MOL0     H50754   2.457   8.027   4.493  0.4938  0.1860 -1.4625
  376MOL0     H50755   2.528   7.881   4.546 -0.6304  0.0051  0.7849
  376MOL0     H50756   2.708   8.038   4.462  0.2534 -0.7446 -0.2309
  376MOL0     H50757   2.739   7.988   4.627  1.9681  2.7393 -0.8028
  376MOL0     H50758   2.714   8.405   4.621 -1.0225  0.4629  1.0324
  376MOL0     H50759   2.070   7.898   4.739  3.8381 -0.8244  0.8572
  376MOL0     H50760   1.855   7.791   4.726  2.1220  1.4433 -0.6573
  377MOL0     O50761  11.268   1.260   9.696  0.7599  0.0343 -0.7748
  377MOL0     C50762  11.224   1.260   9.581 -0.5544 -0.3121 -0.1155
  377MOL0     O50763  11.101   1.225   9.548  0.1961  0.2457  0.3629
  377MOL0     C50764  11.014   1.175   9.639  0.5190 -0.9528 -0.4320
  377MOL0     C50765  10.905   1.250   9.665 -0.2385 -1.3077 -0.1549
  377MOL0     C50766  10.809   1.206   9.746 -0.2548 -0.0327 -0.8858
  377MOL0     C50767  10.807   1.080   9.809 -0.9572 -0.4022 -0.4269
  377MOL0     O50768  10.692   1.030   9.861 -0.0944 -0.5008 -0.5471
  377MOL0     C50769  10.691   0.913   9.940 -0.4000 -0.5746  1.2048
  377MOL0     C50770  10.559   0.884   9.998  1.0549 -0.9402 -0.7132
  377MOL0     C50771  10.436   0.866   9.905  0.9054  0.3508  0.3613
  377MOL0     C50772  10.305   0.862   9.995  0.0806 -0.6656  0.5731
  377MOL0     C50773  10.185   0.866   9.912  0.8159 -0.1700 -1.0772
  377MOL0     C50774  10.151   0.999   9.836  0.0955 -0.2155 -0.3921
  377MOL0     C50775  10.126   1.124   9.924 -0.6867 -0.0369 -0.4195
  377MOL0     C50776  10.053   1.224   9.838 -0.8683 -0.4281  0.0449
  377MOL0     N50777  10.126   1.268   9.715  0.3164 -0.1766  0.1931
  377MOL0     C50778  10.239   1.343   9.714 -0.1552 -0.1491  0.1729
  377MOL0     C50779  10.264   1.356   9.581  0.6708 -0.3832  0.8607
  377MOL0     C50780  10.378   1.428   9.526  0.2406  0.8759  0.6536
  377MOL0     C50781  10.460   1.323   9.456  0.3714 -0.1015  0.1149
  377MOL0     C50782  10.591   1.384   9.406 -0.1245  0.5059  0.2262
  377MOL0     C50783  10.687   1.281   9.362  0.1782  0.2445 -0.1373
  377MOL0     O50784  10.804   1.348   9.317  0.3884 -0.3437 -0.4698
  377MOL0     C50785  10.885   1.307   9.217 -0.0590 -0.5645  1.1094
  377MOL0     C50786  10.968   1.403   9.170  0.7334  0.0371  0.3337
  377MOL0     C50787  11.054   1.381   9.063 -0.4753  0.2415 -0.1627
  377MOL0     C50788  11.128   1.493   9.006 -0.4958 -0.8968  0.3492
  377MOL0     C50789  11.062   1.250   9.006 -0.5786  0.0110 -0.1517
  377MOL0     C50790  11.165   1.214   8.901 -0.1808 -0.6913  0.8037
  377MOL0     O50791  11.194   1.317   8.823  0.3618 -0.2190 -1.1660
  377MOL0     C50792  11.305   1.328   8.741  0.4978  0.1300  0.5183
  377MOL0     C50793  11.372   1.451   8.729  0.2104  0.0608 -1.0975
  377MOL0     C50794  11.481   1.474   8.651 -0.8129 -0.7121 -0.4120
  377MOL0     C50795  11.538   1.371   8.585 -0.2595  0.1976  0.2443
  377MOL0     O50796  11.640   1.413   8.514 -0.4960  0.7894 -0.2838
  377MOL0     C50797  11.680   1.324   8.406  0.4904  0.0403 -0.0426
  377MOL0     C50798  11.827   1.344   8.361  0.8384  0.2741 -0.1174
  377MOL0     C50799  11.875   1.485   8.365 -0.0399 -1.2243  0.9668
  377MOL0     C50800  11.990   1.504   8.262 -0.1083  0.5353  0.2031
  377MOL0     C50801  12.063   1.639   8.274  0.0041 -0.0381 -0.4759
  377MOL0     C50802  11.965   1.744   8.215  0.7709  0.2510 -0.6492
  377MOL0     C50803  12.019   1.885   8.245 -0.5282  0.4884 -0.2509
  377MOL0     C50804  11.933   1.995   8.175 -0.5380  0.7752 -0.4397
  377MOL0    Cl50805  11.990   2.152   8.232 -0.5264  0.1220  0.0557
  377MOL0     C50806  11.482   1.239   8.596  0.3290  0.7646  0.0323
  377MOL0     C50807  11.365   1.222   8.670  0.3950 -0.2614 -0.8718
  377MOL0     O50808  11.219   1.105   8.902 -0.8825  0.7892 -0.7078
  377MOL0     C50809  10.978   1.150   9.060  0.4978  0.0901 -0.2424
  377MOL0     C50810  10.892   1.180   9.171 -0.7537 -0.2295  0.2910
  377MOL0     N50811  10.169   1.292   9.499 -1.0611  0.3192  0.2141
  377MOL0     N50812  10.093   1.243   9.589 -0.4445  0.8018 -0.1510
  377MOL0     C50813  10.935   1.009   9.799  0.2750  0.2911 -0.7390
  377MOL0     C50814  11.037   1.064   9.714  0.4248  0.1517  0.0368
  377MOL0     C50815  11.327   1.292   9.478 -0.3184  0.0737 -0.0920
  377MOL0     C50816  11.295   1.261   9.349  0.5211 -0.3965  0.3812
  377MOL0     C50817  11.379   1.281   9.243  0.0255 -0.0730 -0.0506
  377MOL0     C50818  11.504   1.334   9.269 -0.2715  0.6734  0.9969
  377MOL0     O50819  11.603   1.349   9.171 -0.5192  0.1284 -0.0232
  377MOL0     C50820  11.581   1.323   9.036  0.1634 -0.5952 -0.6599
  377MOL0     C50821  11.722   1.311   8.972 -0.8563 -0.2484  0.5351
  377MOL0     C50822  11.717   1.313   8.824  1.0422 -0.6486 -0.2219
  377MOL0     C50823  11.807   1.218   8.742  0.0348 -0.6655 -0.6220
  377MOL0     C50824  11.949   1.259   8.763  1.6423  0.6636 -0.0465
  377MOL0     C50825  12.063   1.289   8.785  1.0709 -0.6289 -0.0570
  377MOL0     C50826  11.547   1.364   9.401 -0.1618 -0.1364  0.0085
  377MOL0     C50827  11.457   1.348   9.505 -0.8420  0.3285  0.7069
  377MOL0     H50828  10.895   1.348   9.620 -0.9234 -2.0417 -1.6615
  377MOL0     H50829  10.721   1.267   9.765  0.7253  1.6898 -1.6587
  377MOL0     H50830  10.727   0.827   9.883 -1.8177 -0.0097 -0.6303
  377MOL0     H50831  10.762   0.923  10.023 -1.1117 -1.1851  1.9065
  377MOL0     H50832  10.564   0.801  10.070  0.6596  1.4292  2.2372
  377MOL0     H50833  10.555   0.973  10.061  0.4328 -0.8766 -0.8382
  377MOL0     H50834  10.441   0.928   9.815  4.0828 -1.2250 -0.6892
  377MOL0     H50835  10.449   0.767   9.862  0.1233 -0.0615  1.0471
  377MOL0     H50836  10.305   0.767  10.049  1.1210 -0.3994  1.0739
  377MOL0     H50837  10.307   0.948  10.063 -4.2743 -0.2586  0.4437
  377MOL0     H50838  10.195   0.779   9.846  0.4501 -0.7220 -0.4270
  377MOL0     H50839  10.096   0.848   9.973 -0.7068  1.7114 -2.6446
  377MOL0     H50840  10.242   1.019   9.779 -0.6678  1.8401 -0.9861
  377MOL0     H50841  10.064   0.992   9.769 -0.5769 -2.7887  0.6368
  377MOL0     H50842  10.070   1.100  10.015 -0.4038 -0.9652 -0.4715
  377MOL0     H50843  10.222   1.161   9.962 -1.3838 -0.3097  1.8108
  377MOL0     H50844  10.046   1.312   9.903  1.6444 -2.8949  4.1877
  377MOL0     H50845   9.956   1.178   9.820 -1.1053  0.1588 -0.1788
  377MOL0     H50846  10.303   1.374   9.797  3.3173  0.6129 -2.5246
  377MOL0     H50847  10.335   1.495   9.451 -0.2991  1.7575  1.7246
  377MOL0     H50848  10.431   1.485   9.603  0.3921  2.4513 -0.5551
  377MOL0     H50849  10.402   1.271   9.379 -0.7171 -0.7686  1.3375
  377MOL0     H50850  10.500   1.248   9.525  1.3282 -2.4707 -2.8219
  377MOL0     H50851  10.624   1.426   9.502 -0.4649 -1.7199  1.4010
  377MOL0     H50852  10.578   1.460   9.329 -0.9742 -1.8292 -2.0540
  377MOL0     H50853  10.646   1.224   9.278  1.6116 -2.6278  1.0083
  377MOL0     H50854  10.706   1.203   9.436  1.7620 -0.7398 -1.5261
  377MOL0     H50855  10.951   1.502   9.209  0.0061  0.2172 -0.4241
  377MOL0     H50856  11.235   1.474   8.996 -0.9735 -2.8202 -2.0320
  377MOL0     H50857  11.083   1.527   8.912  1.9285  0.6839 -0.3228
  377MOL0     H50858  11.119   1.582   9.070  1.1380  0.2619 -0.9353
  377MOL0     H50859  11.324   1.527   8.789 -0.9867 -1.5665  0.0803
  377MOL0     H50860  11.539   1.566   8.654 -2.5341  0.3943  0.2460
  377MOL0     H50861  11.666   1.219   8.434 -3.3892  0.2818 -0.4845
  377MOL0     H50862  11.614   1.340   8.320 -0.0037  0.5790  0.4206
  377MOL0     H50863  11.888   1.292   8.435 -2.2950  0.2006  2.6566
  377MOL0     H50864  11.840   1.305   8.260 -0.8941 -0.0995 -0.2109
  377MOL0     H50865  11.906   1.511   8.467  1.5749  1.9241 -0.2075
  377MOL0     H50866  11.794   1.553   8.337  2.1084  1.7065  1.3946
  377MOL0     H50867  12.068   1.430   8.283 -0.2542  0.8436  2.0243
  377MOL0     H50868  11.956   1.487   8.159  2.6106 -0.5561 -0.6042
  377MOL0     H50869  12.154   1.646   8.212 -0.7284 -0.0351 -1.5803
  377MOL0     H50870  12.087   1.664   8.377 -1.8567  3.2012 -0.7170
  377MOL0     H50871  11.961   1.736   8.106 -1.2200  0.6103 -0.6395
  377MOL0     H50872  11.863   1.732   8.253  1.6634  0.0773  1.8763
  377MOL0     H50873  12.124   1.892   8.212 -0.7398 -2.0502 -1.7709
  377MOL0     H50874  12.003   1.901   8.351  4.3497  0.3809  0.7415
  377MOL0     H50875  11.832   1.974   8.211  0.9988 -2.0500  2.7815
  377MOL0     H50876  11.951   1.984   8.067  0.1112  2.3759 -0.5160
  377MOL0     H50877  11.518   1.147   8.551 -0.1112  0.5883  0.0309
  377MOL0     H50878  11.321   1.123   8.663  4.3799 -2.2943  0.0036
  377MOL0     H50879  10.981   1.050   9.016 -0.4824  0.4493 -1.1751
  377MOL0     H50880  10.841   1.093   9.211  4.2727 -3.1992  1.1736
  377MOL0     H50881  10.949   0.919   9.858  2.9837  3.0918  3.4715
  377MOL0     H50882  11.127   1.005   9.701  0.1379 -0.4837  0.8198
  377MOL0     H50883  11.202   1.215   9.316  1.1273 -0.6217 -1.0881
  377MOL0     H50884  11.345   1.254   9.144 -0.4202  0.2816  0.0020
  377MOL0     H50885  11.529   1.228   9.021  0.2262 -1.2129  2.3709
  377MOL0     H50886  11.521   1.404   8.994  2.1679  0.8012 -1.0303
  377MOL0     H50887  11.760   1.209   8.987 -1.5182 -0.9818 -2.0981
  377MOL0     H50888  11.797   1.382   9.008 -1.9077  0.9365  0.4532
  377MOL0     H50889  11.737   1.414   8.788 -1.3031 -0.0503 -0.0289
  377MOL0     H50890  11.612   1.292   8.799  1.0481  1.6906 -2.6430
  377MOL0     H50891  11.794   1.232   8.635  1.6024 -0.4151 -0.8069
  377MOL0     H50892  11.792   1.115   8.776 -2.2618  0.0180  0.6750
  377MOL0     H50893  12.166   1.315   8.792  1.0278 -0.5744  0.4153
  377MOL0     H50894  11.641   1.412   9.425 -0.5118  0.6512 -0.1614
  377MOL0     H50895  11.495   1.353   9.607  0.8643 -1.8814  0.2473
  378MOL0     O50896   7.265   2.097   9.719  0.8225  0.5837  0.7915
  378MOL0     C50897   7.326   2.123   9.617 -0.1169 -0.4023  0.0533
  378MOL0     O50898   7.261   2.171   9.501  0.5540  0.5552 -0.0027
  378MOL0     C50899   7.124   2.178   9.503  0.3394 -0.0408 -0.0785
  378MOL0     C50900   7.053   2.062   9.542  0.1600 -0.2306 -0.6844
  378MOL0     C50901   6.911   2.057   9.528 -0.1090 -0.5986 -0.5200
  378MOL0     C50902   6.846   2.168   9.475 -0.4651 -0.3955 -0.0048
  378MOL0     O50903   6.703   2.163   9.462 -0.0154 -0.1989  0.4897
  378MOL0     C50904   6.629   2.274   9.411  0.5546 -0.6967  0.2129
  378MOL0     C50905   6.631   2.280   9.257 -0.0998  0.2764 -1.1618
  378MOL0     C50906   6.596   2.144   9.193  0.3396 -0.1936  0.1270
  378MOL0     C50907   6.459   2.099   9.217  0.3318 -0.2116  0.1372
  378MOL0     C50908   6.440   2.011   9.341 -0.1378  0.4938 -0.0451
  378MOL0     C50909   6.302   1.944   9.342  0.4881  0.1100  0.4565
  378MOL0     C50910   6.291   1.863   9.474  0.1514 -0.5596 -0.6995
  378MOL0     C50911   6.151   1.812   9.469  0.5364  0.5868  0.3777
  378MOL0     N50912   6.110   1.708   9.571  0.1342 -0.9167  0.4886
  378MOL0     C50913   6.168   1.696   9.696 -0.5867  0.3696  0.5273
  378MOL0     C50914   6.072   1.629   9.766  0.2185  0.2553  0.4999
  378MOL0     C50915   6.071   1.611   9.911  1.0066 -0.0435  0.5076
  378MOL0     C50916   6.183   1.522   9.966 -0.6187  0.2999  0.3521
  378MOL0     C50917   6.176   1.371   9.929 -0.5792 -0.6882  1.2080
  378MOL0     C50918   6.046   1.290   9.945  0.7961 -0.2877  0.2395
  378MOL0     O50919   6.002   1.278  10.084 -0.1835 -0.1982  0.2914
  378MOL0     C50920   5.903   1.183  10.109  0.1584  0.2153 -0.4111
  378MOL0     C50921   5.827   1.199  10.224 -0.2735 -0.1986  0.2664
  378MOL0     C50922   5.729   1.112  10.278 -0.0278  0.3176  0.1286
  378MOL0     C50923   5.674   1.135  10.411  1.2073  0.3168  0.6672
  378MOL0     C50924   5.690   1.009  10.186 -0.3893  0.5228  0.1589
  378MOL0     C50925   5.570   0.929  10.218  0.4729  1.4871 -0.5981
  378MOL0     O50926   5.461   0.964  10.294  0.4003  0.7501 -0.5303
  378MOL0     C50927   5.398   0.857  10.364 -0.0017  0.2397  0.4924
  378MOL0     C50928   5.281   0.797  10.310  0.2436  0.2678 -0.2595
  378MOL0     C50929   5.237   0.690  10.386 -0.3193  1.0423 -0.1436
  378MOL0     C50930   5.297   0.637  10.500 -1.1568  0.4671  0.1498
  378MOL0     O50931   5.260   0.526  10.573  0.9024 -0.4387  0.2872
  378MOL0     C50932   5.127   0.464  10.563 -1.2994  0.5104 -0.0941
  378MOL0     C50933   5.001   0.550  10.610 -0.5805 -0.6153 -0.6528
  378MOL0     C50934   4.869   0.477  10.597 -0.2932 -0.4285 -0.3606
  378MOL0     C50935   4.759   0.535  10.682 -0.7883  0.3558 -0.5268
  378MOL0     C50936   4.618   0.489  10.649  0.7198  0.2585  0.7751
  378MOL0     C50937   4.587   0.368  10.732  0.0474 -0.0235  1.2028
  378MOL0     C50938   4.438   0.325  10.722  0.4540  0.2240 -0.0059
  378MOL0     C50939   4.418   0.198  10.809  0.8535  0.0502  0.6231
  378MOL0    Cl50940   4.243   0.157  10.831 -0.3470  0.3898 -0.0692
  378MOL0     C50941   5.414   0.701  10.547 -0.6004  0.7987  0.0100
  378MOL0     C50942   5.460   0.812  10.475  0.1096 -0.7070 -1.0487
  378MOL0     O50943   5.578   0.817  10.163 -0.0628  0.9294 -0.0483
  378MOL0     C50944   5.753   1.001  10.063  0.4155 -0.8718 -0.7637
  378MOL0     C50945   5.860   1.085  10.022  0.8696 -0.6779  0.0848
  378MOL0     N50946   5.971   1.592   9.676  0.5965  0.0748 -0.1429
  378MOL0     N50947   5.990   1.649   9.566 -0.5705  0.2168  0.5054
  378MOL0     C50948   6.916   2.289   9.437  1.4994  1.2489 -0.2844
  378MOL0     C50949   7.053   2.289   9.450  0.5662 -0.4878  0.2490
  378MOL0     C50950   7.473   2.116   9.598 -1.0801 -0.1311 -1.0284
  378MOL0     C50951   7.531   2.149   9.474 -0.7808 -0.4754  0.7162
  378MOL0     C50952   7.672   2.145   9.463 -0.5573 -0.4967  0.0490
  378MOL0     C50953   7.756   2.122   9.571 -0.2305  0.4291  1.0160
  378MOL0     O50954   7.889   2.125   9.545 -0.7807  0.2093  0.2475
  378MOL0     C50955   7.985   2.057   9.632 -1.0744 -1.0719 -0.6908
  378MOL0     C50956   8.042   1.931   9.568  0.4124 -0.2329  0.1818
  378MOL0     C50957   7.930   1.829   9.528  0.0824  0.3543  0.5379
  378MOL0     C50958   7.973   1.680   9.528 -0.7213 -1.0843  0.2502
  378MOL0     C50959   7.869   1.596   9.465 -0.6333  0.3215  0.5933
  378MOL0     C50960   7.800   1.530   9.388  0.0594  0.0021 -0.3947
  378MOL0     C50961   7.692   2.099   9.696 -0.0374  0.4449  0.9171
  378MOL0     C50962   7.554   2.090   9.712 -0.0119  0.4966  0.9729
  378MOL0     H50963   7.106   1.974   9.579  3.0489  2.2650  1.6090
  378MOL0     H50964   6.858   1.966   9.555 -2.1745  0.1973 -1.6846
  378MOL0     H50965   6.524   2.259   9.438  0.5512  0.7346  1.0597
  378MOL0     H50966   6.649   2.376   9.444  0.5146 -0.3374 -0.8142
  378MOL0     H50967   6.572   2.364   9.220  0.5873  0.6819 -1.3356
  378MOL0     H50968   6.735   2.307   9.240  0.3516  0.4280  1.5236
  378MOL0     H50969   6.613   2.164   9.087 -3.4480  1.5759 -0.3202
  378MOL0     H50970   6.663   2.077   9.247  3.3926  1.8905 -0.8096
  378MOL0     H50971   6.399   2.184   9.251 -1.2794  0.3793 -3.7220
  378MOL0     H50972   6.404   2.066   9.129 -3.2974  2.1071  1.2908
  378MOL0     H50973   6.502   1.921   9.333 -1.9327 -0.7386 -0.7555
  378MOL0     H50974   6.460   2.062   9.435  0.1372  0.3748 -0.0360
  378MOL0     H50975   6.224   2.020   9.337  0.5535  0.2064  0.8575
  378MOL0     H50976   6.301   1.882   9.252 -0.3246  1.1767 -0.2941
  378MOL0     H50977   6.357   1.777   9.488 -1.9124 -2.2104 -0.5749
  378MOL0     H50978   6.310   1.935   9.554 -0.5259  0.3961 -1.3794
  378MOL0     H50979   6.149   1.764   9.371  1.9996  0.1666  0.5183
  378MOL0     H50980   6.073   1.887   9.479 -0.7347 -0.8042  1.3580
  378MOL0     H50981   6.264   1.718   9.742 -0.6743  1.2078  0.3167
  378MOL0     H50982   6.067   1.716   9.939 -2.0565  0.8352 -2.5689
  378MOL0     H50983   5.981   1.560   9.947  1.5181 -2.2645 -1.1527
  378MOL0     H50984   6.185   1.542  10.074  0.6930  2.7245 -0.0483
  378MOL0     H50985   6.281   1.555   9.929 -0.5144 -0.2221  0.1581
  378MOL0     H50986   6.259   1.309   9.962 -0.4914 -1.3756 -0.2102
  378MOL0     H50987   6.188   1.375   9.820 -0.3081  0.7164  1.2757
  378MOL0     H50988   6.069   1.188   9.910  0.3134 -0.3790  0.1816
  378MOL0     H50989   5.972   1.334   9.877  0.6898 -0.3159  0.3360
  378MOL0     H50990   5.864   1.288  10.274  1.0823 -1.3152  1.3498
  378MOL0     H50991   5.651   1.037  10.452  1.3585 -0.0057 -0.0035
  378MOL0     H50992   5.753   1.184  10.469  0.7209  1.5586  0.3121
  378MOL0     H50993   5.583   1.196  10.406  0.7727 -0.2462  1.5395
  378MOL0     H50994   5.227   0.831  10.222  0.7888  0.3543 -0.5701
  378MOL0     H50995   5.149   0.632  10.357 -0.9771  1.4462  0.9732
  378MOL0     H50996   5.106   0.431  10.460  0.7285 -1.5283  0.0744
  378MOL0     H50997   5.128   0.365  10.609 -1.9707  0.2274 -0.6547
  378MOL0     H50998   5.013   0.593  10.710  0.1653  2.9472 -2.1226
  378MOL0     H50999   4.990   0.642  10.552  0.3834  0.1015  0.2480
  378MOL0     H51000   4.894   0.370  10.599  3.0473  0.2382 -0.2401
  378MOL0     H51001   4.844   0.495  10.492 -1.9414 -1.1656 -0.1226
  378MOL0     H51002   4.785   0.526  10.788  0.9124 -0.6584 -0.9973
  378MOL0     H51003   4.754   0.644  10.675 -1.0849  0.5410  1.8253
  378MOL0     H51004   4.609   0.457  10.545 -0.4120 -0.1951  1.0053
  378MOL0     H51005   4.545   0.567  10.671 -0.4118 -0.8755  1.1861
  378MOL0     H51006   4.641   0.283  10.689  1.9983  0.9328  1.6787
  378MOL0     H51007   4.618   0.381  10.836  0.5825 -3.0608  1.5257
  378MOL0     H51008   4.403   0.309  10.619  1.4460  2.3705 -0.7349
  378MOL0     H51009   4.376   0.400  10.773 -0.0743 -0.8408  0.9715
  378MOL0     H51010   4.464   0.203  10.908 -0.0071 -2.4547  1.2248
  378MOL0     H51011   4.465   0.115  10.756  1.1822  0.2302  0.6305
  378MOL0     H51012   5.474   0.657  10.626 -0.9529  0.4088  0.0632
  378MOL0     H51013   5.551   0.865  10.500 -0.5829  1.9732 -3.6769
  378MOL0     H51014   5.711   0.932   9.990  0.2088 -1.3067 -0.2431
  378MOL0     H51015   5.898   1.058   9.924 -0.3554  0.0123 -0.6150
  378MOL0     H51016   6.867   2.378   9.397 -0.5351  0.4291  0.2192
  378MOL0     H51017   7.115   2.374   9.423  0.2495 -0.7245 -1.3111
  378MOL0     H51018   7.476   2.182   9.387  0.0177  1.8626  1.0312
  378MOL0     H51019   7.717   2.165   9.367  0.0570  0.7351  0.5725
  378MOL0     H51020   8.066   2.130   9.645 -1.8380 -0.2860 -0.2146
  378MOL0     H51021   7.951   2.049   9.736 -0.1426  1.1682 -0.1443
  378MOL0     H51022   8.116   1.888   9.636  1.6210  1.6247  0.1028
  378MOL0     H51023   8.091   1.964   9.476 -2.3721  0.5545 -1.1151
  378MOL0     H51024   7.895   1.855   9.427 -1.7743 -1.4174  0.6677
  378MOL0     H51025   7.843   1.842   9.593  1.0549 -0.2795  2.0233
  378MOL0     H51026   8.003   1.655   9.630 -1.0873  1.1862  0.9774
  378MOL0     H51027   8.057   1.676   9.458 -0.8571 -1.3947  0.1031
  378MOL0     H51028   7.750   1.470   9.314  2.1425 -0.3122 -1.6057
  378MOL0     H51029   7.748   2.075   9.785  1.0202 -0.0341  0.1386
  378MOL0     H51030   7.504   2.061   9.804  1.7359  2.1818  2.5566
  379MOL0     O51031   5.203   5.665   8.050  0.0011 -0.3386 -0.6935
  379MOL0     C51032   5.261   5.681   7.944  0.2111  0.5361 -0.1328
  379MOL0     O51033   5.219   5.755   7.839  0.3288 -0.2244 -0.4305
  379MOL0     C51034   5.122   5.856   7.834 -0.1330 -0.2190  0.1483
  379MOL0     C51035   5.062   5.887   7.708 -0.9725 -0.5618 -1.1206
  379MOL0     C51036   4.958   5.980   7.702  0.1963  0.6575 -0.2865
  379MOL0     C51037   4.915   6.054   7.814  0.3491  0.0652  0.7398
  379MOL0     O51038   4.817   6.145   7.811  0.4536 -0.2124  0.7709
  379MOL0     C51039   4.820   6.231   7.700  0.3749 -0.8445 -0.3409
  379MOL0     C51040   4.713   6.339   7.727  0.3938  0.7413  1.1390
  379MOL0     C51041   4.716   6.440   7.615 -0.0196 -0.0870 -0.0419
  379MOL0     C51042   4.587   6.527   7.592 -0.0409  0.5903 -0.8443
  379MOL0     C51043   4.490   6.450   7.501 -0.7196 -0.2971 -0.6241
  379MOL0     C51044   4.349   6.519   7.496 -0.1385  0.3565 -0.1362
  379MOL0     C51045   4.257   6.440   7.399 -0.6376 -0.0837 -0.3597
  379MOL0     C51046   4.121   6.511   7.407 -0.3176 -0.3483  0.7531
  379MOL0     N51047   4.052   6.505   7.279 -0.9750  0.4985 -1.0766
  379MOL0     C51048   4.079   6.578   7.165  0.2500  0.4282 -0.3895
  379MOL0     C51049   4.004   6.512   7.071 -0.2448  0.1220  0.8009
  379MOL0     C51050   3.999   6.529   6.925 -0.2550 -0.6377  0.1039
  379MOL0     C51051   4.070   6.659   6.886  0.3825  0.0371  0.1131
  379MOL0     C51052   4.074   6.674   6.742 -0.4738 -0.4718 -0.9789
  379MOL0     C51053   4.155   6.800   6.693 -0.4103 -0.5664 -0.2214
  379MOL0     O51054   4.127   6.921   6.759 -0.3545 -0.9593  0.4760
  379MOL0     C51055   3.997   6.964   6.758 -0.0137 -0.0985 -0.2445
  379MOL0     C51056   3.905   6.934   6.647 -0.0745 -0.0977 -0.0166
  379MOL0     C51057   3.768   6.959   6.671 -0.7594  0.5781 -0.7255
  379MOL0     C51058   3.676   6.917   6.563  0.5749  0.2586  0.3108
  379MOL0     C51059   3.720   7.026   6.786  0.1489 -0.1725  0.3287
  379MOL0     C51060   3.584   7.078   6.798 -0.1364  0.3271 -0.4033
  379MOL0     O51061   3.551   7.095   6.924  0.5272 -0.2437  0.3761
  379MOL0     C51062   3.449   7.187   6.940  0.3416  0.8752  0.2293
  379MOL0     C51063   3.319   7.152   6.937 -0.4255 -0.2087 -0.2535
  379MOL0     C51064   3.226   7.235   6.995  0.1021  0.1809 -0.3383
  379MOL0     C51065   3.249   7.366   7.037 -0.0570  0.5966  0.5249
  379MOL0     O51066   3.161   7.463   7.076 -0.4925  0.4178  0.9190
  379MOL0     C51067   3.023   7.454   7.041  0.6067 -0.2122  0.0263
  379MOL0     C51068   2.947   7.571   7.096 -0.3373 -0.3781  0.3671
  379MOL0     C51069   2.820   7.611   7.020 -0.1966  0.1379  0.4672
  379MOL0     C51070   2.726   7.698   7.105  0.8746 -0.3210  0.2751
  379MOL0     C51071   2.581   7.698   7.049 -0.5475  0.9144  0.4363
  379MOL0     C51072   2.489   7.774   7.148  0.6315 -0.5203  0.0668
  379MOL0     C51073   2.345   7.772   7.107  0.2259 -0.1389  0.2491
  379MOL0     C51074   2.250   7.782   7.230  0.2940  0.0714  0.0104
  379MOL0    Cl51075   2.258   7.943   7.299 -0.2506 -0.4680  0.0782
  379MOL0     C51076   3.387   7.399   7.045  1.0283  0.2576  0.6915
  379MOL0     C51077   3.484   7.303   6.996 -0.1988 -0.1091 -0.0312
  379MOL0     O51078   3.528   7.122   6.698  0.0774  0.5445 -0.2493
  379MOL0     C51079   3.806   7.057   6.895  0.4348 -0.1690  0.6853
  379MOL0     C51080   3.945   7.025   6.874  0.0651 -0.4151 -1.2012
  379MOL0     N51081   3.929   6.406   7.121 -0.2781  1.2459 -0.1118
  379MOL0     N51082   3.969   6.407   7.248  0.4079 -0.3759  0.7032
  379MOL0     C51083   4.969   6.017   7.934 -0.1229  0.6455 -1.0275
  379MOL0     C51084   5.070   5.912   7.944  0.3264  0.1448 -0.5350
  379MOL0     C51085   5.383   5.592   7.929 -0.5010 -1.1598  0.4293
  379MOL0     C51086   5.454   5.547   8.047 -0.1672 -0.1687  0.0490
  379MOL0     C51087   5.572   5.479   8.037 -0.5612 -0.1459 -0.0776
  379MOL0     C51088   5.630   5.469   7.907 -0.2606 -0.4253 -0.1809
  379MOL0     O51089   5.748   5.404   7.876 -0.2258 -0.1903 -0.3515
  379MOL0     C51090   5.858   5.450   7.954  0.1817 -0.2214  0.1982
  379MOL0     C51091   5.901   5.334   8.049 -0.1776  0.5570  0.0137
  379MOL0     C51092   6.034   5.361   8.123  0.3965  0.0018 -1.0315
  379MOL0     C51093   6.158   5.287   8.070  0.8577  0.5574  0.2786
  379MOL0     C51094   6.164   5.307   7.923  0.7048  0.3366  0.4234
  379MOL0     C51095   6.176   5.313   7.805  0.6379 -0.0503 -0.1286
  379MOL0     C51096   5.568   5.515   7.795 -0.3473  0.0641 -0.3189
  379MOL0     C51097   5.442   5.578   7.798  0.0053  0.1427 -0.6125
  379MOL0     H51098   5.106   5.844   7.619 -1.8320 -0.1344 -1.7529
  379MOL0     H51099   4.922   5.998   7.601 -0.8042  1.8228  0.2463
  379MOL0     H51100   4.916   6.283   7.692  0.3407 -0.4686  1.3981
  379MOL0     H51101   4.796   6.181   7.606  0.2687 -0.6666 -0.4112
  379MOL0     H51102   4.612   6.296   7.730  0.9304 -0.5350  2.2336
  379MOL0     H51103   4.724   6.388   7.824 -1.7864  1.1410  1.2314
  379MOL0     H51104   4.802   6.504   7.639  1.2915 -1.3048 -1.2832
  379MOL0     H51105   4.750   6.403   7.518  1.9099 -0.3056  0.6708
  379MOL0     H51106   4.545   6.550   7.690  2.8094  0.5458  0.4795
  379MOL0     H51107   4.613   6.621   7.543  0.3788  0.0705 -1.6432
  379MOL0     H51108   4.541   6.443   7.405 -0.9114 -1.5195 -0.6482
  379MOL0     H51109   4.465   6.350   7.538  0.2557  0.1440  1.3868
  379MOL0     H51110   4.311   6.524   7.599 -0.1408  1.0313 -0.1658
  379MOL0     H51111   4.360   6.615   7.445 -2.8419 -0.2431 -2.0310
  379MOL0     H51112   4.291   6.428   7.295 -1.6036 -3.7226 -0.3947
  379MOL0     H51113   4.242   6.335   7.425 -3.2648  0.0669 -1.0720
  379MOL0     H51114   4.136   6.616   7.434 -0.2273  0.1267 -1.0659
  379MOL0     H51115   4.068   6.464   7.491  0.3929  0.1190  1.4797
  379MOL0     H51116   4.151   6.658   7.149  0.0299  0.5496 -0.7581
  379MOL0     H51117   4.054   6.446   6.881  1.2423  1.5416 -2.4870
  379MOL0     H51118   3.894   6.537   6.893 -1.3090 -1.9898  2.9494
  379MOL0     H51119   4.171   6.666   6.927  2.0012 -1.4813 -3.2148
  379MOL0     H51120   4.003   6.733   6.930 -0.7283 -0.7826 -0.1730
  379MOL0     H51121   3.975   6.691   6.699 -0.4365  3.9294  0.2724
  379MOL0     H51122   4.127   6.587   6.701  3.0203  1.2677 -0.4813
  379MOL0     H51123   4.129   6.808   6.587 -0.0898 -2.9840 -0.5529
  379MOL0     H51124   4.262   6.782   6.708 -0.2656 -0.4103 -1.0182
  379MOL0     H51125   3.935   6.889   6.553 -2.1096 -0.9434 -0.2929
  379MOL0     H51126   3.698   6.821   6.516  0.4741  0.0808  0.6221
  379MOL0     H51127   3.577   6.896   6.605  0.8694  2.3909  2.2689
  379MOL0     H51128   3.658   6.989   6.482 -2.0893 -0.9767 -0.2874
  379MOL0     H51129   3.292   7.056   6.893 -1.9304 -0.4624  1.1126
  379MOL0     H51130   3.126   7.192   6.988  1.0474 -2.8372  2.1914
  379MOL0     H51131   3.006   7.469   6.934  1.9100 -1.0899 -0.3277
  379MOL0     H51132   2.971   7.364   7.074  0.6627 -1.1105 -2.1707
  379MOL0     H51133   2.922   7.538   7.197 -1.4553 -1.5401 -0.2533
  379MOL0     H51134   3.014   7.657   7.110 -0.9891 -0.2028  2.7783
  379MOL0     H51135   2.772   7.517   6.991  1.6000  0.2675 -3.6862
  379MOL0     H51136   2.840   7.667   6.928 -2.2396  1.1130  0.5598
  379MOL0     H51137   2.727   7.655   7.206 -1.4568 -0.8598  0.1359
  379MOL0     H51138   2.760   7.801   7.102  0.9597 -0.3619 -0.2090
  379MOL0     H51139   2.558   7.593   7.030 -2.1835  1.3950 -0.4633
  379MOL0     H51140   2.583   7.750   6.953 -2.4586 -1.2791 -0.8899
  379MOL0     H51141   2.486   7.725   7.246 -1.0078 -1.5515 -0.4642
  379MOL0     H51142   2.527   7.876   7.156  0.2766 -0.4710  1.3381
  379MOL0     H51143   2.328   7.678   7.053  0.4637 -2.0884  3.2866
  379MOL0     H51144   2.316   7.850   7.036 -0.2058 -0.4862  0.0357
  379MOL0     H51145   2.282   7.723   7.316 -0.6797  0.2100  0.4739
  379MOL0     H51146   2.149   7.765   7.191  0.4925 -0.5248 -0.2536
  379MOL0     H51147   3.406   7.497   7.087 -0.8595  0.3111  1.5331
  379MOL0     H51148   3.589   7.311   7.023  0.1491 -4.7333  0.9118
  379MOL0     H51149   3.768   7.102   6.986  0.5942  0.8874  0.2499
  379MOL0     H51150   4.006   7.044   6.962 -1.5946 -1.3953  0.2224
  379MOL0     H51151   4.925   6.068   8.020 -1.5854 -1.6569 -0.3167
  379MOL0     H51152   5.113   5.891   8.041  2.3181 -3.4057 -1.9674
  379MOL0     H51153   5.414   5.560   8.147 -0.6069  1.5333 -0.2966
  379MOL0     H51154   5.622   5.444   8.127 -1.1078 -1.4389 -0.2467
  379MOL0     H51155   5.938   5.487   7.890  0.1514  1.0203  0.8342
  379MOL0     H51156   5.836   5.542   8.009  0.5440 -0.2610  0.4140
  379MOL0     H51157   5.902   5.242   7.989  0.5808  0.8582 -0.4500
  379MOL0     H51158   5.828   5.298   8.122 -0.6958 -0.5179 -0.9966
  379MOL0     H51159   6.029   5.343   8.230  1.8444  2.9523 -0.3777
  379MOL0     H51160   6.056   5.468   8.120  1.0885 -0.1460 -1.4590
  379MOL0     H51161   6.134   5.182   8.093  0.0161  1.1304  2.1986
  379MOL0     H51162   6.247   5.323   8.122  0.3593  2.2981 -0.0125
  379MOL0     H51163   6.154   5.315   7.700  1.8778  0.6618 -0.3950
  379MOL0     H51164   5.623   5.498   7.702  2.5681  1.2473  1.0345
  379MOL0     H51165   5.398   5.616   7.707  3.2687  5.5591 -0.3914
  380MOL0     O51166   8.125   6.517   9.839  0.6656  0.2717 -0.2613
  380MOL0     C51167   8.073   6.602   9.904 -0.3814  0.6997 -0.0754
  380MOL0     O51168   8.138   6.687   9.990  0.3063  0.2221 -0.0218
  380MOL0     C51169   8.273   6.696  10.001  0.6030 -0.1789  0.4977
  380MOL0     C51170   8.307   6.828  10.013  0.0087 -0.3139 -0.3780
  380MOL0     C51171   8.440   6.851  10.026  0.6366 -0.7705  0.7541
  380MOL0     C51172   8.542   6.752  10.017  0.3649 -0.7926 -0.2062
  380MOL0     O51173   8.670   6.788  10.051  0.1856 -0.7442  0.7538
  380MOL0     C51174   8.738   6.721  10.161  0.0872  0.9231  0.8918
  380MOL0     C51175   8.883   6.691  10.127 -0.1147 -0.3250 -0.1557
  380MOL0     C51176   8.918   6.581  10.024  0.4087  0.8032 -0.0802
  380MOL0     C51177   8.877   6.438  10.062  0.0636  0.1338 -0.0580
  380MOL0     C51178   8.910   6.339   9.950  0.6262  0.2922 -0.2582
  380MOL0     C51179   8.852   6.195   9.983 -0.3189 -0.1877  0.2558
  380MOL0     C51180   8.883   6.097   9.869  0.2547 -0.5456  0.2090
  380MOL0     C51181   8.867   5.950   9.901 -0.7425 -0.4394  0.9753
  380MOL0     N51182   8.963   5.901   9.999 -0.0246 -0.4052 -0.2215
  380MOL0     C51183   9.099   5.912   9.989 -0.0666  0.0691  1.2090
  380MOL0     C51184   9.151   5.873  10.104 -0.9263  0.2838  0.0270
  380MOL0     C51185   9.302   5.858  10.142 -0.4758  0.2554 -0.0290
  380MOL0     C51186   9.349   5.957  10.247  0.1686 -0.4531 -0.8894
  380MOL0     C51187   9.275   5.961  10.390 -0.2033  0.0528  0.0074
  380MOL0     C51188   9.270   5.834  10.479 -0.5197  0.7447  0.3135
  380MOL0     O51189   9.189   5.859  10.596  0.0239  0.3144 -0.2939
  380MOL0     C51190   9.046   5.865  10.602  0.0193 -0.1475  0.2268
  380MOL0     C51191   8.995   5.931  10.701  0.4191  0.1450  0.2289
  380MOL0     C51192   8.854   5.950  10.713 -0.3986  0.1547 -0.3852
  380MOL0     C51193   8.797   6.002  10.843 -0.1857  0.5639 -0.7953
  380MOL0     C51194   8.768   5.899  10.610  0.2856 -0.7118 -0.1545
  380MOL0     C51195   8.619   5.917  10.608 -1.4174  0.5072  0.2979
  380MOL0     O51196   8.549   5.819  10.543  0.3715 -0.0478 -0.1774
  380MOL0     C51197   8.419   5.845  10.535 -0.4527 -0.3480  0.2032
  380MOL0     C51198   8.372   5.849  10.410 -0.3728 -0.2134  0.2265
  380MOL0     C51199   8.237   5.856  10.392  0.1683 -0.5802 -0.1201
  380MOL0     C51200   8.153   5.839  10.499 -0.8046  0.3273 -0.0809
  380MOL0     O51201   8.021   5.818  10.481 -0.3010 -0.3749 -0.2868
  380MOL0     C51202   7.947   5.742  10.577 -0.0925  0.0876  0.4609
  380MOL0     C51203   7.807   5.708  10.534  0.6911 -0.4643  0.6229
  380MOL0     C51204   7.718   5.826  10.553  0.0090  0.3864  1.2209
  380MOL0     C51205   7.577   5.789  10.498  0.1288 -0.2792 -0.7084
  380MOL0     C51206   7.556   5.795  10.346  0.1417 -1.0368 -0.0636
  380MOL0     C51207   7.411   5.791  10.323  0.5995  1.2411  0.4619
  380MOL0     C51208   7.374   5.678  10.213  0.7829  0.8401 -0.0787
  380MOL0     C51209   7.380   5.535  10.271  1.1600 -0.3637 -0.3045
  380MOL0    Cl51210   7.267   5.508  10.412  0.1440  0.1496 -0.1682
  380MOL0     C51211   8.202   5.836  10.629  0.2024  0.2434  0.4102
  380MOL0     C51212   8.333   5.839  10.646 -0.4269 -0.4223  0.0271
  380MOL0     O51213   8.580   6.022  10.655  0.5616 -0.0140  0.0665
  380MOL0     C51214   8.826   5.823  10.508 -0.3827  0.6530  0.4431
  380MOL0     C51215   8.964   5.802  10.507 -0.0482 -0.0074  0.0617
  380MOL0     N51216   9.042   5.852  10.186 -0.6779  0.8726 -0.6634
  380MOL0     N51217   8.929   5.871  10.119 -0.3105  0.0191  0.4811
  380MOL0     C51218   8.498   6.620  10.016 -0.5726  0.1782 -0.2810
  380MOL0     C51219   8.367   6.589  10.004  1.3331 -0.7469  0.0632
  380MOL0     C51220   7.929   6.608   9.900 -0.4507 -0.3188 -0.3178
  380MOL0     C51221   7.866   6.719   9.970  0.2376  0.2563 -0.9817
  380MOL0     C51222   7.733   6.700  10.010 -0.5496 -0.7896  0.0606
  380MOL0     C51223   7.655   6.605   9.956 -0.1661  0.0133 -0.0756
  380MOL0     O51224   7.520   6.592   9.984  0.1902  0.2191  0.2393
  380MOL0     C51225   7.433   6.703  10.032 -0.6716 -0.5541 -0.4060
  380MOL0     C51226   7.289   6.659  10.052 -0.4126 -0.4762 -1.0985
  380MOL0     C51227   7.215   6.650   9.916 -0.3885  0.4713  0.1749
  380MOL0     C51228   7.059   6.642   9.931  0.7905  0.0785 -0.2439
  380MOL0     C51229   6.996   6.610   9.807  0.4076 -0.0839  0.6193
  380MOL0     C51230   6.942   6.574   9.706 -0.3466 -0.0503  0.3287
  380MOL0     C51231   7.703   6.502   9.882 -0.3523 -0.5205  0.0874
  380MOL0     C51232   7.842   6.503   9.860  0.2224 -0.3186 -0.5713
  380MOL0     H51233   8.231   6.902  10.032  0.3187 -0.5381  2.0498
  380MOL0     H51234   8.478   6.950  10.048  0.5792 -0.6740  0.4132
  380MOL0     H51235   8.743   6.789  10.247 -0.5976 -0.0872  1.7575
  380MOL0     H51236   8.688   6.628  10.191 -1.4004  1.4306  0.0843
  380MOL0     H51237   8.924   6.786  10.092 -0.0437  1.2311  3.6256
  380MOL0     H51238   8.938   6.674  10.220  0.3003  1.1373 -0.1122
  380MOL0     H51239   8.875   6.615   9.930 -2.7377 -0.4089  0.7900
  380MOL0     H51240   9.027   6.581  10.018  0.4179  4.3256 -4.2129
  380MOL0     H51241   8.932   6.414  10.153 -1.3248 -0.3676  0.6805
  380MOL0     H51242   8.769   6.432  10.077 -0.6048 -2.3525 -4.2368
  380MOL0     H51243   8.875   6.371   9.851  0.9013 -0.2583 -0.5436
  380MOL0     H51244   9.018   6.335   9.933  0.2427 -1.9386 -2.9732
  380MOL0     H51245   8.896   6.156  10.075  1.7445 -3.2955 -1.8648
  380MOL0     H51246   8.743   6.190   9.994 -0.6830 -2.7296 -2.8504
  380MOL0     H51247   8.828   6.127   9.779  4.4983  2.4504 -1.7136
  380MOL0     H51248   8.987   6.111   9.839  1.4542 -0.3979  3.9490
  380MOL0     H51249   8.902   5.901   9.810  3.5700 -0.4124  2.3871
  380MOL0     H51250   8.770   5.908   9.929  0.3513 -3.1861  0.9335
  380MOL0     H51251   9.150   5.946   9.900  0.5831 -2.7109  0.4228
  380MOL0     H51252   9.323   5.755  10.173 -3.5833  0.4162  3.2301
  380MOL0     H51253   9.364   5.869  10.052 -0.4957 -2.1294 -0.3791
  380MOL0     H51254   9.340   6.056  10.202 -2.0991 -1.6344 -3.3126
  380MOL0     H51255   9.454   5.932  10.263  0.1132 -2.0099 -2.6497
  380MOL0     H51256   9.176   6.007  10.377 -0.0750  0.4189  0.3207
  380MOL0     H51257   9.329   6.041  10.441  0.5542  0.8837 -1.9819
  380MOL0     H51258   9.368   5.795  10.506 -0.6657 -0.1532 -0.3979
  380MOL0     H51259   9.227   5.751  10.422 -0.6548  0.1054  1.3198
  380MOL0     H51260   9.058   5.969  10.781 -2.1563 -2.3283  3.7896
  380MOL0     H51261   8.726   5.922  10.866 -1.5696  2.1740  0.9190
  380MOL0     H51262   8.869   6.009  10.925 -2.6098 -1.4019  1.6856
  380MOL0     H51263   8.735   6.092  10.830 -1.3736  0.1683  1.6008
  380MOL0     H51264   8.436   5.841  10.323 -1.0609 -1.8029 -0.1790
  380MOL0     H51265   8.198   5.857  10.291 -2.0389 -0.6283  0.6679
  380MOL0     H51266   8.001   5.649  10.596  1.0662  0.7281  0.3593
  380MOL0     H51267   7.938   5.806  10.665 -2.2022  2.7830 -1.5394
  380MOL0     H51268   7.812   5.670  10.432  3.4248 -0.7741  0.7838
  380MOL0     H51269   7.766   5.627  10.596  2.2235 -1.8133 -0.0498
  380MOL0     H51270   7.758   5.917  10.507  1.8116 -0.6579  0.6521
  380MOL0     H51271   7.705   5.840  10.661 -3.7518  2.3580  0.7112
  380MOL0     H51272   7.532   5.699  10.542  2.2881 -1.3668 -0.6242
  380MOL0     H51273   7.520   5.876  10.535 -1.1746 -1.2338 -0.4139
  380MOL0     H51274   7.615   5.721  10.292 -0.0909 -0.9581 -0.4313
  380MOL0     H51275   7.596   5.892  10.315 -2.7194  0.2509 -0.1095
  380MOL0     H51276   7.362   5.751  10.412  1.3825  0.3596  0.5068
  380MOL0     H51277   7.378   5.895  10.307  0.0871  0.8010 -1.6111
  380MOL0     H51278   7.428   5.687  10.118 -0.1897  0.4783 -0.6790
  380MOL0     H51279   7.267   5.695  10.198  0.8665  0.4181 -1.3657
  380MOL0     H51280   7.479   5.518  10.312  0.9368  1.4653  1.1092
  380MOL0     H51281   7.348   5.460  10.198  0.0561  0.7762 -1.0367
  380MOL0     H51282   8.140   5.838  10.717 -0.4815  2.8479 -0.0572
  380MOL0     H51283   8.377   5.858  10.743  0.3143 -3.2001  0.3388
  380MOL0     H51284   8.773   5.771  10.429  0.1149 -0.1891  0.6474
  380MOL0     H51285   9.014   5.745  10.429 -1.6644 -0.2439 -0.8449
  380MOL0     H51286   8.560   6.531  10.008 -0.9214 -0.0353 -0.6938
  380MOL0     H51287   8.335   6.485  10.006 -2.2784  0.0697  5.3733
  380MOL0     H51288   7.918   6.806  10.008 -0.1877 -0.1589  0.6375
  380MOL0     H51289   7.692   6.781  10.070 -0.7978 -1.0266  0.2180
  380MOL0     H51290   7.479   6.743  10.123  1.5141 -0.7634 -1.3641
  380MOL0     H51291   7.425   6.787   9.962 -0.3233 -0.5288 -0.4167
  380MOL0     H51292   7.251   6.742  10.112 -0.2746 -1.8092  0.8947
  380MOL0     H51293   7.278   6.567  10.108  0.9558  1.4896  2.7460
  380MOL0     H51294   7.249   6.563   9.859  0.9849  0.4778  0.9625
  380MOL0     H51295   7.252   6.739   9.865  3.1687  2.0061  4.6994
  380MOL0     H51296   7.009   6.734   9.962  1.0577  0.5286 -1.0965
  380MOL0     H51297   7.043   6.551   9.989  0.2744 -1.5748 -2.8139
  380MOL0     H51298   6.878   6.547   9.624 -1.3966 -1.4159  1.5454
  380MOL0     H51299   7.640   6.427   9.836 -0.7953 -0.2890  0.3100
  380MOL0     H51300   7.885   6.417   9.811  2.5633 -1.7778  3.5669
  381MOL0     O51301   4.778   7.777  11.352  0.0061 -0.1596  0.4976
  381MOL0     C51302   4.697   7.803  11.265  0.1368  0.1371 -0.1048
  381MOL0     O51303   4.631   7.916  11.264 -0.1491  0.2875  0.0641
  381MOL0     C51304   4.633   7.994  11.374  0.6358 -0.0329 -0.0490
  381MOL0     C51305   4.520   7.987  11.456 -0.2822 -0.0219 -0.1855
  381MOL0     C51306   4.526   8.075  11.572 -0.8879 -1.0109  0.3734
  381MOL0     C51307   4.637   8.152  11.612 -0.1523 -0.0032 -0.4777
  381MOL0     O51308   4.631   8.223  11.725 -0.7086 -0.3058 -0.1175
  381MOL0     C51309   4.721   8.337  11.743  0.4259  0.4410 -0.6855
  381MOL0     C51310   4.702   8.456  11.648 -1.1681 -0.4945  0.5306
  381MOL0     C51311   4.551   8.499  11.645 -0.6387  0.5709 -0.7612
  381MOL0     C51312   4.519   8.568  11.523  0.3788  0.1104 -0.2860
  381MOL0     C51313   4.373   8.586  11.493 -0.3148 -0.6265  0.1736
  381MOL0     C51314   4.297   8.678  11.591  0.4805 -0.4776  0.2368
  381MOL0     C51315   4.145   8.692  11.567  0.4192 -0.5416  0.5775
  381MOL0     C51316   4.074   8.571  11.614  0.8616  1.4345  0.0235
  381MOL0     N51317   3.935   8.576  11.546 -0.0555  0.4189 -1.0095
  381MOL0     C51318   3.904   8.546  11.415  0.5919  0.1226 -0.3853
  381MOL0     C51319   3.776   8.597  11.404 -0.0558 -0.2161 -0.2909
  381MOL0     C51320   3.693   8.608  11.275 -0.4632 -0.2155  0.0791
  381MOL0     C51321   3.705   8.485  11.186  0.2217 -0.1208  0.1562
  381MOL0     C51322   3.642   8.367  11.248  0.4888 -0.3965 -0.4965
  381MOL0     C51323   3.594   8.259  11.150 -0.5697  0.2919  0.4453
  381MOL0     O51324   3.511   8.303  11.039 -0.0096  0.2856 -0.1465
  381MOL0     C51325   3.374   8.327  11.050  0.6809 -0.1692  0.1512
  381MOL0     C51326   3.310   8.336  10.926  1.0437  0.1881  0.0055
  381MOL0     C51327   3.169   8.376  10.921  0.0705  0.2735  0.4731
  381MOL0     C51328   3.115   8.396  10.788 -0.0996  0.9863  0.6111
  381MOL0     C51329   3.091   8.381  11.039 -0.1345 -0.9715 -0.0324
  381MOL0     C51330   2.948   8.421  11.044  0.9084 -0.8593 -0.2435
  381MOL0     O51331   2.905   8.486  11.160 -0.6931 -0.1045 -0.0331
  381MOL0     C51332   2.773   8.461  11.189 -0.1017  0.5698 -0.1955
  381MOL0     C51333   2.683   8.564  11.227 -0.4755  0.0154 -0.2270
  381MOL0     C51334   2.553   8.534  11.281 -0.0002  0.3840  0.9554
  381MOL0     C51335   2.516   8.397  11.313 -0.0589 -0.4807 -0.3900
  381MOL0     O51336   2.387   8.347  11.352 -0.1219 -0.2506  0.0725
  381MOL0     C51337   2.277   8.442  11.364  0.5553 -0.0915 -0.0509
  381MOL0     C51338   2.181   8.447  11.249  0.3817 -0.1952  0.7813
  381MOL0     C51339   2.234   8.399  11.109 -0.8386 -0.5065 -0.0475
  381MOL0     C51340   2.255   8.245  11.100 -0.0954 -0.2285 -0.0452
  381MOL0     C51341   2.187   8.183  10.972 -0.3708  1.1554  0.7968
  381MOL0     C51342   2.198   8.029  10.958  0.7115 -0.9931 -0.5754
  381MOL0     C51343   2.350   7.990  10.919  0.0077 -0.3055 -1.0136
  381MOL0     C51344   2.421   7.918  11.041  0.2600 -0.5292 -0.1198
  381MOL0    Cl51345   2.575   7.844  10.994 -0.3216  0.4476 -0.4925
  381MOL0     C51346   2.605   8.305  11.261  0.0606 -0.4886 -0.7435
  381MOL0     C51347   2.727   8.336  11.206 -0.0325  0.8789 -0.3557
  381MOL0     O51348   2.872   8.395  10.950  0.0824  0.5597 -0.6021
  381MOL0     C51349   3.164   8.368  11.165  0.3649 -0.2301  0.5078
  381MOL0     C51350   3.301   8.325  11.168  0.3845  0.3468  0.9202
  381MOL0     N51351   3.745   8.669  11.528  0.1489 -0.5161 -0.1050
  381MOL0     N51352   3.834   8.641  11.612  0.1121 -0.0230  0.8673
  381MOL0     C51353   4.743   8.157  11.517 -0.4040  0.0056  0.3010
  381MOL0     C51354   4.738   8.082  11.400 -0.3983 -0.3065  0.5219
  381MOL0     C51355   4.670   7.725  11.143 -0.8530  0.6314 -0.4419
  381MOL0     C51356   4.584   7.761  11.047  0.0304 -0.7233 -0.4927
  381MOL0     C51357   4.560   7.690  10.930 -0.8094 -0.9070  0.1260
  381MOL0     C51358   4.628   7.564  10.908  0.2249  0.1292  0.8104
  381MOL0     O51359   4.622   7.494  10.782  0.6129 -0.1215 -0.3095
  381MOL0     C51360   4.606   7.570  10.663  1.7652 -0.4137  1.1464
  381MOL0     C51361   4.726   7.651  10.623 -0.0881 -0.3494 -0.3298
  381MOL0     C51362   4.744   7.713  10.493  0.2566 -0.3820  0.1107
  381MOL0     C51363   4.890   7.722  10.442 -0.1418  0.7795 -0.4014
  381MOL0     C51364   4.978   7.786  10.543 -0.0571  0.0757  0.3612
  381MOL0     C51365   5.063   7.828  10.626  0.7561  0.4607  0.2004
  381MOL0     C51366   4.706   7.509  11.020  0.4504 -0.7016  0.1764
  381MOL0     C51367   4.732   7.598  11.122  0.3535  0.7568  0.1419
  381MOL0     H51368   4.439   7.921  11.427  2.2887 -2.8066 -1.5800
  381MOL0     H51369   4.452   8.062  11.650  1.2662 -1.3187  2.4749
  381MOL0     H51370   4.697   8.366  11.846  1.3702  0.3963 -0.4434
  381MOL0     H51371   4.826   8.304  11.741 -0.2553 -2.0290  0.4277
  381MOL0     H51372   4.774   8.534  11.673  1.5114 -2.3939 -0.7744
  381MOL0     H51373   4.726   8.414  11.550 -1.3246 -2.0987  1.1405
  381MOL0     H51374   4.485   8.415  11.666 -1.4475  1.8390  2.5724
  381MOL0     H51375   4.536   8.572  11.726  0.9478  0.0490  0.0482
  381MOL0     H51376   4.563   8.669  11.526  1.7820 -0.4862  0.1540
  381MOL0     H51377   4.556   8.508  11.440 -1.7247 -3.9969  1.4327
  381MOL0     H51378   4.353   8.624  11.392  2.4019 -1.7731 -0.8918
  381MOL0     H51379   4.330   8.486  11.499 -0.0540 -0.6926  1.1283
  381MOL0     H51380   4.318   8.654  11.696  1.0523 -0.7003  0.0765
  381MOL0     H51381   4.335   8.776  11.561  0.1649 -0.5027 -0.2522
  381MOL0     H51382   4.102   8.781  11.614 -1.8459 -2.2505  1.9543
  381MOL0     H51383   4.135   8.697  11.458 -1.2717  0.2996  0.7359
  381MOL0     H51384   4.068   8.582  11.723 -2.2453  2.9119 -0.1838
  381MOL0     H51385   4.125   8.476  11.599  0.2240  0.8938  1.0701
  381MOL0     H51386   3.971   8.498  11.344  0.4434  1.1842 -1.2697
  381MOL0     H51387   3.589   8.628  11.300  0.3099  2.7569  1.3822
  381MOL0     H51388   3.726   8.700  11.225 -1.0131 -0.0848 -0.0417
  381MOL0     H51389   3.808   8.453  11.164 -0.9940 -2.7138 -2.4785
  381MOL0     H51390   3.664   8.510  11.088 -1.4862 -1.8635  0.3673
  381MOL0     H51391   3.556   8.404  11.304  0.8410 -2.8737  1.8972
  381MOL0     H51392   3.714   8.319  11.315 -0.1047 -3.0062 -1.5780
  381MOL0     H51393   3.558   8.168  11.198 -2.6575  1.3740  1.0977
  381MOL0     H51394   3.681   8.215  11.102  1.7213  2.5228  2.2594
  381MOL0     H51395   3.371   8.332  10.836  1.6804 -1.1126  0.4606
  381MOL0     H51396   3.027   8.460  10.777 -1.0137 -0.1509  1.0408
  381MOL0     H51397   3.200   8.430  10.728 -0.4391  0.0216 -0.4528
  381MOL0     H51398   3.088   8.298  10.748  2.0209  0.1568  1.1156
  381MOL0     H51399   2.713   8.667  11.210  4.1906 -0.8339  1.5826
  381MOL0     H51400   2.487   8.620  11.284  0.3573  0.7567 -1.0111
  381MOL0     H51401   2.220   8.403  11.448  1.0660  0.3849  0.5361
  381MOL0     H51402   2.311   8.545  11.382 -0.7899  0.6881 -1.6763
  381MOL0     H51403   2.082   8.408  11.274  0.6140 -1.2651  0.1050
  381MOL0     H51404   2.158   8.553  11.230 -2.5161 -0.6143  1.4938
  381MOL0     H51405   2.332   8.441  11.083 -2.0628  2.0799 -0.7252
  381MOL0     H51406   2.177   8.436  11.023  0.4743 -0.8794 -1.1229
  381MOL0     H51407   2.362   8.223  11.108  0.2021  0.6584 -1.3313
  381MOL0     H51408   2.213   8.193  11.187  1.0474 -1.5706 -0.2544
  381MOL0     H51409   2.232   8.228  10.883 -1.5419  1.6298  0.4237
  381MOL0     H51410   2.080   8.203  10.983 -0.9939 -1.5245  0.2422
  381MOL0     H51411   2.170   7.972  11.047  1.4895 -1.0693 -0.3744
  381MOL0     H51412   2.129   7.999  10.878 -0.7295 -0.3848  0.3893
  381MOL0     H51413   2.407   8.082  10.901  3.6166 -1.9894  0.8460
  381MOL0     H51414   2.361   7.937  10.823  1.9062 -1.7180 -0.0820
  381MOL0     H51415   2.353   7.843  11.082 -0.6462  0.3004 -0.0639
  381MOL0     H51416   2.437   8.002  11.110 -0.3513  1.6927 -2.5070
  381MOL0     H51417   2.575   8.201  11.265  0.0674 -0.4519  1.0698
  381MOL0     H51418   2.793   8.254  11.179  0.8930  1.1977  0.8324
  381MOL0     H51419   3.124   8.363  11.266 -0.5607 -1.3714  0.1012
  381MOL0     H51420   3.346   8.321  11.266  0.6720  0.4361  0.7922
  381MOL0     H51421   4.826   8.226  11.529 -0.1497 -0.1825 -0.3497
  381MOL0     H51422   4.814   8.100  11.324 -0.8636  0.6121  0.2536
  381MOL0     H51423   4.544   7.861  11.047 -1.0357 -1.0170  2.8720
  381MOL0     H51424   4.499   7.742  10.856 -2.9347 -4.5264 -0.9587
  381MOL0     H51425   4.563   7.512  10.581  0.6366  2.0970 -0.1536
  381MOL0     H51426   4.520   7.636  10.677  0.7710 -1.8685  2.2221
  381MOL0     H51427   4.813   7.587  10.641  0.2778  0.4964  1.0641
  381MOL0     H51428   4.740   7.730  10.697 -1.0802 -4.0758  4.4001
  381MOL0     H51429   4.710   7.816  10.502  1.6160 -0.0751  2.4617
  381MOL0     H51430   4.679   7.672  10.415 -1.7459 -0.2014  1.6323
  381MOL0     H51431   4.885   7.774  10.345 -0.5866  4.1315  1.2649
  381MOL0     H51432   4.933   7.622  10.437 -1.9396  0.0134 -1.4042
  381MOL0     H51433   5.136   7.876  10.687  0.8443 -0.5454  0.9034
  381MOL0     H51434   4.752   7.414  10.994 -1.2529 -1.0032 -2.1196
  381MOL0     H51435   4.798   7.561  11.200 -2.1472 -2.4937  0.8813
  382MOL0     O51436   8.599   5.079  10.865  0.3732 -0.5066 -0.7986
  382MOL0     C51437   8.698   5.112  10.931  0.1772  0.2725  0.3232
  382MOL0     O51438   8.760   5.229  10.913  0.4447  0.3813  0.6303
  382MOL0     C51439   8.759   5.284  10.783  0.3154 -0.3336  0.5248
  382MOL0     C51440   8.747   5.422  10.776 -0.4172  0.3320  0.2655
  382MOL0     C51441   8.763   5.489  10.651  0.1548 -0.1283 -0.0788
  382MOL0     C51442   8.799   5.412  10.539 -0.1866 -0.7058 -0.1353
  382MOL0     O51443   8.816   5.484  10.419 -0.4976  0.1400 -0.2041
  382MOL0     C51444   8.700   5.477  10.334 -0.1447 -0.5113 -0.7646
  382MOL0     C51445   8.718   5.563  10.216  0.2727  0.5564  0.0885
  382MOL0     C51446   8.587   5.591  10.156  0.4928 -0.3106  0.5304
  382MOL0     C51447   8.602   5.691  10.043 -0.0544 -0.5507  0.3876
  382MOL0     C51448   8.475   5.713   9.966  0.0128  0.0681 -0.9631
  382MOL0     C51449   8.504   5.794   9.842 -0.4959  0.0143  0.1212
  382MOL0     C51450   8.384   5.813   9.762  0.3012  0.8746  0.1962
  382MOL0     C51451   8.410   5.865   9.625 -0.2252 -0.0671 -0.2324
  382MOL0     N51452   8.285   5.922   9.584 -0.2868 -0.1828  0.6178
  382MOL0     C51453   8.178   5.853   9.547 -0.1275  0.0228 -0.0436
  382MOL0     C51454   8.079   5.942   9.517  0.3928  0.7968 -0.2859
  382MOL0     C51455   7.942   5.884   9.471  0.1407 -0.2334  0.3443
  382MOL0     C51456   7.884   5.965   9.355  0.1551  0.0718  0.2121
  382MOL0     C51457   7.781   5.895   9.269 -0.3909 -0.2252  0.9444
  382MOL0     C51458   7.672   5.992   9.216  0.5283  0.1155  0.8023
  382MOL0     O51459   7.610   6.041   9.335  0.8287  0.0182  0.5075
  382MOL0     C51460   7.516   5.963   9.402 -0.2585 -0.3584  0.0560
  382MOL0     C51461   7.468   5.836   9.370  1.0768  0.3800  1.1235
  382MOL0     C51462   7.369   5.775   9.453 -0.8905 -0.4835 -0.1974
  382MOL0     C51463   7.324   5.643   9.399 -0.6088  0.5791 -0.1782
  382MOL0     C51464   7.317   5.842   9.566  1.0083  0.3813  0.8817
  382MOL0     C51465   7.199   5.794   9.653  0.5485 -0.4845  0.5018
  382MOL0     O51466   7.176   5.848   9.776  0.0526  0.3052  0.4012
  382MOL0     C51467   7.048   5.859   9.825  0.5453  0.4383 -0.1042
  382MOL0     C51468   7.024   5.844   9.967  0.8279  0.1164  0.6668
  382MOL0     C51469   6.897   5.856  10.026 -0.1410 -0.0505  0.5798
  382MOL0     C51470   6.798   5.908   9.940  0.4941  0.7131 -0.3670
  382MOL0     O51471   6.678   5.930   9.997 -0.3472 -0.3842 -0.9278
  382MOL0     C51472   6.650   6.070  10.028 -0.1243  0.7756 -0.0287
  382MOL0     C51473   6.595   6.077  10.166  0.1056 -0.5241  0.6361
  382MOL0     C51474   6.565   6.205  10.235 -0.2036 -0.3448 -0.2178
  382MOL0     C51475   6.512   6.188  10.382 -0.0389  0.0807 -0.3259
  382MOL0     C51476   6.388   6.097  10.411  0.2990 -0.5900  0.3440
  382MOL0     C51477   6.264   6.145  10.337 -0.6114  0.6335 -0.5152
  382MOL0     C51478   6.142   6.053  10.368  0.8017 -0.1356 -0.1056
  382MOL0     C51479   6.111   6.044  10.514 -0.5953  0.1714 -0.4914
  382MOL0    Cl51480   6.173   5.894  10.572  0.3393  0.1734 -0.2650
  382MOL0     C51481   6.818   5.928   9.803 -0.5791 -0.5440 -0.4164
  382MOL0     C51482   6.945   5.917   9.743 -0.2943  0.4214 -0.1954
  382MOL0     O51483   7.116   5.722   9.594 -0.4819  0.0592  0.5399
  382MOL0     C51484   7.378   5.959   9.601  0.1989 -1.8379  0.2591
  382MOL0     C51485   7.475   6.017   9.517 -0.3217 -0.5011  0.4035
  382MOL0     N51486   8.136   6.069   9.535 -0.1086  0.4594  0.7262
  382MOL0     N51487   8.251   6.052   9.583 -0.3082  0.2595 -0.6426
  382MOL0     C51488   8.824   5.274  10.554  0.3315 -0.1660 -0.1519
  382MOL0     C51489   8.796   5.203  10.678 -0.9361  0.1097 -0.5311
  382MOL0     C51490   8.736   5.025  11.050 -0.5414 -0.5602  1.0040
  382MOL0     C51491   8.636   4.942  11.108 -0.1393  1.5827 -0.0184
  382MOL0     C51492   8.664   4.878  11.229  0.4173  0.2041  0.2598
  382MOL0     C51493   8.793   4.878  11.272  0.0574  0.1965 -0.2416
  382MOL0     O51494   8.822   4.802  11.387 -0.3823 -0.3776 -1.1229
  382MOL0     C51495   8.796   4.666  11.415 -0.3204  0.4106 -0.3516
  382MOL0     C51496   8.876   4.560  11.340  0.5621  0.5556  0.6848
  382MOL0     C51497   9.024   4.570  11.355 -0.0410  0.9412 -0.3376
  382MOL0     C51498   9.071   4.492  11.478 -0.3451 -0.1495 -1.2476
  382MOL0     C51499   9.069   4.343  11.461 -0.1898  0.3899 -0.2080
  382MOL0     C51500   9.040   4.221  11.438  0.1439 -0.4241  0.2281
  382MOL0     C51501   8.886   4.966  11.223 -0.6605  0.1151  0.1808
  382MOL0     C51502   8.863   5.044  11.117  0.7943  0.3602 -0.2902
  382MOL0     H51503   8.725   5.475  10.868 -2.2147 -0.9529  0.6425
  382MOL0     H51504   8.761   5.597  10.654  0.4608 -0.1217  2.1685
  382MOL0     H51505   8.696   5.371  10.309 -0.2987 -0.9104  0.8197
  382MOL0     H51506   8.606   5.507  10.383  0.6299  0.0438  0.4456
  382MOL0     H51507   8.758   5.660  10.246 -1.3649  1.2519  0.1015
  382MOL0     H51508   8.785   5.518  10.142  1.9184  1.7116  0.8173
  382MOL0     H51509   8.546   5.498  10.116 -0.5398  1.4754 -2.9703
  382MOL0     H51510   8.517   5.626  10.233  0.5916 -3.5059  2.2594
  382MOL0     H51511   8.640   5.786  10.082  0.7370 -0.3345 -0.8584
  382MOL0     H51512   8.669   5.650   9.966 -2.2895 -2.7502 -0.5183
  382MOL0     H51513   8.428   5.619   9.936 -1.4201  0.2516  0.5633
  382MOL0     H51514   8.401   5.759  10.032 -0.3064 -1.4685 -0.1757
  382MOL0     H51515   8.548   5.890   9.871  4.6244 -1.2875 -2.2681
  382MOL0     H51516   8.581   5.737   9.791  1.3915  0.4223  2.3618
  382MOL0     H51517   8.325   5.722   9.749  3.4024 -0.9995 -2.2314
  382MOL0     H51518   8.325   5.891   9.812  1.7348  1.3079  1.2591
  382MOL0     H51519   8.444   5.782   9.562  1.3766 -1.1551  1.9293
  382MOL0     H51520   8.480   5.948   9.633  2.0034 -1.7001 -1.6478
  382MOL0     H51521   8.162   5.747   9.536 -0.3605  0.3071 -3.1745
  382MOL0     H51522   7.953   5.777   9.447  0.4458 -0.5137  1.6440
  382MOL0     H51523   7.869   5.876   9.552 -0.5331 -1.9366 -0.3623
  382MOL0     H51524   7.971   5.975   9.289 -0.0121 -2.0930 -0.3972
  382MOL0     H51525   7.851   6.057   9.404  2.8771  0.4130  1.6108
  382MOL0     H51526   7.729   5.820   9.330 -2.6952  0.5403  0.0045
  382MOL0     H51527   7.846   5.852   9.191  0.4371  0.5368  1.1948
  382MOL0     H51528   7.610   5.932   9.150  0.5710 -0.4688  1.2866
  382MOL0     H51529   7.704   6.077   9.155  2.1234 -1.8807 -1.3260
  382MOL0     H51530   7.473   5.778   9.279 -0.4937 -0.8270  1.7576
  382MOL0     H51531   7.414   5.585   9.380 -1.3499 -0.6325 -0.1175
  382MOL0     H51532   7.270   5.583   9.474 -1.3070  0.7038 -0.5695
  382MOL0     H51533   7.269   5.647   9.305 -2.3493 -0.9585  0.7018
  382MOL0     H51534   7.092   5.784  10.025  2.7478  1.2376 -0.3330
  382MOL0     H51535   6.859   5.822  10.122  3.6668  0.2050  2.3455
  382MOL0     H51536   6.740   6.132  10.031 -0.0048  0.6263  3.6631
  382MOL0     H51537   6.563   6.102   9.969 -1.8358 -0.2038  1.8483
  382MOL0     H51538   6.513   6.006  10.162 -0.4599  0.1542 -0.8027
  382MOL0     H51539   6.666   6.031  10.235 -2.4212 -2.0222  2.3865
  382MOL0     H51540   6.495   6.258  10.170 -3.8626 -1.4422  2.4944
  382MOL0     H51541   6.645   6.278  10.248 -0.1048 -0.6728  1.2645
  382MOL0     H51542   6.589   6.142  10.445  1.5152 -0.0901 -2.2670
  382MOL0     H51543   6.497   6.285  10.431 -0.0158 -0.2974  0.4485
  382MOL0     H51544   6.370   6.081  10.517 -1.6964 -1.7402 -0.1052
  382MOL0     H51545   6.404   5.995  10.372 -3.3357 -1.4365  0.7263
  382MOL0     H51546   6.240   6.246  10.371 -1.5344  0.0415  0.6744
  382MOL0     H51547   6.286   6.148  10.230  0.9389 -1.1519 -0.3060
  382MOL0     H51548   6.163   5.955  10.322  2.6911 -0.4223  1.2804
  382MOL0     H51549   6.052   6.101  10.327  1.2984  2.1679  1.3434
  382MOL0     H51550   6.004   6.039  10.536 -0.5720  1.4849 -0.0019
  382MOL0     H51551   6.157   6.132  10.560 -2.7184  0.6026  0.9766
  382MOL0     H51552   6.743   5.968   9.736 -0.3849  0.0572 -0.2859
  382MOL0     H51553   6.968   5.932   9.638  0.6389 -0.0506 -0.0680
  382MOL0     H51554   7.351   6.017   9.689  1.1021 -1.4596  0.3037
  382MOL0     H51555   7.510   6.113   9.552 -0.6504 -0.6727  1.2224
  382MOL0     H51556   8.878   5.224  10.474  0.1858 -0.5730  0.0015
  382MOL0     H51557   8.818   5.098  10.695 -0.2223  0.1913 -0.8942
  382MOL0     H51558   8.531   4.945  11.080 -0.4848  3.0510  1.3160
  382MOL0     H51559   8.594   4.815  11.282  2.4736 -3.1872 -0.7105
  382MOL0     H51560   8.810   4.656  11.523 -0.8973  0.2978 -0.2860
  382MOL0     H51561   8.690   4.645  11.395 -0.9560  0.5464  2.4442
  382MOL0     H51562   8.855   4.567  11.233 -0.7659  1.2329  0.9653
  382MOL0     H51563   8.844   4.459  11.369  1.8869  0.0963  0.5981
  382MOL0     H51564   9.065   4.670  11.369  4.0466 -0.6707  0.9249
  382MOL0     H51565   9.077   4.534  11.267 -0.9097 -0.7685 -0.2106
  382MOL0     H51566   8.990   4.512  11.548  0.2786 -2.7930  0.3689
  382MOL0     H51567   9.163   4.529  11.523 -1.5234  1.4771 -0.0514
  382MOL0     H51568   9.002   4.124  11.414 -0.6151 -0.2003  0.4863
  382MOL0     H51569   8.978   4.970  11.281  0.6725  2.5477 -1.8782
  382MOL0     H51570   8.939   5.116  11.089 -0.3471  1.8361  0.2355
  383MOL0     O51571   7.049  10.688   9.240  0.2827 -0.0145  0.0506
  383MOL0     C51572   7.041  10.743   9.347 -0.2391  0.4147  0.0727
  383MOL0     O51573   6.975  10.698   9.461  0.7871  0.4230  0.3658
  383MOL0     C51574   6.858  10.630   9.429  0.4222  0.7750 -0.4592
  383MOL0     C51575   6.855  10.495   9.386 -0.3317 -0.3370  0.2393
  383MOL0     C51576   6.736  10.424   9.376  0.3989 -0.2714  0.2779
  383MOL0     C51577   6.615  10.491   9.394 -0.5319  0.1913 -0.0887
  383MOL0     O51578   6.497  10.424   9.395 -0.5835  0.4822  0.8163
  383MOL0     C51579   6.486  10.346   9.520  0.3800 -0.6520 -0.3519
  383MOL0     C51580   6.382  10.241   9.522  0.2457  0.0874 -0.1489
  383MOL0     C51581   6.243  10.309   9.528  0.4462 -0.2904 -0.6031
  383MOL0     C51582   6.144  10.188   9.528  0.1913  0.5290 -0.0829
  383MOL0     C51583   6.002  10.228   9.527  0.4842 -0.0925 -0.0050
  383MOL0     C51584   5.916  10.110   9.556 -0.0250  0.1817 -0.2432
  383MOL0     C51585   5.754  10.118   9.571 -1.3198 -0.1960 -0.2370
  383MOL0     C51586   5.698   9.972   9.598  0.0747 -0.2495  0.2515
  383MOL0     N51587   5.556   9.972   9.623  0.1856 -0.2701 -0.0553
  383MOL0     C51588   5.459   9.911   9.548 -0.4622 -0.5508 -0.3982
  383MOL0     C51589   5.347   9.962   9.601 -0.0022 -0.0842 -0.6056
  383MOL0     C51590   5.210   9.937   9.552  0.1219  0.2980 -0.2831
  383MOL0     C51591   5.189   9.873   9.414  0.0525 -0.2999  0.1874
  383MOL0     C51592   5.047   9.809   9.403  0.1858 -0.3449  0.4448
  383MOL0     C51593   5.002   9.801   9.262 -0.1111 -0.3833 -0.9739
  383MOL0     O51594   4.881   9.723   9.276  0.5617 -0.1389  0.4076
  383MOL0     C51595   4.812   9.686   9.165  0.3292 -0.8665  0.3991
  383MOL0     C51596   4.860   9.704   9.031  1.2725  0.5517  0.1279
  383MOL0     C51597   4.786   9.647   8.924 -0.5075 -0.2508  0.3755
  383MOL0     C51598   4.828   9.664   8.783  0.2863 -0.5141 -0.4326
  383MOL0     C51599   4.662   9.587   8.959  0.8554 -0.9160 -0.6842
  383MOL0     C51600   4.557   9.546   8.854 -0.2954 -0.1560  0.1049
  383MOL0     O51601   4.422   9.558   8.883 -0.6580 -0.2288 -0.8667
  383MOL0     C51602   4.333   9.535   8.784 -0.5104 -0.1015  0.5521
  383MOL0     C51603   4.323   9.610   8.661 -0.1468  0.7170  0.1113
  383MOL0     C51604   4.222   9.597   8.563 -0.1513  0.0481  0.2446
  383MOL0     C51605   4.113   9.503   8.589 -0.1730 -0.1464  0.7719
  383MOL0     O51606   4.010   9.480   8.497 -1.0362 -0.0583  0.0013
  383MOL0     C51607   3.912   9.376   8.507 -1.0395  0.3047  1.0939
  383MOL0     C51608   3.788   9.420   8.435  0.8793  0.3306 -0.3289
  383MOL0     C51609   3.696   9.508   8.524 -0.0011 -0.4798 -0.7583
  383MOL0     C51610   3.569   9.547   8.453 -0.0033  0.6154 -1.4370
  383MOL0     C51611   3.481   9.643   8.524  0.3546  0.8695  0.3512
  383MOL0     C51612   3.341   9.668   8.459 -0.3248 -0.1583 -0.4759
  383MOL0     C51613   3.240   9.724   8.555  0.4260  0.4915  0.7328
  383MOL0     C51614   3.250   9.872   8.551  0.1572  0.5262  0.4671
  383MOL0    Cl51615   3.181   9.951   8.404  0.4213  0.2283 -0.2026
  383MOL0     C51616   4.122   9.428   8.706  0.0792 -0.6461  0.9432
  383MOL0     C51617   4.220   9.449   8.806 -0.7476  0.1768 -0.9413
  383MOL0     O51618   4.603   9.491   8.751  0.4344 -0.5459 -0.3018
  383MOL0     C51619   4.615   9.573   9.092 -0.8586 -0.1476 -0.4292
  383MOL0     C51620   4.701   9.618   9.196 -0.0836  0.0228 -0.3140
  383MOL0     N51621   5.370  10.042   9.704 -0.0828  0.2529 -0.3704
  383MOL0     N51622   5.496  10.052   9.715 -0.4237  0.5690 -0.3107
  383MOL0     C51623   6.620  10.627   9.421 -0.3582 -0.6331 -0.9788
  383MOL0     C51624   6.737  10.696   9.448  0.0868  0.1322 -0.7775
  383MOL0     C51625   7.134  10.850   9.370 -0.0299 -0.0966  0.8296
  383MOL0     C51626   7.241  10.875   9.276  0.1598 -0.2134 -0.8788
  383MOL0     C51627   7.345  10.963   9.306 -0.5649 -0.5153  0.0203
  383MOL0     C51628   7.359  11.017   9.425 -0.1481 -0.1995 -0.3574
  383MOL0     O51629   7.471  11.094   9.459 -0.4917 -0.7224  0.5122
  383MOL0     C51630   7.503  11.115   9.600 -0.2471 -0.2679 -1.2430
  383MOL0     C51631   7.454  11.249   9.656 -0.6170  0.3449  0.0779
  383MOL0     C51632   7.516  11.366   9.578 -0.3611 -1.1755 -0.2129
  383MOL0     C51633   7.479  11.510   9.634 -0.6416  0.4701  0.7126
  383MOL0     C51634   7.549  11.606   9.546  0.3031  0.6516  0.7469
  383MOL0     C51635   7.619  11.682   9.485 -0.5429  0.3116 -0.2631
  383MOL0     C51636   7.248  10.998   9.516 -0.1195  0.3076  0.5154
  383MOL0     C51637   7.140  10.917   9.488 -0.1287  0.7376 -0.1447
  383MOL0     H51638   6.949  10.440   9.379 -0.4466 -0.6234  0.9392
  383MOL0     H51639   6.739  10.317   9.356 -1.9849 -0.8778  2.5554
  383MOL0     H51640   6.579  10.291   9.537 -0.1733 -1.5602 -0.2034
  383MOL0     H51641   6.465  10.409   9.607 -1.8528 -1.2931 -0.3682
  383MOL0     H51642   6.395  10.171   9.439 -0.8635 -2.6133  1.8258
  383MOL0     H51643   6.405  10.177   9.607  0.2613 -0.6913 -0.7257
  383MOL0     H51644   6.230  10.363   9.621  1.3549  4.2111 -2.8197
  383MOL0     H51645   6.227  10.367   9.436 -1.4315  2.2084  1.1828
  383MOL0     H51646   6.173  10.138   9.435  0.0043 -0.4026  0.3584
  383MOL0     H51647   6.163  10.112   9.604  1.6835  1.5884  0.6696
  383MOL0     H51648   5.999  10.308   9.601  2.0120 -0.5027  0.5428
  383MOL0     H51649   5.974  10.263   9.427 -0.5242 -1.8098 -0.3713
  383MOL0     H51650   5.933  10.036   9.476 -0.8647  0.3534 -0.6011
  383MOL0     H51651   5.956  10.060   9.645  0.5039  1.5838  0.3242
  383MOL0     H51652   5.737  10.194   9.648 -1.4971 -1.2870  0.8330
  383MOL0     H51653   5.713  10.160   9.479  0.5211  1.2676 -0.4602
  383MOL0     H51654   5.751   9.944   9.689  2.1948  1.0550 -0.4909
  383MOL0     H51655   5.714   9.906   9.511 -1.7296  1.2513 -1.2993
  383MOL0     H51656   5.468   9.840   9.466  0.4670 -2.1007  0.9959
  383MOL0     H51657   5.159   9.875   9.626 -2.9299 -2.8931 -4.5390
  383MOL0     H51658   5.159  10.034   9.550 -0.6754 -0.1112 -2.1946
  383MOL0     H51659   5.266   9.799   9.392  1.0784  0.7252  0.2482
  383MOL0     H51660   5.198   9.947   9.334  0.3028  0.3205  0.7809
  383MOL0     H51661   4.966   9.858   9.458 -0.1354 -0.4068  0.0311
  383MOL0     H51662   5.043   9.710   9.450 -0.7639 -1.0939 -1.1386
  383MOL0     H51663   5.066   9.733   9.206  0.2929 -0.8413  0.0095
  383MOL0     H51664   4.986   9.893   9.206 -3.4888  0.8625  1.6856
  383MOL0     H51665   4.950   9.762   9.017  0.6994  1.2548 -0.7528
  383MOL0     H51666   4.778   9.738   8.720 -2.1768 -3.0972 -1.7328
  383MOL0     H51667   4.933   9.694   8.782 -0.1599  1.1368 -0.1714
  383MOL0     H51668   4.816   9.571   8.726 -3.1965  0.4795 -1.5891
  383MOL0     H51669   4.399   9.684   8.639  1.8738 -1.5514 -0.8897
  383MOL0     H51670   4.229   9.665   8.478  2.9501 -1.9048 -1.2528
  383MOL0     H51671   3.937   9.276   8.471 -2.1243  1.1360 -2.3435
  383MOL0     H51672   3.876   9.367   8.610 -1.5227 -2.0349  0.7639
  383MOL0     H51673   3.814   9.476   8.344 -0.0298 -1.3183 -1.6687
  383MOL0     H51674   3.723   9.337   8.406 -0.0977  0.2899  1.8378
  383MOL0     H51675   3.743   9.601   8.555  0.4056 -0.2068 -2.1082
  383MOL0     H51676   3.663   9.449   8.610  1.3641 -0.1003  0.0504
  383MOL0     H51677   3.605   9.577   8.354  2.3202  0.4197 -0.7317
  383MOL0     H51678   3.508   9.459   8.432  3.2943 -2.2614 -0.0743
  383MOL0     H51679   3.524   9.744   8.525  3.0587 -0.1835  1.2390
  383MOL0     H51680   3.471   9.604   8.626 -0.5056 -0.6378 -0.2755
  383MOL0     H51681   3.356   9.745   8.382  1.7802  1.3333  1.3046
  383MOL0     H51682   3.294   9.575   8.424  0.6895 -0.6720 -0.4989
  383MOL0     H51683   3.261   9.688   8.656  1.5665  0.1105  0.3727
  383MOL0     H51684   3.139   9.694   8.525  0.5677  1.6454 -1.0718
  383MOL0     H51685   3.355   9.904   8.555  0.3508  0.1872 -1.1760
  383MOL0     H51686   3.187   9.924   8.623 -1.9756 -2.1133  0.6548
  383MOL0     H51687   4.048   9.353   8.736 -2.4460  0.7077 -1.4937
  383MOL0     H51688   4.224   9.411   8.908 -1.1290  1.3737 -0.4522
  383MOL0     H51689   4.527   9.513   9.113 -0.2894 -0.6758  0.5108
  383MOL0     H51690   4.682   9.583   9.297  0.0356 -0.4434 -0.4513
  383MOL0     H51691   6.528  10.679   9.442  1.3728  1.9128  0.8396
  383MOL0     H51692   6.727  10.797   9.487  0.3278  1.4364 -3.8025
  383MOL0     H51693   7.246  10.831   9.177 -0.1664 -0.9984 -0.5533
  383MOL0     H51694   7.424  10.985   9.235 -0.6036  0.9945  0.4168
  383MOL0     H51695   7.456  11.039   9.662 -1.0892  2.4271  1.7044
  383MOL0     H51696   7.610  11.106   9.622 -0.4853 -0.7745 -0.2374
  383MOL0     H51697   7.486  11.258   9.760  0.4781 -3.1096  0.1571
  383MOL0     H51698   7.346  11.254   9.642 -0.4703  1.6704 -0.7600
  383MOL0     H51699   7.473  11.356   9.478 -0.9385  0.5450 -0.1744
  383MOL0     H51700   7.622  11.342   9.582 -0.4363 -1.3827  0.5950
  383MOL0     H51701   7.499  11.533   9.739 -0.9566  1.5078  0.5534
  383MOL0     H51702   7.371  11.520   9.621 -0.8727 -2.3190 -0.3184
  383MOL0     H51703   7.685  11.755   9.442  0.1041 -1.8780 -3.3263
  383MOL0     H51704   7.246  11.048   9.612  0.9305 -1.6865  1.6275
  383MOL0     H51705   7.060  10.900   9.559  1.3594 -0.6900  1.3128
  384MOL0     O51706   8.368   9.456   0.680 -0.1207 -0.1026  0.9926
  384MOL0     C51707   8.290   9.360   0.654 -1.0517  0.7361 -0.1635
  384MOL0     O51708   8.165   9.341   0.720 -0.4204  0.4890 -0.1973
  384MOL0     C51709   8.100   9.440   0.797  0.3380 -0.6109 -0.0816
  384MOL0     C51710   7.994   9.378   0.868 -0.2132  0.5341  0.6686
  384MOL0     C51711   7.916   9.460   0.946 -0.0098 -0.1974 -0.4222
  384MOL0     C51712   7.935   9.595   0.969 -0.3934 -0.7298 -0.0113
  384MOL0     O51713   7.869   9.690   1.051  0.3543  0.3905  0.1590
  384MOL0     C51714   7.789   9.638   1.158 -0.1048 -0.6663 -0.5289
  384MOL0     C51715   7.778   9.741   1.271 -0.5386  0.1611 -0.6493
  384MOL0     C51716   7.911   9.770   1.336  0.2785 -0.6659 -0.2121
  384MOL0     C51717   7.900   9.888   1.440 -0.5105 -0.3601  0.1980
  384MOL0     C51718   7.870  10.030   1.387  0.2108  0.3988 -0.1473
  384MOL0     C51719   7.898  10.138   1.492  0.5481 -0.1372 -0.4212
  384MOL0     C51720   8.029  10.127   1.565  0.2110 -0.4462  0.7673
  384MOL0     C51721   8.070  10.241   1.661  0.4125 -0.5074 -0.5027
  384MOL0     N51722   8.200  10.204   1.710 -0.4605  0.5035 -0.0282
  384MOL0     C51723   8.215  10.143   1.830  0.0918  0.2552  0.3944
  384MOL0     C51724   8.352  10.145   1.856  0.8370  0.1955  0.2873
  384MOL0     C51725   8.433  10.080   1.967  0.1432 -0.0298 -0.3864
  384MOL0     C51726   8.383  10.133   2.092 -0.3427  0.7529 -0.8409
  384MOL0     C51727   8.458  10.265   2.132  0.0569 -0.2510 -0.3850
  384MOL0     C51728   8.407  10.400   2.069 -0.4357  0.2326 -0.5767
  384MOL0     O51729   8.499  10.506   2.087  0.2314  0.4336  0.3885
  384MOL0     C51730   8.618  10.517   2.018  0.0759  0.2610  0.6544
  384MOL0     C51731   8.662  10.428   1.914  0.6372 -0.3753  0.6450
  384MOL0     C51732   8.787  10.441   1.853  0.0938 -0.3300  0.7662
  384MOL0     C51733   8.815  10.342   1.740 -0.3727  0.9070  0.1754
  384MOL0     C51734   8.872  10.548   1.900  0.5223  0.6722 -0.1985
  384MOL0     C51735   9.013  10.574   1.850 -0.2460  0.0014  0.5163
  384MOL0     O51736   9.054  10.695   1.886  0.9481 -0.1211 -0.1984
  384MOL0     C51737   9.182  10.736   1.862 -0.0208  0.2233 -0.0923
  384MOL0     C51738   9.184  10.836   1.768  0.3037 -0.0204 -0.7842
  384MOL0     C51739   9.303  10.902   1.746 -0.1091 -0.6790  0.4284
  384MOL0     C51740   9.427  10.864   1.810 -0.4624 -0.1363 -0.7132
  384MOL0     O51741   9.540  10.942   1.807  0.0938  0.0117  0.2639
  384MOL0     C51742   9.676  10.887   1.814 -0.5930 -0.1216  0.4269
  384MOL0     C51743   9.772  10.988   1.751 -0.1199 -1.2362  0.3898
  384MOL0     C51744   9.728  11.033   1.605 -0.0857 -0.8283 -0.3788
  384MOL0     C51745   9.853  11.097   1.547  0.7108 -0.0374 -0.6596
  384MOL0     C51746   9.834  11.123   1.394  0.1013  0.0883 -0.0545
  384MOL0     C51747   9.783  11.263   1.354  0.0238  0.3110  0.3392
  384MOL0     C51748   9.780  11.265   1.196 -0.6611 -0.4220  0.5863
  384MOL0     C51749   9.733  11.409   1.153  0.9501 -0.7501  0.2640
  384MOL0    Cl51750   9.558  11.426   1.183  0.2991  0.0504 -0.1800
  384MOL0     C51751   9.419  10.760   1.894 -0.2778  0.1805 -0.8984
  384MOL0     C51752   9.305  10.685   1.928 -0.4892 -0.4216  0.8761
  384MOL0     O51753   9.084  10.493   1.795 -0.2044  0.0106 -0.0610
  384MOL0     C51754   8.812  10.643   1.988 -0.1384 -0.9662  0.3519
  384MOL0     C51755   8.695  10.622   2.052 -1.0659  0.5433  0.4970
  384MOL0     N51756   8.412  10.206   1.751 -0.0626 -0.1947  0.2914
  384MOL0     N51757   8.317  10.247   1.661 -0.1121  0.5430 -0.2136
  384MOL0     C51758   8.036   9.652   0.900 -0.3337 -0.0408 -0.1935
  384MOL0     C51759   8.124   9.574   0.816 -0.1485  0.9364 -0.6290
  384MOL0     C51760   8.327   9.249   0.565 -1.1031 -0.5039  1.0918
  384MOL0     C51761   8.266   9.129   0.556 -0.3238  0.5363 -0.6341
  384MOL0     C51762   8.297   9.037   0.456  0.0808  0.6820 -0.1918
  384MOL0     C51763   8.398   9.057   0.364 -0.4952 -0.5382  0.2885
  384MOL0     O51764   8.419   8.963   0.265 -0.0704 -0.0814  0.3091
  384MOL0     C51765   8.515   8.863   0.302  1.0615  0.2037  0.6171
  384MOL0     C51766   8.655   8.913   0.274  0.6071 -0.2202  0.1331
  384MOL0     C51767   8.679   8.934   0.123  0.3164 -0.2525 -0.2259
  384MOL0     C51768   8.753   9.059   0.081  0.2988  0.4536  0.7916
  384MOL0     C51769   8.894   9.037   0.074 -0.8915 -0.4787 -0.3010
  384MOL0     C51770   9.015   9.019   0.077 -0.4464  0.4944 -0.9078
  384MOL0     C51771   8.468   9.177   0.374  0.1307  0.6751 -0.6500
  384MOL0     C51772   8.433   9.271   0.481  0.0743 -0.1119  0.8758
  384MOL0     H51773   7.988   9.270   0.856 -1.3190  0.4575  1.7360
  384MOL0     H51774   7.827   9.421   0.995 -0.5837  2.0616  0.4334
  384MOL0     H51775   7.683   9.633   1.131 -0.2567  3.8208 -1.6051
  384MOL0     H51776   7.822   9.548   1.211 -0.1697 -0.0955  0.5203
  384MOL0     H51777   7.737   9.833   1.230 -1.0918  0.7602  1.1674
  384MOL0     H51778   7.715   9.694   1.347 -2.4104 -0.2155 -2.3389
  384MOL0     H51779   7.961   9.683   1.379  2.4819 -0.1639 -1.5871
  384MOL0     H51780   7.980   9.802   1.257 -0.4039 -3.7124 -2.2513
  384MOL0     H51781   7.828   9.860   1.517 -0.1600  0.2335  0.7493
  384MOL0     H51782   7.997   9.875   1.487  0.0241  1.9732 -0.1346
  384MOL0     H51783   7.935  10.050   1.301  1.9968  1.7654  1.4391
  384MOL0     H51784   7.762  10.040   1.369 -0.2136  1.5354  2.6229
  384MOL0     H51785   7.888  10.229   1.432  3.3638 -0.3188 -1.2840
  384MOL0     H51786   7.818  10.136   1.567 -0.6730  2.4207 -1.5312
  384MOL0     H51787   8.032  10.042   1.634 -1.8773 -0.6172  0.7194
  384MOL0     H51788   8.112  10.118   1.494  0.3822  2.7762  0.4068
  384MOL0     H51789   7.994  10.246   1.739  0.8250 -2.3530  0.0481
  384MOL0     H51790   8.067  10.340   1.614  2.2744  0.2233  0.7942
  384MOL0     H51791   8.142  10.097   1.896 -2.1324  2.1174 -0.6340
  384MOL0     H51792   8.426   9.971   1.961  3.0297 -0.2326 -3.7154
  384MOL0     H51793   8.537  10.105   1.942  0.4438 -0.4190  0.4323
  384MOL0     H51794   8.401  10.059   2.171  0.4057  3.0040  1.1837
  384MOL0     H51795   8.274  10.145   2.092 -0.5385 -0.6427  0.7772
  384MOL0     H51796   8.565  10.249   2.115  0.4211 -0.6787  1.8965
  384MOL0     H51797   8.453  10.288   2.239  2.2704  3.3762 -0.9023
  384MOL0     H51798   8.307  10.430   2.104 -0.2974  0.1254 -0.0688
  384MOL0     H51799   8.396  10.397   1.961 -0.3946 -0.9732 -0.5585
  384MOL0     H51800   8.598  10.364   1.855  0.8660  1.6834 -2.0120
  384MOL0     H51801   8.795  10.390   1.644  2.3797  3.2933  0.6588
  384MOL0     H51802   8.920  10.313   1.733 -0.1148  1.9821 -0.6632
  384MOL0     H51803   8.755  10.252   1.756  1.8383 -0.7265 -0.2821
  384MOL0     H51804   9.091  10.861   1.718 -0.1466  0.2049  0.1614
  384MOL0     H51805   9.295  10.993   1.688 -1.0415  0.3955  2.1619
  384MOL0     H51806   9.702  10.859   1.917  2.0976 -2.6347 -0.7629
  384MOL0     H51807   9.689  10.803   1.745 -2.1001  2.0772 -2.7953
  384MOL0     H51808   9.763  11.076   1.815 -2.3799 -0.8851 -0.3117
  384MOL0     H51809   9.871  10.942   1.738  0.2699 -0.2523 -0.2717
  384MOL0     H51810   9.640  11.097   1.605 -0.8748 -1.8858 -0.6074
  384MOL0     H51811   9.709  10.946   1.541 -1.1741 -2.1300  1.6443
  384MOL0     H51812   9.874  11.183   1.610  0.6198 -1.8456  1.9822
  384MOL0     H51813   9.942  11.035   1.559  0.8297  0.4902  1.5057
  384MOL0     H51814   9.744  11.071   1.361 -1.3325  1.5268  1.3904
  384MOL0     H51815   9.918  11.089   1.331 -2.1565  0.2450 -3.4344
  384MOL0     H51816   9.678  11.284   1.379 -0.1462  0.1979 -0.2489
  384MOL0     H51817   9.844  11.343   1.397  1.8002  0.2372 -1.8635
  384MOL0     H51818   9.711  11.186   1.165 -0.9061 -0.7891  1.9938
  384MOL0     H51819   9.876  11.228   1.157  0.2576  1.3408  1.0589
  384MOL0     H51820   9.752  11.424   1.046 -0.4055 -3.3088 -0.4203
  384MOL0     H51821   9.785  11.484   1.213 -2.6964 -0.5946  3.6259
  384MOL0     H51822   9.513  10.734   1.942  0.2374  3.2459 -0.0776
  384MOL0     H51823   9.301  10.606   2.002  0.4949  0.4618  1.8971
  384MOL0     H51824   8.871  10.728   2.020  2.7092 -1.3698 -3.1627
  384MOL0     H51825   8.668  10.689   2.133 -0.7236  0.7924  0.4060
  384MOL0     H51826   8.061   9.757   0.907 -1.4702  0.1147  3.1379
  384MOL0     H51827   8.206   9.627   0.769  1.8217 -1.4133 -0.0605
  384MOL0     H51828   8.190   9.113   0.632  1.2080  0.6639  0.9759
  384MOL0     H51829   8.235   8.949   0.442  2.6821 -0.9540 -2.5844
  384MOL0     H51830   8.507   8.844   0.410 -2.9351  2.3692  0.9235
  384MOL0     H51831   8.490   8.768   0.255 -0.0884  1.5094 -1.5467
  384MOL0     H51832   8.730   8.844   0.312  1.5103  0.5633 -0.1926
  384MOL0     H51833   8.670   9.009   0.324 -1.0411  1.3879 -2.2202
  384MOL0     H51834   8.584   8.929   0.069 -0.5695  1.5044  1.0619
  384MOL0     H51835   8.731   8.844   0.089  0.6726  0.4034 -1.4679
  384MOL0     H51836   8.726   9.146   0.142 -1.1022  1.4351 -1.1208
  384MOL0     H51837   8.728   9.086  -0.022 -2.4997 -0.7870  1.0434
  384MOL0     H51838   9.120   9.009   0.056 -0.4817  2.8946 -2.6671
  384MOL0     H51839   8.541   9.200   0.297  3.7946 -1.8331  1.7452
  384MOL0     H51840   8.497   9.358   0.493 -0.7219  0.6155  0.0199
  385MOL0     O51841   2.702   6.330  10.254 -0.1560  0.8168  0.5517
  385MOL0     C51842   2.750   6.273  10.349  0.0188  0.0005  0.1444
  385MOL0     O51843   2.681   6.195  10.436  0.3173  0.1138  0.4369
  385MOL0     C51844   2.540   6.202  10.426 -0.0509 -0.1826  0.2536
  385MOL0     C51845   2.473   6.312  10.467  1.2262 -0.2605 -0.3053
  385MOL0     C51846   2.330   6.307  10.475 -0.5525  0.3097  0.2122
  385MOL0     C51847   2.254   6.202  10.436  0.1699  0.6772  0.0129
  385MOL0     O51848   2.115   6.194  10.430 -0.7777 -0.3611  0.3908
  385MOL0     C51849   2.044   6.315  10.470  0.2094 -0.7340  0.2182
  385MOL0     C51850   1.903   6.290  10.474  0.8035 -0.7373 -0.2257
  385MOL0     C51851   1.818   6.422  10.484  0.6272 -0.3433 -0.0725
  385MOL0     C51852   1.668   6.381  10.511 -0.5393  0.2613 -0.2332
  385MOL0     C51853   1.590   6.506  10.565 -1.0336  0.9336 -0.2439
  385MOL0     C51854   1.469   6.467  10.635  0.7989 -0.2441  0.1388
  385MOL0     C51855   1.352   6.410  10.543  0.4262  0.1984  0.2643
  385MOL0     C51856   1.220   6.451  10.604  0.0106 -0.8992  0.0076
  385MOL0     N51857   1.111   6.400  10.524  0.1556 -0.6311  0.1143
  385MOL0     C51858   1.052   6.275  10.537  0.2241  0.7105  0.3736
  385MOL0     C51859   0.965   6.272  10.436 -0.0708 -0.2618  0.9608
  385MOL0     C51860   0.924   6.137  10.389 -0.0691  0.6629 -0.2704
  385MOL0     C51861   0.780   6.130  10.421  1.2362  0.6640  0.6169
  385MOL0     C51862   0.714   5.993  10.398  0.6121 -0.2834  0.7735
  385MOL0     C51863   0.636   5.984  10.266  0.1130  0.1914 -0.0110
  385MOL0     O51864   0.497   6.007  10.288 -0.2276  0.8757  0.1701
  385MOL0     C51865   0.414   5.907  10.253 -0.3967  0.5153  0.2330
  385MOL0     C51866   0.361   5.814  10.345 -0.3569  0.6307  0.0364
  385MOL0     C51867   0.269   5.717  10.308  0.6594 -0.1350 -0.4490
  385MOL0     C51868   0.232   5.625  10.423  0.0078 -0.0494  1.5917
  385MOL0     C51869   0.219   5.714  10.175  0.2960 -0.3294  0.9954
  385MOL0     C51870   0.116   5.620  10.120  0.2443 -0.5012 -0.3363
  385MOL0     O51871   0.060   5.673  10.002 -0.0184 -0.3496  0.2992
  385MOL0     C51872  -0.074   5.638   9.978  0.1046 -0.4239  0.3016
  385MOL0     C51873  -0.173   5.591  10.069 -0.0301 -0.8619  0.1071
  385MOL0     C51874  -0.299   5.560  10.028 -0.0093  0.0160 -0.2856
  385MOL0     C51875  -0.341   5.572   9.894  0.6831  0.2653 -0.6412
  385MOL0     O51876  -0.466   5.526   9.872  0.0763 -0.3682 -0.1460
  385MOL0     C51877  -0.523   5.557   9.738 -0.5612 -0.2755 -0.3953
  385MOL0     C51878  -0.679   5.546   9.748  0.7349 -0.1683  0.7565
  385MOL0     C51879  -0.744   5.415   9.766  0.5875  0.3769  0.8272
  385MOL0     C51880  -0.880   5.405   9.715  0.3733 -0.5157  0.0572
  385MOL0     C51881  -0.967   5.284   9.747  0.4328  0.1661 -0.1370
  385MOL0     C51882  -0.904   5.144   9.724 -0.7185 -0.7351 -0.6004
  385MOL0     C51883  -1.010   5.028   9.724 -0.8602 -0.1984  0.5026
  385MOL0     C51884  -0.965   4.888   9.721  0.6565 -0.7795  1.0325
  385MOL0    Cl51885  -0.867   4.869   9.578  0.2705  0.0024  0.0864
  385MOL0     C51886  -0.246   5.622   9.801  0.6778  0.7315 -0.3432
  385MOL0     C51887  -0.112   5.652   9.842  0.4675 -0.9722  0.4767
  385MOL0     O51888   0.093   5.511  10.178  0.4593 -0.6056  0.4312
  385MOL0     C51889   0.288   5.793  10.079 -0.4284 -0.0440 -0.0050
  385MOL0     C51890   0.374   5.894  10.121 -0.2577  1.0861 -0.5409
  385MOL0     N51891   0.948   6.398  10.372 -0.7537  0.4567  0.6241
  385MOL0     N51892   1.039   6.471  10.426 -0.0147 -0.3095 -0.3705
  385MOL0     C51893   2.322   6.085  10.394 -0.8967  0.1972 -0.4701
  385MOL0     C51894   2.468   6.093  10.392 -0.3451  0.6893 -0.0624
  385MOL0     C51895   2.895   6.292  10.369 -0.0054 -0.8942 -0.5471
  385MOL0     C51896   2.973   6.386  10.299  0.0850  0.7642 -0.9307
  385MOL0     C51897   3.111   6.399  10.328  0.6699 -0.2908  0.3387
  385MOL0     C51898   3.170   6.333  10.431  0.4613  0.2529 -0.3154
  385MOL0     O51899   3.302   6.350  10.474 -0.3798 -0.0946 -0.3092
  385MOL0     C51900   3.396   6.383  10.375 -0.2607 -0.1739 -0.4368
  385MOL0     C51901   3.530   6.337  10.423 -0.5849  0.0111 -0.0880
  385MOL0     C51902   3.624   6.335  10.310  0.1232 -0.1919  0.6550
  385MOL0     C51903   3.658   6.463  10.235 -0.5703  0.5152 -0.0007
  385MOL0     C51904   3.731   6.549  10.334 -0.3820  0.1016  0.2041
  385MOL0     C51905   3.792   6.635  10.392 -0.0249 -0.2064  0.4224
  385MOL0     C51906   3.087   6.254  10.509 -0.6054  0.5015  0.2079
  385MOL0     C51907   2.956   6.229  10.477  0.4864 -0.3258  0.4225
  385MOL0     H51908   2.531   6.402  10.483  1.0577  0.0517 -1.4064
  385MOL0     H51909   2.291   6.401  10.512 -1.5481 -0.0546  0.1185
  385MOL0     H51910   2.086   6.347  10.567  2.8128 -1.9691 -0.4192
  385MOL0     H51911   2.072   6.383  10.389  0.4176 -1.4012 -0.2691
  385MOL0     H51912   1.881   6.233  10.384  0.9271 -0.1959 -0.6003
  385MOL0     H51913   1.874   6.219  10.553 -0.7434  1.0926  0.9530
  385MOL0     H51914   1.861   6.484  10.563 -0.4969  0.4053 -0.0256
  385MOL0     H51915   1.820   6.467  10.384  0.0782 -2.0853 -0.9163
  385MOL0     H51916   1.615   6.353  10.420  0.8197  1.1571 -1.3363
  385MOL0     H51917   1.655   6.313  10.595 -0.7292  2.1200  1.3111
  385MOL0     H51918   1.650   6.562  10.639 -0.6862 -1.9758  1.8434
  385MOL0     H51919   1.566   6.567  10.478 -2.9362 -0.1469 -0.5201
  385MOL0     H51920   1.490   6.406  10.724 -1.1390  2.6690  2.8020
  385MOL0     H51921   1.445   6.565  10.677  2.0543  0.7043 -1.2563
  385MOL0     H51922   1.360   6.456  10.444  1.0551  3.0170  1.5180
  385MOL0     H51923   1.361   6.301  10.537  1.3398  0.2409  0.7224
  385MOL0     H51924   1.205   6.559  10.600  0.7001 -0.7430  1.3192
  385MOL0     H51925   1.216   6.425  10.710  0.6911  1.3245  0.6119
  385MOL0     H51926   1.084   6.202  10.612  1.4146  0.6605 -0.1575
  385MOL0     H51927   0.940   6.119  10.282 -1.3704 -1.7984 -0.1305
  385MOL0     H51928   0.975   6.054  10.438 -1.3902 -2.2914 -3.4722
  385MOL0     H51929   0.727   6.213  10.374  0.3977  0.4906  1.2210
  385MOL0     H51930   0.772   6.136  10.530  0.8819 -0.9263  0.6974
  385MOL0     H51931   0.647   5.965  10.480 -1.1837 -0.0057 -0.5445
  385MOL0     H51932   0.790   5.915  10.393  1.2784  0.4486 -2.0033
  385MOL0     H51933   0.650   5.884  10.225 -2.7547 -1.3864  2.4725
  385MOL0     H51934   0.690   6.048  10.195  2.6702 -1.4371  0.3486
  385MOL0     H51935   0.394   5.802  10.447 -0.3258 -1.6142 -0.1869
  385MOL0     H51936   0.256   5.664  10.522  0.2979 -1.5021  2.1213
  385MOL0     H51937   0.125   5.599  10.417 -0.1010  0.6516 -3.1905
  385MOL0     H51938   0.279   5.529  10.398 -1.7525 -0.4920 -0.2901
  385MOL0     H51939  -0.136   5.570  10.168  2.3389  0.6001 -0.3818
  385MOL0     H51940  -0.369   5.518  10.100 -1.3467 -0.5052 -1.8239
  385MOL0     H51941  -0.503   5.665   9.733 -0.0684 -0.2148  1.9331
  385MOL0     H51942  -0.485   5.506   9.649 -5.9467 -1.3335 -2.5054
  385MOL0     H51943  -0.720   5.608   9.828 -0.9617  0.3708 -0.4860
  385MOL0     H51944  -0.718   5.581   9.652  1.8364 -0.1820  0.2908
  385MOL0     H51945  -0.748   5.396   9.874 -1.4606  3.9995  1.5568
  385MOL0     H51946  -0.689   5.333   9.719 -1.4684  0.5453 -2.1557
  385MOL0     H51947  -0.938   5.486   9.759  0.0518 -0.3448 -0.6758
  385MOL0     H51948  -0.876   5.424   9.607 -1.8046  1.7231  0.3105
  385MOL0     H51949  -1.058   5.295   9.687  1.2277  5.1601 -0.8643
  385MOL0     H51950  -1.000   5.286   9.851  0.2975 -2.3504 -0.0678
  385MOL0     H51951  -0.855   5.140   9.626 -1.6954 -5.1257 -1.1334
  385MOL0     H51952  -0.831   5.124   9.802 -4.3799 -0.2155  3.3331
  385MOL0     H51953  -1.069   5.051   9.635  0.6215  1.6667 -0.0698
  385MOL0     H51954  -1.080   5.049   9.805 -1.2632  1.0325 -0.1418
  385MOL0     H51955  -1.060   4.835   9.707 -0.8706  2.4632 -3.6741
  385MOL0     H51956  -0.922   4.843   9.810  0.7742 -2.6200  0.0913
  385MOL0     H51957  -0.271   5.621   9.695  1.4190 -0.7136 -0.5362
  385MOL0     H51958  -0.054   5.681   9.755 -3.1711 -0.6521 -2.0949
  385MOL0     H51959   0.278   5.761   9.976 -2.1371  1.4643 -0.3676
  385MOL0     H51960   0.433   5.944  10.044 -0.3435  0.5762 -0.9476
  385MOL0     H51961   2.259   6.002  10.363 -3.1482  1.9366 -0.7857
  385MOL0     H51962   2.516   5.998  10.369  3.6678  1.7262  2.9201
  385MOL0     H51963   2.922   6.450  10.227  0.6562  0.4097 -1.6586
  385MOL0     H51964   3.164   6.471  10.267  0.1684  0.3756  0.6769
  385MOL0     H51965   3.368   6.337  10.280  1.5251 -0.5829 -0.7989
  385MOL0     H51966   3.401   6.492  10.365 -2.5081  0.0169  0.0018
  385MOL0     H51967   3.528   6.235  10.460  3.6009  0.2028  1.0574
  385MOL0     H51968   3.570   6.403  10.500  1.1015  2.1840 -2.6224
  385MOL0     H51969   3.594   6.271  10.227 -0.2565  2.2390 -1.1819
  385MOL0     H51970   3.717   6.292  10.348  1.8050  1.5302 -1.2588
  385MOL0     H51971   3.568   6.517  10.203 -0.9415 -0.5506 -0.7904
  385MOL0     H51972   3.718   6.428  10.151  0.0380  0.3448  0.4941
  385MOL0     H51973   3.843   6.713  10.446  2.8604 -2.5043  1.3251
  385MOL0     H51974   3.138   6.204  10.591 -0.5339 -0.5514 -0.4544
  385MOL0     H51975   2.899   6.167  10.545 -1.6304  1.4108  0.3245
  386MOL0     O51976   0.325   3.395   2.393 -0.3811 -0.4923 -0.7890
  386MOL0     C51977   0.369   3.502   2.348 -0.2203  1.5254 -0.4811
  386MOL0     O51978   0.302   3.615   2.358  0.8981  0.0163 -0.5813
  386MOL0     C51979   0.176   3.614   2.425 -0.0484 -0.3954 -0.2341
  386MOL0     C51980   0.160   3.669   2.557 -0.0052  0.1454 -0.0324
  386MOL0     C51981   0.044   3.649   2.634  0.4453 -0.3381 -0.3019
  386MOL0     C51982  -0.075   3.602   2.570 -0.3919 -0.5850 -0.1436
  386MOL0     O51983  -0.198   3.594   2.636 -0.4623 -0.0660 -0.4817
  386MOL0     C51984  -0.197   3.610   2.780  0.4405  0.1756 -0.0328
  386MOL0     C51985  -0.349   3.594   2.834 -0.3533 -0.8562  0.3406
  386MOL0     C51986  -0.442   3.675   2.743  0.1828  0.0900  0.3793
  386MOL0     C51987  -0.589   3.679   2.790  0.6323  0.1880 -0.1609
  386MOL0     C51988  -0.680   3.753   2.698  0.1945 -0.1475 -0.0140
  386MOL0     C51989  -0.825   3.724   2.741  0.5346  0.9890 -0.5944
  386MOL0     C51990  -0.928   3.774   2.638 -0.6545  0.0888  0.7419
  386MOL0     C51991  -1.056   3.707   2.672  0.4838  0.4375 -0.9702
  386MOL0     N51992  -1.124   3.758   2.795 -0.4509  0.4104 -0.0571
  386MOL0     C51993  -1.101   3.878   2.858 -0.2948  0.0121  0.1072
  386MOL0     C51994  -1.180   3.882   2.968  0.1268 -0.0155  0.2615
  386MOL0     C51995  -1.181   3.981   3.076 -0.5615 -1.1379  0.2700
  386MOL0     C51996  -1.042   3.984   3.144 -0.2803  0.0554  0.1801
  386MOL0     C51997  -1.021   4.097   3.234  0.2314 -0.3067 -0.2957
  386MOL0     C51998  -1.125   4.123   3.340 -0.3773  0.7447 -0.4277
  386MOL0     O51999  -1.082   4.243   3.406 -0.1855  0.4264 -0.2722
  386MOL0     C52000  -1.181   4.290   3.493  0.5342 -0.0915  0.5173
  386MOL0     C52001  -1.276   4.380   3.443  0.3856  1.1996 -0.0108
  386MOL0     C52002  -1.374   4.430   3.530 -0.2701  0.4011 -0.3240
  386MOL0     C52003  -1.482   4.525   3.467 -0.7171 -0.4852 -0.2926
  386MOL0     C52004  -1.369   4.405   3.670  0.6685  0.5444 -0.9051
  386MOL0     C52005  -1.453   4.471   3.779 -0.2717  0.0302 -0.5700
  386MOL0     O52006  -1.446   4.429   3.911  0.1999 -0.5804  0.7500
  386MOL0     C52007  -1.491   4.508   4.005  0.1935  0.0811 -0.2282
  386MOL0     C52008  -1.613   4.489   4.072 -0.5408  0.1416  0.3233
  386MOL0     C52009  -1.643   4.556   4.196 -1.1841 -0.2402 -0.0073
  386MOL0     C52010  -1.539   4.639   4.253 -0.3777  0.0801  0.1925
  386MOL0     O52011  -1.595   4.698   4.364  0.2631 -0.1513 -1.0502
  386MOL0     C52012  -1.539   4.814   4.425  0.2803  0.1147 -0.1210
  386MOL0     C52013  -1.594   4.851   4.558  0.6278 -0.1170  0.1259
  386MOL0     C52014  -1.530   4.977   4.610  0.0500  0.5718 -0.3111
  386MOL0     C52015  -1.526   5.095   4.522 -0.2146 -0.3798  1.1349
  386MOL0     C52016  -1.453   5.221   4.586 -0.0388 -0.0612  0.7766
  386MOL0     C52017  -1.469   5.359   4.500  0.5552  0.3900 -0.0170
  386MOL0     C52018  -1.434   5.480   4.580 -0.1555  0.8024 -1.1335
  386MOL0     C52019  -1.423   5.608   4.491  0.0394 -0.2934  0.5317
  386MOL0    Cl52020  -1.556   5.619   4.377  0.3525  0.0833 -0.2551
  386MOL0     C52021  -1.428   4.668   4.180 -0.5051  0.9424  0.5743
  386MOL0     C52022  -1.399   4.597   4.062 -0.0992  0.1867 -0.0263
  386MOL0     O52023  -1.520   4.563   3.745  0.0760 -0.6686  0.2863
  386MOL0     C52024  -1.263   4.320   3.714  0.3826 -0.5525 -0.3157
  386MOL0     C52025  -1.177   4.251   3.628  0.1553 -0.4163  0.1434
  386MOL0     N52026  -1.250   3.759   2.975 -0.4418 -0.3285 -0.0317
  386MOL0     N52027  -1.218   3.691   2.868 -0.0562 -0.4670  0.0966
  386MOL0     C52028  -0.065   3.554   2.436 -0.3993  0.2153 -0.2690
  386MOL0     C52029   0.061   3.565   2.364  0.5221  0.6466 -0.0677
  386MOL0     C52030   0.486   3.492   2.265 -0.2245 -0.0221  0.4172
  386MOL0     C52031   0.597   3.411   2.298  0.6222  0.2320  0.0584
  386MOL0     C52032   0.720   3.426   2.233 -0.8546  0.2016 -0.7995
  386MOL0     C52033   0.733   3.506   2.126 -0.4682 -0.8589  0.5742
  386MOL0     O52034   0.856   3.507   2.053  0.8304 -0.7490 -0.3534
  386MOL0     C52035   0.866   3.600   1.938 -0.8166  0.4329 -0.0251
  386MOL0     C52036   1.010   3.606   1.892  0.5318  0.4969  1.2475
  386MOL0     C52037   1.108   3.593   1.997  0.5625  0.3337  0.6538
  386MOL0     C52038   1.247   3.639   1.956 -0.0113 -0.3787 -0.1246
  386MOL0     C52039   1.300   3.557   1.837  0.3534 -0.0421 -0.0495
  386MOL0     C52040   1.345   3.490   1.741  0.9600 -0.2388  0.4980
  386MOL0     C52041   0.627   3.594   2.098 -0.9810  0.3932  0.1245
  386MOL0     C52042   0.506   3.581   2.162 -0.3715 -0.3660  0.4098
  386MOL0     H52043   0.247   3.712   2.605 -0.3496  0.3236  0.4345
  386MOL0     H52044   0.033   3.690   2.733  1.3828 -0.3263 -0.1909
  386MOL0     H52045  -0.136   3.532   2.825 -0.0598  0.1390  0.5926
  386MOL0     H52046  -0.167   3.708   2.820  0.9341  0.9372 -2.1476
  386MOL0     H52047  -0.380   3.489   2.842 -1.0042 -0.5473  2.5750
  386MOL0     H52048  -0.346   3.630   2.937  0.2671 -1.7446  0.6505
  386MOL0     H52049  -0.403   3.775   2.724 -0.2382  0.1656 -0.0887
  386MOL0     H52050  -0.450   3.623   2.647 -0.6828  2.8902 -1.1703
  386MOL0     H52051  -0.628   3.579   2.811  0.3064  0.3765  0.1562
  386MOL0     H52052  -0.592   3.735   2.884  2.5715  1.8037 -0.9901
  386MOL0     H52053  -0.650   3.858   2.703  2.3537 -0.6171 -1.7801
  386MOL0     H52054  -0.663   3.722   2.595  2.2587 -0.8433  0.4865
  386MOL0     H52055  -0.827   3.615   2.748  6.8464  0.1251 -4.4741
  386MOL0     H52056  -0.836   3.771   2.839  1.3232 -2.9123  1.5693
  386MOL0     H52057  -0.922   3.884   2.638  1.4311  0.0182  0.9080
  386MOL0     H52058  -0.895   3.750   2.537 -3.3729 -0.5919 -0.0541
  386MOL0     H52059  -1.046   3.598   2.679  2.1007  0.6251  0.2947
  386MOL0     H52060  -1.132   3.727   2.597  1.0110 -0.0831 -1.6521
  386MOL0     H52061  -1.027   3.953   2.833 -1.2331  0.2121 -2.3359
  386MOL0     H52062  -1.210   4.080   3.040  0.3601 -0.1665  2.0219
  386MOL0     H52063  -1.255   3.943   3.147  0.5592 -2.7554  0.6378
  386MOL0     H52064  -0.968   3.995   3.065  0.2001  1.3762  0.7846
  386MOL0     H52065  -1.022   3.899   3.209  1.4912 -0.6068 -1.1572
  386MOL0     H52066  -1.023   4.187   3.172  2.3316 -0.8313 -1.2218
  386MOL0     H52067  -0.920   4.091   3.274  0.0328 -0.3341  0.2132
  386MOL0     H52068  -1.123   4.042   3.415 -1.4189 -0.6290 -1.8229
  386MOL0     H52069  -1.226   4.134   3.300 -0.8431 -1.3438  0.0405
  386MOL0     H52070  -1.287   4.401   3.337  1.6489 -1.4060 -0.7516
  386MOL0     H52071  -1.580   4.488   3.500 -0.2507  1.2182  3.4969
  386MOL0     H52072  -1.458   4.624   3.507  1.2075 -0.3532 -1.6254
  386MOL0     H52073  -1.470   4.526   3.358 -1.5317  3.0700 -0.4896
  386MOL0     H52074  -1.676   4.413   4.026  0.6338 -1.1187  0.7336
  386MOL0     H52075  -1.725   4.535   4.264  0.1612  1.4617  2.3082
  386MOL0     H52076  -1.433   4.790   4.441 -0.2878 -2.6137  0.0845
  386MOL0     H52077  -1.542   4.896   4.353  0.5817 -1.8243 -2.4902
  386MOL0     H52078  -1.700   4.868   4.537  0.4220 -0.2183  1.0162
  386MOL0     H52079  -1.578   4.762   4.619  4.2017 -1.5948 -2.6289
  386MOL0     H52080  -1.426   4.959   4.637  0.3477  2.0520 -0.4109
  386MOL0     H52081  -1.589   5.006   4.698  1.4946 -0.1694  0.9433
  386MOL0     H52082  -1.475   5.072   4.428 -0.6825 -0.0771  0.7999
  386MOL0     H52083  -1.630   5.120   4.498  0.3554 -0.0274 -1.2419
  386MOL0     H52084  -1.346   5.199   4.598  0.3254  2.3547  2.7441
  386MOL0     H52085  -1.497   5.241   4.684  1.3490 -0.1119  1.4392
  386MOL0     H52086  -1.404   5.352   4.413  1.8569 -0.1972  0.9591
  386MOL0     H52087  -1.572   5.364   4.466  1.4083  0.9798 -2.7370
  386MOL0     H52088  -1.340   5.454   4.628 -0.6368  1.7054  0.3497
  386MOL0     H52089  -1.500   5.501   4.665 -1.7342  1.5747 -2.4756
  386MOL0     H52090  -1.328   5.599   4.436 -1.0736  0.3355 -1.5926
  386MOL0     H52091  -1.422   5.688   4.565  2.0264  1.7110 -1.4752
  386MOL0     H52092  -1.353   4.739   4.215  0.5340  1.0934 -1.7852
  386MOL0     H52093  -1.298   4.599   4.023  0.5544  0.2982  1.5988
  386MOL0     H52094  -1.244   4.300   3.819 -0.4674 -0.8551 -0.2072
  386MOL0     H52095  -1.098   4.184   3.660 -0.9146  0.5765  6.2222
  386MOL0     H52096  -0.146   3.495   2.395 -1.3820  1.7971 -0.7157
  386MOL0     H52097   0.085   3.524   2.266 -0.8386  1.1620 -0.6387
  386MOL0     H52098   0.584   3.348   2.385 -2.9386 -0.2710 -0.6874
  386MOL0     H52099   0.797   3.355   2.259 -0.6716 -1.0401 -4.1437
  386MOL0     H52100   0.794   3.578   1.859 -2.0817 -2.5756  1.7775
  386MOL0     H52101   0.840   3.700   1.974 -4.5246  0.2254 -1.6668
  386MOL0     H52102   1.018   3.692   1.826  0.6670 -2.0196 -2.3098
  386MOL0     H52103   1.020   3.515   1.832  0.6185  1.5059 -0.3291
  386MOL0     H52104   1.113   3.490   2.034 -1.6841  0.8583  2.6462
  386MOL0     H52105   1.076   3.648   2.085 -1.2168 -1.0715  0.9481
  386MOL0     H52106   1.318   3.614   2.035  0.8572 -0.1529 -0.8014
  386MOL0     H52107   1.246   3.748   1.945 -1.1863 -0.4476 -0.8798
  386MOL0     H52108   1.379   3.441   1.653  0.0306  2.5615 -1.5588
  386MOL0     H52109   0.632   3.669   2.019  1.7990  3.3536  2.7796
  386MOL0     H52110   0.423   3.648   2.140  0.2323 -0.5395 -2.8852
  387MOL0     O52111   9.937   3.815   7.758 -0.4230 -0.4024 -0.1511
  387MOL0     C52112   9.989   3.861   7.859 -0.3247 -0.2784 -0.1328
  387MOL0     O52113   9.935   3.950   7.936 -0.0647 -0.5728 -0.0428
  387MOL0     C52114   9.816   4.011   7.898 -0.2225 -0.0813 -0.7742
  387MOL0     C52115   9.801   4.087   7.772 -0.7382 -0.3096  0.1455
  387MOL0     C52116   9.681   4.156   7.740  0.6448 -0.3573  0.4094
  387MOL0     C52117   9.572   4.149   7.826 -0.4549 -0.3572  0.4769
  387MOL0     O52118   9.455   4.221   7.808 -0.8361  0.7414  0.3506
  387MOL0     C52119   9.458   4.359   7.781 -0.2330  0.1203 -0.0793
  387MOL0     C52120   9.314   4.421   7.810 -0.3350  0.4345  1.0458
  387MOL0     C52121   9.257   4.390   7.945 -0.8586 -0.7837  0.2115
  387MOL0     C52122   9.164   4.510   7.981 -0.6736  0.7164 -0.0294
  387MOL0     C52123   9.139   4.520   8.137  0.4262  0.0242 -0.0784
  387MOL0     C52124   9.045   4.636   8.188 -0.5709  0.8898  0.0398
  387MOL0     C52125   8.906   4.614   8.128  0.5338 -0.1038  0.4790
  387MOL0     C52126   8.807   4.701   8.200  0.2422  0.7055 -0.6469
  387MOL0     N52127   8.677   4.663   8.145 -0.0625 -0.2780 -0.0381
  387MOL0     C52128   8.585   4.579   8.207  0.0280 -0.1697  0.0423
  387MOL0     C52129   8.465   4.600   8.143 -0.8896  0.6051  0.0479
  387MOL0     C52130   8.329   4.558   8.190  0.3629  0.6836  0.6315
  387MOL0     C52131   8.239   4.509   8.076  0.6493  0.2489 -0.8095
  387MOL0     C52132   8.119   4.447   8.138 -0.3655  0.3782 -0.8347
  387MOL0     C52133   8.023   4.409   8.022 -0.3153  0.9524 -1.9800
  387MOL0     O52134   7.926   4.327   8.100 -0.2843 -0.1798 -0.0528
  387MOL0     C52135   7.832   4.258   8.023 -0.1050  0.3214  0.4934
  387MOL0     C52136   7.815   4.241   7.884 -1.0561  0.8730 -0.1401
  387MOL0     C52137   7.710   4.169   7.824 -0.5487 -0.2098  1.0906
  387MOL0     C52138   7.713   4.169   7.671 -0.5487  1.4569 -0.1608
  387MOL0     C52139   7.625   4.098   7.901 -0.2444  0.3914  0.3125
  387MOL0     C52140   7.510   4.023   7.853  0.2672  0.1818 -0.1805
  387MOL0     O52141   7.466   4.016   7.721  0.5496 -0.8295 -0.6146
  387MOL0     C52142   7.385   3.910   7.692  0.2363 -0.0463 -0.0679
  387MOL0     C52143   7.252   3.932   7.657  0.2947  0.3006  0.6167
  387MOL0     C52144   7.175   3.830   7.603 -0.6547 -0.2022 -0.2934
  387MOL0     C52145   7.227   3.697   7.610  0.2078  1.3399  0.3579
  387MOL0     O52146   7.152   3.583   7.569 -0.7411 -0.1119  0.3801
  387MOL0     C52147   7.031   3.582   7.643 -0.2876 -1.0390 -1.1196
  387MOL0     C52148   6.994   3.432   7.662  0.0433 -0.0865  0.3358
  387MOL0     C52149   7.102   3.345   7.729  0.1033 -0.1678 -0.9606
  387MOL0     C52150   7.035   3.234   7.800  0.3316 -0.2705  0.2195
  387MOL0     C52151   7.108   3.151   7.896  0.4180 -0.5109 -0.2960
  387MOL0     C52152   7.237   3.082   7.840  0.6636  0.8071  0.4439
  387MOL0     C52153   7.296   3.002   7.951 -0.4088 -0.1748 -0.6741
  387MOL0     C52154   7.400   2.910   7.896 -0.9628 -0.3426 -0.1161
  387MOL0    Cl52155   7.447   2.783   8.025  0.3834 -0.2548  0.4074
  387MOL0     C52156   7.350   3.671   7.663 -0.1277  0.0844 -0.1528
  387MOL0     C52157   7.429   3.773   7.704  0.2792  0.1694  0.2117
  387MOL0     O52158   7.459   3.956   7.944  0.6375  0.3172 -0.2774
  387MOL0     C52159   7.652   4.098   8.039  0.4559 -0.5979 -0.2218
  387MOL0     C52160   7.757   4.173   8.099 -0.4065  0.4680  0.8839
  387MOL0     N52161   8.491   4.702   8.047 -0.6874  0.0514 -0.5698
  387MOL0     N52162   8.608   4.739   8.053 -0.7765  0.3578  0.0548
  387MOL0     C52163   9.580   4.069   7.942  0.2433 -0.6909  0.5641
  387MOL0     C52164   9.703   4.006   7.975 -0.3599 -0.7204  0.4349
  387MOL0     C52165  10.132   3.839   7.880  0.5933  0.2076 -0.6877
  387MOL0     C52166  10.214   3.777   7.785  0.7589 -0.0979  0.2646
  387MOL0     C52167  10.348   3.737   7.809 -0.0864  0.2663 -0.5670
  387MOL0     C52168  10.401   3.755   7.945  0.2635  0.5943  0.1196
  387MOL0     O52169  10.526   3.719   7.979  1.1582  0.0006 -0.2749
  387MOL0     C52170  10.607   3.662   7.876  0.2179  0.5916 -0.6203
  387MOL0     C52171  10.747   3.622   7.943  0.1834 -0.3413 -0.4227
  387MOL0     C52172  10.803   3.476   7.928  0.1160 -0.3515  0.1147
  387MOL0     C52173  10.846   3.428   7.792  0.0181  0.2428 -0.0206
  387MOL0     C52174  10.725   3.386   7.715 -0.3333 -0.6059  0.6202
  387MOL0     C52175  10.628   3.348   7.650  0.3041  0.1458 -0.3778
  387MOL0     C52176  10.315   3.818   8.039 -0.5606 -0.4572 -0.1544
  387MOL0     C52177  10.189   3.868   8.001  0.0625 -0.0334 -1.0851
  387MOL0     H52178   9.888   4.104   7.710 -1.9532 -1.9353 -2.1570
  387MOL0     H52179   9.670   4.219   7.652 -0.2015  2.6199  2.5226
  387MOL0     H52180   9.527   4.413   7.847  0.4489 -0.1570 -0.5528
  387MOL0     H52181   9.494   4.385   7.681  2.3976 -0.7989  0.5481
  387MOL0     H52182   9.325   4.528   7.796 -1.1787  0.5390  1.1351
  387MOL0     H52183   9.251   4.385   7.727  0.4517  1.4273 -0.0110
  387MOL0     H52184   9.201   4.297   7.936  1.3914 -2.4005  1.8077
  387MOL0     H52185   9.343   4.382   8.012  0.9165  1.4061 -1.6212
  387MOL0     H52186   9.188   4.615   7.959  0.7758  1.0126  2.5689
  387MOL0     H52187   9.072   4.474   7.934  1.1564 -1.8866 -1.8760
  387MOL0     H52188   9.106   4.418   8.159  3.2605 -1.9437 -3.8267
  387MOL0     H52189   9.232   4.533   8.193 -0.9907  2.5511  1.9776
  387MOL0     H52190   9.036   4.640   8.297 -1.6349  1.5404 -0.0630
  387MOL0     H52191   9.096   4.730   8.165  0.3930 -0.2774 -3.0598
  387MOL0     H52192   8.917   4.655   8.027 -0.3328 -2.0822 -0.4644
  387MOL0     H52193   8.880   4.508   8.134 -2.0357  0.4843  0.7757
  387MOL0     H52194   8.833   4.806   8.188  0.0657  1.1386  2.0492
  387MOL0     H52195   8.809   4.670   8.305 -0.5317  0.2745 -0.7485
  387MOL0     H52196   8.602   4.518   8.296  0.8192  0.3388  0.2443
  387MOL0     H52197   8.357   4.483   8.265  4.3260 -0.5563 -1.7524
  387MOL0     H52198   8.284   4.643   8.243 -0.4175  0.5194  0.2435
  387MOL0     H52199   8.290   4.430   8.019 -0.8616  1.7110 -4.4988
  387MOL0     H52200   8.210   4.588   8.006  0.8987 -0.9682 -2.3392
  387MOL0     H52201   8.076   4.512   8.215  0.4100 -0.6326  0.5002
  387MOL0     H52202   8.147   4.353   8.188 -2.4162 -0.6850 -1.5557
  387MOL0     H52203   8.071   4.348   7.945 -0.2624 -0.2765 -1.0061
  387MOL0     H52204   7.985   4.502   7.980 -0.7567  1.3256 -0.8056
  387MOL0     H52205   7.887   4.279   7.812 -0.5595 -0.8855 -0.6188
  387MOL0     H52206   7.752   4.075   7.629  1.6056  1.7638  1.0105
  387MOL0     H52207   7.615   4.189   7.628 -0.4853  0.3070 -0.8940
  387MOL0     H52208   7.766   4.250   7.620  0.5402  0.8161 -0.0779
  387MOL0     H52209   7.213   4.031   7.637 -2.6175 -0.5502  1.5796
  387MOL0     H52210   7.075   3.846   7.563  0.3733 -0.7155 -3.2677
  387MOL0     H52211   7.048   3.625   7.742 -2.0855 -1.4018 -0.6143
  387MOL0     H52212   6.948   3.632   7.593  0.0800 -1.1610 -1.8686
  387MOL0     H52213   6.898   3.432   7.715 -0.4804  1.1841 -0.5578
  387MOL0     H52214   6.968   3.395   7.562 -3.5030  2.1128  0.2685
  387MOL0     H52215   7.139   3.415   7.805 -4.0069  3.4416 -1.8570
  387MOL0     H52216   7.184   3.308   7.667  2.6541  0.0658  2.0325
  387MOL0     H52217   6.942   3.268   7.848  0.6367 -1.6567  1.8961
  387MOL0     H52218   6.996   3.167   7.722 -1.2974  1.7140 -0.7767
  387MOL0     H52219   7.042   3.071   7.932  0.1328  0.2727  1.0079
  387MOL0     H52220   7.146   3.216   7.975 -0.3352  1.0566 -1.1861
  387MOL0     H52221   7.207   3.016   7.758  3.1828  1.7921 -1.3983
  387MOL0     H52222   7.308   3.155   7.801  1.9006 -1.5144 -2.0074
  387MOL0     H52223   7.220   2.939   7.999  2.7074 -0.8068  4.0667
  387MOL0     H52224   7.336   3.066   8.030  1.2463 -2.5374  0.5307
  387MOL0     H52225   7.489   2.967   7.870 -1.1931 -0.4446 -1.1880
  387MOL0     H52226   7.373   2.858   7.804 -0.6188 -0.0965 -0.3559
  387MOL0     H52227   7.382   3.567   7.668 -0.2211  0.0041 -1.0945
  387MOL0     H52228   7.529   3.750   7.739  1.3007  0.6442 -2.1397
  387MOL0     H52229   7.593   4.043   8.111 -1.4311 -0.7577 -1.7834
  387MOL0     H52230   7.757   4.163   8.207 -0.3528  1.6949  1.0132
  387MOL0     H52231   9.492   4.069   8.007 -0.6432 -0.7119 -0.5949
  387MOL0     H52232   9.705   3.954   8.070  0.8217  0.5126  1.1318
  387MOL0     H52233  10.160   3.763   7.692 -0.8057  0.7251  1.0093
  387MOL0     H52234  10.399   3.685   7.729  0.4738  1.6074 -1.0949
  387MOL0     H52235  10.571   3.570   7.829 -0.3918  0.6768 -0.3305
  387MOL0     H52236  10.613   3.743   7.802 -1.1046 -0.5208 -2.0126
  387MOL0     H52237  10.732   3.644   8.049 -0.4702  0.0115 -0.5873
  387MOL0     H52238  10.824   3.687   7.898  0.1286  1.3945  1.7899
  387MOL0     H52239  10.731   3.406   7.971  0.2771 -0.9576 -0.6069
  387MOL0     H52240  10.889   3.478   7.996  0.3980 -0.6753 -0.2275
  387MOL0     H52241  10.914   3.344   7.813 -0.6129 -0.5621 -1.0814
  387MOL0     H52242  10.897   3.509   7.739  0.0249 -0.4442 -1.1030
  387MOL0     H52243  10.543   3.314   7.593 -0.4796  1.5155 -0.0620
  387MOL0     H52244  10.353   3.835   8.139 -0.0251 -1.4246 -0.1842
  387MOL0     H52245  10.130   3.922   8.075 -0.6703 -1.2239 -0.7564
  388MOL0     O52246   4.550   5.073   7.478  0.5178 -0.7427 -0.8713
  388MOL0     C52247   4.559   5.163   7.564  0.7985  0.0397  0.3711
  388MOL0     O52248   4.666   5.234   7.602 -0.1549 -0.8981 -0.0354
  388MOL0     C52249   4.782   5.234   7.525  0.0871  0.8475  0.3215
  388MOL0     C52250   4.904   5.184   7.559  0.6476  0.3340  0.1157
  388MOL0     C52251   5.007   5.171   7.469  0.9674 -0.4262 -0.9243
  388MOL0     C52252   4.988   5.221   7.339 -1.3604 -0.2833 -0.2351
  388MOL0     O52253   5.071   5.221   7.225  0.3320  0.0301 -0.0253
  388MOL0     C52254   5.207   5.167   7.225 -0.4936  0.1115 -0.8584
  388MOL0     C52255   5.283   5.188   7.100 -0.2525  0.0685 -0.7412
  388MOL0     C52256   5.292   5.337   7.062 -0.0487  0.1012  1.2665
  388MOL0     C52257   5.396   5.344   6.950 -0.2896  0.0023 -0.7000
  388MOL0     C52258   5.387   5.468   6.863 -0.0536  0.2631 -0.0571
  388MOL0     C52259   5.509   5.552   6.877 -0.2851 -0.5496 -0.8500
  388MOL0     C52260   5.489   5.698   6.824 -0.4613  0.1765 -0.0838
  388MOL0     C52261   5.506   5.711   6.671 -0.5085 -0.2147 -0.7400
  388MOL0     N52262   5.392   5.667   6.593 -1.1907  0.1176 -0.6988
  388MOL0     C52263   5.269   5.727   6.594 -0.3072  0.6631  0.3612
  388MOL0     C52264   5.200   5.648   6.505 -0.6579 -0.0026  0.1113
  388MOL0     C52265   5.056   5.659   6.477 -0.4618  0.3226  0.7643
  388MOL0     C52266   5.028   5.678   6.332  0.0514  0.0239 -0.0756
  388MOL0     C52267   4.878   5.701   6.301 -0.2072 -0.2238 -0.0301
  388MOL0     C52268   4.834   5.690   6.154 -1.0314  0.9140 -0.5783
  388MOL0     O52269   4.716   5.755   6.128 -0.3316  0.5964  0.6188
  388MOL0     C52270   4.594   5.688   6.126  0.9467 -0.6819  0.4427
  388MOL0     C52271   4.570   5.554   6.097 -0.6402 -0.5414  0.6338
  388MOL0     C52272   4.442   5.505   6.088 -0.5291 -0.8682  1.0126
  388MOL0     C52273   4.438   5.359   6.056 -0.3259  0.0742  0.6054
  388MOL0     C52274   4.325   5.587   6.108 -0.1647 -0.1755  0.1081
  388MOL0     C52275   4.190   5.542   6.087 -0.0187  1.0530  0.0777
  388MOL0     O52276   4.079   5.599   6.142  0.4208  0.0294 -0.5999
  388MOL0     C52277   3.959   5.542   6.130  0.1120  0.4494  0.4894
  388MOL0     C52278   3.934   5.420   6.195 -0.3895  0.6003  0.1333
  388MOL0     C52279   3.795   5.370   6.195 -0.7261  0.2965 -0.7269
  388MOL0     C52280   3.686   5.444   6.141 -0.5044 -0.0633  0.1253
  388MOL0     O52281   3.555   5.413   6.149 -0.0662 -0.6226  0.2148
  388MOL0     C52282   3.519   5.279   6.204 -0.7180  0.1591 -0.0919
  388MOL0     C52283   3.364   5.262   6.227  0.5330  0.1645  0.1437
  388MOL0     C52284   3.285   5.290   6.100 -0.7570  0.3370 -0.0696
  388MOL0     C52285   3.133   5.298   6.114  0.3872 -0.5567 -0.4039
  388MOL0     C52286   3.053   5.335   5.997 -0.9491 -0.4134 -0.0760
  388MOL0     C52287   3.087   5.272   5.862 -0.0887  0.4171  0.0315
  388MOL0     C52288   3.056   5.120   5.865  0.3192 -0.3547  0.0424
  388MOL0     C52289   3.121   5.042   5.756 -0.2268 -0.4112 -0.3823
  388MOL0    Cl52290   3.293   5.043   5.785  0.2101  0.0420 -0.0136
  388MOL0     C52291   3.717   5.561   6.066 -0.3055 -0.0059 -1.0702
  388MOL0     C52292   3.860   5.608   6.057  0.8657  0.8474  0.3648
  388MOL0     O52293   4.178   5.445   6.011 -0.5278  0.2473 -0.1031
  388MOL0     C52294   4.348   5.712   6.151  0.2017 -0.2227 -0.6777
  388MOL0     C52295   4.482   5.761   6.158  0.0152 -0.0456 -0.5773
  388MOL0     N52296   5.279   5.550   6.462 -0.0001 -0.1496  0.1866
  388MOL0     N52297   5.400   5.569   6.502 -0.0366  0.0186 -0.7921
  388MOL0     C52298   4.876   5.289   7.309 -0.1613 -0.3731 -0.5562
  388MOL0     C52299   4.770   5.297   7.402 -0.8115 -0.1298 -0.5224
  388MOL0     C52300   4.435   5.199   7.616  0.2361 -0.2743  0.1347
  388MOL0     C52301   4.327   5.107   7.630  0.6104 -0.2819 -0.6903
  388MOL0     C52302   4.204   5.152   7.686  0.0548 -0.4340  0.3419
  388MOL0     C52303   4.195   5.285   7.737  0.1362 -0.1109 -0.1803
  388MOL0     O52304   4.074   5.332   7.785  0.0308 -0.7781  0.3644
  388MOL0     C52305   4.015   5.240   7.878 -0.5646  0.1047  0.2861
  388MOL0     C52306   3.910   5.317   7.970 -0.6578 -0.0523 -0.5846
  388MOL0     C52307   3.786   5.362   7.907  1.1129  0.0195 -0.1027
  388MOL0     C52308   3.678   5.394   8.006 -0.5358  0.3704  0.2738
  388MOL0     C52309   3.555   5.438   7.941 -0.0601 -0.5830 -0.0774
  388MOL0     C52310   3.442   5.460   7.891 -0.2479 -0.0834 -1.1955
  388MOL0     C52311   4.301   5.370   7.715 -0.5781 -0.4596 -0.1099
  388MOL0     C52312   4.418   5.330   7.663  0.8993 -0.1180  0.0703
  388MOL0     H52313   4.921   5.148   7.660 -1.0465 -4.2161 -0.9620
  388MOL0     H52314   5.103   5.129   7.497 -0.8117 -3.7914  0.7351
  388MOL0     H52315   5.252   5.220   7.309  0.7307 -1.6325 -0.3404
  388MOL0     H52316   5.198   5.061   7.253  0.7839  0.0779 -0.5071
  388MOL0     H52317   5.387   5.159   7.119 -0.3245  1.9316  3.9573
  388MOL0     H52318   5.234   5.134   7.018 -1.3498 -0.4773  0.2400
  388MOL0     H52319   5.195   5.373   7.025 -0.3832 -2.6948 -0.8890
  388MOL0     H52320   5.321   5.395   7.150  0.0408 -0.7721  1.8259
  388MOL0     H52321   5.494   5.322   6.993 -0.7582 -1.6260 -0.4038
  388MOL0     H52322   5.381   5.258   6.884  2.7099  0.4082 -2.1087
  388MOL0     H52323   5.383   5.441   6.757 -2.7282  3.4993 -0.9507
  388MOL0     H52324   5.293   5.523   6.873 -0.9026 -0.5006 -2.8507
  388MOL0     H52325   5.525   5.560   6.985 -0.2609 -2.0859 -0.7163
  388MOL0     H52326   5.593   5.512   6.819  0.7977  1.9168 -1.1198
  388MOL0     H52327   5.395   5.739   6.861  0.1189  1.6520 -0.2087
  388MOL0     H52328   5.564   5.759   6.875  0.3905  1.0558 -2.2761
  388MOL0     H52329   5.594   5.656   6.636 -0.5677 -1.6262  1.2097
  388MOL0     H52330   5.520   5.819   6.655  0.6336 -0.0277  1.1400
  388MOL0     H52331   5.237   5.817   6.645 -2.4527  0.6986 -0.9195
  388MOL0     H52332   5.018   5.562   6.510 -0.5481 -0.9575 -2.6941
  388MOL0     H52333   5.024   5.746   6.536  1.1211  0.1355  1.9506
  388MOL0     H52334   5.078   5.608   6.266  0.8697 -0.8129  1.3711
  388MOL0     H52335   5.078   5.769   6.298 -0.6453  0.4072 -0.0989
  388MOL0     H52336   4.843   5.799   6.334 -1.8390 -1.0252  0.7039
  388MOL0     H52337   4.824   5.624   6.357 -2.3205  1.7927  0.8480
  388MOL0     H52338   4.848   5.586   6.124  0.9496  0.7791  0.5827
  388MOL0     H52339   4.916   5.756   6.124  0.0559  1.4490  3.0601
  388MOL0     H52340   4.651   5.490   6.062 -1.6467 -1.4750 -0.0413
  388MOL0     H52341   4.536   5.314   6.073 -0.0046  1.5501  3.0659
  388MOL0     H52342   4.357   5.312   6.113 -1.4371 -1.0809 -1.7594
  388MOL0     H52343   4.412   5.347   5.950  2.6777  1.5124 -0.3814
  388MOL0     H52344   4.015   5.360   6.234  0.6646  2.6889  1.3566
  388MOL0     H52345   3.773   5.285   6.259 -1.2957 -2.0391 -3.7759
  388MOL0     H52346   3.550   5.202   6.133 -1.3848  1.2062 -1.5734
  388MOL0     H52347   3.560   5.260   6.304 -1.2058 -1.6386 -0.1989
  388MOL0     H52348   3.332   5.166   6.268  2.2724  0.1425  1.5645
  388MOL0     H52349   3.328   5.329   6.306 -0.3870 -3.0341  2.6534
  388MOL0     H52350   3.314   5.222   6.018 -4.0722  1.1301 -2.0790
  388MOL0     H52351   3.325   5.383   6.059 -0.5489  1.2382  2.1006
  388MOL0     H52352   3.087   5.203   6.144 -4.3046  1.9277  1.2820
  388MOL0     H52353   3.105   5.367   6.194 -0.1917 -1.9819  0.6604
  388MOL0     H52354   3.078   5.440   5.979 -0.3819 -0.8574 -2.1612
  388MOL0     H52355   2.948   5.330   6.028 -0.6182  0.7962  1.3578
  388MOL0     H52356   3.024   5.314   5.783 -0.8477  0.5501  0.6991
  388MOL0     H52357   3.190   5.292   5.834  0.3005 -1.3585  0.0549
  388MOL0     H52358   2.951   5.099   5.848  0.4906 -0.1562 -1.3785
  388MOL0     H52359   3.081   5.075   5.962 -3.1655  0.3499  1.4165
  388MOL0     H52360   3.100   5.092   5.661  1.8090 -1.0383 -1.2156
  388MOL0     H52361   3.084   4.939   5.757 -0.7971 -0.2142  0.8187
  388MOL0     H52362   3.637   5.616   6.017 -1.2434 -0.3651  0.0069
  388MOL0     H52363   3.897   5.688   5.994  1.5229 -0.6714 -1.2801
  388MOL0     H52364   4.259   5.770   6.175 -0.8508 -2.4543  1.2050
  388MOL0     H52365   4.496   5.863   6.193 -0.9432 -0.7691  2.1385
  388MOL0     H52366   4.868   5.349   7.219 -1.6190  1.8325  0.9592
  388MOL0     H52367   4.676   5.336   7.364 -0.8302 -0.3743 -0.7326
  388MOL0     H52368   4.337   5.003   7.601  0.7194 -1.2761  2.5169
  388MOL0     H52369   4.121   5.083   7.692  0.8082 -1.4939 -0.8770
  388MOL0     H52370   3.966   5.163   7.818  2.4594 -1.6422 -0.1678
  388MOL0     H52371   4.092   5.198   7.944 -0.2262 -0.7059 -0.5994
  388MOL0     H52372   3.968   5.400   8.013 -0.9721  1.5276 -2.9829
  388MOL0     H52373   3.880   5.250   8.050 -1.0078 -0.1413 -0.7907
  388MOL0     H52374   3.746   5.283   7.842  0.9942  0.1430 -0.1805
  388MOL0     H52375   3.807   5.450   7.845  4.0771 -0.9656 -0.6366
  388MOL0     H52376   3.706   5.475   8.073 -0.8100 -1.8202  3.2472
  388MOL0     H52377   3.656   5.309   8.071  0.7965  0.0785  0.3710
  388MOL0     H52378   3.344   5.485   7.855 -0.2047  0.5564 -0.8746
  388MOL0     H52379   4.279   5.473   7.742 -2.4586 -0.7341 -0.4670
  388MOL0     H52380   4.499   5.399   7.642  1.4193 -0.8864 -0.5462
  389MOL0     O52381   9.829   1.686  10.875  1.0698  0.1958 -0.4357
  389MOL0     C52382   9.850   1.697  10.999  0.9730  0.3321  0.5718
  389MOL0     O52383   9.801   1.792  11.077 -0.0188  0.2290 -0.2183
  389MOL0     C52384   9.717   1.878  11.026 -0.0714  0.1416 -0.2684
  389MOL0     C52385   9.734   2.006  11.083 -0.0098  0.7673  0.3755
  389MOL0     C52386   9.652   2.111  11.044  0.3483  0.2771 -0.0141
  389MOL0     C52387   9.552   2.092  10.947  0.4669 -0.2800 -0.0722
  389MOL0     O52388   9.458   2.190  10.926 -0.2055  0.1266  0.3849
  389MOL0     C52389   9.493   2.322  10.968  0.9229  0.0171  0.0951
  389MOL0     C52390   9.380   2.417  10.929 -0.1329 -0.6476  0.1834
  389MOL0     C52391   9.369   2.457  10.776  0.0638 -0.0612  0.1014
  389MOL0     C52392   9.289   2.593  10.762 -0.0151  0.8838 -0.0801
  389MOL0     C52393   9.236   2.614  10.618  0.1757 -0.2278  0.0977
  389MOL0     C52394   9.140   2.736  10.608 -0.7838  0.6829  0.2371
  389MOL0     C52395   9.217   2.861  10.653  0.2166 -0.2333 -0.1713
  389MOL0     C52396   9.152   2.988  10.623  0.1189  0.6437  1.1941
  389MOL0     N52397   9.011   3.013  10.670 -0.1089 -0.4191  1.0786
  389MOL0     C52398   8.971   2.992  10.798  0.6798  0.5535  0.3598
  389MOL0     C52399   8.838   3.016  10.799  0.3387  0.5725  0.3068
  389MOL0     C52400   8.748   2.998  10.924 -0.0263 -0.2977 -0.0639
  389MOL0     C52401   8.738   3.120  11.020  0.1227 -0.6793 -0.1457
  389MOL0     C52402   8.643   3.113  11.137 -0.0640  0.0548  1.1755
  389MOL0     C52403   8.502   3.127  11.102  0.7543 -0.2028  0.2050
  389MOL0     O52404   8.426   3.050  11.195  0.4934  0.1359  0.7478
  389MOL0     C52405   8.290   3.050  11.192  0.7473  0.0471  0.4191
  389MOL0     C52406   8.216   3.069  11.081 -0.2790 -0.6781 -0.1352
  389MOL0     C52407   8.073   3.047  11.080 -0.3199 -0.6887  0.8971
  389MOL0     C52408   8.007   3.066  10.948  0.4811  0.7565  0.2745
  389MOL0     C52409   8.008   2.997  11.195 -0.7830  0.5753 -1.5372
  389MOL0     C52410   7.860   2.961  11.212 -0.3097  0.8695  0.4163
  389MOL0     O52411   7.817   2.940  11.331  0.2804 -0.1222  0.0705
  389MOL0     C52412   7.690   2.895  11.359  0.9118  0.3218 -0.3270
  389MOL0     C52413   7.612   2.979  11.440 -0.3818 -0.5018 -0.8809
  389MOL0     C52414   7.475   2.957  11.450  1.0972 -0.8819 -0.1019
  389MOL0     C52415   7.415   2.842  11.395 -0.6186 -0.3456 -0.7796
  389MOL0     O52416   7.281   2.818  11.425 -0.1622  0.9528 -0.2889
  389MOL0     C52417   7.225   2.704  11.361 -0.0112  0.0261 -0.3190
  389MOL0     C52418   7.078   2.706  11.353  0.1875 -0.3246  0.6436
  389MOL0     C52419   7.009   2.579  11.298  0.2996 -1.2591 -0.0773
  389MOL0     C52420   6.855   2.617  11.270  0.1492 -0.0812  0.0175
  389MOL0     C52421   6.768   2.503  11.228  0.0193  0.3322 -1.3988
  389MOL0     C52422   6.636   2.557  11.190 -0.2984  0.1007 -0.0438
  389MOL0     C52423   6.530   2.445  11.167 -0.0215  0.0515 -0.1499
  389MOL0     C52424   6.411   2.479  11.078  0.0442 -0.8616 -0.5162
  389MOL0    Cl52425   6.299   2.604  11.146 -0.0214  0.0175  0.3973
  389MOL0     C52426   7.502   2.748  11.336 -1.0273 -0.2696  0.9684
  389MOL0     C52427   7.636   2.781  11.305 -0.4497  0.0278  0.3150
  389MOL0     O52428   7.806   2.936  11.107 -0.3980  0.5290 -0.7200
  389MOL0     C52429   8.093   2.975  11.307  0.6989 -0.1459 -0.0133
  389MOL0     C52430   8.230   3.004  11.308 -0.1629  0.1376  0.4178
  389MOL0     N52431   8.798   3.057  10.669 -0.1976  0.0851 -0.4950
  389MOL0     N52432   8.903   3.054  10.597 -0.6226 -0.0143  0.7520
  389MOL0     C52433   9.533   1.966  10.904  0.7280 -0.0285  0.3506
  389MOL0     C52434   9.610   1.858  10.933 -0.4282 -0.1176 -0.3793
  389MOL0     C52435   9.932   1.594  11.053  0.1024 -0.3148 -0.3748
  389MOL0     C52436   9.979   1.493  10.972  0.0585  0.3490  0.1744
  389MOL0     C52437  10.041   1.377  11.025  1.1797  0.4286 -0.9256
  389MOL0     C52438  10.050   1.354  11.165  0.3851 -0.2754 -0.4335
  389MOL0     O52439  10.082   1.239  11.226 -1.0940 -0.2657 -0.1349
  389MOL0     C52440  10.100   1.135  11.129  0.3543 -0.7810  0.7178
  389MOL0     C52441  10.126   1.010  11.198 -0.1937 -0.0640  0.3642
  389MOL0     C52442  10.124   0.898  11.080  0.0998  1.3637 -0.6436
  389MOL0     C52443  10.141   0.772  11.165  0.5495  0.1472 -0.0016
  389MOL0     C52444  10.084   0.659  11.099 -0.3966 -0.4826 -0.8882
  389MOL0     C52445  10.052   0.565  11.033 -0.0516 -0.4960  0.4584
  389MOL0     C52446  10.012   1.457  11.246  0.7420 -0.4002  1.2011
  389MOL0     C52447   9.953   1.576  11.195  0.4409  1.4908 -0.2126
  389MOL0     H52448   9.824   2.018  11.143  1.7196 -2.0851 -1.4287
  389MOL0     H52449   9.670   2.207  11.090  0.4821  2.2924 -3.8598
  389MOL0     H52450   9.500   2.324  11.077  1.3150  0.8499  0.0665
  389MOL0     H52451   9.589   2.357  10.930  0.3405 -0.4972 -2.0035
  389MOL0     H52452   9.283   2.381  10.964 -0.9859  1.3558  0.0498
  389MOL0     H52453   9.394   2.510  10.985  0.8278  0.8458 -2.3654
  389MOL0     H52454   9.470   2.469  10.737 -0.7661 -1.0492 -2.5541
  389MOL0     H52455   9.324   2.372  10.724  0.7683 -0.0333 -0.5661
  389MOL0     H52456   9.205   2.596  10.832  0.4401  1.3802  0.4521
  389MOL0     H52457   9.358   2.670  10.796 -0.7302 -0.1532  4.3504
  389MOL0     H52458   9.320   2.628  10.551 -0.1867  0.0391 -0.3029
  389MOL0     H52459   9.181   2.525  10.586 -0.1695  0.6469 -1.8338
  389MOL0     H52460   9.097   2.753  10.508 -1.2027  1.8294  0.6036
  389MOL0     H52461   9.068   2.715  10.687  0.7980 -2.7389  0.9717
  389MOL0     H52462   9.247   2.866  10.758 -1.8446  2.7914  0.4380
  389MOL0     H52463   9.310   2.860  10.596  1.4536 -2.3769  1.7078
  389MOL0     H52464   9.153   3.002  10.515  1.4452  0.7123  1.2044
  389MOL0     H52465   9.206   3.071  10.670  1.0736  0.0948  1.0919
  389MOL0     H52466   9.020   2.950  10.886  3.3946 -0.1281 -1.3415
  389MOL0     H52467   8.648   2.962  10.900 -1.3279  3.4491 -0.9062
  389MOL0     H52468   8.792   2.919  10.986  0.9325  0.6977  0.5647
  389MOL0     H52469   8.709   3.211  10.966  1.6110  0.8045  1.4349
  389MOL0     H52470   8.834   3.155  11.059 -1.2684  2.9625  0.4495
  389MOL0     H52471   8.647   3.186  11.218 -3.5034  1.8387 -0.0980
  389MOL0     H52472   8.656   3.013  11.179 -0.4981 -0.0091  1.1594
  389MOL0     H52473   8.488   3.076  11.007 -2.6074  0.1949  0.3602
  389MOL0     H52474   8.474   3.232  11.112 -3.1787 -1.1860  1.2635
  389MOL0     H52475   8.262   3.102  10.989 -3.3400 -0.0194 -1.5636
  389MOL0     H52476   8.014   2.965  10.906 -0.6393 -0.0986  2.0361
  389MOL0     H52477   7.903   3.098  10.946  0.3873  0.7218  2.2773
  389MOL0     H52478   8.059   3.140  10.887  0.5310  1.4201  1.0992
  389MOL0     H52479   7.644   3.076  11.476  0.0366 -1.9303  3.0317
  389MOL0     H52480   7.412   3.032  11.498 -2.5029 -3.7469  0.0274
  389MOL0     H52481   7.258   2.685  11.258  1.0256  0.4181 -0.0591
  389MOL0     H52482   7.259   2.622  11.424 -1.0968  0.2098  0.5408
  389MOL0     H52483   7.051   2.705  11.459 -3.0483  0.0516 -0.0650
  389MOL0     H52484   7.048   2.800  11.306  0.8836 -0.5679 -0.3221
  389MOL0     H52485   7.013   2.508  11.382  0.7441 -0.4995  0.5519
  389MOL0     H52486   7.054   2.532  11.210  2.6222 -0.4245  0.5883
  389MOL0     H52487   6.804   2.668  11.353 -1.3794 -2.8655  0.9099
  389MOL0     H52488   6.859   2.686  11.185  1.4432 -0.8637 -0.5816
  389MOL0     H52489   6.742   2.434  11.309  1.3548  1.4719  0.0499
  389MOL0     H52490   6.812   2.448  11.144 -0.3510 -2.2437 -0.0304
  389MOL0     H52491   6.604   2.637  11.258  0.6075  1.2791 -0.9566
  389MOL0     H52492   6.648   2.601  11.091  1.3518 -1.6376 -0.6521
  389MOL0     H52493   6.491   2.393  11.255  2.2440 -2.5137 -0.5329
  389MOL0     H52494   6.581   2.357  11.125 -1.9679 -0.3873 -1.7734
  389MOL0     H52495   6.359   2.386  11.053 -0.0576 -1.4582  1.7672
  389MOL0     H52496   6.459   2.521  10.989  0.3069 -0.4385 -0.1790
  389MOL0     H52497   7.467   2.650  11.304 -0.3780 -1.7747  4.4066
  389MOL0     H52498   7.702   2.708  11.260  2.4247  1.0954  2.5378
  389MOL0     H52499   8.060   2.951  11.408  1.2493  0.8705  0.4272
  389MOL0     H52500   8.289   2.995  11.400  0.6809 -1.2566 -0.2232
  389MOL0     H52501   9.449   1.943  10.839  1.3474 -0.1385 -0.4372
  389MOL0     H52502   9.588   1.756  10.904 -1.3609  0.0030 -0.1329
  389MOL0     H52503   9.968   1.505  10.864  0.9536  3.5894  0.3620
  389MOL0     H52504  10.084   1.314  10.948  2.0633  0.0016 -0.0953
  389MOL0     H52505  10.002   1.123  11.084 -2.0680  0.0307  5.1574
  389MOL0     H52506  10.172   1.148  11.048 -1.7568 -2.1323 -1.4661
  389MOL0     H52507  10.041   0.992  11.265  0.1943  0.4545  1.0057
  389MOL0     H52508  10.219   1.020  11.253  0.8131  0.0831 -1.3037
  389MOL0     H52509  10.205   0.902  11.007  0.7318  2.5715  0.0877
  389MOL0     H52510  10.029   0.892  11.026  0.5349  3.1281 -1.6644
  389MOL0     H52511  10.085   0.771  11.259 -0.6092  2.1480 -0.5842
  389MOL0     H52512  10.248   0.756  11.177  0.6902  0.2097 -1.0198
  389MOL0     H52513  10.028   0.476  10.977 -2.6055  0.6978 -0.5046
  389MOL0     H52514  10.017   1.444  11.354 -2.1492 -1.0543  1.3289
  389MOL0     H52515   9.902   1.646  11.260 -3.5636 -0.9079 -0.4203
  390MOL0     O52516   0.382   3.336   0.429  0.3511  0.0644 -0.3606
  390MOL0     C52517   0.462   3.422   0.420  0.0668  0.7492 -0.2459
  390MOL0     O52518   0.468   3.529   0.493  0.0229  0.7313  0.3680
  390MOL0     C52519   0.408   3.533   0.615 -0.0829 -1.3133 -0.2365
  390MOL0     C52520   0.463   3.489   0.726 -0.1397 -0.6332 -0.6588
  390MOL0     C52521   0.386   3.511   0.848 -0.6537  0.3534  0.1278
  390MOL0     C52522   0.271   3.588   0.849  1.1048 -0.1643 -0.5090
  390MOL0     O52523   0.204   3.589   0.967  0.2953  0.3932 -0.1169
  390MOL0     C52524   0.265   3.628   1.088 -0.1314 -0.7237  0.5042
  390MOL0     C52525   0.165   3.722   1.160 -0.5771 -0.0476 -0.5068
  390MOL0     C52526   0.193   3.871   1.112 -0.0650 -0.3142 -0.0752
  390MOL0     C52527   0.110   3.973   1.181  0.1983 -0.9058  0.2414
  390MOL0     C52528   0.137   4.117   1.126  0.7445 -0.5447  0.1188
  390MOL0     C52529   0.077   4.219   1.216 -0.1371  0.3660 -0.4265
  390MOL0     C52530   0.174   4.250   1.330  0.3458 -0.2715 -0.0405
  390MOL0     C52531   0.102   4.278   1.456 -0.9674  0.5777 -0.8943
  390MOL0     N52532   0.050   4.413   1.462 -0.3654  0.1404 -0.5623
  390MOL0     C52533  -0.063   4.453   1.394  0.4185  0.0789  0.0422
  390MOL0     C52534  -0.090   4.578   1.427  0.1232  0.4582 -0.0491
  390MOL0     C52535  -0.217   4.652   1.390 -0.6196 -1.1277 -0.6834
  390MOL0     C52536  -0.331   4.641   1.495 -0.9663 -0.1158  0.1058
  390MOL0     C52537  -0.459   4.722   1.468  0.2679 -0.6723  0.6091
  390MOL0     C52538  -0.580   4.700   1.564 -0.3864  0.5859 -0.4314
  390MOL0     O52539  -0.693   4.744   1.496  0.2136  0.3415  0.3973
  390MOL0     C52540  -0.822   4.754   1.548  0.2249  0.2796 -0.0131
  390MOL0     C52541  -0.898   4.855   1.498  0.1797  0.0880  0.2145
  390MOL0     C52542  -1.019   4.896   1.552 -0.1906  0.4538 -0.4402
  390MOL0     C52543  -1.070   5.029   1.503  0.9939  0.1292  0.4849
  390MOL0     C52544  -1.073   4.818   1.658 -0.5714  0.3679  0.9851
  390MOL0     C52545  -1.209   4.835   1.716  0.1902  1.2519  0.0998
  390MOL0     O52546  -1.246   4.737   1.810 -0.7635  0.3554 -0.1020
  390MOL0     C52547  -1.355   4.741   1.891  0.0339 -0.5358 -0.4511
  390MOL0     C52548  -1.400   4.614   1.927 -0.5647 -0.0262 -0.2153
  390MOL0     C52549  -1.519   4.596   1.996  0.9359  0.5803  0.2199
  390MOL0     C52550  -1.593   4.711   2.040  0.1542  0.1101  0.2648
  390MOL0     O52551  -1.695   4.717   2.131 -0.5017  0.0226 -0.2522
  390MOL0     C52552  -1.741   4.603   2.201 -0.1087  0.1191 -0.5590
  390MOL0     C52553  -1.862   4.649   2.281 -0.0169  0.4860  0.0767
  390MOL0     C52554  -1.927   4.531   2.352  1.0144 -0.0614  0.7647
  390MOL0     C52555  -2.026   4.595   2.442 -0.5949 -0.0119  0.1566
  390MOL0     C52556  -2.118   4.498   2.504  0.1883  0.2784  0.5515
  390MOL0     C52557  -2.183   4.406   2.407  0.8494  0.5858 -0.2396
  390MOL0     C52558  -2.285   4.310   2.468 -0.5559 -0.7485  0.7198
  390MOL0     C52559  -2.334   4.194   2.381  0.3886  0.7306 -0.5852
  390MOL0    Cl52560  -2.437   4.247   2.248 -0.3465 -0.6972 -0.2813
  390MOL0     C52561  -1.540   4.839   2.006  0.1911  0.2276 -0.7068
  390MOL0     C52562  -1.425   4.857   1.934 -0.3974  0.3393  1.0516
  390MOL0     O52563  -1.281   4.930   1.683 -0.3862  0.1291  0.1248
  390MOL0     C52564  -0.988   4.717   1.712  0.5879 -0.3633  0.1870
  390MOL0     C52565  -0.864   4.692   1.665 -0.7727 -0.0049  0.7838
  390MOL0     N52566   0.011   4.614   1.521 -0.7706  0.1758 -0.2903
  390MOL0     N52567   0.097   4.512   1.532  0.3570 -0.6099 -1.0780
  390MOL0     C52568   0.215   3.641   0.735  0.3048 -0.6454  0.5828
  390MOL0     C52569   0.285   3.606   0.619 -0.5896  0.2983 -0.0126
  390MOL0     C52570   0.554   3.413   0.316 -0.8875  0.0618  0.3118
  390MOL0     C52571   0.551   3.319   0.206  0.5043 -1.0391 -0.3829
  390MOL0     C52572   0.659   3.295   0.122 -0.6176  0.1492  0.0044
  390MOL0     C52573   0.782   3.362   0.151 -0.1864 -0.5777  0.7364
  390MOL0     O52574   0.893   3.335   0.072 -0.7566  0.0187 -0.2586
  390MOL0     C52575   0.984   3.443   0.043  0.4379 -0.9192 -0.5822
  390MOL0     C52576   1.109   3.393  -0.048  0.1545  0.1502  0.5414
  390MOL0     C52577   1.206   3.311   0.038  0.0015  0.7540  0.8371
  390MOL0     C52578   1.334   3.286  -0.037 -1.1184 -0.2244 -0.8194
  390MOL0     C52579   1.421   3.199   0.038 -0.1569 -0.3843  0.7591
  390MOL0     C52580   1.500   3.131   0.102 -0.0910 -0.4825 -0.1759
  390MOL0     C52581   0.785   3.463   0.248  0.5215 -0.3680 -0.5829
  390MOL0     C52582   0.668   3.487   0.332 -0.1317 -0.1832 -0.0847
  390MOL0     H52583   0.554   3.431   0.721  0.7870  0.7028 -0.0194
  390MOL0     H52584   0.426   3.455   0.932 -5.8799 -1.4870  1.7880
  390MOL0     H52585   0.274   3.545   1.159  0.1566  0.6455  2.1144
  390MOL0     H52586   0.357   3.684   1.070 -2.0325  1.8870 -2.0056
  390MOL0     H52587   0.059   3.704   1.140 -0.5203 -0.9243 -0.0688
  390MOL0     H52588   0.181   3.710   1.267  2.1387 -2.9717 -1.1041
  390MOL0     H52589   0.298   3.895   1.132 -0.2114 -0.2312  0.6284
  390MOL0     H52590   0.184   3.870   1.003  1.4854 -1.4187 -0.2300
  390MOL0     H52591   0.005   3.947   1.195  0.2450 -0.4302  1.5829
  390MOL0     H52592   0.155   3.972   1.281 -1.5680  1.4707  1.1779
  390MOL0     H52593   0.246   4.120   1.120  0.8520 -1.9012  0.9818
  390MOL0     H52594   0.086   4.127   1.030  0.6323  1.2876  0.3251
  390MOL0     H52595   0.055   4.307   1.155  2.2790  0.5311 -1.1500
  390MOL0     H52596  -0.018   4.182   1.257 -1.4595  2.4689 -1.4363
  390MOL0     H52597   0.243   4.165   1.334 -1.1380 -2.1392 -5.7083
  390MOL0     H52598   0.239   4.335   1.306  1.5230 -1.4137 -1.1046
  390MOL0     H52599   0.164   4.259   1.545 -2.7055  1.2607  0.5158
  390MOL0     H52600   0.025   4.201   1.468 -0.1411 -0.5904 -2.6569
  390MOL0     H52601  -0.134   4.406   1.327 -1.9610  1.5208  1.3775
  390MOL0     H52602  -0.174   4.752   1.387  0.7521 -1.4076  3.3488
  390MOL0     H52603  -0.248   4.616   1.291 -4.7389  4.0145 -1.6545
  390MOL0     H52604  -0.282   4.657   1.591  1.9793  1.0364 -1.4497
  390MOL0     H52605  -0.369   4.538   1.500 -0.9111 -0.0856  1.7471
  390MOL0     H52606  -0.494   4.691   1.369  0.3380 -2.6895  1.1549
  390MOL0     H52607  -0.424   4.825   1.462  1.1211 -0.9848 -0.1523
  390MOL0     H52608  -0.570   4.749   1.661  1.8186  0.2342 -0.4278
  390MOL0     H52609  -0.573   4.594   1.590 -1.4260  0.7401  0.5548
  390MOL0     H52610  -0.856   4.913   1.417  2.6535 -3.5758 -1.4463
  390MOL0     H52611  -1.000   5.075   1.432  3.4071 -2.3993  1.0814
  390MOL0     H52612  -1.173   5.026   1.467  0.7448 -0.1533  1.2011
  390MOL0     H52613  -1.080   5.088   1.595 -3.3670 -1.2376  1.1554
  390MOL0     H52614  -1.335   4.534   1.893 -1.5602 -1.2152  0.5783
  390MOL0     H52615  -1.547   4.502   2.042 -0.5726  0.6736 -0.4421
  390MOL0     H52616  -1.786   4.531   2.132 -1.9680  1.6302 -0.9892
  390MOL0     H52617  -1.663   4.563   2.267 -0.8662 -1.7765 -0.7358
  390MOL0     H52618  -1.816   4.705   2.363  0.3427  0.0486  0.1766
  390MOL0     H52619  -1.931   4.707   2.219 -2.2874 -1.2872  0.7872
  390MOL0     H52620  -1.863   4.459   2.404 -1.3335 -4.0237 -1.3712
  390MOL0     H52621  -1.980   4.476   2.275  4.2969 -1.1676 -0.8681
  390MOL0     H52622  -1.984   4.654   2.524 -2.2267  0.9885  0.3349
  390MOL0     H52623  -2.094   4.662   2.388 -2.4646 -0.9706  1.2068
  390MOL0     H52624  -2.197   4.560   2.547  2.4286  1.4036  3.4085
  390MOL0     H52625  -2.077   4.448   2.592 -3.5605 -4.5002  0.0034
  390MOL0     H52626  -2.243   4.463   2.336 -0.6872  0.1038  0.6128
  390MOL0     H52627  -2.114   4.341   2.353  0.8060  0.5213 -0.2178
  390MOL0     H52628  -2.371   4.365   2.508  0.8496  2.0564  0.1285
  390MOL0     H52629  -2.232   4.264   2.552  1.1076  0.3454  0.3137
  390MOL0     H52630  -2.383   4.124   2.449  4.8946 -1.7466  0.4810
  390MOL0     H52631  -2.248   4.143   2.336  0.8972 -0.3478  1.4955
  390MOL0     H52632  -1.599   4.924   2.038  1.8264  1.7465 -1.6150
  390MOL0     H52633  -1.384   4.953   1.905  1.5345 -0.8289 -0.3355
  390MOL0     H52634  -1.019   4.654   1.794 -1.3924 -0.4274 -0.5568
  390MOL0     H52635  -0.798   4.627   1.722  1.9238  0.2762 -1.7461
  390MOL0     H52636   0.117   3.686   0.740  0.4101 -0.4466  4.5061
  390MOL0     H52637   0.240   3.641   0.527  0.3056 -2.3959 -1.5906
  390MOL0     H52638   0.467   3.251   0.194  0.0805 -0.2565 -2.0572
  390MOL0     H52639   0.662   3.222   0.042 -0.2100  0.5107 -0.3205
  390MOL0     H52640   0.930   3.524  -0.008 -1.0952 -2.3100 -1.2638
  390MOL0     H52641   1.030   3.469   0.139  0.2907 -1.0901 -0.4643
  390MOL0     H52642   1.160   3.475  -0.099  2.0959 -1.0533  0.4396
  390MOL0     H52643   1.078   3.321  -0.124 -1.6760  0.0998  1.2988
  390MOL0     H52644   1.157   3.219   0.073  0.8949  0.3500  1.0631
  390MOL0     H52645   1.231   3.368   0.128  5.0551  0.1358  0.0971
  390MOL0     H52646   1.392   3.378  -0.039  0.4505 -1.1499 -0.3441
  390MOL0     H52647   1.317   3.249  -0.138 -1.8138 -2.4874  0.0511
  390MOL0     H52648   1.562   3.066   0.162 -1.3160  0.0851  1.7987
  390MOL0     H52649   0.873   3.525   0.264 -0.5778  1.6338 -1.8115
  390MOL0     H52650   0.675   3.570   0.400  1.4280 -1.3750  1.3056
  391MOL0     O52651   2.404   7.932   0.113 -1.0433 -0.9821  0.4004
  391MOL0     C52652   2.416   7.842   0.036 -0.1612  0.5160  0.9934
  391MOL0     O52653   2.310   7.781  -0.036  0.4486  0.2385  0.4011
  391MOL0     C52654   2.189   7.838  -0.030  0.2654  0.5187  0.0820
  391MOL0     C52655   2.080   7.772   0.013 -0.2269  0.2217 -0.5883
  391MOL0     C52656   1.957   7.843   0.038  0.5778  0.1397  0.0015
  391MOL0     C52657   1.935   7.972   0.011  0.5177 -0.4727  1.0218
  391MOL0     O52658   1.823   8.050   0.036 -0.5441 -0.8299  0.0182
  391MOL0     C52659   1.760   8.008   0.156  0.6247 -0.1027 -0.3002
  391MOL0     C52660   1.614   8.000   0.118  0.4634  0.3849  0.7916
  391MOL0     C52661   1.572   7.888   0.026  0.7126 -0.6432  0.5460
  391MOL0     C52662   1.546   7.749   0.091 -0.0205 -0.4799 -0.3988
  391MOL0     C52663   1.469   7.652  -0.006 -1.2275  0.0429  0.1252
  391MOL0     C52664   1.545   7.520  -0.003 -0.5105 -0.4052 -0.4437
  391MOL0     C52665   1.524   7.462   0.141  0.0445  0.2437  0.7727
  391MOL0     C52666   1.631   7.354   0.172 -0.8618  0.1613 -0.2583
  391MOL0     N52667   1.766   7.408   0.201 -0.2093 -0.9191 -0.8926
  391MOL0     C52668   1.820   7.455   0.315 -0.4358  0.7094  0.1503
  391MOL0     C52669   1.957   7.464   0.299  0.2025  0.7135 -0.0484
  391MOL0     C52670   2.061   7.483   0.402  0.4064  1.0677  0.1015
  391MOL0     C52671   2.048   7.604   0.500 -0.4080 -0.3014 -0.1021
  391MOL0     C52672   2.089   7.749   0.442 -0.2355  0.4099  0.3921
  391MOL0     C52673   2.237   7.755   0.383  0.6535  0.7474  0.3947
  391MOL0     O52674   2.336   7.694   0.473  0.4203  0.8130 -0.2267
  391MOL0     C52675   2.370   7.760   0.583  0.5836 -0.0473  0.4468
  391MOL0     C52676   2.402   7.692   0.699 -0.1295  0.0705 -0.2098
  391MOL0     C52677   2.457   7.750   0.813 -0.8653 -0.4209  0.8269
  391MOL0     C52678   2.505   7.652   0.923 -0.4328 -0.0861 -0.2727
  391MOL0     C52679   2.482   7.889   0.820  0.1486  0.0222 -0.9961
  391MOL0     C52680   2.542   7.965   0.926 -0.1564 -0.0413 -0.8995
  391MOL0     O52681   2.567   8.092   0.899 -0.1924 -0.2518  0.9142
  391MOL0     C52682   2.591   8.188   0.998 -0.8590  0.1237 -0.8984
  391MOL0     C52683   2.482   8.242   1.059 -0.6563  0.6121 -0.5744
  391MOL0     C52684   2.492   8.341   1.153 -0.0812 -0.6713 -0.5784
  391MOL0     C52685   2.618   8.378   1.199 -1.0140  0.7568  0.1971
  391MOL0     O52686   2.615   8.485   1.287 -0.2923  0.4165 -1.0744
  391MOL0     C52687   2.739   8.541   1.333  0.9644 -0.0762 -0.2697
  391MOL0     C52688   2.783   8.637   1.225 -0.1434  0.7503 -0.3875
  391MOL0     C52689   2.677   8.735   1.168  0.4861 -0.4397  0.0939
  391MOL0     C52690   2.732   8.836   1.066 -0.0297 -0.3521 -0.1274
  391MOL0     C52691   2.623   8.926   0.999 -0.0892 -0.0357 -0.0937
  391MOL0     C52692   2.690   9.045   0.923  0.8242  0.4358 -0.0762
  391MOL0     C52693   2.584   9.140   0.859  0.4491  0.0171  0.3531
  391MOL0     C52694   2.660   9.253   0.782  0.1035 -0.0399 -0.4061
  391MOL0    Cl52695   2.721   9.383   0.894  0.3364  0.8002  0.2406
  391MOL0     C52696   2.731   8.319   1.144 -0.1644 -0.1332  0.9889
  391MOL0     C52697   2.720   8.220   1.044 -0.4923 -1.2427  0.7781
  391MOL0     O52698   2.556   7.913   1.034 -0.1343  0.8619  0.3086
  391MOL0     C52699   2.444   7.962   0.705  0.3393  0.2756 -0.2637
  391MOL0     C52700   2.390   7.899   0.586 -0.4605 -0.0352 -1.2649
  391MOL0     N52701   1.972   7.450   0.162 -0.1323  0.1022 -0.3110
  391MOL0     N52702   1.868   7.414   0.107  0.5238  0.4965  0.7483
  391MOL0     C52703   2.052   8.038  -0.031 -0.4398  0.2488 -0.8977
  391MOL0     C52704   2.178   7.978  -0.051 -0.2058 -0.4547  1.1102
  391MOL0     C52705   2.546   7.771   0.028 -0.4305 -0.6127  0.2620
  391MOL0     C52706   2.567   7.651  -0.038  0.5659  1.0355 -0.6786
  391MOL0     C52707   2.687   7.585  -0.052  0.4357 -0.5899 -0.3092
  391MOL0     C52708   2.800   7.639   0.001  0.7099 -0.8618  0.2699
  391MOL0     O52709   2.926   7.589  -0.027 -0.0930 -0.0021  0.6845
  391MOL0     C52710   2.937   7.454  -0.073  0.4948 -0.7680 -0.3365
  391MOL0     C52711   2.958   7.475  -0.229 -0.2149  0.5493  0.2103
  391MOL0     C52712   3.091   7.535  -0.261 -0.5930  0.4390  0.6154
  391MOL0     C52713   3.139   7.488  -0.401  0.3870  0.3611  0.5903
  391MOL0     C52714   3.066   7.550  -0.509  0.1109 -0.2454 -0.2253
  391MOL0     C52715   2.987   7.599  -0.588 -0.0193 -0.0223 -0.2538
  391MOL0     C52716   2.789   7.767   0.070 -0.7438 -0.6624  0.1763
  391MOL0     C52717   2.666   7.824   0.088  0.2414 -0.5900 -0.0182
  391MOL0     H52718   2.090   7.672   0.053 -3.4599 -0.8691 -2.1938
  391MOL0     H52719   1.870   7.790   0.077 -0.1692  2.2327  1.3248
  391MOL0     H52720   1.795   7.918   0.207  0.7688 -0.3534 -0.8297
  391MOL0     H52721   1.777   8.093   0.222 -3.8187 -0.4014  1.5615
  391MOL0     H52722   1.550   7.978   0.204 -1.1489  0.9508 -0.2099
  391MOL0     H52723   1.579   8.092   0.071 -2.2687 -0.2274  1.4506
  391MOL0     H52724   1.473   7.913  -0.013  0.6417 -1.9414 -0.1665
  391MOL0     H52725   1.643   7.874  -0.056 -0.4665 -0.3245 -0.5690
  391MOL0     H52726   1.642   7.707   0.122 -0.1751 -0.0228  0.7518
  391MOL0     H52727   1.478   7.760   0.176 -1.1839 -1.7249 -1.1256
  391MOL0     H52728   1.362   7.636   0.016 -1.1158 -1.6115 -0.3900
  391MOL0     H52729   1.479   7.693  -0.106 -4.9631  2.4709  0.5485
  391MOL0     H52730   1.516   7.446  -0.077  2.0190 -1.8258 -0.0981
  391MOL0     H52731   1.645   7.543  -0.040 -0.0935  1.3283  1.5393
  391MOL0     H52732   1.535   7.527   0.227  1.5124  0.7221  0.2476
  391MOL0     H52733   1.427   7.412   0.154  0.8940 -0.9085  3.0200
  391MOL0     H52734   1.628   7.294   0.081 -0.5869  3.0879 -2.3314
  391MOL0     H52735   1.600   7.303   0.264  1.6283 -0.6300  0.2139
  391MOL0     H52736   1.759   7.468   0.404 -1.4069  0.2780 -0.4442
  391MOL0     H52737   2.066   7.391   0.461 -1.8375  0.1905 -0.9877
  391MOL0     H52738   2.149   7.490   0.337  0.8160 -2.0245  0.2017
  391MOL0     H52739   2.116   7.583   0.582  0.4272 -1.8174 -1.1291
  391MOL0     H52740   1.952   7.622   0.550  0.9052  0.5226  2.2460
  391MOL0     H52741   2.086   7.830   0.515 -0.7539  0.8228 -0.0797
  391MOL0     H52742   2.016   7.766   0.362 -0.0991  1.9440  0.5701
  391MOL0     H52743   2.258   7.859   0.356  1.0332  0.7494  0.6995
  391MOL0     H52744   2.229   7.696   0.291 -0.0670 -0.4181  1.1834
  391MOL0     H52745   2.390   7.585   0.681 -1.0482  0.5920 -3.1990
  391MOL0     H52746   2.456   7.554   0.914 -0.0560 -0.3230  0.2252
  391MOL0     H52747   2.612   7.635   0.915 -0.0978  1.1693  1.1776
  391MOL0     H52748   2.488   7.673   1.029  0.7034 -0.9972  0.1112
  391MOL0     H52749   2.384   8.201   1.035 -0.1475 -0.6124 -0.6418
  391MOL0     H52750   2.401   8.379   1.199  0.0384  0.0573 -0.9428
  391MOL0     H52751   2.716   8.583   1.432  2.0002  2.5615 -1.0660
  391MOL0     H52752   2.816   8.466   1.355  2.6455  2.4484  3.7453
  391MOL0     H52753   2.867   8.695   1.265  0.9668 -1.7526  1.1100
  391MOL0     H52754   2.824   8.574   1.145 -0.0217 -0.9249  0.9390
  391MOL0     H52755   2.643   8.791   1.256  0.5920 -0.2328  0.0025
  391MOL0     H52756   2.595   8.675   1.129  0.3010 -2.4636  3.2439
  391MOL0     H52757   2.800   8.904   1.119 -0.5393 -0.2010  0.3520
  391MOL0     H52758   2.789   8.781   0.991 -0.4611  2.2429 -2.5272
  391MOL0     H52759   2.560   8.970   1.077  1.6224  2.4108 -0.0081
  391MOL0     H52760   2.551   8.872   0.936 -1.5525 -1.3497  2.5403
  391MOL0     H52761   2.749   9.102   0.995  1.6145  1.3360 -1.3937
  391MOL0     H52762   2.755   9.000   0.848  1.7272  0.9252  0.4045
  391MOL0     H52763   2.513   9.182   0.930  2.9088 -1.8086  4.2410
  391MOL0     H52764   2.523   9.079   0.793  0.2664 -1.1062  1.5261
  391MOL0     H52765   2.601   9.292   0.698  2.0841 -0.0497 -1.8707
  391MOL0     H52766   2.752   9.211   0.740  1.1567  2.8589 -1.2354
  391MOL0     H52767   2.831   8.357   1.164  0.5907 -1.0585 -0.8260
  391MOL0     H52768   2.805   8.166   1.004 -1.3257  0.0344 -3.1865
  391MOL0     H52769   2.457   8.068   0.686  2.9060 -0.0667 -0.7868
  391MOL0     H52770   2.388   7.961   0.497  2.1979  2.3572  0.1724
  391MOL0     H52771   2.031   8.144  -0.036 -3.7902 -0.2014  0.3939
  391MOL0     H52772   2.257   8.048  -0.076 -0.9392  0.0254  0.0710
  391MOL0     H52773   2.479   7.601  -0.076 -1.1545 -1.4436  5.2951
  391MOL0     H52774   2.674   7.491  -0.105 -0.8943 -0.1042 -0.8932
  391MOL0     H52775   3.026   7.399  -0.040  1.5083 -0.3944 -2.2644
  391MOL0     H52776   2.852   7.398  -0.033  1.9785 -1.8169  1.5084
  391MOL0     H52777   2.881   7.542  -0.268  0.3271  1.1636  0.1803
  391MOL0     H52778   2.949   7.373  -0.269 -0.4057  0.4572  0.4806
  391MOL0     H52779   3.169   7.493  -0.198  1.0278  1.4557 -0.6247
  391MOL0     H52780   3.096   7.644  -0.269 -0.7878  0.4497  0.6360
  391MOL0     H52781   3.124   7.381  -0.416 -1.0701  0.4247  1.3980
  391MOL0     H52782   3.243   7.519  -0.413  0.6362 -0.8499 -0.5278
  391MOL0     H52783   2.916   7.631  -0.660 -1.7956  1.8673  2.1467
  391MOL0     H52784   2.877   7.819   0.107 -0.8560  1.7750 -2.6575
  391MOL0     H52785   2.655   7.912   0.150  0.3454 -1.6013  1.4904
  392MOL0     O52786   7.529   3.494   0.354  0.2688  0.0376  0.1195
  392MOL0     C52787   7.634   3.478   0.426  1.0812  0.1532 -0.0243
  392MOL0     O52788   7.653   3.380   0.527 -0.3245  0.3940  0.3559
  392MOL0     C52789   7.544   3.321   0.571 -0.3551 -0.3377  0.0786
  392MOL0     C52790   7.452   3.398   0.648 -1.2539  0.3468 -0.2103
  392MOL0     C52791   7.329   3.338   0.688 -0.5039  0.0745 -0.0165
  392MOL0     C52792   7.305   3.207   0.659  0.0403 -0.6741 -1.1960
  392MOL0     O52793   7.189   3.149   0.708 -0.0684 -0.0560 -0.9863
  392MOL0     C52794   7.077   3.229   0.736 -0.3680 -0.1794  0.0243
  392MOL0     C52795   6.950   3.135   0.720  0.6883 -0.4774  0.0213
  392MOL0     C52796   6.824   3.221   0.733 -0.1981  0.2783 -0.6065
  392MOL0     C52797   6.697   3.153   0.668  0.0104 -0.6199  0.3877
  392MOL0     C52798   6.577   3.248   0.692 -0.1877 -0.3203  0.6372
  392MOL0     C52799   6.606   3.372   0.598  1.3085  0.6027  0.0299
  392MOL0     C52800   6.481   3.454   0.569 -0.0051  0.8582  0.5173
  392MOL0     C52801   6.390   3.394   0.461 -0.8320  0.1720 -0.7618
  392MOL0     N52802   6.281   3.492   0.431 -0.4882 -0.4401  0.5022
  392MOL0     C52803   6.260   3.542   0.310 -0.2781 -0.1339  0.5135
  392MOL0     C52804   6.138   3.604   0.316  1.3036  0.5088  0.5662
  392MOL0     C52805   6.078   3.676   0.197  0.8598 -0.7146  0.6562
  392MOL0     C52806   5.925   3.690   0.202  1.0310  0.2966 -0.3184
  392MOL0     C52807   5.860   3.558   0.179  0.6294  0.2138  0.0648
  392MOL0     C52808   5.706   3.571   0.149  0.7924  0.3765 -0.0056
  392MOL0     O52809   5.653   3.444   0.120 -0.4414  0.2712  0.8929
  392MOL0     C52810   5.539   3.418   0.050  0.0338  0.4888  0.7065
  392MOL0     C52811   5.528   3.315  -0.053 -0.2784  0.0111 -1.0338
  392MOL0     C52812   5.420   3.289  -0.123 -0.0321  0.3245 -0.1933
  392MOL0     C52813   5.427   3.171  -0.218 -0.3985 -0.1052  0.4233
  392MOL0     C52814   5.302   3.365  -0.097  0.0082 -0.5384  0.7980
  392MOL0     C52815   5.177   3.349  -0.174 -0.3317 -0.9733 -0.0907
  392MOL0     O52816   5.135   3.222  -0.195  0.4302  0.2529 -0.4131
  392MOL0     C52817   5.022   3.213  -0.270  1.0357  0.4582 -0.6789
  392MOL0     C52818   4.892   3.227  -0.204  0.7728  0.7351 -0.6942
  392MOL0     C52819   4.773   3.219  -0.280 -0.4711 -0.9539  0.4171
  392MOL0     C52820   4.781   3.199  -0.424 -0.2397 -0.1473 -0.3976
  392MOL0     O52821   4.672   3.168  -0.498 -0.8509 -0.1875  0.9619
  392MOL0     C52822   4.560   3.120  -0.424 -0.2394  0.5650  0.9395
  392MOL0     C52823   4.452   3.095  -0.525  0.3480 -0.2920  0.3587
  392MOL0     C52824   4.337   3.013  -0.469 -0.0349 -0.6516 -1.2479
  392MOL0     C52825   4.220   2.996  -0.566  0.1138 -0.9307 -0.0046
  392MOL0     C52826   4.108   2.926  -0.486 -0.5349 -1.0982  0.5283
  392MOL0     C52827   3.987   2.892  -0.581 -1.1907 -0.9951 -0.9303
  392MOL0     C52828   3.918   3.015  -0.654 -0.6570 -0.6302  0.9774
  392MOL0     C52829   3.805   2.972  -0.741  0.6527 -0.1480  0.3441
  392MOL0    Cl52830   3.884   2.895  -0.888 -0.8609  0.1528  0.0582
  392MOL0     C52831   4.910   3.198  -0.482  0.7807  0.3466  0.0230
  392MOL0     C52832   5.029   3.193  -0.410 -0.5579 -0.4653 -0.9327
  392MOL0     O52833   5.109   3.448  -0.206  0.0154 -1.1633  0.0822
  392MOL0     C52834   5.314   3.478  -0.015  0.6463 -0.0762 -0.1847
  392MOL0     C52835   5.430   3.507   0.055  0.6595  1.1376 -0.8451
  392MOL0     N52836   6.090   3.593   0.445 -0.1696  0.5295  0.0145
  392MOL0     N52837   6.181   3.532   0.513 -0.0558 -0.0599 -0.0657
  392MOL0     C52838   7.397   3.129   0.595  1.1255 -0.0847 -0.0489
  392MOL0     C52839   7.513   3.186   0.546  0.4036 -0.5671 -0.0465
  392MOL0     C52840   7.759   3.553   0.388 -0.3968  0.3467  0.3535
  392MOL0     C52841   7.769   3.649   0.284 -0.1773 -0.0795  0.1643
  392MOL0     C52842   7.893   3.701   0.250 -0.5550 -0.8846 -0.3293
  392MOL0     C52843   8.009   3.673   0.324  0.6382 -0.1775  0.5833
  392MOL0     O52844   8.129   3.736   0.308 -0.2287  0.1037 -1.1079
  392MOL0     C52845   8.151   3.816   0.188  0.0782  0.4009  0.2675
  392MOL0     C52846   8.287   3.870   0.183  0.1922  0.3519  0.6857
  392MOL0     C52847   8.401   3.760   0.182  0.0234  0.4550  0.3646
  392MOL0     C52848   8.535   3.822   0.194 -0.0555  0.2488  0.4227
  392MOL0     C52849   8.644   3.727   0.179 -0.4986  1.3445  0.6368
  392MOL0     C52850   8.739   3.664   0.145  0.0116  0.0705  0.1278
  392MOL0     C52851   7.995   3.602   0.440  0.1715  0.6516  0.2462
  392MOL0     C52852   7.873   3.543   0.476  1.2301  0.3460 -0.8396
  392MOL0     H52853   7.476   3.501   0.675  0.1178  0.2313 -0.8969
  392MOL0     H52854   7.256   3.389   0.749 -1.3179 -2.4209  1.2261
  392MOL0     H52855   7.075   3.270   0.838 -1.3563  0.1765 -0.1250
  392MOL0     H52856   7.066   3.318   0.674  0.4560  0.6116  0.9703
  392MOL0     H52857   6.958   3.100   0.617  3.6430  0.3630 -0.1435
  392MOL0     H52858   6.959   3.047   0.784 -0.8041  0.4951  1.6619
  392MOL0     H52859   6.801   3.240   0.838  0.1677  0.7418 -0.6068
  392MOL0     H52860   6.844   3.314   0.680 -0.4438 -0.8901 -2.8767
  392MOL0     H52861   6.709   3.132   0.562 -2.8574  2.6983 -0.7853
  392MOL0     H52862   6.677   3.050   0.701 -0.0136 -0.3183  1.3660
  392MOL0     H52863   6.490   3.187   0.665  1.3158 -2.6764  0.8123
  392MOL0     H52864   6.552   3.292   0.788  0.3460  0.5060  0.4048
  392MOL0     H52865   6.675   3.444   0.643  0.7543  1.3804 -0.3427
  392MOL0     H52866   6.652   3.334   0.506  4.7588  3.7683  0.2350
  392MOL0     H52867   6.418   3.456   0.658 -1.2831  1.0221 -0.3628
  392MOL0     H52868   6.508   3.557   0.543 -3.9361  1.0034 -4.8434
  392MOL0     H52869   6.341   3.299   0.486 -0.3824  0.6765  2.4098
  392MOL0     H52870   6.449   3.378   0.370 -0.1591 -3.9294  0.2286
  392MOL0     H52871   6.313   3.525   0.217  0.7132 -1.3488  1.2705
  392MOL0     H52872   6.123   3.776   0.192 -0.5016 -0.0706  0.7713
  392MOL0     H52873   6.109   3.627   0.104  3.7275  3.1873 -0.7845
  392MOL0     H52874   5.901   3.747   0.112 -0.1610 -0.0637 -0.2506
  392MOL0     H52875   5.885   3.743   0.288 -0.2058 -0.2003 -0.5688
  392MOL0     H52876   5.862   3.494   0.268  0.4494  0.3584  0.1728
  392MOL0     H52877   5.906   3.509   0.093  2.3209  1.5889  0.1322
  392MOL0     H52878   5.672   3.643   0.074 -0.4481  0.2604  0.4170
  392MOL0     H52879   5.669   3.601   0.248  0.0705  1.4734 -0.5785
  392MOL0     H52880   5.617   3.253  -0.061 -0.0127  0.1937  0.2913
  392MOL0     H52881   5.412   3.072  -0.173 -0.3223 -1.3664 -2.1460
  392MOL0     H52882   5.361   3.190  -0.303  0.4702 -3.4271 -1.1561
  392MOL0     H52883   5.530   3.165  -0.255 -0.3513  2.0165  0.0928
  392MOL0     H52884   4.886   3.245  -0.097 -1.7620  4.5747 -1.2687
  392MOL0     H52885   4.681   3.209  -0.222 -0.0947 -3.2645  0.6986
  392MOL0     H52886   4.584   3.027  -0.372 -1.5587 -1.0006 -1.1108
  392MOL0     H52887   4.524   3.191  -0.348 -0.3326  0.5651  0.8957
  392MOL0     H52888   4.410   3.192  -0.554 -0.6324 -1.2512 -1.6974
  392MOL0     H52889   4.484   3.045  -0.617  0.1423  0.6980 -0.2668
  392MOL0     H52890   4.305   3.070  -0.382 -0.0232 -2.5690  0.0906
  392MOL0     H52891   4.382   2.919  -0.436 -1.6796 -1.7484 -1.9544
  392MOL0     H52892   4.175   3.092  -0.592 -1.5866 -1.9904 -1.2487
  392MOL0     H52893   4.248   2.953  -0.663 -0.6184 -0.7138 -0.3225
  392MOL0     H52894   4.067   3.004  -0.421  1.8510  1.6765 -1.0399
  392MOL0     H52895   4.135   2.846  -0.416  0.4436  1.9823  3.9709
  392MOL0     H52896   4.028   2.816  -0.649  0.1641 -0.9133 -0.2421
  392MOL0     H52897   3.905   2.851  -0.521 -1.5705  0.0148 -0.7490
  392MOL0     H52898   3.987   3.076  -0.714 -2.2037 -0.9041 -1.2120
  392MOL0     H52899   3.861   3.076  -0.583 -1.9632  0.6584 -1.0766
  392MOL0     H52900   3.753   3.063  -0.772  3.8213  1.2243 -1.5928
  392MOL0     H52901   3.739   2.904  -0.687  1.4451  0.0974  1.6663
  392MOL0     H52902   4.912   3.178  -0.589  0.0741 -4.9093  0.7141
  392MOL0     H52903   5.123   3.184  -0.462  1.7637  0.0745  2.8066
  392MOL0     H52904   5.242   3.556   0.005  4.7211  3.5602  1.8086
  392MOL0     H52905   5.430   3.579   0.137 -0.9121 -0.1787  0.3816
  392MOL0     H52906   7.384   3.023   0.579 -2.3743 -0.0673  1.7853
  392MOL0     H52907   7.595   3.137   0.494  1.7562  0.3624  1.1389
  392MOL0     H52908   7.682   3.672   0.222  0.7066  1.0458 -0.7189
  392MOL0     H52909   7.904   3.760   0.160  0.7978 -0.1722  0.2702
  392MOL0     H52910   8.134   3.751   0.102  1.3144  1.2094 -0.6301
  392MOL0     H52911   8.084   3.902   0.176  1.6902  1.3046 -4.5805
  392MOL0     H52912   8.306   3.927   0.274 -1.4645  2.5800 -0.2696
  392MOL0     H52913   8.302   3.936   0.097 -1.2051 -0.1869 -0.0050
  392MOL0     H52914   8.408   3.702   0.090  0.6829  0.6530  0.2848
  392MOL0     H52915   8.391   3.693   0.267  1.0432 -1.1115 -0.6967
  392MOL0     H52916   8.546   3.861   0.295 -2.1080 -1.6596  1.4845
  392MOL0     H52917   8.526   3.909   0.129  1.1762  1.4981  1.8642
  392MOL0     H52918   8.822   3.598   0.127 -2.0802 -2.5969 -0.3343
  392MOL0     H52919   8.084   3.588   0.500  1.5312 -0.7697 -1.9353
  392MOL0     H52920   7.872   3.480   0.564 -1.5612  2.0355  0.5002
  393MOL0     O52921   3.172   1.371   8.091  0.0387 -0.3583  0.5889
  393MOL0     C52922   3.257   1.406   8.012  0.2845  0.3218  0.2785
  393MOL0     O52923   3.242   1.475   7.889  0.7097  0.0878  0.3901
  393MOL0     C52924   3.110   1.508   7.873  0.1321  0.3465  0.3985
  393MOL0     C52925   3.015   1.417   7.823 -0.2485  0.3102 -0.5202
  393MOL0     C52926   2.882   1.453   7.821 -0.3757  0.0487 -0.7171
  393MOL0     C52927   2.834   1.574   7.867 -0.2618 -0.2078  0.2025
  393MOL0     O52928   2.701   1.599   7.854 -0.1781 -0.4205 -0.4421
  393MOL0     C52929   2.609   1.568   7.957  0.1112  1.0567 -0.2540
  393MOL0     C52930   2.621   1.665   8.077 -0.6607  0.2491 -0.4808
  393MOL0     C52931   2.495   1.668   8.158 -0.6957  1.1184 -0.0023
  393MOL0     C52932   2.448   1.819   8.188 -0.8972 -0.1492  0.5323
  393MOL0     C52933   2.300   1.808   8.236  0.2594 -0.1006 -0.5142
  393MOL0     C52934   2.230   1.938   8.278  0.9889 -0.0670  0.2318
  393MOL0     C52935   2.219   2.042   8.168 -0.9328 -0.4372  0.1892
  393MOL0     C52936   2.202   2.194   8.217  0.3021 -0.0819  1.4894
  393MOL0     N52937   2.070   2.205   8.263  0.6983 -0.6368  0.3311
  393MOL0     C52938   1.966   2.267   8.198  1.2489 -0.5931  0.9185
  393MOL0     C52939   1.853   2.236   8.266  0.9351  0.4061 -0.5240
  393MOL0     C52940   1.712   2.285   8.233  0.7866  0.3823  0.4305
  393MOL0     C52941   1.639   2.195   8.135  0.1738  0.2870  0.2470
  393MOL0     C52942   1.483   2.223   8.125 -0.4666 -0.3085 -0.3334
  393MOL0     C52943   1.408   2.207   8.258 -0.6278  0.0697  0.3072
  393MOL0     O52944   1.269   2.200   8.229 -0.1072  0.0364  0.1883
  393MOL0     C52945   1.178   2.200   8.338  0.3490 -0.8413 -0.7901
  393MOL0     C52946   1.212   2.199   8.478  0.4514  0.2731  0.8330
  393MOL0     C52947   1.111   2.187   8.571 -0.1690  0.6432  0.2205
  393MOL0     C52948   1.149   2.202   8.718  0.3602 -0.0798  1.0605
  393MOL0     C52949   0.975   2.184   8.537 -0.2098 -1.2221  1.1069
  393MOL0     C52950   0.861   2.155   8.629  0.0206  0.2401 -0.5188
  393MOL0     O52951   0.742   2.214   8.592 -0.1392 -1.0976 -0.4771
  393MOL0     C52952   0.632   2.179   8.666  0.0963  0.4386  0.3228
  393MOL0     C52953   0.510   2.137   8.616 -0.1880  0.1188 -0.4541
  393MOL0     C52954   0.402   2.111   8.700  0.2321 -0.3748  1.2579
  393MOL0     C52955   0.408   2.139   8.835  0.5000 -0.0456  0.9116
  393MOL0     O52956   0.309   2.106   8.925  0.3774 -0.4745 -0.3609
  393MOL0     C52957   0.241   1.979   8.913  0.0540 -0.0932 -0.6245
  393MOL0     C52958   0.191   1.927   9.045 -0.9922  0.2931  0.1480
  393MOL0     C52959   0.121   1.790   9.031 -1.3510 -0.6919  0.3286
  393MOL0     C52960   0.093   1.708   9.156  0.0977 -0.6797  0.4551
  393MOL0     C52961  -0.015   1.767   9.247  0.4484  0.0385 -0.7321
  393MOL0     C52962  -0.087   1.655   9.329  0.5916 -0.4505  0.2752
  393MOL0     C52963  -0.207   1.712   9.411  0.0840  1.2163 -0.3799
  393MOL0     C52964  -0.270   1.609   9.500  0.2652  0.7523  0.2081
  393MOL0    Cl52965  -0.389   1.672   9.613 -0.1193 -0.2276 -0.1314
  393MOL0     C52966   0.521   2.194   8.890  0.2446 -0.2996  0.6240
  393MOL0     C52967   0.634   2.218   8.802  0.8802 -0.0576 -0.0213
  393MOL0     O52968   0.870   2.089   8.733 -0.0285 -0.0200 -0.2628
  393MOL0     C52969   0.947   2.177   8.404 -0.2172 -0.4246 -0.2221
  393MOL0     C52970   1.042   2.196   8.309  0.0600 -0.7216  0.4930
  393MOL0     N52971   1.889   2.152   8.372 -0.3411  0.6134 -0.0310
  393MOL0     N52972   2.019   2.146   8.377 -0.1102 -0.4575  0.3855
  393MOL0     C52973   2.927   1.668   7.920 -0.4414 -0.2982 -0.1516
  393MOL0     C52974   3.066   1.638   7.913 -0.1950 -0.2675 -0.1898
  393MOL0     C52975   3.398   1.391   8.057 -0.1092 -0.1561 -0.4962
  393MOL0     C52976   3.424   1.365   8.193  1.1297  1.1405 -0.0624
  393MOL0     C52977   3.557   1.351   8.241 -0.4073  0.1090 -0.6242
  393MOL0     C52978   3.664   1.366   8.156  0.4671 -0.0717 -0.1879
  393MOL0     O52979   3.783   1.341   8.222  0.0144  0.2720  0.6671
  393MOL0     C52980   3.905   1.343   8.139 -0.4623 -0.2866  0.2575
  393MOL0     C52981   4.033   1.307   8.221  0.4526  0.1584 -0.0466
  393MOL0     C52982   4.155   1.293   8.139 -0.2356  0.6395  0.2406
  393MOL0     C52983   4.285   1.237   8.214 -0.5194  0.1208 -0.2380
  393MOL0     C52984   4.306   1.313   8.335 -0.8571 -0.2385 -0.5664
  393MOL0     C52985   4.327   1.363   8.439 -0.5864  0.6333  0.2009
  393MOL0     C52986   3.642   1.376   8.018 -0.1106 -0.4948  0.1991
  393MOL0     C52987   3.512   1.395   7.973  0.3351  0.1671  0.0483
  393MOL0     H52988   3.050   1.317   7.801 -1.3704 -0.8789  2.6100
  393MOL0     H52989   2.802   1.384   7.795 -2.2536  1.4035  1.0784
  393MOL0     H52990   2.509   1.569   7.912  0.1706 -0.3888 -0.4716
  393MOL0     H52991   2.615   1.462   7.985 -1.2678  0.4876 -1.9354
  393MOL0     H52992   2.706   1.640   8.141 -0.6124 -0.7902 -0.9326
  393MOL0     H52993   2.636   1.766   8.037  1.1704  0.0488 -0.3837
  393MOL0     H52994   2.424   1.610   8.098 -1.6029  1.1018  1.0606
  393MOL0     H52995   2.522   1.608   8.245 -1.9283 -1.1966 -1.1366
  393MOL0     H52996   2.521   1.859   8.258 -0.7110 -1.0934  0.8933
  393MOL0     H52997   2.441   1.867   8.090 -0.8018 -2.0250 -0.4384
  393MOL0     H52998   2.239   1.749   8.167  1.3337  0.2880 -1.8523
  393MOL0     H52999   2.307   1.760   8.334 -2.5279  3.5572  1.7219
  393MOL0     H53000   2.125   1.916   8.302  1.9153 -2.8919  2.1001
  393MOL0     H53001   2.286   1.978   8.362  0.4583 -0.9460  1.0169
  393MOL0     H53002   2.311   2.047   8.109  0.1130  1.4254  1.8773
  393MOL0     H53003   2.145   2.013   8.092 -1.0088  0.6720 -0.1812
  393MOL0     H53004   2.220   2.264   8.135  1.5078  0.0334  1.8456
  393MOL0     H53005   2.271   2.214   8.299 -1.3511  1.7401  2.5071
  393MOL0     H53006   1.980   2.324   8.107  2.6140 -1.2889  0.6630
  393MOL0     H53007   1.649   2.292   8.322  1.4864 -0.0344  0.9690
  393MOL0     H53008   1.721   2.387   8.193 -1.0970  0.3070 -0.2493
  393MOL0     H53009   1.659   2.091   8.164  1.6674 -0.6550 -3.4483
  393MOL0     H53010   1.686   2.207   8.037 -1.0459  0.0775 -0.3818
  393MOL0     H53011   1.440   2.142   8.064 -0.1474  1.1142 -2.5546
  393MOL0     H53012   1.458   2.316   8.074 -0.3237 -1.2890 -2.2769
  393MOL0     H53013   1.416   2.289   8.329 -2.8638 -0.7205  1.5865
  393MOL0     H53014   1.440   2.113   8.305  1.0183 -0.3269 -1.4935
  393MOL0     H53015   1.316   2.209   8.508  0.6760  4.2272 -0.6845
  393MOL0     H53016   1.256   2.222   8.727  0.1085  2.4226 -0.4524
  393MOL0     H53017   1.107   2.294   8.761  1.3312 -0.3263  2.6041
  393MOL0     H53018   1.117   2.117   8.778  1.1126 -0.6965  0.6044
  393MOL0     H53019   0.495   2.119   8.510 -0.5618  1.1104 -0.5755
  393MOL0     H53020   0.316   2.067   8.651  0.2433  0.3704  0.5460
  393MOL0     H53021   0.158   1.995   8.843  0.4769 -0.3803 -1.2042
  393MOL0     H53022   0.300   1.901   8.863 -1.2407  0.2693 -2.8594
  393MOL0     H53023   0.282   1.924   9.105 -1.0579 -0.8401  0.2130
  393MOL0     H53024   0.133   2.014   9.076  1.2617  2.2934 -0.8953
  393MOL0     H53025   0.179   1.727   8.962  0.5091  1.5179 -0.2598
  393MOL0     H53026   0.032   1.817   8.973 -0.0102  0.3829 -1.3162
  393MOL0     H53027   0.049   1.618   9.114 -0.5209  0.7201 -2.0694
  393MOL0     H53028   0.183   1.685   9.215  2.9376  1.4357 -2.6538
  393MOL0     H53029  -0.090   1.801   9.175  0.9654  0.7387 -0.9380
  393MOL0     H53030   0.028   1.842   9.314  0.2117 -0.8177  0.4299
  393MOL0     H53031  -0.096   1.575   9.254  2.8157 -0.4003 -0.1086
  393MOL0     H53032  -0.014   1.626   9.405  0.2024 -3.2474 -0.2971
  393MOL0     H53033  -0.282   1.751   9.341 -1.0010  1.5135  0.9177
  393MOL0     H53034  -0.173   1.799   9.468  1.0456  0.5392  0.1048
  393MOL0     H53035  -0.200   1.567   9.573  0.1262 -1.2227 -0.7035
  393MOL0     H53036  -0.315   1.525   9.446 -0.2211  0.8634  0.4389
  393MOL0     H53037   0.528   2.203   8.998 -0.9552  0.7273  0.6583
  393MOL0     H53038   0.722   2.266   8.843 -0.0678  0.4006  1.5820
  393MOL0     H53039   0.847   2.157   8.369 -0.6519  1.0808  0.0613
  393MOL0     H53040   1.030   2.191   8.201  0.1384  0.5569  0.4056
  393MOL0     H53041   2.895   1.754   7.979  0.6044  0.3375 -0.4890
  393MOL0     H53042   3.138   1.710   7.953  3.1839 -0.8791 -4.4169
  393MOL0     H53043   3.338   1.362   8.259  1.7741 -0.8142  0.7695
  393MOL0     H53044   3.579   1.344   8.347 -2.6398  1.9591  0.0523
  393MOL0     H53045   3.889   1.268   8.060 -0.6990 -0.8032  0.7901
  393MOL0     H53046   3.918   1.438   8.086 -1.9154 -0.7464 -1.0115
  393MOL0     H53047   4.006   1.220   8.283  1.9560 -2.5666 -2.9306
  393MOL0     H53048   4.047   1.394   8.285 -1.8373  2.2443 -2.1601
  393MOL0     H53049   4.181   1.390   8.096 -1.9873  0.7442 -0.7014
  393MOL0     H53050   4.134   1.232   8.050 -3.8994  2.0525 -0.0188
  393MOL0     H53051   4.381   1.236   8.161  0.0043 -0.9523  0.6918
  393MOL0     H53052   4.271   1.137   8.254  1.3940  0.6366  1.9448
  393MOL0     H53053   4.359   1.406   8.532 -2.3920  3.0202 -0.1846
  393MOL0     H53054   3.725   1.382   7.948  0.3815  1.4550  0.8759
  393MOL0     H53055   3.475   1.388   7.872 -1.3984 -0.6073  0.6907
  394MOL0     O53056   6.938   3.678  10.623 -0.2872  0.3228  0.4750
  394MOL0     C53057   6.969   3.740  10.728 -0.3720 -0.1411 -0.5250
  394MOL0     O53058   6.885   3.789  10.819  0.4467  0.1819  0.6076
  394MOL0     C53059   6.752   3.753  10.813 -0.1148 -0.6503  0.0186
  394MOL0     C53060   6.697   3.654  10.896  0.2418 -0.5089 -0.3607
  394MOL0     C53061   6.554   3.622  10.880 -0.3995 -0.5883 -0.4250
  394MOL0     C53062   6.480   3.690  10.780  0.2548  0.2470 -0.1133
  394MOL0     O53063   6.347   3.660  10.759  0.4683 -0.2270  0.4628
  394MOL0     C53064   6.277   3.562  10.835  1.4370  0.2634 -1.0633
  394MOL0     C53065   6.126   3.575  10.797 -0.3265  0.3134 -0.2854
  394MOL0     C53066   6.055   3.433  10.809  0.5837 -0.0518 -1.0310
  394MOL0     C53067   5.927   3.444  10.729 -0.9746  0.5595 -0.1830
  394MOL0     C53068   5.883   3.309  10.675  0.2661 -0.5083 -0.2801
  394MOL0     C53069   5.726   3.297  10.683  0.3156 -0.1446 -0.1881
  394MOL0     C53070   5.678   3.300  10.534  0.1635  0.2814  0.0617
  394MOL0     C53071   5.540   3.221  10.518 -0.5427 -0.1926 -0.5524
  394MOL0     N53072   5.440   3.246  10.626 -0.1782  0.8503  0.5968
  394MOL0     C53073   5.355   3.347  10.630 -0.1920  0.1158 -0.0297
  394MOL0     C53074   5.313   3.342  10.759  1.1782 -0.0640  0.1908
  394MOL0     C53075   5.216   3.442  10.822  0.1453 -0.1897  0.3801
  394MOL0     C53076   5.171   3.565  10.744  1.2349  0.0207  0.4492
  394MOL0     C53077   5.089   3.665  10.816 -0.0347 -0.2461  0.3541
  394MOL0     C53078   4.966   3.617  10.892 -0.3654 -0.1641  0.6899
  394MOL0     O53079   4.864   3.720  10.898  0.3257 -0.3451 -0.4691
  394MOL0     C53080   4.744   3.690  10.948  0.3893  0.4729 -0.3073
  394MOL0     C53081   4.642   3.783  10.932 -0.4112 -0.4320  0.7340
  394MOL0     C53082   4.506   3.748  10.959  0.0095  0.7802  0.5631
  394MOL0     C53083   4.396   3.842  10.930  0.7947 -0.6667  0.0870
  394MOL0     C53084   4.480   3.612  11.003  0.6342 -0.1013  0.3058
  394MOL0     C53085   4.345   3.565  11.018  0.0339  0.1282 -0.4385
  394MOL0     O53086   4.309   3.462  10.943  0.2024  0.2944 -0.6110
  394MOL0     C53087   4.175   3.425  10.938  0.3955  0.5223 -0.2394
  394MOL0     C53088   4.129   3.320  11.014 -0.5365 -0.3360 -0.3093
  394MOL0     C53089   3.991   3.290  11.020 -0.4242  0.1034  0.5474
  394MOL0     C53090   3.899   3.349  10.939  0.5314 -0.3943 -0.3944
  394MOL0     O53091   3.775   3.293  10.958 -0.0663 -0.1197  0.2147
  394MOL0     C53092   3.678   3.369  10.884  0.3264 -0.2306  0.5399
  394MOL0     C53093   3.546   3.311  10.907 -0.0518 -0.3199  0.3388
  394MOL0     C53094   3.514   3.291  11.057 -0.1161 -0.3386 -0.2784
  394MOL0     C53095   3.375   3.229  11.063 -0.4653 -0.1916  0.4323
  394MOL0     C53096   3.322   3.213  11.207  0.3895  0.1611 -0.3597
  394MOL0     C53097   3.184   3.143  11.230  0.0797  0.1571 -0.3816
  394MOL0     C53098   3.067   3.167  11.139 -0.4947  0.5608  0.0143
  394MOL0     C53099   2.951   3.118  11.221 -0.6088  0.2663 -0.9432
  394MOL0    Cl53100   2.808   3.212  11.167  0.2036 -0.5301 -0.0571
  394MOL0     C53101   3.945   3.465  10.876  0.0438  0.5023 -0.6473
  394MOL0     C53102   4.087   3.501  10.866  0.3318  0.3330  0.4655
  394MOL0     O53103   4.274   3.619  11.094  0.3475 -0.3116  0.4607
  394MOL0     C53104   4.584   3.523  11.034  0.0788  0.5810  0.2991
  394MOL0     C53105   4.715   3.563  11.008 -0.0432 -0.2255 -0.0076
  394MOL0     N53106   5.375   3.238  10.828 -0.0293 -0.1788  0.4768
  394MOL0     N53107   5.451   3.174  10.744  0.0508  0.0508 -0.6507
  394MOL0     C53108   6.534   3.799  10.713  1.2538  0.1575 -0.4048
  394MOL0     C53109   6.668   3.828  10.727 -0.0111  0.3346 -0.5197
  394MOL0     C53110   7.116   3.775  10.733  0.3770 -0.5553  0.6953
  394MOL0     C53111   7.178   3.821  10.852  0.1198 -0.3137 -0.5914
  394MOL0     C53112   7.310   3.849  10.861 -0.2450 -0.5100 -0.5812
  394MOL0     C53113   7.395   3.838  10.748 -0.2557  0.3785  0.0742
  394MOL0     O53114   7.523   3.891  10.771  0.1778 -0.0027  0.6592
  394MOL0     C53115   7.613   3.845  10.680 -0.3709  1.0823  0.1113
  394MOL0     C53116   7.747   3.860  10.749  1.7132  0.3147  0.1342
  394MOL0     C53117   7.869   3.800  10.671 -0.4638  0.0551  0.7560
  394MOL0     C53118   7.998   3.865  10.728 -0.1693  0.5777  0.1344
  394MOL0     C53119   8.115   3.795  10.694 -0.5457  0.2941 -0.0679
  394MOL0     C53120   8.219   3.749  10.654 -0.6099  0.4496 -0.6720
  394MOL0     C53121   7.340   3.805  10.627  0.2048  0.6583  0.0970
  394MOL0     C53122   7.202   3.770  10.617 -0.0125 -0.9165  0.1696
  394MOL0     H53123   6.755   3.598  10.968  1.0560  1.8047  0.8771
  394MOL0     H53124   6.516   3.539  10.940  0.4280  0.4341  1.6136
  394MOL0     H53125   6.315   3.461  10.816  2.3946 -0.9650  5.3312
  394MOL0     H53126   6.279   3.568  10.944 -2.5841  0.1555 -0.8531
  394MOL0     H53127   6.068   3.636  10.867  0.5418 -0.8718  1.5563
  394MOL0     H53128   6.115   3.610  10.694 -2.4361 -1.5844 -0.8051
  394MOL0     H53129   6.119   3.353  10.771 -2.6662 -3.2447 -0.3609
  394MOL0     H53130   6.035   3.415  10.915  1.6796 -0.5923 -0.9027
  394MOL0     H53131   5.851   3.486  10.796 -1.6868 -0.5269 -0.2880
  394MOL0     H53132   5.937   3.506  10.640 -2.5604  0.8547 -0.1735
  394MOL0     H53133   5.928   3.296  10.577 -0.6775 -1.9151 -0.5604
  394MOL0     H53134   5.930   3.224  10.726  1.3392  0.1848 -0.0913
  394MOL0     H53135   5.699   3.203  10.733 -0.7414  0.6889  0.8666
  394MOL0     H53136   5.665   3.379  10.721 -1.5680 -0.6482 -1.9381
  394MOL0     H53137   5.660   3.406  10.514  0.1079  0.9066  2.9877
  394MOL0     H53138   5.740   3.246  10.462 -2.2075 -2.2889 -0.2456
  394MOL0     H53139   5.563   3.115  10.504  2.5182  0.4890 -1.5064
  394MOL0     H53140   5.493   3.255  10.426 -0.9947  0.6662 -0.0183
  394MOL0     H53141   5.317   3.410  10.551 -0.2394  0.5359  0.3221
  394MOL0     H53142   5.122   3.386  10.823 -1.1098  1.8306  0.4499
  394MOL0     H53143   5.241   3.450  10.928  0.1637 -0.1283  0.3712
  394MOL0     H53144   5.117   3.525  10.659  2.9331 -2.1831  0.3042
  394MOL0     H53145   5.262   3.617  10.711  0.6041 -1.0190 -3.3794
  394MOL0     H53146   5.058   3.747  10.750  3.0859 -0.7981 -2.0131
  394MOL0     H53147   5.151   3.715  10.891  0.2584 -0.5151  0.2920
  394MOL0     H53148   4.991   3.600  10.997  1.3891  4.1158  1.1810
  394MOL0     H53149   4.930   3.527  10.842  2.1748  0.0731 -1.7998
  394MOL0     H53150   4.670   3.880  10.894 -0.9248  0.8533  3.4014
  394MOL0     H53151   4.328   3.855  11.015 -0.8154 -0.9937 -1.1099
  394MOL0     H53152   4.434   3.939  10.899 -1.5649  0.1526 -0.4297
  394MOL0     H53153   4.338   3.798  10.849  0.7767 -1.2769  0.4240
  394MOL0     H53154   4.197   3.262  11.075 -0.2076  1.6727  1.3413
  394MOL0     H53155   3.950   3.212  11.083  0.2896 -1.4017 -0.8052
  394MOL0     H53156   3.665   3.469  10.926  2.8615  0.9274 -1.1940
  394MOL0     H53157   3.711   3.364  10.780  1.4225 -2.4644  0.9207
  394MOL0     H53158   3.468   3.377  10.868  0.2516 -0.6144 -0.8175
  394MOL0     H53159   3.531   3.216  10.854 -1.9958 -1.2951  2.4337
  394MOL0     H53160   3.519   3.386  11.111  0.4135 -0.2689 -0.4465
  394MOL0     H53161   3.584   3.212  11.086  0.0356 -0.5846 -1.2881
  394MOL0     H53162   3.310   3.299  11.011  2.5162  2.2479 -0.3070
  394MOL0     H53163   3.382   3.139  11.001 -2.5808  1.0267 -1.7397
  394MOL0     H53164   3.320   3.316  11.243  1.5582  1.0358 -2.5756
  394MOL0     H53165   3.396   3.161  11.268  1.1441  0.9671 -0.5757
  394MOL0     H53166   3.199   3.039  11.260  2.2435  1.0618  2.0135
  394MOL0     H53167   3.168   3.183  11.330  0.6004 -0.2178 -0.1497
  394MOL0     H53168   3.071   3.105  11.049 -1.7449 -1.5261  1.3260
  394MOL0     H53169   3.049   3.273  11.118  2.0814  1.1493  0.4910
  394MOL0     H53170   2.979   3.136  11.326  1.5489 -1.8563 -1.0470
  394MOL0     H53171   2.936   3.009  11.217 -1.7273  0.3143  0.6912
  394MOL0     H53172   3.871   3.535  10.837  0.7697  4.5107  4.1640
  394MOL0     H53173   4.120   3.589  10.811 -1.3315 -0.7149 -2.4432
  394MOL0     H53174   4.566   3.427  11.081  1.2236  0.7154  1.0461
  394MOL0     H53175   4.794   3.492  11.028 -0.6548 -0.8116  0.3720
  394MOL0     H53176   6.477   3.861  10.645 -1.1999  0.1025  1.4819
  394MOL0     H53177   6.705   3.919  10.679  0.5969 -0.5867 -1.8633
  394MOL0     H53178   7.113   3.836  10.937  1.4570  0.4039  0.3438
  394MOL0     H53179   7.349   3.902  10.947 -1.6469  3.0375 -1.9236
  394MOL0     H53180   7.593   3.742  10.651  0.1304  1.4074 -1.4849
  394MOL0     H53181   7.609   3.895  10.583 -0.6217  1.1598  0.1628
  394MOL0     H53182   7.731   3.816  10.848 -1.0857  3.6678  1.3647
  394MOL0     H53183   7.760   3.968  10.761  2.0764  0.1309  1.5657
  394MOL0     H53184   7.880   3.823  10.565 -0.2340 -0.3455  0.6910
  394MOL0     H53185   7.872   3.691  10.686 -0.5170 -0.1636 -0.6598
  394MOL0     H53186   7.991   3.894  10.833  0.0815  1.1587 -0.0067
  394MOL0     H53187   8.000   3.959  10.673  0.7845  0.9138  0.7040
  394MOL0     H53188   8.309   3.699  10.624 -0.3137 -0.0102  0.8957
  394MOL0     H53189   7.400   3.822  10.538  0.9155 -0.4359  0.3521
  394MOL0     H53190   7.165   3.745  10.519  2.3628 -2.6392 -0.3961
  395MOL0     O53191   6.108  10.382   3.959  1.0258  0.3155 -0.1112
  395MOL0     C53192   6.222  10.416   3.987  0.1679 -0.1692  0.1011
  395MOL0     O53193   6.252  10.527   4.056  0.4827  0.3972 -0.0056
  395MOL0     C53194   6.154  10.597   4.129 -0.0993  0.6359  0.8663
  395MOL0     C53195   6.158  10.735   4.119  0.0334  0.0526 -0.3797
  395MOL0     C53196   6.080  10.804   4.217 -0.6832  1.2806 -0.1548
  395MOL0     C53197   5.985  10.730   4.299 -0.2929  0.0987  0.6242
  395MOL0     O53198   5.902  10.805   4.383 -0.0213 -0.3395  0.4223
  395MOL0     C53199   5.797  10.745   4.445  1.0308  0.8210  0.4528
  395MOL0     C53200   5.682  10.835   4.506 -0.9124  0.4400 -0.2254
  395MOL0     C53201   5.655  10.926   4.394  1.2212 -0.4225  0.8873
  395MOL0     C53202   5.547  11.027   4.428  0.8228  0.3064 -0.3555
  395MOL0     C53203   5.400  10.980   4.400  0.5007  0.1127 -1.3120
  395MOL0     C53204   5.295  11.070   4.476 -0.5502  0.1113  0.0991
  395MOL0     C53205   5.156  11.037   4.433 -0.3190  0.1906  0.4453
  395MOL0     C53206   5.051  11.097   4.530  0.2924  0.1740  0.3882
  395MOL0     N53207   4.921  11.054   4.476  0.3854 -0.5165 -0.4025
  395MOL0     C53208   4.843  11.141   4.402 -0.4561 -0.5326  0.1109
  395MOL0     C53209   4.743  11.067   4.350  0.0889 -1.0519 -0.7067
  395MOL0     C53210   4.643  11.106   4.248  0.1703 -0.1713  0.3464
  395MOL0     C53211   4.515  11.162   4.313  0.2999  0.1749  0.6779
  395MOL0     C53212   4.411  11.200   4.215  0.5466 -1.3541  0.5278
  395MOL0     C53213   4.395  11.102   4.094  0.2651 -0.1032 -0.7050
  395MOL0     O53214   4.377  10.970   4.136 -0.7477 -0.1480 -0.4217
  395MOL0     C53215   4.258  10.926   4.107  1.4756 -0.0089  1.2568
  395MOL0     C53216   4.140  10.965   4.178 -0.1103  0.5178 -0.2102
  395MOL0     C53217   4.014  10.926   4.142 -0.4489 -0.0336  0.1438
  395MOL0     C53218   3.902  10.986   4.229 -0.1914 -0.3225 -0.6075
  395MOL0     C53219   3.996  10.871   4.013 -0.1037 -0.2756 -0.1232
  395MOL0     C53220   3.862  10.840   3.939 -0.2953  0.4298 -0.0321
  395MOL0     O53221   3.880  10.765   3.824  0.2235  0.2959 -0.2832
  395MOL0     C53222   3.766  10.730   3.748 -0.7452  0.4231 -0.2889
  395MOL0     C53223   3.768  10.742   3.603  0.1673 -0.7200 -1.2713
  395MOL0     C53224   3.676  10.691   3.521 -1.0603  0.7732  0.6300
  395MOL0     C53225   3.566  10.631   3.579  0.5854  0.0683 -0.3173
  395MOL0     O53226   3.452  10.592   3.515  0.2907 -0.1308 -0.6427
  395MOL0     C53227   3.428  10.660   3.393 -0.0705  0.0557  0.2075
  395MOL0     C53228   3.286  10.621   3.347 -0.4318 -0.1723 -0.7565
  395MOL0     C53229   3.200  10.709   3.441  1.2092 -0.2298  0.0877
  395MOL0     C53230   3.053  10.675   3.411 -0.1371  0.5515 -0.4047
  395MOL0     C53231   2.957  10.746   3.505  0.6212  0.1987 -0.1421
  395MOL0     C53232   2.812  10.698   3.474  0.3630 -0.2207  0.1352
  395MOL0     C53233   2.713  10.744   3.584 -1.2313 -0.5507  0.0376
  395MOL0     C53234   2.567  10.747   3.552  0.1008 -0.1984  0.2644
  395MOL0    Cl53235   2.522  10.828   3.399 -0.0113 -0.2989 -0.1766
  395MOL0     C53236   3.563  10.606   3.720  0.0928 -0.5193 -0.3847
  395MOL0     C53237   3.660  10.654   3.808  0.0230  0.2941 -0.7726
  395MOL0     O53238   3.752  10.874   3.982  0.8606  0.3423 -0.0693
  395MOL0     C53239   4.110  10.840   3.941  0.6510  0.4642  0.2038
  395MOL0     C53240   4.244  10.858   3.982 -0.2159 -0.3636 -0.2954
  395MOL0     N53241   4.753  10.933   4.398 -0.2279  0.2176  0.2303
  395MOL0     N53242   4.863  10.927   4.479  0.6286 -0.3780  1.0567
  395MOL0     C53243   5.985  10.590   4.288  0.2572  0.0700 -0.7890
  395MOL0     C53244   6.075  10.519   4.209  0.4931  0.0929  0.7908
  395MOL0     C53245   6.317  10.340   3.912 -0.1124 -0.7308  0.3508
  395MOL0     C53246   6.450  10.345   3.964  0.2096 -0.4088 -0.6129
  395MOL0     C53247   6.555  10.281   3.901 -1.2158  1.0340 -0.1232
  395MOL0     C53248   6.530  10.184   3.796  0.0575 -0.7281 -0.8031
  395MOL0     O53249   6.618  10.105   3.731  0.4762  0.5799 -0.1959
  395MOL0     C53250   6.767  10.104   3.749  0.5535  0.0419  0.0900
  395MOL0     C53251   6.799   9.991   3.849 -1.5415 -0.2191 -0.2228
  395MOL0     C53252   6.772   9.848   3.818 -1.0123  0.4661  0.2280
  395MOL0     C53253   6.856   9.754   3.895 -0.6778  0.7264  0.2003
  395MOL0     C53254   6.990   9.725   3.846 -0.2947 -0.2202  1.2593
  395MOL0     C53255   7.100   9.684   3.799  0.9624 -0.6100  0.7538
  395MOL0     C53256   6.397  10.187   3.745 -0.1971 -0.3855 -0.8190
  395MOL0     C53257   6.292  10.261   3.799  0.4685 -0.9494 -0.3475
  395MOL0     H53258   6.227  10.783   4.049 -0.4570 -0.8318 -1.5008
  395MOL0     H53259   6.087  10.912   4.219  2.2701  1.2795 -3.0461
  395MOL0     H53260   5.755  10.671   4.376  1.9129  0.7964 -0.0647
  395MOL0     H53261   5.847  10.694   4.528 -0.4856 -0.1634  0.8073
  395MOL0     H53262   5.598  10.772   4.536 -0.2828 -0.8465 -1.0761
  395MOL0     H53263   5.719  10.889   4.593 -1.7253  0.3753  0.1671
  395MOL0     H53264   5.745  10.986   4.406  0.0009  1.1941  2.6256
  395MOL0     H53265   5.639  10.888   4.293 -1.5848 -2.8747  2.0934
  395MOL0     H53266   5.557  11.049   4.535 -0.3856 -1.4680  0.1837
  395MOL0     H53267   5.559  11.122   4.377  3.0034  1.6220  2.3462
  395MOL0     H53268   5.386  10.992   4.292 -0.5533  0.6699 -1.1202
  395MOL0     H53269   5.376  10.879   4.436  0.7573  1.5742  3.7109
  395MOL0     H53270   5.316  11.074   4.583  6.0334  1.5861 -0.8160
  395MOL0     H53271   5.325  11.167   4.434 -0.1687  0.0739  0.2794
  395MOL0     H53272   5.142  11.074   4.331 -1.5509 -2.9808 -0.6530
  395MOL0     H53273   5.149  10.929   4.421 -1.6923  0.4934 -2.1089
  395MOL0     H53274   5.068  11.202   4.554 -2.5885  1.0857 -1.0212
  395MOL0     H53275   5.058  11.051   4.629 -0.5473  1.2883  0.9837
  395MOL0     H53276   4.872  11.242   4.373  1.1173  0.0162  3.1814
  395MOL0     H53277   4.692  11.183   4.187  0.9628  0.4504  1.7161
  395MOL0     H53278   4.614  11.014   4.196 -3.9541  0.2230  1.6295
  395MOL0     H53279   4.550  11.252   4.364  3.6038  0.7184 -2.1487
  395MOL0     H53280   4.470  11.085   4.376 -3.0096  2.4356  1.3389
  395MOL0     H53281   4.434  11.303   4.186 -1.7687 -1.0182 -0.3291
  395MOL0     H53282   4.313  11.198   4.264  0.2082  1.6361  0.1648
  395MOL0     H53283   4.487  11.102   4.036  3.2023  1.5135  3.4768
  395MOL0     H53284   4.315  11.133   4.026 -0.1697 -3.5673 -1.9677
  395MOL0     H53285   4.158  11.019   4.270 -2.8735 -0.6911  1.1687
  395MOL0     H53286   3.888  11.084   4.184 -0.2781 -0.3390 -0.6188
  395MOL0     H53287   3.801  10.945   4.221 -0.9399  0.9524  1.5381
  395MOL0     H53288   3.946  10.998   4.328 -1.2189 -2.2949  0.1573
  395MOL0     H53289   3.854  10.798   3.567  2.9015 -2.8697  1.3050
  395MOL0     H53290   3.680  10.697   3.413  1.6323  1.4971  0.7018
  395MOL0     H53291   3.438  10.767   3.413 -2.5349  0.5846 -0.9830
  395MOL0     H53292   3.502  10.635   3.317  0.9585  3.4087 -0.0805
  395MOL0     H53293   3.255  10.646   3.245 -0.9979 -0.1317 -0.5760
  395MOL0     H53294   3.271  10.513   3.360  0.0427 -0.0924  0.5082
  395MOL0     H53295   3.220  10.807   3.397 -4.3832  0.7207 -1.1117
  395MOL0     H53296   3.224  10.702   3.547 -0.9229 -2.3694  0.5234
  395MOL0     H53297   3.017  10.682   3.308 -1.2950  0.4805 -0.0177
  395MOL0     H53298   3.058  10.567   3.432 -1.4696  0.6060  0.2715
  395MOL0     H53299   2.972  10.853   3.485  1.5509 -0.0103 -0.6144
  395MOL0     H53300   2.986  10.715   3.606  0.8646 -4.0315 -1.3495
  395MOL0     H53301   2.783  10.736   3.376  1.8003 -1.3131 -0.7598
  395MOL0     H53302   2.811  10.589   3.462  0.6762 -0.2065 -0.0033
  395MOL0     H53303   2.742  10.848   3.599  0.8441 -1.0913  0.1554
  395MOL0     H53304   2.726  10.677   3.670 -0.2461 -0.3085  0.0924
  395MOL0     H53305   2.519  10.797   3.637 -0.3096  3.6943 -2.0497
  395MOL0     H53306   2.545  10.641   3.538  2.4494 -0.7900  0.5201
  395MOL0     H53307   3.480  10.552   3.765  1.4750 -3.2609 -0.9280
  395MOL0     H53308   3.664  10.612   3.908  1.5432 -3.1918 -2.1278
  395MOL0     H53309   4.115  10.782   3.849  1.7545  3.5503 -1.8346
  395MOL0     H53310   4.328  10.827   3.922 -0.6467  1.8784 -2.2302
  395MOL0     H53311   5.928  10.526   4.354 -0.0660  1.2896  0.1280
  395MOL0     H53312   6.100  10.413   4.207  0.4887  0.0848 -1.8642
  395MOL0     H53313   6.478  10.406   4.050 -0.7122 -3.2032  1.8036
  395MOL0     H53314   6.657  10.308   3.926 -0.9736 -0.2319  0.3536
  395MOL0     H53315   6.816  10.091   3.652  0.4517 -0.3443  0.0896
  395MOL0     H53316   6.816  10.193   3.789  1.7461 -0.9729  0.9683
  395MOL0     H53317   6.753  10.012   3.946 -0.5831  4.3823 -0.5052
  395MOL0     H53318   6.907   9.995   3.862 -1.5652 -0.1946 -0.0257
  395MOL0     H53319   6.800   9.852   3.712 -2.1743  2.1506 -0.0554
  395MOL0     H53320   6.668   9.818   3.834 -0.9651 -0.3819 -0.9368
  395MOL0     H53321   6.817   9.651   3.897  2.7581 -0.7140 -0.3844
  395MOL0     H53322   6.857   9.789   3.998 -1.8252 -2.8029  1.5691
  395MOL0     H53323   7.179   9.637   3.743  0.2517 -1.0385  0.0963
  395MOL0     H53324   6.389  10.124   3.657  5.1811 -1.3761 -0.9280
  395MOL0     H53325   6.195  10.246   3.752  1.0582 -1.9535 -1.2876
  396MOL0     O53326   1.378   1.987   0.533  0.1110  0.0397  0.0350
  396MOL0     C53327   1.457   1.996   0.626  0.7468 -0.9613 -0.1817
  396MOL0     O53328   1.451   1.928   0.745 -0.3126  0.0621 -0.2965
  396MOL0     C53329   1.342   1.839   0.765 -0.8449  0.1362 -0.2046
  396MOL0     C53330   1.220   1.888   0.826 -1.1493 -0.5797 -0.0134
  396MOL0     C53331   1.121   1.802   0.860  1.3183  0.1567  0.1388
  396MOL0     C53332   1.125   1.663   0.833 -0.2836 -0.4968 -0.0444
  396MOL0     O53333   1.021   1.581   0.868 -0.3796  0.0428  0.0981
  396MOL0     C53334   0.902   1.630   0.941 -0.7738 -0.0035  0.3220
  396MOL0     C53335   0.795   1.518   0.924  0.9692  0.1603 -0.3227
  396MOL0     C53336   0.650   1.561   0.985 -0.3147 -0.8154 -0.8594
  396MOL0     C53337   0.645   1.536   1.132 -0.1172  0.0603  0.8254
  396MOL0     C53338   0.527   1.618   1.201 -0.3376  0.1332 -0.3254
  396MOL0     C53339   0.396   1.549   1.162  0.1443 -0.0560 -0.1806
  396MOL0     C53340   0.269   1.631   1.212 -1.0134 -0.7048 -0.0246
  396MOL0     C53341   0.157   1.535   1.244 -0.7773 -0.4200  0.6121
  396MOL0     N53342   0.040   1.627   1.263 -0.0243 -0.3143 -0.1644
  396MOL0     C53343   0.010   1.674   1.390  0.1279 -0.7947  0.4277
  396MOL0     C53344  -0.118   1.723   1.378  0.7101  0.5227  0.1117
  396MOL0     C53345  -0.196   1.812   1.466  0.2474 -0.0163 -0.8098
  396MOL0     C53346  -0.320   1.748   1.531  0.6210  0.2430  0.8819
  396MOL0     C53347  -0.421   1.859   1.585 -0.2783 -0.2381  0.1585
  396MOL0     C53348  -0.504   1.813   1.709 -0.2511  0.2687 -0.6179
  396MOL0     O53349  -0.588   1.702   1.674  0.1157 -0.1311 -0.5546
  396MOL0     C53350  -0.717   1.723   1.705  0.3474  0.2135 -0.3285
  396MOL0     C53351  -0.761   1.754   1.838  0.6330 -0.0737 -0.4883
  396MOL0     C53352  -0.900   1.783   1.857  0.3045  0.2765  0.0966
  396MOL0     C53353  -0.953   1.812   2.000  0.9597 -0.0699 -0.5668
  396MOL0     C53354  -0.992   1.776   1.746 -0.7477 -0.0336 -0.3758
  396MOL0     C53355  -1.125   1.831   1.744 -0.2134 -0.2095 -0.1485
  396MOL0     O53356  -1.216   1.755   1.671  0.5832 -0.1649  0.5305
  396MOL0     C53357  -1.348   1.787   1.678 -0.1149 -0.5667 -0.3415
  396MOL0     C53358  -1.411   1.815   1.805 -0.3161 -0.0090  0.3383
  396MOL0     C53359  -1.550   1.852   1.804  0.3672  0.0664  0.3917
  396MOL0     C53360  -1.623   1.850   1.684  1.0848  0.6525 -0.0443
  396MOL0     O53361  -1.760   1.883   1.700 -0.8042  0.6502  0.5508
  396MOL0     C53362  -1.855   1.820   1.609  0.0994 -1.1037 -0.6753
  396MOL0     C53363  -2.002   1.831   1.645 -0.0431  0.3610  0.1173
  396MOL0     C53364  -2.035   1.752   1.781 -0.3660 -0.3558  0.2882
  396MOL0     C53365  -2.008   1.834   1.907  0.6482 -0.0106 -0.2299
  396MOL0     C53366  -1.972   1.755   2.028 -0.4722 -0.1139  0.0258
  396MOL0     C53367  -2.066   1.619   2.045 -0.5550 -1.0301  0.4379
  396MOL0     C53368  -2.027   1.553   2.180  0.0492  0.3118  1.2587
  396MOL0     C53369  -2.137   1.462   2.229  0.1894  0.3883 -0.8177
  396MOL0    Cl53370  -2.149   1.321   2.125  0.2521  0.0686 -0.5311
  396MOL0     C53371  -1.559   1.823   1.562 -0.2881  0.9884  0.2824
  396MOL0     C53372  -1.420   1.793   1.557  0.1163 -1.5269 -0.5812
  396MOL0     O53373  -1.156   1.927   1.812  0.0306 -0.8388 -0.4323
  396MOL0     C53374  -0.946   1.726   1.625 -0.4819 -0.7004 -0.1616
  396MOL0     C53375  -0.813   1.707   1.602 -0.3135 -1.4756 -0.1055
  396MOL0     N53376  -0.159   1.701   1.249 -0.2604 -0.6514 -0.6355
  396MOL0     N53377  -0.067   1.642   1.178  0.0355 -0.3953 -0.4957
  396MOL0     C53378   1.242   1.615   0.770  0.1541 -0.3530 -0.1765
  396MOL0     C53379   1.347   1.698   0.741  0.4511 -0.6489  0.6014
  396MOL0     C53380   1.570   2.085   0.603  0.3677  0.0979 -0.2352
  396MOL0     C53381   1.665   2.110   0.717 -0.3700  0.1397  0.1440
  396MOL0     C53382   1.780   2.188   0.696 -0.9470  0.3321 -0.2268
  396MOL0     C53383   1.817   2.228   0.564 -0.3816 -0.6561  0.5370
  396MOL0     O53384   1.931   2.301   0.541 -0.1862 -0.0179 -0.1869
  396MOL0     C53385   2.064   2.253   0.584  0.4122  0.5644 -0.6010
  396MOL0     C53386   2.177   2.315   0.508 -0.6718  0.3389  0.1303
  396MOL0     C53387   2.177   2.474   0.511 -0.1416  0.2360 -0.3133
  396MOL0     C53388   2.288   2.534   0.423  1.6582 -0.5177  0.1644
  396MOL0     C53389   2.408   2.568   0.502  0.5323 -0.4882 -0.3855
  396MOL0     C53390   2.503   2.592   0.577  0.3670  0.0010 -0.0998
  396MOL0     C53391   1.732   2.197   0.451  0.3497 -0.0030  0.3894
  396MOL0     C53392   1.607   2.132   0.470  0.0691 -0.8459 -0.4402
  396MOL0     H53393   1.216   1.994   0.845 -1.5682  0.2626 -3.9900
  396MOL0     H53394   1.029   1.844   0.901  0.9850 -0.5962  0.1862
  396MOL0     H53395   0.916   1.649   1.048 -0.9032  3.6974 -0.2084
  396MOL0     H53396   0.864   1.723   0.898  1.7343 -0.1977 -2.6830
  396MOL0     H53397   0.774   1.495   0.819  1.5283  0.4095 -0.4945
  396MOL0     H53398   0.836   1.424   0.961 -2.9850 -2.0449 -1.0190
  396MOL0     H53399   0.627   1.666   0.964  1.0664 -0.3010  0.0947
  396MOL0     H53400   0.582   1.491   0.934  0.1569 -1.4441 -0.6434
  396MOL0     H53401   0.653   1.428   1.147  0.8528 -0.8149 -4.0492
  396MOL0     H53402   0.739   1.577   1.171 -2.2084  3.8279  2.3650
  396MOL0     H53403   0.541   1.631   1.309  0.0285 -2.1184 -0.0635
  396MOL0     H53404   0.525   1.717   1.154 -2.4260  0.0460 -0.5047
  396MOL0     H53405   0.375   1.536   1.056  0.8731 -0.8602 -0.2292
  396MOL0     H53406   0.401   1.448   1.204 -1.9341  1.0519  3.1847
  396MOL0     H53407   0.292   1.690   1.301  0.9497  1.4281 -1.8224
  396MOL0     H53408   0.241   1.708   1.139 -0.9412 -3.1348 -2.8173
  396MOL0     H53409   0.179   1.483   1.337  1.0221  0.4354  0.7058
  396MOL0     H53410   0.144   1.473   1.155 -1.8266  1.2935 -0.4820
  396MOL0     H53411   0.081   1.699   1.469  1.1258  0.0036 -0.6955
  396MOL0     H53412  -0.143   1.847   1.555 -0.9721 -1.7604  0.6633
  396MOL0     H53413  -0.222   1.899   1.406  1.1133  0.9068  0.0954
  396MOL0     H53414  -0.283   1.665   1.591  1.8296 -0.3614 -0.6236
  396MOL0     H53415  -0.374   1.697   1.450 -1.3058  5.5226 -1.6185
  396MOL0     H53416  -0.483   1.877   1.497 -0.1145 -1.8727 -0.3223
  396MOL0     H53417  -0.374   1.957   1.601  1.6514 -0.9956 -0.5875
  396MOL0     H53418  -0.558   1.904   1.738  0.5511  0.3420  0.7653
  396MOL0     H53419  -0.435   1.804   1.794 -0.4366  1.7357 -0.2777
  396MOL0     H53420  -0.690   1.759   1.920  0.9051 -3.2635 -0.3875
  396MOL0     H53421  -0.989   1.915   2.004  0.0018 -0.3396 -1.6254
  396MOL0     H53422  -1.026   1.734   2.021  0.8724  0.6095  1.9255
  396MOL0     H53423  -0.873   1.784   2.068  0.2094 -1.5962 -0.2683
  396MOL0     H53424  -1.347   1.816   1.892  0.0285 -1.8299  0.1529
  396MOL0     H53425  -1.604   1.880   1.894 -2.4235 -1.4872 -0.6809
  396MOL0     H53426  -1.860   1.875   1.515 -0.2439 -0.4122 -0.2672
  396MOL0     H53427  -1.813   1.720   1.600  3.1467 -0.0693  0.5207
  396MOL0     H53428  -2.027   1.937   1.648  2.4371  1.0502 -0.8466
  396MOL0     H53429  -2.052   1.789   1.557 -0.7489  0.6409  0.3857
  396MOL0     H53430  -1.974   1.662   1.788 -2.1441 -1.5675  0.5543
  396MOL0     H53431  -2.139   1.718   1.780 -0.1179 -1.1101 -0.9896
  396MOL0     H53432  -1.930   1.907   1.887  1.7064  0.1120  3.5102
  396MOL0     H53433  -2.106   1.874   1.934 -0.2701 -0.8403 -2.1577
  396MOL0     H53434  -1.966   1.818   2.117  6.6133 -2.4338  1.8959
  396MOL0     H53435  -1.867   1.726   2.023 -0.7020 -1.0969  0.5535
  396MOL0     H53436  -2.169   1.654   2.055 -0.4838 -0.3729 -0.9442
  396MOL0     H53437  -2.066   1.548   1.962  0.4422 -1.0764  0.4637
  396MOL0     H53438  -2.003   1.621   2.262 -0.8789  0.3236  1.5221
  396MOL0     H53439  -1.933   1.498   2.171 -0.3811 -0.2216 -0.2044
  396MOL0     H53440  -2.235   1.510   2.218 -1.2601 -2.7522 -3.5954
  396MOL0     H53441  -2.108   1.430   2.329 -0.0262  1.1928 -0.4862
  396MOL0     H53442  -1.613   1.833   1.468 -2.9582 -2.2741  1.2722
  396MOL0     H53443  -1.363   1.775   1.467  2.2089  1.3608  0.0442
  396MOL0     H53444  -1.025   1.712   1.553 -0.9608  0.3289  0.1391
  396MOL0     H53445  -0.775   1.683   1.503  0.8778  0.1522 -0.0738
  396MOL0     H53446   1.253   1.509   0.755 -3.6744 -1.2752  2.0852
  396MOL0     H53447   1.433   1.648   0.698  0.2028 -0.5300 -0.0345
  396MOL0     H53448   1.657   2.069   0.818 -0.6343  2.7586  1.2675
  396MOL0     H53449   1.844   2.205   0.781  0.1036 -1.6136 -0.5655
  396MOL0     H53450   2.076   2.261   0.692  2.2753 -0.1004 -0.7048
  396MOL0     H53451   2.066   2.145   0.564  0.1783  0.9041 -2.6469
  396MOL0     H53452   2.172   2.297   0.400  5.2209  0.1205 -0.4540
  396MOL0     H53453   2.279   2.282   0.532 -0.5135  0.6700 -0.0780
  396MOL0     H53454   2.178   2.511   0.614 -0.0140 -0.9027  0.1095
  396MOL0     H53455   2.088   2.521   0.469  0.2516  0.1272 -1.2939
  396MOL0     H53456   2.235   2.623   0.388 -1.0404 -2.6673 -1.5550
  396MOL0     H53457   2.307   2.480   0.331  0.6821  1.0071 -0.9872
  396MOL0     H53458   2.586   2.603   0.645 -2.1771  3.1508  2.8436
  396MOL0     H53459   1.764   2.234   0.354 -1.2956 -1.5892 -0.8037
  396MOL0     H53460   1.537   2.123   0.388  0.4266 -1.0387 -0.7256
  397MOL0     O53461   0.004   6.001   8.864 -0.6136  0.2533  0.4422
  397MOL0     C53462   0.093   5.963   8.940  0.0911 -0.8249  0.4666
  397MOL0     O53463   0.213   6.021   8.944 -0.7316  0.4108  0.0851
  397MOL0     C53464   0.248   6.111   8.844 -0.1809 -0.3118  0.3245
  397MOL0     C53465   0.197   6.244   8.839 -0.5815  0.5102  0.3048
  397MOL0     C53466   0.246   6.326   8.741  0.1015 -0.8235 -0.0208
  397MOL0     C53467   0.350   6.280   8.654  0.0509 -0.0474 -0.7912
  397MOL0     O53468   0.393   6.369   8.564 -0.2589  0.2865  0.4423
  397MOL0     C53469   0.526   6.373   8.520 -0.0276 -0.4733  0.2893
  397MOL0     C53470   0.537   6.489   8.416  0.3768 -0.5516 -0.8019
  397MOL0     C53471   0.578   6.613   8.492 -0.0317 -0.3669 -0.9663
  397MOL0     C53472   0.486   6.649   8.615 -0.6861 -0.0293 -0.0947
  397MOL0     C53473   0.524   6.776   8.690 -0.0050  0.0953 -0.4232
  397MOL0     C53474   0.433   6.814   8.809  0.6087  0.5105  0.9657
  397MOL0     C53475   0.291   6.848   8.755 -0.5034 -0.5711 -0.3384
  397MOL0     C53476   0.182   6.759   8.791  0.5544  0.8096  0.3411
  397MOL0     N53477   0.173   6.728   8.930  0.9005 -0.1926 -0.2501
  397MOL0     C53478   0.190   6.605   8.994  1.1435  0.8494  0.2134
  397MOL0     C53479   0.204   6.628   9.124 -0.3543  0.2465 -0.3354
  397MOL0     C53480   0.255   6.542   9.239  0.4090 -0.0136 -0.5419
  397MOL0     C53481   0.182   6.411   9.221  0.7810 -0.9143  0.8667
  397MOL0     C53482   0.169   6.338   9.363 -0.6583 -0.0743  0.8877
  397MOL0     C53483   0.126   6.192   9.348 -0.0183 -0.7642 -0.5660
  397MOL0     O53484  -0.002   6.181   9.284 -0.1256 -0.7148 -0.6773
  397MOL0     C53485  -0.101   6.116   9.355 -0.2293 -1.3539  0.1358
  397MOL0     C53486  -0.104   5.978   9.343 -0.3732  0.1451  0.0553
  397MOL0     C53487  -0.212   5.906   9.393  1.6325 -1.0810  0.2814
  397MOL0     C53488  -0.201   5.761   9.375 -0.5525  0.0397  0.1670
  397MOL0     C53489  -0.330   5.973   9.439  0.3934  0.2191 -0.6266
  397MOL0     C53490  -0.460   5.903   9.475 -0.5817  0.6493 -0.0454
  397MOL0     O53491  -0.564   5.982   9.513  0.7168  0.6243 -0.2015
  397MOL0     C53492  -0.681   5.914   9.558  0.4611  0.2158  0.4330
  397MOL0     C53493  -0.767   5.854   9.464  0.6276  0.2850  0.5952
  397MOL0     C53494  -0.887   5.791   9.509  0.2409  0.0647  0.2052
  397MOL0     C53495  -0.924   5.786   9.647 -0.4010  0.0503  0.5691
  397MOL0     O53496  -1.028   5.711   9.688  0.5196  0.9388 -0.0991
  397MOL0     C53497  -1.134   5.690   9.594  0.3950 -0.1722 -0.4659
  397MOL0     C53498  -1.256   5.628   9.671 -0.6326 -0.7417 -0.2792
  397MOL0     C53499  -1.375   5.613   9.576 -0.5420  0.3292 -0.0740
  397MOL0     C53500  -1.495   5.539   9.631  0.1863  0.6882 -0.9586
  397MOL0     C53501  -1.610   5.513   9.524 -0.3461 -0.6495  0.3670
  397MOL0     C53502  -1.694   5.392   9.559 -0.4369 -0.0045  0.0506
  397MOL0     C53503  -1.790   5.419   9.671 -0.5047  0.5030 -0.0674
  397MOL0     C53504  -1.879   5.302   9.718  0.3024  0.2275  0.6440
  397MOL0    Cl53505  -1.770   5.176   9.795  0.4538  0.4474 -0.3344
  397MOL0     C53506  -0.826   5.834   9.738 -0.4983 -0.4550 -0.2196
  397MOL0     C53507  -0.715   5.903   9.692  0.4620 -0.0574 -0.2096
  397MOL0     O53508  -0.471   5.781   9.461  0.2252  0.2693  0.0487
  397MOL0     C53509  -0.312   6.108   9.463  0.3683  1.0924 -0.1178
  397MOL0     C53510  -0.199   6.172   9.426  0.5226 -0.6325 -0.5996
  397MOL0     N53511   0.186   6.764   9.138  0.0624 -0.1311 -0.1595
  397MOL0     N53512   0.168   6.825   9.030 -0.0038  0.0341  0.2521
  397MOL0     C53513   0.413   6.156   8.675  0.1921  0.4147 -0.0125
  397MOL0     C53514   0.355   6.068   8.765  0.3761 -0.4117 -0.3421
  397MOL0     C53515   0.081   5.833   9.013 -0.5267  1.0789  0.4609
  397MOL0     C53516   0.182   5.779   9.087 -0.3125 -0.0016  0.6810
  397MOL0     C53517   0.173   5.652   9.140  0.8910 -1.0398 -0.1640
  397MOL0     C53518   0.053   5.576   9.124 -0.1838  0.0733 -0.0280
  397MOL0     O53519   0.032   5.458   9.188  0.0896  0.0983 -0.1277
  397MOL0     C53520   0.114   5.357   9.127  1.0289 -0.1371  0.5443
  397MOL0     C53521   0.036   5.226   9.121  1.2643  0.7478 -0.0972
  397MOL0     C53522  -0.084   5.245   9.037  0.0950  0.5280 -0.0272
  397MOL0     C53523  -0.164   5.116   9.005 -0.8282  0.2048  0.2287
  397MOL0     C53524  -0.226   5.069   9.135 -0.1933  0.3021 -0.0625
  397MOL0     C53525  -0.286   5.025   9.230 -0.4256 -0.6005 -0.5701
  397MOL0     C53526  -0.054   5.640   9.059  0.2807  0.7439  0.2762
  397MOL0     C53527  -0.041   5.767   9.002 -0.7868  0.1257  0.8767
  397MOL0     H53528   0.126   6.283   8.911  1.4762  3.0714  1.1096
  397MOL0     H53529   0.202   6.423   8.721  0.7187 -0.7816 -1.2758
  397MOL0     H53530   0.607   6.388   8.592  1.3953  2.3471 -1.7241
  397MOL0     H53531   0.541   6.287   8.454 -3.0339  1.7300 -3.7529
  397MOL0     H53532   0.623   6.479   8.348  0.5069  1.6789 -1.0307
  397MOL0     H53533   0.450   6.490   8.351 -0.4793 -1.7143  0.2705
  397MOL0     H53534   0.685   6.604   8.512  0.2406 -0.7215 -2.4951
  397MOL0     H53535   0.566   6.686   8.411 -1.0790 -1.1499 -1.5552
  397MOL0     H53536   0.385   6.655   8.573 -1.5115  1.4082  1.9391
  397MOL0     H53537   0.478   6.572   8.693 -1.2339 -0.7522 -0.8423
  397MOL0     H53538   0.617   6.756   8.743 -2.1539 -1.9034  3.0083
  397MOL0     H53539   0.524   6.854   8.614 -1.0340 -0.1724 -0.7227
  397MOL0     H53540   0.432   6.741   8.889 -5.1603 -2.2561 -1.0437
  397MOL0     H53541   0.477   6.903   8.855 -1.9987  1.4375  1.8638
  397MOL0     H53542   0.256   6.942   8.799  3.6267  0.3050  1.5320
  397MOL0     H53543   0.298   6.858   8.647  1.0283  3.0298 -0.0193
  397MOL0     H53544   0.195   6.659   8.749  2.2709  0.2698  2.0400
  397MOL0     H53545   0.083   6.800   8.768 -0.6050 -0.5593  2.5937
  397MOL0     H53546   0.197   6.511   8.941  2.9010  0.7734  0.4979
  397MOL0     H53547   0.362   6.535   9.218  0.3425  0.9781 -1.3074
  397MOL0     H53548   0.235   6.601   9.329 -3.7784 -1.7894 -0.0681
  397MOL0     H53549   0.240   6.344   9.157  0.0130 -1.8952  1.1863
  397MOL0     H53550   0.081   6.425   9.182  1.9032  2.6156 -1.3028
  397MOL0     H53551   0.103   6.401   9.423 -0.7048  0.7244  0.0151
  397MOL0     H53552   0.261   6.337   9.423 -0.8504 -2.9436  1.2472
  397MOL0     H53553   0.125   6.151   9.450 -0.5330  0.9922  0.1692
  397MOL0     H53554   0.203   6.133   9.298 -1.4327 -1.3581 -2.1240
  397MOL0     H53555  -0.023   5.926   9.294 -0.1376 -0.2795  0.8764
  397MOL0     H53556  -0.184   5.720   9.475  2.7035  1.1660  0.2047
  397MOL0     H53557  -0.281   5.709   9.323 -0.8787  0.4274  0.2811
  397MOL0     H53558  -0.114   5.729   9.316 -0.8318  1.3601 -1.0061
  397MOL0     H53559  -0.742   5.858   9.359  0.7667  2.7386  0.6524
  397MOL0     H53560  -0.958   5.743   9.441 -0.7585 -1.7888  2.4064
  397MOL0     H53561  -1.162   5.776   9.533  0.6717  1.8284  2.0502
  397MOL0     H53562  -1.099   5.615   9.522  0.6784 -2.1148  1.5710
  397MOL0     H53563  -1.225   5.531   9.711 -0.7719 -0.6639  0.0203
  397MOL0     H53564  -1.273   5.696   9.755  1.1779  0.3699 -0.7419
  397MOL0     H53565  -1.333   5.558   9.491  0.1928  0.1812  0.3716
  397MOL0     H53566  -1.409   5.710   9.539 -2.7457  0.0916  1.1897
  397MOL0     H53567  -1.468   5.444   9.678  2.3976  2.2706  1.2063
  397MOL0     H53568  -1.531   5.614   9.702  0.3784  1.9221 -2.1339
  397MOL0     H53569  -1.551   5.488   9.436 -1.9821 -1.5162 -0.5239
  397MOL0     H53570  -1.672   5.600   9.501 -0.4988 -1.0808 -0.9116
  397MOL0     H53571  -1.759   5.360   9.476 -0.7764  0.0164  0.3063
  397MOL0     H53572  -1.634   5.308   9.596 -2.0413 -1.3077 -0.1651
  397MOL0     H53573  -1.853   5.493   9.619 -0.4715 -0.8522 -2.1519
  397MOL0     H53574  -1.742   5.464   9.758  0.1764  2.2131 -1.2729
  397MOL0     H53575  -1.942   5.259   9.640 -0.1315  1.9286  0.0058
  397MOL0     H53576  -1.950   5.336   9.794 -3.0414 -1.9302 -1.2264
  397MOL0     H53577  -0.846   5.807   9.841  1.4581 -2.0716 -0.1923
  397MOL0     H53578  -0.660   5.950   9.772 -2.0750  0.2277  1.4950
  397MOL0     H53579  -0.382   6.179   9.506 -1.0255  0.0174 -0.5453
  397MOL0     H53580  -0.195   6.278   9.450 -1.3223 -0.5605 -0.4812
  397MOL0     H53581   0.497   6.119   8.618  1.1715  1.3729  0.7851
  397MOL0     H53582   0.397   5.969   8.781  3.7565  0.6941 -1.6875
  397MOL0     H53583   0.277   5.819   9.119  0.2548 -1.2599  0.6346
  397MOL0     H53584   0.245   5.632   9.218 -0.8741  2.4159  2.6346
  397MOL0     H53585   0.129   5.388   9.023 -0.4133 -1.0626  0.0467
  397MOL0     H53586   0.215   5.353   9.170  0.9362  0.9073  0.8990
  397MOL0     H53587   0.011   5.199   9.224 -2.6953 -2.2829 -1.5733
  397MOL0     H53588   0.105   5.148   9.087 -0.4026 -1.1841  0.7813
  397MOL0     H53589  -0.058   5.295   8.943  2.4622  0.0156  0.2908
  397MOL0     H53590  -0.158   5.314   9.078  0.4181 -0.0339  1.5517
  397MOL0     H53591  -0.102   5.045   8.950  2.1035  3.3609 -0.8823
  397MOL0     H53592  -0.251   5.139   8.942 -2.7818 -2.9156  1.5891
  397MOL0     H53593  -0.348   4.994   9.312  0.0869  1.5505  0.6976
  397MOL0     H53594  -0.146   5.582   9.052  0.9825 -0.3528 -0.2365
  397MOL0     H53595  -0.116   5.822   8.946 -1.5607  0.2353  1.9741
  398MOL0     O53596   6.146   8.673   3.766  0.5235  0.1386  0.1175
  398MOL0     C53597   6.182   8.579   3.837 -0.0940  0.0130 -0.6071
  398MOL0     O53598   6.100   8.475   3.861  0.4653 -0.3175 -0.2375
  398MOL0     C53599   5.983   8.475   3.786 -0.3001  0.4512 -0.8145
  398MOL0     C53600   5.991   8.413   3.657  0.2714 -0.6930 -0.3589
  398MOL0     C53601   5.876   8.388   3.585  0.2244  0.2008  0.2533
  398MOL0     C53602   5.749   8.428   3.634  0.5644 -0.1803 -0.4884
  398MOL0     O53603   5.628   8.419   3.568  0.2861 -0.7009 -0.0064
  398MOL0     C53604   5.610   8.318   3.469 -0.4362  0.5805  0.1497
  398MOL0     C53605   5.620   8.182   3.535 -0.4410  0.1823  0.7535
  398MOL0     C53606   5.563   8.063   3.452 -0.3881 -0.3424  1.2184
  398MOL0     C53607   5.577   7.921   3.516  0.5837  1.4837  0.3823
  398MOL0     C53608   5.466   7.868   3.610 -0.6308 -0.6064  0.8875
  398MOL0     C53609   5.490   7.737   3.665  0.1323  1.1642  0.3098
  398MOL0     C53610   5.366   7.654   3.714 -0.2041 -0.7425 -0.6433
  398MOL0     C53611   5.267   7.637   3.602 -0.2061 -0.3022 -0.1238
  398MOL0     N53612   5.172   7.530   3.631 -0.8189  0.9316  0.4287
  398MOL0     C53613   5.073   7.537   3.721  0.4770 -0.0400 -0.0608
  398MOL0     C53614   5.038   7.410   3.748 -0.3513  0.1789 -0.3387
  398MOL0     C53615   4.940   7.370   3.854 -0.1966 -0.7181 -0.2352
  398MOL0     C53616   4.794   7.372   3.799  0.5737  0.4507  0.2773
  398MOL0     C53617   4.694   7.413   3.900  0.4735 -0.1009  0.8592
  398MOL0     C53618   4.562   7.421   3.827 -0.6416  0.5792 -0.3215
  398MOL0     O53619   4.463   7.473   3.922  0.4643  0.4112 -0.0585
  398MOL0     C53620   4.331   7.470   3.881 -0.1478  0.2611  0.0974
  398MOL0     C53621   4.235   7.516   3.967  0.4090 -0.2271 -0.6405
  398MOL0     C53622   4.100   7.513   3.930  0.8250 -0.8883 -0.4635
  398MOL0     C53623   4.004   7.567   4.035 -0.2328 -0.5062 -0.3466
  398MOL0     C53624   4.054   7.465   3.805  0.0979  0.3317  0.0882
  398MOL0     C53625   3.918   7.453   3.751 -0.2616  0.6236  0.4150
  398MOL0     O53626   3.906   7.441   3.616 -0.4114  0.3789  0.2667
  398MOL0     C53627   3.788   7.438   3.537 -0.7547 -0.5481  0.2522
  398MOL0     C53628   3.728   7.319   3.514  1.2032 -0.5009 -0.6492
  398MOL0     C53629   3.609   7.315   3.432  0.3138  0.1324  0.4449
  398MOL0     C53630   3.559   7.433   3.371  0.0848  0.2991 -0.1852
  398MOL0     O53631   3.447   7.433   3.293 -0.3026  0.1108 -0.1052
  398MOL0     C53632   3.442   7.523   3.185  0.6152  0.1626 -0.3082
  398MOL0     C53633   3.556   7.497   3.078 -0.9894  0.2340  0.0700
  398MOL0     C53634   3.541   7.353   3.022 -0.0964 -0.0216  0.1435
  398MOL0     C53635   3.683   7.322   2.973 -0.4434 -0.4563  0.3993
  398MOL0     C53636   3.699   7.188   2.914 -0.0131  0.5117  1.0457
  398MOL0     C53637   3.846   7.155   2.860 -1.0970 -0.2073 -0.8294
  398MOL0     C53638   3.949   7.139   2.972  0.2265 -0.2113  0.3150
  398MOL0     C53639   4.095   7.143   2.922 -0.0867 -0.1661  0.2392
  398MOL0    Cl53640   4.144   7.307   2.875  0.1509  0.0236  0.1978
  398MOL0     C53641   3.633   7.553   3.393  0.3670 -0.1506  0.0923
  398MOL0     C53642   3.743   7.560   3.476 -0.1506  0.9806  0.3631
  398MOL0     O53643   3.828   7.453   3.835  0.2578 -0.5355  0.2315
  398MOL0     C53644   4.161   7.412   3.722  0.0781  0.0273  0.2631
  398MOL0     C53645   4.289   7.414   3.762 -0.2549 -0.2154  0.3674
  398MOL0     N53646   5.114   7.332   3.666  0.1535  0.6243  0.2499
  398MOL0     N53647   5.192   7.400   3.584  0.1684 -0.2882  0.6994
  398MOL0     C53648   5.746   8.483   3.764 -0.5824 -0.5099 -0.0251
  398MOL0     C53649   5.864   8.517   3.846  0.6536 -0.4583  0.7268
  398MOL0     C53650   6.307   8.577   3.916 -0.1751  0.2384  0.0949
  398MOL0     C53651   6.338   8.484   4.025  0.7551  0.7751  0.1898
  398MOL0     C53652   6.459   8.474   4.083  0.4022  0.1061 -0.0270
  398MOL0     C53653   6.563   8.554   4.039  0.3310 -0.1444 -0.1094
  398MOL0     O53654   6.685   8.533   4.095 -0.5084  0.2292 -0.6629
  398MOL0     C53655   6.795   8.613   4.057 -0.0998  0.1030  0.4457
  398MOL0     C53656   6.924   8.536   4.105  0.2538 -0.5355  0.0854
  398MOL0     C53657   6.935   8.560   4.258  0.5953 -0.1897  0.3434
  398MOL0     C53658   7.040   8.466   4.317  0.1292 -0.2462  0.8172
  398MOL0     C53659   7.179   8.513   4.315  0.5740  0.1016  0.2219
  398MOL0     C53660   7.302   8.518   4.314  0.2609  0.3114  0.2332
  398MOL0     C53661   6.538   8.659   3.947 -0.0637  0.2891  0.4272
  398MOL0     C53662   6.410   8.667   3.882 -0.4032  0.5192 -0.1489
  398MOL0     H53663   6.086   8.379   3.617  0.6368  0.3737 -0.4258
  398MOL0     H53664   5.877   8.355   3.482  0.2085  0.7448  0.0709
  398MOL0     H53665   5.508   8.330   3.432 -0.9809  3.8492  2.2989
  398MOL0     H53666   5.682   8.325   3.387  0.3172  5.3975  0.9471
  398MOL0     H53667   5.719   8.162   3.576  0.1436  2.3695  0.5741
  398MOL0     H53668   5.549   8.188   3.618 -1.1658 -2.4724  0.3897
  398MOL0     H53669   5.456   8.076   3.437 -0.7395 -3.0604  0.8946
  398MOL0     H53670   5.605   8.073   3.351 -4.9047  1.1510 -0.7797
  398MOL0     H53671   5.578   7.854   3.430 -3.0012  1.6932  0.0618
  398MOL0     H53672   5.675   7.918   3.566  1.1378  1.0104 -0.6842
  398MOL0     H53673   5.447   7.934   3.695  0.0902 -1.1990  1.5167
  398MOL0     H53674   5.382   7.874   3.539 -0.3453  1.4085  0.6368
  398MOL0     H53675   5.549   7.675   3.596 -0.0606  0.6575  0.5942
  398MOL0     H53676   5.552   7.759   3.753  0.8072  1.5538 -0.2472
  398MOL0     H53677   5.395   7.554   3.749 -0.7670 -0.6471  0.1079
  398MOL0     H53678   5.320   7.707   3.798  1.2004 -1.0151  0.3298
  398MOL0     H53679   5.319   7.604   3.511 -1.2876  0.1713 -0.9273
  398MOL0     H53680   5.213   7.731   3.588  0.3289 -0.1725 -1.4668
  398MOL0     H53681   5.041   7.621   3.781  0.7537  0.5022 -0.6635
  398MOL0     H53682   4.972   7.267   3.868 -0.2948 -0.9693 -1.6654
  398MOL0     H53683   4.962   7.438   3.936  2.5513  1.4352 -2.5205
  398MOL0     H53684   4.775   7.270   3.763 -1.0574  0.5825  0.6858
  398MOL0     H53685   4.797   7.432   3.707 -0.3659 -0.9639 -0.7143
  398MOL0     H53686   4.722   7.513   3.935  2.0823  0.4701 -1.7979
  398MOL0     H53687   4.685   7.340   3.981  0.4781  0.6331  1.5349
  398MOL0     H53688   4.541   7.321   3.787  2.6694  0.2546 -1.5507
  398MOL0     H53689   4.572   7.498   3.750 -2.7277 -0.5597 -1.8559
  398MOL0     H53690   4.255   7.554   4.067  0.6602 -1.1992 -0.3079
  398MOL0     H53691   3.910   7.512   4.043 -0.6042  0.2176  0.3724
  398MOL0     H53692   4.049   7.579   4.134 -1.8607 -1.9524  0.6268
  398MOL0     H53693   3.972   7.666   4.002 -0.1025 -0.6743 -0.9920
  398MOL0     H53694   3.759   7.224   3.558 -1.3197 -0.3468  1.7286
  398MOL0     H53695   3.566   7.218   3.410  0.2262 -0.0044  1.1860
  398MOL0     H53696   3.346   7.499   3.137  1.5932  0.0281 -2.3300
  398MOL0     H53697   3.439   7.624   3.226 -2.5727  0.2070 -0.4096
  398MOL0     H53698   3.552   7.574   3.001  1.3928  0.5921  0.2259
  398MOL0     H53699   3.651   7.522   3.126 -0.0047  1.5502 -2.3938
  398MOL0     H53700   3.476   7.339   2.935 -0.4857 -0.6160  0.5204
  398MOL0     H53701   3.522   7.280   3.102 -6.1498 -0.7384 -1.4592
  398MOL0     H53702   3.699   7.394   2.893 -1.6244 -0.2775  0.3028
  398MOL0     H53703   3.760   7.347   3.047 -2.4057  1.6816  1.8630
  398MOL0     H53704   3.628   7.186   2.831  0.1634 -0.4779  0.9164
  398MOL0     H53705   3.682   7.110   2.988  1.2652 -1.8761 -1.0263
  398MOL0     H53706   3.838   7.065   2.798  1.2261 -1.5943  0.7402
  398MOL0     H53707   3.885   7.234   2.794  0.3520 -0.7642 -0.6823
  398MOL0     H53708   3.941   7.042   3.022 -0.5311 -1.1196 -1.4842
  398MOL0     H53709   3.937   7.212   3.053 -0.9555 -1.8102  1.6572
  398MOL0     H53710   4.112   7.089   2.828  2.2055  3.3145 -1.5882
  398MOL0     H53711   4.158   7.102   3.002  1.8969  0.2172 -1.0512
  398MOL0     H53712   3.606   7.653   3.362  2.3475  0.2017 -0.6568
  398MOL0     H53713   3.785   7.658   3.498 -0.1176  1.4281 -1.4886
  398MOL0     H53714   4.142   7.363   3.627 -2.0124  1.4273 -0.1212
  398MOL0     H53715   4.352   7.349   3.702  1.5973  0.3688  1.5787
  398MOL0     H53716   5.649   8.499   3.809  0.5834  2.5317  1.6725
  398MOL0     H53717   5.852   8.547   3.949 -0.9484 -0.1868  0.4799
  398MOL0     H53718   6.264   8.417   4.068  1.2729 -1.1763 -1.7662
  398MOL0     H53719   6.479   8.401   4.160 -2.0656  2.2203  2.8271
  398MOL0     H53720   6.808   8.642   3.953 -0.2567  1.2387  0.7187
  398MOL0     H53721   6.792   8.714   4.100  1.7908 -0.9768  3.4964
  398MOL0     H53722   7.008   8.584   4.055  0.2640  0.6630  1.2041
  398MOL0     H53723   6.914   8.429   4.085  1.8356 -0.7836  0.4775
  398MOL0     H53724   6.839   8.549   4.309  0.7508  0.2185  0.7349
  398MOL0     H53725   6.964   8.665   4.269  0.2154  0.1960 -1.9713
  398MOL0     H53726   7.032   8.371   4.263 -0.7578  1.0890 -1.5072
  398MOL0     H53727   7.015   8.448   4.423  1.5336 -0.4770  1.1270
  398MOL0     H53728   7.408   8.508   4.300 -0.0634 -0.6866 -1.8820
  398MOL0     H53729   6.613   8.728   3.908 -0.6549  0.9644  0.4692
  398MOL0     H53730   6.394   8.738   3.801 -0.9568  0.5533 -0.0128
  399MOL0     O53731   2.615   3.816   2.331  0.4052  0.6295  0.4007
  399MOL0     C53732   2.662   3.821   2.448 -0.0417 -0.8372  0.4179
  399MOL0     O53733   2.784   3.769   2.489 -0.3008 -0.2183 -0.3719
  399MOL0     C53734   2.875   3.733   2.398 -0.2132  0.1496 -0.5934
  399MOL0     C53735   2.949   3.825   2.318 -0.8359  0.0641 -0.4780
  399MOL0     C53736   3.047   3.783   2.221 -0.4425  0.1324 -0.9857
  399MOL0     C53737   3.054   3.642   2.187  0.5326  0.2126 -0.6899
  399MOL0     O53738   3.128   3.585   2.087 -0.3908 -0.2066  0.3031
  399MOL0     C53739   3.222   3.654   2.006 -0.2652  0.4935 -1.0580
  399MOL0     C53740   3.344   3.691   2.083 -0.6996 -0.8598  0.1559
  399MOL0     C53741   3.446   3.770   2.000 -0.3453 -0.1839  0.5127
  399MOL0     C53742   3.582   3.793   2.058  0.4902  0.0115 -0.0539
  399MOL0     C53743   3.701   3.724   1.993  0.1223 -0.0220 -0.6826
  399MOL0     C53744   3.822   3.688   2.084  0.4474 -0.0974  0.3194
  399MOL0     C53745   3.895   3.804   2.144  0.0354 -1.1518  0.6579
  399MOL0     C53746   3.970   3.890   2.042  0.4195  0.2720  0.2850
  399MOL0     N53747   4.053   3.995   2.098 -1.0059 -0.1502  0.3273
  399MOL0     C53748   4.141   3.968   2.204  0.1851 -0.2921  0.9914
  399MOL0     C53749   4.198   4.092   2.222 -0.5762  0.3872  0.3192
  399MOL0     C53750   4.294   4.135   2.335 -0.5223 -0.3306 -0.4470
  399MOL0     C53751   4.417   4.045   2.352  0.4397  0.5109  0.0909
  399MOL0     C53752   4.405   3.914   2.424  0.3114  0.1904  0.4999
  399MOL0     C53753   4.336   3.910   2.562 -0.1481  0.2986 -0.2065
  399MOL0     O53754   4.193   3.939   2.557  0.6759  0.3547  0.2666
  399MOL0     C53755   4.123   3.914   2.666  0.2481 -0.2453 -0.5382
  399MOL0     C53756   4.169   3.856   2.781 -0.2460 -0.7799 -0.6552
  399MOL0     C53757   4.077   3.829   2.890 -0.3438 -0.0622  0.2547
  399MOL0     C53758   4.132   3.754   3.004  0.2714  0.4322  0.1858
  399MOL0     C53759   3.938   3.869   2.883 -0.7198 -0.0850 -0.5708
  399MOL0     C53760   3.829   3.831   2.976  0.2782 -0.1678  0.0661
  399MOL0     O53761   3.713   3.913   2.960 -0.2163  0.2792 -0.2749
  399MOL0     C53762   3.600   3.870   3.024 -0.2037 -0.2099 -0.1396
  399MOL0     C53763   3.548   3.947   3.133  1.3897 -0.4729  0.1405
  399MOL0     C53764   3.421   3.906   3.183  0.7412 -0.7676 -0.6683
  399MOL0     C53765   3.349   3.806   3.116 -0.0811 -0.0570 -0.6334
  399MOL0     O53766   3.217   3.801   3.168 -0.1486 -0.8102 -0.5303
  399MOL0     C53767   3.123   3.716   3.102 -0.4310  0.2152 -0.2192
  399MOL0     C53768   3.127   3.575   3.168 -0.5959  0.3861  0.5067
  399MOL0     C53769   3.036   3.472   3.102 -0.6174 -0.3807  0.1761
  399MOL0     C53770   2.892   3.469   3.143 -0.1161  0.2313 -0.2590
  399MOL0     C53771   2.859   3.434   3.287  0.8396 -0.8300 -0.2474
  399MOL0     C53772   2.703   3.451   3.290  0.9000 -0.0365 -0.7274
  399MOL0     C53773   2.627   3.413   3.417  0.2008  0.8065 -0.1696
  399MOL0     C53774   2.479   3.380   3.400  0.4906 -1.4169  0.2997
  399MOL0    Cl53775   2.458   3.223   3.310  0.3964  0.0808  0.2969
  399MOL0     C53776   3.402   3.734   3.017 -0.6213 -0.7062  1.2764
  399MOL0     C53777   3.530   3.764   2.974 -0.4353 -0.1827 -0.4242
  399MOL0     O53778   3.846   3.748   3.061  0.0712 -0.1223 -0.5427
  399MOL0     C53779   3.899   3.942   2.771 -0.1495 -0.3175 -0.2166
  399MOL0     C53780   3.993   3.971   2.667  0.7838 -0.2114 -0.0192
  399MOL0     N53781   4.136   4.181   2.140 -0.0240 -0.5164  0.2350
  399MOL0     N53782   4.044   4.125   2.071 -0.4359  0.4750  0.8783
  399MOL0     C53783   2.982   3.554   2.266 -0.6890 -0.0359  0.4554
  399MOL0     C53784   2.897   3.599   2.369  0.1084 -0.5479 -0.5658
  399MOL0     C53785   2.571   3.882   2.548 -0.9872  1.0325  0.6402
  399MOL0     C53786   2.618   3.923   2.669  0.1893 -0.6572 -0.2532
  399MOL0     C53787   2.527   3.967   2.770  0.8442 -0.1393 -0.8776
  399MOL0     C53788   2.385   3.971   2.745  0.3972  0.2170  0.9385
  399MOL0     O53789   2.290   4.031   2.828 -0.2295  0.2014 -0.1976
  399MOL0     C53790   2.151   4.032   2.783 -0.2250 -0.1159 -0.5139
  399MOL0     C53791   2.054   4.087   2.897  0.0701  0.6488  1.8399
  399MOL0     C53792   2.044   3.984   3.010 -0.1488 -0.4448 -0.2727
  399MOL0     C53793   1.980   4.070   3.131 -0.9631 -0.3098  0.9658
  399MOL0     C53794   1.946   3.987   3.239  0.3749 -0.1918  0.5265
  399MOL0     C53795   1.914   3.934   3.344 -0.6334  0.1466 -0.4166
  399MOL0     C53796   2.349   3.920   2.619 -0.6374 -0.1535  0.0130
  399MOL0     C53797   2.434   3.876   2.529 -1.0511  0.3068  0.4965
  399MOL0     H53798   2.919   3.929   2.331 -3.2282 -0.7028  0.7620
  399MOL0     H53799   3.104   3.862   2.172  1.4981 -1.4495 -1.4199
  399MOL0     H53800   3.248   3.583   1.927 -1.8501 -1.6542  0.2248
  399MOL0     H53801   3.181   3.737   1.948 -0.2619 -0.9151 -3.1913
  399MOL0     H53802   3.322   3.744   2.176  0.1802 -0.4774  0.1595
  399MOL0     H53803   3.394   3.599   2.116  1.7943  1.4091  3.3964
  399MOL0     H53804   3.449   3.734   1.896  1.0158  1.6390 -0.1247
  399MOL0     H53805   3.403   3.870   1.993  3.8088  1.6984 -0.6919
  399MOL0     H53806   3.608   3.899   2.047  1.7166 -0.5490 -4.4856
  399MOL0     H53807   3.577   3.766   2.164 -1.6109 -1.2815 -0.4310
  399MOL0     H53808   3.664   3.633   1.946 -2.5799  1.6097 -1.9911
  399MOL0     H53809   3.736   3.782   1.907  2.8242  1.0521  1.0274
  399MOL0     H53810   3.792   3.623   2.166  0.5437 -1.3597 -0.6148
  399MOL0     H53811   3.890   3.628   2.022  1.5532 -1.4630  2.7308
  399MOL0     H53812   3.821   3.861   2.200 -0.2263 -3.1460  2.4592
  399MOL0     H53813   3.954   3.764   2.227  0.5449  0.3877  1.0764
  399MOL0     H53814   3.897   3.936   1.974 -0.0032  0.5387  0.9141
  399MOL0     H53815   4.025   3.819   1.980 -1.3141 -0.5242 -0.4310
  399MOL0     H53816   4.159   3.885   2.272  0.5573 -0.4238  0.7310
  399MOL0     H53817   4.333   4.236   2.321  0.0653 -0.5269 -0.2312
  399MOL0     H53818   4.242   4.130   2.431  2.1132 -0.8323  1.0561
  399MOL0     H53819   4.507   4.099   2.383  0.9915  0.5918 -1.5340
  399MOL0     H53820   4.451   4.018   2.252 -1.3014 -3.0286  0.2983
  399MOL0     H53821   4.505   3.872   2.437  1.6681  2.8943 -0.5473
  399MOL0     H53822   4.350   3.846   2.358 -0.7512  0.7587  0.7645
  399MOL0     H53823   4.384   3.975   2.636  0.2051  1.8921 -1.7529
  399MOL0     H53824   4.355   3.811   2.605  1.5129  1.1490  1.1796
  399MOL0     H53825   4.271   3.824   2.800 -0.3927 -0.2769  1.1698
  399MOL0     H53826   4.240   3.771   3.011 -0.1005  3.7682 -0.7113
  399MOL0     H53827   4.088   3.765   3.104 -2.0174 -2.7009 -0.3283
  399MOL0     H53828   4.128   3.646   2.987 -1.3663  0.5627 -0.4288
  399MOL0     H53829   3.620   4.015   3.178  1.0899  0.2369 -0.4356
  399MOL0     H53830   3.365   3.962   3.257 -2.8160  0.9394 -4.2919
  399MOL0     H53831   3.017   3.743   3.104 -0.2266  1.0189  1.4577
  399MOL0     H53832   3.161   3.703   3.000 -0.2776  2.2820 -0.4667
  399MOL0     H53833   3.229   3.537   3.171 -0.8833 -0.5806  5.5150
  399MOL0     H53834   3.090   3.570   3.270  1.4945 -1.8544  1.2351
  399MOL0     H53835   3.080   3.372   3.114 -1.9616 -0.7562  2.4726
  399MOL0     H53836   3.040   3.499   2.996 -0.3942  0.8549  0.4866
  399MOL0     H53837   2.836   3.558   3.115 -1.3397 -1.2460 -2.8492
  399MOL0     H53838   2.851   3.387   3.084 -1.4041  0.8048 -0.1887
  399MOL0     H53839   2.903   3.493   3.368  1.1283 -1.4653  0.0628
  399MOL0     H53840   2.882   3.330   3.309 -2.7897 -1.1154  3.3563
  399MOL0     H53841   2.679   3.556   3.272  0.1995 -0.3406 -1.6329
  399MOL0     H53842   2.656   3.389   3.213 -2.7993 -1.3969  2.2513
  399MOL0     H53843   2.645   3.480   3.501 -1.5122 -1.8774  2.5843
  399MOL0     H53844   2.665   3.314   3.445 -1.6177 -1.1328 -3.8885
  399MOL0     H53845   2.427   3.459   3.344  1.2873 -1.1212 -0.0300
  399MOL0     H53846   2.433   3.384   3.499 -1.8032  0.8289 -0.7465
  399MOL0     H53847   3.358   3.658   2.953  0.2506 -1.4513  1.5278
  399MOL0     H53848   3.572   3.706   2.892 -1.9565 -0.5541 -0.9838
  399MOL0     H53849   3.795   3.967   2.759 -0.8024 -1.9776  1.5361
  399MOL0     H53850   3.958   4.026   2.581  0.2290  1.4073  1.1828
  399MOL0     H53851   2.999   3.450   2.242 -5.7968 -0.5068 -2.6447
  399MOL0     H53852   2.848   3.518   2.422 -1.0412  0.3961 -0.1447
  399MOL0     H53853   2.718   3.909   2.709  0.0451 -1.9482 -0.3146
  399MOL0     H53854   2.568   3.987   2.868  1.2432  1.3377 -1.3079
  399MOL0     H53855   2.136   4.095   2.695 -1.3958  0.8855  0.3644
  399MOL0     H53856   2.116   3.932   2.757 -1.1682  0.1292 -0.2011
  399MOL0     H53857   1.953   4.107   2.859  0.3205 -0.2128  0.6509
  399MOL0     H53858   2.096   4.177   2.944 -0.3154 -0.4748  4.5255
  399MOL0     H53859   2.143   3.948   3.039  1.3243 -0.1439 -4.2983
  399MOL0     H53860   1.983   3.897   2.984 -0.0322  0.0440 -2.3311
  399MOL0     H53861   1.887   4.121   3.105 -0.2770  0.2671 -0.4542
  399MOL0     H53862   2.058   4.141   3.160 -0.4681 -0.5161  0.1610
  399MOL0     H53863   1.891   3.879   3.433 -2.3470  1.0270 -0.2778
  399MOL0     H53864   2.245   3.925   2.588 -0.1217  1.0063 -1.7113
  399MOL0     H53865   2.401   3.835   2.434  1.3044 -2.4902  0.7614
  400MOL0     O53866   8.026   1.476   0.344 -0.4384  0.2204  0.4245
  400MOL0     C53867   8.098   1.509   0.247  0.3329 -0.7459 -1.0638
  400MOL0     O53868   8.062   1.602   0.154  0.5352 -0.2839 -1.0517
  400MOL0     C53869   7.929   1.640   0.137  0.1308  0.6344  0.5901
  400MOL0     C53870   7.917   1.769   0.082 -0.6097  0.6219 -0.4187
  400MOL0     C53871   7.789   1.829   0.085  0.0008 -0.3303 -0.2370
  400MOL0     C53872   7.677   1.757   0.118 -0.0026 -0.1959 -0.6999
  400MOL0     O53873   7.550   1.805   0.087  0.5275  0.2332 -0.2280
  400MOL0     C53874   7.486   1.731  -0.029 -0.1418  0.1041 -1.1401
  400MOL0     C53875   7.371   1.813  -0.082  0.2357 -0.0798  0.6527
  400MOL0     C53876   7.305   1.746  -0.203 -0.4049  0.7013 -0.8606
  400MOL0     C53877   7.186   1.817  -0.258 -0.8816 -0.5106 -0.4125
  400MOL0     C53878   7.048   1.765  -0.226 -0.5050 -0.3949  0.5697
  400MOL0     C53879   7.027   1.719  -0.084  0.1720 -0.8887 -0.1097
  400MOL0     C53880   6.878   1.679  -0.057 -0.2848  0.1209  0.1150
  400MOL0     C53881   6.792   1.617  -0.172  0.6056 -0.2066  0.1263
  400MOL0     N53882   6.677   1.545  -0.122 -0.1937  0.2435  0.1908
  400MOL0     C53883   6.665   1.424  -0.065 -0.2708  0.6087  0.5373
  400MOL0     C53884   6.537   1.410  -0.012  0.2520  0.5514 -0.5684
  400MOL0     C53885   6.479   1.300   0.072  0.2440  0.2569  0.3173
  400MOL0     C53886   6.591   1.213   0.140 -0.4607 -0.0176  0.2525
  400MOL0     C53887   6.657   1.283   0.260  0.7477  1.0515  0.4912
  400MOL0     C53888   6.795   1.225   0.287 -0.8531 -0.9332 -0.1424
  400MOL0     O53889   6.875   1.245   0.168 -0.1598 -0.7057 -0.8057
  400MOL0     C53890   7.017   1.247   0.169 -0.3246  0.5920 -1.3258
  400MOL0     C53891   7.090   1.201   0.273 -1.0955  0.4173  0.2421
  400MOL0     C53892   7.229   1.200   0.262 -0.1007 -0.6875  0.5728
  400MOL0     C53893   7.299   1.170   0.387 -0.1230 -0.1969 -0.1424
  400MOL0     C53894   7.291   1.248   0.143  0.3029  0.4351  0.6950
  400MOL0     C53895   7.445   1.264   0.123  0.3755  0.8278  0.9590
  400MOL0     O53896   7.519   1.156   0.175 -0.8780 -0.3016 -0.7877
  400MOL0     C53897   7.641   1.134   0.131  0.2719  0.1562  0.9948
  400MOL0     C53898   7.663   1.049   0.017 -1.0876 -1.2075  0.4158
  400MOL0     C53899   7.796   1.034  -0.026  0.1474 -0.5566 -0.3502
  400MOL0     C53900   7.905   1.082   0.046 -1.4381  0.1823 -0.6508
  400MOL0     O53901   8.035   1.048   0.012  0.5158 -0.3544 -0.2684
  400MOL0     C53902   8.138   1.055   0.111  0.1354  0.6787  0.8039
  400MOL0     C53903   8.272   1.010   0.044  1.0058 -0.1593 -0.1140
  400MOL0     C53904   8.337   1.121  -0.045 -0.3452 -0.8466  0.3811
  400MOL0     C53905   8.484   1.083  -0.083 -0.2060  0.0000  0.6911
  400MOL0     C53906   8.535   1.173  -0.199 -1.1615  0.2399 -1.0918
  400MOL0     C53907   8.574   1.311  -0.154  0.2926 -0.8866 -0.5275
  400MOL0     C53908   8.635   1.387  -0.279  0.3908  0.0380  0.2772
  400MOL0     C53909   8.645   1.536  -0.256 -1.1332  0.5238 -0.3584
  400MOL0    Cl53910   8.789   1.614  -0.336 -0.0499  0.2682 -0.2158
  400MOL0     C53911   7.872   1.154   0.168 -0.6975  0.6079  0.0314
  400MOL0     C53912   7.745   1.188   0.203 -0.0203 -0.5992 -0.0062
  400MOL0     O53913   7.485   1.367   0.063  0.0093 -0.5575 -0.2607
  400MOL0     C53914   7.207   1.309   0.044 -0.3077 -0.4410  0.9319
  400MOL0     C53915   7.077   1.306   0.059  0.3433 -0.0679  0.2421
  400MOL0     N53916   6.477   1.526  -0.051 -0.0653 -0.1539 -0.7341
  400MOL0     N53917   6.554   1.598  -0.123  0.0284  0.6268 -0.5526
  400MOL0     C53918   7.685   1.623   0.157  0.1832  1.1208  0.0612
  400MOL0     C53919   7.818   1.562   0.168  0.2129 -0.1444  0.6233
  400MOL0     C53920   8.231   1.440   0.236  1.3793 -0.4629 -0.8677
  400MOL0     C53921   8.263   1.335   0.331  0.0571  0.1404 -0.2168
  400MOL0     C53922   8.384   1.268   0.328 -0.5631 -0.8239 -0.6519
  400MOL0     C53923   8.480   1.328   0.238  0.6878  0.6201 -0.4429
  400MOL0     O53924   8.608   1.284   0.209  0.0540  0.4228 -0.0483
  400MOL0     C53925   8.674   1.219   0.318 -0.3695 -1.0917 -0.7881
  400MOL0     C53926   8.792   1.307   0.350 -0.4021 -0.2789  0.1054
  400MOL0     C53927   8.737   1.436   0.426  1.2943  0.0337  1.3787
  400MOL0     C53928   8.863   1.518   0.431  1.2639  0.2661 -0.3848
  400MOL0     C53929   8.976   1.474   0.507  0.0869  0.2619 -0.1235
  400MOL0     C53930   9.067   1.429   0.564 -0.8658  0.8484 -0.4197
  400MOL0     C53931   8.448   1.435   0.153  0.3646  0.1161  0.5093
  400MOL0     C53932   8.326   1.493   0.151 -0.1375 -0.0372 -0.2046
  400MOL0     H53933   8.009   1.809   0.042  1.3216 -1.2566  1.8520
  400MOL0     H53934   7.774   1.932   0.054  0.2915 -0.0825  0.4238
  400MOL0     H53935   7.556   1.719  -0.112  0.2770 -0.5034 -0.7095
  400MOL0     H53936   7.450   1.636   0.010  1.6863  0.4296  1.7375
  400MOL0     H53937   7.304   1.840   0.001 -0.9025  0.7568 -0.4880
  400MOL0     H53938   7.422   1.903  -0.118 -1.1047 -0.5590 -2.8078
  400MOL0     H53939   7.383   1.750  -0.280  1.1630  4.9257  0.6460
  400MOL0     H53940   7.278   1.642  -0.181 -1.2746  0.9724 -0.5856
  400MOL0     H53941   7.185   1.924  -0.236  3.5246 -0.1977 -0.7123
  400MOL0     H53942   7.200   1.821  -0.367 -0.3290  0.2564 -0.3159
  400MOL0     H53943   6.981   1.851  -0.235  1.3915  1.3466  2.1192
  400MOL0     H53944   7.022   1.682  -0.293  2.1793 -0.2665 -0.7540
  400MOL0     H53945   7.084   1.628  -0.062  0.8289 -0.2944  0.7522
  400MOL0     H53946   7.058   1.796  -0.013  1.2071 -2.1284  0.8399
  400MOL0     H53947   6.888   1.598   0.016 -2.2267 -0.1703  0.1193
  400MOL0     H53948   6.837   1.763  -0.001 -1.3200 -0.0223 -0.4080
  400MOL0     H53949   6.866   1.544  -0.206  1.6223  0.5899  0.5721
  400MOL0     H53950   6.762   1.696  -0.242 -3.4845  1.3484  3.2158
  400MOL0     H53951   6.750   1.358  -0.054 -0.6413 -0.0736 -0.5332
  400MOL0     H53952   6.413   1.332   0.153  1.7956  0.8401  1.4195
  400MOL0     H53953   6.425   1.234   0.004  0.2372 -1.6453  2.0941
  400MOL0     H53954   6.667   1.181   0.068  1.4011 -0.3248  2.2506
  400MOL0     H53955   6.549   1.118   0.173  0.6324 -0.8211 -0.5688
  400MOL0     H53956   6.587   1.280   0.344  1.0395  3.6271  0.9249
  400MOL0     H53957   6.672   1.390   0.244 -0.3296  0.9883 -1.1630
  400MOL0     H53958   6.802   1.118   0.310  1.2702 -1.3045 -2.2056
  400MOL0     H53959   6.828   1.278   0.377 -2.3000  0.2194 -0.2544
  400MOL0     H53960   7.043   1.164   0.363 -2.2324  1.2896  0.0366
  400MOL0     H53961   7.329   1.065   0.395 -0.4765 -0.1995  1.7460
  400MOL0     H53962   7.399   1.214   0.392 -0.3594  0.3443 -0.0676
  400MOL0     H53963   7.234   1.198   0.471  1.4978 -1.9169  1.8001
  400MOL0     H53964   7.583   0.996  -0.035 -2.9881  0.7362  1.1899
  400MOL0     H53965   7.810   0.978  -0.118  1.4781 -0.9410  0.0592
  400MOL0     H53966   8.141   1.156   0.151  1.0454  2.5727 -3.4580
  400MOL0     H53967   8.124   0.971   0.180 -0.5688 -1.1045 -1.3848
  400MOL0     H53968   8.332   0.993   0.133 -2.2970 -0.0868  2.3132
  400MOL0     H53969   8.260   0.913  -0.005 -0.8180  0.1413 -0.3448
  400MOL0     H53970   8.329   1.219   0.003 -2.4081 -0.1075 -1.2963
  400MOL0     H53971   8.283   1.138  -0.139  2.8487  2.1175 -1.1376
  400MOL0     H53972   8.553   1.092   0.002 -1.7541 -2.3627  2.3253
  400MOL0     H53973   8.477   0.977  -0.110 -2.8499 -0.0489  1.3077
  400MOL0     H53974   8.456   1.174  -0.274  0.0105  1.6482 -2.3666
  400MOL0     H53975   8.620   1.117  -0.239 -1.3598 -0.4372 -0.5931
  400MOL0     H53976   8.483   1.361  -0.120  0.8865 -0.8247  1.0728
  400MOL0     H53977   8.637   1.311  -0.064 -0.8953 -0.8013  0.3237
  400MOL0     H53978   8.571   1.376  -0.367  2.1555 -1.3724 -0.9093
  400MOL0     H53979   8.734   1.350  -0.307  1.0123  2.6858 -1.3414
  400MOL0     H53980   8.672   1.545  -0.150  3.2329 -2.1902 -1.0027
  400MOL0     H53981   8.554   1.593  -0.278  0.0219  2.1497 -1.0639
  400MOL0     H53982   7.949   1.170   0.244 -2.2282 -2.8665  2.6305
  400MOL0     H53983   7.740   1.257   0.287  0.8148 -0.0927 -0.3598
  400MOL0     H53984   7.252   1.336  -0.051 -1.7674 -3.7129 -0.9013
  400MOL0     H53985   7.011   1.340  -0.020  0.7818 -2.6174 -1.3611
  400MOL0     H53986   7.602   1.553   0.164  2.4471 -1.6711  0.6739
  400MOL0     H53987   7.824   1.459   0.202  1.6262 -0.1996  0.2809
  400MOL0     H53988   8.181   1.288   0.385 -0.1301 -3.0338 -2.9251
  400MOL0     H53989   8.394   1.175   0.384 -4.2473 -0.8338  0.2333
  400MOL0     H53990   8.611   1.220   0.407  2.7565  1.4850  1.6149
  400MOL0     H53991   8.703   1.116   0.292  0.7877 -0.3254 -2.7257
  400MOL0     H53992   8.846   1.326   0.257 -4.5089 -1.1365 -2.7204
  400MOL0     H53993   8.870   1.263   0.414  0.8503  1.0312 -0.4593
  400MOL0     H53994   8.703   1.413   0.527 -2.2611  0.3395  0.3838
  400MOL0     H53995   8.670   1.494   0.363  2.9088 -1.4851 -2.0140
  400MOL0     H53996   8.841   1.611   0.485 -2.2563 -1.0436  0.7666
  400MOL0     H53997   8.894   1.538   0.328  0.6412 -1.0871 -0.8608
  400MOL0     H53998   9.165   1.414   0.602 -0.4166 -0.5576 -2.0112
  400MOL0     H53999   8.519   1.482   0.086 -0.1887  1.1136  0.6082
  400MOL0     H54000   8.321   1.582   0.089 -0.5099 -0.8789 -1.4060
  401MOL0     O54001   4.185   3.690   6.833 -0.7432  0.6992  0.0757
  401MOL0     C54002   4.119   3.752   6.747  0.1263  0.1720  0.1774
  401MOL0     O54003   4.168   3.783   6.617 -0.2685  0.5126  0.2439
  401MOL0     C54004   4.293   3.745   6.573  0.2711 -0.2005 -0.6517
  401MOL0     C54005   4.406   3.690   6.640  0.4531 -0.0753 -0.1413
  401MOL0     C54006   4.527   3.656   6.581  0.4559  0.6810  0.3742
  401MOL0     C54007   4.543   3.691   6.445 -0.2305 -0.1874 -0.7010
  401MOL0     O54008   4.665   3.684   6.386  0.2652  0.2382  0.3871
  401MOL0     C54009   4.734   3.807   6.347  0.9680  0.3033  0.5829
  401MOL0     C54010   4.884   3.783   6.338 -0.3432 -0.4705 -0.6448
  401MOL0     C54011   4.952   3.714   6.457  1.0030  0.5162 -0.2029
  401MOL0     C54012   5.093   3.692   6.438  0.5664 -0.3156 -0.1915
  401MOL0     C54013   5.145   3.630   6.573 -0.4686 -0.3543 -0.4957
  401MOL0     C54014   5.293   3.610   6.559 -0.0159 -0.7038  0.7936
  401MOL0     C54015   5.367   3.518   6.652 -0.2303  0.4883  0.1881
  401MOL0     C54016   5.326   3.549   6.799 -1.0253  0.5319  1.2197
  401MOL0     N54017   5.405   3.667   6.843 -0.7185  1.2111  0.0207
  401MOL0     C54018   5.540   3.667   6.871 -0.3804  0.6452 -0.2587
  401MOL0     C54019   5.561   3.802   6.877 -1.4642  0.3974 -0.4148
  401MOL0     C54020   5.695   3.861   6.907  0.0707 -0.9449 -0.3027
  401MOL0     C54021   5.758   3.803   7.030  0.5066  0.0189 -0.9878
  401MOL0     C54022   5.674   3.811   7.157  1.0314  0.7015  0.0153
  401MOL0     C54023   5.668   3.940   7.236  0.8978 -0.3005 -0.4502
  401MOL0     O54024   5.571   3.930   7.348  0.6000  1.1902  0.1010
  401MOL0     C54025   5.434   3.943   7.325 -0.0522 -0.5624  0.4177
  401MOL0     C54026   5.379   3.979   7.200  0.7635  0.1033  0.0143
  401MOL0     C54027   5.240   3.997   7.187 -0.3938 -0.0762  0.0705
  401MOL0     C54028   5.191   4.027   7.045 -0.5944  0.1247  0.3751
  401MOL0     C54029   5.160   3.984   7.300  0.0966 -0.3623 -0.5529
  401MOL0     C54030   5.006   4.008   7.301 -1.1446 -0.8679  0.1055
  401MOL0     O54031   4.934   3.928   7.391  0.8097  0.5508 -0.6814
  401MOL0     C54032   4.807   3.899   7.347 -0.5909  0.8288 -0.5672
  401MOL0     C54033   4.693   3.988   7.367  0.0207 -0.3546 -0.1643
  401MOL0     C54034   4.564   3.939   7.331 -0.5139 -0.3976  0.5781
  401MOL0     C54035   4.549   3.816   7.277  0.6160  0.3274  0.8985
  401MOL0     O54036   4.420   3.789   7.220 -0.3600 -0.3108  0.0704
  401MOL0     C54037   4.357   3.666   7.260 -0.5006  0.5953  0.7636
  401MOL0     C54038   4.208   3.687   7.262 -0.0833  0.0954 -0.0846
  401MOL0     C54039   4.131   3.562   7.275 -0.7981 -0.3664 -0.2743
  401MOL0     C54040   3.978   3.590   7.301 -0.2868 -0.2721 -0.9005
  401MOL0     C54041   3.907   3.452   7.310 -0.3985 -0.8036 -0.1596
  401MOL0     C54042   3.787   3.458   7.397  0.1032  0.3652 -0.0494
  401MOL0     C54043   3.692   3.575   7.360  0.9230 -0.8295  0.8482
  401MOL0     C54044   3.607   3.542   7.238 -0.4818 -0.0172  0.6658
  401MOL0    Cl54045   3.463   3.640   7.224 -0.0016  0.0536  0.5591
  401MOL0     C54046   4.652   3.726   7.274 -0.1662 -0.0522 -0.4747
  401MOL0     C54047   4.781   3.763   7.312 -0.7999  0.0561  0.4823
  401MOL0     O54048   4.961   4.099   7.232 -0.2216 -0.7209  0.2563
  401MOL0     C54049   5.219   3.943   7.426  0.2219 -0.0745  0.6568
  401MOL0     C54050   5.353   3.933   7.436 -0.5543 -1.0947 -0.3527
  401MOL0     N54051   5.448   3.868   6.876  0.3200  0.2442  0.1512
  401MOL0     N54052   5.353   3.788   6.859 -0.5083  0.0884 -0.6293
  401MOL0     C54053   4.434   3.732   6.368  0.1907  0.3367  0.6148
  401MOL0     C54054   4.312   3.757   6.429  0.3004 -1.2135 -0.7616
  401MOL0     C54055   3.979   3.789   6.786 -0.7530 -0.3079 -0.0553
  401MOL0     C54056   3.928   3.754   6.910  0.7316  0.4645 -0.4129
  401MOL0     C54057   3.800   3.786   6.946 -0.2562 -0.2173 -0.4283
  401MOL0     C54058   3.721   3.861   6.859  0.5433  1.1771  0.7406
  401MOL0     O54059   3.592   3.897   6.909  0.3079 -0.2481 -0.4641
  401MOL0     C54060   3.487   3.941   6.818 -0.2265  0.6978 -0.2646
  401MOL0     C54061   3.338   3.915   6.852 -0.1555 -0.2617 -0.4628
  401MOL0     C54062   3.330   3.768   6.872  0.7064 -0.0403 -0.6835
  401MOL0     C54063   3.195   3.730   6.928 -0.6920 -0.1794 -0.5636
  401MOL0     C54064   3.199   3.594   6.978 -0.0636 -0.9620 -0.8224
  401MOL0     C54065   3.216   3.484   7.030  0.1227  1.1690  0.7344
  401MOL0     C54066   3.767   3.903   6.736 -0.6489  0.5348  0.1795
  401MOL0     C54067   3.901   3.876   6.700 -0.2613  0.1554 -1.0864
  401MOL0     H54068   4.397   3.658   6.743 -1.8830  0.8569  0.0012
  401MOL0     H54069   4.614   3.612   6.628 -0.3589 -0.2767  1.0043
  401MOL0     H54070   4.696   3.839   6.250  0.7719  2.7510  1.3971
  401MOL0     H54071   4.707   3.881   6.423 -0.4794 -1.6994  2.1469
  401MOL0     H54072   4.918   3.732   6.248 -0.3659 -2.7559  0.5642
  401MOL0     H54073   4.932   3.881   6.345  1.8659 -1.4905 -0.6005
  401MOL0     H54074   4.943   3.760   6.556 -0.1373 -0.3361  0.1228
  401MOL0     H54075   4.904   3.619   6.484  0.4054  1.1159  0.9507
  401MOL0     H54076   5.112   3.617   6.360 -2.7036 -2.6123  1.0114
  401MOL0     H54077   5.145   3.784   6.409  1.0881 -0.1672  1.1341
  401MOL0     H54078   5.131   3.702   6.654 -0.6067 -1.6852  0.6831
  401MOL0     H54079   5.098   3.534   6.595  1.9116 -0.7192  4.3553
  401MOL0     H54080   5.316   3.577   6.457  1.3607  2.7992 -0.1985
  401MOL0     H54081   5.351   3.703   6.568  1.7642 -1.5270 -1.3273
  401MOL0     H54082   5.354   3.414   6.624  0.0781  0.8859 -1.5241
  401MOL0     H54083   5.471   3.550   6.644  0.7661 -2.4617  0.1325
  401MOL0     H54084   5.366   3.468   6.860 -0.6996 -1.1687 -1.0954
  401MOL0     H54085   5.218   3.564   6.807 -1.1268  0.9655 -0.4316
  401MOL0     H54086   5.606   3.582   6.887  2.8208  3.1334  0.8339
  401MOL0     H54087   5.759   3.844   6.820 -0.5697 -0.0013 -0.9736
  401MOL0     H54088   5.677   3.969   6.911  0.1602 -0.9562  0.5502
  401MOL0     H54089   5.855   3.848   7.054  0.9150 -1.2219 -0.1494
  401MOL0     H54090   5.771   3.696   7.013 -0.3333 -0.6030  1.7190
  401MOL0     H54091   5.715   3.735   7.223 -2.4045  1.0437  2.8775
  401MOL0     H54092   5.571   3.777   7.138  1.1745 -2.0838  3.3310
  401MOL0     H54093   5.642   4.025   7.172 -2.6072  2.0327  3.5919
  401MOL0     H54094   5.766   3.962   7.280  1.5977  0.2202 -2.1766
  401MOL0     H54095   5.445   3.990   7.114 -0.5837  1.3186 -0.9147
  401MOL0     H54096   5.088   3.994   7.025 -0.2228  0.9291 -3.7488
  401MOL0     H54097   5.185   4.135   7.029  1.3257  0.0270 -1.3142
  401MOL0     H54098   5.262   3.997   6.968  4.6036  2.5835  3.6256
  401MOL0     H54099   4.714   4.087   7.404  1.6578 -1.3466  1.7367
  401MOL0     H54100   4.476   4.002   7.329  0.8262  1.6276  1.9601
  401MOL0     H54101   4.379   3.585   7.190 -0.9623  1.5451 -0.5118
  401MOL0     H54102   4.391   3.623   7.355  0.5803 -2.0388 -0.7285
  401MOL0     H54103   4.192   3.763   7.340  0.3352 -1.3722  1.5007
  401MOL0     H54104   4.183   3.736   7.168  0.6809 -2.1823 -1.5639
  401MOL0     H54105   4.172   3.504   7.358  1.7474  1.5512 -0.0448
  401MOL0     H54106   4.135   3.517   7.176 -3.4998 -0.4815 -0.4024
  401MOL0     H54107   3.981   3.648   7.394 -0.7966 -2.8482  0.8228
  401MOL0     H54108   3.940   3.658   7.224 -0.2054  2.6944  1.4551
  401MOL0     H54109   3.979   3.374   7.337  1.8154  0.6043 -1.6191
  401MOL0     H54110   3.870   3.415   7.214  1.1320 -0.0650 -1.0716
  401MOL0     H54111   3.741   3.360   7.380  1.8615 -0.1753 -2.1226
  401MOL0     H54112   3.816   3.462   7.502  0.9437  0.3268 -0.2769
  401MOL0     H54113   3.743   3.669   7.335 -0.1006  0.2122  2.4974
  401MOL0     H54114   3.620   3.591   7.441 -1.3884 -0.0012 -1.2700
  401MOL0     H54115   3.590   3.434   7.225  0.1420 -0.1877  1.1764
  401MOL0     H54116   3.677   3.574   7.161 -1.5857  0.2933 -0.2284
  401MOL0     H54117   4.642   3.630   7.225 -0.0995  0.5213 -1.6399
  401MOL0     H54118   4.869   3.700   7.313  0.5573  1.8221 -0.7676
  401MOL0     H54119   5.154   3.947   7.513 -1.3005 -0.3901 -0.4117
  401MOL0     H54120   5.402   3.914   7.531  0.4701  0.4819 -0.5329
  401MOL0     H54121   4.461   3.745   6.264  1.0093 -3.3480  0.2597
  401MOL0     H54122   4.229   3.802   6.374 -0.1352  0.3446  1.0656
  401MOL0     H54123   3.986   3.703   6.987  1.4911  0.6627 -0.8379
  401MOL0     H54124   3.776   3.753   7.047  0.5731  0.0521 -0.1293
  401MOL0     H54125   3.505   4.048   6.799 -2.8476  0.7455 -3.0726
  401MOL0     H54126   3.503   3.883   6.727 -0.5821  2.1044 -1.2561
  401MOL0     H54127   3.276   3.933   6.764  0.8394  0.6519 -0.9942
  401MOL0     H54128   3.314   3.971   6.943 -0.5655 -1.7928  0.4149
  401MOL0     H54129   3.401   3.745   6.953 -1.3334  0.2704  1.2753
  401MOL0     H54130   3.365   3.713   6.785  4.2116  0.1153  0.4473
  401MOL0     H54131   3.127   3.737   6.842  2.8897 -1.0388 -3.7181
  401MOL0     H54132   3.172   3.791   7.016  3.2449  0.4524  0.1930
  401MOL0     H54133   3.235   3.380   7.049  2.4800  0.8225 -2.6600
  401MOL0     H54134   3.706   3.982   6.692  0.2196  2.9907  3.0944
  401MOL0     H54135   3.936   3.924   6.609  1.5757 -0.7662 -0.9170
  402MOL0     O54136   1.906   5.873   8.350 -0.2652 -0.3197  0.4903
  402MOL0     C54137   1.917   5.948   8.250 -0.5206  0.3822  0.2978
  402MOL0     O54138   1.816   6.011   8.193 -0.2188 -0.6156  0.1928
  402MOL0     C54139   1.696   6.029   8.251  1.0421  0.5465  0.6411
  402MOL0     C54140   1.677   6.037   8.392 -0.4338 -0.8939 -0.2770
  402MOL0     C54141   1.544   6.038   8.433  0.1228  0.2600 -0.5017
  402MOL0     C54142   1.438   6.055   8.347  1.3962 -0.6853  0.2512
  402MOL0     O54143   1.317   6.077   8.397  1.1934 -0.4918  0.3978
  402MOL0     C54144   1.241   6.192   8.342  0.4547 -0.1960  0.7822
  402MOL0     C54145   1.135   6.232   8.436 -0.1017  0.0850 -0.2603
  402MOL0     C54146   1.035   6.126   8.477 -0.6187  0.4150  0.0942
  402MOL0     C54147   0.904   6.192   8.521 -0.5953 -0.1071  0.6727
  402MOL0     C54148   0.813   6.078   8.571 -0.1477  0.0265 -0.9373
  402MOL0     C54149   0.756   5.997   8.463  0.6484  0.4367  0.3215
  402MOL0     C54150   0.678   5.881   8.520  0.0307  0.2606 -0.1980
  402MOL0     C54151   0.596   5.809   8.412  0.3915  0.6330  0.0964
  402MOL0     N54152   0.489   5.886   8.351  0.9211  0.5998 -0.2554
  402MOL0     C54153   0.370   5.915   8.417  0.2596 -0.1958 -0.0387
  402MOL0     C54154   0.331   6.025   8.345 -0.8472  0.0467 -0.4619
  402MOL0     C54155   0.216   6.118   8.362  0.1299 -0.1647 -0.0239
  402MOL0     C54156   0.116   6.067   8.473  0.7764 -0.4465  0.5138
  402MOL0     C54157   0.029   6.191   8.500  0.0201  0.4453 -0.5898
  402MOL0     C54158  -0.070   6.173   8.614 -0.2036  0.2969 -0.2052
  402MOL0     O54159  -0.193   6.244   8.571  0.7175  0.3571  0.0123
  402MOL0     C54160  -0.289   6.260   8.669 -0.4420  0.3283  0.6482
  402MOL0     C54161  -0.284   6.213   8.800  0.3576 -1.2336  0.3182
  402MOL0     C54162  -0.371   6.250   8.900 -0.0799  0.5961 -1.2382
  402MOL0     C54163  -0.352   6.179   9.035 -0.2310  0.3010  0.1178
  402MOL0     C54164  -0.489   6.320   8.867 -0.0314 -0.5439  0.4429
  402MOL0     C54165  -0.604   6.343   8.960 -0.3732 -0.4177 -0.0742
  402MOL0     O54166  -0.582   6.361   9.095 -0.0193 -0.9026 -0.9571
  402MOL0     C54167  -0.694   6.326   9.168  0.0848 -1.1489 -0.5701
  402MOL0     C54168  -0.758   6.428   9.247 -0.5607  0.1427 -0.8352
  402MOL0     C54169  -0.856   6.397   9.340 -0.6162  0.6742  0.1817
  402MOL0     C54170  -0.907   6.266   9.351  0.2933 -0.5377  0.4340
  402MOL0     O54171  -0.992   6.238   9.453  0.1642  0.8498 -0.0079
  402MOL0     C54172  -1.092   6.136   9.430 -0.2533  0.5412  0.5362
  402MOL0     C54173  -1.185   6.153   9.546  0.0315 -0.4371 -0.2040
  402MOL0     C54174  -1.327   6.107   9.523  0.0372  0.5486 -0.3844
  402MOL0     C54175  -1.368   6.037   9.653 -0.1944 -0.1543  0.3189
  402MOL0     C54176  -1.514   5.990   9.660 -0.2274 -0.2402  0.0199
  402MOL0     C54177  -1.556   5.923   9.789  0.0525  0.2954  0.1888
  402MOL0     C54178  -1.694   5.848   9.772  0.9833  0.0751 -0.4287
  402MOL0     C54179  -1.727   5.781   9.905  0.1019  0.2531 -0.0726
  402MOL0    Cl54180  -1.862   5.658   9.898  0.2567 -0.1528 -0.5800
  402MOL0     C54181  -0.858   6.166   9.264 -0.4247 -1.2571  0.5856
  402MOL0     C54182  -0.750   6.200   9.179 -0.3443  0.7818  0.6591
  402MOL0     O54183  -0.708   6.318   8.900 -1.0206  0.5769  0.2100
  402MOL0     C54184  -0.501   6.366   8.735  0.1398  0.4784 -0.2238
  402MOL0     C54185  -0.400   6.336   8.636 -0.2915 -0.2876 -0.2020
  402MOL0     N54186   0.421   6.047   8.234 -0.4684 -0.4833 -0.2278
  402MOL0     N54187   0.517   5.962   8.249  0.1276 -0.3231 -0.0178
  402MOL0     C54188   1.457   6.068   8.213  0.2471  0.5232  1.3711
  402MOL0     C54189   1.589   6.061   8.163 -0.0383  0.3661  0.5107
  402MOL0     C54190   2.057   5.963   8.198  0.2986 -0.7845  0.5068
  402MOL0     C54191   2.088   6.070   8.104 -0.6736  0.1293 -0.7590
  402MOL0     C54192   2.220   6.074   8.054 -0.1554 -0.4299 -1.4108
  402MOL0     C54193   2.325   5.999   8.116  0.0007  0.7476 -0.1788
  402MOL0     O54194   2.450   6.029   8.076  0.5435  0.5217 -0.6052
  402MOL0     C54195   2.563   5.971   8.141 -0.7010 -0.5474  0.1994
  402MOL0     C54196   2.691   6.049   8.106 -0.4455 -1.0155 -0.1270
  402MOL0     C54197   2.801   5.996   8.196  0.3840 -0.0876  0.4176
  402MOL0     C54198   2.932   6.044   8.150 -0.3422  0.3752  0.1720
  402MOL0     C54199   3.045   6.011   8.244 -0.6962 -0.3236  0.3573
  402MOL0     C54200   3.141   5.992   8.316 -0.3746 -0.1520 -0.0094
  402MOL0     C54201   2.289   5.903   8.206  0.0674 -0.4338 -0.3924
  402MOL0     C54202   2.158   5.894   8.256  0.0311  0.1375  1.0368
  402MOL0     H54203   1.748   6.041   8.474  0.9125 -0.4566 -1.4289
  402MOL0     H54204   1.515   6.027   8.537  1.1497 -1.9613 -0.3869
  402MOL0     H54205   1.300   6.279   8.311 -0.2196 -0.7299 -2.3899
  402MOL0     H54206   1.198   6.164   8.245  2.0270  1.2996 -0.4205
  402MOL0     H54207   1.180   6.266   8.530  1.4542 -0.2587 -0.8544
  402MOL0     H54208   1.088   6.320   8.392 -0.2647 -0.5969 -1.4982
  402MOL0     H54209   1.004   6.071   8.387  0.5379 -0.8684  0.4491
  402MOL0     H54210   1.086   6.069   8.555  0.1651  0.2509 -0.5301
  402MOL0     H54211   0.937   6.255   8.605 -0.6049  1.6563 -0.5989
  402MOL0     H54212   0.858   6.259   8.448  0.3128  0.4945  0.6310
  402MOL0     H54213   0.877   6.023   8.640 -0.9961  1.0351  0.7118
  402MOL0     H54214   0.734   6.108   8.641 -0.8347 -1.7359 -0.9003
  402MOL0     H54215   0.694   6.061   8.400  0.6296  0.3508  0.2520
  402MOL0     H54216   0.840   5.953   8.408  1.9326  3.8249 -0.6592
  402MOL0     H54217   0.755   5.810   8.551 -1.0958 -0.6152  0.7091
  402MOL0     H54218   0.613   5.903   8.606 -2.0981 -0.9908 -1.4157
  402MOL0     H54219   0.545   5.728   8.465  1.1645  1.7530  2.6905
  402MOL0     H54220   0.655   5.774   8.326 -0.8308  2.5469 -1.5965
  402MOL0     H54221   0.329   5.886   8.513  1.1636 -1.6588 -0.0566
  402MOL0     H54222   0.254   6.217   8.389 -1.1478  0.5242 -0.6634
  402MOL0     H54223   0.176   6.128   8.261 -1.0212  1.5294  0.5641
  402MOL0     H54224   0.162   6.037   8.568  1.4057  2.1417  1.1115
  402MOL0     H54225   0.055   5.982   8.442 -0.0035 -0.0029  0.7981
  402MOL0     H54226  -0.029   6.217   8.411  3.0927  0.3691 -2.7926
  402MOL0     H54227   0.100   6.269   8.531  0.6546 -0.9573  1.7407
  402MOL0     H54228  -0.029   6.225   8.701  0.4265 -4.7340  2.9198
  402MOL0     H54229  -0.095   6.067   8.622 -0.4846  0.1360 -2.4870
  402MOL0     H54230  -0.188   6.164   8.817  1.1825  0.3611  0.5180
  402MOL0     H54231  -0.244   6.164   9.047 -0.0672  2.0631  1.1837
  402MOL0     H54232  -0.380   6.240   9.121 -2.6906  0.8283 -0.9942
  402MOL0     H54233  -0.412   6.087   9.035 -1.5426  1.1022  1.8809
  402MOL0     H54234  -0.721   6.530   9.245 -1.5095  0.5746  1.2289
  402MOL0     H54235  -0.888   6.477   9.407  2.1329  1.7145  0.3771
  402MOL0     H54236  -1.143   6.145   9.334 -0.7751 -4.0820  0.1572
  402MOL0     H54237  -1.050   6.037   9.451 -0.3008  0.0512 -1.4480
  402MOL0     H54238  -1.135   6.119   9.636  3.0405  1.0637 -1.1671
  402MOL0     H54239  -1.189   6.262   9.560  0.1544 -0.4825  0.1861
  402MOL0     H54240  -1.336   6.030   9.445 -0.9397  0.5593 -0.2950
  402MOL0     H54241  -1.396   6.189   9.500 -1.7658 -0.7572  0.1073
  402MOL0     H54242  -1.305   5.948   9.655 -1.3927 -1.0295  0.6476
  402MOL0     H54243  -1.344   6.108   9.733  0.6929 -1.7996  1.5752
  402MOL0     H54244  -1.545   5.914   9.587  1.2146 -4.7296  3.5721
  402MOL0     H54245  -1.567   6.084   9.647  1.5202  1.3010  2.9976
  402MOL0     H54246  -1.490   5.843   9.823 -0.5719  1.1158  3.6824
  402MOL0     H54247  -1.561   5.993   9.873 -0.7043 -2.3317  2.4792
  402MOL0     H54248  -1.688   5.770   9.695  0.2192  1.9367 -2.4537
  402MOL0     H54249  -1.770   5.923   9.748  0.9310  0.4026  0.7335
  402MOL0     H54250  -1.764   5.859   9.972  0.6405  1.6402 -1.3248
  402MOL0     H54251  -1.633   5.733   9.936  0.0634 -1.1310 -1.8680
  402MOL0     H54252  -0.902   6.067   9.258 -1.7940 -0.5698 -1.8152
  402MOL0     H54253  -0.703   6.122   9.120 -2.0194 -0.6580  1.1425
  402MOL0     H54254  -0.591   6.425   8.723 -1.4094 -1.7402 -0.1507
  402MOL0     H54255  -0.401   6.373   8.534 -1.5029 -0.5336 -0.2945
  402MOL0     H54256   1.368   6.085   8.153  0.4412 -2.6161 -0.0040
  402MOL0     H54257   1.605   6.073   8.057 -0.0463  1.3063  0.6106
  402MOL0     H54258   2.011   6.135   8.064 -0.4484 -0.1413 -1.6730
  402MOL0     H54259   2.246   6.147   7.977  0.2081 -1.0150 -1.8514
  402MOL0     H54260   2.552   5.973   8.249 -0.7528  1.3801  0.2014
  402MOL0     H54261   2.572   5.864   8.121 -0.1813 -1.0535  2.8612
  402MOL0     H54262   2.670   6.156   8.108 -0.7373 -1.0494 -0.9209
  402MOL0     H54263   2.716   6.024   8.003  0.4011  0.5786 -0.3471
  402MOL0     H54264   2.803   5.887   8.184  0.5713 -0.0670  0.2588
  402MOL0     H54265   2.782   6.023   8.300  0.5579 -2.0396  1.0079
  402MOL0     H54266   2.942   6.153   8.145 -0.5193  0.4172  0.7082
  402MOL0     H54267   2.959   6.002   8.052 -0.1987 -0.0311  0.3827
  402MOL0     H54268   3.233   5.959   8.360 -1.2877 -5.6847 -1.4902
  402MOL0     H54269   2.359   5.827   8.239  0.9923 -0.6700 -2.7199
  402MOL0     H54270   2.137   5.827   8.339  0.6331 -1.0472  0.2560
  403MOL0     O54271   6.324  10.914   5.512  0.1241 -0.0438  0.4764
  403MOL0     C54272   6.408  10.869   5.596 -0.1788  0.1014  0.0951
  403MOL0     O54273   6.480  10.746   5.586  0.6738 -0.2601 -0.3796
  403MOL0     C54274   6.446  10.674   5.470  0.5488 -0.3375 -0.5700
  403MOL0     C54275   6.544  10.653   5.377  0.6419  1.1380  0.5687
  403MOL0     C54276   6.537  10.569   5.266 -0.2035 -0.5470  0.2482
  403MOL0     C54277   6.419  10.498   5.250  0.2864  0.0160 -0.7601
  403MOL0     O54278   6.410  10.419   5.140 -0.6516  0.9001  0.5323
  403MOL0     C54279   6.294  10.358   5.101 -0.0562  0.0483 -0.5067
  403MOL0     C54280   6.277  10.227   5.179 -0.2474  0.2311 -0.6231
  403MOL0     C54281   6.167  10.131   5.126 -0.3272  0.0008  0.5302
  403MOL0     C54282   6.038  10.197   5.085 -0.4061 -1.0281 -0.1914
  403MOL0     C54283   5.974  10.259   5.215 -0.6740  0.1208 -0.6668
  403MOL0     C54284   5.934  10.164   5.336  0.3153 -0.2384 -1.0221
  403MOL0     C54285   5.843  10.047   5.300 -1.4855 -0.7847 -0.2786
  403MOL0     C54286   5.755   9.993   5.415  0.0113 -0.8730  0.8816
  403MOL0     N54287   5.689   9.877   5.374  0.5123 -0.3520 -0.3000
  403MOL0     C54288   5.735   9.751   5.399 -0.2600  0.6831  0.2008
  403MOL0     C54289   5.630   9.673   5.356 -0.1669 -0.3565  0.2100
  403MOL0     C54290   5.618   9.522   5.357 -0.4490  0.6990  0.5180
  403MOL0     C54291   5.561   9.488   5.497 -0.0490  0.0258  0.7787
  403MOL0     C54292   5.412   9.505   5.515 -0.0681 -0.4682  0.3129
  403MOL0     C54293   5.375   9.460   5.653 -0.9405  0.1156 -0.0529
  403MOL0     O54294   5.255   9.525   5.691  0.4423 -1.2012  0.4836
  403MOL0     C54295   5.125   9.492   5.666 -0.0286 -1.2835 -0.1980
  403MOL0     C54296   5.086   9.390   5.589 -0.5427 -0.1664 -0.3541
  403MOL0     C54297   4.957   9.355   5.540 -0.7578 -0.0659  0.5760
  403MOL0     C54298   4.950   9.263   5.426 -0.8061 -0.2050 -0.1475
  403MOL0     C54299   4.854   9.439   5.596 -0.2503 -0.1303 -1.1054
  403MOL0     C54300   4.706   9.439   5.554  0.6879 -0.4749  0.5047
  403MOL0     O54301   4.628   9.541   5.600 -1.1878 -0.0345 -0.2524
  403MOL0     C54302   4.496   9.542   5.594 -0.1930 -0.0191  0.6402
  403MOL0     C54303   4.411   9.426   5.594 -0.1826 -0.4672 -0.4014
  403MOL0     C54304   4.274   9.440   5.599  0.2420  0.5128  0.5724
  403MOL0     C54305   4.211   9.567   5.604 -0.0611  0.2907 -0.6472
  403MOL0     O54306   4.073   9.571   5.616  0.5408  1.0490 -0.0308
  403MOL0     C54307   4.001   9.685   5.582  0.2791 -0.3515 -0.4750
  403MOL0     C54308   4.006   9.729   5.434  0.3239 -0.7366  0.2770
  403MOL0     C54309   3.915   9.857   5.423 -0.1689  0.8530  1.0268
  403MOL0     C54310   3.948   9.922   5.286  0.3505 -0.3293 -0.2308
  403MOL0     C54311   3.869  10.050   5.257  1.0360  0.7632 -0.1379
  403MOL0     C54312   3.929  10.123   5.139  0.3642 -0.0344  0.1183
  403MOL0     C54313   3.859  10.243   5.088  0.0941  0.0102 -0.5168
  403MOL0     C54314   3.843  10.351   5.196 -0.0492 -0.3134 -0.4041
  403MOL0    Cl54315   4.020  10.411   5.230  0.1067 -0.1598  0.0391
  403MOL0     C54316   4.294   9.683   5.608 -0.7671 -1.2686 -0.0988
  403MOL0     C54317   4.432   9.672   5.601 -0.0767  0.4102  0.3879
  403MOL0     O54318   4.665   9.350   5.482  0.4153 -0.5295 -0.3954
  403MOL0     C54319   4.892   9.542   5.684  0.0914 -0.2326  0.0868
  403MOL0     C54320   5.025   9.575   5.718 -0.3093 -0.1593  0.2512
  403MOL0     N54321   5.521   9.758   5.310 -0.5172 -0.3051  0.5903
  403MOL0     N54322   5.565   9.879   5.323  0.9939  0.2151 -0.2773
  403MOL0     C54323   6.311  10.517   5.346  0.3342 -0.1186  0.1381
  403MOL0     C54324   6.326  10.602   5.454 -0.2731 -0.4032 -0.7234
  403MOL0     C54325   6.436  10.944   5.719  0.0886  0.3672 -0.7433
  403MOL0     C54326   6.569  10.938   5.765  0.1144 -0.0710 -0.4280
  403MOL0     C54327   6.617  11.027   5.865  0.0965 -0.0932 -0.1149
  403MOL0     C54328   6.531  11.113   5.926  0.0268 -0.9010 -0.5758
  403MOL0     O54329   6.593  11.203   6.011  0.9920 -0.4809 -0.9451
  403MOL0     C54330   6.534  11.221   6.142  0.0308 -0.5499  0.2277
  403MOL0     C54331   6.535  11.093   6.236  0.4274 -0.9234  0.0751
  403MOL0     C54332   6.682  11.039   6.254  0.2280  0.4498 -0.9016
  403MOL0     C54333   6.689  10.908   6.331 -0.3343 -0.6585 -1.5164
  403MOL0     C54334   6.824  10.844   6.331 -0.4185  0.2447  0.5736
  403MOL0     C54335   6.937  10.799   6.322 -0.8244  0.8072  0.0259
  403MOL0     C54336   6.397  11.119   5.884  0.3602 -0.2509 -0.1862
  403MOL0     C54337   6.346  11.029   5.784  0.5530 -0.1428 -0.7472
  403MOL0     H54338   6.640  10.700   5.393  0.7645  1.6489 -1.4137
  403MOL0     H54339   6.612  10.566   5.189 -1.7606  5.1246 -1.9969
  403MOL0     H54340   6.212  10.426   5.125  0.6781  0.7826 -0.0390
  403MOL0     H54341   6.300  10.337   4.993 -0.8340 -2.2556 -0.1747
  403MOL0     H54342   6.373  10.176   5.164  0.3974  0.1184  3.0447
  403MOL0     H54343   6.270  10.252   5.285 -0.7928  0.7983 -0.7892
  403MOL0     H54344   6.194  10.093   5.027 -2.1563  3.5667 -1.5433
  403MOL0     H54345   6.150  10.043   5.188 -1.6561 -1.8297 -2.2115
  403MOL0     H54346   6.053  10.277   5.012 -0.9883 -0.5594  0.1943
  403MOL0     H54347   5.970  10.117   5.054 -0.2080 -1.9166  1.5509
  403MOL0     H54348   6.041  10.340   5.248 -0.9392 -0.5276  1.6499
  403MOL0     H54349   5.881  10.313   5.192 -0.9222  0.3829  0.8503
  403MOL0     H54350   6.026  10.124   5.380  0.5233 -0.3319 -1.5331
  403MOL0     H54351   5.888  10.224   5.415  1.0082 -2.8559  1.5149
  403MOL0     H54352   5.767  10.093   5.236  0.7003  2.3403 -0.8576
  403MOL0     H54353   5.896   9.965   5.251 -0.6912  0.6999 -2.0105
  403MOL0     H54354   5.675  10.058   5.452 -0.5412 -0.2367 -1.2672
  403MOL0     H54355   5.812   9.988   5.508 -1.6576  0.7400  2.0680
  403MOL0     H54356   5.833   9.725   5.436  0.2546  0.3490 -1.3118
  403MOL0     H54357   5.560   9.481   5.275  0.7350 -0.3832  0.1979
  403MOL0     H54358   5.720   9.487   5.344 -0.0043  2.0162  0.2984
  403MOL0     H54359   5.607   9.555   5.570 -1.7702  1.3773  0.6869
  403MOL0     H54360   5.587   9.382   5.509 -0.8352 -0.3517 -0.6593
  403MOL0     H54361   5.366   9.443   5.438  1.4704 -1.4473  0.1574
  403MOL0     H54362   5.384   9.608   5.490 -2.5963 -1.3732 -0.9432
  403MOL0     H54363   5.456   9.495   5.718 -0.0076 -1.7482 -0.1479
  403MOL0     H54364   5.377   9.350   5.655 -2.3063  0.0599 -0.8138
  403MOL0     H54365   5.166   9.329   5.548 -0.4973  0.8463 -1.8685
  403MOL0     H54366   5.046   9.212   5.414 -0.5599  0.2410 -0.0812
  403MOL0     H54367   4.883   9.177   5.439  1.0073 -1.8861 -1.3206
  403MOL0     H54368   4.930   9.339   5.350  0.5910  1.0333  0.6719
  403MOL0     H54369   4.450   9.325   5.596  2.0630  0.3715  0.6078
  403MOL0     H54370   4.201   9.361   5.606 -0.1153  0.9467  2.0771
  403MOL0     H54371   3.898   9.657   5.608 -0.5967  4.0422  1.7076
  403MOL0     H54372   4.040   9.767   5.643  3.7666  0.4103 -3.3920
  403MOL0     H54373   4.108   9.766   5.421  0.8176 -1.8558  0.8458
  403MOL0     H54374   3.984   9.642   5.371  0.9515  0.4693 -1.7308
  403MOL0     H54375   3.953   9.921   5.503  2.2931  0.8463 -0.0493
  403MOL0     H54376   3.808   9.841   5.440 -0.2759  2.4348  2.0859
  403MOL0     H54377   4.053   9.951   5.286  0.5981 -1.0223 -2.6089
  403MOL0     H54378   3.923   9.848   5.210  3.7231  0.9144 -2.7730
  403MOL0     H54379   3.877  10.107   5.350  3.5963 -0.3781  0.4477
  403MOL0     H54380   3.764  10.021   5.249  1.4373 -1.8165  2.4305
  403MOL0     H54381   4.033  10.142   5.169  1.4194 -1.9420 -2.0273
  403MOL0     H54382   3.922  10.057   5.052  1.2568  0.9384 -0.7062
  403MOL0     H54383   3.760  10.218   5.050 -0.2868  2.2763 -1.1749
  403MOL0     H54384   3.909  10.295   5.005 -0.0602  0.2580 -0.4576
  403MOL0     H54385   3.792  10.319   5.287  0.2947  0.7985  0.2123
  403MOL0     H54386   3.788  10.438   5.159  0.9329  0.2081 -0.6965
  403MOL0     H54387   4.241   9.775   5.628 -0.0184 -0.9282  0.3297
  403MOL0     H54388   4.497   9.758   5.610 -0.5541  0.7876  0.2788
  403MOL0     H54389   4.827   9.620   5.721  1.0931 -0.5766  2.7447
  403MOL0     H54390   5.060   9.657   5.780 -0.6529  1.7073 -1.8958
  403MOL0     H54391   6.217  10.463   5.340  0.9085 -1.1918  0.4626
  403MOL0     H54392   6.253  10.609   5.534  2.0119 -0.1608  1.4849
  403MOL0     H54393   6.640  10.870   5.719 -0.6687 -1.5970  0.5605
  403MOL0     H54394   6.719  11.024   5.904 -0.6513 -0.3819  1.9403
  403MOL0     H54395   6.600  11.292   6.193  0.9835  0.0183 -1.7088
  403MOL0     H54396   6.437  11.271   6.138  0.5949  0.5659 -0.0606
  403MOL0     H54397   6.461  11.020   6.200 -0.4500  0.5075 -1.1354
  403MOL0     H54398   6.501  11.123   6.335  1.3859 -0.5836  0.3123
  403MOL0     H54399   6.749  11.113   6.298  0.5331 -0.7690  0.7781
  403MOL0     H54400   6.725  11.012   6.157  1.1984 -1.6932  0.0677
  403MOL0     H54401   6.621  10.845   6.274 -0.4750 -0.2842 -1.7673
  403MOL0     H54402   6.660  10.918   6.436  1.2322 -0.4274 -1.0684
  403MOL0     H54403   7.039  10.767   6.317 -0.8698  0.8952 -3.6394
  403MOL0     H54404   6.332  11.198   5.920 -0.2443 -1.3980  1.3322
  403MOL0     H54405   6.251  11.051   5.736  1.6002  0.9046 -2.4433
  404MOL0     O54406   6.747   6.816   2.757  1.3307 -0.1139 -0.1935
  404MOL0     C54407   6.821   6.911   2.726 -0.5406  0.6545  0.3105
  404MOL0     O54408   6.790   7.035   2.728 -1.0742 -0.1984  0.5204
  404MOL0     C54409   6.657   7.078   2.739 -0.1115 -0.1905 -1.0604
  404MOL0     C54410   6.617   7.179   2.658 -0.7563 -0.0358 -0.1247
  404MOL0     C54411   6.492   7.232   2.679 -0.8472  0.4794  0.2740
  404MOL0     C54412   6.406   7.177   2.777  0.2484  0.0776 -0.1762
  404MOL0     O54413   6.279   7.232   2.771  0.2294  0.3690 -0.0603
  404MOL0     C54414   6.196   7.211   2.885 -0.0352 -0.5854  0.4385
  404MOL0     C54415   6.067   7.290   2.879  0.1294 -0.5457  0.0848
  404MOL0     C54416   6.100   7.443   2.898  0.5234 -0.0369 -0.6396
  404MOL0     C54417   6.080   7.543   2.780  0.4882 -0.5265  0.8583
  404MOL0     C54418   6.140   7.689   2.801  1.1284  0.7700 -0.2144
  404MOL0     C54419   6.073   7.785   2.704  0.3481 -0.7897  0.5744
  404MOL0     C54420   6.141   7.922   2.691  0.2612 -0.2934  0.3586
  404MOL0     C54421   6.081   8.033   2.768  1.0460 -0.0313  0.1839
  404MOL0     N54422   6.142   8.162   2.723 -0.3295  0.2144  0.0492
  404MOL0     C54423   6.160   8.198   2.596 -0.3423 -0.9235  0.0453
  404MOL0     C54424   6.197   8.326   2.603 -0.2828  0.1456  0.3782
  404MOL0     C54425   6.214   8.416   2.476 -0.0724  0.6118  0.2386
  404MOL0     C54426   6.082   8.451   2.399 -0.4709  0.0548 -0.7985
  404MOL0     C54427   5.977   8.496   2.498  0.3597 -1.3396  0.2897
  404MOL0     C54428   5.835   8.468   2.449  0.0513  0.1545  0.1318
  404MOL0     O54429   5.807   8.323   2.480  0.4428  0.2487 -0.5290
  404MOL0     C54430   5.685   8.270   2.427 -1.0245 -0.5179  0.6118
  404MOL0     C54431   5.672   8.129   2.434 -0.4374  0.4110  0.5894
  404MOL0     C54432   5.569   8.055   2.373  0.8611 -0.7318 -0.4707
  404MOL0     C54433   5.574   7.900   2.369 -0.7169 -0.1866 -0.2588
  404MOL0     C54434   5.468   8.125   2.306 -0.5562 -0.6890 -0.1249
  404MOL0     C54435   5.360   8.059   2.228  0.2684 -0.2721  1.5258
  404MOL0     O54436   5.304   8.124   2.126  0.0002 -0.6522 -0.1731
  404MOL0     C54437   5.168   8.097   2.089  0.2314 -0.0996 -0.6218
  404MOL0     C54438   5.130   8.140   1.968 -0.3726 -0.2833 -1.1818
  404MOL0     C54439   5.003   8.124   1.917 -0.0487 -0.6632  0.3762
  404MOL0     C54440   4.909   8.054   1.990 -0.4217  0.3130 -1.0788
  404MOL0     O54441   4.790   8.028   1.934  0.4699 -0.2783  0.6631
  404MOL0     C54442   4.670   7.993   2.010  0.1538  0.0071  0.8696
  404MOL0     C54443   4.552   8.026   1.917  0.0852 -0.2219 -0.4029
  404MOL0     C54444   4.415   7.995   1.979  0.9061  0.4053  0.4240
  404MOL0     C54445   4.300   8.047   1.884  0.1822 -0.4752 -1.1333
  404MOL0     C54446   4.156   8.008   1.930  0.5508  0.3453  0.2244
  404MOL0     C54447   4.108   8.110   2.045  0.0837 -0.1583 -0.5857
  404MOL0     C54448   4.011   8.032   2.141 -0.7574 -0.1004  0.4529
  404MOL0     C54449   3.926   8.116   2.238 -0.2185 -0.5022  0.0867
  404MOL0    Cl54450   4.034   8.234   2.313  0.2871 -0.1937 -0.1480
  404MOL0     C54451   4.942   8.007   2.117  0.2199 -0.4858  0.1802
  404MOL0     C54452   5.067   8.030   2.169 -0.2251 -0.9214 -0.4431
  404MOL0     O54453   5.322   7.944   2.268 -0.1353 -0.0677  0.0677
  404MOL0     C54454   5.468   8.267   2.305 -0.5127  0.2194  0.9803
  404MOL0     C54455   5.579   8.337   2.363  0.8672  0.3386  0.2837
  404MOL0     N54456   6.190   8.375   2.738  0.1590 -0.5749 -0.4439
  404MOL0     N54457   6.157   8.272   2.804  0.4501 -0.2546  0.0099
  404MOL0     C54458   6.444   7.076   2.860  0.9010 -0.2226 -0.7537
  404MOL0     C54459   6.573   7.021   2.837  0.6307 -0.2301  0.0598
  404MOL0     C54460   6.964   6.879   2.694 -0.6286 -0.3104 -0.9527
  404MOL0     C54461   7.030   6.774   2.762 -0.2360 -0.8924  0.6855
  404MOL0     C54462   7.158   6.732   2.716  0.3509 -0.0274  0.1031
  404MOL0     C54463   7.234   6.805   2.630 -0.7203  0.1896  0.4597
  404MOL0     O54464   7.369   6.784   2.616 -0.2617 -0.7671 -0.0619
  404MOL0     C54465   7.403   6.644   2.638 -0.2815 -0.5888  0.3154
  404MOL0     C54466   7.540   6.612   2.567 -0.4773 -0.5048  0.0434
  404MOL0     C54467   7.656   6.586   2.658  0.1983  0.2401  0.0735
  404MOL0     C54468   7.797   6.598   2.584 -0.9254  0.4679  0.0487
  404MOL0     C54469   7.826   6.489   2.491 -0.4011  0.3663 -0.1552
  404MOL0     C54470   7.842   6.386   2.427 -0.5527  0.8534  0.1463
  404MOL0     C54471   7.177   6.917   2.577 -0.0348 -0.5052 -0.1248
  404MOL0     C54472   7.047   6.952   2.607  0.3068 -0.4627  0.4721
  404MOL0     H54473   6.692   7.227   2.597 -0.4578  1.8430  1.5986
  404MOL0     H54474   6.450   7.312   2.619  0.6325  1.7791  0.8901
  404MOL0     H54475   6.157   7.110   2.900 -3.1710  0.3275 -0.7323
  404MOL0     H54476   6.243   7.246   2.977  2.5349 -0.3455 -0.8823
  404MOL0     H54477   6.019   7.282   2.780 -3.4694  2.4987  1.3494
  404MOL0     H54478   5.989   7.254   2.948 -0.0142 -0.9443 -0.2747
  404MOL0     H54479   6.040   7.479   2.982 -0.0324  2.4606 -1.9975
  404MOL0     H54480   6.205   7.460   2.926  1.7680 -3.5237 -2.5466
  404MOL0     H54481   6.123   7.510   2.685 -3.0164 -1.0122 -0.7077
  404MOL0     H54482   5.974   7.556   2.756  0.4715  2.8495  2.2850
  404MOL0     H54483   6.108   7.723   2.900 -3.0294  1.2646 -1.5376
  404MOL0     H54484   6.250   7.690   2.802  1.2065 -1.6951  0.7305
  404MOL0     H54485   6.068   7.741   2.604 -0.8278  0.6256 -0.0190
  404MOL0     H54486   5.972   7.799   2.744  1.5344  0.7039  3.4088
  404MOL0     H54487   6.244   7.913   2.726  1.5939  0.7780 -2.8521
  404MOL0     H54488   6.158   7.943   2.585  1.4346 -0.0124  0.5815
  404MOL0     H54489   6.095   8.024   2.876  1.3937  0.5353  0.1915
  404MOL0     H54490   5.972   8.030   2.753  1.4093 -1.5413 -2.8882
  404MOL0     H54491   6.145   8.144   2.503 -0.4529 -2.1697  0.7593
  404MOL0     H54492   6.255   8.511   2.510  0.9254 -0.9785  3.8628
  404MOL0     H54493   6.283   8.367   2.407 -1.4046 -0.5250 -0.3219
  404MOL0     H54494   6.039   8.356   2.366  1.4868 -2.3727  2.9869
  404MOL0     H54495   6.103   8.529   2.325 -1.9460  0.7611 -0.5219
  404MOL0     H54496   5.995   8.602   2.514 -1.2311 -0.9489 -0.2310
  404MOL0     H54497   5.977   8.444   2.594 -0.8922  4.0675  3.6502
  404MOL0     H54498   5.827   8.486   2.341 -3.6157 -4.3422 -0.6762
  404MOL0     H54499   5.761   8.538   2.490 -1.8269  2.0865 -5.5514
  404MOL0     H54500   5.757   8.080   2.481  0.7712  0.1365 -1.7302
  404MOL0     H54501   5.573   7.879   2.262  1.5062  3.6857 -1.2363
  404MOL0     H54502   5.671   7.866   2.406 -0.9568 -0.0026  0.5694
  404MOL0     H54503   5.490   7.872   2.434 -1.2060  0.0898 -0.7619
  404MOL0     H54504   5.209   8.187   1.911 -0.0317 -1.4399 -1.6707
  404MOL0     H54505   4.972   8.154   1.817  0.8013  2.0681  0.8497
  404MOL0     H54506   4.678   7.885   2.028 -1.3163 -0.2078  0.3694
  404MOL0     H54507   4.672   8.043   2.107  4.9524  0.1735  0.8887
  404MOL0     H54508   4.573   8.133   1.904  0.2761 -0.3498 -1.1497
  404MOL0     H54509   4.549   7.972   1.823 -1.2112 -4.5989  1.8882
  404MOL0     H54510   4.401   8.033   2.081  0.4533  2.3303 -0.3299
  404MOL0     H54511   4.397   7.887   1.988  0.0876  0.1363 -3.2134
  404MOL0     H54512   4.309   8.155   1.869  2.5679 -0.5540 -0.6353
  404MOL0     H54513   4.325   8.002   1.787  3.1724 -1.7529  0.0996
  404MOL0     H54514   4.141   7.905   1.966 -0.6018 -0.1270 -1.4933
  404MOL0     H54515   4.092   8.023   1.843 -0.6295  0.3385  1.0614
  404MOL0     H54516   4.189   8.139   2.113 -0.4668 -3.2216  1.5904
  404MOL0     H54517   4.077   8.201   1.992 -4.0317 -2.4339 -2.5996
  404MOL0     H54518   4.070   7.959   2.198  1.1341  1.0286  0.0620
  404MOL0     H54519   3.939   7.975   2.082  0.8029 -2.2343  0.4866
  404MOL0     H54520   3.881   8.046   2.308  0.4693 -2.6030 -1.4715
  404MOL0     H54521   3.845   8.166   2.183 -0.7626 -0.6928  0.7032
  404MOL0     H54522   4.872   7.942   2.170 -0.8399  0.3590 -0.1435
  404MOL0     H54523   5.088   8.006   2.272  0.9048  1.5596 -0.0086
  404MOL0     H54524   5.392   8.326   2.254 -1.3678 -2.1234 -0.6360
  404MOL0     H54525   5.590   8.445   2.361  0.6462  0.3672  0.5857
  404MOL0     H54526   6.378   7.040   2.939 -0.5284 -0.3255 -1.9497
  404MOL0     H54527   6.590   6.941   2.908 -1.8675  1.0141  2.2433
  404MOL0     H54528   6.959   6.728   2.831 -3.7967  2.2169 -0.5100
  404MOL0     H54529   7.199   6.647   2.770  0.3187  0.9296  1.6783
  404MOL0     H54530   7.405   6.620   2.745  1.4322 -0.0778  0.4251
  404MOL0     H54531   7.331   6.582   2.584  2.4465 -0.8385 -3.4622
  404MOL0     H54532   7.553   6.700   2.503 -3.3377  0.8039  1.1060
  404MOL0     H54533   7.525   6.523   2.504 -0.4686  0.4258 -1.3148
  404MOL0     H54534   7.653   6.484   2.698 -1.8330  0.5967  0.9653
  404MOL0     H54535   7.645   6.652   2.745 -0.5006 -0.5456  0.6016
  404MOL0     H54536   7.876   6.625   2.655 -0.2422  4.1191 -1.8690
  404MOL0     H54537   7.806   6.690   2.525 -0.4594  0.1741 -0.3496
  404MOL0     H54538   7.858   6.287   2.389  1.6544  0.2523  2.3730
  404MOL0     H54539   7.233   6.989   2.519  1.3548 -0.8445  0.7579
  404MOL0     H54540   7.001   7.041   2.564 -0.7626 -0.5370  1.4093
  405MOL0     O54541   3.034  10.821   9.606 -0.2644  0.6703  0.3740
  405MOL0     C54542   2.966  10.737   9.665  0.2061  0.2107 -0.8542
  405MOL0     O54543   2.990  10.608   9.665  0.6156 -0.5623 -0.2409
  405MOL0     C54544   3.098  10.565   9.603 -0.1242  0.7972  0.8272
  405MOL0     C54545   3.228  10.551   9.662  0.1192 -0.8452 -0.0728
  405MOL0     C54546   3.336  10.508   9.578  0.2102 -0.3201 -0.0404
  405MOL0     C54547   3.311  10.466   9.448 -1.0575  0.4631 -0.6838
  405MOL0     O54548   3.429  10.420   9.393 -0.1672  0.5387  0.8302
  405MOL0     C54549   3.422  10.323   9.275  0.2748  0.5907 -1.0367
  405MOL0     C54550   3.455  10.399   9.149 -0.8535  0.1852 -0.7145
  405MOL0     C54551   3.359  10.517   9.123  0.1912 -0.4534  0.5138
  405MOL0     C54552   3.408  10.651   9.179  0.1625 -0.3632  0.5295
  405MOL0     C54553   3.293  10.753   9.187  0.5711  0.4815 -0.1017
  405MOL0     C54554   3.341  10.889   9.229 -0.5113 -0.1284  0.2018
  405MOL0     C54555   3.228  10.977   9.241  0.1292 -0.2503 -0.8368
  405MOL0     C54556   3.191  11.025   9.105  0.9465 -0.0457  0.5907
  405MOL0     N54557   3.070  11.110   9.102  0.0986 -0.0899  0.1422
  405MOL0     C54558   3.062  11.247   9.130  0.8373 -0.3292 -0.2893
  405MOL0     C54559   2.929  11.279   9.113  0.2050 -0.8818  0.2845
  405MOL0     C54560   2.851  11.410   9.122  0.1312 -0.2091 -0.5987
  405MOL0     C54561   2.774  11.419   9.257  0.7000 -1.0032 -0.1856
  405MOL0     C54562   2.751  11.560   9.310  0.6919  0.1127  0.6151
  405MOL0     C54563   2.698  11.548   9.454 -0.3510  0.6193  0.9175
  405MOL0     O54564   2.657  11.673   9.507 -0.2180 -0.4984 -0.5338
  405MOL0     C54565   2.542  11.679   9.582  0.7876 -0.6148  0.4677
  405MOL0     C54566   2.493  11.575   9.655 -0.0645 -0.3588 -0.0686
  405MOL0     C54567   2.371  11.570   9.722 -0.4905 -0.3690 -0.3820
  405MOL0     C54568   2.335  11.441   9.802 -0.6970  0.4130 -1.0548
  405MOL0     C54569   2.295  11.689   9.716 -0.5443 -0.6766  0.4013
  405MOL0     C54570   2.153  11.684   9.770  0.5412  0.0816  0.2750
  405MOL0     O54571   2.100  11.797   9.830  0.6202 -0.1664  0.8865
  405MOL0     C54572   1.965  11.796   9.863 -0.2490 -0.6623  0.3298
  405MOL0     C54573   1.921  11.756   9.991  0.3698  0.2108  0.3522
  405MOL0     C54574   1.781  11.770  10.024  0.3265 -0.6525 -0.4871
  405MOL0     C54575   1.689  11.809   9.923  1.1778 -0.3644 -0.2675
  405MOL0     O54576   1.555  11.778   9.946  0.2103 -0.1696 -0.6886
  405MOL0     C54577   1.457  11.858   9.879  0.4703  0.7865 -0.6547
  405MOL0     C54578   1.328  11.840   9.956 -0.0355  1.2195 -0.7043
  405MOL0     C54579   1.202  11.874   9.882  0.4993 -0.8386  0.3084
  405MOL0     C54580   1.064  11.867   9.961  0.3250  0.1840 -0.3578
  405MOL0     C54581   1.035  11.727  10.025 -0.8437 -0.0153  0.0578
  405MOL0     C54582   0.913  11.732  10.113 -0.3187  0.1188 -0.2875
  405MOL0     C54583   0.872  11.595  10.167  0.2285  0.0484 -0.0568
  405MOL0     C54584   0.751  11.616  10.261 -0.4751  0.1556  0.5358
  405MOL0    Cl54585   0.764  11.511  10.413 -0.1962 -0.2284 -0.0243
  405MOL0     C54586   1.733  11.840   9.790  0.0259  0.0817  0.3149
  405MOL0     C54587   1.873  11.843   9.765  0.0709  0.8132  0.0521
  405MOL0     O54588   2.094  11.582   9.747  0.4647  0.1767 -0.0014
  405MOL0     C54589   2.337  11.798   9.646  0.6079 -0.7186 -0.2933
  405MOL0     C54590   2.457  11.795   9.580 -0.0166 -0.4301  0.1640
  405MOL0     N54591   2.859  11.165   9.074 -0.6581 -0.2305 -0.3326
  405MOL0     N54592   2.947  11.065   9.065 -0.3668 -0.0561  0.0800
  405MOL0     C54593   3.183  10.452   9.402  0.2245  0.0433 -0.6147
  405MOL0     C54594   3.077  10.504   9.470 -0.0131  0.3581 -0.9081
  405MOL0     C54595   2.844  10.775   9.730  0.3352  0.8341 -0.9377
  405MOL0     C54596   2.752  10.678   9.763  0.5488  0.9194 -0.4703
  405MOL0     C54597   2.642  10.718   9.833  0.3293  0.5453 -0.2987
  405MOL0     C54598   2.617  10.847   9.868  0.1458 -0.0533  0.4302
  405MOL0     O54599   2.507  10.895   9.937 -0.6068  0.3629  0.6263
  405MOL0     C54600   2.423  10.827  10.028  0.0876  0.0804  0.3844
  405MOL0     C54601   2.367  10.934  10.127 -0.3098 -0.4809 -0.3721
  405MOL0     C54602   2.252  11.021  10.069 -0.0548 -0.2233  1.0407
  405MOL0     C54603   2.184  11.117  10.174 -0.6788  0.6283  0.5084
  405MOL0     C54604   2.123  11.043  10.278 -0.3271 -0.7761 -0.2616
  405MOL0     C54605   2.069  10.972  10.360  0.4738  0.2657  0.2575
  405MOL0     C54606   2.703  10.943   9.827  0.1406  0.2230  0.4620
  405MOL0     C54607   2.822  10.909   9.763  0.1224 -0.4410  0.1205
  405MOL0     H54608   3.242  10.588   9.763 -1.6257 -2.2674  0.7635
  405MOL0     H54609   3.434  10.515   9.624 -0.3782  3.4292  1.0164
  405MOL0     H54610   3.502  10.249   9.283  2.1514  2.7193  1.4455
  405MOL0     H54611   3.324  10.274   9.268  0.1342  0.1753  2.2861
  405MOL0     H54612   3.555  10.442   9.146 -0.3068 -0.8521  1.2810
  405MOL0     H54613   3.450  10.326   9.067  0.3754  0.0891 -0.7232
  405MOL0     H54614   3.340  10.533   9.017 -0.4898 -0.3023  0.6580
  405MOL0     H54615   3.258  10.493   9.158 -1.5124  0.6081 -3.1907
  405MOL0     H54616   3.466  10.637   9.270  0.7716 -1.7568 -0.0480
  405MOL0     H54617   3.483  10.686   9.107 -0.1804  1.0059  0.8020
  405MOL0     H54618   3.248  10.753   9.087  1.4963  1.8397 -0.5484
  405MOL0     H54619   3.212  10.722   9.253  0.2545  0.5539 -0.4577
  405MOL0     H54620   3.377  10.875   9.332 -0.8091 -0.3850  0.2749
  405MOL0     H54621   3.424  10.922   9.166 -0.3371  1.4937  1.2408
  405MOL0     H54622   3.141  10.931   9.289  0.9093 -1.2201 -0.3232
  405MOL0     H54623   3.259  11.062   9.303  3.4811 -0.6568 -1.7524
  405MOL0     H54624   3.162  10.941   9.041  1.7428  0.9091 -1.0953
  405MOL0     H54625   3.276  11.070   9.053  1.4723 -0.0419  1.4428
  405MOL0     H54626   3.142  11.311   9.167 -1.0409  0.2783  3.1712
  405MOL0     H54627   2.916  11.496   9.101 -1.6915  1.4476  0.1373
  405MOL0     H54628   2.782  11.414   9.036  1.4340 -0.6237 -1.6940
  405MOL0     H54629   2.835  11.378   9.337  1.4759  2.2161  1.0342
  405MOL0     H54630   2.679  11.365   9.248  0.0433  0.0969 -0.1027
  405MOL0     H54631   2.679  11.609   9.244  0.1917  0.3680  1.3375
  405MOL0     H54632   2.841  11.623   9.314  0.0711  1.4984 -3.2370
  405MOL0     H54633   2.774  11.499   9.516 -0.5095 -2.5112 -1.1212
  405MOL0     H54634   2.615  11.478   9.446  2.7758 -3.2799 -1.8834
  405MOL0     H54635   2.562  11.491   9.659  0.4239 -0.0053 -0.8614
  405MOL0     H54636   2.240  11.401   9.768 -1.8786  1.1405  1.2135
  405MOL0     H54637   2.410  11.363   9.786 -3.9990 -3.8141  1.8669
  405MOL0     H54638   2.332  11.466   9.909  0.4429  1.2094 -1.1891
  405MOL0     H54639   1.994  11.733  10.068 -1.1487 -3.4314  0.9212
  405MOL0     H54640   1.737  11.758  10.122 -0.3693  1.5056 -0.4817
  405MOL0     H54641   1.483  11.964   9.869  0.2099  0.7817 -1.4844
  405MOL0     H54642   1.452  11.810   9.781  3.1008 -0.0791 -0.4178
  405MOL0     H54643   1.307  11.735   9.978 -0.6548  0.4991 -4.0386
  405MOL0     H54644   1.322  11.909  10.040  0.8481 -1.2015  1.4592
  405MOL0     H54645   1.183  11.807   9.797  1.5767  0.2524 -0.8284
  405MOL0     H54646   1.226  11.974   9.845  0.9833 -1.9799 -2.7964
  405MOL0     H54647   1.056  11.933  10.048  3.9606 -1.6869  1.6534
  405MOL0     H54648   0.987  11.897   9.889  0.7760  3.4780  0.3899
  405MOL0     H54649   1.128  11.697  10.075  0.2205 -0.9789 -2.3557
  405MOL0     H54650   1.017  11.649   9.951  0.4734  0.6506 -1.0112
  405MOL0     H54651   0.934  11.811  10.185 -0.0207  0.4805 -0.7629
  405MOL0     H54652   0.831  11.778  10.057 -0.1253 -0.2909 -0.9162
  405MOL0     H54653   0.965  11.561  10.215 -0.1178 -1.3103 -0.3240
  405MOL0     H54654   0.838  11.530  10.087 -3.1279  1.1504  0.3164
  405MOL0     H54655   0.658  11.590  10.210 -1.5914  2.0755  1.4889
  405MOL0     H54656   0.752  11.720  10.296  1.0868  0.5790 -0.6404
  405MOL0     H54657   1.671  11.858   9.702 -0.8421 -3.5895  0.0412
  405MOL0     H54658   1.908  11.894   9.676 -3.2736  4.1704  0.3760
  405MOL0     H54659   2.266  11.879   9.634  0.2134 -0.7991  1.2834
  405MOL0     H54660   2.485  11.878   9.515 -1.5452  0.4525  0.6043
  405MOL0     H54661   3.146  10.396   9.316  3.3873 -2.9756 -0.1992
  405MOL0     H54662   2.973  10.495   9.439  0.0844 -2.5132 -0.6860
  405MOL0     H54663   2.765  10.571   9.748  1.0568  0.6787  1.3811
  405MOL0     H54664   2.568  10.642   9.855 -1.0063  1.3478 -1.8105
  405MOL0     H54665   2.349  10.771   9.970  3.3138 -2.2832 -1.8164
  405MOL0     H54666   2.484  10.763  10.092  1.3389  1.3098  0.4768
  405MOL0     H54667   2.443  11.001  10.170 -1.2533  0.5788 -0.3189
  405MOL0     H54668   2.330  10.876  10.213 -0.7110  2.1283  1.3351
  405MOL0     H54669   2.174  10.948  10.042 -0.7900  1.4473 -1.8081
  405MOL0     H54670   2.267  11.076   9.976 -1.5445 -0.2677  0.7481
  405MOL0     H54671   2.102  11.164  10.118  0.4940  2.6670  0.3978
  405MOL0     H54672   2.259  11.178  10.226  1.0054 -2.3922  1.8835
  405MOL0     H54673   2.005  10.907  10.417  0.6240  1.6300  2.0885
  405MOL0     H54674   2.677  11.048   9.835  0.6089  0.7862 -3.5125
  405MOL0     H54675   2.891  10.985   9.726 -2.3953  0.4875 -3.1679
  406MOL0     O54676   5.052  10.288   9.447 -0.1591  0.2451 -1.1327
  406MOL0     C54677   5.064  10.393   9.512  0.7435 -0.4142  0.4987
  406MOL0     O54678   4.965  10.492   9.524 -0.3785  0.5197 -0.5190
  406MOL0     C54679   4.842  10.477   9.468  0.5799 -0.3056 -0.2255
  406MOL0     C54680   4.737  10.420   9.526  0.3048 -0.0439  0.1713
  406MOL0     C54681   4.617  10.402   9.454  0.0969 -0.3325  0.0010
  406MOL0     C54682   4.600  10.443   9.321 -0.2033 -0.5719 -0.1047
  406MOL0     O54683   4.485  10.453   9.249 -1.1190  0.9937 -0.0822
  406MOL0     C54684   4.362  10.415   9.311 -1.5985  0.0013 -0.1984
  406MOL0     C54685   4.251  10.482   9.224  0.0785 -0.0819  0.1879
  406MOL0     C54686   4.119  10.455   9.291  0.6284 -0.8372 -0.3977
  406MOL0     C54687   3.987  10.455   9.211 -0.3578 -0.1699  0.1716
  406MOL0     C54688   3.878  10.358   9.265 -0.1806 -0.0263 -1.4810
  406MOL0     C54689   3.915  10.210   9.269 -0.1612 -0.1898 -0.6345
  406MOL0     C54690   3.786  10.119   9.247 -0.5974 -0.3477  0.0004
  406MOL0     C54691   3.810  10.030   9.126  0.2398 -0.7426  0.1529
  406MOL0     N54692   3.779  10.104   9.004  0.0934  0.0908  0.0371
  406MOL0     C54693   3.669  10.073   8.928 -0.0292 -0.5147  0.3906
  406MOL0     C54694   3.671  10.165   8.832 -0.6019  0.1299  0.3301
  406MOL0     C54695   3.573  10.168   8.715  0.2322  0.1015 -0.6581
  406MOL0     C54696   3.624  10.092   8.593 -0.1019  0.2710 -0.0117
  406MOL0     C54697   3.524  10.116   8.480 -0.2932  0.2528 -0.1185
  406MOL0     C54698   3.576  10.065   8.345  0.7282  0.4225 -0.3273
  406MOL0     O54699   3.602   9.920   8.365  0.6634 -0.6077  0.7334
  406MOL0     C54700   3.716   9.883   8.308 -0.4014  0.7731  0.3390
  406MOL0     C54701   3.727   9.884   8.173  0.6781  0.0146 -0.4302
  406MOL0     C54702   3.832   9.824   8.100  0.5857  0.3552  0.7448
  406MOL0     C54703   3.816   9.841   7.942 -0.0967  0.0955 -0.7417
  406MOL0     C54704   3.930   9.751   8.172  0.4634  0.3201 -0.5485
  406MOL0     C54705   4.044   9.674   8.109 -0.2710 -0.3266  0.3742
  406MOL0     O54706   4.100   9.568   8.175 -0.2498 -0.2661 -0.0972
  406MOL0     C54707   4.225   9.512   8.145 -0.0001  1.1632  0.3660
  406MOL0     C54708   4.310   9.474   8.249 -0.3633 -0.5773 -0.1634
  406MOL0     C54709   4.444   9.447   8.226 -0.3596 -0.1351 -0.4133
  406MOL0     C54710   4.491   9.424   8.098 -0.6329 -0.0284 -0.5702
  406MOL0     O54711   4.617   9.383   8.087 -0.0338 -0.3095  0.1783
  406MOL0     C54712   4.705   9.461   8.006  0.2155 -0.8492  0.0262
  406MOL0     C54713   4.811   9.366   7.969  0.1935  0.9130 -0.0675
  406MOL0     C54714   4.931   9.452   7.916 -0.5125  0.0660  0.4418
  406MOL0     C54715   5.065   9.371   7.915 -0.8436  0.4697  0.9910
  406MOL0     C54716   5.168   9.447   7.834  0.4183  0.4427  0.1871
  406MOL0     C54717   5.261   9.345   7.764  0.3657  0.6815 -0.8078
  406MOL0     C54718   5.367   9.412   7.675  0.3806  0.6907  0.3162
  406MOL0     C54719   5.444   9.532   7.739 -0.6875  0.4402 -0.2421
  406MOL0    Cl54720   5.524   9.642   7.624  0.0608  0.6456  0.5230
  406MOL0     C54721   4.403   9.453   7.995  0.8228 -0.1102  0.4026
  406MOL0     C54722   4.272   9.495   8.016  0.8231 -1.0947  0.4646
  406MOL0     O54723   4.092   9.728   8.006 -0.4416  0.7590 -0.2142
  406MOL0     C54724   3.915   9.753   8.313  0.2917  0.3994 -0.6637
  406MOL0     C54725   3.813   9.819   8.383  0.1715  0.8618 -0.4850
  406MOL0     N54726   3.784  10.250   8.852  0.0758  0.2578  0.5123
  406MOL0     N54727   3.846  10.217   8.958  0.6026  0.2118  0.7685
  406MOL0     C54728   4.711  10.509   9.266  0.1243  0.3625 -0.6163
  406MOL0     C54729   4.829  10.528   9.339  1.5233  0.1557 -0.0209
  406MOL0     C54730   5.200  10.429   9.560  0.3528  0.2695 -0.1868
  406MOL0     C54731   5.232  10.557   9.608  0.7158  0.2492 -0.6610
  406MOL0     C54732   5.354  10.605   9.636  0.8174  0.8251  0.0839
  406MOL0     C54733   5.462  10.510   9.624  0.3926 -0.4046  0.7999
  406MOL0     O54734   5.592  10.550   9.638  0.2776 -0.0410 -0.8774
  406MOL0     C54735   5.625  10.692   9.651  0.0509  0.8191  0.9595
  406MOL0     C54736   5.770  10.701   9.699  0.1248  0.2201  0.2535
  406MOL0     C54737   5.875  10.644   9.603  0.5644  0.8877  0.6397
  406MOL0     C54738   6.011  10.690   9.641  0.6776 -0.0823 -0.4482
  406MOL0     C54739   6.125  10.653   9.562  0.1268 -0.0657  0.3631
  406MOL0     C54740   6.211  10.626   9.482 -0.2885 -0.1004  0.9207
  406MOL0     C54741   5.438  10.377   9.587 -1.2830 -0.0382 -0.4120
  406MOL0     C54742   5.304  10.337   9.561  0.0927  0.7341 -1.4088
  406MOL0     H54743   4.748  10.379   9.627 -0.5039 -0.2031  0.2017
  406MOL0     H54744   4.528  10.364   9.504 -0.4533 -1.5973 -1.8107
  406MOL0     H54745   4.339  10.308   9.300 -0.8471  0.0342 -2.5822
  406MOL0     H54746   4.362  10.451   9.415  1.5987  0.7990 -0.3802
  406MOL0     H54747   4.270  10.589   9.209  0.0311 -0.3104 -1.6172
  406MOL0     H54748   4.249  10.437   9.125  1.1395 -1.0067  0.5602
  406MOL0     H54749   4.121  10.363   9.350 -2.2810 -0.1868  0.8736
  406MOL0     H54750   4.101  10.525   9.373 -3.8415  0.7657 -2.3940
  406MOL0     H54751   3.944  10.555   9.196 -1.6495 -0.9771 -2.1083
  406MOL0     H54752   4.018  10.428   9.109  3.4371 -1.7025  1.5687
  406MOL0     H54753   3.849  10.392   9.365  2.8913  1.4327 -0.9702
  406MOL0     H54754   3.786  10.377   9.210 -0.8937  2.6306  0.4039
  406MOL0     H54755   3.988  10.199   9.189 -1.9931  2.6473 -2.8771
  406MOL0     H54756   3.965  10.195   9.366 -1.0910  1.7390  0.1859
  406MOL0     H54757   3.775  10.060   9.339 -2.0367 -1.8035 -1.0448
  406MOL0     H54758   3.700  10.180   9.221  0.5480  0.1622 -3.0569
  406MOL0     H54759   3.746   9.942   9.142  0.0009 -1.2696 -3.0267
  406MOL0     H54760   3.912   9.990   9.125  0.8247  0.6676 -1.1514
  406MOL0     H54761   3.601   9.989   8.937 -2.8775  1.2303 -2.6838
  406MOL0     H54762   3.471  10.136   8.738  1.7318 -2.9059  2.8513
  406MOL0     H54763   3.562  10.270   8.678 -1.9299 -0.5991 -2.1518
  406MOL0     H54764   3.626   9.984   8.611 -0.4505  0.5467  1.8520
  406MOL0     H54765   3.728  10.119   8.578  0.6781 -2.2590  0.3578
  406MOL0     H54766   3.505  10.223   8.466 -1.9847  0.0134  0.0454
  406MOL0     H54767   3.425  10.084   8.515 -0.1519 -0.4040 -0.3058
  406MOL0     H54768   3.665  10.116   8.307  1.9903 -1.8692 -0.5912
  406MOL0     H54769   3.494  10.065   8.271  0.2704 -1.0927  0.1539
  406MOL0     H54770   3.644   9.921   8.114  2.1504 -0.3861 -2.8961
  406MOL0     H54771   3.843   9.944   7.917  0.2670  0.3632  0.6621
  406MOL0     H54772   3.889   9.768   7.904  0.4496 -0.9097  1.9769
  406MOL0     H54773   3.715   9.823   7.907 -0.6959  0.5799  0.6473
  406MOL0     H54774   4.277   9.490   8.351  0.6847 -2.0364  0.4473
  406MOL0     H54775   4.502   9.418   8.313 -0.2024  1.6164  0.1060
  406MOL0     H54776   4.668   9.515   7.918 -1.4504 -1.1806  0.4832
  406MOL0     H54777   4.749   9.537   8.071  1.6981 -0.2099 -1.6293
  406MOL0     H54778   4.840   9.295   8.046 -2.2067  1.1949  1.1712
  406MOL0     H54779   4.780   9.312   7.879 -1.9593  1.5109  0.2702
  406MOL0     H54780   4.954   9.540   7.977 -1.1132  2.1157 -2.0926
  406MOL0     H54781   4.897   9.482   7.816 -1.1777  2.2963  1.2834
  406MOL0     H54782   5.090   9.356   8.021  0.7043 -1.0239  0.4560
  406MOL0     H54783   5.065   9.267   7.879  2.1328  0.1129  1.7648
  406MOL0     H54784   5.225   9.509   7.902  1.2779 -1.1469  0.9711
  406MOL0     H54785   5.125   9.514   7.759  1.1954  1.7544  0.8966
  406MOL0     H54786   5.314   9.293   7.844 -0.2677  2.2335  0.6863
  406MOL0     H54787   5.199   9.271   7.712  0.7935 -1.1112  1.0992
  406MOL0     H54788   5.320   9.452   7.584  1.0234 -1.8004 -1.2031
  406MOL0     H54789   5.433   9.333   7.640 -0.2293  1.4075 -2.7695
  406MOL0     H54790   5.525   9.494   7.802 -1.7151  2.4987  2.5193
  406MOL0     H54791   5.390   9.596   7.810  0.3758 -0.4496  1.4442
  406MOL0     H54792   4.432   9.454   7.890  1.4028  3.1653  0.4870
  406MOL0     H54793   4.207   9.513   7.931  0.1571 -0.5161  1.0760
  406MOL0     H54794   3.988   9.702   8.376 -0.4827 -2.5508 -2.0361
  406MOL0     H54795   3.802   9.810   8.491 -1.2666 -0.4669 -0.6945
  406MOL0     H54796   4.706  10.544   9.164 -2.4001  0.1870 -0.6045
  406MOL0     H54797   4.909  10.582   9.290  1.1404  0.2842 -0.5138
  406MOL0     H54798   5.152  10.630   9.620 -0.2482 -0.7261 -1.0193
  406MOL0     H54799   5.364  10.705   9.677  2.0806 -0.1803  2.4844
  406MOL0     H54800   5.621  10.733   9.550 -2.1058 -1.4992 -0.0202
  406MOL0     H54801   5.553  10.740   9.717 -1.6148  0.4378 -0.5062
  406MOL0     H54802   5.784  10.641   9.789 -2.3589 -1.8830 -0.6138
  406MOL0     H54803   5.783  10.805   9.730  0.3713 -0.2820  1.9210
  406MOL0     H54804   5.837  10.675   9.505 -4.2822  0.2008  2.0598
  406MOL0     H54805   5.875  10.535   9.601 -1.5421  0.8599 -0.4192
  406MOL0     H54806   6.016  10.648   9.742  1.2836 -2.6228 -1.4765
  406MOL0     H54807   6.003  10.798   9.658 -0.6206  0.0361 -1.6667
  406MOL0     H54808   6.280  10.607   9.403 -1.4966 -2.4916  0.3614
  406MOL0     H54809   5.524  10.311   9.592  0.5550  2.2719  0.2367
  406MOL0     H54810   5.272  10.235   9.540 -1.0287  0.6105  0.6921
  407MOL0     O54811   2.933   7.049   9.897  1.2406  0.7932 -0.0656
  407MOL0     C54812   2.925   7.160   9.854  0.1635 -0.1621  0.6741
  407MOL0     O54813   2.812   7.241   9.835 -0.2805  0.3090  0.0914
  407MOL0     C54814   2.690   7.183   9.864 -0.9244 -0.5996 -0.1535
  407MOL0     C54815   2.659   7.136   9.988 -0.1137  0.0214  1.2874
  407MOL0     C54816   2.529   7.092  10.020 -0.5396 -0.1648 -0.6322
  407MOL0     C54817   2.420   7.099   9.935  0.2546 -0.1969  0.8801
  407MOL0     O54818   2.301   7.050   9.980 -0.0160 -0.3770  0.3692
  407MOL0     C54819   2.219   6.991   9.878 -0.3606  0.4037 -0.8876
  407MOL0     C54820   2.102   6.898   9.928  0.2748  0.3748  0.1512
  407MOL0     C54821   1.993   6.981  10.009 -0.4631  0.0643 -0.7504
  407MOL0     C54822   1.912   7.080   9.923 -0.3944  1.1529  0.4426
  407MOL0     C54823   1.797   7.147  10.001  0.4099  1.2803  0.1801
  407MOL0     C54824   1.753   7.274   9.929 -0.4047 -0.3303  0.5792
  407MOL0     C54825   1.653   7.352  10.007  1.2324  0.4501  0.4554
  407MOL0     C54826   1.586   7.454   9.914 -0.4626 -0.0932  0.1187
  407MOL0     N54827   1.518   7.566   9.986  0.1939  0.8900 -0.4236
  407MOL0     C54828   1.386   7.567  10.015 -0.4426 -0.5922 -0.7437
  407MOL0     C54829   1.373   7.682  10.090 -0.7246 -0.7801 -1.1960
  407MOL0     C54830   1.254   7.736  10.162 -0.0721  0.5970 -0.1445
  407MOL0     C54831   1.254   7.689  10.311  0.2983 -0.2748 -0.7171
  407MOL0     C54832   1.142   7.770  10.391  0.4677  0.2147 -0.3873
  407MOL0     C54833   1.081   7.681  10.495 -0.1405 -0.4377 -0.7827
  407MOL0     O54834   0.990   7.600  10.421  0.1281  0.1388  0.5852
  407MOL0     C54835   0.908   7.518  10.493 -0.4008 -0.0184  0.4279
  407MOL0     C54836   0.804   7.464  10.423  0.9556  0.1975 -0.2272
  407MOL0     C54837   0.698   7.400  10.483 -0.2873 -0.3827 -0.6545
  407MOL0     C54838   0.590   7.343  10.394  0.3255 -0.2059 -0.2014
  407MOL0     C54839   0.693   7.389  10.626 -0.1697  0.0124 -0.5090
  407MOL0     C54840   0.573   7.349  10.703 -0.1430  0.4840 -0.8928
  407MOL0     O54841   0.455   7.315  10.631  0.2403 -0.1091  0.1904
  407MOL0     C54842   0.366   7.243  10.703 -0.4821 -0.2363 -0.7456
  407MOL0     C54843   0.319   7.119  10.651  1.0051  0.3920 -0.2801
  407MOL0     C54844   0.214   7.047  10.713  0.3866 -1.5421  0.3445
  407MOL0     C54845   0.137   7.106  10.815  0.3182 -0.8623  0.0231
  407MOL0     O54846   0.022   7.043  10.851 -0.1709  0.2611 -0.7612
  407MOL0     C54847  -0.018   7.064  10.989  0.3922 -0.2149  0.3750
  407MOL0     C54848  -0.056   6.920  11.050 -0.4162 -0.6117 -0.3563
  407MOL0     C54849  -0.093   6.937  11.200 -0.3962 -0.2128 -0.3575
  407MOL0     C54850  -0.112   6.793  11.261  0.6027  0.1547 -0.3932
  407MOL0     C54851  -0.134   6.793  11.407  0.1215 -0.3002 -0.0418
  407MOL0     C54852  -0.262   6.855  11.451  0.0411  0.4051  0.0792
  407MOL0     C54853  -0.383   6.760  11.432  0.4696 -0.9004  0.1436
  407MOL0     C54854  -0.517   6.840  11.412 -0.5170  0.0303  0.4611
  407MOL0    Cl54855  -0.655   6.753  11.462  0.2621 -0.0864  0.1306
  407MOL0     C54856   0.186   7.230  10.866  1.0843  0.6699  0.0555
  407MOL0     C54857   0.301   7.290  10.818  0.9833 -0.5965 -1.0146
  407MOL0     O54858   0.586   7.340  10.834  0.2564  0.6714  0.1200
  407MOL0     C54859   0.808   7.434  10.701  0.5329  0.0244  0.1610
  407MOL0     C54860   0.910   7.501  10.634  0.3262  0.1116 -0.4314
  407MOL0     N54861   1.497   7.740  10.107  0.2340 -0.0775 -0.2242
  407MOL0     N54862   1.585   7.675  10.035 -0.9606 -0.5892  0.7417
  407MOL0     C54863   2.454   7.146   9.803 -0.5503  0.1947 -0.5445
  407MOL0     C54864   2.585   7.194   9.772 -0.2085  0.3333 -0.0202
  407MOL0     C54865   3.063   7.228   9.831  0.3200 -0.6307 -1.2900
  407MOL0     C54866   3.163   7.198   9.923  0.1911 -0.4961  0.0074
  407MOL0     C54867   3.286   7.268   9.918  0.0719 -0.3326 -0.3963
  407MOL0     C54868   3.308   7.370   9.818 -0.5947 -0.3203 -0.0643
  407MOL0     O54869   3.419   7.443   9.810 -0.6027 -0.1768  0.1858
  407MOL0     C54870   3.543   7.406   9.872 -0.0177  0.0583 -0.4573
  407MOL0     C54871   3.651   7.405   9.761  1.2712  0.0872 -0.8669
  407MOL0     C54872   3.613   7.315   9.631  1.1554  0.1205 -0.2721
  407MOL0     C54873   3.715   7.324   9.517 -0.0779  0.2908  0.2327
  407MOL0     C54874   3.848   7.285   9.582  0.5971 -0.1783  0.0389
  407MOL0     C54875   3.940   7.241   9.638 -0.8215  0.2615  0.0347
  407MOL0     C54876   3.205   7.397   9.719 -0.2554  0.8139 -0.3556
  407MOL0     C54877   3.082   7.327   9.731 -0.5894 -0.0335 -0.2236
  407MOL0     H54878   2.734   7.136  10.067 -0.2742  1.0974  1.4534
  407MOL0     H54879   2.514   7.080  10.126  1.7577  2.2839  0.0669
  407MOL0     H54880   2.175   7.060   9.805 -0.8941 -0.3377 -1.2745
  407MOL0     H54881   2.281   6.918   9.825 -1.3416  1.4414 -3.6292
  407MOL0     H54882   2.041   6.862   9.844  0.4296 -1.0559  0.6433
  407MOL0     H54883   2.140   6.810   9.979  0.0851  2.6375  4.7141
  407MOL0     H54884   1.925   6.902  10.043 -0.0496 -0.4963 -1.2284
  407MOL0     H54885   2.032   7.037  10.095 -2.1613  2.0228 -1.1772
  407MOL0     H54886   1.978   7.160   9.886  1.5177 -1.3885 -2.0683
  407MOL0     H54887   1.866   7.021   9.843  0.6958  0.5203  0.2715
  407MOL0     H54888   1.712   7.078   9.999  0.7981  0.7845 -1.7979
  407MOL0     H54889   1.823   7.161  10.106  1.0253 -3.0600  0.7875
  407MOL0     H54890   1.839   7.337   9.904 -0.6251  0.0245  0.7082
  407MOL0     H54891   1.726   7.238   9.830  0.4956 -2.4159  1.0480
  407MOL0     H54892   1.576   7.278  10.032  0.5288  0.1195 -2.3127
  407MOL0     H54893   1.702   7.401  10.091  1.1299 -0.2886  0.9593
  407MOL0     H54894   1.521   7.402   9.843  1.1746  0.0035 -1.5308
  407MOL0     H54895   1.665   7.495   9.850 -1.6778 -0.8708 -1.9684
  407MOL0     H54896   1.313   7.490   9.993  1.2571 -2.1591 -1.1367
  407MOL0     H54897   1.243   7.844  10.147  0.2563  0.4933 -1.2404
  407MOL0     H54898   1.162   7.697  10.119  0.3820 -1.6648  0.7899
  407MOL0     H54899   1.348   7.698  10.366 -0.1069  1.2333 -0.2154
  407MOL0     H54900   1.227   7.583  10.307 -0.5329 -0.3541  3.3088
  407MOL0     H54901   1.064   7.810  10.326  1.9966  1.4260 -1.5753
  407MOL0     H54902   1.186   7.854  10.446  0.3403  0.2821 -0.3880
  407MOL0     H54903   1.028   7.752  10.559 -0.4728 -2.0372  0.7988
  407MOL0     H54904   1.155   7.627  10.554  0.9438 -2.3213 -3.6773
  407MOL0     H54905   0.818   7.468  10.316 -0.2594 -0.0456 -0.4152
  407MOL0     H54906   0.564   7.240  10.422 -1.5353  0.0524 -0.8515
  407MOL0     H54907   0.505   7.412  10.391  0.2284 -0.3022  0.3739
  407MOL0     H54908   0.628   7.348  10.291  0.7683 -0.4017 -0.0478
  407MOL0     H54909   0.366   7.090  10.557 -0.5636  0.4516 -1.1236
  407MOL0     H54910   0.193   6.945  10.683 -1.9902 -1.3351  1.0763
  407MOL0     H54911   0.061   7.114  11.045  1.0442  1.8172 -2.1910
  407MOL0     H54912  -0.112   7.120  10.983  0.0004 -0.9481 -0.6285
  407MOL0     H54913  -0.141   6.882  10.992 -2.4881  0.7351  1.6437
  407MOL0     H54914   0.022   6.844  11.041  2.2410  2.0168 -0.8366
  407MOL0     H54915  -0.183   6.998  11.211 -2.8837 -3.3269 -2.0373
  407MOL0     H54916  -0.010   6.989  11.249 -0.3907  1.8054 -2.3070
  407MOL0     H54917  -0.203   6.744  11.225  1.4487 -1.2291 -0.7179
  407MOL0     H54918  -0.034   6.727  11.223 -0.2434 -0.1544 -1.6854
  407MOL0     H54919  -0.045   6.824  11.463  0.8599 -2.0439 -0.1869
  407MOL0     H54920  -0.144   6.688  11.436 -4.1545  0.2173  1.1638
  407MOL0     H54921  -0.246   6.874  11.558 -1.8030  0.5026  0.3703
  407MOL0     H54922  -0.290   6.952  11.407 -1.8236 -0.6468 -1.1908
  407MOL0     H54923  -0.402   6.708  11.526  2.4631  4.3900  3.9377
  407MOL0     H54924  -0.370   6.688  11.350 -0.4007  0.8024 -1.5568
  407MOL0     H54925  -0.510   6.852  11.303  0.6988  4.2409  0.8505
  407MOL0     H54926  -0.510   6.939  11.457 -1.2508  0.2332  0.1393
  407MOL0     H54927   0.129   7.278  10.946  1.3578  1.9112 -0.4630
  407MOL0     H54928   0.333   7.383  10.864  0.4320 -1.1661  0.5712
  407MOL0     H54929   0.824   7.422  10.807  0.1090  2.0924  0.5084
  407MOL0     H54930   1.002   7.532  10.683 -1.9554  1.5849  3.3718
  407MOL0     H54931   2.371   7.150   9.733 -2.3294  2.2099  1.4981
  407MOL0     H54932   2.600   7.234   9.672  1.3115 -0.3301 -0.0770
  407MOL0     H54933   3.146   7.122   9.999 -3.2951  1.7669  1.7377
  407MOL0     H54934   3.371   7.243   9.982  0.1602 -0.9771 -0.7653
  407MOL0     H54935   3.574   7.480   9.947  3.9542 -0.6193 -1.2536
  407MOL0     H54936   3.548   7.314   9.930 -1.0214  0.4519  0.3042
  407MOL0     H54937   3.746   7.372   9.804  1.7897  0.7086 -1.5211
  407MOL0     H54938   3.656   7.509   9.727 -1.1158  0.8450  0.7466
  407MOL0     H54939   3.517   7.350   9.591  1.1727  3.8539  2.4217
  407MOL0     H54940   3.609   7.208   9.656  3.2043 -0.2700 -1.4415
  407MOL0     H54941   3.720   7.427   9.481  3.9863 -0.6324 -2.5435
  407MOL0     H54942   3.704   7.260   9.429  0.8842  1.0773 -0.4781
  407MOL0     H54943   4.031   7.192   9.665 -0.0909 -0.3073 -3.0138
  407MOL0     H54944   3.251   7.468   9.652  1.9811 -0.2411 -0.0411
  407MOL0     H54945   2.993   7.351   9.674 -0.6181  1.3254  0.3667
  408MOL0     O54946   7.615   6.466   3.881 -0.0328  0.3561  0.7158
  408MOL0     C54947   7.632   6.449   3.760 -0.4291 -0.8328 -0.9441
  408MOL0     O54948   7.568   6.365   3.680 -0.7221  0.0088 -0.3110
  408MOL0     C54949   7.470   6.276   3.723  0.1154 -0.0463  0.0539
  408MOL0     C54950   7.464   6.165   3.632 -0.0197 -0.2504  0.1029
  408MOL0     C54951   7.350   6.083   3.633 -0.0389  0.5395  1.3972
  408MOL0     C54952   7.251   6.086   3.735 -0.3781  0.5174 -0.2853
  408MOL0     O54953   7.153   5.989   3.724  0.1710  0.7482  0.0798
  408MOL0     C54954   7.034   5.999   3.805 -0.5214  0.4449 -0.4088
  408MOL0     C54955   6.938   6.115   3.778 -1.0947  0.7988 -0.4812
  408MOL0     C54956   6.796   6.100   3.845  0.2913  0.7512 -0.6939
  408MOL0     C54957   6.712   6.220   3.819 -0.2823 -0.3282 -0.3280
  408MOL0     C54958   6.734   6.318   3.934  0.1629 -0.4971 -0.1267
  408MOL0     C54959   6.639   6.442   3.921 -0.6941 -0.4493  0.9683
  408MOL0     C54960   6.716   6.571   3.962  0.7249  0.3980  1.2274
  408MOL0     C54961   6.811   6.616   3.849  0.3238 -0.3244  0.5092
  408MOL0     N54962   6.736   6.661   3.726 -0.7199 -0.2215 -0.5581
  408MOL0     C54963   6.770   6.657   3.594  0.1243 -0.8427  0.2001
  408MOL0     C54964   6.692   6.739   3.524 -0.5330 -0.2020  0.0401
  408MOL0     C54965   6.704   6.747   3.374  0.2939  0.4745 -0.2296
  408MOL0     C54966   6.747   6.887   3.335  0.0080  0.2660 -0.3799
  408MOL0     C54967   6.789   6.898   3.186 -0.4017 -0.8360 -0.0287
  408MOL0     C54968   6.916   6.806   3.148 -0.6264 -0.2544  0.0168
  408MOL0     O54969   6.892   6.668   3.129  0.2851 -0.1146 -0.7794
  408MOL0     C54970   6.984   6.591   3.075  0.0904 -0.2413  0.3766
  408MOL0     C54971   6.943   6.472   3.020  0.0630 -0.7809 -0.4260
  408MOL0     C54972   7.029   6.392   2.949  0.3932 -0.1513 -0.0199
  408MOL0     C54973   6.952   6.288   2.869 -0.2996 -0.4296  0.0137
  408MOL0     C54974   7.166   6.414   2.944 -0.7113  0.7094 -0.4669
  408MOL0     C54975   7.259   6.306   2.906 -0.4497 -1.3121  0.0380
  408MOL0     O54976   7.370   6.357   2.844 -0.6015  0.1339  0.2506
  408MOL0     C54977   7.463   6.262   2.797 -0.4813  0.0966  0.3743
  408MOL0     C54978   7.597   6.257   2.850 -0.5682 -0.6981 -0.2935
  408MOL0     C54979   7.696   6.178   2.773  0.8676 -0.0688 -0.4935
  408MOL0     C54980   7.648   6.099   2.661 -0.9960  0.1630  0.2341
  408MOL0     O54981   7.730   6.018   2.587  0.2190 -0.2283  0.5327
  408MOL0     C54982   7.869   6.037   2.586 -0.4848 -0.5834  0.1246
  408MOL0     C54983   7.912   5.988   2.437 -0.0096  0.2188  0.2299
  408MOL0     C54984   7.896   5.845   2.409  0.5922  0.9099 -0.0493
  408MOL0     C54985   7.914   5.815   2.258 -0.2530 -0.0366 -0.2677
  408MOL0     C54986   7.898   5.669   2.222  0.3060 -0.0425  0.1645
  408MOL0     C54987   7.896   5.639   2.073 -0.6809  0.8506  0.0821
  408MOL0     C54988   7.766   5.685   2.010  0.5644 -1.0271 -0.1717
  408MOL0     C54989   7.755   5.616   1.875 -0.0936  0.3124  0.1320
  408MOL0    Cl54990   7.588   5.633   1.809  0.0438 -0.2265 -0.3489
  408MOL0     C54991   7.511   6.103   2.626 -0.1933 -0.3838 -0.4706
  408MOL0     C54992   7.426   6.179   2.690 -0.2731 -0.1868  0.0492
  408MOL0     O54993   7.228   6.185   2.913 -0.0725  0.1660 -0.0473
  408MOL0     C54994   7.213   6.539   3.003  0.0328  0.0094 -0.5928
  408MOL0     C54995   7.122   6.629   3.051  0.1003  1.2041  0.6298
  408MOL0     N54996   6.619   6.810   3.615 -0.0679  0.8160 -0.6337
  408MOL0     N54997   6.636   6.756   3.737  0.0206  0.8649  0.2920
  408MOL0     C54998   7.269   6.189   3.830  0.4985 -0.4662 -0.0014
  408MOL0     C54999   7.380   6.283   3.826  1.2071  0.0625  0.4766
  408MOL0     C55000   7.743   6.526   3.707 -0.7118  0.8487  0.3600
  408MOL0     C55001   7.817   6.621   3.778  0.3260  0.5449 -0.7844
  408MOL0     C55002   7.923   6.686   3.715  0.3248  0.9695 -0.4997
  408MOL0     C55003   7.942   6.663   3.574  0.1461  0.0284 -0.7162
  408MOL0     O55004   8.027   6.743   3.512 -0.1732 -0.4637  0.3570
  408MOL0     C55005   8.108   6.682   3.408 -0.6722 -0.2117  0.0723
  408MOL0     C55006   8.259   6.654   3.448  0.0619  0.3794  1.2773
  408MOL0     C55007   8.279   6.533   3.548  0.1273 -0.6904 -0.3058
  408MOL0     C55008   8.425   6.503   3.579  0.0999  0.5642 -0.1638
  408MOL0     C55009   8.501   6.596   3.656  0.5245 -1.0029 -0.9097
  408MOL0     C55010   8.565   6.672   3.724  0.1286 -0.9060 -0.5464
  408MOL0     C55011   7.853   6.585   3.504 -0.5392 -0.0723 -0.1174
  408MOL0     C55012   7.767   6.500   3.570  0.0047 -0.4654 -0.1657
  408MOL0     H55013   7.536   6.166   3.550  2.2762 -2.9410  1.9149
  408MOL0     H55014   7.348   6.011   3.552  3.5114  2.3648 -0.5429
  408MOL0     H55015   6.980   5.905   3.797 -0.6367  0.2469  2.0147
  408MOL0     H55016   7.059   5.994   3.911 -1.2139 -2.8278 -0.2850
  408MOL0     H55017   6.993   6.205   3.809 -0.1175 -0.0205  0.2178
  408MOL0     H55018   6.925   6.115   3.669 -0.2788 -1.4572 -0.6340
  408MOL0     H55019   6.744   6.013   3.803  0.2157  0.9154 -0.9378
  408MOL0     H55020   6.820   6.086   3.951  0.7808  0.6468 -0.8145
  408MOL0     H55021   6.733   6.262   3.720 -0.3916 -0.2797 -0.3309
  408MOL0     H55022   6.611   6.179   3.814  0.7186 -3.1123  0.3002
  408MOL0     H55023   6.715   6.280   4.035 -1.9810  0.7071 -0.0197
  408MOL0     H55024   6.840   6.345   3.929  0.6173 -1.9115  0.9870
  408MOL0     H55025   6.606   6.451   3.817 -0.1745  0.4121  0.8728
  408MOL0     H55026   6.553   6.432   3.988 -0.1704  1.0394  1.8962
  408MOL0     H55027   6.642   6.647   3.991 -0.8033 -0.3993 -0.3790
  408MOL0     H55028   6.774   6.545   4.051 -0.6211 -3.6090  1.1269
  408MOL0     H55029   6.874   6.533   3.815 -2.7838 -2.0957 -1.3725
  408MOL0     H55030   6.874   6.697   3.886 -1.9729  1.0873  1.5517
  408MOL0     H55031   6.842   6.591   3.547  1.0424  0.9966 -1.1353
  408MOL0     H55032   6.775   6.677   3.329  0.1736 -0.8486  1.5541
  408MOL0     H55033   6.606   6.727   3.330  0.1378 -1.8600  1.0169
  408MOL0     H55034   6.826   6.914   3.407  0.2306 -0.7672 -0.2166
  408MOL0     H55035   6.664   6.957   3.347 -3.8926 -3.7736 -1.4770
  408MOL0     H55036   6.815   7.003   3.170 -2.2264 -0.3020  0.3217
  408MOL0     H55037   6.707   6.888   3.115 -0.2191  0.6181 -0.4930
  408MOL0     H55038   6.995   6.822   3.222 -1.0811  0.0070  0.4522
  408MOL0     H55039   6.964   6.843   3.057  1.2540  0.0194  1.0531
  408MOL0     H55040   6.837   6.453   3.030 -0.3729  0.6870 -1.7826
  408MOL0     H55041   6.848   6.305   2.899 -0.9506  0.3470 -2.4088
  408MOL0     H55042   6.966   6.291   2.760  4.0797 -1.4121  0.3959
  408MOL0     H55043   6.987   6.191   2.903  1.8235  0.5136  0.7112
  408MOL0     H55044   7.632   6.319   2.931 -2.0836 -0.2211  0.0351
  408MOL0     H55045   7.800   6.177   2.806  0.4094 -2.6558  1.1372
  408MOL0     H55046   7.906   6.140   2.595  0.3808 -0.8913  0.2127
  408MOL0     H55047   7.918   5.969   2.657 -2.2583 -1.0626  0.9288
  408MOL0     H55048   7.843   6.056   2.385 -0.7643  0.7338  1.8191
  408MOL0     H55049   8.006   6.032   2.402 -1.0457 -0.1191 -3.3546
  408MOL0     H55050   7.794   5.820   2.437  0.4775  1.1989 -0.2032
  408MOL0     H55051   7.967   5.787   2.468 -0.7012 -0.3296  0.3259
  408MOL0     H55052   7.848   5.875   2.196  2.3473 -1.0403 -4.3842
  408MOL0     H55053   8.016   5.837   2.225  1.2864 -3.6682  1.5041
  408MOL0     H55054   7.804   5.637   2.269  0.6077 -2.3576 -0.6396
  408MOL0     H55055   7.980   5.606   2.258 -1.0969 -3.6085 -2.1992
  408MOL0     H55056   7.988   5.679   2.030 -0.7891  1.1710  0.1473
  408MOL0     H55057   7.884   5.531   2.065  0.3383  0.8560 -3.7309
  408MOL0     H55058   7.781   5.793   2.005 -0.9382 -0.6280  2.2969
  408MOL0     H55059   7.673   5.666   2.065  0.2630  2.5905  0.8295
  408MOL0     H55060   7.769   5.508   1.890 -0.5713  0.4340  1.6550
  408MOL0     H55061   7.823   5.646   1.795  0.2634 -1.6952 -0.3753
  408MOL0     H55062   7.470   6.033   2.554 -0.1111 -0.4906 -0.4154
  408MOL0     H55063   7.321   6.173   2.661 -0.7684  1.1380  1.4225
  408MOL0     H55064   7.319   6.562   3.009 -0.0390  0.6239 -1.5000
  408MOL0     H55065   7.153   6.719   3.103  0.3819  2.0548 -0.9554
  408MOL0     H55066   7.197   6.184   3.911  0.6994 -0.5377  0.1754
  408MOL0     H55067   7.386   6.363   3.900 -0.8779  0.2197  0.5387
  408MOL0     H55068   7.811   6.626   3.887 -0.6529  0.2377 -0.8188
  408MOL0     H55069   7.989   6.748   3.775  0.7032  1.7615 -1.7005
  408MOL0     H55070   8.068   6.584   3.376 -0.1796 -0.5232  0.4090
  408MOL0     H55071   8.102   6.743   3.317 -0.2072 -0.8295 -0.3849
  408MOL0     H55072   8.287   6.755   3.479  0.5693  0.9160 -0.7833
  408MOL0     H55073   8.318   6.621   3.362 -2.4216  1.0729 -0.7731
  408MOL0     H55074   8.230   6.449   3.498 -3.8476  0.6263  0.9852
  408MOL0     H55075   8.220   6.555   3.638  1.1279  0.5835  0.0549
  408MOL0     H55076   8.482   6.472   3.491 -1.8451 -1.7364 -0.7261
  408MOL0     H55077   8.429   6.414   3.642 -1.5545  1.4325  1.2567
  408MOL0     H55078   8.623   6.747   3.774  1.8985 -1.8437 -1.0920
  408MOL0     H55079   7.862   6.557   3.399  0.1162  1.4753 -0.4924
  408MOL0     H55080   7.734   6.418   3.508  4.7165 -1.1771 -2.2108
  409MOL0     O55081   6.070   4.625   0.791 -0.4863  0.1258 -0.3882
  409MOL0     C55082   6.146   4.610   0.887  0.5222  0.3706  0.8633
  409MOL0     O55083   6.104   4.578   1.020 -0.2213 -0.3866 -0.1812
  409MOL0     C55084   5.974   4.558   1.050  0.6259  0.3528  0.2131
  409MOL0     C55085   5.873   4.625   0.993  0.8594  0.8157 -0.3175
  409MOL0     C55086   5.736   4.600   1.023 -0.4171 -0.5137 -0.2568
  409MOL0     C55087   5.693   4.502   1.114 -0.6539  0.2694  0.5337
  409MOL0     O55088   5.563   4.470   1.147 -0.1142  0.1091 -0.0232
  409MOL0     C55089   5.455   4.540   1.081  0.3121 -0.1495  0.4169
  409MOL0     C55090   5.316   4.505   1.142 -0.2170  0.6191  0.3199
  409MOL0     C55091   5.289   4.580   1.273 -0.7068  0.9281 -0.8638
  409MOL0     C55092   5.147   4.565   1.310 -1.1497 -0.3225 -1.4481
  409MOL0     C55093   5.105   4.654   1.431 -0.2702 -0.1203  0.2896
  409MOL0     C55094   5.160   4.625   1.567  0.6587  0.7190  0.2112
  409MOL0     C55095   5.077   4.680   1.685 -0.5348 -0.3903  0.1762
  409MOL0     C55096   5.118   4.650   1.831 -0.1609  0.5329  0.4994
  409MOL0     N55097   5.124   4.503   1.849 -1.0425 -0.2205  0.2328
  409MOL0     C55098   5.024   4.405   1.854  0.4748 -0.0672 -0.0905
  409MOL0     C55099   5.092   4.292   1.876 -0.2162  0.3822  0.0415
  409MOL0     C55100   5.024   4.150   1.888 -0.4789 -0.4784  0.9875
  409MOL0     C55101   5.024   4.097   2.037 -0.2654  0.5082 -0.1624
  409MOL0     C55102   4.899   4.010   2.055 -0.5032 -0.0881 -0.2067
  409MOL0     C55103   4.890   3.947   2.193  0.6373  0.4826 -0.0201
  409MOL0     O55104   4.777   3.856   2.174  0.1446 -0.1429 -1.1252
  409MOL0     C55105   4.752   3.755   2.266 -0.5296  0.1236  0.4372
  409MOL0     C55106   4.815   3.734   2.392  0.4622  0.0985  0.6003
  409MOL0     C55107   4.783   3.621   2.476  0.0678 -0.6109  0.4477
  409MOL0     C55108   4.875   3.590   2.598 -0.1930 -0.4722  0.5712
  409MOL0     C55109   4.663   3.558   2.454 -0.7646 -0.6875  0.8605
  409MOL0     C55110   4.595   3.470   2.549  0.6817 -0.4247  1.2175
  409MOL0     O55111   4.461   3.464   2.541 -0.2011  0.3822  0.0995
  409MOL0     C55112   4.379   3.382   2.613 -0.8542 -0.4803 -0.6858
  409MOL0     C55113   4.261   3.435   2.650  0.6743  0.1080  0.3671
  409MOL0     C55114   4.185   3.358   2.738 -0.8010  0.9344  0.0074
  409MOL0     C55115   4.226   3.230   2.786 -0.1532 -0.6032  0.2966
  409MOL0     O55116   4.161   3.150   2.879  0.4397  0.5794 -0.3018
  409MOL0     C55117   4.024   3.168   2.907  0.1752 -0.2556  0.1134
  409MOL0     C55118   3.930   3.126   2.794 -0.1287 -0.0134  0.2718
  409MOL0     C55119   3.921   2.974   2.794  0.2914  0.3470 -0.2702
  409MOL0     C55120   3.829   2.947   2.675 -0.3834 -0.4146  0.0041
  409MOL0     C55121   3.809   2.796   2.649 -0.3911  0.4077 -0.2486
  409MOL0     C55122   3.679   2.768   2.568  0.7328  0.4273  0.0891
  409MOL0     C55123   3.534   2.819   2.618 -0.2909 -0.3761  0.3132
  409MOL0     C55124   3.431   2.792   2.512  0.3444 -0.8004  0.2774
  409MOL0    Cl55125   3.455   2.870   2.346 -0.2278 -0.0147 -0.5521
  409MOL0     C55126   4.345   3.172   2.734 -1.1229 -0.1042  0.4333
  409MOL0     C55127   4.418   3.245   2.644 -0.5227 -0.0363 -0.3560
  409MOL0     O55128   4.661   3.408   2.631 -0.2083  0.6818 -0.1591
  409MOL0     C55129   4.599   3.583   2.333 -0.0230 -0.1812  0.0725
  409MOL0     C55130   4.643   3.679   2.239  0.7031  0.3377 -0.7806
  409MOL0     N55131   5.231   4.325   1.877 -0.5657  0.1532  0.7073
  409MOL0     N55132   5.247   4.450   1.869 -0.1010  0.1662  0.0319
  409MOL0     C55133   5.789   4.432   1.171  0.1580 -0.1535 -0.5562
  409MOL0     C55134   5.929   4.462   1.146 -0.0120  0.8667 -0.5812
  409MOL0     C55135   6.288   4.631   0.844 -0.6311 -0.0202  0.3112
  409MOL0     C55136   6.336   4.665   0.716  0.1787  0.1972  0.2763
  409MOL0     C55137   6.474   4.691   0.683 -0.3581  0.2828  0.2758
  409MOL0     C55138   6.572   4.665   0.774 -0.9001  0.2551 -0.1837
  409MOL0     O55139   6.706   4.694   0.739 -0.3759  0.7373  0.5481
  409MOL0     C55140   6.801   4.711   0.842  0.5211  0.2353 -0.1802
  409MOL0     C55141   6.941   4.742   0.797  0.0375  0.2166  0.3948
  409MOL0     C55142   7.000   4.624   0.721  0.4245 -0.2914  0.4074
  409MOL0     C55143   7.149   4.656   0.680  0.9282 -0.0747 -0.6451
  409MOL0     C55144   7.197   4.548   0.589 -0.3179 -0.5139 -0.6436
  409MOL0     C55145   7.235   4.458   0.515 -0.3012  0.7611 -0.6968
  409MOL0     C55146   6.526   4.633   0.909 -0.1414  0.4039  0.2388
  409MOL0     C55147   6.389   4.608   0.943  0.0228  0.6097 -0.3247
  409MOL0     H55148   5.887   4.699   0.915 -0.6884 -1.9276 -3.4719
  409MOL0     H55149   5.672   4.664   0.964 -0.0828 -1.4425 -1.6899
  409MOL0     H55150   5.464   4.649   1.080  0.1890 -0.1372  0.6705
  409MOL0     H55151   5.469   4.514   0.975 -1.0139  1.5149 -0.2132
  409MOL0     H55152   5.244   4.537   1.066  1.5468  0.8778 -1.3212
  409MOL0     H55153   5.314   4.396   1.135  1.4481  0.6769 -2.5306
  409MOL0     H55154   5.352   4.537   1.351 -0.1801  2.6433 -0.2979
  409MOL0     H55155   5.313   4.686   1.262 -1.1372  1.4674  2.3709
  409MOL0     H55156   5.084   4.594   1.226 -0.1853  0.9326 -1.7754
  409MOL0     H55157   5.123   4.462   1.335  1.2147 -0.5708  0.1462
  409MOL0     H55158   5.135   4.756   1.404 -0.9377 -0.6098 -2.7184
  409MOL0     H55159   4.997   4.667   1.435 -0.6116  1.5496 -5.3729
  409MOL0     H55160   5.148   4.518   1.586  2.0978  0.6552  0.9020
  409MOL0     H55161   5.259   4.668   1.584  1.4064 -1.0558  0.5189
  409MOL0     H55162   5.070   4.787   1.667  1.4775 -0.4476 -1.3662
  409MOL0     H55163   4.983   4.630   1.659  0.0959 -0.2244 -2.7343
  409MOL0     H55164   5.058   4.702   1.906 -0.0360 -2.2892  2.6728
  409MOL0     H55165   5.212   4.703   1.851  0.8032 -0.3658 -1.3390
  409MOL0     H55166   4.917   4.417   1.841  0.3632  0.3379  1.0969
  409MOL0     H55167   4.919   4.162   1.861 -1.1911 -3.9019  1.7181
  409MOL0     H55168   5.073   4.089   1.812  2.2669  2.4244  0.2427
  409MOL0     H55169   5.035   4.175   2.113  1.7974  0.6095 -0.5079
  409MOL0     H55170   5.093   4.013   2.037  0.4993  1.0786  1.8995
  409MOL0     H55171   4.901   3.938   1.973 -3.2085  0.2556 -0.6687
  409MOL0     H55172   4.806   4.062   2.030  1.0296  2.4942 -0.9285
  409MOL0     H55173   4.881   4.018   2.275  1.7673  1.3948 -0.6620
  409MOL0     H55174   4.984   3.895   2.212  0.2569  0.3158  1.4841
  409MOL0     H55175   4.906   3.791   2.405  0.4966  0.2941 -0.4233
  409MOL0     H55176   4.969   3.645   2.601  0.1528 -0.9426 -0.9542
  409MOL0     H55177   4.821   3.626   2.687 -0.2642  2.8959 -0.6768
  409MOL0     H55178   4.903   3.485   2.602 -0.3764 -0.4974  3.1137
  409MOL0     H55179   4.228   3.532   2.614 -0.4452 -0.1251  0.7375
  409MOL0     H55180   4.089   3.402   2.765  0.4133  3.6491  0.2047
  409MOL0     H55181   4.001   3.121   3.003  1.7010  2.7601  2.1095
  409MOL0     H55182   4.007   3.274   2.928  1.7147  0.6355 -2.6111
  409MOL0     H55183   3.827   3.160   2.811  1.0387  2.5339  3.0814
  409MOL0     H55184   3.969   3.162   2.698 -0.3733  1.2597  0.6296
  409MOL0     H55185   3.876   2.942   2.888 -1.0400  1.7596 -0.3820
  409MOL0     H55186   4.015   2.919   2.779 -1.1902 -1.9357 -1.8497
  409MOL0     H55187   3.726   2.975   2.696 -1.7553 -2.2181 -3.5117
  409MOL0     H55188   3.858   2.997   2.582  0.7521 -0.2894  0.4071
  409MOL0     H55189   3.782   2.749   2.744 -1.0500 -0.8867 -1.0471
  409MOL0     H55190   3.887   2.735   2.603 -2.1369 -2.6090  0.5473
  409MOL0     H55191   3.692   2.807   2.466 -1.3227 -0.4157 -0.5482
  409MOL0     H55192   3.671   2.659   2.567  0.5000  0.4418 -1.0916
  409MOL0     H55193   3.535   2.926   2.638 -1.8716  0.6694 -4.0906
  409MOL0     H55194   3.518   2.772   2.716 -0.4646  0.7299  0.8290
  409MOL0     H55195   3.334   2.828   2.547 -1.9724 -1.9517 -4.2397
  409MOL0     H55196   3.410   2.691   2.476 -1.5357 -0.1725 -0.4684
  409MOL0     H55197   4.378   3.078   2.776  0.4164  1.8251  3.9467
  409MOL0     H55198   4.510   3.206   2.602 -1.2104 -1.3820 -0.6647
  409MOL0     H55199   4.504   3.536   2.311 -0.8072  1.0625  0.6996
  409MOL0     H55200   4.590   3.701   2.147 -0.7687  0.1472 -0.0179
  409MOL0     H55201   5.761   4.356   1.242 -1.6354  1.8666  1.0438
  409MOL0     H55202   5.994   4.402   1.209 -1.3103 -0.4555 -0.4276
  409MOL0     H55203   6.270   4.661   0.629 -1.2738  2.4948  1.1905
  409MOL0     H55204   6.480   4.720   0.578  2.3639  1.3749  0.6734
  409MOL0     H55205   6.766   4.793   0.904  2.4882  2.4005 -1.7703
  409MOL0     H55206   6.809   4.627   0.912 -0.9116  0.6726  0.5457
  409MOL0     H55207   7.004   4.765   0.883 -0.8801 -2.4733  1.9020
  409MOL0     H55208   6.933   4.823   0.724  0.4528 -2.4864 -2.8980
  409MOL0     H55209   6.948   4.600   0.627 -0.0180  3.0357 -0.3169
  409MOL0     H55210   7.002   4.540   0.791 -4.9572  0.1891  1.5164
  409MOL0     H55211   7.217   4.651   0.765  1.4683  1.0030 -1.0064
  409MOL0     H55212   7.140   4.757   0.640 -0.8938  0.4589  0.9339
  409MOL0     H55213   7.252   4.375   0.450 -2.7564  1.9343 -3.0321
  409MOL0     H55214   6.607   4.620   0.981  3.3473 -0.0813 -3.4062
  409MOL0     H55215   6.354   4.577   1.041 -1.8783  1.7158 -0.6104
  410MOL0     O55216   3.129   8.459   4.280  0.3757 -0.0745  0.2809
  410MOL0     C55217   3.064   8.552   4.224  0.0559  0.0714 -0.1020
  410MOL0     O55218   3.118   8.663   4.167  0.1273 -0.3688  0.0908
  410MOL0     C55219   3.253   8.695   4.196 -0.2758 -0.3218  0.2402
  410MOL0     C55220   3.360   8.605   4.169  0.3733  0.4248 -0.2133
  410MOL0     C55221   3.492   8.638   4.202 -0.3507  1.2544  0.2637
  410MOL0     C55222   3.532   8.772   4.236 -0.0288  0.0473 -0.1322
  410MOL0     O55223   3.663   8.818   4.261  0.1363  0.5341  0.0701
  410MOL0     C55224   3.725   8.725   4.360 -0.2893  0.2533  0.5564
  410MOL0     C55225   3.851   8.666   4.302  0.4989 -0.4891  0.0780
  410MOL0     C55226   3.849   8.515   4.316  0.4529  0.2846  0.7724
  410MOL0     C55227   3.932   8.445   4.209 -0.7093 -0.2763 -0.7707
  410MOL0     C55228   3.906   8.295   4.229 -0.2667  1.3154 -0.4260
  410MOL0     C55229   3.933   8.225   4.101  0.1434  0.1404  0.8072
  410MOL0     C55230   3.937   8.073   4.109 -0.3063 -0.0985 -0.2454
  410MOL0     C55231   4.001   7.995   3.998 -0.1879  0.9762 -0.2278
  410MOL0     N55232   4.145   7.985   4.019  0.3005 -0.6068 -0.0750
  410MOL0     C55233   4.213   7.865   4.017  0.7588 -0.0612 -0.7655
  410MOL0     C55234   4.340   7.910   3.989 -0.5738 -0.8022  1.2153
  410MOL0     C55235   4.457   7.830   3.986 -0.3035 -1.2597  0.3074
  410MOL0     C55236   4.572   7.911   4.004 -0.0047  0.1521  0.0016
  410MOL0     C55237   4.683   7.810   4.019 -0.6807 -0.5243 -0.0736
  410MOL0     C55238   4.818   7.892   4.023  0.4604 -0.5510 -0.0404
  410MOL0     O55239   4.911   7.780   4.010 -0.2059 -0.0059  0.7364
  410MOL0     C55240   5.039   7.796   4.041  0.1656  0.8726  0.4019
  410MOL0     C55241   5.117   7.684   4.072 -0.5591 -0.4288  0.3033
  410MOL0     C55242   5.256   7.686   4.096  0.2927  0.2743  0.2992
  410MOL0     C55243   5.318   7.552   4.135 -0.5031 -0.4435  0.1900
  410MOL0     C55244   5.317   7.808   4.105 -0.5568 -0.2172 -0.2690
  410MOL0     C55245   5.464   7.820   4.122 -0.4427  0.3589 -0.4209
  410MOL0     O55246   5.525   7.915   4.060 -0.0499  0.3565  0.2484
  410MOL0     C55247   5.648   7.909   4.003 -1.0969 -0.1713 -0.0384
  410MOL0     C55248   5.740   7.809   4.020  0.0814  0.7831  0.5532
  410MOL0     C55249   5.873   7.816   3.982  0.1269  0.6685  0.3870
  410MOL0     C55250   5.925   7.930   3.903  0.2565 -0.6205 -1.2110
  410MOL0     O55251   6.061   7.935   3.876  0.0721  0.1986 -0.3350
  410MOL0     C55252   6.118   8.058   3.845 -0.5927 -0.7463  0.9291
  410MOL0     C55253   6.266   8.026   3.808  0.0018  0.5239 -0.0098
  410MOL0     C55254   6.346   8.155   3.785  0.0723 -0.0707 -0.3496
  410MOL0     C55255   6.344   8.215   3.638  0.1460 -0.5398  0.0351
  410MOL0     C55256   6.438   8.334   3.622 -0.6790 -0.1877  0.5067
  410MOL0     C55257   6.430   8.397   3.480 -0.0297  0.4534 -0.0751
  410MOL0     C55258   6.500   8.524   3.453 -0.4913 -0.8078  0.3502
  410MOL0     C55259   6.646   8.530   3.495 -0.0786 -0.4517  0.2592
  410MOL0    Cl55260   6.663   8.562   3.664  0.2613  0.7994  0.5309
  410MOL0     C55261   5.823   8.027   3.885 -0.2723 -0.1895 -1.5608
  410MOL0     C55262   5.689   8.020   3.934  0.5492  0.4091 -0.7351
  410MOL0     O55263   5.521   7.744   4.207 -0.0645  0.0039 -0.5486
  410MOL0     C55264   5.246   7.921   4.089 -0.0767  0.4360  0.4531
  410MOL0     C55265   5.104   7.922   4.050 -1.3999  0.1119  0.6437
  410MOL0     N55266   4.344   8.054   4.000 -0.4993 -0.0852 -0.6637
  410MOL0     N55267   4.231   8.088   4.025 -0.4440  0.2346  1.0406
  410MOL0     C55268   3.428   8.864   4.248  0.2432 -0.0875 -0.3635
  410MOL0     C55269   3.293   8.826   4.233  0.6533  0.3335  0.3321
  410MOL0     C55270   2.916   8.543   4.228  0.2024 -0.7877 -0.2146
  410MOL0     C55271   2.837   8.445   4.288  0.5331  0.4241 -1.1885
  410MOL0     C55272   2.697   8.443   4.289 -0.2996 -0.5811  0.0489
  410MOL0     C55273   2.628   8.552   4.239 -0.5638  0.4360 -0.0798
  410MOL0     O55274   2.495   8.548   4.253 -0.4947 -0.0616  0.0304
  410MOL0     C55275   2.419   8.669   4.271 -0.0765 -0.0664  0.0484
  410MOL0     C55276   2.292   8.632   4.350  0.1455  0.2069  0.4962
  410MOL0     C55277   2.171   8.725   4.305 -0.4388 -0.8964  0.1243
  410MOL0     C55278   2.033   8.694   4.368 -0.9177 -0.2353 -0.6737
  410MOL0     C55279   2.037   8.653   4.511  0.0514  0.2444  0.7354
  410MOL0     C55280   2.022   8.624   4.631 -0.2538  0.2951 -0.3733
  410MOL0     C55281   2.699   8.646   4.161  0.0671 -0.6464 -0.5370
  410MOL0     C55282   2.842   8.635   4.158  0.5284  0.0167  0.0501
  410MOL0     H55283   3.343   8.502   4.140  1.4677  0.5519 -1.3948
  410MOL0     H55284   3.565   8.557   4.200 -0.7096  0.9187  0.7130
  410MOL0     H55285   3.746   8.775   4.455 -2.5517  2.1775  0.1505
  410MOL0     H55286   3.665   8.642   4.397  0.5042  0.2402  1.8698
  410MOL0     H55287   3.861   8.704   4.200 -1.1327  3.6100  1.2353
  410MOL0     H55288   3.936   8.713   4.353  1.3648  0.9839 -2.5430
  410MOL0     H55289   3.893   8.502   4.415  1.7363  0.7278  0.2761
  410MOL0     H55290   3.746   8.480   4.306  0.1854  1.6171 -2.0596
  410MOL0     H55291   3.899   8.478   4.110 -1.0559  2.0326  0.0461
  410MOL0     H55292   4.039   8.469   4.213 -0.2858 -1.9486  3.5213
  410MOL0     H55293   3.966   8.257   4.313 -2.1244  2.6281  1.6264
  410MOL0     H55294   3.802   8.271   4.255  0.2587 -0.5358  0.0735
  410MOL0     H55295   3.858   8.263   4.030  2.2790  2.8982 -0.1652
  410MOL0     H55296   4.033   8.261   4.074  0.8402 -2.5437 -0.4406
  410MOL0     H55297   3.988   8.043   4.201  0.2501 -1.3749 -0.9353
  410MOL0     H55298   3.833   8.040   4.120  0.0693 -1.1884  0.2457
  410MOL0     H55299   3.973   8.043   3.904 -1.4218  2.5729  0.8846
  410MOL0     H55300   3.955   7.896   3.996  1.8735 -0.0394  0.4537
  410MOL0     H55301   4.187   7.760   4.025  0.9773  0.0096  1.4121
  410MOL0     H55302   4.450   7.753   4.063  0.9299  1.3301  3.2016
  410MOL0     H55303   4.477   7.784   3.888  0.7852  0.3564 -0.2826
  410MOL0     H55304   4.567   7.978   4.091  1.5745  0.0300  0.2132
  410MOL0     H55305   4.588   7.962   3.909  3.7219 -3.2424 -1.4372
  410MOL0     H55306   4.688   7.747   3.930  0.8629  1.0789 -1.1943
  410MOL0     H55307   4.687   7.757   4.115  2.6682  2.3616  1.6317
  410MOL0     H55308   4.831   7.959   4.109 -3.5056  2.9150 -1.7983
  410MOL0     H55309   4.823   7.956   3.935  3.9216  1.1757  1.2122
  410MOL0     H55310   5.062   7.590   4.075  1.3871 -1.6190  1.1702
  410MOL0     H55311   5.410   7.527   4.081 -1.7716 -3.1616 -0.8668
  410MOL0     H55312   5.350   7.548   4.239  2.3122 -0.2408 -0.5817
  410MOL0     H55313   5.249   7.469   4.119 -0.2702 -0.6640  0.3273
  410MOL0     H55314   5.721   7.728   4.089 -1.8935 -0.1481 -0.9772
  410MOL0     H55315   5.948   7.757   4.034  0.0180  0.9508  0.8654
  410MOL0     H55316   6.072   8.101   3.755  3.0525 -0.4155 -0.9629
  410MOL0     H55317   6.099   8.118   3.934  0.1432 -1.5776  1.6635
  410MOL0     H55318   6.313   7.970   3.890 -0.9550  2.0505  1.6287
  410MOL0     H55319   6.263   7.972   3.712 -1.6887  0.1311  0.2294
  410MOL0     H55320   6.451   8.127   3.797  0.5332  1.6162 -0.2958
  410MOL0     H55321   6.329   8.232   3.860  3.2667 -0.8563  1.3654
  410MOL0     H55322   6.373   8.134   3.570 -3.5341 -1.0075 -1.2079
  410MOL0     H55323   6.243   8.246   3.611  1.6073  3.3242 -1.6904
  410MOL0     H55324   6.540   8.299   3.639 -0.6128  0.4958  1.6011
  410MOL0     H55325   6.410   8.405   3.700  0.3193 -0.5329  1.1989
  410MOL0     H55326   6.469   8.323   3.410 -0.9228 -0.0493 -0.0505
  410MOL0     H55327   6.326   8.424   3.458 -0.1040  0.1948 -0.0528
  410MOL0     H55328   6.443   8.595   3.514 -1.6575 -1.2291 -0.2107
  410MOL0     H55329   6.479   8.558   3.351 -3.1819 -1.7200  0.5122
  410MOL0     H55330   6.688   8.625   3.459 -0.4861 -0.3518  0.0414
  410MOL0     H55331   6.714   8.451   3.461 -0.4768 -0.3836 -0.7256
  410MOL0     H55332   5.848   8.119   3.833 -1.1108  0.4955 -0.7900
  410MOL0     H55333   5.620   8.104   3.928 -0.3208 -0.1113  1.1636
  410MOL0     H55334   5.284   8.021   4.105  0.5747  0.0662  1.2772
  410MOL0     H55335   5.053   8.016   4.032  0.4660  1.0294 -0.1880
  410MOL0     H55336   3.443   8.970   4.266  0.3274  0.4241 -3.1141
  410MOL0     H55337   3.219   8.906   4.226 -0.3778 -0.6855 -1.1856
  410MOL0     H55338   2.888   8.368   4.344  0.4014  0.5533 -0.8879
  410MOL0     H55339   2.636   8.366   4.333  1.3328 -1.7592  0.3650
  410MOL0     H55340   2.477   8.744   4.324 -2.5058 -0.5231  3.6953
  410MOL0     H55341   2.392   8.723   4.179  1.2008  0.9312  0.2318
  410MOL0     H55342   2.323   8.639   4.455  0.2461  2.5036  0.3670
  410MOL0     H55343   2.269   8.525   4.346  4.0211 -0.7801  0.2829
  410MOL0     H55344   2.153   8.728   4.197 -2.6612  2.7116  0.4306
  410MOL0     H55345   2.187   8.828   4.336 -1.4647 -0.8730  0.6213
  410MOL0     H55346   1.987   8.622   4.299 -0.1611  0.5512 -2.0539
  410MOL0     H55347   1.981   8.790   4.370  0.4976  0.6211  3.4892
  410MOL0     H55348   2.024   8.617   4.738  0.9037  2.8084 -0.1549
  410MOL0     H55349   2.660   8.728   4.101 -1.5608 -2.1481 -1.5971
  410MOL0     H55350   2.885   8.717   4.102  1.5963  0.5955  1.6769
  411MOL0     O55351   5.497   9.842   6.244 -0.4685  0.8738  0.6294
  411MOL0     C55352   5.593   9.778   6.279  0.2881 -0.0723 -0.5704
  411MOL0     O55353   5.623   9.647   6.239  0.0023  0.2171  0.2262
  411MOL0     C55354   5.541   9.573   6.156 -0.9293 -0.0682 -0.4371
  411MOL0     C55355   5.593   9.445   6.122  0.4093 -0.3497 -0.7791
  411MOL0     C55356   5.520   9.356   6.054  0.1330  0.1645 -0.3552
  411MOL0     C55357   5.399   9.385   6.002 -0.5237  0.1994 -0.0231
  411MOL0     O55358   5.331   9.297   5.922 -0.6941  0.3301 -0.1449
  411MOL0     C55359   5.201   9.260   5.964  0.3563  0.0225  0.2971
  411MOL0     C55360   5.138   9.144   5.887  0.2042  0.6010 -0.1205
  411MOL0     C55361   4.986   9.149   5.897  0.6642 -0.1904 -0.0718
  411MOL0     C55362   4.913   9.048   5.803 -0.6140  0.4445 -0.0436
  411MOL0     C55363   4.765   9.064   5.801 -0.0573 -0.3175  0.0185
  411MOL0     C55364   4.699   9.009   5.932  0.5417  0.4611  0.6866
  411MOL0     C55365   4.589   8.915   5.885 -0.2111  1.2816 -0.1860
  411MOL0     C55366   4.652   8.779   5.876 -0.1097 -0.7260  0.3456
  411MOL0     N55367   4.551   8.681   5.840 -0.0571 -0.0821  0.5508
  411MOL0     C55368   4.490   8.585   5.914  0.6941 -0.2705 -0.3772
  411MOL0     C55369   4.406   8.529   5.831 -0.1898  0.9745  0.4900
  411MOL0     C55370   4.310   8.418   5.848  0.1177  0.7590 -0.6570
  411MOL0     C55371   4.178   8.456   5.921 -0.0080 -0.5203  0.9578
  411MOL0     C55372   4.096   8.571   5.852  0.5649  0.4304  0.1145
  411MOL0     C55373   4.142   8.712   5.883  0.0030  0.4743  0.1374
  411MOL0     O55374   4.151   8.751   6.020  0.6531 -0.1424  0.0654
  411MOL0     C55375   4.052   8.823   6.083  0.1757 -0.4268 -0.8516
  411MOL0     C55376   4.084   8.877   6.206 -0.8392  0.3246  0.2486
  411MOL0     C55377   3.990   8.949   6.286 -1.7821 -0.9143 -0.1638
  411MOL0     C55378   4.041   9.004   6.425  0.0917  0.2466 -0.1690
  411MOL0     C55379   3.863   8.991   6.229 -0.3542 -0.2084  1.4425
  411MOL0     C55380   3.756   9.079   6.293 -0.6802  0.5070  1.5299
  411MOL0     O55381   3.775   9.119   6.423 -0.0279 -0.5796  0.3638
  411MOL0     C55382   3.682   9.203   6.473 -0.4034  0.3140 -0.6597
  411MOL0     C55383   3.559   9.148   6.518  0.8679  0.0853 -0.4382
  411MOL0     C55384   3.465   9.224   6.581  0.6763  0.0085 -0.6333
  411MOL0     C55385   3.496   9.360   6.610 -0.5893  0.1468  0.2191
  411MOL0     O55386   3.409   9.454   6.668 -0.5672  0.0428 -0.0883
  411MOL0     C55387   3.319   9.415   6.774 -0.5937  1.1788  0.5467
  411MOL0     C55388   3.223   9.531   6.787  1.2140  0.2234 -0.9322
  411MOL0     C55389   3.125   9.500   6.899 -0.0938 -1.0103 -0.1542
  411MOL0     C55390   2.997   9.579   6.892  0.9446  0.4658 -0.0707
  411MOL0     C55391   2.926   9.570   7.028 -0.1156  0.4054  0.1778
  411MOL0     C55392   2.785   9.628   7.021  0.3497 -0.3196  0.0130
  411MOL0     C55393   2.699   9.582   7.146 -0.0684  0.4564  0.4088
  411MOL0     C55394   2.570   9.662   7.126  0.6317 -0.3730  0.3696
  411MOL0    Cl55395   2.470   9.609   6.985 -0.0764  0.1372  0.0688
  411MOL0     C55396   3.609   9.421   6.561 -0.3180  0.2484  0.5682
  411MOL0     C55397   3.706   9.335   6.497 -0.0800 -0.9780 -0.1458
  411MOL0     O55398   3.656   9.099   6.224 -0.3301 -1.5705  0.2194
  411MOL0     C55399   3.836   8.927   6.108 -0.4673 -0.0502 -0.6366
  411MOL0     C55400   3.926   8.840   6.031  0.7018 -1.0867 -0.2798
  411MOL0     N55401   4.413   8.594   5.712  0.3551 -0.1000  0.4538
  411MOL0     N55402   4.509   8.676   5.710  0.3792 -0.3965 -0.1729
  411MOL0     C55403   5.350   9.507   6.028  0.0571  0.7361  0.4866
  411MOL0     C55404   5.415   9.601   6.102 -0.3660  0.7440  0.9030
  411MOL0     C55405   5.687   9.854   6.367  0.4715  0.0097  0.0458
  411MOL0     C55406   5.812   9.802   6.397  0.1370  0.4505 -0.2744
  411MOL0     C55407   5.898   9.881   6.475  0.4050 -0.3918 -0.9691
  411MOL0     C55408   5.871  10.013   6.513 -0.2809 -0.2809  0.5937
  411MOL0     O55409   5.957  10.094   6.577 -0.0340 -1.0506  0.2013
  411MOL0     C55410   6.085  10.047   6.631 -0.1314 -0.6495 -0.6127
  411MOL0     C55411   6.185  10.154   6.680  0.3783 -0.5595 -0.0770
  411MOL0     C55412   6.227  10.259   6.580  0.0868  0.2362 -0.7647
  411MOL0     C55413   6.375  10.265   6.524  0.2528  0.6560  0.6221
  411MOL0     C55414   6.365  10.346   6.401 -0.4919  1.0797  0.5873
  411MOL0     C55415   6.364  10.412   6.300  0.0311  0.2945  0.6488
  411MOL0     C55416   5.748  10.063   6.477 -0.6166 -0.6129  0.3035
  411MOL0     C55417   5.661   9.981   6.410  0.8260  0.1823  0.3761
  411MOL0     H55418   5.693   9.418   6.154  0.9003  0.7894 -1.2660
  411MOL0     H55419   5.572   9.266   6.020  4.3185  1.7462  1.1538
  411MOL0     H55420   5.211   9.234   6.069  1.0233  1.8623  0.7283
  411MOL0     H55421   5.138   9.349   5.979 -0.1450 -0.0591 -1.1386
  411MOL0     H55422   5.163   9.145   5.781 -0.1455 -2.5550 -0.3268
  411MOL0     H55423   5.173   9.048   5.927 -2.5481 -0.9646 -1.1974
  411MOL0     H55424   4.951   9.122   5.997  0.2532 -0.1927 -0.2143
  411MOL0     H55425   4.938   9.245   5.876 -2.1805 -1.3418  0.5879
  411MOL0     H55426   4.953   9.042   5.702  1.9929 -2.8175  0.9834
  411MOL0     H55427   4.941   8.947   5.835  0.7553 -0.1613 -2.8117
  411MOL0     H55428   4.743   9.171   5.791  0.4086 -0.2211 -0.0140
  411MOL0     H55429   4.715   9.022   5.714  0.6219  1.0306 -1.0679
  411MOL0     H55430   4.767   8.967   6.006 -1.2758 -1.3041  1.4651
  411MOL0     H55431   4.640   9.093   5.971  0.3691  1.5520 -1.7278
  411MOL0     H55432   4.510   8.907   5.961  0.0088 -2.1454 -0.1392
  411MOL0     H55433   4.547   8.947   5.790  1.3761  1.5697 -0.8247
  411MOL0     H55434   4.699   8.749   5.970  2.0363 -1.3017 -0.8541
  411MOL0     H55435   4.733   8.785   5.803  0.4128  0.9718  1.0338
  411MOL0     H55436   4.494   8.569   6.021  1.0753  2.3158  0.0725
  411MOL0     H55437   4.293   8.374   5.750  1.5067 -0.4630 -0.3665
  411MOL0     H55438   4.367   8.352   5.913  1.3432  3.1638  0.8795
  411MOL0     H55439   4.202   8.475   6.026  2.6234  2.0005  0.0475
  411MOL0     H55440   4.118   8.364   5.921 -1.8207  0.5773  2.5845
  411MOL0     H55441   4.000   8.572   5.905  1.9924  2.8973  3.0085
  411MOL0     H55442   4.079   8.556   5.745  0.5152 -2.1751  0.4232
  411MOL0     H55443   4.076   8.788   5.840  1.5680  1.5801 -0.4163
  411MOL0     H55444   4.236   8.736   5.832 -0.8319 -0.0198 -1.7247
  411MOL0     H55445   4.184   8.860   6.244 -1.3813  1.2728  2.2433
  411MOL0     H55446   4.052   9.112   6.423  4.0101  0.0595  2.3576
  411MOL0     H55447   3.968   8.976   6.502  0.5213 -0.3211  0.0348
  411MOL0     H55448   4.130   8.957   6.467  0.1137  0.7860  0.3841
  411MOL0     H55449   3.545   9.042   6.502  1.6557 -0.7525  3.3579
  411MOL0     H55450   3.366   9.182   6.594  1.3909 -1.5812 -0.0551
  411MOL0     H55451   3.266   9.323   6.750  0.8241  0.0260  1.6023
  411MOL0     H55452   3.356   9.406   6.877 -1.3195 -1.3228  0.6632
  411MOL0     H55453   3.256   9.632   6.811 -1.3375  1.3981 -2.0609
  411MOL0     H55454   3.166   9.531   6.693  0.6614 -2.6977 -0.6942
  411MOL0     H55455   3.176   9.528   6.992 -1.0431  0.6840 -0.0998
  411MOL0     H55456   3.104   9.393   6.907  0.7791 -1.0856  1.5243
  411MOL0     H55457   3.012   9.683   6.860  1.6988  1.0573  2.0185
  411MOL0     H55458   2.934   9.533   6.815 -2.9073  3.8436  0.6927
  411MOL0     H55459   2.972   9.625   7.110  1.7180  2.0559 -1.8370
  411MOL0     H55460   2.920   9.465   7.058  0.1318  0.8786  1.9765
  411MOL0     H55461   2.800   9.736   7.028 -0.9165  0.1132 -2.6011
  411MOL0     H55462   2.734   9.595   6.930 -3.7831 -0.7398  2.2198
  411MOL0     H55463   2.742   9.600   7.245 -0.8882  1.3823  0.6124
  411MOL0     H55464   2.691   9.473   7.134 -0.1983  0.7193 -2.6558
  411MOL0     H55465   2.597   9.768   7.124 -3.0030  0.7095 -0.9184
  411MOL0     H55466   2.510   9.653   7.217  2.4904 -0.4036  1.6340
  411MOL0     H55467   3.618   9.527   6.583 -0.2836  0.4081 -0.1799
  411MOL0     H55468   3.803   9.371   6.464  0.0496 -0.7442  0.4792
  411MOL0     H55469   3.739   8.955   6.067 -0.7743  1.4873  1.0156
  411MOL0     H55470   3.893   8.789   5.940  1.4971  1.7481 -2.3038
  411MOL0     H55471   5.252   9.531   5.987  0.9387 -1.1392 -3.0745
  411MOL0     H55472   5.363   9.692   6.128  1.0066  1.0159  2.9079
  411MOL0     H55473   5.841   9.703   6.362 -0.4685 -0.1797  0.9355
  411MOL0     H55474   5.992   9.836   6.505 -0.6019 -1.9534  0.0410
  411MOL0     H55475   6.059   9.984   6.717  2.8128 -0.0664  0.8409
  411MOL0     H55476   6.140   9.997   6.551 -1.4155 -3.5975  0.2051
  411MOL0     H55477   6.275  10.106   6.719  0.2550 -0.3419  0.4858
  411MOL0     H55478   6.129  10.203   6.760  0.3844 -1.6823  0.6328
  411MOL0     H55479   6.216  10.358   6.625 -1.0655  0.0876 -0.6778
  411MOL0     H55480   6.155  10.265   6.498  0.6065  1.0798 -1.1676
  411MOL0     H55481   6.415  10.168   6.491 -1.0592  0.0235  0.8308
  411MOL0     H55482   6.444  10.310   6.596  0.6614  0.0705  0.6085
  411MOL0     H55483   6.342  10.469   6.212 -1.1476 -1.1835 -0.0598
  411MOL0     H55484   5.707  10.163   6.492 -1.7747 -1.4182  3.3347
  411MOL0     H55485   5.574  10.031   6.369 -1.0744 -1.8673  1.7107
  412MOL0     O55486   4.103   9.947   6.483 -0.5209  0.3250  0.3597
  412MOL0     C55487   4.185  10.021   6.549 -0.1226 -0.7431  0.6659
  412MOL0     O55488   4.159  10.103   6.654  0.1149  1.5912 -0.1992
  412MOL0     C55489   4.038  10.109   6.698  0.4116  0.3326  0.4505
  412MOL0     C55490   3.929  10.159   6.634  0.5332 -0.1512 -0.3986
  412MOL0     C55491   3.810  10.176   6.705 -0.5290  0.7920 -0.1154
  412MOL0     C55492   3.789  10.147   6.836  0.5606  0.7220 -0.1023
  412MOL0     O55493   3.663  10.159   6.890  0.4265 -0.0318 -0.2985
  412MOL0     C55494   3.666  10.199   7.025 -0.0198 -0.3891  0.5054
  412MOL0     C55495   3.523  10.252   7.062 -0.0871  0.0316 -1.1461
  412MOL0     C55496   3.520  10.286   7.206  0.4250 -0.5626  0.0288
  412MOL0     C55497   3.379  10.295   7.250 -0.2484 -0.9144  0.5907
  412MOL0     C55498   3.386  10.353   7.394 -0.0335 -0.4464 -0.0789
  412MOL0     C55499   3.244  10.335   7.459 -0.5810  0.7106 -1.3320
  412MOL0     C55500   3.243  10.366   7.621 -0.5977  0.0963  1.0174
  412MOL0     C55501   3.095  10.381   7.684  0.3789 -0.0491 -0.6151
  412MOL0     N55502   3.033  10.509   7.646 -0.2626 -1.1420 -0.6942
  412MOL0     C55503   3.070  10.627   7.689  0.0961 -0.8142  0.5634
  412MOL0     C55504   3.030  10.713   7.594  1.0282  0.6532  1.1937
  412MOL0     C55505   3.023  10.861   7.587  0.7917 -0.3624 -0.4170
  412MOL0     C55506   2.891  10.911   7.657  0.8846  0.3413  0.2598
  412MOL0     C55507   2.912  11.003   7.781 -0.0018 -0.5634  0.1088
  412MOL0     C55508   2.996  10.942   7.893 -0.4102  0.0772 -1.1041
  412MOL0     O55509   2.947  11.001   8.010 -1.0056 -0.1561 -0.4274
  412MOL0     C55510   3.019  11.096   8.072 -0.1724  0.8812  0.2546
  412MOL0     C55511   3.000  11.106   8.216 -1.0611 -0.2562  0.1828
  412MOL0     C55512   3.064  11.199   8.294  0.6425  0.2757 -0.6820
  412MOL0     C55513   3.046  11.197   8.452 -0.3309 -0.0218  0.4523
  412MOL0     C55514   3.161  11.281   8.231 -0.7297  0.4303 -0.1733
  412MOL0     C55515   3.249  11.377   8.303  0.5442 -0.6828  0.3678
  412MOL0     O55516   3.213  11.510   8.318 -0.1778  0.5127 -0.7294
  412MOL0     C55517   3.079  11.533   8.298  0.0019  1.1117 -0.3211
  412MOL0     C55518   3.033  11.569   8.169  0.4316 -0.4328 -0.5782
  412MOL0     C55519   2.901  11.600   8.154 -0.2337 -0.9575 -0.2505
  412MOL0     C55520   2.813  11.626   8.256 -0.4397 -0.0166 -0.4958
  412MOL0     O55521   2.690  11.684   8.221 -0.2488  0.8038 -0.6069
  412MOL0     C55522   2.604  11.702   8.336 -0.4406  0.2146  1.2549
  412MOL0     C55523   2.464  11.744   8.294 -0.1607 -0.0941 -0.0801
  412MOL0     C55524   2.372  11.637   8.232  0.6878  1.6251 -0.8726
  412MOL0     C55525   2.349  11.513   8.331  0.0714  0.7153  1.0487
  412MOL0     C55526   2.253  11.414   8.269  0.0766  0.7711 -0.1476
  412MOL0     C55527   2.213  11.307   8.374  1.0756 -0.3121  0.3313
  412MOL0     C55528   2.229  11.170   8.301  0.4417 -0.5094  0.4461
  412MOL0     C55529   2.375  11.124   8.321  0.1000 -0.4992  0.0706
  412MOL0    Cl55530   2.397  11.090   8.492 -0.2756  0.5497  0.5583
  412MOL0     C55531   2.860  11.599   8.386  0.4927  0.2417 -0.4493
  412MOL0     C55532   2.989  11.549   8.405  0.3686  0.4611 -0.7814
  412MOL0     O55533   3.357  11.330   8.348 -0.1795  0.8299  1.2501
  412MOL0     C55534   3.185  11.276   8.102 -0.0292  0.2215  0.0149
  412MOL0     C55535   3.113  11.183   8.027  0.4372  0.2237  0.3224
  412MOL0     N55536   2.969  10.639   7.495  0.1918 -0.2258 -0.2818
  412MOL0     N55537   2.962  10.521   7.528 -1.0257 -0.2081 -0.0675
  412MOL0     C55538   3.894  10.080   6.897  0.5292  0.3532 -0.5575
  412MOL0     C55539   4.020  10.066   6.828  0.5510  0.5670  0.3481
  412MOL0     C55540   4.325  10.028   6.511 -0.0838 -1.5895  0.9624
  412MOL0     C55541   4.371   9.942   6.408  0.4350  0.7944  0.0860
  412MOL0     C55542   4.496   9.933   6.361 -0.2765  0.6060  1.7341
  412MOL0     C55543   4.586  10.038   6.378  0.3670 -0.0564 -0.2980
  412MOL0     O55544   4.709  10.032   6.326 -0.0051  0.3559  0.6499
  412MOL0     C55545   4.780  10.158   6.341 -0.0737  0.4159 -0.9777
  412MOL0     C55546   4.894  10.149   6.249  0.2920  0.3464 -0.3381
  412MOL0     C55547   4.853  10.132   6.107 -0.2770  0.2417  0.0870
  412MOL0     C55548   4.758  10.231   6.041 -0.1149  0.7033  0.0664
  412MOL0     C55549   4.800  10.364   6.052 -0.4420 -0.0133 -0.4643
  412MOL0     C55550   4.854  10.466   6.084 -0.5077  0.3335  0.3038
  412MOL0     C55551   4.547  10.141   6.473  0.3261 -0.5138 -1.0454
  412MOL0     C55552   4.419  10.128   6.545  0.2818 -0.2836  0.1278
  412MOL0     H55553   3.949  10.194   6.533  3.0504 -2.5980 -0.8744
  412MOL0     H55554   3.728  10.228   6.657 -0.0526  3.6361  1.9402
  412MOL0     H55555   3.694  10.114   7.088 -0.3819 -1.7749 -1.1296
  412MOL0     H55556   3.736  10.283   7.037  0.0834 -0.3496 -0.3456
  412MOL0     H55557   3.487  10.340   7.008 -0.8184  2.7471  3.2227
  412MOL0     H55558   3.448  10.175   7.043 -4.0734  3.4635 -0.7588
  412MOL0     H55559   3.576  10.211   7.264  0.7272 -0.4729 -0.1424
  412MOL0     H55560   3.568  10.383   7.223 -0.2364 -0.4562  1.4669
  412MOL0     H55561   3.320  10.361   7.186  1.4647  0.7121  0.5892
  412MOL0     H55562   3.329  10.200   7.234 -4.2892  1.2915 -1.3504
  412MOL0     H55563   3.469  10.307   7.450  0.8550 -0.3742 -1.2862
  412MOL0     H55564   3.424  10.455   7.390  0.8788 -0.6751  1.5965
  412MOL0     H55565   3.180  10.408   7.407 -1.6761  0.6054 -0.1869
  412MOL0     H55566   3.198  10.238   7.439 -0.5531  0.4543 -0.1966
  412MOL0     H55567   3.294  10.282   7.668  0.8925  1.6490  2.2727
  412MOL0     H55568   3.315  10.446   7.633 -2.9023  3.2564 -3.2708
  412MOL0     H55569   3.110  10.369   7.792  2.2128 -0.4210 -0.8827
  412MOL0     H55570   3.026  10.308   7.639  2.2087  0.0279 -3.8881
  412MOL0     H55571   3.114  10.659   7.783  0.1747 -1.2904  0.6963
  412MOL0     H55572   3.113  10.904   7.632  0.8976 -1.1519  0.1599
  412MOL0     H55573   3.029  10.902   7.486 -2.3869 -0.6146 -0.8094
  412MOL0     H55574   2.813  10.836   7.669 -0.9733  2.0331 -0.7285
  412MOL0     H55575   2.844  10.980   7.586  2.9532 -0.1000 -1.6515
  412MOL0     H55576   2.809  11.014   7.816 -2.0781 -1.7609 -4.8472
  412MOL0     H55577   2.953  11.099   7.748  0.0596 -1.8147 -3.9989
  412MOL0     H55578   3.100  10.972   7.875 -0.3499  2.1288  1.9136
  412MOL0     H55579   2.997  10.833   7.885 -1.2289 -0.0508  0.2222
  412MOL0     H55580   2.919  11.048   8.256 -1.5082  0.7567  0.7881
  412MOL0     H55581   3.040  11.093   8.485 -1.1000 -1.0290 -2.5518
  412MOL0     H55582   3.141  11.234   8.493 -0.0997  0.5420 -0.5437
  412MOL0     H55583   2.959  11.256   8.482  0.3429  2.9273 -2.6973
  412MOL0     H55584   3.104  11.558   8.088 -0.7436 -1.1303 -1.5468
  412MOL0     H55585   2.871  11.625   8.053 -0.9401  0.2704  0.2272
  412MOL0     H55586   2.589  11.610   8.393 -2.4645 -1.3801 -1.6292
  412MOL0     H55587   2.638  11.780   8.405 -0.5463  1.6610 -0.2751
  412MOL0     H55588   2.408  11.793   8.375  1.3785 -0.2445  1.1193
  412MOL0     H55589   2.473  11.822   8.218 -2.1141  0.5593  0.2935
  412MOL0     H55590   2.421  11.592   8.145 -1.6967 -0.0884 -1.4260
  412MOL0     H55591   2.276  11.686   8.211 -0.5915 -0.0142  0.8992
  412MOL0     H55592   2.448  11.469   8.348  0.0603  0.2795  0.0723
  412MOL0     H55593   2.314  11.568   8.418 -0.0723  1.6727  0.4026
  412MOL0     H55594   2.306  11.379   8.180  1.2922  1.2362  0.3672
  412MOL0     H55595   2.157  11.456   8.240  0.9649  2.7916 -0.3727
  412MOL0     H55596   2.271  11.319   8.466  0.6679  3.2582  0.2590
  412MOL0     H55597   2.110  11.328   8.405  1.6752  2.4890  0.7513
  412MOL0     H55598   2.191  11.170   8.199  0.6151  0.6621  0.3598
  412MOL0     H55599   2.164  11.099   8.353  1.4274 -1.6920  0.1266
  412MOL0     H55600   2.446  11.196   8.279  1.2946 -0.3900  2.1657
  412MOL0     H55601   2.375  11.030   8.265  1.4801 -0.2917 -0.3103
  412MOL0     H55602   2.797  11.619   8.471 -0.8002  0.2898 -1.3842
  412MOL0     H55603   3.024  11.523   8.505 -1.0514  0.4250 -0.2716
  412MOL0     H55604   3.250  11.340   8.043  1.3747 -1.4501 -0.3352
  412MOL0     H55605   3.130  11.187   7.920  0.2371  1.9255  0.3215
  412MOL0     H55606   3.896  10.037   6.997  1.5040  1.4258 -0.0808
  412MOL0     H55607   4.097  10.014   6.883  0.5358  0.8702  0.6573
  412MOL0     H55608   4.290   9.883   6.366 -0.2835  1.7242  0.1206
  412MOL0     H55609   4.537   9.851   6.303 -0.0469  0.0909  2.6100
  412MOL0     H55610   4.727  10.252   6.328  0.1620  0.5349 -1.0980
  412MOL0     H55611   4.823  10.159   6.442  1.6094  1.9662 -1.6620
  412MOL0     H55612   4.965  10.074   6.286  0.5292  2.4982  4.3162
  412MOL0     H55613   4.950  10.243   6.254 -0.6625  0.9125  4.1578
  412MOL0     H55614   4.809  10.034   6.091 -0.7630  0.7092 -1.7383
  412MOL0     H55615   4.943  10.124   6.045 -1.3519 -1.9266 -1.2808
  412MOL0     H55616   4.656  10.210   6.076 -0.0835 -4.0745 -1.8450
  412MOL0     H55617   4.755  10.214   5.933 -0.7076 -0.0247  0.1790
  412MOL0     H55618   4.905  10.557   6.107  2.8206 -0.4381 -2.9618
  412MOL0     H55619   4.612  10.217   6.513 -1.5963  0.9259 -0.5278
  412MOL0     H55620   4.404  10.207   6.617  1.5193  2.6812 -2.6003
  413MOL0     O55621   3.337   9.758   9.768 -0.4128  0.4321  0.2197
  413MOL0     C55622   3.418   9.686   9.834 -0.5164 -0.3699 -1.4263
  413MOL0     O55623   3.408   9.666   9.965  0.8627 -0.8071  0.2438
  413MOL0     C55624   3.298   9.720  10.035  0.6656  0.3678  0.1512
  413MOL0     C55625   3.297   9.839  10.111  0.0695  0.7670  0.0479
  413MOL0     C55626   3.177   9.899  10.168  0.1640 -0.2617 -0.3385
  413MOL0     C55627   3.057   9.835  10.149 -0.4074  1.1996  0.8508
  413MOL0     O55628   2.938   9.875  10.207  0.5583 -0.1902  0.8569
  413MOL0     C55629   2.937  10.001  10.273  0.0570 -0.3860  0.1242
  413MOL0     C55630   2.794  10.045  10.307  0.2487 -0.1899  0.5388
  413MOL0     C55631   2.718   9.937  10.378  0.5639  0.5559  0.6650
  413MOL0     C55632   2.573   9.991  10.401  0.3142 -0.4331 -0.1310
  413MOL0     C55633   2.471   9.885  10.442 -0.5247  0.0339  0.6903
  413MOL0     C55634   2.494   9.799  10.568  0.4180 -0.7847 -0.1231
  413MOL0     C55635   2.413   9.671  10.556  0.8905 -0.7445  0.1461
  413MOL0     C55636   2.454   9.560  10.651  0.6147  0.7820  0.3002
  413MOL0     N55637   2.371   9.439  10.638  0.4830  0.1344  0.1972
  413MOL0     C55638   2.399   9.341  10.544  0.7783 -0.5461  0.1402
  413MOL0     C55639   2.325   9.236  10.590 -0.2263  0.5654  0.3711
  413MOL0     C55640   2.307   9.107  10.507 -1.1138 -0.4573 -0.1859
  413MOL0     C55641   2.162   9.086  10.478  0.2170  0.7956  0.3987
  413MOL0     C55642   2.105   9.167  10.358 -0.6812  0.8207  0.1436
  413MOL0     C55643   2.057   9.303  10.389 -0.5548  0.7487  0.4204
  413MOL0     O55644   1.920   9.303  10.424  0.1633  0.3293 -0.2333
  413MOL0     C55645   1.870   9.351  10.548  0.0701  0.2798 -0.0425
  413MOL0     C55646   1.924   9.336  10.674 -0.1677  0.3525 -0.2365
  413MOL0     C55647   1.875   9.401  10.789  0.3562 -0.2454  0.3167
  413MOL0     C55648   1.959   9.376  10.910 -0.0034  0.1256  0.6199
  413MOL0     C55649   1.744   9.454  10.775  0.1508  0.0303  0.1039
  413MOL0     C55650   1.670   9.487  10.890  0.7859  0.2903 -0.2550
  413MOL0     O55651   1.669   9.403  11.003 -0.3716 -0.0545  0.5850
  413MOL0     C55652   1.562   9.414  11.089  0.2101  0.3423  0.0142
  413MOL0     C55653   1.427   9.409  11.039  0.0277  0.2758  0.0123
  413MOL0     C55654   1.322   9.422  11.130 -0.2860  0.9512 -0.2155
  413MOL0     C55655   1.347   9.436  11.269  0.1624 -0.1485  0.9806
  413MOL0     O55656   1.234   9.453  11.351 -0.9064  0.4643  0.0143
  413MOL0     C55657   1.256   9.459  11.492 -0.0649  1.6885 -0.4608
  413MOL0     C55658   1.249   9.603  11.542 -0.8100 -0.1627 -0.4632
  413MOL0     C55659   1.114   9.672  11.551  0.3582  0.1238  0.4285
  413MOL0     C55660   1.008   9.625  11.655 -0.5549  0.5960  0.6773
  413MOL0     C55661   0.909   9.740  11.670 -0.9160  0.1020  0.4119
  413MOL0     C55662   0.788   9.699  11.759 -0.4825  0.2567 -0.4943
  413MOL0     C55663   0.665   9.783  11.725  0.2873 -0.0052 -0.7140
  413MOL0     C55664   0.538   9.713  11.746 -1.0050  0.4382  1.3948
  413MOL0    Cl55665   0.487   9.581  11.635 -0.0750  0.2362  0.4381
  413MOL0     C55666   1.484   9.454  11.307  1.8705  0.5249  0.1969
  413MOL0     C55667   1.590   9.443  11.221 -0.1751 -0.7755  0.3122
  413MOL0     O55668   1.601   9.589  10.884 -0.4901 -0.3689  0.3839
  413MOL0     C55669   1.681   9.472  10.654 -0.4407  0.7277 -0.0748
  413MOL0     C55670   1.749   9.420  10.537  0.7189  0.0134 -0.1085
  413MOL0     N55671   2.279   9.266  10.713  0.1968  0.0118  0.4552
  413MOL0     N55672   2.284   9.397  10.730 -0.2218  0.1654 -0.2856
  413MOL0     C55673   3.051   9.715  10.075 -0.1935  0.4603 -0.4095
  413MOL0     C55674   3.172   9.659  10.020  0.2214 -0.0169  0.4705
  413MOL0     C55675   3.526   9.622   9.768  0.2785 -0.2793 -0.5924
  413MOL0     C55676   3.631   9.560   9.826  0.0540  0.5216 -0.8834
  413MOL0     C55677   3.724   9.497   9.747 -0.3354 -0.8574 -0.6944
  413MOL0     C55678   3.737   9.502   9.613  0.1541 -0.6763 -0.3475
  413MOL0     O55679   3.829   9.434   9.530 -0.6865 -0.8265  0.2626
  413MOL0     C55680   3.944   9.389   9.595 -0.2263 -0.2994 -0.0613
  413MOL0     C55681   4.025   9.323   9.487 -0.8606 -0.4581 -0.4384
  413MOL0     C55682   3.954   9.197   9.439 -0.1146  0.1606  0.7083
  413MOL0     C55683   4.050   9.109   9.353 -0.1327 -0.6825  0.1497
  413MOL0     C55684   3.984   8.997   9.282  0.0800  0.0165 -0.2234
  413MOL0     C55685   3.928   8.900   9.229 -0.6713 -0.5797  0.4817
  413MOL0     C55686   3.625   9.568   9.549 -1.1177 -0.1086 -0.4380
  413MOL0     C55687   3.530   9.629   9.625  0.1892 -0.0198 -0.1997
  413MOL0     H55688   3.392   9.887  10.128 -0.8462  1.9892  2.1422
  413MOL0     H55689   3.182   9.991  10.225  0.2917 -0.2413 -0.3815
  413MOL0     H55690   2.991   9.992  10.367 -1.2596 -0.8505  0.8591
  413MOL0     H55691   2.987  10.077  10.212 -1.3539  0.7563  0.3475
  413MOL0     H55692   2.793  10.142  10.357 -2.1110  0.9611 -1.5173
  413MOL0     H55693   2.748  10.073  10.212 -1.0687  3.9268  2.1642
  413MOL0     H55694   2.734   9.848  10.316  0.9084  0.9865  0.1265
  413MOL0     H55695   2.763   9.909  10.473  0.4297  0.0077  0.5714
  413MOL0     H55696   2.573  10.066  10.481 -3.6915  3.4844 -3.2833
  413MOL0     H55697   2.539  10.046  10.313  2.1522 -1.5680 -1.6065
  413MOL0     H55698   2.374   9.929  10.464 -0.0664  0.3590  2.1141
  413MOL0     H55699   2.470   9.817  10.356  1.8600 -0.1772  0.7617
  413MOL0     H55700   2.600   9.778  10.580  0.8614  1.5345  0.6190
  413MOL0     H55701   2.475   9.844  10.666  2.1987  0.5588 -0.3363
  413MOL0     H55702   2.311   9.692  10.590  1.2662  0.5039  0.5683
  413MOL0     H55703   2.397   9.639  10.453  1.3282  1.9697 -0.8484
  413MOL0     H55704   2.451   9.599  10.754  3.8475  0.1597  0.7315
  413MOL0     H55705   2.552   9.519  10.625 -0.3417 -1.7573  0.3550
  413MOL0     H55706   2.461   9.339  10.455  3.4111 -0.2469  1.8342
  413MOL0     H55707   2.361   9.096  10.412  1.3472  0.6503  0.9844
  413MOL0     H55708   2.351   9.021  10.557 -1.9628 -2.3313 -2.4847
  413MOL0     H55709   2.106   9.108  10.569  1.3922  1.2607  1.0249
  413MOL0     H55710   2.148   8.980  10.459  3.2757  0.0896  1.5924
  413MOL0     H55711   2.021   9.112  10.315 -0.1778  0.4518 -0.3738
  413MOL0     H55712   2.175   9.151  10.275 -0.0312 -1.6957  1.0670
  413MOL0     H55713   2.065   9.352  10.291  3.6970 -0.8504 -0.2397
  413MOL0     H55714   2.121   9.353  10.462  1.0940 -0.6628 -0.0002
  413MOL0     H55715   2.025   9.300  10.687  0.2995  1.8986  0.6598
  413MOL0     H55716   2.066   9.369  10.887 -0.6054 -2.0347 -2.0473
  413MOL0     H55717   1.950   9.449  10.991  1.6339 -0.4162  1.3375
  413MOL0     H55718   1.932   9.276  10.945 -3.4157  0.2430 -1.2373
  413MOL0     H55719   1.412   9.402  10.931  1.7278 -0.0942 -0.2262
  413MOL0     H55720   1.217   9.413  11.106  0.0518 -2.5281 -0.9864
  413MOL0     H55721   1.180   9.412  11.555 -0.2129  2.9909  0.3873
  413MOL0     H55722   1.351   9.410  11.517 -1.2057 -0.9154 -0.9059
  413MOL0     H55723   1.287   9.609  11.645  0.6407 -2.3141 -0.8010
  413MOL0     H55724   1.310   9.669  11.479  0.7827  0.7376  1.8629
  413MOL0     H55725   1.068   9.669  11.451 -2.0180  3.0019  1.3023
  413MOL0     H55726   1.142   9.775  11.577 -2.1512  1.0789 -0.3512
  413MOL0     H55727   0.954   9.536  11.619 -0.2992  0.5300  0.4505
  413MOL0     H55728   1.057   9.600  11.749 -0.3097 -2.4051 -0.1397
  413MOL0     H55729   0.866   9.771  11.574 -4.1910  0.2545  1.8154
  413MOL0     H55730   0.963   9.829  11.703  0.4400 -0.5287 -0.0245
  413MOL0     H55731   0.764   9.593  11.745 -3.1761  0.7128  0.1522
  413MOL0     H55732   0.811   9.690  11.866  0.0044  0.1487 -0.6025
  413MOL0     H55733   0.680   9.807  11.619  3.7704  0.1445 -0.3050
  413MOL0     H55734   0.667   9.877  11.781 -2.2271 -1.5773  2.3114
  413MOL0     H55735   0.460   9.789  11.729 -1.5291 -0.2032  0.8782
  413MOL0     H55736   0.526   9.689  11.852 -0.5727 -0.2830  1.2857
  413MOL0     H55737   1.520   9.468  11.408 -1.7450 -0.1079  1.7045
  413MOL0     H55738   1.691   9.460  11.257  0.4785 -0.0144 -1.7123
  413MOL0     H55739   1.577   9.502  10.652 -0.6779  0.1736  1.9114
  413MOL0     H55740   1.698   9.444  10.444 -1.1366 -0.9829  0.6150
  413MOL0     H55741   2.956   9.667  10.054 -0.7573  1.9541 -1.4149
  413MOL0     H55742   3.165   9.562   9.972 -0.0207  0.7450 -1.1043
  413MOL0     H55743   3.636   9.555   9.934  1.7003  1.2229 -0.9050
  413MOL0     H55744   3.794   9.433   9.799 -1.2643 -1.3201  0.0214
  413MOL0     H55745   3.995   9.478   9.633  1.7855 -1.2485 -0.3666
  413MOL0     H55746   3.921   9.319   9.676  3.2529  0.3081  1.6558
  413MOL0     H55747   4.122   9.300   9.533 -0.4058 -1.5724 -1.9032
  413MOL0     H55748   4.033   9.392   9.402 -2.5163  2.1588  1.3643
  413MOL0     H55749   3.868   9.224   9.378  1.0963  1.2978 -0.5517
  413MOL0     H55750   3.937   9.145   9.534 -1.5754 -1.6132 -0.4470
  413MOL0     H55751   4.125   9.073   9.424 -2.8940  0.1825  3.8574
  413MOL0     H55752   4.091   9.168   9.270  2.1150 -0.3431  1.4244
  413MOL0     H55753   3.874   8.814   9.195  1.1095 -1.0203 -1.4097
  413MOL0     H55754   3.625   9.582   9.442  1.4202  1.6185 -0.3107
  413MOL0     H55755   3.450   9.679   9.571 -0.8688 -1.8725 -0.4208
  414MOL0     O55756   3.746   2.570   7.776  0.7289  0.5770  0.5730
  414MOL0     C55757   3.767   2.483   7.862 -0.0037  0.0620 -0.0198
  414MOL0     O55758   3.885   2.395   7.862  0.8915  0.5493 -0.3203
  414MOL0     C55759   3.967   2.419   7.756 -0.9262  0.3722  0.0549
  414MOL0     C55760   3.939   2.424   7.616  0.8535  0.2303 -0.4533
  414MOL0     C55761   4.033   2.450   7.512 -0.1017 -0.2488 -0.9267
  414MOL0     C55762   4.167   2.466   7.543 -0.4049  0.3571 -0.1240
  414MOL0     O55763   4.266   2.502   7.446 -0.4489 -0.7074  0.6393
  414MOL0     C55764   4.382   2.416   7.424 -0.6300  0.6109  0.5882
  414MOL0     C55765   4.460   2.458   7.303 -0.8170  0.0845  0.7230
  414MOL0     C55766   4.592   2.376   7.286  0.0594  0.7060 -0.3103
  414MOL0     C55767   4.632   2.399   7.137  0.0387 -0.9029  0.8738
  414MOL0     C55768   4.782   2.387   7.117  0.2644  0.4663 -1.0513
  414MOL0     C55769   4.826   2.239   7.108  0.1815  0.4599  0.0257
  414MOL0     C55770   4.793   2.173   6.979  0.8022  0.5357 -0.4348
  414MOL0     C55771   4.859   2.041   6.960  0.5020  0.2545  0.7046
  414MOL0     N55772   4.793   1.957   6.861  0.1554 -0.4447  0.0443
  414MOL0     C55773   4.745   2.004   6.739  0.3513  0.0686  0.5316
  414MOL0     C55774   4.731   1.889   6.668  0.3261 -0.3959  1.3108
  414MOL0     C55775   4.680   1.882   6.528  0.3490 -0.6224 -0.6244
  414MOL0     C55776   4.529   1.863   6.512 -0.6044  0.0574  0.5338
  414MOL0     C55777   4.466   1.992   6.567  0.5359  0.3489 -0.1738
  414MOL0     C55778   4.314   1.997   6.563 -0.9812  0.4012 -0.1068
  414MOL0     O55779   4.267   2.035   6.430 -0.4004 -0.0168  0.1817
  414MOL0     C55780   4.140   2.013   6.389  0.3928  0.6479  0.4320
  414MOL0     C55781   4.117   2.010   6.249 -0.3416 -0.0298  0.3113
  414MOL0     C55782   3.985   2.000   6.189 -0.8713  0.9397 -0.6765
  414MOL0     C55783   3.981   2.001   6.042 -0.4154 -0.8860 -0.4507
  414MOL0     C55784   3.875   1.993   6.284 -0.9256  0.1890 -0.5182
  414MOL0     C55785   3.736   2.011   6.242 -0.1574 -0.1341  0.6450
  414MOL0     O55786   3.699   2.001   6.108 -0.0983 -0.3768 -0.5303
  414MOL0     C55787   3.571   2.022   6.070 -0.0524 -0.6328  0.6690
  414MOL0     C55788   3.517   1.936   5.969 -0.8075 -0.1948  0.0287
  414MOL0     C55789   3.385   1.944   5.931  0.9770  0.8954 -0.8017
  414MOL0     C55790   3.295   2.035   5.985 -1.1913 -0.5023 -0.3803
  414MOL0     O55791   3.169   2.028   5.936  0.4078 -0.3571  0.1174
  414MOL0     C55792   3.069   2.039   6.030  0.8775  0.1449  0.6279
  414MOL0     C55793   2.937   1.984   5.969 -0.1573  0.3776  0.5412
  414MOL0     C55794   2.829   1.993   6.060  0.1572 -0.3867  0.6392
  414MOL0     C55795   2.702   1.926   5.996  0.2176 -1.1334  0.1423
  414MOL0     C55796   2.578   1.919   6.097  0.1529 -0.4547  0.3987
  414MOL0     C55797   2.466   1.847   6.014  0.0059  0.3412 -0.1760
  414MOL0     C55798   2.343   1.832   6.110 -0.2579  0.0979  0.1289
  414MOL0     C55799   2.368   1.749   6.235 -0.2705 -0.7281  1.0439
  414MOL0    Cl55800   2.232   1.719   6.334 -0.0040  0.0459  0.1198
  414MOL0     C55801   3.334   2.114   6.094 -0.6265 -1.1100 -0.6884
  414MOL0     C55802   3.472   2.115   6.129 -0.3792  0.4196 -0.1573
  414MOL0     O55803   3.651   2.030   6.328 -0.1969 -0.3293 -0.0875
  414MOL0     C55804   3.893   2.009   6.418 -0.1752 -1.1743  0.0033
  414MOL0     C55805   4.023   2.012   6.469 -0.8057 -0.3819 -0.4617
  414MOL0     N55806   4.751   1.782   6.748 -0.1365  0.7284 -0.4754
  414MOL0     N55807   4.801   1.824   6.857 -0.2609  0.4957  0.0895
  414MOL0     C55808   4.206   2.444   7.676  0.9830 -1.0799 -0.4110
  414MOL0     C55809   4.106   2.426   7.779  0.3738 -0.0132 -0.6386
  414MOL0     C55810   3.674   2.464   7.978  0.4616 -1.1314 -0.2171
  414MOL0     C55811   3.543   2.511   7.971  1.0076 -0.7208  0.3998
  414MOL0     C55812   3.451   2.494   8.076  0.3825 -0.2140  0.6453
  414MOL0     C55813   3.480   2.425   8.188 -0.5145 -0.2190 -0.0396
  414MOL0     O55814   3.389   2.418   8.288  0.2960  0.7684  0.3338
  414MOL0     C55815   3.396   2.307   8.378  0.1587  0.1474  0.2921
  414MOL0     C55816   3.482   2.341   8.497 -0.3282 -0.3523 -0.1845
  414MOL0     C55817   3.517   2.217   8.583 -0.0755  0.3276  0.2069
  414MOL0     C55818   3.629   2.125   8.532 -0.6645 -0.9350  0.0150
  414MOL0     C55819   3.761   2.183   8.572 -0.6413 -0.0238 -0.4175
  414MOL0     C55820   3.866   2.226   8.629  0.9274  0.2947  1.3015
  414MOL0     C55821   3.612   2.372   8.194  0.0199  0.8073  0.2126
  414MOL0     C55822   3.706   2.388   8.088  0.6308 -0.6709  0.3592
  414MOL0     H55823   3.838   2.399   7.584  0.8206 -0.3713  0.0951
  414MOL0     H55824   3.992   2.462   7.412 -0.9806  1.2944 -0.4269
  414MOL0     H55825   4.446   2.416   7.513  0.0421  1.0945  0.1105
  414MOL0     H55826   4.342   2.314   7.418  1.6009 -0.3409  0.8974
  414MOL0     H55827   4.397   2.442   7.215 -1.1955 -1.2706  1.2085
  414MOL0     H55828   4.489   2.563   7.316 -0.7392  0.4368 -1.8313
  414MOL0     H55829   4.677   2.418   7.340 -0.0474  3.8599 -2.3614
  414MOL0     H55830   4.577   2.269   7.304 -1.0166  0.8368 -0.3741
  414MOL0     H55831   4.585   2.332   7.065  0.4697  1.3602 -1.6921
  414MOL0     H55832   4.607   2.501   7.106 -2.5203 -2.6396 -3.8032
  414MOL0     H55833   4.812   2.435   7.023 -2.3215 -1.9880 -3.3086
  414MOL0     H55834   4.830   2.432   7.205 -0.8952  2.0247 -1.1603
  414MOL0     H55835   4.934   2.230   7.126  0.7619  1.4526 -2.5520
  414MOL0     H55836   4.787   2.176   7.189  0.7426 -0.2633 -0.2590
  414MOL0     H55837   4.685   2.165   6.965  0.8936 -0.6770 -0.4870
  414MOL0     H55838   4.840   2.240   6.906  2.3231  3.0170  2.5588
  414MOL0     H55839   4.867   1.986   7.055  1.2804  1.3002  1.2641
  414MOL0     H55840   4.960   2.072   6.934 -0.6157  2.3637 -1.4480
  414MOL0     H55841   4.723   2.101   6.698 -5.3068 -1.1772 -0.1857
  414MOL0     H55842   4.711   1.972   6.475 -0.7755  0.0923 -0.0970
  414MOL0     H55843   4.712   1.790   6.479 -0.9696 -1.1547 -0.5345
  414MOL0     H55844   4.505   1.771   6.566  1.6476 -1.1440 -0.3794
  414MOL0     H55845   4.506   1.836   6.409 -3.0698 -3.6535  1.8351
  414MOL0     H55846   4.509   2.076   6.511  0.9359 -0.4769 -1.1399
  414MOL0     H55847   4.480   1.999   6.675 -3.8917  0.1756  0.5810
  414MOL0     H55848   4.275   2.073   6.631  0.4113  1.2812 -0.2523
  414MOL0     H55849   4.284   1.894   6.585  0.2890 -0.2795 -1.3474
  414MOL0     H55850   4.204   2.011   6.185 -0.9488  1.3627 -0.5431
  414MOL0     H55851   4.075   1.979   5.989 -0.7591 -0.0281 -1.4570
  414MOL0     H55852   3.908   1.929   6.005 -0.2597 -2.0596  1.4025
  414MOL0     H55853   3.953   2.101   6.009  2.7550 -0.5447 -2.5776
  414MOL0     H55854   3.583   1.863   5.923 -4.2207 -2.6631 -1.4074
  414MOL0     H55855   3.347   1.876   5.855  1.6190 -1.9718  1.2526
  414MOL0     H55856   3.095   1.990   6.125  1.2266 -1.7160 -0.3674
  414MOL0     H55857   3.046   2.143   6.055 -4.0674 -0.6555  0.3152
  414MOL0     H55858   2.907   2.040   5.880 -3.1018  0.4262  1.4842
  414MOL0     H55859   2.953   1.880   5.941 -2.4026  0.5333 -1.6731
  414MOL0     H55860   2.798   2.098   6.059 -2.5949 -1.1211  0.0807
  414MOL0     H55861   2.854   1.956   6.160  1.0770  0.4569  0.7406
  414MOL0     H55862   2.676   1.977   5.903 -0.1572  1.2160  1.4373
  414MOL0     H55863   2.719   1.823   5.965  0.8049 -0.8178 -0.6259
  414MOL0     H55864   2.558   2.020   6.134  1.0103 -0.3713  0.6435
  414MOL0     H55865   2.595   1.864   6.190 -3.8848 -0.0454  1.5981
  414MOL0     H55866   2.442   1.907   5.926 -2.5935 -0.1527  0.1090
  414MOL0     H55867   2.493   1.745   5.987  0.6215  0.0850  1.2828
  414MOL0     H55868   2.261   1.784   6.055 -1.7493 -0.7791  2.8819
  414MOL0     H55869   2.317   1.927   6.156  2.0208  1.0485 -0.4097
  414MOL0     H55870   2.441   1.788   6.307  2.4381 -1.2966 -1.2582
  414MOL0     H55871   2.423   1.661   6.203  1.4579  0.8901 -0.6720
  414MOL0     H55872   3.266   2.188   6.135 -3.2088 -2.7569 -1.8110
  414MOL0     H55873   3.506   2.180   6.210  3.3664  1.0676 -1.9962
  414MOL0     H55874   3.818   2.024   6.495  2.0953  1.6848  1.9154
  414MOL0     H55875   4.036   2.050   6.570  2.8883 -1.0230 -0.5882
  414MOL0     H55876   4.310   2.453   7.703  0.6600 -2.8401  1.6813
  414MOL0     H55877   4.131   2.419   7.884  1.1743  0.5044 -0.7827
  414MOL0     H55878   3.504   2.571   7.889 -0.0338 -2.4458 -0.4153
  414MOL0     H55879   3.350   2.534   8.071  0.3418 -0.3463  0.3812
  414MOL0     H55880   3.297   2.279   8.414  1.0589 -0.4730  2.3918
  414MOL0     H55881   3.439   2.223   8.322 -1.2226 -0.0388 -0.5218
  414MOL0     H55882   3.417   2.398   8.563 -0.5692 -0.6574 -0.1564
  414MOL0     H55883   3.577   2.390   8.473  0.0406 -1.4322 -1.0472
  414MOL0     H55884   3.426   2.156   8.585  0.2115 -0.1588 -0.7750
  414MOL0     H55885   3.543   2.258   8.681  2.6391  2.1442 -1.1316
  414MOL0     H55886   3.625   2.131   8.423  0.3032  1.3965  0.0460
  414MOL0     H55887   3.614   2.020   8.561 -0.3102 -1.3539 -1.2556
  414MOL0     H55888   3.949   2.249   8.692 -2.3417  1.6331  5.6294
  414MOL0     H55889   3.655   2.320   8.279  1.1926 -0.7382 -1.2753
  414MOL0     H55890   3.805   2.344   8.083  0.1122 -1.7420 -2.5886
  415MOL0     O55891   3.188   7.861   7.780 -0.6331  0.0079  0.3142
  415MOL0     C55892   3.221   7.793   7.878 -0.3541  0.0558 -0.1083
  415MOL0     O55893   3.140   7.765   7.984 -1.2190  0.4972 -0.5205
  415MOL0     C55894   3.019   7.821   7.989 -0.0334 -0.0247  0.1618
  415MOL0     C55895   3.001   7.963   7.971  0.2063  0.1737 -0.4968
  415MOL0     C55896   2.877   8.014   7.992 -0.8291 -0.7271 -0.0873
  415MOL0     C55897   2.779   7.929   8.034  0.6784 -0.3822  0.5886
  415MOL0     O55898   2.662   7.996   8.074  0.2012  0.4091  1.0517
  415MOL0     C55899   2.550   7.922   8.145 -0.8894  0.5405 -0.3209
  415MOL0     C55900   2.446   8.022   8.196  0.4115  0.2822 -0.7171
  415MOL0     C55901   2.336   7.937   8.267 -0.2464  0.0016 -0.1303
  415MOL0     C55902   2.255   8.026   8.354 -0.0286  0.1741 -0.4230
  415MOL0     C55903   2.152   7.949   8.438  1.0106 -0.0485 -1.0599
  415MOL0     C55904   2.082   8.044   8.539 -0.5318 -0.2195  1.2402
  415MOL0     C55905   1.934   8.004   8.585 -0.2233 -0.0980 -0.1028
  415MOL0     C55906   1.869   8.098   8.686  0.4918  0.6361 -0.1348
  415MOL0     N55907   1.789   8.012   8.774 -0.0302 -1.1405 -0.4255
  415MOL0     C55908   1.814   7.998   8.912 -0.0092 -0.6467  0.5488
  415MOL0     C55909   1.693   7.984   8.972  0.3149 -0.7035 -0.4100
  415MOL0     C55910   1.669   7.951   9.118  0.9343 -0.2725 -0.0422
  415MOL0     C55911   1.536   7.875   9.126 -0.4135 -0.7050  0.3982
  415MOL0     C55912   1.423   7.980   9.144 -0.0259  0.3778 -0.2006
  415MOL0     C55913   1.280   7.913   9.152 -0.2737 -0.5164 -0.6288
  415MOL0     O55914   1.183   8.017   9.184  0.1400  0.0336  0.2371
  415MOL0     C55915   1.060   7.982   9.232  0.0835 -1.0384 -0.0577
  415MOL0     C55916   0.991   8.092   9.288  0.0087 -0.4101  0.3227
  415MOL0     C55917   0.860   8.076   9.328 -0.7440  0.9691 -0.3683
  415MOL0     C55918   0.796   8.192   9.387 -0.7351  0.3623  0.5836
  415MOL0     C55919   0.799   7.941   9.325  0.3722 -0.4839 -0.0408
  415MOL0     C55920   0.661   7.910   9.370  0.4912  0.2505  0.8612
  415MOL0     O55921   0.592   7.809   9.311 -0.4745 -0.5336  0.3611
  415MOL0     C55922   0.464   7.780   9.352 -0.4017  0.5358 -0.6826
  415MOL0     C55923   0.356   7.857   9.308 -0.0407  0.5498 -0.2259
  415MOL0     C55924   0.223   7.823   9.342  1.0565 -0.0631  0.4235
  415MOL0     C55925   0.202   7.710   9.419  0.4615 -0.2551 -0.5789
  415MOL0     O55926   0.073   7.673   9.462 -0.2892 -0.3788 -0.0011
  415MOL0     C55927   0.022   7.775   9.552 -1.2820 -0.0318  0.1241
  415MOL0     C55928  -0.048   7.707   9.677 -0.7298  0.0720  0.7842
  415MOL0     C55929  -0.085   7.791   9.798  0.2916  0.0565 -0.0396
  415MOL0     C55930   0.029   7.827   9.900 -0.6705  0.1648  0.3927
  415MOL0     C55931  -0.044   7.929   9.998 -0.6385 -0.4396  0.2653
  415MOL0     C55932   0.028   8.065   9.986 -0.3705 -0.4827 -0.2256
  415MOL0     C55933  -0.018   8.157  10.098  0.6577 -0.1467 -0.7693
  415MOL0     C55934  -0.165   8.183  10.111  0.5578 -1.5702  0.1599
  415MOL0    Cl55935  -0.244   8.208   9.955 -0.5102  0.1728  0.2433
  415MOL0     C55936   0.310   7.626   9.450 -0.2350  0.0663  0.4154
  415MOL0     C55937   0.444   7.660   9.414  0.1655 -0.2744  1.3635
  415MOL0     O55938   0.617   7.985   9.456  0.5079 -0.0825  0.1030
  415MOL0     C55939   0.873   7.837   9.267  0.5490  0.6840  0.1337
  415MOL0     C55940   1.001   7.865   9.226  0.5285  0.9850  0.1107
  415MOL0     N55941   1.599   7.980   8.868  0.2547 -0.4994 -0.1889
  415MOL0     N55942   1.659   7.998   8.751  0.0308 -1.4912 -0.3240
  415MOL0     C55943   2.794   7.789   8.057 -0.8127  0.3626 -0.3883
  415MOL0     C55944   2.919   7.733   8.023  0.6117  0.1327 -0.5401
  415MOL0     C55945   3.355   7.727   7.877  0.1095 -1.0470  0.1819
  415MOL0     C55946   3.388   7.620   7.954  0.2910  0.5943  0.4428
  415MOL0     C55947   3.508   7.545   7.939 -0.2242 -1.0605  0.4059
  415MOL0     C55948   3.605   7.585   7.845  0.2728 -0.2394  0.0254
  415MOL0     O55949   3.726   7.532   7.854 -0.5809  0.2206 -0.5607
  415MOL0     C55950   3.841   7.602   7.824  0.1737 -0.0260  1.0840
  415MOL0     C55951   3.943   7.598   7.940 -0.0592  0.4381 -0.3438
  415MOL0     C55952   3.891   7.688   8.058 -0.2569  0.1264  0.3187
  415MOL0     C55953   3.994   7.675   8.183  0.2602  0.3638  0.7409
  415MOL0     C55954   3.959   7.777   8.282  0.1170 -0.6453  0.0789
  415MOL0     C55955   3.937   7.867   8.366 -0.0873  0.1409 -0.0532
  415MOL0     C55956   3.566   7.684   7.755  0.2777  0.4970 -0.1952
  415MOL0     C55957   3.448   7.757   7.777 -0.1342  1.1451 -0.0160
  415MOL0     H55958   3.086   8.026   7.945  0.3870 -0.9605 -2.9713
  415MOL0     H55959   2.854   8.118   7.972 -3.4563 -0.6616  2.5678
  415MOL0     H55960   2.507   7.843   8.083 -0.4874  0.0752 -0.0087
  415MOL0     H55961   2.580   7.875   8.239  1.1569  1.8464 -0.2708
  415MOL0     H55962   2.494   8.085   8.271 -0.4171 -1.0225  0.9905
  415MOL0     H55963   2.412   8.079   8.109  0.4306  1.4679  0.0370
  415MOL0     H55964   2.268   7.891   8.194 -2.7358 -0.6944  2.4447
  415MOL0     H55965   2.377   7.856   8.328  0.9075 -2.9441 -4.3355
  415MOL0     H55966   2.320   8.075   8.427 -0.3814  1.1407 -0.7503
  415MOL0     H55967   2.213   8.114   8.305  1.0614  1.4693  0.8901
  415MOL0     H55968   2.074   7.935   8.362  0.0556 -0.0109 -0.1038
  415MOL0     H55969   2.168   7.847   8.473  0.2047  1.1119  3.2262
  415MOL0     H55970   2.134   8.068   8.633  0.8885  0.2259  0.3800
  415MOL0     H55971   2.077   8.139   8.485  1.2906  0.0966  1.5575
  415MOL0     H55972   1.860   8.005   8.504 -1.9757  0.1633  1.4586
  415MOL0     H55973   1.932   7.903   8.626  0.7084  0.2905  0.9304
  415MOL0     H55974   1.802   8.171   8.638 -1.4647 -2.0684 -1.8571
  415MOL0     H55975   1.946   8.157   8.736  0.9731 -0.4921  0.4862
  415MOL0     H55976   1.910   7.991   8.963  0.8427  0.5493 -0.8384
  415MOL0     H55977   1.743   7.879   9.154  1.1064 -0.1123 -0.0769
  415MOL0     H55978   1.678   8.047   9.170 -1.5566 -0.0808  0.1659
  415MOL0     H55979   1.536   7.802   9.207 -0.9072  0.7855  1.7895
  415MOL0     H55980   1.524   7.814   9.036  0.6020 -0.3364  0.0074
  415MOL0     H55981   1.418   8.039   9.052 -3.4083  0.8482  0.1614
  415MOL0     H55982   1.440   8.050   9.226  0.3724 -0.7170  0.6761
  415MOL0     H55983   1.282   7.846   9.238 -0.1448  0.4140  0.1153
  415MOL0     H55984   1.253   7.863   9.059 -0.9771 -0.3929 -0.4976
  415MOL0     H55985   1.030   8.191   9.266 -0.8810 -0.1924 -0.2884
  415MOL0     H55986   0.869   8.269   9.412 -1.5873  1.0913  0.8827
  415MOL0     H55987   0.721   8.239   9.323 -1.2790 -1.0435  0.1458
  415MOL0     H55988   0.757   8.160   9.484  0.2864  0.4406  1.0325
  415MOL0     H55989   0.377   7.948   9.253  0.3463  1.5326  1.4652
  415MOL0     H55990   0.141   7.890   9.320 -0.3611 -1.8070  0.2199
  415MOL0     H55991   0.102   7.844   9.580 -0.6928 -0.9978  0.9151
  415MOL0     H55992  -0.046   7.844   9.501 -2.5059 -1.4485 -0.2404
  415MOL0     H55993  -0.142   7.660   9.644 -0.3990 -0.3296  0.4041
  415MOL0     H55994   0.019   7.630   9.718  2.5898 -1.1329 -5.6741
  415MOL0     H55995  -0.166   7.733   9.842 -1.5842  0.2655 -2.9348
  415MOL0     H55996  -0.135   7.884   9.770 -1.6330 -1.2583 -1.2081
  415MOL0     H55997   0.067   7.739   9.952  0.9575 -0.3840 -1.6139
  415MOL0     H55998   0.106   7.881   9.844 -1.6813  2.5421  1.1295
  415MOL0     H55999  -0.028   7.903  10.103 -3.1718 -1.4146  0.4649
  415MOL0     H56000  -0.153   7.931   9.991 -0.6631 -2.6083 -0.8649
  415MOL0     H56001   0.136   8.055   9.998 -0.1569  2.7390  1.7877
  415MOL0     H56002   0.009   8.113   9.889 -0.4577 -2.4911 -1.2595
  415MOL0     H56003   0.029   8.256  10.092  0.3411  0.1809  1.2064
  415MOL0     H56004   0.017   8.115  10.193 -0.1458  1.4595  0.2878
  415MOL0     H56005  -0.174   8.277  10.166 -1.0814 -1.0485 -0.9629
  415MOL0     H56006  -0.226   8.111  10.167 -0.7508  0.7816  1.9496
  415MOL0     H56007   0.289   7.539   9.512 -0.2439  0.7198  1.3681
  415MOL0     H56008   0.524   7.589   9.436  1.9100  1.1978  0.1259
  415MOL0     H56009   0.820   7.742   9.273  0.1436  0.5048 -3.8566
  415MOL0     H56010   1.056   7.776   9.196 -0.7760 -0.4489  1.7743
  415MOL0     H56011   2.713   7.731   8.100  0.6364 -2.1312 -0.8130
  415MOL0     H56012   2.929   7.627   8.044  0.7486  0.6221  2.2650
  415MOL0     H56013   3.325   7.581   8.033  2.7282 -0.7397  1.8709
  415MOL0     H56014   3.547   7.474   8.011  2.1298 -0.2876 -0.0029
  415MOL0     H56015   3.874   7.557   7.730 -3.4909 -1.4161  0.2845
  415MOL0     H56016   3.834   7.710   7.807  1.1052 -0.1836 -0.5259
  415MOL0     H56017   4.041   7.633   7.905 -1.4431  3.5962 -1.4924
  415MOL0     H56018   3.948   7.498   7.983  0.3833 -0.7874 -3.0896
  415MOL0     H56019   3.788   7.658   8.081 -0.4403  0.7862  0.3983
  415MOL0     H56020   3.869   7.789   8.022 -2.4917 -0.1777  0.6509
  415MOL0     H56021   4.090   7.711   8.144 -0.7670  2.8852  0.3026
  415MOL0     H56022   3.993   7.578   8.232  2.6238 -0.4887 -0.7191
  415MOL0     H56023   3.924   7.939   8.444  1.7159  1.7692 -1.1405
  415MOL0     H56024   3.622   7.717   7.668 -2.0516  0.5241 -1.7777
  415MOL0     H56025   3.423   7.840   7.712 -1.6151 -0.0746 -1.0725
  416MOL0     O56026   3.035   0.524   5.875 -0.0686  0.0307  0.1677
  416MOL0     C56027   3.042   0.514   5.752  0.3501 -0.0485 -0.0783
  416MOL0     O56028   2.943   0.475   5.665  0.3668  0.4131 -0.5085
  416MOL0     C56029   2.811   0.485   5.699 -0.6467 -0.8716 -0.2397
  416MOL0     C56030   2.719   0.425   5.609  0.2258 -0.7475 -0.3382
  416MOL0     C56031   2.586   0.420   5.642 -0.0591  0.6329  0.4445
  416MOL0     C56032   2.531   0.487   5.745 -0.1027  0.4998  0.3327
  416MOL0     O56033   2.389   0.476   5.758 -0.7317  0.7564  0.5904
  416MOL0     C56034   2.331   0.541   5.876 -0.7347 -0.3372  0.6771
  416MOL0     C56035   2.180   0.500   5.877 -0.9014 -0.2859 -0.3394
  416MOL0     C56036   2.111   0.526   6.017 -0.0939 -0.2161  0.3423
  416MOL0     C56037   2.145   0.429   6.140  0.7350 -0.5023 -0.1230
  416MOL0     C56038   2.014   0.399   6.220 -0.8355  0.2799  0.1997
  416MOL0     C56039   1.934   0.290   6.143 -0.6702  0.0206  0.1358
  416MOL0     C56040   1.796   0.283   6.212 -0.0030 -1.0612 -0.4674
  416MOL0     C56041   1.710   0.173   6.151 -0.5807  0.0550  1.1701
  416MOL0     N56042   1.570   0.169   6.187  0.2574 -0.8964  0.6933
  416MOL0     C56043   1.466   0.224   6.113  0.2862 -0.7045  1.5960
  416MOL0     C56044   1.359   0.190   6.176  0.2985 -0.4981  0.5801
  416MOL0     C56045   1.224   0.214   6.132  0.1354 -0.0927  0.5572
  416MOL0     C56046   1.169   0.100   6.053  0.3362  1.1563  0.5928
  416MOL0     C56047   1.020   0.072   6.072  0.3940  0.4765  0.7139
  416MOL0     C56048   0.944   0.210   6.054  0.0730  0.4370 -1.0807
  416MOL0     O56049   0.807   0.194   6.011  0.5779 -0.6802  0.1595
  416MOL0     C56050   0.701   0.162   6.087 -0.2973 -1.4459  0.0835
  416MOL0     C56051   0.711   0.123   6.223  0.0280 -0.2717  0.1757
  416MOL0     C56052   0.599   0.083   6.294  0.2585 -1.1949 -0.3527
  416MOL0     C56053   0.624   0.045   6.430  0.7929  0.4425 -0.4325
  416MOL0     C56054   0.466   0.093   6.237 -0.2789 -0.4422 -0.2804
  416MOL0     C56055   0.337   0.070   6.309  0.1062 -0.4187  0.8385
  416MOL0     O56056   0.226   0.037   6.236  0.6353 -0.1917 -0.3222
  416MOL0     C56057   0.111  -0.012   6.291 -0.2113  0.2354 -0.2286
  416MOL0     C56058  -0.008   0.017   6.231  0.1788 -0.3146  0.7376
  416MOL0     C56059  -0.130  -0.010   6.295 -0.4073 -0.1878  0.2846
  416MOL0     C56060  -0.134  -0.087   6.415  0.1172  0.0114  0.5678
  416MOL0     O56061  -0.252  -0.131   6.475  0.1033 -0.8624 -0.3428
  416MOL0     C56062  -0.377  -0.089   6.421  0.6993  1.0952 -0.0546
  416MOL0     C56063  -0.491  -0.103   6.518 -0.1101 -0.4207  0.0962
  416MOL0     C56064  -0.623  -0.097   6.449 -1.2215 -0.2058 -0.2267
  416MOL0     C56065  -0.670   0.035   6.391 -1.3174 -1.1296  0.0627
  416MOL0     C56066  -0.817   0.028   6.331 -0.0636  0.4598 -0.1547
  416MOL0     C56067  -0.926  -0.007   6.439 -0.6383  0.6359 -0.4145
  416MOL0     C56068  -1.068   0.018   6.384 -0.0513 -0.5016 -0.6269
  416MOL0     C56069  -1.165  -0.006   6.497  0.1482 -0.2854 -0.3125
  416MOL0    Cl56070  -1.138  -0.162   6.590 -0.2806 -0.1238  0.2943
  416MOL0     C56071  -0.013  -0.117   6.472 -0.5083 -0.6338 -0.3662
  416MOL0     C56072   0.113  -0.088   6.411  0.3509 -0.2478  0.0467
  416MOL0     O56073   0.337   0.094   6.432  0.1596  0.2259  0.3178
  416MOL0     C56074   0.465   0.136   6.101  0.3426  0.4915 -0.4613
  416MOL0     C56075   0.578   0.160   6.027  0.3108 -0.7271  0.2534
  416MOL0     N56076   1.395   0.142   6.300  0.2968  0.7242 -0.3050
  416MOL0     N56077   1.518   0.140   6.312 -0.0648 -0.3611 -0.4024
  416MOL0     C56078   2.618   0.556   5.831 -0.0886 -0.0247 -0.4881
  416MOL0     C56079   2.758   0.561   5.805  0.2402 -0.2441 -0.7297
  416MOL0     C56080   3.177   0.531   5.693 -0.2267  0.2478 -1.0115
  416MOL0     C56081   3.188   0.559   5.559  0.4927  0.0091 -0.2239
  416MOL0     C56082   3.313   0.585   5.499  0.0729  0.1827  0.8090
  416MOL0     C56083   3.426   0.591   5.576 -0.0747 -0.3353  0.0899
  416MOL0     O56084   3.545   0.613   5.511 -0.4314 -0.0587  0.3986
  416MOL0     C56085   3.664   0.622   5.585  0.2125 -0.1929 -0.3783
  416MOL0     C56086   3.775   0.678   5.506 -0.2183 -0.7656  0.5861
  416MOL0     C56087   3.893   0.705   5.597 -0.6051 -0.8033 -0.3627
  416MOL0     C56088   4.031   0.730   5.533  0.2445  0.2272  0.1971
  416MOL0     C56089   4.031   0.853   5.449 -0.6976  0.2183  0.1516
  416MOL0     C56090   4.029   0.938   5.361 -0.3291  0.9997  0.3369
  416MOL0     C56091   3.411   0.575   5.716 -0.5063 -0.0074 -0.3241
  416MOL0     C56092   3.292   0.545   5.777 -0.3944  1.4884 -0.6495
  416MOL0     H56093   2.753   0.389   5.513  0.1903 -1.2205 -0.1754
  416MOL0     H56094   2.514   0.367   5.580  0.9897 -0.4427  0.1155
  416MOL0     H56095   2.382   0.514   5.969 -1.0510  0.0568  0.9676
  416MOL0     H56096   2.337   0.649   5.861 -0.6224 -0.5112 -0.7071
  416MOL0     H56097   2.118   0.542   5.797 -2.4634  1.4262  1.6791
  416MOL0     H56098   2.180   0.393   5.854 -2.7802 -0.1192 -1.3215
  416MOL0     H56099   2.126   0.626   6.058 -3.1798  1.3149 -1.8445
  416MOL0     H56100   2.004   0.521   5.994 -0.1683  1.7643  0.0383
  416MOL0     H56101   2.194   0.337   6.108 -0.4933 -1.2854  0.1611
  416MOL0     H56102   2.216   0.477   6.208  0.8213 -2.5341  1.3327
  416MOL0     H56103   2.034   0.360   6.320 -0.0734  1.2810  0.4605
  416MOL0     H56104   1.957   0.490   6.242  0.5427  0.9883  0.9891
  416MOL0     H56105   1.919   0.324   6.040  1.2894  1.2798  0.2072
  416MOL0     H56106   1.984   0.194   6.132 -0.7338 -0.2882  2.1355
  416MOL0     H56107   1.814   0.258   6.317 -1.3780  0.1590  0.0848
  416MOL0     H56108   1.740   0.377   6.207  2.8390  0.6995 -4.3049
  416MOL0     H56109   1.750   0.080   6.192 -0.8402 -0.0793  1.1230
  416MOL0     H56110   1.726   0.181   6.043  2.5910  1.4814  1.6574
  416MOL0     H56111   1.467   0.271   6.015  2.1377  1.7025  2.6488
  416MOL0     H56112   1.161   0.231   6.220  1.8178 -0.5350  1.8878
  416MOL0     H56113   1.224   0.309   6.078  0.3724 -0.1701  0.4212
  416MOL0     H56114   1.223   0.012   6.088 -0.4996 -0.8959 -2.8072
  416MOL0     H56115   1.196   0.107   5.947  0.9723 -0.1458  0.6482
  416MOL0     H56116   1.000   0.032   6.172 -1.2351  0.0928  0.2718
  416MOL0     H56117   0.982  -0.001   5.999  0.4713  0.7994  0.3418
  416MOL0     H56118   0.994   0.266   5.974  3.1450 -0.3329  0.1508
  416MOL0     H56119   0.951   0.268   6.146 -0.8388  1.5805 -1.7008
  416MOL0     H56120   0.812   0.126   6.264 -0.5326 -0.4215  1.6287
  416MOL0     H56121   0.615   0.126   6.503 -0.1606  0.5216 -0.6223
  416MOL0     H56122   0.543  -0.021   6.465  0.5880  0.5951 -0.6144
  416MOL0     H56123   0.703  -0.027   6.451 -2.2532 -2.1026  4.3052
  416MOL0     H56124  -0.016   0.075   6.139  3.0031 -0.3042  0.3902
  416MOL0     H56125  -0.216   0.042   6.254  0.7222  1.0336 -0.6230
  416MOL0     H56126  -0.374   0.018   6.397 -0.7934  1.0751 -0.4064
  416MOL0     H56127  -0.399  -0.139   6.327 -1.9329 -2.4815  2.1910
  416MOL0     H56128  -0.480  -0.202   6.564  1.9169 -1.3479 -2.1887
  416MOL0     H56129  -0.482  -0.016   6.584  1.5402  1.6758 -2.6275
  416MOL0     H56130  -0.694  -0.122   6.528  0.1888 -0.8877  0.8724
  416MOL0     H56131  -0.635  -0.176   6.374  0.5844 -1.7739  1.0626
  416MOL0     H56132  -0.676   0.111   6.469  1.1718  0.0185 -0.7451
  416MOL0     H56133  -0.593   0.064   6.318 -1.5742  1.0025  0.5592
  416MOL0     H56134  -0.823  -0.032   6.240 -1.5842  2.8838 -1.7813
  416MOL0     H56135  -0.838   0.130   6.296 -0.8187  0.3244 -0.0984
  416MOL0     H56136  -0.925  -0.108   6.481  0.1296  0.4987 -0.7490
  416MOL0     H56137  -0.913   0.069   6.517  0.0818 -0.0329  0.1373
  416MOL0     H56138  -1.096  -0.044   6.298  2.0735 -1.8400 -0.4247
  416MOL0     H56139  -1.085   0.123   6.359 -3.6752 -0.7541  0.1159
  416MOL0     H56140  -1.266  -0.014   6.454  0.7473 -1.4952 -1.5527
  416MOL0     H56141  -1.163   0.082   6.562 -2.3480  0.8851 -1.6582
  416MOL0     H56142  -0.015  -0.170   6.567 -3.3562  1.1503  0.7034
  416MOL0     H56143   0.210  -0.116   6.450  0.7769  2.0112  0.7187
  416MOL0     H56144   0.366   0.144   6.056 -0.2137  1.6424  0.8877
  416MOL0     H56145   0.584   0.188   5.922 -0.0133 -1.6153 -0.0110
  416MOL0     H56146   2.577   0.596   5.923  1.7189 -3.1239  1.8336
  416MOL0     H56147   2.812   0.611   5.885  0.9584 -1.1571 -0.6274
  416MOL0     H56148   3.103   0.563   5.492  1.5481  2.9196 -1.5496
  416MOL0     H56149   3.312   0.594   5.391 -1.4249 -1.7460  0.5999
  416MOL0     H56150   3.643   0.686   5.670  0.6956  0.0361 -0.4298
  416MOL0     H56151   3.682   0.515   5.599 -1.3646 -0.5496 -0.8831
  416MOL0     H56152   3.733   0.769   5.462 -2.2079 -1.8450  0.1177
  416MOL0     H56153   3.801   0.607   5.428  0.9485 -1.0966  1.2632
  416MOL0     H56154   3.910   0.621   5.665  1.2211  0.8897  1.4304
  416MOL0     H56155   3.871   0.790   5.662  1.2713  0.3286 -1.1312
  416MOL0     H56156   4.066   0.648   5.471 -0.0617  1.0786 -1.1445
  416MOL0     H56157   4.107   0.755   5.608 -2.3642  1.8790  2.5030
  416MOL0     H56158   4.007   0.979   5.265 -0.4819 -3.6040 -1.8597
  416MOL0     H56159   3.491   0.576   5.790  0.0471  1.1892 -0.9107
  416MOL0     H56160   3.279   0.533   5.884 -0.5106  0.4604 -0.7620
  417MOL0     O56161   9.817   1.063   5.618  0.2397 -0.8132  0.0041
  417MOL0     C56162   9.894   1.032   5.529  0.3796  0.6228  1.0717
  417MOL0     O56163   9.872   1.022   5.392  0.7928 -0.6911 -0.1444
  417MOL0     C56164   9.754   1.074   5.340  0.2543 -0.8562 -0.3263
  417MOL0     C56165   9.645   0.988   5.314  0.2682 -0.2647 -0.1909
  417MOL0     C56166   9.525   1.039   5.274 -0.3396  0.6259 -0.1133
  417MOL0     C56167   9.507   1.166   5.236 -0.3555  0.0415  1.5788
  417MOL0     O56168   9.384   1.211   5.203  0.6409 -0.7006  0.2303
  417MOL0     C56169   9.354   1.354   5.194 -0.0111 -0.3277 -0.0301
  417MOL0     C56170   9.212   1.377   5.140 -0.0990  0.2061  0.3104
  417MOL0     C56171   9.203   1.346   4.993 -0.3506 -0.0012  0.3102
  417MOL0     C56172   9.097   1.420   4.917  0.0875 -0.0013  0.6909
  417MOL0     C56173   8.968   1.366   4.949 -0.0356  0.0855 -0.3937
  417MOL0     C56174   8.862   1.432   4.856  0.1983  0.3887  0.3485
  417MOL0     C56175   8.723   1.426   4.915 -0.1605 -0.3543  0.2263
  417MOL0     C56176   8.686   1.299   4.994 -0.1034  0.3393  0.0272
  417MOL0     N56177   8.650   1.174   4.924 -0.4575  0.4527  0.3380
  417MOL0     C56178   8.723   1.100   4.833 -0.1247 -0.4110  0.1476
  417MOL0     C56179   8.647   0.992   4.804 -0.7147  0.1142 -0.2921
  417MOL0     C56180   8.705   0.881   4.718  0.9960  0.3431 -0.0929
  417MOL0     C56181   8.696   0.909   4.565 -0.3361  0.2052  0.0035
  417MOL0     C56182   8.563   0.946   4.512 -1.3842 -0.4781 -0.0821
  417MOL0     C56183   8.448   0.850   4.551  0.4589 -0.6533  0.0417
  417MOL0     O56184   8.343   0.898   4.457 -0.5189  0.6702 -0.0338
  417MOL0     C56185   8.281   1.016   4.481  1.0367 -0.8092  0.9199
  417MOL0     C56186   8.278   1.099   4.592 -0.6098  0.0306 -0.4903
  417MOL0     C56187   8.217   1.228   4.589 -0.4432 -0.7631  0.1726
  417MOL0     C56188   8.222   1.303   4.723 -0.3202  0.3365  0.3072
  417MOL0     C56189   8.155   1.273   4.471  0.5522 -0.8822 -0.0453
  417MOL0     C56190   8.090   1.409   4.456 -0.4107  0.6825  0.3535
  417MOL0     O56191   8.154   1.516   4.514  0.4964 -0.3331  0.2566
  417MOL0     C56192   8.135   1.643   4.457  0.1717  0.9676  0.5041
  417MOL0     C56193   8.151   1.669   4.320  0.2380  0.0360  0.8863
  417MOL0     C56194   8.149   1.808   4.275  0.1342  0.6172 -0.8296
  417MOL0     C56195   8.140   1.911   4.363  0.1004 -0.3168  0.2298
  417MOL0     O56196   8.163   2.035   4.316 -0.1252 -0.1709 -0.3084
  417MOL0     C56197   8.147   2.148   4.398 -0.2370 -0.4248 -0.7491
  417MOL0     C56198   8.140   2.274   4.310  0.1092 -0.2773  0.6357
  417MOL0     C56199   8.276   2.319   4.238  0.7151 -0.4661 -0.2201
  417MOL0     C56200   8.368   2.385   4.345  0.5731  0.4212 -0.8395
  417MOL0     C56201   8.496   2.434   4.279 -0.5569 -0.4455 -0.0186
  417MOL0     C56202   8.615   2.426   4.366  0.3149  0.0986  0.2767
  417MOL0     C56203   8.743   2.495   4.304  0.2982 -0.0656 -0.5443
  417MOL0     C56204   8.850   2.468   4.411  0.0656  0.7796 -0.5521
  417MOL0    Cl56205   9.002   2.538   4.339 -0.0492  0.1902  0.2415
  417MOL0     C56206   8.124   1.887   4.493 -0.5833 -0.1329 -0.5334
  417MOL0     C56207   8.128   1.753   4.541  0.3620 -0.1170  0.1256
  417MOL0     O56208   7.995   1.415   4.379  0.3081 -0.1288 -0.2979
  417MOL0     C56209   8.137   1.177   4.376 -0.1848 -0.5264  0.2810
  417MOL0     C56210   8.200   1.056   4.371  1.0111  1.1094  0.0255
  417MOL0     N56211   8.534   0.992   4.879 -0.7364 -0.4406  0.1891
  417MOL0     N56212   8.531   1.104   4.940 -0.1997  0.0355 -0.0461
  417MOL0     C56213   9.619   1.251   5.239  1.5671  0.3507  0.2568
  417MOL0     C56214   9.738   1.212   5.303 -0.5033 -0.0098  0.1587
  417MOL0     C56215  10.013   0.964   5.564 -0.0955  0.1043 -0.4405
  417MOL0     C56216  10.098   0.908   5.467 -0.4500 -0.3406 -0.1405
  417MOL0     C56217  10.210   0.834   5.509 -0.2249 -0.3134 -0.6338
  417MOL0     C56218  10.250   0.830   5.643 -0.5553 -0.2261  0.6331
  417MOL0     O56219  10.376   0.777   5.660  0.6265 -0.4765 -0.6467
  417MOL0     C56220  10.447   0.830   5.777  0.4846  0.3552  0.1016
  417MOL0     C56221  10.597   0.785   5.752 -0.0304 -0.8525  0.3686
  417MOL0     C56222  10.693   0.840   5.862  0.3079  0.5982  0.5506
  417MOL0     C56223  10.698   0.990   5.862 -0.4012  0.2013  0.1750
  417MOL0     C56224  10.761   1.035   5.734  0.2608  0.6749  0.3508
  417MOL0     C56225  10.828   1.065   5.634  0.0279  0.2116 -0.8121
  417MOL0     C56226  10.166   0.880   5.740  0.3633  1.1375  0.1131
  417MOL0     C56227  10.048   0.947   5.699  0.3443  0.2350  0.0514
  417MOL0     H56228   9.635   0.886   5.351 -2.8497  0.7640  2.2723
  417MOL0     H56229   9.448   0.963   5.267  0.9261 -0.5254 -2.8970
  417MOL0     H56230   9.362   1.393   5.296  0.7883 -1.8780  0.5270
  417MOL0     H56231   9.418   1.401   5.118 -3.7421 -0.0398 -3.3005
  417MOL0     H56232   9.144   1.316   5.201  0.7158 -0.6668  0.3684
  417MOL0     H56233   9.185   1.479   5.170 -0.6931  0.1625 -0.0568
  417MOL0     H56234   9.300   1.377   4.953  1.5852 -5.5703 -0.1819
  417MOL0     H56235   9.191   1.237   4.986  1.7852 -0.2379 -0.1008
  417MOL0     H56236   9.112   1.529   4.922  1.3314 -0.1639  1.1183
  417MOL0     H56237   9.106   1.402   4.810 -2.1743  1.3553  0.2124
  417MOL0     H56238   8.970   1.259   4.928 -0.8148  0.2816 -1.5539
  417MOL0     H56239   8.943   1.377   5.055 -0.7493  2.2745 -0.7237
  417MOL0     H56240   8.876   1.535   4.824  1.4992  0.2002  0.2681
  417MOL0     H56241   8.863   1.372   4.764  0.0173 -2.1278  1.8778
  417MOL0     H56242   8.710   1.508   4.987 -3.4288 -0.9416  0.4754
  417MOL0     H56243   8.655   1.454   4.834  1.6126 -0.0066 -1.1839
  417MOL0     H56244   8.595   1.332   5.046 -2.2156 -0.0653 -3.1031
  417MOL0     H56245   8.765   1.277   5.066  0.5850 -0.7856 -1.0371
  417MOL0     H56246   8.821   1.132   4.798 -0.8647  0.6589 -0.9871
  417MOL0     H56247   8.810   0.867   4.749  1.7593  2.1174 -1.7081
  417MOL0     H56248   8.657   0.784   4.729 -1.3439  0.9861 -3.3663
  417MOL0     H56249   8.731   0.815   4.523  2.1883  0.0277  2.2120
  417MOL0     H56250   8.771   0.983   4.535  0.4279 -0.6519 -0.2514
  417MOL0     H56251   8.571   0.948   4.403 -0.0646 -2.8486 -0.1127
  417MOL0     H56252   8.529   1.044   4.545 -0.9453 -1.5946  4.3797
  417MOL0     H56253   8.412   0.858   4.654 -0.5756 -2.2901 -0.1673
  417MOL0     H56254   8.465   0.743   4.537  1.2777 -0.1315 -4.3294
  417MOL0     H56255   8.336   1.052   4.671  0.5080 -0.9723 -1.8617
  417MOL0     H56256   8.280   1.396   4.714  2.5794 -1.3963 -0.4393
  417MOL0     H56257   8.120   1.324   4.757 -1.2986 -2.0106 -0.9433
  417MOL0     H56258   8.264   1.234   4.796 -1.2108 -0.7031 -0.1366
  417MOL0     H56259   8.143   1.579   4.260  0.6249  2.0612 -2.4897
  417MOL0     H56260   8.150   1.838   4.171  0.2809  2.6878 -0.2665
  417MOL0     H56261   8.057   2.144   4.460 -0.2089 -1.2483 -0.7556
  417MOL0     H56262   8.234   2.164   4.462 -1.2690  3.5275 -0.0188
  417MOL0     H56263   8.058   2.259   4.238 -0.4169 -1.4047  1.4238
  417MOL0     H56264   8.110   2.354   4.377  2.5992  1.3465 -0.0794
  417MOL0     H56265   8.242   2.379   4.153  0.3483 -0.9691 -0.4379
  417MOL0     H56266   8.322   2.231   4.191  1.3306  0.0485 -0.6051
  417MOL0     H56267   8.320   2.469   4.395  1.6406  1.1240 -0.9483
  417MOL0     H56268   8.387   2.310   4.422  0.9453  1.7721  0.4413
  417MOL0     H56269   8.485   2.539   4.250  0.2536 -0.5819 -0.9216
  417MOL0     H56270   8.517   2.380   4.186 -0.5383  0.2445 -0.4190
  417MOL0     H56271   8.583   2.479   4.457 -3.4021  1.3547 -1.5477
  417MOL0     H56272   8.635   2.319   4.378  0.4669  0.0318 -0.5466
  417MOL0     H56273   8.733   2.603   4.292  0.8354  0.3141  1.8814
  417MOL0     H56274   8.763   2.455   4.204 -1.6940 -3.2567  0.1458
  417MOL0     H56275   8.862   2.365   4.443 -1.5188  1.2845  1.9695
  417MOL0     H56276   8.821   2.515   4.505  2.0441 -2.1165  1.6748
  417MOL0     H56277   8.115   1.966   4.567 -0.2628 -0.4559 -0.1465
  417MOL0     H56278   8.112   1.722   4.644 -2.7020 -0.2262 -0.2737
  417MOL0     H56279   8.076   1.190   4.287  1.7229  0.8675 -0.8947
  417MOL0     H56280   8.183   0.998   4.280 -0.2307  0.8687  0.3910
  417MOL0     H56281   9.623   1.350   5.194 -0.9733  0.6643  0.6175
  417MOL0     H56282   9.812   1.286   5.331  0.4127 -0.7958 -0.1269
  417MOL0     H56283  10.066   0.910   5.364 -2.8228  2.0472  0.5340
  417MOL0     H56284  10.274   0.792   5.432  1.8746 -0.9940  1.3569
  417MOL0     H56285  10.439   0.939   5.774  1.7732  0.5042  1.3334
  417MOL0     H56286  10.408   0.793   5.872  1.0064 -0.1647  0.1231
  417MOL0     H56287  10.631   0.818   5.653  2.0540  1.4092  1.7191
  417MOL0     H56288  10.618   0.678   5.746  0.9017 -0.6890  0.5958
  417MOL0     H56289  10.792   0.798   5.839  0.5265 -0.2382  2.8422
  417MOL0     H56290  10.671   0.811   5.965  2.8213  1.1558  1.3287
  417MOL0     H56291  10.756   1.022   5.950 -0.3538  0.6969 -0.0317
  417MOL0     H56292  10.602   1.040   5.881  0.4802  2.3254 -0.6159
  417MOL0     H56293  10.895   1.090   5.554  2.5446  2.2970  1.7275
  417MOL0     H56294  10.202   0.865   5.841 -1.4455 -1.1907  0.4879
  417MOL0     H56295   9.981   0.977   5.779  0.2874 -0.9027  0.4443
  418MOL0     O56296   9.587   0.712   0.747 -0.5421 -0.3262  0.4766
  418MOL0     C56297   9.499   0.698   0.670 -0.1652 -0.6021  0.3307
  418MOL0     O56298   9.376   0.759   0.681 -0.0278 -0.0688  0.1511
  418MOL0     C56299   9.346   0.825   0.799 -1.0787  0.2339 -0.8893
  418MOL0     C56300   9.352   0.967   0.802  0.1908  1.0004 -0.4830
  418MOL0     C56301   9.325   1.041   0.919  0.1389 -0.4023 -0.5508
  418MOL0     C56302   9.289   0.968   1.031  0.6703 -0.4778  0.7372
  418MOL0     O56303   9.265   1.037   1.147 -0.0644  0.9185 -0.1531
  418MOL0     C56304   9.149   1.125   1.170 -0.1570  0.8128 -0.0681
  418MOL0     C56305   9.093   1.103   1.313 -0.0326  0.4594 -1.1397
  418MOL0     C56306   9.180   1.156   1.432  0.2882  0.4058 -0.0513
  418MOL0     C56307   9.236   1.059   1.533  0.7639 -0.1490  0.2611
  418MOL0     C56308   9.335   0.960   1.472 -0.5709  0.6625 -0.2266
  418MOL0     C56309   9.456   1.017   1.417  0.8135  0.2458  0.1545
  418MOL0     C56310   9.527   0.914   1.318 -0.2687 -0.3165  0.3434
  418MOL0     C56311   9.597   0.988   1.197 -0.0521  0.2775  0.3368
  418MOL0     N56312   9.720   0.930   1.133 -0.1268  0.9964  0.8630
  418MOL0     C56313   9.734   0.848   1.022 -0.1741  0.8794 -0.3361
  418MOL0     C56314   9.865   0.804   1.016 -0.3288 -0.0158  0.0183
  418MOL0     C56315   9.929   0.712   0.917 -0.1116 -1.0549 -0.7371
  418MOL0     C56316   9.997   0.796   0.805  0.0549  0.1485 -0.1422
  418MOL0     C56317   9.901   0.881   0.729  0.4536  0.7457  0.5784
  418MOL0     C56318   9.966   0.914   0.592  1.3210 -0.5299 -1.1395
  418MOL0     O56319   9.888   1.021   0.545 -0.1355  0.0567 -0.1357
  418MOL0     C56320   9.834   1.005   0.426 -0.4165 -0.4862  0.0284
  418MOL0     C56321   9.892   1.084   0.331  0.1672 -0.1958  0.4136
  418MOL0     C56322   9.839   1.091   0.203 -1.2498 -0.5187 -0.2053
  418MOL0     C56323   9.897   1.190   0.105  0.4610  0.0687  0.1662
  418MOL0     C56324   9.727   1.014   0.166 -1.0693  0.0638  0.2471
  418MOL0     C56325   9.648   1.010   0.036  0.3496 -0.2469  0.7272
  418MOL0     O56326   9.710   1.011  -0.081  0.6532 -0.0223  0.5143
  418MOL0     C56327   9.641   0.988  -0.200 -0.8755  0.0365  0.5677
  418MOL0     C56328   9.509   1.024  -0.238  0.2416  0.6951  0.6448
  418MOL0     C56329   9.469   0.998  -0.370 -0.0138 -0.0896 -0.3806
  418MOL0     C56330   9.543   0.917  -0.456 -0.2282  0.1087  0.1067
  418MOL0     O56331   9.482   0.892  -0.576 -0.7359  0.3649 -0.2563
  418MOL0     C56332   9.560   0.830  -0.681  0.5163 -0.6495  0.7003
  418MOL0     C56333   9.484   0.853  -0.809 -0.7972  0.1285 -0.4866
  418MOL0     C56334   9.527   0.751  -0.919  0.7922  0.1642  0.1085
  418MOL0     C56335   9.490   0.802  -1.062 -0.3434  0.9436 -0.6103
  418MOL0     C56336   9.608   0.781  -1.149 -0.4230 -0.0821  0.3110
  418MOL0     C56337   9.589   0.811  -1.299 -0.1618  0.3890  0.3917
  418MOL0     C56338   9.723   0.823  -1.372 -0.2333 -0.8850  0.1172
  418MOL0     C56339   9.697   0.854  -1.522 -0.5996  0.0674 -0.4517
  418MOL0    Cl56340   9.628   0.703  -1.601 -0.1056 -0.1471  0.1278
  418MOL0     C56341   9.676   0.878  -0.422 -0.3849  0.0926 -0.5463
  418MOL0     C56342   9.721   0.915  -0.290  0.8401  0.6105  0.3281
  418MOL0     O56343   9.529   0.996   0.048 -0.2360  0.5035  0.1368
  418MOL0     C56344   9.669   0.937   0.270  0.0026  0.5863 -0.2204
  418MOL0     C56345   9.718   0.935   0.397 -0.0353  0.2991 -0.2848
  418MOL0     N56346   9.926   0.864   1.121  0.0116 -0.7144 -0.3636
  418MOL0     N56347   9.840   0.934   1.191 -0.0309  0.2535 -0.1408
  418MOL0     C56348   9.286   0.831   1.029  0.3055  0.3544 -1.1519
  418MOL0     C56349   9.314   0.754   0.913 -0.5294 -0.7194 -0.5421
  418MOL0     C56350   9.541   0.639   0.535 -0.3550 -1.1155  0.0867
  418MOL0     C56351   9.673   0.614   0.502 -1.3359 -0.2636 -0.0981
  418MOL0     C56352   9.718   0.576   0.372  0.8743  0.3540 -0.0810
  418MOL0     C56353   9.623   0.578   0.272 -0.2351 -0.6133  0.1530
  418MOL0     O56354   9.660   0.567   0.138  0.5111  0.2891 -0.0503
  418MOL0     C56355   9.793   0.610   0.089 -0.2763 -0.1156  0.2450
  418MOL0     C56356   9.799   0.655  -0.055 -0.1051  0.1652  0.0243
  418MOL0     C56357   9.745   0.528  -0.143 -0.1287  0.5814  0.2203
  418MOL0     C56358   9.698   0.570  -0.287 -0.2056 -0.3647  0.0563
  418MOL0     C56359   9.640   0.462  -0.367 -0.8540 -0.5065  0.6444
  418MOL0     C56360   9.602   0.371  -0.438  0.4755  0.4219 -0.3502
  418MOL0     C56361   9.487   0.606   0.292 -0.1050 -0.4903 -0.9239
  418MOL0     C56362   9.447   0.641   0.428 -0.5834  0.3432 -0.2790
  418MOL0     H56363   9.387   1.019   0.714  2.0334 -1.5172 -1.3548
  418MOL0     H56364   9.338   1.148   0.926  0.1051 -0.4219 -0.1581
  418MOL0     H56365   9.177   1.230   1.172 -0.1470  0.8610 -1.5341
  418MOL0     H56366   9.067   1.103   1.100 -1.5450 -1.2539  2.0589
  418MOL0     H56367   8.994   1.149   1.310  0.4184  1.4210 -2.8897
  418MOL0     H56368   9.069   0.997   1.329 -2.4588  1.1216  0.0641
  418MOL0     H56369   9.275   1.198   1.398  0.0182  1.4694  0.4830
  418MOL0     H56370   9.128   1.231   1.491 -0.0694 -0.4461  0.7504
  418MOL0     H56371   9.278   1.100   1.625  0.0461  1.2227  0.0116
  418MOL0     H56372   9.161   0.996   1.582  1.0924  0.3136  1.3942
  418MOL0     H56373   9.369   0.883   1.543  0.7761  2.1778  0.8338
  418MOL0     H56374   9.273   0.904   1.401 -1.2973  1.9695 -0.6492
  418MOL0     H56375   9.445   1.110   1.361  3.0082  2.9396  3.7165
  418MOL0     H56376   9.524   1.045   1.498 -0.1620 -0.5997  1.3011
  418MOL0     H56377   9.601   0.852   1.368 -0.3310 -2.0212 -1.5398
  418MOL0     H56378   9.464   0.838   1.272  0.4196  0.0529 -1.2956
  418MOL0     H56379   9.641   1.078   1.239  0.4689  0.4449 -0.5528
  418MOL0     H56380   9.522   1.017   1.123 -1.3765 -0.0219  1.5146
  418MOL0     H56381   9.646   0.814   0.968 -1.3823  0.3369  1.8577
  418MOL0     H56382  10.000   0.652   0.974 -2.6085  0.5020  4.6280
  418MOL0     H56383   9.853   0.647   0.872  0.9471 -2.6113 -0.3275
  418MOL0     H56384  10.044   0.720   0.742  3.4570  2.2835 -0.4338
  418MOL0     H56385  10.078   0.857   0.847 -0.0053  0.3187 -0.2708
  418MOL0     H56386   9.858   0.960   0.790  1.1878  0.1720  1.8895
  418MOL0     H56387   9.817   0.816   0.703  0.2492  1.0450  0.4941
  418MOL0     H56388   9.950   0.832   0.523 -0.9719 -2.9439  1.9618
  418MOL0     H56389  10.071   0.942   0.609  0.8461 -0.9960  5.2718
  418MOL0     H56390   9.977   1.143   0.364 -0.8195  0.9132  1.0501
  418MOL0     H56391   9.822   1.249   0.051 -2.4373 -2.7384  0.7901
  418MOL0     H56392   9.964   1.256   0.159  1.0431 -0.3259 -0.0627
  418MOL0     H56393   9.953   1.122   0.040  1.6527 -0.0399  1.2595
  418MOL0     H56394   9.449   1.085  -0.170  1.9079  0.9106  1.9933
  418MOL0     H56395   9.370   1.037  -0.391 -1.0141 -2.6955 -0.8725
  418MOL0     H56396   9.660   0.874  -0.683  0.1716  0.1298  0.4614
  418MOL0     H56397   9.556   0.722  -0.663  2.2248 -1.3776 -2.5084
  418MOL0     H56398   9.378   0.847  -0.786 -0.0490 -0.6659  3.4920
  418MOL0     H56399   9.507   0.952  -0.851 -0.7534 -0.9880 -3.3346
  418MOL0     H56400   9.468   0.663  -0.894  0.3355  0.3352 -0.3423
  418MOL0     H56401   9.631   0.720  -0.917  0.6774 -0.1819  1.0027
  418MOL0     H56402   9.406   0.738  -1.092 -1.6494  1.8555  0.9482
  418MOL0     H56403   9.458   0.906  -1.069 -1.1391  0.6462 -1.5164
  418MOL0     H56404   9.633   0.675  -1.150  0.9230  0.1947 -1.8230
  418MOL0     H56405   9.689   0.845  -1.113  0.3042 -0.8281  0.0345
  418MOL0     H56406   9.522   0.736  -1.342  0.1669  0.8100 -0.8855
  418MOL0     H56407   9.531   0.904  -1.302 -0.6108  0.0796 -0.9840
  418MOL0     H56408   9.779   0.732  -1.352 -1.0730 -0.9823  2.3886
  418MOL0     H56409   9.768   0.912  -1.325 -1.1819 -0.8098  0.9399
  418MOL0     H56410   9.791   0.885  -1.569 -0.5436  1.4058  0.4964
  418MOL0     H56411   9.631   0.940  -1.524  0.3520  0.9755  2.2094
  418MOL0     H56412   9.743   0.831  -0.492 -0.5886 -2.1612  0.6739
  418MOL0     H56413   9.819   0.896  -0.247  0.4725 -0.5284  0.7130
  418MOL0     H56414   9.573   0.888   0.255  1.0257 -1.7630  0.3896
  418MOL0     H56415   9.661   0.888   0.477 -0.2512  0.3230 -0.4223
  418MOL0     H56416   9.276   0.780   1.125 -0.6302  0.2596 -1.2913
  418MOL0     H56417   9.321   0.646   0.920 -2.8032 -0.8409  1.7568
  418MOL0     H56418   9.747   0.632   0.580 -1.1735 -1.4298  0.0400
  418MOL0     H56419   9.824   0.557   0.358  1.0695 -0.0874  1.7189
  418MOL0     H56420   9.840   0.677   0.161  0.0324 -0.3418  0.2598
  418MOL0     H56421   9.863   0.525   0.089 -0.9579 -0.7055 -0.7759
  418MOL0     H56422   9.904   0.669  -0.081 -0.1289  1.0780  0.3857
  418MOL0     H56423   9.737   0.745  -0.068 -1.1563 -0.6192 -0.5876
  418MOL0     H56424   9.663   0.478  -0.091  0.2638 -1.1233 -0.7290
  418MOL0     H56425   9.818   0.446  -0.144 -0.7521  0.0201  0.4085
  418MOL0     H56426   9.788   0.622  -0.320  0.6100 -1.3097  0.7513
  418MOL0     H56427   9.613   0.639  -0.276 -0.5648 -0.9308  0.8702
  418MOL0     H56428   9.560   0.291  -0.495 -0.1944  0.3020  0.2834
  418MOL0     H56429   9.411   0.600   0.214  0.4222 -1.0556 -1.4052
  418MOL0     H56430   9.340   0.649   0.444 -1.4684 -0.7931 -4.4242
  419MOL0     O56431   7.109   7.052   3.035  0.0271  0.2929 -1.0732
  419MOL0     C56432   7.211   7.121   3.048 -0.3877  0.3760  0.6241
  419MOL0     O56433   7.222   7.247   3.083  0.6822 -0.0950 -0.6690
  419MOL0     C56434   7.120   7.335   3.115  0.2275 -0.0467  0.2799
  419MOL0     C56435   7.134   7.449   3.203 -0.2426  1.0457  0.4041
  419MOL0     C56436   7.025   7.521   3.251  0.2239  0.1196 -0.2426
  419MOL0     C56437   6.898   7.487   3.208  0.0321 -0.4127 -1.1405
  419MOL0     O56438   6.779   7.560   3.238 -0.3114 -0.1431 -0.9479
  419MOL0     C56439   6.778   7.703   3.203  0.1633  0.0453  0.6174
  419MOL0     C56440   6.634   7.754   3.208  0.3491 -0.9340  0.2008
  419MOL0     C56441   6.623   7.906   3.192  0.4445 -0.1023  0.0105
  419MOL0     C56442   6.474   7.950   3.205  0.0296 -0.8883  0.6458
  419MOL0     C56443   6.467   8.104   3.171  1.1729  0.4045  0.4357
  419MOL0     C56444   6.322   8.147   3.189  0.9265 -0.4734  0.1412
  419MOL0     C56445   6.284   8.282   3.129 -0.0827 -0.8741  0.6720
  419MOL0     C56446   6.145   8.341   3.156  0.5127 -0.3589  0.6525
  419MOL0     N56447   6.040   8.247   3.191  0.1602  0.2340 -0.0736
  419MOL0     C56448   5.955   8.206   3.093 -0.3580 -0.4115  0.1355
  419MOL0     C56449   5.875   8.121   3.156 -0.6228 -0.4443  0.4909
  419MOL0     C56450   5.768   8.044   3.084  0.3441  0.0134  0.7855
  419MOL0     C56451   5.808   7.901   3.092 -0.4812 -0.3359 -0.9305
  419MOL0     C56452   5.708   7.826   2.999 -0.0710 -0.2499 -0.3076
  419MOL0     C56453   5.560   7.852   3.025  0.0417 -0.7779  0.0909
  419MOL0     O56454   5.522   7.806   3.156 -0.5540 -0.1139 -0.0046
  419MOL0     C56455   5.391   7.777   3.166  0.4088  0.8411 -0.1521
  419MOL0     C56456   5.295   7.875   3.147 -0.3080 -0.2925 -0.2218
  419MOL0     C56457   5.163   7.841   3.142  0.1910  0.3677  1.0775
  419MOL0     C56458   5.061   7.948   3.093  0.2477 -0.3874  0.4326
  419MOL0     C56459   5.126   7.707   3.196 -0.1015  0.8845  0.0387
  419MOL0     C56460   4.978   7.659   3.200 -0.8515 -0.8658 -0.6548
  419MOL0     O56461   4.950   7.562   3.302  0.5483 -0.1088  0.2017
  419MOL0     C56462   4.825   7.506   3.289  0.5458  0.0490 -0.5573
  419MOL0     C56463   4.783   7.427   3.186  0.6753 -0.1003  0.7481
  419MOL0     C56464   4.655   7.367   3.182 -0.1829  0.1731  0.5299
  419MOL0     C56465   4.570   7.394   3.285 -0.4628 -0.5185 -0.4471
  419MOL0     O56466   4.453   7.336   3.252  0.1776 -0.7524  0.1831
  419MOL0     C56467   4.344   7.352   3.347 -0.0495  0.0625 -0.0666
  419MOL0     C56468   4.213   7.308   3.288 -0.6777  0.2755 -0.1863
  419MOL0     C56469   4.156   7.426   3.207 -0.1097  0.8659  0.2425
  419MOL0     C56470   4.054   7.503   3.285 -0.7188 -0.1524 -0.0211
  419MOL0     C56471   4.032   7.638   3.215 -0.2081 -0.0863  0.1518
  419MOL0     C56472   3.930   7.627   3.096 -1.3713 -0.1666 -0.1721
  419MOL0     C56473   3.963   7.719   2.978  0.2986  0.8161  0.6374
  419MOL0     C56474   4.109   7.713   2.933  0.6177 -0.2877  0.3108
  419MOL0    Cl56475   4.117   7.779   2.762  0.0782 -0.1283  0.3340
  419MOL0     C56476   4.610   7.472   3.398  0.0968 -0.6912 -0.5334
  419MOL0     C56477   4.739   7.529   3.401 -0.7441  0.3274  0.1584
  419MOL0     O56478   4.896   7.713   3.132  0.7256  0.3830  0.0199
  419MOL0     C56479   5.229   7.612   3.236  0.3709 -0.0796 -0.4356
  419MOL0     C56480   5.363   7.646   3.215  0.3457 -0.7077 -0.7185
  419MOL0     N56481   5.896   8.127   3.292  0.7685 -0.0655 -0.1740
  419MOL0     N56482   5.997   8.203   3.315 -0.4361  0.1570 -0.4426
  419MOL0     C56483   6.875   7.391   3.114 -0.7403 -0.7742  0.0990
  419MOL0     C56484   6.989   7.312   3.073  0.0328 -0.9250 -1.3808
  419MOL0     C56485   7.333   7.051   3.023  0.5756  0.1454  1.2846
  419MOL0     C56486   7.454   7.114   3.055 -0.1981 -0.1585  0.0867
  419MOL0     C56487   7.571   7.044   3.044  0.2742 -0.1640  0.7688
  419MOL0     C56488   7.577   6.918   2.974 -0.8469 -0.1821 -0.2240
  419MOL0     O56489   7.691   6.844   2.946  0.0184  0.2588 -0.8778
  419MOL0     C56490   7.812   6.874   3.019  1.0591 -0.4437  0.2388
  419MOL0     C56491   7.866   6.740   3.065  0.5017 -0.1795  1.2323
  419MOL0     C56492   7.890   6.638   2.958  0.5616 -0.4626 -0.4044
  419MOL0     C56493   7.960   6.514   3.019 -0.1241 -0.2077 -0.2172
  419MOL0     C56494   7.867   6.432   3.100  0.1570 -0.0063  0.4252
  419MOL0     C56495   7.814   6.358   3.175 -1.0757 -0.1084  0.3458
  419MOL0     C56496   7.458   6.859   2.941 -0.2377  0.1605 -0.4367
  419MOL0     C56497   7.335   6.920   2.977  0.4437 -0.1532  0.0342
  419MOL0     H56498   7.233   7.469   3.244 -0.1071  0.3971  0.4102
  419MOL0     H56499   7.032   7.618   3.298  2.4594  0.7446 -1.6865
  419MOL0     H56500   6.840   7.753   3.278  2.3846 -1.5305 -0.0537
  419MOL0     H56501   6.813   7.718   3.101 -2.3744  1.6182 -0.1172
  419MOL0     H56502   6.580   7.707   3.126  1.5365  1.2185 -1.9412
  419MOL0     H56503   6.589   7.735   3.306  0.5373  1.5076  0.8453
  419MOL0     H56504   6.690   7.958   3.260  5.7837 -2.9452 -2.4503
  419MOL0     H56505   6.654   7.927   3.089 -2.7180 -0.0237 -1.0547
  419MOL0     H56506   6.417   7.893   3.132 -2.6857 -2.1447  3.5030
  419MOL0     H56507   6.436   7.931   3.306  0.3056 -0.9930  0.7318
  419MOL0     H56508   6.535   8.165   3.230 -2.0354  0.6167  4.3751
  419MOL0     H56509   6.486   8.104   3.063 -0.9040  0.2822  0.0248
  419MOL0     H56510   6.263   8.070   3.139  1.8665 -2.5554  2.0552
  419MOL0     H56511   6.295   8.138   3.295 -2.3505 -1.7731 -0.6916
  419MOL0     H56512   6.355   8.361   3.156 -2.7761  2.4742 -1.2603
  419MOL0     H56513   6.290   8.264   3.022 -0.5076 -3.2597  0.9904
  419MOL0     H56514   6.114   8.392   3.063  1.6429 -2.1306 -0.7546
  419MOL0     H56515   6.163   8.407   3.241 -0.3687 -0.3773  0.8647
  419MOL0     H56516   5.951   8.231   2.988 -0.3779  2.7707  0.7966
  419MOL0     H56517   5.675   8.065   3.139  0.3885  1.3787  0.3850
  419MOL0     H56518   5.753   8.080   2.982 -2.6483 -1.7539  0.4619
  419MOL0     H56519   5.803   7.851   3.189 -1.8215  0.7784 -0.3843
  419MOL0     H56520   5.912   7.878   3.068  0.4735  0.9856  1.6505
  419MOL0     H56521   5.728   7.719   3.006  2.4510  0.0882 -1.5230
  419MOL0     H56522   5.733   7.855   2.897  1.0680 -2.7224 -0.8047
  419MOL0     H56523   5.511   7.796   2.945  0.2865  0.1984 -0.7685
  419MOL0     H56524   5.533   7.957   3.014  2.8355  0.2096  1.6500
  419MOL0     H56525   5.333   7.973   3.121  0.7900 -0.3528  1.0302
  419MOL0     H56526   5.001   7.925   3.004 -0.8395 -0.4408  1.1563
  419MOL0     H56527   4.989   7.989   3.165 -0.1236 -0.1128 -0.0817
  419MOL0     H56528   5.126   8.032   3.067 -0.5389  0.6158  1.6063
  419MOL0     H56529   4.845   7.391   3.105  0.5760 -2.7817  1.7514
  419MOL0     H56530   4.628   7.318   3.090  1.3376  3.6097 -1.9537
  419MOL0     H56531   4.365   7.305   3.444 -1.8807  1.0026  0.8554
  419MOL0     H56532   4.333   7.457   3.377 -0.6521 -0.2294  0.7790
  419MOL0     H56533   4.231   7.229   3.214  1.0391 -0.0718  0.5469
  419MOL0     H56534   4.143   7.274   3.365 -0.2086 -1.2509 -0.3877
  419MOL0     H56535   4.108   7.378   3.121 -0.1589 -0.3796  0.9411
  419MOL0     H56536   4.237   7.494   3.180  0.3351  1.4522  2.7732
  419MOL0     H56537   3.965   7.438   3.278 -0.1322 -1.3895  2.6517
  419MOL0     H56538   4.078   7.527   3.389  0.8671  0.0673 -0.4291
  419MOL0     H56539   4.125   7.685   3.183 -0.5282  1.4236  1.3302
  419MOL0     H56540   3.988   7.708   3.286  1.7089 -0.0126  1.3549
  419MOL0     H56541   3.927   7.523   3.063 -0.2428  0.4813 -2.5671
  419MOL0     H56542   3.827   7.649   3.126 -1.8955 -0.5122 -1.6647
  419MOL0     H56543   3.933   7.822   2.995 -2.4916  0.2951 -0.5980
  419MOL0     H56544   3.898   7.671   2.904 -0.7090 -0.4968  2.2847
  419MOL0     H56545   4.155   7.615   2.946  0.1826 -0.4392  0.7949
  419MOL0     H56546   4.172   7.783   2.989 -1.7178 -0.9629  4.2032
  419MOL0     H56547   4.545   7.508   3.477  0.7222  1.0520 -0.7720
  419MOL0     H56548   4.768   7.597   3.481 -2.6359 -0.4279  1.5510
  419MOL0     H56549   5.211   7.510   3.268 -1.1994 -0.0291 -1.0856
  419MOL0     H56550   5.448   7.581   3.234  1.7262  1.4412  0.9951
  419MOL0     H56551   6.771   7.378   3.085 -1.2046  1.2417  0.7051
  419MOL0     H56552   6.964   7.230   3.006 -0.7400 -0.9455 -1.0873
  419MOL0     H56553   7.455   7.214   3.097 -2.0122  0.0543 -0.2881
  419MOL0     H56554   7.662   7.094   3.078  1.5912 -0.0734 -2.5076
  419MOL0     H56555   7.881   6.923   2.950  0.5845 -0.6960 -0.4267
  419MOL0     H56556   7.805   6.941   3.104  0.0755  2.4633 -1.9584
  419MOL0     H56557   7.803   6.697   3.142 -0.4080 -2.6667 -0.7802
  419MOL0     H56558   7.963   6.766   3.110  1.3044  1.0966 -1.0474
  419MOL0     H56559   7.958   6.680   2.884 -1.5392  1.7257 -1.2323
  419MOL0     H56560   7.800   6.611   2.901  0.4080  2.0655 -1.5156
  419MOL0     H56561   8.037   6.556   3.084 -1.1306 -0.1712  0.9908
  419MOL0     H56562   8.006   6.453   2.941 -0.1579 -3.2244  1.9605
  419MOL0     H56563   7.775   6.289   3.248  1.5743 -1.8957  0.2060
  419MOL0     H56564   7.446   6.755   2.913  0.0829  0.0756 -0.2719
  419MOL0     H56565   7.238   6.887   2.944 -0.2143  1.2650  0.4863
  420MOL0     O56566   4.680   7.839   4.526  0.1219 -0.5597  0.1472
  420MOL0     C56567   4.635   7.740   4.473 -0.2996 -0.4869 -0.1609
  420MOL0     O56568   4.505   7.698   4.468 -0.3469  0.1025 -0.2053
  420MOL0     C56569   4.412   7.789   4.491  0.8515 -0.8375 -0.2098
  420MOL0     C56570   4.358   7.811   4.619 -0.5420  0.0776  0.2435
  420MOL0     C56571   4.255   7.905   4.647  0.4988  0.6880  0.9617
  420MOL0     C56572   4.205   7.988   4.538 -0.1681  0.3207 -0.1601
  420MOL0     O56573   4.113   8.083   4.559  0.5959 -0.1260 -0.1497
  420MOL0     C56574   4.104   8.139   4.692  0.2120  1.0605  0.4230
  420MOL0     C56575   4.065   8.282   4.656  0.4582 -0.2109  0.2524
  420MOL0     C56576   4.045   8.369   4.777 -0.4435  0.5285 -1.0106
  420MOL0     C56577   3.917   8.328   4.855  0.5321  0.7354 -0.8601
  420MOL0     C56578   3.889   8.415   4.981 -0.3859 -0.1798  0.5571
  420MOL0     C56579   3.762   8.369   5.049 -0.3649  0.0190  0.2711
  420MOL0     C56580   3.744   8.459   5.166  0.0146  0.1969 -0.3737
  420MOL0     C56581   3.642   8.400   5.268  0.1899 -0.7311 -0.5538
  420MOL0     N56582   3.512   8.346   5.214 -0.6558 -0.1363  0.2836
  420MOL0     C56583   3.402   8.421   5.173 -0.4085  0.2253  0.8695
  420MOL0     C56584   3.324   8.337   5.098  0.4129  0.2251  0.0049
  420MOL0     C56585   3.197   8.376   5.020 -0.0276 -1.2549  0.2355
  420MOL0     C56586   3.079   8.404   5.116 -0.6953 -0.4754  0.1221
  420MOL0     C56587   2.953   8.454   5.038 -0.4178 -0.4324  0.5037
  420MOL0     C56588   2.843   8.493   5.142 -0.0275  0.4242 -0.4014
  420MOL0     O56589   2.730   8.568   5.085 -0.0024  0.0362 -0.0388
  420MOL0     C56590   2.629   8.502   5.022 -0.7307 -0.3269 -0.0012
  420MOL0     C56591   2.534   8.589   4.968 -0.2447 -0.8470  0.5868
  420MOL0     C56592   2.416   8.540   4.907 -0.1788  0.2732  0.0847
  420MOL0     C56593   2.327   8.639   4.854 -0.5042 -0.5063 -0.3315
  420MOL0     C56594   2.399   8.402   4.896 -0.7569  0.5926 -0.3392
  420MOL0     C56595   2.292   8.331   4.823  0.2330  0.0988  0.1253
  420MOL0     O56596   2.252   8.397   4.709 -0.3966  0.5622  0.0060
  420MOL0     C56597   2.196   8.311   4.621  0.2435  0.1643 -0.2770
  420MOL0     C56598   2.061   8.269   4.631  0.0693 -0.1907 -0.4117
  420MOL0     C56599   2.012   8.180   4.539 -0.1216 -0.0552  0.5746
  420MOL0     C56600   2.096   8.125   4.438  0.8175 -0.3312  0.2570
  420MOL0     O56601   2.038   8.043   4.345 -0.2887 -0.3409  0.3038
  420MOL0     C56602   2.106   7.960   4.249  0.2731  0.0250  0.9520
  420MOL0     C56603   2.011   7.855   4.196  0.1472 -0.8144 -0.7922
  420MOL0     C56604   2.066   7.728   4.141 -0.7239  0.3204 -0.4346
  420MOL0     C56605   2.107   7.743   3.998  0.0135 -0.3433 -0.4658
  420MOL0     C56606   2.168   7.616   3.928  0.0437  0.0608  0.0177
  420MOL0     C56607   2.317   7.590   3.941 -0.4206  0.6837  0.9734
  420MOL0     C56608   2.368   7.464   3.864 -0.0583 -0.4834  0.4156
  420MOL0     C56609   2.511   7.420   3.908  0.0858 -0.4773  0.5916
  420MOL0    Cl56610   2.624   7.555   3.848 -0.1887 -0.4626  0.2281
  420MOL0     C56611   2.229   8.171   4.428  0.6388 -0.8473 -1.1035
  420MOL0     C56612   2.277   8.263   4.526 -0.5638 -0.2462 -0.2153
  420MOL0     O56613   2.261   8.210   4.847  0.1738 -0.3737  0.0643
  420MOL0     C56614   2.491   8.315   4.955 -0.8378 -0.2156  0.0210
  420MOL0     C56615   2.610   8.367   5.019  0.0241 -0.1805  0.6216
  420MOL0     N56616   3.383   8.216   5.103 -0.0232 -0.4234 -0.6348
  420MOL0     N56617   3.493   8.217   5.170  0.7194 -0.5348  0.0909
  420MOL0     C56618   4.265   7.974   4.406 -0.6355 -0.5965  0.0742
  420MOL0     C56619   4.363   7.871   4.389 -0.0135 -0.7140  0.4324
  420MOL0     C56620   4.744   7.657   4.416 -0.2916 -0.5312 -0.7452
  420MOL0     C56621   4.878   7.689   4.443 -0.6386 -0.3521  0.4761
  420MOL0     C56622   4.988   7.616   4.397 -0.8511  0.5641 -0.6131
  420MOL0     C56623   4.965   7.493   4.336 -0.0684 -1.0484  0.9908
  420MOL0     O56624   5.075   7.413   4.310 -0.2019  0.2088  0.6489
  420MOL0     C56625   5.054   7.273   4.298  0.3744 -0.7071 -0.1558
  420MOL0     C56626   5.166   7.200   4.356 -0.3695  0.0030 -0.1687
  420MOL0     C56627   5.147   7.196   4.509 -0.0593  0.4606 -0.6917
  420MOL0     C56628   5.239   7.111   4.597  0.2074 -0.5350  0.1497
  420MOL0     C56629   5.297   7.004   4.524 -0.0279 -0.3392 -0.6603
  420MOL0     C56630   5.342   6.906   4.458  0.5112 -1.3242  0.8567
  420MOL0     C56631   4.832   7.453   4.310 -0.3821  0.5795  0.7012
  420MOL0     C56632   4.720   7.542   4.343 -0.5419  0.0669 -0.1712
  420MOL0     H56633   4.403   7.761   4.705  0.2214  0.1865 -0.0832
  420MOL0     H56634   4.217   7.906   4.748  0.4025 -1.6485  1.0187
  420MOL0     H56635   4.032   8.076   4.745 -0.9884 -0.0197 -2.2794
  420MOL0     H56636   4.203   8.139   4.740 -0.0596  0.4729  0.9930
  420MOL0     H56637   4.136   8.328   4.586 -1.7444 -0.3643 -2.2658
  420MOL0     H56638   3.969   8.284   4.604  0.4700 -0.8305  0.1994
  420MOL0     H56639   4.135   8.366   4.839 -1.3075 -2.4329  0.2617
  420MOL0     H56640   4.023   8.471   4.744 -1.3082  0.2676 -1.2454
  420MOL0     H56641   3.831   8.331   4.788  1.2275  1.5895 -1.7328
  420MOL0     H56642   3.917   8.227   4.897 -2.4791  1.3684  0.9863
  420MOL0     H56643   3.971   8.410   5.053 -0.6015  3.0988  1.1797
  420MOL0     H56644   3.891   8.520   4.949  5.6985  0.4267  1.7370
  420MOL0     H56645   3.682   8.362   4.975  0.2856 -1.9446 -0.3028
  420MOL0     H56646   3.774   8.269   5.091  1.4936  0.2922  0.4827
  420MOL0     H56647   3.841   8.479   5.211 -0.0783  0.7424 -0.4158
  420MOL0     H56648   3.713   8.553   5.120  0.3272  1.1204  1.2439
  420MOL0     H56649   3.627   8.483   5.338  0.6590 -0.1374 -1.1461
  420MOL0     H56650   3.692   8.320   5.322  1.8765 -0.4972 -1.6948
  420MOL0     H56651   3.393   8.529   5.184  0.9619  0.4757 -0.1407
  420MOL0     H56652   3.211   8.465   4.958 -1.5031 -1.5769 -0.6119
  420MOL0     H56653   3.165   8.294   4.955  0.4579 -1.6037  0.4255
  420MOL0     H56654   3.111   8.492   5.173 -0.0323 -0.2070 -0.6488
  420MOL0     H56655   3.059   8.320   5.184  2.0972 -1.1379  0.2745
  420MOL0     H56656   2.906   8.368   4.989 -0.8687  0.1206 -0.0532
  420MOL0     H56657   2.985   8.535   4.972  0.8757 -1.0438  0.3480
  420MOL0     H56658   2.892   8.550   5.221 -0.9081 -0.9464  1.2016
  420MOL0     H56659   2.811   8.396   5.183  1.4663  0.4125  0.8283
  420MOL0     H56660   2.559   8.694   4.955 -1.4210 -0.8071 -2.0284
  420MOL0     H56661   2.361   8.740   4.882 -2.4108  0.5258 -1.4983
  420MOL0     H56662   2.334   8.629   4.745  0.4954  0.7579 -0.4148
  420MOL0     H56663   2.224   8.642   4.890 -1.0692  2.2133 -1.8325
  420MOL0     H56664   2.006   8.301   4.719  1.2486  1.8651 -0.3407
  420MOL0     H56665   1.916   8.129   4.534 -0.4875  0.6060  0.7532
  420MOL0     H56666   2.133   8.010   4.156 -0.7903 -3.2462 -1.3024
  420MOL0     H56667   2.201   7.922   4.287  2.1478  0.5324 -2.7546
  420MOL0     H56668   1.946   7.830   4.280 -1.0884 -0.0182 -1.4876
  420MOL0     H56669   1.941   7.904   4.128 -0.4361  0.6935  0.7914
  420MOL0     H56670   2.003   7.638   4.141 -0.8606  0.4031 -1.7489
  420MOL0     H56671   2.159   7.697   4.190 -0.0580 -0.0093 -1.8480
  420MOL0     H56672   2.023   7.776   3.937  0.3026  1.6316  0.1357
  420MOL0     H56673   2.172   7.831   4.002 -0.1531 -0.2518  0.5556
  420MOL0     H56674   2.160   7.634   3.821 -3.7003  0.5558  0.2456
  420MOL0     H56675   2.121   7.521   3.956 -2.1144  0.8942 -0.5836
  420MOL0     H56676   2.373   7.672   3.895 -1.7202  0.2663 -1.5452
  420MOL0     H56677   2.349   7.573   4.044  1.2624  0.5988  0.4566
  420MOL0     H56678   2.375   7.481   3.756 -1.0773  4.6971  0.8970
  420MOL0     H56679   2.296   7.383   3.879 -0.2184 -0.9059 -2.2130
  420MOL0     H56680   2.542   7.331   3.853 -2.2483 -0.9650 -0.0682
  420MOL0     H56681   2.522   7.409   4.016  5.4195  0.2013  0.3578
  420MOL0     H56682   2.301   8.136   4.355 -1.7082 -2.6987 -2.6757
  420MOL0     H56683   2.378   8.302   4.531 -0.3272 -1.0001  2.3030
  420MOL0     H56684   2.479   8.208   4.969 -0.0475  0.0448  3.8201
  420MOL0     H56685   2.675   8.291   5.061 -0.0441 -0.6001 -0.0250
  420MOL0     H56686   4.234   8.041   4.327  1.5809 -2.3689 -2.5074
  420MOL0     H56687   4.397   7.852   4.288  0.0894 -0.5835  0.4427
  420MOL0     H56688   4.904   7.784   4.488 -0.0769 -0.8970  1.3217
  420MOL0     H56689   5.093   7.638   4.407  0.1881 -2.8473 -2.5047
  420MOL0     H56690   4.965   7.247   4.357  0.9651  0.5484  1.3628
  420MOL0     H56691   5.040   7.252   4.192  1.1986 -0.5424 -0.3012
  420MOL0     H56692   5.258   7.251   4.325  0.8444 -1.6474  0.5737
  420MOL0     H56693   5.161   7.101   4.311  0.0799 -1.0244  1.9096
  420MOL0     H56694   5.046   7.166   4.540  0.3676  0.3553  0.7008
  420MOL0     H56695   5.169   7.296   4.547 -2.6787  0.4546  1.1035
  420MOL0     H56696   5.185   7.085   4.689  2.8006 -2.7801  1.1814
  420MOL0     H56697   5.326   7.175   4.620  1.1716 -1.6324 -0.3410
  420MOL0     H56698   5.395   6.840   4.393  0.9313 -1.9413  1.8048
  420MOL0     H56699   4.809   7.359   4.262 -0.6009  1.0385 -0.1108
  420MOL0     H56700   4.621   7.502   4.329  0.0369 -2.2861  1.9135
  421MOL0     O56701   1.713   8.603   5.210  0.4031  0.3686 -0.3554
  421MOL0     C56702   1.643   8.535   5.284  0.2028 -0.7879 -0.2805
  421MOL0     O56703   1.682   8.410   5.345 -0.1386  0.1961  0.1850
  421MOL0     C56704   1.816   8.377   5.357 -0.0886 -0.1747  0.2653
  421MOL0     C56705   1.928   8.455   5.351  0.5799 -0.2071  0.2311
  421MOL0     C56706   2.047   8.417   5.406 -0.4589 -0.0441 -0.6298
  421MOL0     C56707   2.064   8.289   5.457 -0.6215 -0.0939  0.1816
  421MOL0     O56708   2.187   8.256   5.516 -0.0371  0.2878  0.3961
  421MOL0     C56709   2.230   8.122   5.485 -0.1429  0.4381  0.4520
  421MOL0     C56710   2.359   8.102   5.561 -0.0680 -0.1171 -0.0375
  421MOL0     C56711   2.399   7.955   5.576 -0.3842  0.5693 -0.3427
  421MOL0     C56712   2.491   7.945   5.697  1.2871  0.4725  0.2390
  421MOL0     C56713   2.567   7.810   5.676  0.3401 -0.0671  0.5696
  421MOL0     C56714   2.647   7.763   5.797  0.6557 -0.2369 -0.4276
  421MOL0     C56715   2.721   7.626   5.779 -0.1489  0.5356 -0.6995
  421MOL0     C56716   2.788   7.571   5.906 -0.2945  0.0889 -0.1527
  421MOL0     N56717   2.877   7.671   5.969 -0.5307  0.2809 -0.2528
  421MOL0     C56718   3.003   7.712   5.920  0.6054 -0.5629  0.4682
  421MOL0     C56719   3.054   7.811   5.994 -0.2879  0.1173  0.6829
  421MOL0     C56720   3.191   7.872   5.997 -0.5148  0.1628  0.2118
  421MOL0     C56721   3.186   7.989   6.099  0.4041  0.1236 -0.3098
  421MOL0     C56722   3.298   8.091   6.076  0.4847 -0.8740  0.4544
  421MOL0     C56723   3.247   8.208   5.989  0.6492 -0.4702  0.2207
  421MOL0     O56724   3.194   8.160   5.864 -0.1549 -0.1796 -0.0932
  421MOL0     C56725   3.076   8.221   5.816 -0.3174  0.3712  0.1661
  421MOL0     C56726   3.000   8.154   5.723 -0.6806 -0.1631 -1.5569
  421MOL0     C56727   2.892   8.201   5.654 -0.0220 -0.4154  0.0617
  421MOL0     C56728   2.813   8.107   5.564  0.3672 -0.3812  0.1667
  421MOL0     C56729   2.857   8.337   5.676  0.6183  0.3843 -0.5137
  421MOL0     C56730   2.748   8.406   5.604  0.2936 -0.0234  1.0995
  421MOL0     O56731   2.759   8.421   5.471  0.2030  0.6215 -0.0917
  421MOL0     C56732   2.647   8.456   5.412 -0.7191 -0.2672 -0.4531
  421MOL0     C56733   2.626   8.595   5.397  0.5275 -0.8568  0.0061
  421MOL0     C56734   2.514   8.648   5.336 -0.1397 -0.3741 -0.5511
  421MOL0     C56735   2.406   8.572   5.292  0.6056 -0.3352  0.2213
  421MOL0     O56736   2.289   8.607   5.231  0.4523 -0.1422  0.3997
  421MOL0     C56737   2.259   8.741   5.188  0.3076 -0.0620  0.2759
  421MOL0     C56738   2.111   8.745   5.159 -0.1521  0.1174  0.1069
  421MOL0     C56739   2.049   8.879   5.116 -0.8512 -0.2657  0.7938
  421MOL0     C56740   1.913   8.862   5.036  0.0639  0.8562  0.0034
  421MOL0     C56741   1.845   8.996   5.010  0.2254 -0.3462 -0.1836
  421MOL0     C56742   1.724   8.980   4.908 -0.7008 -0.3854  0.0526
  421MOL0     C56743   1.592   8.976   4.985  0.3659  0.0888 -0.1364
  421MOL0     C56744   1.472   8.959   4.889  0.1444 -0.1263 -0.2019
  421MOL0    Cl56745   1.429   9.120   4.830 -0.1200  0.0331  0.3750
  421MOL0     C56746   2.428   8.437   5.305 -0.4416 -0.3495 -0.5284
  421MOL0     C56747   2.548   8.375   5.357  0.1071 -0.1793 -0.0849
  421MOL0     O56748   2.666   8.459   5.674  0.6558  0.2830  0.2786
  421MOL0     C56749   2.948   8.415   5.759  0.0949 -0.2784  0.1004
  421MOL0     C56750   3.057   8.357   5.827  0.0821 -0.1335  0.2104
  421MOL0     N56751   2.955   7.820   6.099 -0.1538  0.7833  0.2218
  421MOL0     N56752   2.851   7.751   6.074 -0.0978  0.2357  0.0203
  421MOL0     C56753   1.944   8.204   5.463 -0.8011  0.7790  0.6437
  421MOL0     C56754   1.825   8.245   5.412 -0.8175  0.3856  0.9220
  421MOL0     C56755   1.497   8.575   5.287 -0.4128 -0.0475  0.3877
  421MOL0     C56756   1.434   8.669   5.201 -0.3570  0.3239 -0.1309
  421MOL0     C56757   1.304   8.709   5.244  0.0074 -1.3946  0.2971
  421MOL0     C56758   1.221   8.632   5.314  0.0861  0.1663 -0.2891
  421MOL0     O56759   1.089   8.674   5.315 -0.0958  0.4641  0.7351
  421MOL0     C56760   0.994   8.602   5.395  0.3174  0.0629  0.1526
  421MOL0     C56761   0.857   8.676   5.383 -0.4065 -0.9288 -0.0971
  421MOL0     C56762   0.780   8.608   5.267  0.0728  0.2984 -0.2920
  421MOL0     C56763   0.651   8.685   5.229 -0.1835  0.7274 -0.0708
  421MOL0     C56764   0.585   8.751   5.347 -0.6080  0.4128  0.3786
  421MOL0     C56765   0.520   8.817   5.427  0.0004  0.9204  0.6919
  421MOL0     C56766   1.279   8.520   5.375  0.5563  0.2514  0.2059
  421MOL0     C56767   1.415   8.490   5.367  0.1664 -0.7440  0.0576
  421MOL0     H56768   1.918   8.556   5.313  0.5436 -0.6446 -0.9533
  421MOL0     H56769   2.126   8.487   5.429  0.5189 -1.0794 -0.7697
  421MOL0     H56770   2.151   8.053   5.516 -3.3819  1.9710 -3.4437
  421MOL0     H56771   2.234   8.101   5.378 -1.6004  0.9679  0.2679
  421MOL0     H56772   2.439   8.151   5.506 -0.2204  1.0240  0.7403
  421MOL0     H56773   2.334   8.151   5.655 -0.3574 -0.8096  0.2576
  421MOL0     H56774   2.313   7.888   5.581  1.0187 -1.3455 -0.8509
  421MOL0     H56775   2.436   7.922   5.479  0.3024  1.1776 -0.2969
  421MOL0     H56776   2.567   8.022   5.709  0.1355  1.5012  1.3324
  421MOL0     H56777   2.427   7.944   5.786 -0.6242  0.0842 -1.0836
  421MOL0     H56778   2.495   7.730   5.656 -1.2325  1.2722  0.6645
  421MOL0     H56779   2.637   7.814   5.592  2.2542 -0.2332  2.0881
  421MOL0     H56780   2.721   7.833   5.836  2.3482 -1.9746 -0.3317
  421MOL0     H56781   2.573   7.749   5.877  0.1715  2.1958 -0.3743
  421MOL0     H56782   2.650   7.549   5.748  4.7796 -4.5777 -1.1056
  421MOL0     H56783   2.794   7.639   5.698  1.7397  0.4897  0.9170
  421MOL0     H56784   2.842   7.481   5.875 -0.5873  0.2679 -1.2271
  421MOL0     H56785   2.706   7.536   5.969  0.4742 -0.4937  0.5482
  421MOL0     H56786   3.053   7.663   5.837  1.3135  0.5555  0.2041
  421MOL0     H56787   3.269   7.801   6.024 -1.9384 -0.9591  1.5071
  421MOL0     H56788   3.211   7.912   5.897  0.9205  1.7208  1.0635
  421MOL0     H56789   3.196   7.950   6.201 -1.5058  0.2738 -0.0252
  421MOL0     H56790   3.091   8.042   6.094 -0.3312 -1.1802 -0.8817
  421MOL0     H56791   3.387   8.058   6.020  1.8148  1.9846  0.7248
  421MOL0     H56792   3.333   8.131   6.172  0.4422  1.4034 -0.4162
  421MOL0     H56793   3.325   8.284   5.974 -1.2388  1.6912  0.9188
  421MOL0     H56794   3.165   8.249   6.048  2.9153  0.4427  2.9510
  421MOL0     H56795   3.021   8.048   5.714 -2.2532 -0.6768  0.2787
  421MOL0     H56796   2.727   8.143   5.508 -1.7589 -3.6272  1.0497
  421MOL0     H56797   2.882   8.055   5.497  2.0150  1.0464  0.6844
  421MOL0     H56798   2.781   8.030   5.635  1.4793  1.3757  2.7556
  421MOL0     H56799   2.695   8.670   5.435  0.0520 -0.3365 -0.1547
  421MOL0     H56800   2.510   8.756   5.331  4.2384 -0.1029 -1.7523
  421MOL0     H56801   2.291   8.830   5.243  1.2967  0.1678 -0.6333
  421MOL0     H56802   2.302   8.765   5.090 -2.5945  1.3067 -0.7773
  421MOL0     H56803   2.102   8.669   5.081  0.2894 -0.1038  0.2655
  421MOL0     H56804   2.049   8.713   5.244  0.0713 -1.8581 -0.4063
  421MOL0     H56805   2.115   8.944   5.058  0.1528 -2.2419 -0.3818
  421MOL0     H56806   2.035   8.923   5.215  0.1475  0.1708  0.7500
  421MOL0     H56807   1.941   8.813   4.942 -0.9124  1.2050 -0.4863
  421MOL0     H56808   1.849   8.800   5.099 -0.3047 -0.3205 -1.4610
  421MOL0     H56809   1.913   9.073   4.973 -0.9360 -0.0794 -1.8469
  421MOL0     H56810   1.809   9.022   5.110 -0.5414 -1.5029 -0.1359
  421MOL0     H56811   1.724   9.067   4.842  0.2586 -1.7635 -1.8778
  421MOL0     H56812   1.739   8.897   4.839 -0.0038  2.5320 -3.6073
  421MOL0     H56813   1.586   9.070   5.041  1.4190 -0.2930  0.6589
  421MOL0     H56814   1.600   8.893   5.057  2.3424 -1.0049 -1.5221
  421MOL0     H56815   1.380   8.933   4.943  0.4111  3.3757  2.3238
  421MOL0     H56816   1.501   8.885   4.814  0.0351 -0.5944  0.2134
  421MOL0     H56817   2.348   8.371   5.272 -1.4460  2.2447 -3.8444
  421MOL0     H56818   2.557   8.267   5.351 -1.6139 -0.2662 -2.1404
  421MOL0     H56819   2.934   8.522   5.776  2.1510  0.0255  0.2291
  421MOL0     H56820   3.127   8.427   5.871 -0.8199  1.3935 -0.6864
  421MOL0     H56821   1.961   8.118   5.527  0.1794  1.6841  1.6480
  421MOL0     H56822   1.734   8.191   5.437  0.6792 -2.3946  0.7398
  421MOL0     H56823   1.482   8.727   5.123 -1.1724 -1.6584 -2.2412
  421MOL0     H56824   1.258   8.799   5.204 -2.6662 -0.7909  4.1633
  421MOL0     H56825   0.979   8.494   5.382 -0.7068 -0.1908  2.7027
  421MOL0     H56826   1.016   8.616   5.502 -1.6076 -1.4466  0.8086
  421MOL0     H56827   0.873   8.779   5.350  3.7967 -2.0748 -2.4598
  421MOL0     H56828   0.806   8.671   5.479 -0.4726  0.6634 -0.0280
  421MOL0     H56829   0.760   8.507   5.303  0.8792  0.4455  0.5813
  421MOL0     H56830   0.846   8.603   5.180  2.7667  1.9426  1.4848
  421MOL0     H56831   0.578   8.613   5.190 -1.8334  1.9841  0.5326
  421MOL0     H56832   0.672   8.768   5.161  0.5863  2.0137  1.6623
  421MOL0     H56833   0.465   8.880   5.494 -1.4773  1.5537 -1.0744
  421MOL0     H56834   1.220   8.453   5.437  0.6706  0.0700  0.1192
  421MOL0     H56835   1.452   8.412   5.432  0.2414 -0.9162 -0.1922
  422MOL0     O56836   1.361   8.373  10.850 -0.2206  0.7301  0.1890
  422MOL0     C56837   1.443   8.463  10.854  0.1461 -0.1620  0.7248
  422MOL0     O56838   1.426   8.597  10.878 -0.4544 -0.3132  0.3087
  422MOL0     C56839   1.299   8.655  10.868  0.2756 -0.1985 -1.2403
  422MOL0     C56840   1.284   8.773  10.798  0.2210  0.3524 -0.4295
  422MOL0     C56841   1.153   8.820  10.782 -0.6225 -0.6744  1.1076
  422MOL0     C56842   1.037   8.772  10.847 -0.6638  0.7587  0.5246
  422MOL0     O56843   0.907   8.829  10.827 -0.3342  0.5558  0.4548
  422MOL0     C56844   0.906   8.967  10.774 -0.3820 -0.1711 -0.0442
  422MOL0     C56845   0.761   9.019  10.802  0.1338  1.4180  0.3838
  422MOL0     C56846   0.704   8.995  10.943 -0.3883  0.1529  0.3459
  422MOL0     C56847   0.640   9.120  11.003 -0.5384 -0.4996  0.2625
  422MOL0     C56848   0.516   9.152  10.918 -0.7417  0.8304 -0.4053
  422MOL0     C56849   0.403   9.054  10.937 -0.4663 -0.2851  0.0408
  422MOL0     C56850   0.268   9.099  10.886 -0.2420 -0.2801 -0.1332
  422MOL0     C56851   0.160   9.000  10.903 -0.9532  0.4769 -0.5174
  422MOL0     N56852   0.165   8.926  11.032  0.3647 -0.2461 -0.5712
  422MOL0     C56853   0.138   8.980  11.155 -0.3611  0.5825 -0.3904
  422MOL0     C56854   0.143   8.868  11.231 -0.3618 -0.5322 -0.1126
  422MOL0     C56855   0.116   8.864  11.377 -0.1790  0.1635  0.4484
  422MOL0     C56856   0.165   8.981  11.453  0.4083  0.2397  0.5975
  422MOL0     C56857   0.162   8.970  11.601 -0.1115  0.5441  0.5986
  422MOL0     C56858   0.027   8.949  11.670 -0.6391  0.1524 -0.4966
  422MOL0     O56859  -0.032   8.815  11.648  0.2013 -0.1491  0.7878
  422MOL0     C56860  -0.152   8.793  11.719 -0.2425  0.0865 -0.0011
  422MOL0     C56861  -0.224   8.886  11.796 -0.8867 -0.4738  0.1393
  422MOL0     C56862  -0.322   8.837  11.889  0.2576  0.5441  0.8055
  422MOL0     C56863  -0.373   8.938  11.991  0.2968  0.7944  0.3086
  422MOL0     C56864  -0.369   8.703  11.877  0.7122  0.1646 -0.7206
  422MOL0     C56865  -0.492   8.648  11.950 -0.6442  0.7149 -0.4571
  422MOL0     O56866  -0.536   8.534  11.889  0.4142  0.2857 -0.2439
  422MOL0     C56867  -0.619   8.464  11.969  0.8472  0.1273  0.0715
  422MOL0     C56868  -0.755   8.496  11.968  0.2596  0.7063  0.7327
  422MOL0     C56869  -0.848   8.403  12.027  0.2195 -0.1521 -0.3186
  422MOL0     C56870  -0.792   8.288  12.091  1.0436 -0.5677 -0.0519
  422MOL0     O56871  -0.881   8.191  12.138  0.7484  0.0997  0.5901
  422MOL0     C56872  -1.029   8.198  12.115  1.2654 -0.4313  0.6956
  422MOL0     C56873  -1.112   8.097  12.193  0.0096 -0.4353 -0.4914
  422MOL0     C56874  -1.089   7.957  12.133  0.3703  0.2203  0.4630
  422MOL0     C56875  -1.177   7.853  12.209  0.5166 -0.0780 -0.2542
  422MOL0     C56876  -1.336   7.875  12.192 -0.4263  0.5219  0.3552
  422MOL0     C56877  -1.413   7.759  12.272  0.6411 -0.7172 -0.0827
  422MOL0     C56878  -1.563   7.747  12.242  1.1759  0.7016  0.0110
  422MOL0     C56879  -1.594   7.657  12.119  0.0084  0.0516 -0.0971
  422MOL0    Cl56880  -1.493   7.701  11.973  0.1594  0.2361  0.2049
  422MOL0     C56881  -0.659   8.277  12.112  0.2508 -1.0571 -0.4703
  422MOL0     C56882  -0.564   8.359  12.039  0.0179  0.0766  0.1559
  422MOL0     O56883  -0.543   8.705  12.050 -0.4619  0.6168 -0.2026
  422MOL0     C56884  -0.295   8.621  11.794 -0.6295  0.1109  0.0511
  422MOL0     C56885  -0.185   8.659  11.730 -0.1670 -0.5146 -0.1121
  422MOL0     N56886   0.189   8.754  11.158  0.2751 -0.3312  0.1576
  422MOL0     N56887   0.187   8.786  11.030 -0.4781  0.3529 -0.1952
  422MOL0     C56888   1.055   8.650  10.906  0.2543 -0.4268 -0.8089
  422MOL0     C56889   1.176   8.596  10.924 -0.1474 -0.4939  0.2357
  422MOL0     C56890   1.580   8.430  10.822  0.1825  1.6971  0.3101
  422MOL0     C56891   1.622   8.300  10.778  0.1706 -0.8820 -0.4060
  422MOL0     C56892   1.754   8.267  10.738  0.0821 -0.2006 -1.0325
  422MOL0     C56893   1.847   8.368  10.742 -0.3478  0.7389  0.1113
  422MOL0     O56894   1.977   8.351  10.699 -0.3736  0.4690  0.4127
  422MOL0     C56895   2.008   8.232  10.618 -0.2579 -0.2591 -1.0378
  422MOL0     C56896   2.111   8.275  10.518  0.2849  0.2898  0.0152
  422MOL0     C56897   2.248   8.239  10.565  0.4275  0.6671  0.6222
  422MOL0     C56898   2.277   8.090  10.575  0.0570  0.0326  0.4244
  422MOL0     C56899   2.421   8.059  10.576  0.5439 -1.0243 -0.0336
  422MOL0     C56900   2.544   8.040  10.591  0.5592 -0.2222 -0.2092
  422MOL0     C56901   1.809   8.498  10.784 -0.1286 -0.4267 -0.2386
  422MOL0     C56902   1.683   8.520  10.838  0.0745 -0.7152  0.5402
  422MOL0     H56903   1.361   8.823  10.741 -1.7227  0.7709 -2.8719
  422MOL0     H56904   1.137   8.898  10.708 -1.9631 -2.6083 -0.7724
  422MOL0     H56905   0.978   9.033  10.824  1.3730 -0.7384 -1.7051
  422MOL0     H56906   0.930   8.964  10.667 -2.1064  0.6285 -0.4924
  422MOL0     H56907   0.754   9.125  10.774 -2.8536  2.3050  3.7059
  422MOL0     H56908   0.702   8.962  10.730 -0.8124  0.6414  1.7239
  422MOL0     H56909   0.634   8.911  10.943 -4.6822  3.3863 -0.2549
  422MOL0     H56910   0.793   8.963  10.998 -1.0317 -0.1439  1.2342
  422MOL0     H56911   0.603   9.085  11.100  0.0092 -2.8737 -0.3108
  422MOL0     H56912   0.700   9.210  11.017 -2.5624  0.6220  2.4469
  422MOL0     H56913   0.487   9.257  10.928 -0.6920  0.8002  0.0685
  422MOL0     H56914   0.549   9.149  10.814 -1.8599  0.5836 -0.7616
  422MOL0     H56915   0.436   8.956  10.901 -1.5823 -0.5157 -0.4333
  422MOL0     H56916   0.382   9.045  11.044 -3.6993  0.7978 -0.4031
  422MOL0     H56917   0.252   9.186  10.950  1.5593 -0.3828  0.5037
  422MOL0     H56918   0.283   9.121  10.779  0.2986 -3.8866 -0.9222
  422MOL0     H56919   0.158   8.918  10.831 -1.4925  0.9624 -1.0707
  422MOL0     H56920   0.070   9.062  10.900  0.3136  2.3919 -2.1604
  422MOL0     H56921   0.100   9.079  11.176 -0.3855  0.3126  0.9278
  422MOL0     H56922   0.009   8.854  11.400 -0.3159  0.9623  0.1897
  422MOL0     H56923   0.164   8.773  11.413 -1.4341 -0.2476  1.1747
  422MOL0     H56924   0.091   9.056  11.426 -0.3731 -0.6639  0.1699
  422MOL0     H56925   0.264   9.006  11.413  0.4868 -2.9477 -1.5575
  422MOL0     H56926   0.211   9.058  11.644  2.6143 -0.8891  0.6915
  422MOL0     H56927   0.227   8.892  11.644 -1.3297  1.4159  4.4301
  422MOL0     H56928  -0.046   9.027  11.648 -2.4034 -0.3736  2.7557
  422MOL0     H56929   0.041   8.961  11.778  1.8229 -1.3479 -0.5595
  422MOL0     H56930  -0.193   8.990  11.804 -0.5947 -0.6694  2.0241
  422MOL0     H56931  -0.324   9.034  11.971 -2.0581  2.0449  0.2172
  422MOL0     H56932  -0.480   8.957  11.981  0.6809  2.0564 -2.0222
  422MOL0     H56933  -0.348   8.897  12.089 -2.8848  0.0702  0.9367
  422MOL0     H56934  -0.799   8.575  11.907 -1.2821 -1.4962 -1.1655
  422MOL0     H56935  -0.950   8.438  12.017  0.4854  0.8424  0.2733
  422MOL0     H56936  -1.077   8.291  12.147 -3.1532 -2.1048 -0.3840
  422MOL0     H56937  -1.053   8.196  12.009 -0.7286 -1.8112  1.1180
  422MOL0     H56938  -1.088   8.099  12.300 -2.4330 -1.9796  0.1723
  422MOL0     H56939  -1.221   8.111  12.195 -0.1822 -1.7516  1.7293
  422MOL0     H56940  -0.988   7.919  12.155 -0.9498 -5.4246 -1.3515
  422MOL0     H56941  -1.110   7.947  12.026  1.6158  3.3906 -0.1828
  422MOL0     H56942  -1.152   7.751  12.176  3.0159 -0.1637  1.6177
  422MOL0     H56943  -1.161   7.840  12.316  2.8668  2.1951 -0.2226
  422MOL0     H56944  -1.370   7.894  12.090 -0.6438  3.0408  0.8257
  422MOL0     H56945  -1.361   7.969  12.241  4.4574  3.2499 -1.7104
  422MOL0     H56946  -1.372   7.659  12.257  0.0290 -1.2573  1.6116
  422MOL0     H56947  -1.408   7.788  12.378 -0.4383 -2.6248  0.5212
  422MOL0     H56948  -1.614   7.844  12.236  0.4941  0.3303 -0.3517
  422MOL0     H56949  -1.600   7.696  12.331  1.2934  0.5646 -0.0189
  422MOL0     H56950  -1.696   7.692  12.098  0.1383  0.4242 -0.1073
  422MOL0     H56951  -1.589   7.549  12.137 -1.6879 -0.2478 -1.1867
  422MOL0     H56952  -0.619   8.191  12.164 -0.4624 -0.4590  1.1694
  422MOL0     H56953  -0.459   8.335  12.052  0.9008  3.5179  0.1853
  422MOL0     H56954  -0.315   8.515  11.805  1.0885 -0.6889 -3.2209
  422MOL0     H56955  -0.115   8.585  11.694 -0.5929 -0.7494 -0.4629
  422MOL0     H56956   0.968   8.592  10.934 -0.9230  1.9315  0.7797
  422MOL0     H56957   1.172   8.498  10.971 -3.3046 -2.0792 -2.8478
  422MOL0     H56958   1.548   8.221  10.767 -1.0340  0.4839 -3.3314
  422MOL0     H56959   1.777   8.163  10.715 -2.4297 -0.9113 -0.5851
  422MOL0     H56960   2.030   8.147  10.684 -0.1423  0.3482 -0.2764
  422MOL0     H56961   1.921   8.193  10.565 -0.0533 -0.9172 -0.9084
  422MOL0     H56962   2.108   8.384  10.513  1.1676  0.3670  0.7896
  422MOL0     H56963   2.098   8.227  10.421  0.3985 -2.9521  1.4714
  422MOL0     H56964   2.284   8.286  10.657  0.6294  1.0387  0.3582
  422MOL0     H56965   2.316   8.281  10.490  2.1009  0.7618  2.1166
  422MOL0     H56966   2.227   8.025  10.503  1.5289  0.5316 -1.1009
  422MOL0     H56967   2.242   8.049  10.670 -0.8313 -0.6680 -0.1911
  422MOL0     H56968   2.646   8.022  10.618  0.5087 -1.7609 -0.9068
  422MOL0     H56969   1.876   8.583  10.783 -3.3954  2.3669 -1.9369
  422MOL0     H56970   1.663   8.616  10.883 -0.9433 -1.1587  1.0635
  423MOL0     O56971   1.315  10.446   3.261 -0.4839 -0.0305  0.2281
  423MOL0     C56972   1.392  10.431   3.167 -0.1709 -0.1068 -0.3618
  423MOL0     O56973   1.369  10.475   3.036  0.0558 -0.3739 -0.8572
  423MOL0     C56974   1.241  10.523   3.014  0.8305 -0.1128 -0.0580
  423MOL0     C56975   1.134  10.438   2.978 -0.0578 -0.6651  0.0069
  423MOL0     C56976   1.013  10.493   2.942 -0.1720  0.5500  0.8115
  423MOL0     C56977   0.991  10.627   2.944  0.4820 -0.0003 -0.0886
  423MOL0     O56978   0.883  10.692   2.891  0.0799 -0.2010  0.7762
  423MOL0     C56979   0.770  10.620   2.848 -0.5033  0.3104  0.4253
  423MOL0     C56980   0.652  10.705   2.787  0.0840  0.6070  0.6049
  423MOL0     C56981   0.540  10.734   2.883 -0.0640 -0.6695 -0.4120
  423MOL0     C56982   0.457  10.833   2.812 -0.4743 -0.6304 -0.7358
  423MOL0     C56983   0.422  10.806   2.667  0.7475 -0.5075  0.3534
  423MOL0     C56984   0.291  10.873   2.621 -0.6586  0.2448  0.1064
  423MOL0     C56985   0.280  10.906   2.476  0.9525 -0.5360  0.2316
  423MOL0     C56986   0.192  11.033   2.446  0.1683  0.0114  1.1212
  423MOL0     N56987   0.050  10.984   2.440 -0.0410  0.0011  1.7200
  423MOL0     C56988  -0.005  10.921   2.332 -0.2728  0.6048  0.8713
  423MOL0     C56989  -0.140  10.925   2.341 -0.2421  0.3355 -0.2407
  423MOL0     C56990  -0.238  10.873   2.239  0.2693  0.4743 -0.2032
  423MOL0     C56991  -0.356  10.801   2.305 -0.4011  0.1132  0.3672
  423MOL0     C56992  -0.475  10.773   2.209  0.0416  0.4763  0.7789
  423MOL0     C56993  -0.596  10.703   2.288  0.4312  0.2284 -0.0547
  423MOL0     O56994  -0.704  10.669   2.203  0.7754 -0.1223  0.0359
  423MOL0     C56995  -0.807  10.584   2.249 -0.6383  0.0313  0.1418
  423MOL0     C56996  -0.912  10.534   2.168  0.0202 -0.0328 -0.8262
  423MOL0     C56997  -1.030  10.467   2.223 -0.3643  0.6897  0.7152
  423MOL0     C56998  -1.131  10.418   2.115 -0.4113 -0.0755  0.3605
  423MOL0     C56999  -1.028  10.433   2.362 -0.5000 -0.2319 -0.2146
  423MOL0     C57000  -1.135  10.354   2.434 -0.4545  0.2526  1.5441
  423MOL0     O57001  -1.093  10.308   2.553 -0.8259  0.2054 -0.7719
  423MOL0     C57002  -1.175  10.250   2.648 -0.2908  1.0474 -0.3239
  423MOL0     C57003  -1.147  10.112   2.689  0.0296 -0.3080 -0.6630
  423MOL0     C57004  -1.228  10.051   2.783  0.7783  0.4076  0.2106
  423MOL0     C57005  -1.352  10.110   2.821 -0.4985 -0.4414 -0.2275
  423MOL0     O57006  -1.444  10.048   2.896  0.5600  0.6792 -0.0002
  423MOL0     C57007  -1.399   9.994   3.028 -0.6783 -0.9493  0.1328
  423MOL0     C57008  -1.517   9.947   3.098  0.4636  0.7893  0.1210
  423MOL0     C57009  -1.488   9.885   3.237  0.0424 -0.3236 -0.2733
  423MOL0     C57010  -1.617   9.810   3.277  0.0846 -0.2293 -0.1584
  423MOL0     C57011  -1.639   9.793   3.432  0.0835  0.3284 -0.1722
  423MOL0     C57012  -1.541   9.707   3.503 -0.5179  0.1289 -0.1220
  423MOL0     C57013  -1.534   9.723   3.655  0.4844  0.3120  0.7158
  423MOL0     C57014  -1.664   9.713   3.739  0.4817  0.5402  0.2291
  423MOL0    Cl57015  -1.774   9.582   3.709  0.4964 -0.0345 -0.4587
  423MOL0     C57016  -1.383  10.240   2.763 -1.9066  0.2900 -0.7540
  423MOL0     C57017  -1.295  10.311   2.689  0.4361  0.1635 -0.2532
  423MOL0     O57018  -1.244  10.329   2.380  0.2546  0.9375 -0.1659
  423MOL0     C57019  -0.918  10.487   2.439 -0.0701  0.5229  0.3369
  423MOL0     C57020  -0.811  10.544   2.386 -1.1753 -0.4289 -0.1093
  423MOL0     N57021  -0.168  10.987   2.457 -0.3906  0.5277 -0.0525
  423MOL0     N57022  -0.054  11.006   2.515  0.5075  0.6466  0.2991
  423MOL0     C57023   1.091  10.706   2.994  0.2611  0.0091  0.7887
  423MOL0     C57024   1.218  10.663   3.024 -0.1742  0.2236  0.5301
  423MOL0     C57025   1.525  10.367   3.201  0.6795 -0.4274 -0.1193
  423MOL0     C57026   1.635  10.389   3.120  0.2627 -0.1610  0.6647
  423MOL0     C57027   1.759  10.327   3.139 -0.4940 -0.1126  0.1618
  423MOL0     C57028   1.773  10.243   3.250  0.2196 -0.8148  0.4370
  423MOL0     O57029   1.897  10.194   3.268 -0.0907  0.5013 -0.8307
  423MOL0     C57030   1.908  10.058   3.325 -0.0693  0.2360  0.0321
  423MOL0     C57031   2.055  10.021   3.323  0.1028  0.1700 -0.8640
  423MOL0     C57032   2.124  10.002   3.188 -0.8260 -0.2454  0.7638
  423MOL0     C57033   2.051   9.914   3.090 -0.0701  0.1017  0.4689
  423MOL0     C57034   2.119   9.911   2.965 -0.8186  0.9792  0.2407
  423MOL0     C57035   2.170   9.902   2.854 -0.0029 -0.0409 -0.1204
  423MOL0     C57036   1.667  10.225   3.340 -0.1337 -1.0403  1.0327
  423MOL0     C57037   1.541  10.283   3.314 -0.2720  0.2296 -0.2712
  423MOL0     H57038   1.146  10.331   2.977  3.9423 -0.5516  3.8043
  423MOL0     H57039   0.955  10.418   2.889  1.1145 -0.3973  0.7144
  423MOL0     H57040   0.806  10.551   2.771 -0.5819 -0.1730  0.8198
  423MOL0     H57041   0.731  10.550   2.922 -2.7524 -0.9144 -1.7527
  423MOL0     H57042   0.698  10.796   2.748  2.2394 -1.5296 -2.3094
  423MOL0     H57043   0.610  10.647   2.705  1.1069  3.0135 -1.7916
  423MOL0     H57044   0.482  10.645   2.909 -2.9994  0.4282 -2.5864
  423MOL0     H57045   0.570  10.789   2.973  0.0787 -1.5719  0.1033
  423MOL0     H57046   0.359  10.826   2.860 -0.3905 -0.2606 -0.5081
  423MOL0     H57047   0.497  10.934   2.818  0.2306 -0.8806 -1.1885
  423MOL0     H57048   0.502  10.847   2.605  0.1845  0.8121  0.4784
  423MOL0     H57049   0.408  10.698   2.650 -0.0113 -0.4117  0.3484
  423MOL0     H57050   0.204  10.815   2.654 -0.8236  0.1161 -0.5342
  423MOL0     H57051   0.277  10.961   2.685  2.5442  1.8789 -1.1909
  423MOL0     H57052   0.381  10.926   2.441  1.2794  0.7739  1.7904
  423MOL0     H57053   0.236  10.825   2.417  1.7301 -1.4036  0.8019
  423MOL0     H57054   0.216  11.064   2.344  2.4991  1.3410  2.0019
  423MOL0     H57055   0.203  11.124   2.506  2.0320 -0.5674  1.7377
  423MOL0     H57056   0.044  10.881   2.244  0.4679 -3.9773  3.0673
  423MOL0     H57057  -0.281  10.953   2.179  0.5211 -1.4640 -3.1864
  423MOL0     H57058  -0.181  10.808   2.172  0.8510  1.5322 -0.7626
  423MOL0     H57059  -0.397  10.873   2.376 -0.6724 -2.1098  2.6284
  423MOL0     H57060  -0.330  10.717   2.371  1.2397  0.1010 -0.2538
  423MOL0     H57061  -0.447  10.711   2.124  1.1055  0.6248  1.0169
  423MOL0     H57062  -0.502  10.872   2.170 -0.3765 -0.6674 -2.1295
  423MOL0     H57063  -0.630  10.762   2.373  3.0144 -0.6529  1.7297
  423MOL0     H57064  -0.550  10.616   2.337 -1.1046 -1.1778 -1.0218
  423MOL0     H57065  -0.907  10.556   2.062 -0.7644  1.9166 -0.5105
  423MOL0     H57066  -1.177  10.320   2.133 -2.1812  0.3788 -1.3662
  423MOL0     H57067  -1.218  10.481   2.136  1.6919  2.6729  1.3262
  423MOL0     H57068  -1.092  10.428   2.013  0.3883  0.5176  0.7170
  423MOL0     H57069  -1.058  10.064   2.650  1.2805  1.0670  0.3552
  423MOL0     H57070  -1.199   9.957   2.828 -0.6123  0.1708  0.6587
  423MOL0     H57071  -1.325   9.914   3.012  1.9432  1.4102 -0.2279
  423MOL0     H57072  -1.363  10.080   3.084 -3.1770  0.6322 -0.5341
  423MOL0     H57073  -1.587  10.029   3.120 -0.4329  0.5907 -1.7660
  423MOL0     H57074  -1.576   9.881   3.033 -0.2318  2.2258 -0.7583
  423MOL0     H57075  -1.478   9.967   3.308 -0.0710 -3.1730  3.3324
  423MOL0     H57076  -1.404   9.816   3.248  0.9679  0.9874  1.1536
  423MOL0     H57077  -1.701   9.871   3.241  0.2915  0.2917  0.2332
  423MOL0     H57078  -1.607   9.705   3.247  1.7117 -0.3143  0.6156
  423MOL0     H57079  -1.739   9.755   3.455  0.9895 -3.3158 -1.5123
  423MOL0     H57080  -1.621   9.891   3.476  0.5736 -1.3244  3.6818
  423MOL0     H57081  -1.543   9.600   3.476 -0.3121  0.1062 -0.0542
  423MOL0     H57082  -1.447   9.757   3.479 -0.8681  1.3176  0.9153
  423MOL0     H57083  -1.493   9.821   3.681 -0.5100  0.6028  1.2073
  423MOL0     H57084  -1.464   9.644   3.684 -0.8113  0.1922  3.9252
  423MOL0     H57085  -1.728   9.801   3.725 -2.2873 -1.4317 -0.3866
  423MOL0     H57086  -1.635   9.709   3.844  2.3277  0.2548 -0.2576
  423MOL0     H57087  -1.478  10.285   2.789 -2.7036 -1.2695 -0.8289
  423MOL0     H57088  -1.315  10.415   2.670  1.3799  0.4191  0.0756
  423MOL0     H57089  -0.921  10.470   2.546 -4.5463  2.9833  0.8577
  423MOL0     H57090  -0.733  10.574   2.455 -1.4292  0.5453 -0.2269
  423MOL0     H57091   1.067  10.811   3.002 -0.4381  0.3341 -3.3355
  423MOL0     H57092   1.307  10.717   3.054  0.3351 -1.7834  3.0579
  423MOL0     H57093   1.627  10.457   3.036 -0.7133  0.4152  1.2132
  423MOL0     H57094   1.841  10.331   3.069 -0.5669  0.2145  0.0941
  423MOL0     H57095   1.867  10.041   3.425 -0.3015  1.2713  0.1271
  423MOL0     H57096   1.843   9.986   3.274  1.1558 -0.7411 -0.1801
  423MOL0     H57097   2.073   9.931   3.382  2.0977  1.4528  0.6272
  423MOL0     H57098   2.097  10.096   3.391 -1.5434 -1.0365  1.6299
  423MOL0     H57099   2.223   9.966   3.217 -0.8004  0.4913  1.6460
  423MOL0     H57100   2.149  10.103   3.156  1.0357 -0.6685  0.8086
  423MOL0     H57101   1.948   9.944   3.066 -0.1213 -0.7840 -0.4800
  423MOL0     H57102   2.034   9.816   3.136 -1.0237  1.3658  3.0759
  423MOL0     H57103   2.205   9.900   2.753  1.1006 -0.4286  0.2480
  423MOL0     H57104   1.672  10.163   3.429 -0.4697 -2.6272  0.0107
  423MOL0     H57105   1.449  10.251   3.362  0.4402  0.4927  1.3272
  424MOL0     O57106   8.992   1.126   6.455 -0.6701  0.0254 -0.0124
  424MOL0     C57107   8.986   1.218   6.537  0.4860  0.5271 -0.5305
  424MOL0     O57108   8.879   1.260   6.599 -0.5974  0.1466 -0.6437
  424MOL0     C57109   8.747   1.244   6.560 -0.6326  0.0581  0.1589
  424MOL0     C57110   8.712   1.214   6.427 -0.1545  0.3816  0.8973
  424MOL0     C57111   8.579   1.218   6.395 -0.4097 -0.2679  0.0838
  424MOL0     C57112   8.476   1.250   6.486 -0.8603 -0.2568  0.3290
  424MOL0     O57113   8.354   1.240   6.425  0.0582 -0.1381  0.2691
  424MOL0     C57114   8.243   1.253   6.516 -0.2394 -0.1363  0.7240
  424MOL0     C57115   8.126   1.261   6.424 -0.1693 -0.1093 -0.5026
  424MOL0     C57116   7.999   1.305   6.500  1.0786  0.3546 -0.3862
  424MOL0     C57117   7.870   1.310   6.411 -0.3733 -0.2106  0.6181
  424MOL0     C57118   7.752   1.384   6.475  0.1476  0.6102 -0.0269
  424MOL0     C57119   7.769   1.534   6.496  0.3709  0.1195  0.1528
  424MOL0     C57120   7.823   1.615   6.378  0.4332 -0.5083 -0.1571
  424MOL0     C57121   7.704   1.627   6.278 -0.8095  0.1115  0.6153
  424MOL0     N57122   7.740   1.715   6.165 -0.4965 -0.1888  0.0841
  424MOL0     C57123   7.844   1.705   6.083 -0.2938  0.2700 -0.1145
  424MOL0     C57124   7.848   1.813   6.015 -0.2233 -0.6475  0.3536
  424MOL0     C57125   7.964   1.840   5.927  0.5340 -0.8779  0.3588
  424MOL0     C57126   7.929   1.864   5.779 -0.2842  0.4593 -0.3123
  424MOL0     C57127   7.891   2.003   5.734  0.4866  0.2435 -0.5743
  424MOL0     C57128   7.741   2.023   5.738 -0.0372 -0.2580 -0.1761
  424MOL0     O57129   7.667   1.928   5.665 -0.0149 -0.0334 -0.1505
  424MOL0     C57130   7.603   1.973   5.554  0.4601 -0.5497 -0.3114
  424MOL0     C57131   7.631   2.084   5.472  0.1325 -0.0168 -1.0640
  424MOL0     C57132   7.552   2.114   5.357 -0.8868 -0.7208 -0.3119
  424MOL0     C57133   7.600   2.224   5.278 -0.0273 -0.5205 -0.1308
  424MOL0     C57134   7.443   2.031   5.317 -0.3970 -0.2684  0.2814
  424MOL0     C57135   7.341   2.075   5.218  0.0212  0.1425 -0.0104
  424MOL0     O57136   7.321   2.210   5.228 -0.8138  0.2389  0.7621
  424MOL0     C57137   7.202   2.261   5.187 -0.3665  0.8361 -0.2825
  424MOL0     C57138   7.189   2.281   5.050  0.7072 -0.4601 -0.3840
  424MOL0     C57139   7.068   2.336   5.003  0.4817 -0.4240  0.2462
  424MOL0     C57140   6.962   2.367   5.093  0.0720 -0.7998  0.1155
  424MOL0     O57141   6.848   2.426   5.041  0.1115 -0.0733  0.7241
  424MOL0     C57142   6.720   2.381   5.082 -0.2563 -0.1665 -0.0994
  424MOL0     C57143   6.614   2.489   5.094  0.2419 -0.4858  0.1899
  424MOL0     C57144   6.559   2.546   4.960 -0.1327 -0.1388  0.2748
  424MOL0     C57145   6.494   2.691   4.964 -0.3363 -0.5248  0.3174
  424MOL0     C57146   6.372   2.705   5.052  0.3167 -0.0155 -0.0637
  424MOL0     C57147   6.253   2.624   4.993  0.4968 -0.7189 -0.6431
  424MOL0     C57148   6.107   2.633   5.073  0.2458 -0.2022  0.3070
  424MOL0     C57149   6.136   2.641   5.221 -0.4979  0.4106 -0.4897
  424MOL0    Cl57150   6.242   2.510   5.290  0.1073 -0.5224 -0.3036
  424MOL0     C57151   6.978   2.337   5.226  0.2186  0.2086 -0.5791
  424MOL0     C57152   7.092   2.277   5.270 -0.9826 -0.3703 -0.6722
  424MOL0     O57153   7.281   1.985   5.166 -0.3669 -0.1907  0.0090
  424MOL0     C57154   7.411   1.931   5.403  0.0760  0.9151 -0.1686
  424MOL0     C57155   7.481   1.907   5.523 -0.3269  0.1071  0.2147
  424MOL0     N57156   7.734   1.892   6.038 -0.1137  0.5119 -0.6830
  424MOL0     N57157   7.676   1.833   6.141 -0.1018 -0.9198  0.7057
  424MOL0     C57158   8.510   1.295   6.621  0.3198 -0.2552 -0.1865
  424MOL0     C57159   8.649   1.292   6.652  0.9000  0.9728 -0.1721
  424MOL0     C57160   9.119   1.264   6.592 -0.5971 -0.0095  0.0807
  424MOL0     C57161   9.239   1.244   6.524 -0.6345 -0.1870  0.1838
  424MOL0     C57162   9.359   1.285   6.577 -0.2630 -0.7378 -0.4104
  424MOL0     C57163   9.364   1.334   6.713 -0.6127 -0.6020  0.5337
  424MOL0     O57164   9.494   1.377   6.748  0.1832  0.7464 -0.1690
  424MOL0     C57165   9.512   1.447   6.881  1.0890  0.8721  0.1834
  424MOL0     C57166   9.636   1.531   6.865 -0.4039  0.1240 -0.0075
  424MOL0     C57167   9.685   1.583   6.998 -0.1554  0.1771  0.0929
  424MOL0     C57168   9.821   1.653   6.982 -0.7021  0.0947 -0.9169
  424MOL0     C57169   9.928   1.555   6.944  0.4030 -0.7188 -0.8121
  424MOL0     C57170  10.036   1.505   6.918  0.6689  0.1210  0.1302
  424MOL0     C57171   9.251   1.340   6.789  0.2382 -0.2709 -0.4407
  424MOL0     C57172   9.128   1.309   6.725 -0.0655  0.3537 -0.4997
  424MOL0     H57173   8.783   1.193   6.348  0.2849  0.5409  1.2447
  424MOL0     H57174   8.556   1.195   6.292 -2.4980  2.8528 -0.2834
  424MOL0     H57175   8.232   1.162   6.576 -0.5247 -0.4306  0.2269
  424MOL0     H57176   8.244   1.340   6.583 -2.1615  0.8543 -0.4452
  424MOL0     H57177   8.146   1.348   6.361 -0.6545  2.5708  2.7665
  424MOL0     H57178   8.117   1.170   6.364 -0.2146 -0.2932 -0.2163
  424MOL0     H57179   7.989   1.244   6.590  2.0816 -0.2677 -0.6848
  424MOL0     H57180   8.005   1.409   6.535 -3.5417  0.3084  1.2086
  424MOL0     H57181   7.890   1.348   6.310  1.3188  0.8169  1.3108
  424MOL0     H57182   7.835   1.207   6.399  4.3668 -2.1726  1.3788
  424MOL0     H57183   7.661   1.368   6.416 -0.3185 -4.2156  1.5329
  424MOL0     H57184   7.729   1.340   6.573 -0.6172  0.3893 -0.3009
  424MOL0     H57185   7.675   1.582   6.524  1.0648  2.8858 -1.8592
  424MOL0     H57186   7.843   1.541   6.577  3.9009 -2.6935 -2.5028
  424MOL0     H57187   7.850   1.718   6.403  0.6607  0.0415 -2.4649
  424MOL0     H57188   7.910   1.576   6.324 -0.4698  0.0966 -2.1399
  424MOL0     H57189   7.618   1.670   6.331 -1.9855 -2.2828  0.7817
  424MOL0     H57190   7.662   1.536   6.233  0.4365  1.1400 -2.9493
  424MOL0     H57191   7.920   1.628   6.086  0.5385  1.0820  0.0413
  424MOL0     H57192   8.003   1.937   5.961  2.0368  0.0770 -3.5538
  424MOL0     H57193   8.035   1.759   5.941 -0.1160 -1.8346 -1.5892
  424MOL0     H57194   7.853   1.793   5.748 -1.6887  1.4675  0.6920
  424MOL0     H57195   8.020   1.838   5.723  0.3562 -1.2991  1.4367
  424MOL0     H57196   7.910   2.017   5.628 -2.4361 -1.4561 -1.4577
  424MOL0     H57197   7.949   2.074   5.793  0.3075  1.5602 -1.9151
  424MOL0     H57198   7.721   2.127   5.712  0.8186 -0.0991 -0.2304
  424MOL0     H57199   7.717   2.021   5.845 -2.2961  1.1076 -0.6031
  424MOL0     H57200   7.719   2.144   5.497 -1.9149  2.0326  1.8478
  424MOL0     H57201   7.584   2.209   5.171  0.7534 -0.7165 -0.2202
  424MOL0     H57202   7.551   2.318   5.305 -0.7166 -0.2123 -2.2253
  424MOL0     H57203   7.707   2.238   5.291 -0.1836 -0.3106  1.0237
  424MOL0     H57204   7.279   2.249   4.998  1.4309  0.8087  0.0449
  424MOL0     H57205   7.053   2.354   4.897  1.7436 -0.2204  0.0906
  424MOL0     H57206   6.687   2.309   5.007 -2.7018  4.1135 -3.6863
  424MOL0     H57207   6.717   2.339   5.183 -1.1274  0.6106  0.2122
  424MOL0     H57208   6.530   2.462   5.159  0.9586  0.5723  1.6256
  424MOL0     H57209   6.666   2.576   5.137  0.2649 -0.4725  0.1356
  424MOL0     H57210   6.493   2.474   4.909  1.9819 -1.9243 -0.1095
  424MOL0     H57211   6.648   2.541   4.897  0.5328  3.0963  0.7850
  424MOL0     H57212   6.572   2.763   4.990 -0.5121 -0.9952  2.2643
  424MOL0     H57213   6.458   2.712   4.863 -2.7847  0.7225  1.3888
  424MOL0     H57214   6.337   2.809   5.051  2.3038  0.7410  1.4151
  424MOL0     H57215   6.383   2.674   5.157 -1.5102 -2.7538 -0.5747
  424MOL0     H57216   6.234   2.656   4.890  0.2088  1.3342 -0.0077
  424MOL0     H57217   6.288   2.520   4.991 -2.8096 -1.9454 -1.9139
  424MOL0     H57218   6.041   2.549   5.049 -0.3840 -0.4797  2.8044
  424MOL0     H57219   6.058   2.727   5.047 -0.4453 -0.5728  0.2421
  424MOL0     H57220   6.044   2.641   5.279  0.9294  1.4363  1.9748
  424MOL0     H57221   6.189   2.733   5.248 -2.4150  1.1555  0.9425
  424MOL0     H57222   6.915   2.380   5.303  0.8226  0.8012 -0.4039
  424MOL0     H57223   7.106   2.240   5.371 -1.0934 -1.1761 -0.9454
  424MOL0     H57224   7.322   1.870   5.393  1.4212 -0.8944 -2.3610
  424MOL0     H57225   7.453   1.827   5.591 -1.4842 -0.7037 -1.1757
  424MOL0     H57226   8.431   1.334   6.684 -0.3697  2.8999 -2.7265
  424MOL0     H57227   8.684   1.327   6.749 -2.0395  1.3217  0.8719
  424MOL0     H57228   9.247   1.210   6.421  0.2697  2.5331 -0.7433
  424MOL0     H57229   9.446   1.274   6.514  1.1553  2.1243  0.8635
  424MOL0     H57230   9.418   1.498   6.904  0.8630 -0.4519  2.6023
  424MOL0     H57231   9.521   1.380   6.968  0.0078  0.1334 -0.2531
  424MOL0     H57232   9.617   1.614   6.797  2.7500 -0.1092 -1.3208
  424MOL0     H57233   9.710   1.462   6.824  0.9751  1.6703 -0.2555
  424MOL0     H57234   9.705   1.507   7.074 -1.0947  1.6377  1.8875
  424MOL0     H57235   9.612   1.653   7.041  0.6660 -1.1185  4.0810
  424MOL0     H57236   9.855   1.696   7.076  0.4945  1.7039 -2.0206
  424MOL0     H57237   9.824   1.732   6.906  1.3145  1.7184  0.7470
  424MOL0     H57238  10.121   1.451   6.880  0.3916 -1.3372  1.4669
  424MOL0     H57239   9.247   1.390   6.885 -1.4208  2.5556 -1.8670
  424MOL0     H57240   9.043   1.316   6.792  1.8826  2.2603  2.0071
  425MOL0     O57241   5.667   8.142   6.519  0.0258 -0.4498  0.3060
  425MOL0     C57242   5.779   8.105   6.539 -0.0035  0.7480  0.3679
  425MOL0     O57243   5.850   8.015   6.458  0.3072 -0.0675 -0.0434
  425MOL0     C57244   5.797   7.978   6.333 -0.5847 -0.6468  0.8514
  425MOL0     C57245   5.744   7.855   6.306  0.1060  0.2167  0.6650
  425MOL0     C57246   5.717   7.827   6.172  0.2488  0.0446 -0.6851
  425MOL0     C57247   5.742   7.915   6.065 -0.1039  0.6447  0.7318
  425MOL0     O57248   5.720   7.873   5.935  0.5937  1.1206 -0.0336
  425MOL0     C57249   5.810   7.768   5.890 -0.3751 -0.6298 -0.0892
  425MOL0     C57250   5.752   7.705   5.760  0.0854 -0.0982 -0.3749
  425MOL0     C57251   5.658   7.597   5.798  0.2197 -0.4709  0.0900
  425MOL0     C57252   5.572   7.540   5.680  0.9599  0.3545 -0.4381
  425MOL0     C57253   5.468   7.427   5.714  0.0589 -0.3036 -0.2603
  425MOL0     C57254   5.380   7.484   5.821  0.2296  0.2173 -0.4157
  425MOL0     C57255   5.263   7.388   5.850 -0.0213 -0.6084 -0.1335
  425MOL0     C57256   5.232   7.383   6.004 -0.1340  0.6942  0.1117
  425MOL0     N57257   5.096   7.325   6.031 -0.6799 -0.0151 -0.1266
  425MOL0     C57258   5.029   7.331   6.147 -0.0230 -0.3246  0.0074
  425MOL0     C57259   4.906   7.276   6.135 -0.0587 -0.7310 -0.1199
  425MOL0     C57260   4.792   7.260   6.235  0.8064  0.3951 -0.2239
  425MOL0     C57261   4.774   7.114   6.264 -0.0216  0.2759 -0.4208
  425MOL0     C57262   4.705   7.082   6.396 -0.5727 -1.3832  0.3071
  425MOL0     C57263   4.600   6.977   6.354 -0.0387  0.4618  0.0545
  425MOL0     O57264   4.528   6.932   6.472 -0.3093 -0.6142 -0.0022
  425MOL0     C57265   4.441   6.838   6.455  0.1241  1.0419  1.3472
  425MOL0     C57266   4.470   6.712   6.507  0.5660 -0.1464 -0.5954
  425MOL0     C57267   4.384   6.601   6.473  0.0422 -0.9065 -0.2827
  425MOL0     C57268   4.417   6.460   6.530  0.5563  0.5426  0.4147
  425MOL0     C57269   4.267   6.629   6.394  0.3742 -0.1350  0.8262
  425MOL0     C57270   4.148   6.531   6.381 -0.0880  0.1555  0.4488
  425MOL0     O57271   4.033   6.579   6.323 -0.2224 -0.1464 -0.1174
  425MOL0     C57272   3.920   6.507   6.304 -0.1259  0.1621  0.0168
  425MOL0     C57273   3.918   6.369   6.272 -0.0596 -0.1156 -0.4262
  425MOL0     C57274   3.794   6.302   6.260  0.7693  0.1830 -0.5017
  425MOL0     C57275   3.676   6.369   6.278  0.2638 -0.0681 -0.0290
  425MOL0     O57276   3.558   6.295   6.285 -0.0575  0.3703  0.4355
  425MOL0     C57277   3.551   6.174   6.363 -0.2883  0.3532 -0.0564
  425MOL0     C57278   3.406   6.129   6.371  0.6052 -0.0041  0.7950
  425MOL0     C57279   3.346   6.093   6.234  0.4422  0.1986 -0.0545
  425MOL0     C57280   3.399   5.967   6.171  0.2618 -0.0935  0.0185
  425MOL0     C57281   3.322   5.930   6.043  0.5474  0.1804 -0.6847
  425MOL0     C57282   3.387   5.835   5.949 -0.5205  0.0830 -0.1681
  425MOL0     C57283   3.283   5.795   5.839 -0.0655  0.4050 -0.1144
  425MOL0     C57284   3.356   5.729   5.718  0.5696 -0.0131  0.1058
  425MOL0    Cl57285   3.230   5.701   5.593  0.5632 -0.0284 -0.2929
  425MOL0     C57286   3.676   6.507   6.313  0.0179  0.9888  0.0753
  425MOL0     C57287   3.799   6.568   6.333  0.6896 -0.9209 -0.0418
  425MOL0     O57288   4.168   6.410   6.406 -0.5879 -0.2480  0.3902
  425MOL0     C57289   4.242   6.761   6.354  0.5450  0.3884  0.1483
  425MOL0     C57290   4.322   6.862   6.387  0.1750 -0.3499 -0.4232
  425MOL0     N57291   4.899   7.240   6.004 -0.5705 -0.4342  0.2757
  425MOL0     N57292   5.002   7.279   5.943 -0.2361  0.0763 -0.0532
  425MOL0     C57293   5.801   8.039   6.093 -0.4655 -0.5502  0.1090
  425MOL0     C57294   5.826   8.071   6.227  0.7808  0.4839 -0.4204
  425MOL0     C57295   5.842   8.138   6.662 -0.6351 -0.2163 -0.5504
  425MOL0     C57296   5.774   8.184   6.778  0.2415  0.2999 -0.7738
  425MOL0     C57297   5.843   8.211   6.895  0.0649 -0.1032 -0.7406
  425MOL0     C57298   5.980   8.210   6.900  0.0553 -0.7021  0.0035
  425MOL0     O57299   6.036   8.252   7.015  0.3242 -0.1569  0.0645
  425MOL0     C57300   6.183   8.273   7.021  0.0689  0.1112  0.3385
  425MOL0     C57301   6.241   8.382   6.918 -0.1810 -0.8648 -0.0466
  425MOL0     C57302   6.155   8.506   6.932  0.6278 -0.1265 -0.3730
  425MOL0     C57303   6.163   8.586   7.066 -0.0838  1.0617  0.3377
  425MOL0     C57304   6.292   8.662   7.086 -0.7488  0.5555  0.3174
  425MOL0     C57305   6.371   8.747   7.111 -0.4864 -0.2316 -0.0586
  425MOL0     C57306   6.043   8.172   6.784  0.5666 -0.0511 -0.4275
  425MOL0     C57307   5.984   8.140   6.671  0.0011  0.5129  0.3296
  425MOL0     H57308   5.729   7.773   6.375 -0.6560 -1.0132 -0.9172
  425MOL0     H57309   5.668   7.733   6.152  1.7994 -1.6253  2.5737
  425MOL0     H57310   5.905   7.822   5.882  0.1133 -1.6315 -1.5952
  425MOL0     H57311   5.826   7.690   5.966  4.7144  1.2317  1.1555
  425MOL0     H57312   5.687   7.781   5.715 -1.3710 -1.0244  0.1070
  425MOL0     H57313   5.835   7.668   5.700 -0.4318 -2.1161  0.0774
  425MOL0     H57314   5.714   7.515   5.842  0.9245 -0.3214 -0.5057
  425MOL0     H57315   5.586   7.628   5.875 -1.2351 -1.4060 -0.8426
  425MOL0     H57316   5.515   7.623   5.638  0.4631  1.8825  2.9326
  425MOL0     H57317   5.644   7.509   5.604  0.8413 -0.2047 -0.3257
  425MOL0     H57318   5.413   7.412   5.620  0.0522 -0.8086 -0.1784
  425MOL0     H57319   5.509   7.332   5.749  0.6231  0.7573  2.1015
  425MOL0     H57320   5.436   7.487   5.915 -1.5392  1.1659  0.6588
  425MOL0     H57321   5.344   7.585   5.799 -2.4606 -0.9593 -1.9895
  425MOL0     H57322   5.177   7.419   5.790 -1.9625 -2.4477  1.5233
  425MOL0     H57323   5.279   7.285   5.817 -1.7647 -1.3945  1.3173
  425MOL0     H57324   5.234   7.484   6.047  0.3321 -0.0141  1.8070
  425MOL0     H57325   5.309   7.322   6.050 -1.5144 -0.9813  0.2956
  425MOL0     H57326   5.061   7.376   6.241 -1.1957 -2.1251  1.3416
  425MOL0     H57327   4.823   7.312   6.326  0.7753  0.5269 -0.2879
  425MOL0     H57328   4.698   7.304   6.200  0.7288  2.8674  2.6755
  425MOL0     H57329   4.874   7.072   6.274 -0.4241 -1.1372 -1.9229
  425MOL0     H57330   4.730   7.060   6.180 -0.1174 -1.2446  0.5702
  425MOL0     H57331   4.657   7.170   6.442  0.1682 -1.7432  1.8275
  425MOL0     H57332   4.779   7.049   6.469  0.4627  0.3043  0.0932
  425MOL0     H57333   4.653   6.898   6.300  1.9235  0.1541  2.2671
  425MOL0     H57334   4.531   7.017   6.279  0.8897 -1.1848 -1.7716
  425MOL0     H57335   4.561   6.706   6.566  0.5493 -0.4992 -0.6013
  425MOL0     H57336   4.445   6.399   6.444  4.4086  1.7948  0.6129
  425MOL0     H57337   4.511   6.459   6.585  0.6055 -1.3308  0.3561
  425MOL0     H57338   4.338   6.416   6.592  0.8141 -0.9033 -0.2460
  425MOL0     H57339   4.015   6.322   6.259 -0.5139 -0.5473 -2.7188
  425MOL0     H57340   3.780   6.197   6.234 -0.0237  0.9726 -3.7262
  425MOL0     H57341   3.609   6.097   6.312  1.6713  0.4599  1.8770
  425MOL0     H57342   3.601   6.184   6.460  2.1778 -1.5742 -1.0199
  425MOL0     H57343   3.387   6.053   6.447 -0.9331 -1.7547 -1.2309
  425MOL0     H57344   3.357   6.221   6.404  0.6520  0.6968 -0.9801
  425MOL0     H57345   3.368   6.180   6.171  2.1733  0.3737  0.7386
  425MOL0     H57346   3.240   6.079   6.255  0.6346 -1.0871  0.1470
  425MOL0     H57347   3.499   5.988   6.131  0.3560  0.2736  0.4440
  425MOL0     H57348   3.410   5.882   6.238 -1.0021 -3.2202 -3.3766
  425MOL0     H57349   3.284   6.020   5.994  0.0430 -1.3638 -3.2998
  425MOL0     H57350   3.233   5.876   6.078  1.7772 -0.5259  1.5715
  425MOL0     H57351   3.476   5.883   5.907 -0.5603 -1.1167 -1.6801
  425MOL0     H57352   3.421   5.749   6.007  3.0122  1.5271  0.1688
  425MOL0     H57353   3.230   5.879   5.792 -3.6567 -2.7173 -2.1770
  425MOL0     H57354   3.200   5.732   5.872  0.2457 -0.2420 -0.5437
  425MOL0     H57355   3.410   5.637   5.739  0.0070 -0.0447  1.5637
  425MOL0     H57356   3.432   5.800   5.683 -0.4095  0.2240 -1.6414
  425MOL0     H57357   3.578   6.550   6.329 -1.0228 -1.8289  2.0729
  425MOL0     H57358   3.801   6.671   6.368 -1.0966  0.3659 -3.2790
  425MOL0     H57359   4.156   6.795   6.297 -1.4707 -0.9422  2.1807
  425MOL0     H57360   4.319   6.959   6.338  2.5000 -0.0826 -0.1630
  425MOL0     H57361   5.833   8.102   6.011 -0.7581 -1.2321 -0.5412
  425MOL0     H57362   5.855   8.169   6.265  1.5318 -0.2979  1.1037
  425MOL0     H57363   5.666   8.173   6.777  0.1961  0.5852  0.1417
  425MOL0     H57364   5.789   8.237   6.986  0.0256  0.7165 -0.9900
  425MOL0     H57365   6.220   8.304   7.119 -1.2613  0.2955  0.8021
  425MOL0     H57366   6.236   8.178   7.006 -1.5286 -0.4796 -2.1401
  425MOL0     H57367   6.255   8.347   6.816  2.2906  1.1208 -0.4987
  425MOL0     H57368   6.341   8.404   6.957 -0.9894  0.7178  1.3121
  425MOL0     H57369   6.047   8.490   6.920  0.5802 -0.5960  0.5699
  425MOL0     H57370   6.175   8.584   6.858 -2.0055 -1.3078 -2.5354
  425MOL0     H57371   6.154   8.514   7.148 -1.6610  0.3895 -0.3950
  425MOL0     H57372   6.083   8.661   7.070 -0.2777  0.9965 -1.5790
  425MOL0     H57373   6.439   8.827   7.128  1.3108 -1.1617 -2.2776
  425MOL0     H57374   6.150   8.155   6.777  0.9368  1.4047  1.0467
  425MOL0     H57375   6.031   8.101   6.581  3.0334  2.0212  1.1540
  426MOL0     O57376   7.827   1.706   2.323 -0.6453  0.1377 -0.2283
  426MOL0     C57377   7.828   1.598   2.266 -0.3691 -0.5492 -0.1745
  426MOL0     O57378   7.933   1.551   2.189 -0.3836 -0.3504 -0.5077
  426MOL0     C57379   8.066   1.607   2.197  0.9804 -0.4024  0.6282
  426MOL0     C57380   8.120   1.651   2.323 -0.1344  0.1598  0.2825
  426MOL0     C57381   8.257   1.691   2.332  0.4623 -0.5442 -0.0517
  426MOL0     C57382   8.335   1.697   2.224 -0.1457  0.9908 -0.7292
  426MOL0     O57383   8.464   1.746   2.243  1.2745 -0.3892  1.0832
  426MOL0     C57384   8.476   1.869   2.170 -0.0603  0.5077 -0.5694
  426MOL0     C57385   8.626   1.891   2.145 -0.3237 -0.3463 -0.4491
  426MOL0     C57386   8.647   1.943   2.006  0.2556  0.1344  0.2408
  426MOL0     C57387   8.585   2.087   1.980 -0.2837 -0.5807  0.1351
  426MOL0     C57388   8.589   2.125   1.832 -0.0616 -0.2231  0.5388
  426MOL0     C57389   8.733   2.132   1.777 -0.0516  0.5946  0.1756
  426MOL0     C57390   8.738   2.103   1.626  0.5229 -0.4333 -0.2046
  426MOL0     C57391   8.712   2.232   1.537 -1.1455  0.4809 -0.6583
  426MOL0     N57392   8.779   2.360   1.569 -0.4802  0.3370  0.0198
  426MOL0     C57393   8.914   2.371   1.617  0.4744  0.3005 -0.4331
  426MOL0     C57394   8.941   2.497   1.610 -0.6462 -0.5969 -0.1505
  426MOL0     C57395   9.073   2.556   1.656 -1.4646 -0.0793  0.6912
  426MOL0     C57396   9.059   2.660   1.765 -0.6542  0.3167  0.4940
  426MOL0     C57397   9.136   2.791   1.727  0.6267 -0.5185  0.0466
  426MOL0     C57398   9.291   2.789   1.737  0.4244 -0.3271 -0.1480
  426MOL0     O57399   9.356   2.908   1.694  0.3419  0.2082  0.3143
  426MOL0     C57400   9.495   2.906   1.688  0.2939 -0.5624  0.4779
  426MOL0     C57401   9.550   3.032   1.652  0.6644  0.7837  0.5138
  426MOL0     C57402   9.691   3.060   1.636  0.2809  0.3340  0.2801
  426MOL0     C57403   9.719   3.186   1.561  0.9573  0.4801  0.4939
  426MOL0     C57404   9.781   2.955   1.669 -0.1579  0.3430  0.5808
  426MOL0     C57405   9.926   2.962   1.655 -0.1005 -0.5935  0.3497
  426MOL0     O57406   9.982   3.065   1.561  0.5790 -0.6720 -0.3304
  426MOL0     C57407  10.116   3.097   1.568  0.2995  0.9682 -0.6637
  426MOL0     C57408  10.163   3.187   1.654  0.5772 -0.4579 -0.6802
  426MOL0     C57409  10.302   3.198   1.682  0.0656  0.6181 -0.3159
  426MOL0     C57410  10.396   3.122   1.616  0.0291  0.5385 -0.4852
  426MOL0     O57411  10.528   3.145   1.648  0.5118 -0.7021  0.7078
  426MOL0     C57412  10.635   3.060   1.595  0.2810  0.1683 -0.1757
  426MOL0     C57413  10.754   3.064   1.677 -0.1471  0.0446 -0.8953
  426MOL0     C57414  10.821   3.200   1.666 -0.4702  0.1619  0.6148
  426MOL0     C57415  10.955   3.196   1.732 -0.1235 -0.2714 -0.2217
  426MOL0     C57416  11.031   3.339   1.699  0.8263  0.0264 -0.2372
  426MOL0     C57417  11.165   3.353   1.768  1.1291  0.0855 -0.7470
  426MOL0     C57418  11.215   3.493   1.783 -0.2272 -0.1025 -0.2842
  426MOL0     C57419  11.352   3.497   1.841 -0.5494  0.3295  1.2336
  426MOL0    Cl57420  11.391   3.411   1.996 -0.4642 -0.0782 -0.2675
  426MOL0     C57421  10.349   3.031   1.516 -0.5623 -0.5461  0.7536
  426MOL0     C57422  10.213   3.023   1.491  0.0211  0.3715 -0.8655
  426MOL0     O57423   9.996   2.878   1.706 -0.1216  0.0158 -0.7866
  426MOL0     C57424   9.726   2.830   1.714  0.3156  0.0661 -0.2021
  426MOL0     C57425   9.588   2.806   1.710  1.1044  0.5719  0.4452
  426MOL0     N57426   8.832   2.564   1.554  0.5234  0.0391  0.1882
  426MOL0     N57427   8.730   2.484   1.535  0.7007  0.6429  0.5832
  426MOL0     C57428   8.288   1.636   2.104 -0.2016  0.2344 -0.0419
  426MOL0     C57429   8.156   1.588   2.087  0.1358  0.5049 -0.4098
  426MOL0     C57430   7.700   1.523   2.251  0.4923 -0.4766  0.1581
  426MOL0     C57431   7.588   1.551   2.333  1.1408 -0.5797 -0.0583
  426MOL0     C57432   7.462   1.496   2.309  0.7536  0.5539  0.3187
  426MOL0     C57433   7.443   1.394   2.215 -0.6891  0.7411  0.6618
  426MOL0     O57434   7.325   1.316   2.196  0.6256 -0.3512  0.0324
  426MOL0     C57435   7.203   1.393   2.219  0.0530  0.7889 -0.0577
  426MOL0     C57436   7.098   1.327   2.128  0.2313  0.3510  0.0771
  426MOL0     C57437   7.124   1.333   1.981  0.8571  1.0308  0.4041
  426MOL0     C57438   6.999   1.287   1.904  1.1049 -1.0079  0.6289
  426MOL0     C57439   7.029   1.259   1.761  0.2714 -0.5438  0.2801
  426MOL0     C57440   7.060   1.222   1.654 -0.5543 -0.4902  0.5366
  426MOL0     C57441   7.560   1.354   2.142  0.0632 -0.4471 -0.9161
  426MOL0     C57442   7.687   1.416   2.158  0.3637 -0.2504  0.3697
  426MOL0     H57443   8.052   1.654   2.407 -0.8052  1.1237 -0.2752
  426MOL0     H57444   8.291   1.733   2.426 -1.3753  3.9613 -1.1192
  426MOL0     H57445   8.422   1.863   2.075 -0.8823  0.3316 -0.0904
  426MOL0     H57446   8.428   1.943   2.235  1.6513 -1.1676  2.8791
  426MOL0     H57447   8.654   1.961   2.224 -2.8312  1.1372 -0.7681
  426MOL0     H57448   8.688   1.802   2.154 -2.3839 -1.8492 -0.4819
  426MOL0     H57449   8.751   1.931   1.974 -0.3856 -2.5725 -1.1196
  426MOL0     H57450   8.586   1.871   1.950 -0.2780 -0.0828  1.0908
  426MOL0     H57451   8.482   2.086   2.016 -1.0042 -2.2244 -1.7811
  426MOL0     H57452   8.650   2.162   2.026  0.8630 -0.9936 -0.7582
  426MOL0     H57453   8.530   2.053   1.774 -2.6280  1.6442  0.7037
  426MOL0     H57454   8.540   2.222   1.827  1.3347  0.4544 -1.3907
  426MOL0     H57455   8.782   2.227   1.800 -0.4485  0.6750  0.7144
  426MOL0     H57456   8.790   2.050   1.823 -0.5563  1.6779  2.8943
  426MOL0     H57457   8.833   2.062   1.590  1.1837  1.1330 -0.3221
  426MOL0     H57458   8.670   2.025   1.590  0.6166 -0.2218 -0.8657
  426MOL0     H57459   8.605   2.254   1.537 -1.5115 -0.5969  2.7648
  426MOL0     H57460   8.748   2.196   1.440  0.1289  1.1783 -0.4735
  426MOL0     H57461   8.979   2.296   1.659  1.0125  1.7258  1.4298
  426MOL0     H57462   9.143   2.476   1.683  0.6437  0.5132 -2.3994
  426MOL0     H57463   9.111   2.596   1.561 -3.3098 -1.3543 -0.6599
  426MOL0     H57464   9.108   2.624   1.856  1.4288  2.0156  0.1080
  426MOL0     H57465   8.957   2.681   1.800 -0.2030 -0.2546  2.2489
  426MOL0     H57466   9.101   2.873   1.790 -0.7769 -0.8419 -0.2725
  426MOL0     H57467   9.105   2.813   1.625 -1.0449 -1.8591  0.2194
  426MOL0     H57468   9.328   2.700   1.685  0.4700 -0.5880  0.3208
  426MOL0     H57469   9.314   2.761   1.840 -0.1939  0.6023  0.2541
  426MOL0     H57470   9.477   3.104   1.617  0.6865  1.0056  0.9224
  426MOL0     H57471   9.710   3.158   1.456  4.0892  1.0630 -0.0317
  426MOL0     H57472   9.650   3.265   1.591  1.3734  0.4236  1.6464
  426MOL0     H57473   9.817   3.230   1.582  0.0604  3.0423 -0.3001
  426MOL0     H57474  10.101   3.244   1.722 -1.1113 -0.2184 -2.3429
  426MOL0     H57475  10.346   3.268   1.753  1.5049 -0.3179 -0.2515
  426MOL0     H57476  10.600   2.958   1.580 -0.1712  0.6483 -2.8479
  426MOL0     H57477  10.653   3.110   1.499  1.5060  1.8119  0.8528
  426MOL0     H57478  10.714   3.056   1.778 -1.8456  0.5282 -1.4798
  426MOL0     H57479  10.818   2.978   1.660  2.8129  1.6032  1.4018
  426MOL0     H57480  10.755   3.274   1.711 -3.8976 -1.4280 -1.3357
  426MOL0     H57481  10.835   3.222   1.560  1.2191 -0.0017  0.7728
  426MOL0     H57482  10.951   3.185   1.841 -1.7915 -1.6412 -0.3853
  426MOL0     H57483  11.013   3.110   1.698 -0.4491 -1.0966  1.2338
  426MOL0     H57484  10.962   3.420   1.725 -0.1679 -1.1808  0.9882
  426MOL0     H57485  11.049   3.339   1.591  0.1596 -1.3885 -0.3596
  426MOL0     H57486  11.158   3.302   1.864  0.1699  1.7814  0.1363
  426MOL0     H57487  11.225   3.305   1.690 -1.2723  1.2863 -3.5572
  426MOL0     H57488  11.148   3.553   1.845 -0.3867 -0.5640 -0.0041
  426MOL0     H57489  11.214   3.546   1.687 -1.2529  0.4105 -0.0004
  426MOL0     H57490  11.368   3.600   1.874 -2.0862  1.1621 -0.4657
  426MOL0     H57491  11.429   3.471   1.769 -0.8246 -2.2025  1.7443
  426MOL0     H57492  10.416   2.976   1.450 -1.5688  0.0661 -0.8318
  426MOL0     H57493  10.175   2.945   1.426  2.4350 -1.6669  0.0248
  426MOL0     H57494   9.803   2.758   1.740  0.0458 -0.2878 -0.3760
  426MOL0     H57495   9.556   2.705   1.735 -0.5272  0.5881 -1.3584
  426MOL0     H57496   8.352   1.655   2.019  1.6001  3.4578  1.8386
  426MOL0     H57497   8.128   1.550   1.989  0.2072 -0.2329 -0.1499
  426MOL0     H57498   7.593   1.632   2.405 -2.9315 -0.5905  0.4990
  426MOL0     H57499   7.374   1.528   2.365 -1.8063 -2.3361 -1.7767
  426MOL0     H57500   7.170   1.381   2.323  1.0402 -0.5089  0.1303
  426MOL0     H57501   7.225   1.498   2.201  4.4056  0.0449 -0.2092
  426MOL0     H57502   7.002   1.374   2.152  0.9038  0.9927  1.6615
  426MOL0     H57503   7.081   1.222   2.154  1.3844 -0.5054 -2.3521
  426MOL0     H57504   7.196   1.256   1.950 -2.5470 -2.7917  1.0904
  426MOL0     H57505   7.155   1.435   1.958  1.7827  1.1704  2.1126
  426MOL0     H57506   6.931   1.371   1.921  2.2955 -0.2589  1.8401
  426MOL0     H57507   6.943   1.202   1.945  1.0287 -0.6622  1.2453
  426MOL0     H57508   7.122   1.212   1.567  2.5040 -0.7154  2.5531
  426MOL0     H57509   7.543   1.272   2.073 -1.7903 -0.6486 -0.2980
  426MOL0     H57510   7.775   1.380   2.107 -0.6595  0.7141 -2.2522
  427MOL0     O57511   6.166   9.025   8.801 -0.3857  0.3550 -0.8243
  427MOL0     C57512   6.219   9.111   8.726  0.4029  0.0949 -0.6602
  427MOL0     O57513   6.156   9.180   8.626  0.2864 -0.3678  0.1301
  427MOL0     C57514   6.020   9.169   8.616 -0.2416 -0.0013  0.1860
  427MOL0     C57515   5.970   9.061   8.553 -0.9020  1.0451  0.0432
  427MOL0     C57516   5.833   9.039   8.555  0.7239  0.7699 -0.0218
  427MOL0     C57517   5.742   9.137   8.603  0.3216  0.7852  1.2777
  427MOL0     O57518   5.605   9.105   8.588  0.0663 -0.0708  0.2943
  427MOL0     C57519   5.505   9.196   8.607  0.7571 -0.0425 -0.0171
  427MOL0     C57520   5.378   9.143   8.541  0.5490 -0.0144 -0.9295
  427MOL0     C57521   5.396   9.130   8.387  0.2052 -0.7194 -0.6312
  427MOL0     C57522   5.395   9.266   8.309  0.1476  1.1610 -0.0974
  427MOL0     C57523   5.273   9.357   8.322 -0.2586  0.6305 -0.4622
  427MOL0     C57524   5.306   9.502   8.286 -0.3562 -0.3693 -0.1310
  427MOL0     C57525   5.171   9.572   8.308  0.3808 -0.3958  0.3601
  427MOL0     C57526   5.110   9.572   8.452 -0.4965 -0.2157  0.1312
  427MOL0     N57527   5.211   9.576   8.559  0.1771  0.3651  0.9091
  427MOL0     C57528   5.311   9.656   8.550 -0.1607  0.5308 -0.3074
  427MOL0     C57529   5.402   9.601   8.641 -0.1343 -0.0576 -0.2605
  427MOL0     C57530   5.527   9.670   8.694  1.0623  0.0435 -0.4799
  427MOL0     C57531   5.604   9.603   8.800 -0.4913 -0.0833  0.3707
  427MOL0     C57532   5.715   9.689   8.861  0.8841 -0.5480 -0.8461
  427MOL0     C57533   5.840   9.693   8.775 -0.6410  0.6835 -0.1988
  427MOL0     O57534   5.809   9.766   8.655  0.2563 -0.4777 -0.3701
  427MOL0     C57535   5.904   9.834   8.582  1.0449  0.1769  1.0493
  427MOL0     C57536   5.863   9.923   8.487  0.7139  0.2380 -1.1122
  427MOL0     C57537   5.944  10.009   8.423 -0.3933 -0.1372 -0.1620
  427MOL0     C57538   5.883  10.115   8.334  0.3615  0.3237 -0.1299
  427MOL0     C57539   6.084   9.987   8.428  0.4217 -0.0266  0.7827
  427MOL0     C57540   6.192  10.071   8.354  0.4423 -0.5142 -0.3274
  427MOL0     O57541   6.156  10.184   8.297  0.1773  0.2573  0.3765
  427MOL0     C57542   6.239  10.280   8.254  0.8736 -0.8067 -0.2796
  427MOL0     C57543   6.192  10.412   8.259 -0.4502  0.4032 -1.1290
  427MOL0     C57544   6.277  10.524   8.226 -0.1828  0.2533 -0.1814
  427MOL0     C57545   6.409  10.505   8.168 -0.6320 -0.4792 -0.5753
  427MOL0     O57546   6.498  10.608   8.131 -0.0094  0.5604 -0.2137
  427MOL0     C57547   6.458  10.744   8.157  0.0032 -1.1987  0.0748
  427MOL0     C57548   6.559  10.832   8.095  0.7731 -1.1915 -0.2870
  427MOL0     C57549   6.522  10.980   8.093  0.3555  0.6529  0.2079
  427MOL0     C57550   6.596  11.060   8.200 -0.7351  0.1173 -0.6945
  427MOL0     C57551   6.542  11.037   8.348  0.5341 -0.3109  0.3234
  427MOL0     C57552   6.616  11.119   8.448 -1.3988  0.2343 -0.7639
  427MOL0     C57553   6.578  11.082   8.595 -0.2281 -0.3808 -0.7064
  427MOL0     C57554   6.663  11.154   8.704  0.3787 -0.7226  0.1024
  427MOL0    Cl57555   6.565  11.305   8.739 -0.0410 -0.5900  0.4160
  427MOL0     C57556   6.440  10.372   8.138 -0.8396 -0.2283  0.9409
  427MOL0     C57557   6.362  10.265   8.184  0.4246  0.5066 -0.4868
  427MOL0     O57558   6.305  10.039   8.365  1.0849  0.2906 -0.0599
  427MOL0     C57559   6.127   9.897   8.519 -0.2119  0.3005 -0.5042
  427MOL0     C57560   6.044   9.818   8.595 -0.5530 -0.8970  0.0016
  427MOL0     N57561   5.342   9.491   8.695  0.1308 -0.0208 -1.2266
  427MOL0     N57562   5.226   9.479   8.648  0.0553  0.4290 -0.2451
  427MOL0     C57563   5.794   9.248   8.666  0.0270 -1.3060 -0.4288
  427MOL0     C57564   5.936   9.266   8.672  1.2786  0.3066 -0.0835
  427MOL0     C57565   6.359   9.129   8.737 -0.9940 -0.3612 -0.7838
  427MOL0     C57566   6.420   9.239   8.668 -0.1584  0.7404  0.8609
  427MOL0     C57567   6.563   9.250   8.668 -0.5192 -1.3035 -0.2338
  427MOL0     C57568   6.643   9.159   8.735  0.0354  0.5021  0.5975
  427MOL0     O57569   6.775   9.159   8.705  0.8165  0.3448 -0.8535
  427MOL0     C57570   6.848   9.271   8.759  0.0089  0.1643 -0.1773
  427MOL0     C57571   7.000   9.264   8.733  0.2330  0.9176 -0.8793
  427MOL0     C57572   7.021   9.261   8.579 -0.6031  0.4272 -0.1065
  427MOL0     C57573   7.163   9.302   8.539  0.1590  0.1169 -0.5016
  427MOL0     C57574   7.210   9.437   8.544 -0.7077  0.3134 -1.3061
  427MOL0     C57575   7.235   9.555   8.538 -0.1025  0.0529  0.3087
  427MOL0     C57576   6.583   9.050   8.798 -0.2458 -0.1191 -0.1246
  427MOL0     C57577   6.446   9.025   8.788 -0.4694  0.1464  0.1208
  427MOL0     H57578   6.041   8.988   8.515 -1.6433  0.4367 -0.1894
  427MOL0     H57579   5.789   8.953   8.505  0.2837  2.3072 -2.5101
  427MOL0     H57580   5.485   9.207   8.714 -0.8759 -2.0741 -0.0395
  427MOL0     H57581   5.538   9.292   8.566 -1.6560  0.2108 -1.5948
  427MOL0     H57582   5.354   9.044   8.582  2.5860 -0.9508 -1.9110
  427MOL0     H57583   5.289   9.199   8.573  1.9050  2.3552 -1.0738
  427MOL0     H57584   5.497   9.089   8.373  2.1213  2.5944  2.0373
  427MOL0     H57585   5.317   9.068   8.344 -1.7204  1.2928 -0.1277
  427MOL0     H57586   5.484   9.316   8.347  1.2866  0.1843 -1.3735
  427MOL0     H57587   5.405   9.240   8.203 -4.0416  1.9230 -0.8691
  427MOL0     H57588   5.195   9.319   8.256  0.6425 -0.2451 -1.0440
  427MOL0     H57589   5.237   9.355   8.426  1.3391 -2.9336  0.1673
  427MOL0     H57590   5.369   9.545   8.365 -2.7747  0.9923  1.1912
  427MOL0     H57591   5.352   9.512   8.188  2.4916 -0.6106  1.0759
  427MOL0     H57592   5.186   9.675   8.276 -0.2880 -0.0620  1.0891
  427MOL0     H57593   5.100   9.532   8.235  0.9053 -2.0509  0.7127
  427MOL0     H57594   5.048   9.482   8.458 -0.1281 -0.3930  3.4079
  427MOL0     H57595   5.046   9.661   8.456  0.6587  0.7059 -0.9607
  427MOL0     H57596   5.328   9.745   8.491 -0.1993 -0.0714 -1.2518
  427MOL0     H57597   5.581   9.702   8.605 -2.1691  0.9344 -2.2973
  427MOL0     H57598   5.498   9.763   8.744 -1.3114 -0.8169 -0.1414
  427MOL0     H57599   5.658   9.518   8.756  2.0037  1.5524  0.0500
  427MOL0     H57600   5.533   9.565   8.873 -1.9184 -2.3369 -2.0252
  427MOL0     H57601   5.740   9.644   8.958  0.8268 -2.9842 -1.8718
  427MOL0     H57602   5.678   9.790   8.881  2.2879 -0.2537  0.4448
  427MOL0     H57603   5.873   9.590   8.757 -1.5928 -0.1227  2.2844
  427MOL0     H57604   5.927   9.735   8.826 -1.2656  2.7927 -0.7909
  427MOL0     H57605   5.755   9.931   8.485  0.5978  1.5031  2.4087
  427MOL0     H57606   5.929  10.214   8.338 -1.9383  1.4435  1.1959
  427MOL0     H57607   5.901  10.084   8.231  2.5504 -3.2693  1.1599
  427MOL0     H57608   5.775  10.126   8.348  0.4478  2.5009 -0.6800
  427MOL0     H57609   6.088  10.429   8.286 -1.3141 -1.2917 -3.0420
  427MOL0     H57610   6.230  10.619   8.247 -0.9861 -0.1029 -0.3502
  427MOL0     H57611   6.363  10.768   8.108 -2.4401 -0.9373  4.4794
  427MOL0     H57612   6.444  10.773   8.261 -0.9242  1.6075 -0.7368
  427MOL0     H57613   6.656  10.813   8.141  0.6167 -0.4154  0.3978
  427MOL0     H57614   6.571  10.806   7.990 -0.9466 -0.6429 -0.6518
  427MOL0     H57615   6.416  11.003   8.100 -1.3500 -4.3224 -3.5700
  427MOL0     H57616   6.548  11.008   7.991  1.6793 -1.3231 -0.0531
  427MOL0     H57617   6.701  11.030   8.197 -0.2184  1.6661  0.6349
  427MOL0     H57618   6.579  11.164   8.171 -2.9653  0.3016  0.9653
  427MOL0     H57619   6.550  10.930   8.369 -0.5938 -0.4310  0.1931
  427MOL0     H57620   6.435  11.058   8.350 -0.0322 -2.8932  1.2698
  427MOL0     H57621   6.721  11.091   8.435 -1.4643 -1.0544  1.0036
  427MOL0     H57622   6.604  11.227   8.433 -1.3153  0.0261 -2.5503
  427MOL0     H57623   6.605  10.977   8.612  0.3414 -0.1656 -0.2633
  427MOL0     H57624   6.470  11.098   8.608  0.0281  3.1828 -2.0200
  427MOL0     H57625   6.758  11.193   8.666 -0.4582  3.0037  1.3866
  427MOL0     H57626   6.679  11.087   8.789 -0.7829 -2.4312 -0.9598
  427MOL0     H57627   6.535  10.369   8.086 -1.4001 -2.3830 -0.0220
  427MOL0     H57628   6.395  10.165   8.160  0.5710  1.0839 -2.9735
  427MOL0     H57629   6.234   9.879   8.530  0.3380  3.4216  0.1826
  427MOL0     H57630   6.086   9.741   8.659  0.4238  0.3681  0.9136
  427MOL0     H57631   5.727   9.312   8.721  1.3102  0.4444 -0.8217
  427MOL0     H57632   5.979   9.352   8.723 -2.4693  1.4965  1.4711
  427MOL0     H57633   6.356   9.305   8.610  2.1127  1.8125 -0.5844
  427MOL0     H57634   6.625   9.308   8.600  0.1569 -3.7323 -1.8582
  427MOL0     H57635   6.811   9.363   8.712 -2.2667 -0.7507 -0.3070
  427MOL0     H57636   6.832   9.281   8.867  0.3691  1.6535 -0.2373
  427MOL0     H57637   7.027   9.168   8.777 -1.0073  0.6350 -0.6794
  427MOL0     H57638   7.046   9.353   8.776  1.8864  1.7306 -4.0276
  427MOL0     H57639   6.948   9.329   8.534 -4.8749 -0.6768  4.3232
  427MOL0     H57640   7.002   9.157   8.549  0.1766  0.6641 -1.5457
  427MOL0     H57641   7.182   9.265   8.438 -0.6571 -1.9838  0.0449
  427MOL0     H57642   7.219   9.231   8.601 -3.2565 -3.5246 -1.1545
  427MOL0     H57643   7.269   9.656   8.528 -0.3622  0.0279 -1.1061
  427MOL0     H57644   6.665   8.986   8.829  1.4323  1.8229 -0.4046
  427MOL0     H57645   6.405   8.930   8.822  1.1432  0.0407  1.9108
  428MOL0     O57646   2.754   7.940   4.064 -0.4398  0.5524 -0.3966
  428MOL0     C57647   2.803   7.833   4.098  0.3163 -0.0578  0.4130
  428MOL0     O57648   2.917   7.789   4.056  0.2384  0.0147  0.7119
  428MOL0     C57649   3.033   7.864   4.083 -0.0007 -1.2558 -0.1145
  428MOL0     C57650   3.148   7.821   4.022 -0.1148  1.2075  0.2844
  428MOL0     C57651   3.262   7.900   4.020  0.0581 -0.1925  0.2246
  428MOL0     C57652   3.268   8.021   4.097  0.0483  0.4273 -0.2378
  428MOL0     O57653   3.383   8.088   4.111  0.1667 -0.4314  0.3281
  428MOL0     C57654   3.455   8.108   3.983  0.2906 -0.1878 -0.9267
  428MOL0     C57655   3.426   8.246   3.935  0.4744 -0.2921 -0.1381
  428MOL0     C57656   3.286   8.268   3.869  0.2511  0.4078  0.9243
  428MOL0     C57657   3.258   8.422   3.838  0.1607  0.0704 -0.8057
  428MOL0     C57658   3.120   8.447   3.783  0.0989  0.8183  0.5857
  428MOL0     C57659   3.002   8.450   3.880 -0.9928  0.2908 -1.2126
  428MOL0     C57660   2.864   8.468   3.815  0.0563  0.1147 -0.8216
  428MOL0     C57661   2.742   8.390   3.873  0.5755 -0.1064 -0.5519
  428MOL0     N57662   2.615   8.426   3.807  0.5628 -0.2850 -0.2213
  428MOL0     C57663   2.512   8.487   3.875  1.0718  0.9696  0.1255
  428MOL0     C57664   2.419   8.498   3.781 -0.5870  0.0037 -0.0607
  428MOL0     C57665   2.290   8.572   3.792 -0.6877 -0.1135  0.3078
  428MOL0     C57666   2.177   8.487   3.839  0.1193  0.9757  0.0139
  428MOL0     C57667   2.157   8.465   3.996 -0.3445 -0.1678  0.3652
  428MOL0     C57668   2.042   8.370   4.017 -0.1569  0.8050 -0.2375
  428MOL0     O57669   2.004   8.379   4.154 -0.7123 -0.8617 -0.0797
  428MOL0     C57670   1.884   8.316   4.188 -0.6863 -0.7020  0.2478
  428MOL0     C57671   1.820   8.366   4.301 -0.2887 -0.0067  0.3833
  428MOL0     C57672   1.698   8.309   4.337 -0.7474 -0.9095  0.0023
  428MOL0     C57673   1.641   8.358   4.467  0.0227  0.3200 -0.5435
  428MOL0     C57674   1.634   8.209   4.251  0.5644 -0.3083  0.2913
  428MOL0     C57675   1.494   8.159   4.276  0.2090 -0.0181 -0.5999
  428MOL0     O57676   1.435   8.078   4.183  0.1954  0.8411  0.3708
  428MOL0     C57677   1.350   7.977   4.233 -0.1287  0.1930 -0.7329
  428MOL0     C57678   1.219   7.999   4.293 -0.2642 -0.1238 -0.6052
  428MOL0     C57679   1.141   7.891   4.330 -0.2921  0.2719  0.4247
  428MOL0     C57680   1.180   7.760   4.313 -0.5340 -0.7501  1.4265
  428MOL0     O57681   1.111   7.645   4.365  0.2601 -0.7561 -0.7805
  428MOL0     C57682   1.091   7.530   4.283  1.1736  1.2773  0.3911
  428MOL0     C57683   1.009   7.433   4.371  0.3508  0.1622  0.1017
  428MOL0     C57684   0.964   7.303   4.306  0.2682 -0.2264  0.7747
  428MOL0     C57685   0.901   7.215   4.419  0.2190  0.8111  0.3527
  428MOL0     C57686   0.863   7.077   4.355 -0.4829 -0.1681 -0.0694
  428MOL0     C57687   0.823   6.999   4.483 -0.2740  0.1439 -0.1618
  428MOL0     C57688   0.737   6.876   4.440 -0.1663 -0.2893  0.4466
  428MOL0     C57689   0.685   6.779   4.552 -0.5120 -1.1927 -0.7020
  428MOL0    Cl57690   0.516   6.805   4.611 -0.1663  0.1863  0.1424
  428MOL0     C57691   1.308   7.742   4.264 -0.1750 -0.1383 -0.7583
  428MOL0     C57692   1.388   7.843   4.220 -0.4789  0.4270  0.6607
  428MOL0     O57693   1.451   8.168   4.393 -0.6037  1.3570  0.1507
  428MOL0     C57694   1.698   8.172   4.131 -0.2292 -0.0395  0.2921
  428MOL0     C57695   1.830   8.214   4.109  0.1982 -0.1443  0.9335
  428MOL0     N57696   2.462   8.441   3.666  1.0737 -0.0950 -0.1273
  428MOL0     N57697   2.583   8.405   3.676 -0.6435 -0.3706 -0.2844
  428MOL0     C57698   3.150   8.074   4.151  0.4944 -0.2304  0.4880
  428MOL0     C57699   3.038   7.989   4.153  0.5930 -0.0300  0.1609
  428MOL0     C57700   2.710   7.735   4.165 -0.0392  0.3323 -1.1699
  428MOL0     C57701   2.737   7.604   4.186 -0.3760  0.2088 -0.7644
  428MOL0     C57702   2.649   7.524   4.261 -0.0723  0.4977 -0.1170
  428MOL0     C57703   2.524   7.560   4.313 -0.7850 -0.2786  1.5689
  428MOL0     O57704   2.432   7.478   4.375  1.1137  0.2833 -0.4172
  428MOL0     C57705   2.429   7.339   4.386 -0.4878 -1.4904  0.5809
  428MOL0     C57706   2.289   7.283   4.380  0.2443  0.5618 -0.3455
  428MOL0     C57707   2.210   7.324   4.253 -0.8591  0.0872  0.7130
  428MOL0     C57708   2.060   7.283   4.243  0.1482  0.3167 -0.6601
  428MOL0     C57709   1.988   7.316   4.117  0.6839 -0.3187 -0.1132
  428MOL0     C57710   1.926   7.352   4.016 -0.6252 -0.0410 -0.6199
  428MOL0     C57711   2.488   7.690   4.274 -0.7480 -0.1308  0.7539
  428MOL0     C57712   2.579   7.776   4.209 -0.1412  0.2954 -0.2727
  428MOL0     H57713   3.136   7.730   3.964  2.8188  1.5118 -0.9646
  428MOL0     H57714   3.353   7.868   3.970 -1.0679 -0.9440 -1.4483
  428MOL0     H57715   3.562   8.115   4.004  0.4892 -1.4813 -1.4078
  428MOL0     H57716   3.435   8.030   3.909 -2.8871 -0.9449  0.5598
  428MOL0     H57717   3.443   8.319   4.015 -0.2446  1.6331 -1.6582
  428MOL0     H57718   3.496   8.277   3.857  0.4671  1.2022  0.4181
  428MOL0     H57719   3.285   8.207   3.778  1.0689  2.2410 -0.3656
  428MOL0     H57720   3.204   8.228   3.930 -0.5029 -2.4105 -1.6920
  428MOL0     H57721   3.282   8.482   3.926  0.8863 -0.0995 -0.8771
  428MOL0     H57722   3.333   8.443   3.761  0.8546  0.8984  0.0707
  428MOL0     H57723   3.111   8.540   3.725 -1.0717  0.1749 -0.3158
  428MOL0     H57724   3.096   8.362   3.718  2.3833 -0.5005  1.3646
  428MOL0     H57725   3.010   8.354   3.933 -0.8248  0.9577 -0.0079
  428MOL0     H57726   3.026   8.527   3.953 -0.2249  0.1662 -1.3269
  428MOL0     H57727   2.837   8.574   3.827 -0.0557 -0.0516  0.6699
  428MOL0     H57728   2.863   8.439   3.710 -2.1564  3.5038 -1.9064
  428MOL0     H57729   2.732   8.417   3.979  2.6374 -1.1035 -0.0379
  428MOL0     H57730   2.762   8.282   3.874  0.4684 -0.1235 -0.3784
  428MOL0     H57731   2.516   8.526   3.977 -0.1869  0.5030  0.3605
  428MOL0     H57732   2.307   8.657   3.859 -0.5063 -0.4179  0.6533
  428MOL0     H57733   2.262   8.613   3.695 -2.6551  2.2133  1.7626
  428MOL0     H57734   2.207   8.392   3.792  2.6772  2.4571 -1.5584
  428MOL0     H57735   2.083   8.522   3.796 -1.4778  2.4876  4.1724
  428MOL0     H57736   2.126   8.559   4.043 -2.3655 -0.5761 -0.0299
  428MOL0     H57737   2.246   8.433   4.051  0.0195  1.5888  0.8790
  428MOL0     H57738   2.070   8.270   3.984  3.1098  0.7060  2.3997
  428MOL0     H57739   1.954   8.396   3.957 -1.9594  0.1962  2.0169
  428MOL0     H57740   1.862   8.447   4.361 -0.5357 -0.9456  1.8940
  428MOL0     H57741   1.544   8.403   4.442  1.1075  0.9374 -4.2707
  428MOL0     H57742   1.634   8.279   4.543 -1.0493 -1.2286 -2.1666
  428MOL0     H57743   1.707   8.432   4.513 -1.7098  1.8663 -0.4202
  428MOL0     H57744   1.177   8.098   4.300  1.0627  0.5395 -1.5390
  428MOL0     H57745   1.037   7.909   4.356 -0.5055 -2.1497  1.4595
  428MOL0     H57746   1.042   7.551   4.187 -3.1242 -4.6157  0.7583
  428MOL0     H57747   1.176   7.463   4.271 -0.5084 -0.6729 -1.4953
  428MOL0     H57748   1.068   7.414   4.461  0.6889  2.1167  0.3318
  428MOL0     H57749   0.919   7.484   4.404 -0.2787 -1.8953  1.7715
  428MOL0     H57750   1.051   7.263   4.253 -1.0216 -0.4252 -1.3138
  428MOL0     H57751   0.890   7.328   4.229  1.0610 -1.4713 -0.4249
  428MOL0     H57752   0.982   7.198   4.490 -0.9225 -2.2201  1.0832
  428MOL0     H57753   0.819   7.262   4.473 -0.8352  0.6380 -1.0407
  428MOL0     H57754   0.942   7.027   4.298 -0.1360 -1.6997  1.6511
  428MOL0     H57755   0.775   7.088   4.290 -0.5467  3.7021  0.4250
  428MOL0     H57756   0.919   6.972   4.529  0.2966 -0.6100 -1.7224
  428MOL0     H57757   0.753   7.066   4.534 -0.2504  0.9939 -1.2178
  428MOL0     H57758   0.801   6.811   4.379 -2.3150  0.3342 -2.7820
  428MOL0     H57759   0.650   6.910   4.383  0.0678 -2.8301 -1.6790
  428MOL0     H57760   0.757   6.789   4.633 -2.0551 -0.5302  0.6208
  428MOL0     H57761   0.689   6.675   4.516 -2.2102 -0.8407 -2.0036
  428MOL0     H57762   1.352   7.642   4.260 -2.1179 -1.0684 -0.3457
  428MOL0     H57763   1.484   7.815   4.176 -1.0093  0.4228 -0.5456
  428MOL0     H57764   1.644   8.113   4.057 -0.9094  2.4444 -1.3120
  428MOL0     H57765   1.877   8.161   4.027 -0.1821  0.8931  0.0287
  428MOL0     H57766   3.154   8.160   4.217 -1.5108 -1.0622  1.8140
  428MOL0     H57767   2.952   8.024   4.209  0.9043 -1.1494  1.3961
  428MOL0     H57768   2.822   7.554   4.140 -1.6871 -2.2904 -0.6459
  428MOL0     H57769   2.685   7.423   4.275 -3.2062 -0.6932  0.0559
  428MOL0     H57770   2.492   7.299   4.307 -3.4029 -1.1020 -2.1494
  428MOL0     H57771   2.484   7.310   4.476  0.8982 -3.1610 -0.7377
  428MOL0     H57772   2.240   7.312   4.474  1.4821 -1.2937  0.9325
  428MOL0     H57773   2.296   7.174   4.390 -1.4228  0.2734 -1.8283
  428MOL0     H57774   2.259   7.301   4.158  0.2933 -0.8043  1.5009
  428MOL0     H57775   2.209   7.433   4.249 -0.8400  0.0642 -1.2832
  428MOL0     H57776   2.015   7.324   4.333  0.0745  1.8966 -1.3894
  428MOL0     H57777   2.059   7.173   4.243  1.6643  0.2684 -1.8162
  428MOL0     H57778   1.887   7.360   3.917 -1.4952 -0.1283 -0.2873
  428MOL0     H57779   2.391   7.726   4.305 -1.1196  1.7782 -2.2439
  428MOL0     H57780   2.557   7.881   4.197  0.2001  0.3697 -0.2811
  429MOL0     O57781   2.751   5.695   8.405 -0.2242 -0.1061  0.2416
  429MOL0     C57782   2.790   5.714   8.519 -0.6511  0.5749  0.1710
  429MOL0     O57783   2.713   5.739   8.633 -0.0307 -0.5288 -0.0952
  429MOL0     C57784   2.575   5.757   8.615  0.1359 -0.1114 -1.3798
  429MOL0     C57785   2.483   5.649   8.642  0.0669 -0.0388  0.2165
  429MOL0     C57786   2.344   5.679   8.626  0.2797 -0.2839 -0.0597
  429MOL0     C57787   2.296   5.807   8.597  0.0993  0.3222  0.8360
  429MOL0     O57788   2.161   5.838   8.593 -0.5000  0.4909  0.5105
  429MOL0     C57789   2.057   5.739   8.620 -0.6573  0.2724 -0.1825
  429MOL0     C57790   1.949   5.821   8.671  0.3438  0.0694 -0.0473
  429MOL0     C57791   1.827   5.726   8.708 -0.1442  0.0153 -0.5227
  429MOL0     C57792   1.715   5.795   8.787  0.0828  0.0661 -0.5492
  429MOL0     C57793   1.607   5.697   8.833  0.4176 -0.0575 -0.3153
  429MOL0     C57794   1.471   5.756   8.876  1.0167 -0.0791 -0.7723
  429MOL0     C57795   1.374   5.811   8.766  0.1252  0.4664 -0.5939
  429MOL0     C57796   1.273   5.709   8.744 -0.3036 -0.6379  0.0654
  429MOL0     N57797   1.173   5.741   8.845 -0.2122  0.0895 -0.7368
  429MOL0     C57798   1.152   5.705   8.977 -0.0621  0.6025 -0.2637
  429MOL0     C57799   1.032   5.765   9.020  0.3048 -0.2175  0.6409
  429MOL0     C57800   0.967   5.744   9.154 -0.0882 -0.4427 -0.1669
  429MOL0     C57801   0.971   5.600   9.198 -0.0594 -1.4238  0.9036
  429MOL0     C57802   0.899   5.595   9.332 -0.2672 -0.6969 -0.7007
  429MOL0     C57803   0.895   5.469   9.406 -0.5856  0.3769 -0.3927
  429MOL0     O57804   1.022   5.408   9.424  0.7638  0.6077 -0.3483
  429MOL0     C57805   1.116   5.472   9.506  1.2751  1.0067 -0.6970
  429MOL0     C57806   1.096   5.576   9.598 -0.8712 -0.1704 -0.4658
  429MOL0     C57807   1.196   5.630   9.676  0.5740  1.4217  0.2377
  429MOL0     C57808   1.167   5.741   9.773 -0.4182  0.7172 -0.0641
  429MOL0     C57809   1.322   5.571   9.673  0.0129  0.1707  0.0099
  429MOL0     C57810   1.443   5.621   9.750 -0.3158  0.0663  0.1449
  429MOL0     O57811   1.535   5.520   9.775  0.2144 -0.3205  0.7307
  429MOL0     C57812   1.638   5.558   9.850  0.5949 -0.1790  0.3955
  429MOL0     C57813   1.732   5.665   9.809 -0.1571  0.8024  0.9330
  429MOL0     C57814   1.842   5.699   9.891 -0.1624  0.1975  1.1249
  429MOL0     C57815   1.863   5.632  10.009 -0.4030 -0.2637  0.9606
  429MOL0     O57816   1.955   5.674  10.104  0.1821 -0.6381 -0.5183
  429MOL0     C57817   2.084   5.605  10.110  0.7987  0.2957  0.6022
  429MOL0     C57818   2.145   5.644  10.242 -0.3275  0.0412  0.1200
  429MOL0     C57819   2.278   5.585  10.270  0.0798  0.0049 -0.3685
  429MOL0     C57820   2.336   5.641  10.401  0.1435 -0.8222  0.1859
  429MOL0     C57821   2.469   5.586  10.426 -0.6892 -0.5880  0.0066
  429MOL0     C57822   2.541   5.638  10.544 -0.2668  0.1435 -0.0830
  429MOL0     C57823   2.678   5.585  10.551 -0.4138  0.4600  0.3082
  429MOL0     C57824   2.731   5.630  10.691  0.7386  1.1647  0.5699
  429MOL0    Cl57825   2.902   5.590  10.703 -0.1273  0.1350 -0.2872
  429MOL0     C57826   1.776   5.527  10.041 -0.3221  0.1516  0.2465
  429MOL0     C57827   1.666   5.489   9.976  0.3170  0.2299 -0.1037
  429MOL0     O57828   1.459   5.739   9.776  0.1630  0.0119 -0.0776
  429MOL0     C57829   1.336   5.460   9.592  0.3428  1.1825 -0.1953
  429MOL0     C57830   1.241   5.407   9.508 -0.3357  1.0970  0.2994
  429MOL0     N57831   0.984   5.845   8.917  0.1064 -0.0108 -0.6263
  429MOL0     N57832   1.061   5.822   8.813  0.0918  0.5885 -0.5023
  429MOL0     C57833   2.384   5.905   8.584  0.2340  0.2274 -0.4599
  429MOL0     C57834   2.520   5.885   8.597  0.1344  1.6964 -0.1708
  429MOL0     C57835   2.934   5.677   8.531 -0.6315 -0.1006 -0.0715
  429MOL0     C57836   2.991   5.685   8.657  0.0300 -0.1894 -0.1490
  429MOL0     C57837   3.132   5.675   8.673 -0.4925 -1.0937 -0.0285
  429MOL0     C57838   3.207   5.615   8.567 -0.7301 -0.7812  0.1820
  429MOL0     O57839   3.327   5.564   8.596 -0.5191  0.3725  0.7539
  429MOL0     C57840   3.392   5.585   8.729  0.0052 -0.4083 -0.2201
  429MOL0     C57841   3.538   5.525   8.727 -0.6655  0.5568  0.7092
  429MOL0     C57842   3.604   5.496   8.866  0.5257  0.2764  0.7977
  429MOL0     C57843   3.740   5.444   8.844 -0.8736  0.4194  0.0331
  429MOL0     C57844   3.813   5.437   8.972  0.6994 -0.5766 -0.0804
  429MOL0     C57845   3.893   5.437   9.071  0.3230  0.4167  0.3506
  429MOL0     C57846   3.148   5.599   8.444  0.5893 -0.6475 -0.3433
  429MOL0     C57847   3.016   5.631   8.427  0.3921  0.1931  0.0106
  429MOL0     H57848   2.510   5.547   8.665 -4.1144 -1.3641  0.0404
  429MOL0     H57849   2.274   5.599   8.643  1.4454 -1.0635  1.2368
  429MOL0     H57850   2.031   5.675   8.535  0.1599 -2.6890  1.6130
  429MOL0     H57851   2.086   5.667   8.698  1.9666 -0.0671 -1.3661
  429MOL0     H57852   1.978   5.871   8.763  0.7040  2.0627 -1.1828
  429MOL0     H57853   1.927   5.898   8.596 -1.4990 -1.6025 -1.3392
  429MOL0     H57854   1.785   5.677   8.621 -1.2012 -1.0099  0.5276
  429MOL0     H57855   1.871   5.648   8.771  1.7654 -0.7352 -2.6610
  429MOL0     H57856   1.760   5.849   8.871 -2.3902  0.9627  0.3027
  429MOL0     H57857   1.677   5.872   8.719  0.3232  0.4735 -0.2230
  429MOL0     H57858   1.596   5.629   8.747 -0.0193 -1.1230  0.5624
  429MOL0     H57859   1.640   5.641   8.921 -3.6966  0.2187  1.6129
  429MOL0     H57860   1.426   5.685   8.946 -0.3102  1.1830 -0.2898
  429MOL0     H57861   1.482   5.836   8.951 -0.6140  0.2512 -0.8489
  429MOL0     H57862   1.329   5.906   8.797 -0.3358 -0.7123  2.7632
  429MOL0     H57863   1.432   5.836   8.677  3.8555  1.5335  1.8783
  429MOL0     H57864   1.312   5.607   8.742  0.7511 -0.2461 -2.2159
  429MOL0     H57865   1.227   5.731   8.647  0.1914 -2.2276 -0.5554
  429MOL0     H57866   1.204   5.628   9.033 -1.4054  1.3406  2.1594
  429MOL0     H57867   1.022   5.815   9.216 -2.4482 -0.7095  2.4061
  429MOL0     H57868   0.862   5.773   9.148  0.4813  1.7721 -0.3216
  429MOL0     H57869   1.073   5.560   9.202  0.7684  0.4857 -0.0329
  429MOL0     H57870   0.909   5.542   9.128  2.8320 -0.6042 -2.6593
  429MOL0     H57871   0.799   5.623   9.300  0.2164  1.1932 -0.6928
  429MOL0     H57872   0.920   5.682   9.395 -1.5800 -0.6244 -0.3408
  429MOL0     H57873   0.848   5.395   9.340  3.7885 -3.1631 -0.0391
  429MOL0     H57874   0.849   5.474   9.505  1.2554  2.0810  0.4251
  429MOL0     H57875   0.994   5.614   9.602 -1.3428 -1.4418  1.9532
  429MOL0     H57876   1.196   5.691   9.866  0.7096  0.8449 -0.3261
  429MOL0     H57877   1.231   5.827   9.751  1.0260 -0.0244  1.0498
  429MOL0     H57878   1.060   5.763   9.777 -0.2090  1.5502  1.5694
  429MOL0     H57879   1.712   5.717   9.716  1.6405  0.9092  0.5735
  429MOL0     H57880   1.914   5.777   9.867 -0.0134 -0.3142 -0.1748
  429MOL0     H57881   2.068   5.496  10.110 -0.9432  0.4698 -2.1736
  429MOL0     H57882   2.144   5.638  10.025 -1.9998  3.5946 -0.3107
  429MOL0     H57883   2.146   5.753  10.238  0.1121  0.0025 -2.1636
  429MOL0     H57884   2.081   5.618  10.327 -0.2858  0.0498  0.1535
  429MOL0     H57885   2.347   5.615  10.191  0.2231 -1.6785 -0.9184
  429MOL0     H57886   2.259   5.478  10.281 -2.8564  0.6470  2.8843
  429MOL0     H57887   2.359   5.747  10.413  0.1561 -0.6498 -1.1656
  429MOL0     H57888   2.272   5.616  10.485 -3.3472  0.8826 -1.7401
  429MOL0     H57889   2.542   5.601  10.346  1.7993 -1.6617  1.9136
  429MOL0     H57890   2.467   5.477  10.434 -1.2025 -0.6180 -0.4634
  429MOL0     H57891   2.553   5.744  10.520  0.3095  0.4962  1.6441
  429MOL0     H57892   2.484   5.631  10.637 -1.9345 -1.1067 -1.1283
  429MOL0     H57893   2.745   5.617  10.471 -1.1467  0.5151 -0.2958
  429MOL0     H57894   2.684   5.476  10.553  1.7898  0.5412  0.2910
  429MOL0     H57895   2.670   5.593  10.774 -0.4239  1.7010 -0.0204
  429MOL0     H57896   2.728   5.739  10.694  2.2022  1.3539 -2.1674
  429MOL0     H57897   1.803   5.474  10.132  1.8167  2.3970  1.0374
  429MOL0     H57898   1.604   5.407  10.012 -0.2249 -0.5600 -2.5787
  429MOL0     H57899   1.429   5.405   9.598  0.6142  1.5145 -1.2886
  429MOL0     H57900   1.252   5.315   9.450  0.7878  2.6856 -2.1957
  429MOL0     H57901   2.350   6.008   8.581 -0.1944  0.4576  4.2070
  429MOL0     H57902   2.586   5.969   8.580  1.5450  0.6227 -0.1419
  429MOL0     H57903   2.939   5.707   8.750  1.4962  4.1600 -0.1380
  429MOL0     H57904   3.160   5.708   8.773 -0.8516  1.8790 -0.7957
  429MOL0     H57905   3.400   5.694   8.733  1.8726 -0.3685 -2.5185
  429MOL0     H57906   3.329   5.542   8.807 -1.8043  0.5823 -1.0856
  429MOL0     H57907   3.605   5.589   8.668 -1.7027 -1.6627 -3.2859
  429MOL0     H57908   3.529   5.428   8.677  0.9846  1.5753 -1.7522
  429MOL0     H57909   3.545   5.429   8.929 -2.4643  2.4958  0.5977
  429MOL0     H57910   3.620   5.599   8.902  1.5639  0.6554 -0.6733
  429MOL0     H57911   3.805   5.515   8.792 -0.8273  0.4591  0.1437
  429MOL0     H57912   3.749   5.351   8.788 -0.7270 -0.8687  2.0837
  429MOL0     H57913   3.942   5.423   9.165  1.1031  1.7502  0.1548
  429MOL0     H57914   3.198   5.547   8.363  2.9913  0.5323  0.3227
  429MOL0     H57915   2.973   5.616   8.329 -1.0987  0.5765  0.5787
  430MOL0     O57916   4.428   1.525   2.953 -0.2780 -0.0582 -0.4427
  430MOL0     C57917   4.378   1.425   2.905  0.4159  0.4115  0.1367
  430MOL0     O57918   4.450   1.311   2.878 -0.1106  0.1318  0.9718
  430MOL0     C57919   4.589   1.323   2.881 -0.1786  0.1785 -0.3188
  430MOL0     C57920   4.659   1.355   2.761  0.5520 -0.8722 -0.3522
  430MOL0     C57921   4.806   1.373   2.762  0.6456 -0.6423 -0.0502
  430MOL0     C57922   4.879   1.362   2.879 -0.1130 -0.0905  0.6546
  430MOL0     O57923   5.016   1.391   2.883 -0.1455 -0.0126 -0.2710
  430MOL0     C57924   5.082   1.454   2.775  0.3523 -0.8117  0.4876
  430MOL0     C57925   5.227   1.458   2.810  0.0288 -0.4358  0.6447
  430MOL0     C57926   5.309   1.534   2.698  0.5080  0.3910 -1.5296
  430MOL0     C57927   5.444   1.577   2.761  0.1036 -1.2054 -0.1916
  430MOL0     C57928   5.547   1.472   2.771  0.9585 -0.5426 -0.0182
  430MOL0     C57929   5.670   1.508   2.857  0.0031  0.0735 -0.2155
  430MOL0     C57930   5.804   1.506   2.779  0.5686  0.0179  0.0715
  430MOL0     C57931   5.871   1.638   2.734  0.7986 -1.1039  0.4942
  430MOL0     N57932   5.787   1.726   2.649 -0.3824  0.1064  0.3616
  430MOL0     C57933   5.731   1.691   2.533 -0.3281 -0.8882 -0.2938
  430MOL0     C57934   5.648   1.790   2.497  0.4146 -0.3319 -0.2639
  430MOL0     C57935   5.563   1.805   2.379  0.6212  0.2328  0.6630
  430MOL0     C57936   5.420   1.747   2.396 -0.2763 -0.4311  0.1342
  430MOL0     C57937   5.319   1.809   2.293  0.0658 -0.0044  0.1343
  430MOL0     C57938   5.181   1.741   2.317 -0.5104 -0.0362 -0.3697
  430MOL0     O57939   5.088   1.748   2.201 -0.9534 -0.4715  0.3284
  430MOL0     C57940   5.050   1.630   2.132 -0.3687  0.1649  0.0142
  430MOL0     C57941   4.943   1.644   2.050  1.0171  0.1216  0.0010
  430MOL0     C57942   4.894   1.526   1.985  0.0136 -0.2371  0.3956
  430MOL0     C57943   4.781   1.555   1.892 -0.0185 -0.9186  0.6083
  430MOL0     C57944   4.950   1.401   2.008 -0.0155  0.5738 -0.5594
  430MOL0     C57945   4.897   1.269   1.962 -0.0386 -1.0524 -0.5927
  430MOL0     O57946   4.937   1.158   2.027 -0.6574 -0.4586  0.1550
  430MOL0     C57947   4.909   1.033   1.989  0.5294  0.0106  0.6281
  430MOL0     C57948   4.928   1.003   1.855  0.1732  0.5206  1.1046
  430MOL0     C57949   4.921   0.876   1.798 -0.4651  0.6399 -0.0251
  430MOL0     C57950   4.882   0.773   1.887  1.9215  0.1467 -0.4498
  430MOL0     O57951   4.839   0.650   1.844 -0.3082 -0.6242  0.4670
  430MOL0     C57952   4.949   0.557   1.836  0.1125  0.3818 -0.1593
  430MOL0     C57953   4.889   0.416   1.809  0.8788 -0.4030  0.1741
  430MOL0     C57954   4.799   0.359   1.926  0.5358  0.2333  1.2702
  430MOL0     C57955   4.734   0.223   1.886  1.3261 -0.1038  0.2054
  430MOL0     C57956   4.642   0.160   2.006 -0.3031 -0.2301  0.5727
  430MOL0     C57957   4.587   0.018   1.966  1.1210  0.0861 -0.0365
  430MOL0     C57958   4.533  -0.061   2.090 -0.7534  0.3090 -0.2236
  430MOL0     C57959   4.390  -0.015   2.126  0.0624  0.4690  0.2993
  430MOL0    Cl57960   4.332  -0.105   2.274  0.4675  0.0830 -0.0388
  430MOL0     C57961   4.852   0.803   2.021  0.2618 -0.4500  0.0785
  430MOL0     C57962   4.871   0.934   2.074  0.2863 -0.2907  0.1105
  430MOL0     O57963   4.806   1.269   1.876 -0.5998  0.6202 -0.2378
  430MOL0     C57964   5.071   1.392   2.087 -0.3495 -0.3879  0.2352
  430MOL0     C57965   5.118   1.507   2.148  0.5769 -1.1897 -0.6793
  430MOL0     N57966   5.674   1.887   2.593 -0.1395  0.2116  0.3202
  430MOL0     N57967   5.740   1.849   2.690  0.5616  0.5624 -0.4032
  430MOL0     C57968   4.809   1.333   2.996  0.3457 -1.2941 -0.0498
  430MOL0     C57969   4.669   1.303   2.999  0.2939 -0.2242 -1.0684
  430MOL0     C57970   4.237   1.435   2.855 -0.5834 -0.3789 -0.0234
  430MOL0     C57971   4.146   1.332   2.846  0.6252  0.0358  0.8707
  430MOL0     C57972   4.012   1.357   2.831 -0.2634 -0.3463  0.3163
  430MOL0     C57973   3.963   1.484   2.797  0.3981 -0.5524  0.2855
  430MOL0     O57974   3.836   1.519   2.777  1.1015  0.1239  0.5775
  430MOL0     C57975   3.731   1.413   2.776 -0.1131  0.4798 -0.9048
  430MOL0     C57976   3.735   1.351   2.634  0.3117  0.4180  0.0932
  430MOL0     C57977   3.701   1.465   2.526 -0.0852 -0.3678  0.0809
  430MOL0     C57978   3.681   1.415   2.385  0.7249  0.7720  0.7079
  430MOL0     C57979   3.538   1.390   2.373  0.6250 -0.8137 -0.5832
  430MOL0     C57980   3.420   1.383   2.365 -0.2600  0.4279 -0.1853
  430MOL0     C57981   4.060   1.583   2.777  0.1764 -0.6221  1.0573
  430MOL0     C57982   4.191   1.563   2.816  0.0061  1.0707  0.1604
  430MOL0     H57983   4.608   1.374   2.667  0.0082  0.6182  0.2242
  430MOL0     H57984   4.852   1.402   2.668  1.8747 -1.8246  0.1548
  430MOL0     H57985   5.081   1.389   2.686 -1.2943  1.4641 -1.2780
  430MOL0     H57986   5.035   1.550   2.751  1.8125  0.5117  2.5737
  430MOL0     H57987   5.242   1.499   2.911 -0.0082 -0.0387  0.4896
  430MOL0     H57988   5.260   1.354   2.819  1.9910  0.1808  0.9758
  430MOL0     H57989   5.325   1.469   2.612  0.5546  0.0529 -1.2657
  430MOL0     H57990   5.253   1.627   2.682  0.8748  0.6344 -1.4096
  430MOL0     H57991   5.493   1.653   2.700  1.5061  1.8097  4.1911
  430MOL0     H57992   5.421   1.632   2.853  2.3902 -0.0934 -0.1983
  430MOL0     H57993   5.496   1.385   2.813 -1.9408  1.3167  0.6128
  430MOL0     H57994   5.580   1.451   2.669  2.0823 -0.3292  0.2893
  430MOL0     H57995   5.652   1.601   2.912 -1.2195 -1.0601  1.4124
  430MOL0     H57996   5.677   1.427   2.931  1.6257  0.1250 -0.2658
  430MOL0     H57997   5.880   1.467   2.848 -2.0292 -1.4841  2.2878
  430MOL0     H57998   5.796   1.428   2.703 -3.4768  0.6209 -0.3533
  430MOL0     H57999   5.960   1.620   2.673  0.1803 -1.2198 -0.4015
  430MOL0     H58000   5.904   1.701   2.818 -0.2438 -0.0277  0.1227
  430MOL0     H58001   5.742   1.596   2.481  1.2254 -0.7807 -0.2082
  430MOL0     H58002   5.558   1.909   2.347 -0.5152  0.4546  1.5253
  430MOL0     H58003   5.611   1.750   2.296 -2.6292 -0.2808 -1.0320
  430MOL0     H58004   5.374   1.776   2.491 -0.7635 -3.6618  1.0318
  430MOL0     H58005   5.436   1.639   2.407  1.5859 -0.1459  0.4211
  430MOL0     H58006   5.357   1.794   2.192 -0.5177  0.3364 -0.1421
  430MOL0     H58007   5.302   1.916   2.306  0.0302  0.1623 -1.1920
  430MOL0     H58008   5.125   1.792   2.395 -1.7720 -1.3162 -0.4018
  430MOL0     H58009   5.184   1.637   2.349 -2.3187 -0.4594 -1.4041
  430MOL0     H58010   4.883   1.732   2.032 -1.5224 -1.6682 -0.8755
  430MOL0     H58011   4.690   1.533   1.949 -0.6015 -0.1178 -0.0044
  430MOL0     H58012   4.782   1.655   1.848  1.6791 -0.6407  1.1827
  430MOL0     H58013   4.786   1.487   1.806 -1.1214  1.4035 -1.3947
  430MOL0     H58014   4.962   1.076   1.782  2.3839 -1.6212 -0.1583
  430MOL0     H58015   4.937   0.852   1.694  2.3858 -2.8030  1.0054
  430MOL0     H58016   5.028   0.593   1.769  1.9896  0.7654  2.1504
  430MOL0     H58017   4.992   0.556   1.936 -1.0783  0.4248  0.3698
  430MOL0     H58018   4.835   0.415   1.714  1.3873  0.1014 -0.1326
  430MOL0     H58019   4.969   0.347   1.782  0.6524  0.0391 -1.7949
  430MOL0     H58020   4.721   0.436   1.928  2.3085  2.4136 -2.5233
  430MOL0     H58021   4.852   0.362   2.021  0.1931 -0.9946  1.5223
  430MOL0     H58022   4.668   0.232   1.799  2.1258 -4.0346 -0.9845
  430MOL0     H58023   4.813   0.158   1.847  2.0561  0.6952  0.3204
  430MOL0     H58024   4.559   0.225   2.035 -1.7267 -2.9839  3.2794
  430MOL0     H58025   4.698   0.153   2.100 -0.5973 -1.2550  0.6887
  430MOL0     H58026   4.510   0.028   1.889  0.9315 -2.2098 -0.2180
  430MOL0     H58027   4.668  -0.040   1.921  0.6553  0.5917 -1.5673
  430MOL0     H58028   4.594  -0.052   2.180 -1.0543 -1.9949  0.2752
  430MOL0     H58029   4.537  -0.169   2.072 -2.6383  0.1315  0.2472
  430MOL0     H58030   4.308  -0.029   2.055  1.1930 -0.4394 -0.8857
  430MOL0     H58031   4.399   0.091   2.151 -1.3634  0.5619  0.4525
  430MOL0     H58032   4.832   0.717   2.084  2.1419 -1.1839 -0.2657
  430MOL0     H58033   4.855   0.961   2.178  1.3883  0.4609  0.0966
  430MOL0     H58034   5.129   1.301   2.100  0.4502  0.3577  2.4902
  430MOL0     H58035   5.203   1.492   2.213  1.5377  1.9317 -1.0571
  430MOL0     H58036   4.873   1.332   3.084  1.5142 -0.8123 -0.8702
  430MOL0     H58037   4.628   1.292   3.099  1.3562  2.2561 -0.2682
  430MOL0     H58038   4.168   1.232   2.883 -4.2386  0.0018  4.8046
  430MOL0     H58039   3.951   1.266   2.834  2.1408 -2.0177  1.5724
  430MOL0     H58040   3.758   1.348   2.860 -0.7331 -1.0385 -1.8446
  430MOL0     H58041   3.636   1.466   2.786  0.9574  2.0721  1.9061
  430MOL0     H58042   3.655   1.277   2.631 -1.7327  2.5221 -0.0449
  430MOL0     H58043   3.833   1.302   2.624  1.0146  1.5371  1.1731
  430MOL0     H58044   3.777   1.544   2.521 -1.6129  1.3946  2.3394
  430MOL0     H58045   3.609   1.517   2.556  0.1881 -0.6611  1.4714
  430MOL0     H58046   3.740   1.325   2.368  2.0335  1.6364  0.4935
  430MOL0     H58047   3.711   1.494   2.315  0.3851 -0.2062 -0.5736
  430MOL0     H58048   3.314   1.369   2.365 -0.1205 -0.8358  0.5198
  430MOL0     H58049   4.039   1.684   2.743  1.7059 -0.0925  1.5740
  430MOL0     H58050   4.261   1.646   2.813 -1.1136  2.0181 -2.6536
  431MOL0     O58051   4.376   2.951   9.315  0.5924  0.6504 -0.4616
  431MOL0     C58052   4.453   2.852   9.312  0.8724 -0.7268  1.5407
  431MOL0     O58053   4.427   2.720   9.350  0.2585  0.3351  0.5457
  431MOL0     C58054   4.294   2.686   9.349  0.3056 -0.0406 -0.1575
  431MOL0     C58055   4.213   2.679   9.237 -0.7760 -0.3039 -0.3317
  431MOL0     C58056   4.074   2.653   9.257 -0.6244  0.1749  0.2438
  431MOL0     C58057   4.013   2.655   9.378  1.5587  0.5615 -0.2361
  431MOL0     O58058   3.881   2.652   9.414  0.1922  0.3600  0.5961
  431MOL0     C58059   3.804   2.689   9.302 -0.0614  0.9350  0.4831
  431MOL0     C58060   3.656   2.715   9.341 -0.0045  0.0674 -1.2362
  431MOL0     C58061   3.587   2.765   9.219 -0.1113  0.0214  0.5245
  431MOL0     C58062   3.447   2.818   9.264  0.2149 -0.2857 -0.2054
  431MOL0     C58063   3.322   2.788   9.174 -0.0590  0.8729  0.4799
  431MOL0     C58064   3.276   2.642   9.174  0.1739  1.0648 -0.6957
  431MOL0     C58065   3.214   2.612   9.307 -0.3835 -0.7522 -0.0419
  431MOL0     C58066   3.174   2.469   9.326  0.0566  0.5067  0.6193
  431MOL0     N58067   3.029   2.475   9.314  0.0001 -0.5498  0.4545
  431MOL0     C58068   2.932   2.436   9.398 -0.2952  0.6183  0.2438
  431MOL0     C58069   2.813   2.456   9.332  0.7913  0.5677 -0.2789
  431MOL0     C58070   2.674   2.433   9.394  0.8819  1.3295  0.0756
  431MOL0     C58071   2.562   2.412   9.286  0.0054  1.1272  0.1866
  431MOL0     C58072   2.426   2.462   9.328  0.4438 -0.4123  0.4235
  431MOL0     C58073   2.364   2.356   9.421  0.4926  1.0703  0.3622
  431MOL0     O58074   2.225   2.381   9.409 -0.1004  0.4254 -0.7950
  431MOL0     C58075   2.154   2.343   9.517  0.1776  0.5392  0.6217
  431MOL0     C58076   2.172   2.235   9.598  0.3895  0.3050  0.0548
  431MOL0     C58077   2.076   2.195   9.690  0.9485  0.2503 -0.5298
  431MOL0     C58078   2.113   2.081   9.776  0.2819 -0.1470 -0.3735
  431MOL0     C58079   1.954   2.259   9.701  0.1829  0.8408 -0.3938
  431MOL0     C58080   1.847   2.216   9.785  0.2573  0.3545  0.1768
  431MOL0     O58081   1.859   2.113   9.878  0.6096 -1.0332 -0.1026
  431MOL0     C58082   1.746   2.066   9.938 -0.3550 -0.4407 -0.0393
  431MOL0     C58083   1.700   2.134  10.045 -0.8117  0.0858  0.8108
  431MOL0     C58084   1.593   2.083  10.124 -0.2358 -1.1697 -0.2735
  431MOL0     C58085   1.534   1.964  10.087 -0.1424 -0.1452 -1.3927
  431MOL0     O58086   1.417   1.929  10.151  0.2681  0.1744  0.5181
  431MOL0     C58087   1.379   1.793  10.169 -0.6018 -0.1707 -0.6390
  431MOL0     C58088   1.457   1.712  10.275 -0.3192  0.2137  0.2120
  431MOL0     C58089   1.446   1.769  10.417  0.9349  0.2151  0.8325
  431MOL0     C58090   1.573   1.839  10.461 -0.5646  0.0292 -0.3938
  431MOL0     C58091   1.557   1.898  10.610  0.8510  0.6769  0.5287
  431MOL0     C58092   1.457   2.007  10.630  0.1155 -0.3261 -0.2417
  431MOL0     C58093   1.437   2.043  10.775  0.3923 -1.2165 -0.6398
  431MOL0     C58094   1.330   1.950  10.841 -0.2144  0.4810  0.4599
  431MOL0    Cl58095   1.157   1.954  10.780 -0.2849  0.2791 -0.2810
  431MOL0     C58096   1.575   1.892   9.972 -0.4544 -0.6784 -0.3306
  431MOL0     C58097   1.691   1.940   9.902 -0.0975  0.4735  0.6378
  431MOL0     O58098   1.739   2.267   9.769 -0.1063 -0.3356 -0.1616
  431MOL0     C58099   1.926   2.355   9.604 -0.6739  0.3662 -0.4824
  431MOL0     C58100   2.029   2.399   9.521 -0.0563  0.2311  0.6065
  431MOL0     N58101   2.839   2.515   9.212  0.0123  0.0049 -0.0432
  431MOL0     N58102   2.973   2.518   9.197  0.8247  0.3682 -0.5410
  431MOL0     C58103   4.100   2.667   9.487  0.0947  0.7167  0.4148
  431MOL0     C58104   4.238   2.681   9.476  0.2350  1.2205 -0.1167
  431MOL0     C58105   4.588   2.867   9.247  0.8723 -0.1368 -0.8246
  431MOL0     C58106   4.638   2.996   9.222  0.8666  0.3240 -0.2528
  431MOL0     C58107   4.769   3.009   9.179 -0.4238 -0.6931 -0.0069
  431MOL0     C58108   4.842   2.895   9.151 -0.3107  0.0248  0.6098
  431MOL0     O58109   4.962   2.921   9.081  0.3006  0.2959 -0.0874
  431MOL0     C58110   5.031   3.046   9.090 -0.0822  0.8925 -0.4682
  431MOL0     C58111   5.179   3.008   9.108  0.4821  0.7183  0.7792
  431MOL0     C58112   5.246   3.146   9.130  0.5606  0.1103 -0.4841
  431MOL0     C58113   5.400   3.130   9.144  0.0672  0.1715 -0.5924
  431MOL0     C58114   5.442   3.252   9.218  0.7384  0.1053 -0.1697
  431MOL0     C58115   5.481   3.358   9.269 -0.6419 -0.0071  0.0433
  431MOL0     C58116   4.797   2.767   9.173 -0.7504  0.4988 -0.1711
  431MOL0     C58117   4.665   2.756   9.215 -0.6652 -0.1080 -0.1369
  431MOL0     H58118   4.253   2.682   9.136 -2.1463  0.6326 -0.8775
  431MOL0     H58119   4.018   2.638   9.164 -0.4307  2.7887 -0.3953
  431MOL0     H58120   3.845   2.775   9.248  1.0367  0.9925  1.3817
  431MOL0     H58121   3.798   2.596   9.245  2.5905 -0.3057  2.0332
  431MOL0     H58122   3.618   2.620   9.378  0.8262  0.8301  1.8426
  431MOL0     H58123   3.645   2.793   9.416  0.9216 -1.8285  1.0024
  431MOL0     H58124   3.649   2.834   9.162  1.1465 -0.3069  1.4588
  431MOL0     H58125   3.561   2.677   9.159 -2.3515  0.1757  1.1544
  431MOL0     H58126   3.417   2.774   9.360 -2.2684 -0.4112 -0.9767
  431MOL0     H58127   3.453   2.926   9.278 -0.5721 -0.2896  0.2240
  431MOL0     H58128   3.243   2.854   9.210  0.8569  0.6823  3.0743
  431MOL0     H58129   3.343   2.811   9.069  0.3582  1.3166  0.6581
  431MOL0     H58130   3.197   2.633   9.100 -0.0735 -0.0872 -0.3062
  431MOL0     H58131   3.363   2.583   9.142  0.9256  1.3394  0.7609
  431MOL0     H58132   3.291   2.616   9.384 -0.3630 -0.6171 -0.0690
  431MOL0     H58133   3.136   2.686   9.330  2.8135  2.3422  1.8039
  431MOL0     H58134   3.209   2.436   9.424 -2.1733  2.5859  2.2419
  431MOL0     H58135   3.217   2.411   9.245 -0.7843  0.9898 -0.1889
  431MOL0     H58136   2.949   2.399   9.499  1.3195 -0.0887 -0.2509
  431MOL0     H58137   2.683   2.339   9.450  0.5761  0.5776 -1.0835
  431MOL0     H58138   2.647   2.521   9.453 -4.0174  2.3864 -3.1311
  431MOL0     H58139   2.553   2.307   9.255  2.2270  1.5077 -2.0129
  431MOL0     H58140   2.589   2.473   9.199 -1.3381  2.1540  0.4594
  431MOL0     H58141   2.359   2.467   9.241 -3.8945  0.0773  3.5099
  431MOL0     H58142   2.433   2.557   9.381 -0.0289 -1.7008  2.9158
  431MOL0     H58143   2.407   2.365   9.521 -0.4800  0.0627  0.9029
  431MOL0     H58144   2.371   2.253   9.383 -1.8932  1.4049 -1.1779
  431MOL0     H58145   2.266   2.180   9.595 -0.8124 -1.8955  0.8737
  431MOL0     H58146   2.052   2.002   9.732  1.1442  0.0502 -2.0160
  431MOL0     H58147   2.219   2.054   9.777  0.4024  0.3245 -0.1056
  431MOL0     H58148   2.090   2.104   9.880  1.3148 -2.8337  0.5429
  431MOL0     H58149   1.743   2.230  10.071 -2.3054  0.6649  1.2342
  431MOL0     H58150   1.547   2.145  10.201  0.3909 -2.5300  1.2386
  431MOL0     H58151   1.275   1.794  10.205  0.0270 -0.0092  1.2626
  431MOL0     H58152   1.373   1.745  10.070 -1.4909 -2.9623  0.6695
  431MOL0     H58153   1.430   1.607  10.261 -0.1852  0.1681  0.2920
  431MOL0     H58154   1.561   1.712  10.242  0.1175  1.6600  1.4711
  431MOL0     H58155   1.430   1.693  10.495  1.4347 -0.0537  0.6769
  431MOL0     H58156   1.355   1.830  10.418  1.9299  1.7420  0.7296
  431MOL0     H58157   1.660   1.773  10.462 -2.4634 -2.8442 -3.1300
  431MOL0     H58158   1.582   1.927  10.398 -0.0336 -0.6647 -1.3179
  431MOL0     H58159   1.652   1.940  10.645  0.9723  1.9592 -1.2169
  431MOL0     H58160   1.539   1.805  10.665 -0.3732 -1.3728 -3.0322
  431MOL0     H58161   1.501   2.093  10.579 -0.0291 -3.0562 -5.6739
  431MOL0     H58162   1.361   1.990  10.581 -0.0501  2.2611 -0.9255
  431MOL0     H58163   1.394   2.144  10.779  1.6561 -0.6966  1.7217
  431MOL0     H58164   1.532   2.050  10.829  0.2515  2.1734 -0.6102
  431MOL0     H58165   1.324   1.976  10.947  1.7710  0.3649  0.6328
  431MOL0     H58166   1.372   1.850  10.837 -2.3308 -0.4152 -1.8464
  431MOL0     H58167   1.534   1.800   9.933 -0.2066 -0.1248 -1.9561
  431MOL0     H58168   1.746   1.880   9.830  1.3576  2.3342  0.1186
  431MOL0     H58169   1.827   2.395   9.588 -0.4313  0.2537 -2.4626
  431MOL0     H58170   2.004   2.484   9.457 -0.1540 -1.2461 -1.4100
  431MOL0     H58171   4.063   2.669   9.589 -2.0459  6.1447 -0.1619
  431MOL0     H58172   4.307   2.705   9.556 -0.4835  0.4131  0.7602
  431MOL0     H58173   4.583   3.089   9.233 -1.1333 -0.9231  0.8662
  431MOL0     H58174   4.800   3.107   9.146  0.1138 -0.1319  1.9772
  431MOL0     H58175   5.020   3.116   9.007  1.6975  2.4550  0.5323
  431MOL0     H58176   5.006   3.101   9.181 -0.5173 -2.4436  1.5944
  431MOL0     H58177   5.221   2.951   9.025  3.2485  0.4845  2.2102
  431MOL0     H58178   5.197   2.953   9.201  1.4667  2.1914  1.4881
  431MOL0     H58179   5.206   3.200   9.216  0.6108  0.4925 -0.7001
  431MOL0     H58180   5.215   3.199   9.040  2.3281 -1.7528 -2.3114
  431MOL0     H58181   5.450   3.123   9.047 -1.0863  1.5159 -1.3296
  431MOL0     H58182   5.427   3.038   9.195 -4.7126 -0.6605  1.0278
  431MOL0     H58183   5.526   3.443   9.316 -1.4026 -1.1801  3.1330
  431MOL0     H58184   4.858   2.679   9.158 -2.0642 -1.2435  3.4558
  431MOL0     H58185   4.627   2.658   9.243 -1.0744 -0.3881 -1.5652
  432MOL0     O58186   3.103   8.324   1.853 -0.0075  0.3427  0.2456
  432MOL0     C58187   2.996   8.379   1.804 -0.5472  0.8067  0.8485
  432MOL0     O58188   2.989   8.434   1.672 -0.2125  0.0537 -0.3258
  432MOL0     C58189   3.098   8.395   1.589 -0.3465 -0.3517 -0.4821
  432MOL0     C58190   3.221   8.458   1.603  0.1149 -0.1001  1.2033
  432MOL0     C58191   3.331   8.414   1.527 -0.1295 -0.4542 -0.0223
  432MOL0     C58192   3.322   8.313   1.427  0.0803 -0.3406 -0.6345
  432MOL0     O58193   3.422   8.290   1.336 -0.9483  0.1732 -0.3157
  432MOL0     C58194   3.451   8.153   1.322  0.0737  0.0560  0.2730
  432MOL0     C58195   3.595   8.127   1.361  0.0048 -1.0131 -0.6085
  432MOL0     C58196   3.686   8.114   1.239  0.0668  0.5661  0.4271
  432MOL0     C58197   3.827   8.140   1.284 -0.9704  0.0972  0.1940
  432MOL0     C58198   3.929   8.140   1.172  0.4948  0.1904 -0.9415
  432MOL0     C58199   4.050   8.204   1.233 -0.9839 -0.2648 -0.1871
  432MOL0     C58200   4.169   8.206   1.130  0.4144 -0.4100  0.5655
  432MOL0     C58201   4.215   8.059   1.098 -0.8203 -1.0710  0.0095
  432MOL0     N58202   4.331   8.050   1.007 -0.3197  0.3877  0.1093
  432MOL0     C58203   4.330   7.977   0.896  1.2470 -0.6223  0.0400
  432MOL0     C58204   4.449   7.987   0.846 -0.5939 -0.5749  0.3741
  432MOL0     C58205   4.508   7.943   0.715 -0.2949 -0.9838 -0.2913
  432MOL0     C58206   4.421   7.837   0.644 -1.2074 -0.9830 -0.1378
  432MOL0     C58207   4.485   7.817   0.507  1.2775 -0.1095 -0.2597
  432MOL0     C58208   4.393   7.755   0.404  0.7955 -0.2064 -0.8028
  432MOL0     O58209   4.461   7.706   0.283  0.2569  0.2179 -0.6359
  432MOL0     C58210   4.390   7.676   0.165 -0.3472  0.1714 -0.1536
  432MOL0     C58211   4.252   7.679   0.164 -0.4974  0.2854 -0.1423
  432MOL0     C58212   4.184   7.654   0.041  0.2065 -0.0390  0.4304
  432MOL0     C58213   4.031   7.679   0.038  0.1963  0.0812 -0.1144
  432MOL0     C58214   4.254   7.609  -0.071  0.6789 -0.4199  0.2489
  432MOL0     C58215   4.190   7.599  -0.206  0.4884  0.3595  0.5606
  432MOL0     O58216   4.286   7.568  -0.303 -0.1717 -0.6037  0.0619
  432MOL0     C58217   4.255   7.534  -0.431  0.7898 -0.9608  0.5195
  432MOL0     C58218   4.307   7.425  -0.487  0.0472  0.1767  0.5484
  432MOL0     C58219   4.288   7.392  -0.628 -0.1372  0.2752  0.0121
  432MOL0     C58220   4.196   7.462  -0.709 -0.0893  0.1031 -0.2604
  432MOL0     O58221   4.180   7.415  -0.835  0.1434 -0.2063  0.0845
  432MOL0     C58222   4.080   7.458  -0.921 -0.2873 -0.5148  0.3215
  432MOL0     C58223   3.929   7.439  -0.877 -0.8871 -0.3813 -0.4725
  432MOL0     C58224   3.882   7.300  -0.892 -0.4162 -1.2789 -0.2881
  432MOL0     C58225   3.950   7.197  -0.800 -0.1174 -0.6531 -0.5968
  432MOL0     C58226   3.930   7.053  -0.818  0.7500 -0.2317  0.0487
  432MOL0     C58227   3.783   6.997  -0.803 -0.1977 -0.5752  0.8492
  432MOL0     C58228   3.709   7.032  -0.671  0.4283  0.6015 -0.4164
  432MOL0     C58229   3.720   6.914  -0.570 -0.5380  0.0871  0.4353
  432MOL0    Cl58230   3.641   6.954  -0.415  0.5353  0.4642 -0.1414
  432MOL0     C58231   4.140   7.574  -0.647 -0.2342 -1.2990  0.8041
  432MOL0     C58232   4.174   7.611  -0.513  0.5890 -0.4925 -0.2937
  432MOL0     O58233   4.069   7.589  -0.226  0.4122  0.2690 -0.6917
  432MOL0     C58234   4.392   7.615  -0.069 -0.6793  0.5294 -0.4210
  432MOL0     C58235   4.462   7.650   0.056  0.8051  0.1641  0.2933
  432MOL0     N58236   4.525   8.069   0.927  0.3091 -0.7804 -0.0640
  432MOL0     N58237   4.447   8.118   1.012 -0.3393 -0.3952 -0.0052
  432MOL0     C58238   3.196   8.257   1.412  0.3617  1.0258 -0.7195
  432MOL0     C58239   3.083   8.299   1.485  0.0081 -0.2245  0.3085
  432MOL0     C58240   2.877   8.387   1.885  0.5688 -0.1134  0.1861
  432MOL0     C58241   2.759   8.422   1.820 -0.0777 -0.1244 -1.0065
  432MOL0     C58242   2.648   8.449   1.900  0.0536 -0.0843 -0.1042
  432MOL0     C58243   2.646   8.425   2.040  0.0838 -0.2602 -0.5154
  432MOL0     O58244   2.531   8.449   2.108  0.3435 -0.2713 -0.3781
  432MOL0     C58245   2.513   8.393   2.237 -0.7428  1.0435  0.2108
  432MOL0     C58246   2.360   8.364   2.251 -0.0116 -0.3157  0.4756
  432MOL0     C58247   2.325   8.291   2.377  0.5636  0.0287  0.0431
  432MOL0     C58248   2.166   8.309   2.411  0.2331 -0.2312 -0.2694
  432MOL0     C58249   2.091   8.219   2.329 -0.1540  0.6771 -0.0175
  432MOL0     C58250   2.052   8.138   2.251 -0.4992  0.0900 -0.2554
  432MOL0     C58251   2.767   8.385   2.101  0.5237  0.8444  0.1979
  432MOL0     C58252   2.881   8.378   2.029 -0.0305 -0.0744  0.1869
  432MOL0     H58253   3.226   8.540   1.674  1.7331  1.7411 -0.9181
  432MOL0     H58254   3.426   8.466   1.522 -0.4320  0.0926 -0.0829
  432MOL0     H58255   3.383   8.084   1.373  0.3891 -1.8436 -1.7192
  432MOL0     H58256   3.444   8.139   1.214 -1.2752  0.4134  0.3006
  432MOL0     H58257   3.623   8.207   1.430 -1.0556 -2.7974  2.0476
  432MOL0     H58258   3.605   8.039   1.425  3.7817  0.8859  1.7072
  432MOL0     H58259   3.668   8.020   1.186  0.1615  1.7936 -1.9025
  432MOL0     H58260   3.663   8.198   1.172 -0.2034  1.0113  1.0708
  432MOL0     H58261   3.839   8.234   1.339 -1.9097  1.6029 -1.9968
  432MOL0     H58262   3.855   8.053   1.344 -1.0109 -1.1580 -1.5191
  432MOL0     H58263   3.955   8.038   1.142  1.4427 -0.3256  1.3863
  432MOL0     H58264   3.884   8.199   1.092  0.6084  0.5833 -0.7192
  432MOL0     H58265   4.037   8.308   1.265  3.3594  1.2679 -2.5297
  432MOL0     H58266   4.093   8.156   1.321 -1.4954 -2.0010 -0.8392
  432MOL0     H58267   4.149   8.264   1.040  2.4945 -0.9976 -0.3305
  432MOL0     H58268   4.247   8.268   1.175  1.6952 -1.5443 -0.0359
  432MOL0     H58269   4.133   8.008   1.046 -2.4919  1.1669  0.2908
  432MOL0     H58270   4.227   8.016   1.198 -1.2567  2.2154  1.5832
  432MOL0     H58271   4.244   7.931   0.847 -0.1269  1.9325 -0.1132
  432MOL0     H58272   4.539   8.013   0.636 -1.0982 -2.7610 -2.2919
  432MOL0     H58273   4.603   7.895   0.739  0.8150  0.7444 -0.9992
  432MOL0     H58274   4.322   7.882   0.635  0.0613  2.0535  0.1964
  432MOL0     H58275   4.418   7.741   0.697  0.1838 -3.1799 -3.6719
  432MOL0     H58276   4.585   7.774   0.516  1.1013 -0.3013  0.9416
  432MOL0     H58277   4.503   7.913   0.459  0.7136 -0.4666 -1.2091
  432MOL0     H58278   4.318   7.832   0.381  2.9679  1.7883 -1.6918
  432MOL0     H58279   4.328   7.679   0.448  2.2007 -0.0192  1.7740
  432MOL0     H58280   4.199   7.702   0.257  0.2974  0.8165  0.1890
  432MOL0     H58281   3.989   7.745  -0.038  0.1495  3.3945  2.5239
  432MOL0     H58282   3.973   7.587   0.025 -3.3833  2.2085 -0.6610
  432MOL0     H58283   3.995   7.723   0.132  0.4183  2.1936 -0.9720
  432MOL0     H58284   4.358   7.357  -0.420 -0.1850  1.6953  2.3515
  432MOL0     H58285   4.343   7.308  -0.671 -2.4065 -1.1680 -0.2579
  432MOL0     H58286   4.085   7.567  -0.928 -1.9274 -0.4500 -0.5104
  432MOL0     H58287   4.094   7.401  -1.014  0.6798 -1.4494  1.0161
  432MOL0     H58288   3.921   7.468  -0.771  1.7211  0.2971 -0.3868
  432MOL0     H58289   3.868   7.507  -0.936  0.8718  0.6505 -1.1747
  432MOL0     H58290   3.927   7.260  -0.983  3.1404 -1.3465  1.3049
  432MOL0     H58291   3.773   7.293  -0.897 -0.6149  1.3941 -3.0648
  432MOL0     H58292   4.055   7.220  -0.782 -0.3955  0.1725  0.0625
  432MOL0     H58293   3.916   7.213  -0.697  0.4343  0.3668 -0.5619
  432MOL0     H58294   3.985   6.997  -0.741 -0.5502 -2.2835 -0.4289
  432MOL0     H58295   3.981   7.028  -0.911  2.6641  0.1236  0.9482
  432MOL0     H58296   3.727   7.027  -0.893 -1.3849 -1.2814  1.3281
  432MOL0     H58297   3.781   6.889  -0.819  0.0126 -0.8567  2.5737
  432MOL0     H58298   3.611   7.076  -0.691  0.3157 -0.3295 -2.0558
  432MOL0     H58299   3.756   7.114  -0.614 -0.8443  2.0463 -1.3630
  432MOL0     H58300   3.828   6.899  -0.561 -0.6120 -0.2603  0.7809
  432MOL0     H58301   3.672   6.825  -0.611 -1.0449  0.2494  0.6589
  432MOL0     H58302   4.091   7.655  -0.699  1.9456  0.5813  1.4951
  432MOL0     H58303   4.136   7.708  -0.482 -2.1372 -1.6305  0.2229
  432MOL0     H58304   4.455   7.589  -0.153 -0.8551  0.6629 -0.5933
  432MOL0     H58305   4.570   7.656   0.068  0.7471  0.0421  0.9330
  432MOL0     H58306   3.190   8.189   1.328  1.3996  1.7683 -1.4281
  432MOL0     H58307   2.983   8.269   1.459 -1.9178  4.1197  1.7512
  432MOL0     H58308   2.758   8.437   1.713  0.5324  0.1806 -0.9713
  432MOL0     H58309   2.556   8.491   1.859 -0.0345 -1.0456 -0.9391
  432MOL0     H58310   2.566   8.297   2.241 -2.5032  0.0171 -0.2069
  432MOL0     H58311   2.551   8.467   2.307  1.3435  2.1279 -1.9299
  432MOL0     H58312   2.336   8.306   2.161  1.0689 -0.5587  0.3180
  432MOL0     H58313   2.301   8.456   2.244 -2.6028 -1.9468 -0.5310
  432MOL0     H58314   2.378   8.334   2.463  0.1199  0.1007  0.2849
  432MOL0     H58315   2.348   8.187   2.355 -1.3898 -0.2620 -0.8028
  432MOL0     H58316   2.135   8.410   2.385 -0.4781 -0.4529 -0.3136
  432MOL0     H58317   2.147   8.276   2.513  1.7391 -0.6775 -0.1068
  432MOL0     H58318   2.015   8.053   2.197 -0.9552 -1.3149  2.1179
  432MOL0     H58319   2.776   8.378   2.208  0.3103 -2.2751  0.0916
  432MOL0     H58320   2.970   8.361   2.089  0.7866  2.2148 -0.2805
  433MOL0     O58321  10.157  10.757   1.675  0.0056  0.4079  0.3952
  433MOL0     C58322  10.089  10.809   1.764  0.2082  0.1322 -0.4719
  433MOL0     O58323  10.103  10.932   1.818  0.5104 -0.0653 -0.0948
  433MOL0     C58324  10.191  11.023   1.786  0.1992 -0.4128  0.5563
  433MOL0     C58325  10.325  11.018   1.743  0.0172  0.4841  0.2074
  433MOL0     C58326  10.388  11.140   1.692 -1.2760 -0.3221  0.0358
  433MOL0     C58327  10.321  11.262   1.688 -0.9658 -0.0085  0.6151
  433MOL0     O58328  10.376  11.385   1.658  0.5079  0.2490  0.4915
  433MOL0     C58329  10.488  11.386   1.568  0.0719  0.0394 -0.0149
  433MOL0     C58330  10.499  11.532   1.513  0.1385  0.7118  0.2477
  433MOL0     C58331  10.607  11.545   1.399 -0.0289 -0.5788 -0.4067
  433MOL0     C58332  10.611  11.692   1.343 -0.3614  0.0686  1.2078
  433MOL0     C58333  10.668  11.784   1.443 -0.1862 -0.2174 -0.3335
  433MOL0     C58334  10.617  11.927   1.410 -0.0465 -0.3149  0.2084
  433MOL0     C58335  10.681  12.046   1.479 -0.2143  0.2991 -0.7831
  433MOL0     C58336  10.636  12.072   1.628  0.6809 -0.5176 -0.1525
  433MOL0     N58337  10.625  11.962   1.727  0.0359  0.1664  0.7917
  433MOL0     C58338  10.726  11.932   1.814  0.6850  0.1240  0.8512
  433MOL0     C58339  10.691  11.821   1.867 -1.2493 -0.1873 -0.0184
  433MOL0     C58340  10.771  11.755   1.967 -0.4681  0.3374  0.6033
  433MOL0     C58341  10.799  11.597   1.946 -0.0980 -0.5663 -0.5421
  433MOL0     C58342  10.677  11.505   1.912 -0.5269  0.7244  0.6323
  433MOL0     C58343  10.714  11.356   1.896  0.6760  0.3796 -0.7059
  433MOL0     O58344  10.729  11.287   2.027 -0.7991  0.0440  0.4571
  433MOL0     C58345  10.617  11.222   2.070  0.4758  0.5609 -0.2240
  433MOL0     C58346  10.600  11.084   2.049  0.6416 -0.1998 -1.1641
  433MOL0     C58347  10.475  11.014   2.073  0.0240  0.3858  0.7658
  433MOL0     C58348  10.473  10.858   2.031 -0.0748  0.0343 -1.2550
  433MOL0     C58349  10.366  11.090   2.122  0.3130  0.6337  0.1934
  433MOL0     C58350  10.238  11.018   2.158  0.1493 -1.2969 -0.0439
  433MOL0     O58351  10.148  11.099   2.203  0.0867 -0.0642 -0.6965
  433MOL0     C58352  10.034  11.048   2.250 -1.0975 -0.0248 -0.1018
  433MOL0     C58353   9.998  11.033   2.381  0.0178 -0.6153 -0.4953
  433MOL0     C58354   9.875  10.992   2.426 -0.1662  0.4425 -0.1170
  433MOL0     C58355   9.780  10.951   2.328 -0.0419 -1.1065 -0.3490
  433MOL0     O58356   9.651  10.913   2.349  0.0087 -0.2559  0.4950
  433MOL0     C58357   9.617  10.847   2.473 -0.5914 -1.0832 -0.1146
  433MOL0     C58358   9.588  10.937   2.589  0.7852  0.0226  0.3561
  433MOL0     C58359   9.517  10.878   2.714 -0.5632 -0.0514  0.3101
  433MOL0     C58360   9.370  10.876   2.688  0.7666 -0.1308  1.4301
  433MOL0     C58361   9.290  10.815   2.800 -0.3656 -0.1834 -0.5915
  433MOL0     C58362   9.145  10.810   2.768  0.1324 -0.7329  0.0026
  433MOL0     C58363   9.077  10.771   2.902  0.4228  0.2401  0.2003
  433MOL0     C58364   8.935  10.734   2.868  0.1292 -0.2426 -0.3949
  433MOL0    Cl58365   8.834  10.708   3.008  0.0387  0.1939 -0.0423
  433MOL0     C58366   9.810  10.972   2.191 -0.2313  0.3396 -0.2639
  433MOL0     C58367   9.939  11.012   2.150  0.4289 -0.7549 -1.0378
  433MOL0     O58368  10.229  10.893   2.153  0.0366 -0.1992 -0.3908
  433MOL0     C58369  10.391  11.228   2.160 -0.1483  0.6575  0.2104
  433MOL0     C58370  10.519  11.291   2.135  0.4844  0.2157 -0.2677
  433MOL0     N58371  10.570  11.777   1.817 -0.1189  0.5507 -0.1583
  433MOL0     N58372  10.528  11.864   1.733  0.2848  0.1843 -0.4345
  433MOL0     C58373  10.190  11.268   1.739 -1.0077  0.9881 -0.1509
  433MOL0     C58374  10.128  11.152   1.781  0.0008  0.2374  0.4332
  433MOL0     C58375  10.000  10.721   1.837  0.1159 -0.0630  0.5646
  433MOL0     C58376   9.922  10.628   1.771 -0.5001 -0.8145 -0.9712
  433MOL0     C58377   9.830  10.548   1.843 -0.1010  0.5819  0.7972
  433MOL0     C58378   9.816  10.552   1.985  0.4424 -0.1164 -0.1267
  433MOL0     O58379   9.730  10.461   2.045 -0.0547  0.5788 -0.0530
  433MOL0     C58380   9.732  10.463   2.186 -0.1229 -0.9954 -0.5042
  433MOL0     C58381   9.673  10.348   2.249  0.4334  0.3257 -0.3825
  433MOL0     C58382   9.518  10.328   2.229 -0.9693 -0.5227  0.4720
  433MOL0     C58383   9.436  10.456   2.268 -0.4860  0.6354 -0.3162
  433MOL0     C58384   9.456  10.494   2.402  0.2638 -0.4388  0.0463
  433MOL0     C58385   9.478  10.536   2.520  0.4032  0.5698  0.2141
  433MOL0     C58386   9.896  10.647   2.060 -0.0073 -1.0723  0.8318
  433MOL0     C58387   9.989  10.723   1.982  0.7987  0.7573  1.0375
  433MOL0     H58388  10.376  10.923   1.732 -1.8494 -0.3460 -2.2520
  433MOL0     H58389  10.490  11.143   1.657 -1.5174  1.6400 -0.6323
  433MOL0     H58390  10.577  11.364   1.627  1.1945  1.6290 -1.0353
  433MOL0     H58391  10.469  11.304   1.499  1.4263  0.7385 -1.2761
  433MOL0     H58392  10.404  11.569   1.474  1.4548  3.6115 -0.5444
  433MOL0     H58393  10.530  11.594   1.598 -0.0618  2.1478 -0.6876
  433MOL0     H58394  10.702  11.542   1.452 -0.0280  1.7412 -0.1712
  433MOL0     H58395  10.586  11.480   1.314  1.1874 -0.8571 -0.5045
  433MOL0     H58396  10.682  11.681   1.261  1.2042 -1.2638  2.6533
  433MOL0     H58397  10.512  11.721   1.308  0.2006  0.6015  0.0350
  433MOL0     H58398  10.643  11.759   1.546 -0.2816 -2.2147 -0.8101
  433MOL0     H58399  10.776  11.789   1.424  0.3910 -1.7349  2.2184
  433MOL0     H58400  10.623  11.943   1.302 -1.1912 -4.1950 -0.5897
  433MOL0     H58401  10.513  11.931   1.444 -0.6249 -0.0842 -1.4834
  433MOL0     H58402  10.787  12.022   1.497 -1.3187 -4.0304  1.5012
  433MOL0     H58403  10.684  12.136   1.417  1.1867 -0.3557 -1.7118
  433MOL0     H58404  10.540  12.125   1.620  1.5168  0.8901 -1.5846
  433MOL0     H58405  10.705  12.143   1.674  2.3271 -1.9863 -0.2437
  433MOL0     H58406  10.806  12.005   1.824  1.2853 -0.4236  0.1482
  433MOL0     H58407  10.872  11.797   1.976  0.0849 -0.7086 -0.5048
  433MOL0     H58408  10.718  11.760   2.062 -0.7108  0.2416  0.4740
  433MOL0     H58409  10.838  11.551   2.038 -1.1845 -0.6430 -0.1042
  433MOL0     H58410  10.857  11.582   1.854 -1.7964  2.0342 -2.1519
  433MOL0     H58411  10.640  11.534   1.813 -2.3794  2.1486  1.6874
  433MOL0     H58412  10.593  11.526   1.979  0.7059  0.3263  2.3706
  433MOL0     H58413  10.807  11.342   1.840 -0.3708 -0.8076 -2.2198
  433MOL0     H58414  10.635  11.312   1.834  0.6487  1.3581 -1.3833
  433MOL0     H58415  10.688  11.023   2.028  0.6587 -1.4474  1.8662
  433MOL0     H58416  10.436  10.787   2.105  0.6760 -0.6624 -1.5166
  433MOL0     H58417  10.401  10.852   1.949 -1.2572  1.5298 -0.3612
  433MOL0     H58418  10.564  10.818   1.984 -0.6591  0.4727 -2.8158
  433MOL0     H58419  10.079  11.073   2.441 -0.4597  0.9187 -0.8111
  433MOL0     H58420   9.860  10.981   2.533  0.4256  0.9396  0.0286
  433MOL0     H58421   9.533  10.780   2.455 -0.8397 -1.1110  1.0684
  433MOL0     H58422   9.700  10.779   2.497 -1.3683 -2.1192 -0.2963
  433MOL0     H58423   9.679  10.988   2.622  1.7889 -1.8423  0.6261
  433MOL0     H58424   9.527  11.019   2.550  1.4172  0.8383  1.0296
  433MOL0     H58425   9.541  10.943   2.798 -1.7466 -0.3231  0.8855
  433MOL0     H58426   9.548  10.780   2.752  0.3268  0.7615  1.7598
  433MOL0     H58427   9.343  10.982   2.683  1.1762 -0.0674 -0.1022
  433MOL0     H58428   9.339  10.822   2.598 -1.3474  1.3057  1.2228
  433MOL0     H58429   9.304  10.882   2.885  3.1047 -1.8325  0.3180
  433MOL0     H58430   9.327  10.719   2.838 -0.7299 -0.4057 -0.7942
  433MOL0     H58431   9.118  10.915   2.751 -1.1816 -0.9774  0.4863
  433MOL0     H58432   9.123  10.751   2.679  0.3084  1.7766 -1.8100
  433MOL0     H58433   9.073  10.856   2.970  2.5845  2.2648 -2.0025
  433MOL0     H58434   9.128  10.683   2.941 -0.2942 -0.1790  0.2225
  433MOL0     H58435   8.927  10.645   2.805  3.8101 -0.0199 -1.4382
  433MOL0     H58436   8.902  10.821   2.810 -0.2410 -0.0851  0.0467
  433MOL0     H58437   9.730  10.970   2.117 -2.2364  1.9327  1.7190
  433MOL0     H58438   9.944  11.019   2.042 -0.6386  0.3036 -1.0408
  433MOL0     H58439  10.314  11.274   2.221  0.2329  3.0348 -0.9892
  433MOL0     H58440  10.535  11.397   2.152  3.7086 -0.1658 -0.3147
  433MOL0     H58441  10.133  11.361   1.746 -1.9798  0.6426 -2.3772
  433MOL0     H58442  10.033  11.160   1.832  0.7559 -2.2465  2.4113
  433MOL0     H58443   9.926  10.612   1.664 -3.1625 -2.2231 -0.9497
  433MOL0     H58444   9.776  10.475   1.784 -1.5050  0.5184  2.1068
  433MOL0     H58445   9.838  10.463   2.215  0.4507 -1.3906 -2.4585
  433MOL0     H58446   9.679  10.547   2.231  0.6369 -0.5026 -0.5128
  433MOL0     H58447   9.684  10.343   2.357 -3.5206  2.3276  0.2749
  433MOL0     H58448   9.721  10.263   2.200 -0.6597  0.3049 -1.4679
  433MOL0     H58449   9.490  10.239   2.286  1.0572 -2.5128 -1.4605
  433MOL0     H58450   9.500  10.305   2.124  0.2537 -3.7682  0.8457
  433MOL0     H58451   9.328  10.455   2.249 -0.7715 -0.4246  1.1911
  433MOL0     H58452   9.478  10.536   2.205 -1.0517  2.4731  1.5324
  433MOL0     H58453   9.477  10.588   2.614 -0.6924  1.1596 -0.1045
  433MOL0     H58454   9.913  10.649   2.167  0.1340  1.0930  0.8239
  433MOL0     H58455  10.064  10.787   2.027  1.1827  0.0020  1.4867
  434MOL0     O58456  11.280  11.211   4.254 -0.2878  0.1268 -0.0595
  434MOL0     C58457  11.364  11.133   4.284  0.2880  0.4855 -0.2141
  434MOL0     O58458  11.376  11.072   4.406  0.3645 -0.2470  0.8683
  434MOL0     C58459  11.293  11.102   4.510 -0.6880  0.0465 -0.1684
  434MOL0     C58460  11.220  11.001   4.575  0.1568 -0.7803  0.5355
  434MOL0     C58461  11.138  11.013   4.692  0.0110 -0.6954 -0.9379
  434MOL0     C58462  11.137  11.144   4.743  0.2390  0.0411 -0.2370
  434MOL0     O58463  11.073  11.175   4.862  0.0566  0.3691 -0.0371
  434MOL0     C58464  10.959  11.105   4.907  0.9949  0.0042 -0.2114
  434MOL0     C58465  10.897  11.187   5.023  1.0218  1.3872 -0.3446
  434MOL0     C58466  10.839  11.313   4.966 -0.0989 -0.3979  0.5847
  434MOL0     C58467  10.741  11.375   5.058  0.9493 -0.7748 -0.0354
  434MOL0     C58468  10.680  11.513   4.990 -0.8665  0.6209 -0.3821
  434MOL0     C58469  10.592  11.574   5.102  0.1051  0.0343  0.3642
  434MOL0     C58470  10.492  11.683   5.050 -0.7060  0.3792 -0.0393
  434MOL0     C58471  10.440  11.776   5.157 -0.2354  0.2560  0.6425
  434MOL0     N58472  10.326  11.859   5.126  0.2069 -0.0020 -0.6760
  434MOL0     C58473  10.311  11.933   5.015  0.4919 -0.5567 -0.4539
  434MOL0     C58474  10.195  11.998   5.027 -0.8067 -0.6617  0.0014
  434MOL0     C58475  10.145  12.083   4.913  0.0916  0.1348  0.0707
  434MOL0     C58476  10.216  12.216   4.921 -0.0166 -0.0253 -0.3632
  434MOL0     C58477  10.161  12.319   5.023  0.6159 -0.1992 -0.8733
  434MOL0     C58478  10.012  12.339   5.018 -0.3551 -0.4416  1.1397
  434MOL0     O58479   9.966  12.369   4.886  0.6186 -0.4872 -0.0466
  434MOL0     C58480   9.831  12.381   4.851  0.1641 -0.0458  0.1609
  434MOL0     C58481   9.797  12.340   4.719  0.5518  0.3811 -0.5639
  434MOL0     C58482   9.665  12.332   4.678  0.2316 -0.3538 -0.3224
  434MOL0     C58483   9.635  12.247   4.560 -0.2999  0.3614  0.2838
  434MOL0     C58484   9.567  12.397   4.757  0.4382  1.1573 -0.0004
  434MOL0     C58485   9.422  12.405   4.709 -0.1710  0.0372 -0.6027
  434MOL0     O58486   9.396  12.437   4.578  0.2816  1.1097 -0.6524
  434MOL0     C58487   9.270  12.488   4.545 -0.4265  0.6473  0.3260
  434MOL0     C58488   9.173  12.557   4.623 -0.9572  0.3189  0.2079
  434MOL0     C58489   9.051  12.604   4.563 -0.7643 -0.9738 -0.2379
  434MOL0     C58490   9.021  12.595   4.431  0.0883 -0.5939 -0.5562
  434MOL0     O58491   8.915  12.647   4.367  0.2270 -0.7236  0.3236
  434MOL0     C58492   8.812  12.701   4.448  0.5122 -0.2065  0.7613
  434MOL0     C58493   8.687  12.732   4.364 -0.9726 -0.1377 -0.2699
  434MOL0     C58494   8.593  12.829   4.438  0.9567 -0.1374 -0.8130
  434MOL0     C58495   8.643  12.965   4.446  0.9513 -0.0267 -0.8444
  434MOL0     C58496   8.521  13.059   4.485  0.8413 -0.7402 -0.2990
  434MOL0     C58497   8.558  13.206   4.480 -0.1928 -0.0386  0.2371
  434MOL0     C58498   8.588  13.267   4.341 -0.0577 -0.1869 -0.3155
  434MOL0     C58499   8.560  13.417   4.330  0.5022  0.8475  0.0027
  434MOL0    Cl58500   8.530  13.470   4.162  0.0114 -0.2990 -0.0481
  434MOL0     C58501   9.106  12.516   4.352  0.8373  0.5187  1.0987
  434MOL0     C58502   9.223  12.466   4.410 -0.1375 -0.4611  0.0575
  434MOL0     O58503   9.343  12.407   4.804 -0.7082 -0.6024 -0.1293
  434MOL0     C58504   9.594  12.444   4.880 -0.4343  0.3190 -0.1938
  434MOL0     C58505   9.728  12.434   4.925 -1.0058  0.1059 -0.3901
  434MOL0     N58506  10.130  11.960   5.142 -0.0161 -0.2064 -0.3738
  434MOL0     N58507  10.212  11.879   5.205  0.7184 -0.2297  0.4616
  434MOL0     C58508  11.221  11.243   4.691  0.2784  0.1028  0.3042
  434MOL0     C58509  11.292  11.230   4.574  0.1325  0.9879  0.0160
  434MOL0     C58510  11.466  11.093   4.179  0.3439 -1.0993  0.2414
  434MOL0     C58511  11.575  11.007   4.202  0.2338 -0.0119 -0.7498
  434MOL0     C58512  11.655  10.957   4.091 -0.5079 -0.3664 -0.1607
  434MOL0     C58513  11.641  11.014   3.960  0.7398 -0.9286  0.0328
  434MOL0     O58514  11.704  10.974   3.841  1.0567  0.2659 -0.3155
  434MOL0     C58515  11.773  10.844   3.849 -0.7862 -0.2047 -0.5684
  434MOL0     C58516  11.846  10.820   3.722  0.5773  0.8475 -0.2465
  434MOL0     C58517  11.898  10.673   3.731  0.2191 -0.1589  0.2366
  434MOL0     C58518  12.026  10.654   3.640  0.8482 -0.5704 -0.1542
  434MOL0     C58519  12.069  10.520   3.646  0.2510  0.8041  0.7281
  434MOL0     C58520  12.097  10.404   3.665  0.5961 -0.0045 -0.6581
  434MOL0     C58521  11.541  11.114   3.953  0.6150  0.6624 -0.0301
  434MOL0     C58522  11.462  11.151   4.056  0.2130  0.8891  0.8251
  434MOL0     H58523  11.236  10.902   4.533  3.0148 -0.0229 -0.4137
  434MOL0     H58524  11.088  10.932   4.743  1.5272 -1.3150 -0.4034
  434MOL0     H58525  10.885  11.102   4.827 -0.1254  0.8084  0.7539
  434MOL0     H58526  10.998  11.009   4.941  2.9783  1.4025  1.7743
  434MOL0     H58527  10.822  11.123   5.069  1.6549 -1.0868 -2.5126
  434MOL0     H58528  10.969  11.215   5.100  0.7092  3.0878 -0.6364
  434MOL0     H58529  10.915  11.387   4.939 -1.5985  1.4354  1.1705
  434MOL0     H58530  10.794  11.293   4.868 -1.3153 -2.5997  1.5068
  434MOL0     H58531  10.659  11.312   5.094 -0.6536  2.5815  2.8325
  434MOL0     H58532  10.784  11.404   5.155  1.5105  0.7627 -0.7194
  434MOL0     H58533  10.765  11.571   4.953  0.5441  1.0572  3.1784
  434MOL0     H58534  10.615  11.480   4.908  0.9606 -2.8466 -0.6086
  434MOL0     H58535  10.521  11.504   5.147  0.5084 -0.7253 -0.1753
  434MOL0     H58536  10.649  11.611   5.188 -2.5872 -2.1771  3.3187
  434MOL0     H58537  10.546  11.748   4.980 -3.3770 -0.0716 -2.7283
  434MOL0     H58538  10.420  11.624   4.992  2.0200 -4.0474  0.5792
  434MOL0     H58539  10.529  11.836   5.177  2.0508 -1.9479 -2.0646
  434MOL0     H58540  10.411  11.719   5.246  2.9573  2.0007  2.9889
  434MOL0     H58541  10.391  11.934   4.941  1.5806 -0.6890  0.6765
  434MOL0     H58542  10.169  12.035   4.818  2.4792 -0.2266  0.7875
  434MOL0     H58543  10.036  12.096   4.911 -0.1171 -1.0246  1.8541
  434MOL0     H58544  10.224  12.271   4.827 -1.4627  1.2111  0.1924
  434MOL0     H58545  10.322  12.198   4.944 -0.4934 -0.7742  1.3992
  434MOL0     H58546  10.207  12.419   5.013 -1.4061  0.5978 -2.9203
  434MOL0     H58547  10.177  12.273   5.121 -2.0471  1.9456  0.7145
  434MOL0     H58548   9.973  12.416   5.085 -0.6906 -0.5434  1.0666
  434MOL0     H58549   9.955  12.249   5.045  0.8926 -2.1159 -1.3962
  434MOL0     H58550   9.867  12.288   4.654 -1.8200 -0.9062 -2.2778
  434MOL0     H58551   9.664  12.145   4.583  2.7678  0.8076 -1.0728
  434MOL0     H58552   9.528  12.235   4.539  0.3470  1.6045 -5.6263
  434MOL0     H58553   9.677  12.289   4.467 -0.9383  2.0574  0.7114
  434MOL0     H58554   9.192  12.578   4.728 -2.3091 -1.3700  0.8267
  434MOL0     H58555   8.981  12.643   4.635 -1.8103  0.8819 -2.1320
  434MOL0     H58556   8.795  12.641   4.538  0.0429  0.4624  1.1294
  434MOL0     H58557   8.849  12.798   4.485  1.1949  0.7578 -2.1676
  434MOL0     H58558   8.716  12.775   4.268  1.7827 -4.5960 -1.7341
  434MOL0     H58559   8.646  12.635   4.337  2.7844 -2.3391  1.1834
  434MOL0     H58560   8.576  12.790   4.540 -0.7089  0.1331 -0.9462
  434MOL0     H58561   8.496  12.824   4.387  1.2456 -3.0219 -1.2574
  434MOL0     H58562   8.717  12.980   4.525  0.6257  1.3383 -0.7643
  434MOL0     H58563   8.691  13.004   4.356 -2.1628  0.3874 -2.4431
  434MOL0     H58564   8.496  13.036   4.589 -0.5051 -2.4784 -0.9450
  434MOL0     H58565   8.434  13.041   4.420  1.4447 -0.5617 -1.1670
  434MOL0     H58566   8.478  13.264   4.528  1.8676  3.5017 -0.2728
  434MOL0     H58567   8.643  13.220   4.547 -1.2801  1.0776  1.4518
  434MOL0     H58568   8.522  13.215   4.271 -0.7439 -0.1666  0.2916
  434MOL0     H58569   8.691  13.251   4.310 -0.0117  0.4226 -0.4768
  434MOL0     H58570   8.645  13.477   4.366  0.5709  0.6070  0.2398
  434MOL0     H58571   8.468  13.439   4.385  0.3226 -0.5371  0.2827
  434MOL0     H58572   9.085  12.504   4.246  1.9091  1.2118  0.7806
  434MOL0     H58573   9.295  12.421   4.342  0.7404 -1.7003  1.7369
  434MOL0     H58574   9.517  12.487   4.944  3.1091  1.5218  3.7764
  434MOL0     H58575   9.749  12.485   5.019  0.0356  2.8617 -2.0088
  434MOL0     H58576  11.212  11.343   4.731 -1.2778 -0.2299  0.8317
  434MOL0     H58577  11.351  11.313   4.538 -0.1318  0.4151 -1.8244
  434MOL0     H58578  11.596  10.947   4.290  3.7449  1.1643 -0.6383
  434MOL0     H58579  11.715  10.867   4.108 -1.4856 -0.6146  2.4282
  434MOL0     H58580  11.838  10.835   3.937 -2.0003 -2.9393  0.1256
  434MOL0     H58581  11.698  10.768   3.869 -0.5885 -0.4559 -0.7697
  434MOL0     H58582  11.927  10.890   3.700  2.2599 -1.0435 -0.3856
  434MOL0     H58583  11.772  10.824   3.642 -1.1363  0.4717  1.2436
  434MOL0     H58584  11.817  10.609   3.695 -2.5009  2.4288  1.3414
  434MOL0     H58585  11.936  10.644   3.830 -1.3894 -0.5732  0.7588
  434MOL0     H58586  12.109  10.719   3.669 -0.0498  1.0388 -0.9838
  434MOL0     H58587  11.992  10.689   3.542  0.5131  0.4736  0.3162
  434MOL0     H58588  12.140  10.306   3.674  3.0054  1.1960  2.9653
  434MOL0     H58589  11.523  11.163   3.858  1.2297  0.7308 -0.1185
  434MOL0     H58590  11.379  11.214   4.027  0.3469  1.7285  2.1971
  435MOL0     O58591   9.842   5.645   2.277 -0.2386  0.0230  0.5831
  435MOL0     C58592   9.798   5.722   2.358  0.0576  0.6931 -0.2567
  435MOL0     O58593   9.684   5.706   2.428 -0.1393  0.0729 -0.0842
  435MOL0     C58594   9.586   5.613   2.410 -0.5139 -0.0595  0.1402
  435MOL0     C58595   9.543   5.564   2.287 -0.0722 -0.5910  0.4895
  435MOL0     C58596   9.432   5.473   2.278  1.0473  0.3479 -0.6706
  435MOL0     C58597   9.384   5.418   2.396  1.1598  0.4740  0.1510
  435MOL0     O58598   9.273   5.337   2.405  0.7571  0.3328  0.2054
  435MOL0     C58599   9.232   5.251   2.293 -0.8564  0.5545 -0.1866
  435MOL0     C58600   9.335   5.133   2.283  0.0570 -0.5392  0.1412
  435MOL0     C58601   9.351   5.069   2.424  0.0683  0.0763 -0.4828
  435MOL0     C58602   9.222   5.009   2.482  0.0298  0.7861 -0.4888
  435MOL0     C58603   9.248   4.966   2.633 -0.5810 -0.3791 -0.0259
  435MOL0     C58604   9.129   4.908   2.715 -0.5982 -1.1324 -0.3065
  435MOL0     C58605   9.191   4.846   2.841  0.0538  0.2467 -0.5311
  435MOL0     C58606   9.246   4.706   2.817 -0.2092  0.6326  0.3607
  435MOL0     N58607   9.304   4.638   2.936  1.0845  0.6260  0.0713
  435MOL0     C58608   9.257   4.658   3.058  0.8023 -0.0921  0.4355
  435MOL0     C58609   9.342   4.594   3.141  0.6738 -0.0469 -0.4332
  435MOL0     C58610   9.344   4.601   3.299  0.7007  1.0560 -0.0435
  435MOL0     C58611   9.282   4.469   3.361  0.0776  0.0772  0.5569
  435MOL0     C58612   9.295   4.446   3.509  0.7668 -1.2651 -0.4970
  435MOL0     C58613   9.222   4.553   3.590 -0.2735  0.0742 -0.0513
  435MOL0     O58614   9.080   4.562   3.556 -0.3664  0.2311 -0.0447
  435MOL0     C58615   8.995   4.626   3.643  0.2660 -0.0820  0.2417
  435MOL0     C58616   9.033   4.712   3.740  0.4300  0.8572 -0.0606
  435MOL0     C58617   8.935   4.787   3.810  0.0631 -0.2849  0.6277
  435MOL0     C58618   8.982   4.903   3.896  0.4780 -0.2961  0.1090
  435MOL0     C58619   8.799   4.748   3.802  0.4302 -0.1365  0.4728
  435MOL0     C58620   8.708   4.810   3.895 -0.5577 -0.2487  0.2281
  435MOL0     O58621   8.733   4.785   4.024  0.1200  0.3068  0.1779
  435MOL0     C58622   8.626   4.789   4.116 -0.4790 -0.1264 -0.3353
  435MOL0     C58623   8.501   4.741   4.102  0.2591  0.7565 -0.6217
  435MOL0     C58624   8.398   4.743   4.195 -0.8969 -0.2956 -0.1857
  435MOL0     C58625   8.423   4.825   4.310  0.1178  0.4580  0.0872
  435MOL0     O58626   8.317   4.827   4.395  0.4488  0.1672 -0.2821
  435MOL0     C58627   8.339   4.841   4.535 -1.3359  0.0653 -0.2351
  435MOL0     C58628   8.202   4.814   4.601  0.3407  0.4126 -0.3942
  435MOL0     C58629   8.204   4.783   4.752 -0.1430 -0.5813  0.3891
  435MOL0     C58630   8.081   4.816   4.831  0.2240  0.4731  0.7678
  435MOL0     C58631   8.061   4.730   4.963  0.3558 -0.4273  0.1596
  435MOL0     C58632   7.963   4.823   5.050  0.5071  0.2485  0.3305
  435MOL0     C58633   7.902   4.741   5.169  0.7657  0.2010  0.4407
  435MOL0     C58634   7.788   4.807   5.245 -0.9243  0.0769 -0.2591
  435MOL0    Cl58635   7.674   4.843   5.113 -0.0232  0.2555 -0.0216
  435MOL0     C58636   8.546   4.877   4.329  0.0236 -0.2882  0.2203
  435MOL0     C58637   8.650   4.860   4.240 -0.4909  0.6360  0.3409
  435MOL0     O58638   8.629   4.895   3.851  0.3010 -0.1167  0.3934
  435MOL0     C58639   8.762   4.656   3.707 -0.5435 -0.3688 -0.0456
  435MOL0     C58640   8.858   4.594   3.626  0.4499  0.1369  0.2587
  435MOL0     N58641   9.432   4.523   3.061  0.1348  0.2911 -0.6980
  435MOL0     N58642   9.407   4.552   2.941 -0.1922  1.0750 -0.1567
  435MOL0     C58643   9.438   5.466   2.520  0.4295 -0.8082 -0.2966
  435MOL0     C58644   9.528   5.569   2.526 -0.5231 -0.2480  0.0347
  435MOL0     C58645   9.891   5.822   2.408 -0.6822 -0.8862 -0.1216
  435MOL0     C58646   9.981   5.898   2.318  0.2646  0.2404  0.3097
  435MOL0     C58647  10.052   6.006   2.361  0.2196 -0.5337  0.3364
  435MOL0     C58648  10.054   6.043   2.496 -0.4778  0.0598 -0.4944
  435MOL0     O58649  10.125   6.153   2.543  0.6930 -1.1469 -0.1213
  435MOL0     C58650  10.259   6.115   2.595  0.3485 -0.2256 -0.2392
  435MOL0     C58651  10.343   6.227   2.664  1.1094  0.7049  0.4056
  435MOL0     C58652  10.265   6.285   2.783  0.5425 -0.1782 -0.4176
  435MOL0     C58653  10.280   6.436   2.798 -0.1090 -0.1136 -0.7472
  435MOL0     C58654  10.210   6.481   2.920  0.4246  0.5052 -0.1545
  435MOL0     C58655  10.140   6.512   3.019 -0.1829 -0.2828  0.5232
  435MOL0     C58656   9.972   5.968   2.586  0.1028  0.5081  0.0581
  435MOL0     C58657   9.894   5.862   2.543  0.1104  0.0596 -0.0950
  435MOL0     H58658   9.592   5.617   2.206 -0.4180  1.3616  1.4852
  435MOL0     H58659   9.387   5.452   2.181  3.2434 -0.1260 -1.6648
  435MOL0     H58660   9.129   5.220   2.315 -0.7665 -1.8950 -2.5186
  435MOL0     H58661   9.231   5.303   2.196  2.3146  1.5427  0.2306
  435MOL0     H58662   9.296   5.064   2.208 -3.8461  1.5136 -0.0208
  435MOL0     H58663   9.429   5.178   2.251 -0.4170  1.0967  0.9346
  435MOL0     H58664   9.429   4.994   2.408  0.3003  0.1160  0.4153
  435MOL0     H58665   9.383   5.143   2.498 -1.0246  3.2451 -2.9102
  435MOL0     H58666   9.135   5.075   2.475 -0.7831 -0.4103 -3.8488
  435MOL0     H58667   9.196   4.926   2.416 -1.1454  1.1423 -0.4994
  435MOL0     H58668   9.327   4.891   2.639  0.4233  0.7403  1.9368
  435MOL0     H58669   9.281   5.054   2.689  2.4997  0.0120 -2.2297
  435MOL0     H58670   9.068   4.995   2.743  2.1404  1.3138 -1.4525
  435MOL0     H58671   9.063   4.844   2.657 -0.5969  1.0125 -2.8523
  435MOL0     H58672   9.262   4.916   2.885  1.7150 -0.8090 -1.4563
  435MOL0     H58673   9.104   4.837   2.907  0.6965 -0.1209  0.2877
  435MOL0     H58674   9.315   4.716   2.733 -2.5315 -1.2248 -1.9382
  435MOL0     H58675   9.163   4.643   2.782 -0.4391 -0.2247  2.3274
  435MOL0     H58676   9.175   4.715   3.101 -1.9074 -2.0841 -1.7147
  435MOL0     H58677   9.451   4.607   3.322  0.7436  1.2230 -0.2818
  435MOL0     H58678   9.281   4.678   3.343 -3.2152 -2.2997  0.7874
  435MOL0     H58679   9.335   4.390   3.308  1.1823  2.5107 -2.2515
  435MOL0     H58680   9.178   4.472   3.328 -0.1338  2.2301  1.2260
  435MOL0     H58681   9.400   4.443   3.537  0.9323  1.1172 -0.6083
  435MOL0     H58682   9.245   4.355   3.542 -1.1919  0.3464  1.3299
  435MOL0     H58683   9.271   4.650   3.574 -0.4997  0.3405  0.8074
  435MOL0     H58684   9.241   4.527   3.695  5.9195  0.8926 -0.5893
  435MOL0     H58685   9.138   4.739   3.750  0.3307  0.5316  3.2552
  435MOL0     H58686   9.079   4.928   3.853  1.8949 -4.5028  0.4344
  435MOL0     H58687   8.915   4.990   3.895  0.5210 -0.2680 -1.1648
  435MOL0     H58688   9.001   4.881   4.002 -0.5167  1.1199  0.6117
  435MOL0     H58689   8.476   4.697   4.006  1.1235  1.4867 -1.2024
  435MOL0     H58690   8.304   4.691   4.176  0.1954 -2.4166 -0.1522
  435MOL0     H58691   8.413   4.770   4.572 -0.4682  0.5186 -1.0869
  435MOL0     H58692   8.361   4.946   4.555 -2.7862 -0.1788  3.6554
  435MOL0     H58693   8.133   4.897   4.580  0.1421  0.1025 -1.0052
  435MOL0     H58694   8.165   4.720   4.560  6.5163 -2.8892  0.4709
  435MOL0     H58695   8.292   4.829   4.798  0.2778 -0.3460 -0.6116
  435MOL0     H58696   8.213   4.674   4.755  1.3999 -0.6104 -2.1361
  435MOL0     H58697   8.084   4.923   4.855  0.7451  0.9420 -1.2151
  435MOL0     H58698   7.994   4.796   4.768  2.1036 -1.2884 -1.4618
  435MOL0     H58699   8.153   4.716   5.021  0.5679 -0.1697 -0.1147
  435MOL0     H58700   8.009   4.635   4.952  0.6183 -0.6373  0.6794
  435MOL0     H58701   8.027   4.909   5.071  0.0974  0.6659 -0.0986
  435MOL0     H58702   7.886   4.868   4.987  0.2471 -0.3536  0.2055
  435MOL0     H58703   7.986   4.730   5.239  1.9610  2.4740 -0.5110
  435MOL0     H58704   7.867   4.646   5.130  1.3381 -0.0278  0.4776
  435MOL0     H58705   7.822   4.896   5.299  1.4995 -0.6712 -0.4015
  435MOL0     H58706   7.742   4.740   5.319 -1.3633  0.5816 -0.0666
  435MOL0     H58707   8.565   4.925   4.425 -0.1265 -0.2576  0.2355
  435MOL0     H58708   8.748   4.903   4.259  0.2281 -0.3986 -0.8470
  435MOL0     H58709   8.660   4.623   3.692  0.4827 -2.8951 -2.1270
  435MOL0     H58710   8.827   4.538   3.539  0.0012  0.0066  0.4981
  435MOL0     H58711   9.409   5.427   2.618  2.1275  3.0881  1.9791
  435MOL0     H58712   9.555   5.613   2.621 -3.1638 -0.6986  1.0886
  435MOL0     H58713   9.969   5.873   2.213 -0.6795  0.3620  0.3867
  435MOL0     H58714  10.108   6.072   2.295 -1.3521  1.4757  0.9166
  435MOL0     H58715  10.234   6.041   2.671  2.5208 -0.8666 -0.0618
  435MOL0     H58716  10.326   6.081   2.515  1.5655 -3.3781  1.8968
  435MOL0     H58717  10.375   6.307   2.597 -1.2068 -0.2846 -2.0901
  435MOL0     H58718  10.432   6.179   2.706 -1.2954 -1.4357  3.5357
  435MOL0     H58719  10.291   6.243   2.881 -1.3630 -0.3897  0.0342
  435MOL0     H58720  10.156   6.275   2.775  0.4998 -2.6703  2.0015
  435MOL0     H58721  10.240   6.482   2.707 -0.5157  0.7286 -0.1450
  435MOL0     H58722  10.381   6.478   2.805 -0.5204  0.9846 -1.2702
  435MOL0     H58723  10.079   6.539   3.102 -1.1677 -2.3392  0.5419
  435MOL0     H58724   9.962   6.003   2.688  1.2468  1.9142 -0.2836
  435MOL0     H58725   9.832   5.808   2.614  1.6735 -1.4426  0.1640
  436MOL0     O58726   2.288   9.275   0.219  0.5927 -0.2929 -0.0883
  436MOL0     C58727   2.386   9.334   0.283 -0.1173 -0.0213 -0.1558
  436MOL0     O58728   2.386   9.452   0.367 -1.0869 -0.2883  0.9096
  436MOL0     C58729   2.262   9.509   0.390 -0.8211  0.4736 -0.3589
  436MOL0     C58730   2.227   9.623   0.333  0.0109  0.3031  0.3621
  436MOL0     C58731   2.112   9.694   0.383 -0.3033  0.1366  0.7230
  436MOL0     C58732   2.032   9.638   0.480  0.7008  0.5767 -0.8090
  436MOL0     O58733   1.907   9.692   0.494  0.2919 -0.5467  0.2479
  436MOL0     C58734   1.823   9.666   0.608 -0.1122  0.9369 -0.4370
  436MOL0     C58735   1.681   9.721   0.603 -0.2340 -0.0105  0.2965
  436MOL0     C58736   1.609   9.694   0.737  0.7237  0.9554  0.1719
  436MOL0     C58737   1.480   9.782   0.747 -0.0439  0.5694 -0.1869
  436MOL0     C58738   1.409   9.753   0.881  0.1348  0.1524  1.4302
  436MOL0     C58739   1.482   9.776   1.014  0.4438  0.0655 -0.2680
  436MOL0     C58740   1.547   9.912   1.012  1.1129 -0.2791  0.8160
  436MOL0     C58741   1.625   9.935   1.138 -0.4109 -0.5986 -0.1537
  436MOL0     N58742   1.543   9.947   1.262 -0.5213  0.2354 -0.9352
  436MOL0     C58743   1.518   9.840   1.353  0.4111 -0.7946  0.5854
  436MOL0     C58744   1.458   9.900   1.458  0.4134 -0.2038 -0.8849
  436MOL0     C58745   1.418   9.825   1.578  0.1430 -0.2344  0.7669
  436MOL0     C58746   1.267   9.804   1.565 -0.3045  0.3243 -0.4020
  436MOL0     C58747   1.200   9.726   1.681  1.5249 -0.3083 -0.9484
  436MOL0     C58748   1.059   9.705   1.646  0.1754  0.5897 -0.6794
  436MOL0     O58749   0.984   9.826   1.625  0.3325  0.9609  0.2838
  436MOL0     C58750   0.854   9.809   1.593 -0.9671 -0.5258  0.0711
  436MOL0     C58751   0.770   9.841   1.695  0.2595  0.2797  0.2562
  436MOL0     C58752   0.631   9.850   1.670  0.5949  0.7688 -0.2859
  436MOL0     C58753   0.544   9.881   1.783  0.3095 -0.3381  0.1528
  436MOL0     C58754   0.584   9.820   1.541  0.3013 -0.2456  0.2098
  436MOL0     C58755   0.440   9.804   1.509 -0.2533  0.0720 -0.7137
  436MOL0     O58756   0.364   9.764   1.602  0.0963  0.3553 -0.2016
  436MOL0     C58757   0.222   9.773   1.592 -0.3925  0.7901 -0.8123
  436MOL0     C58758   0.143   9.665   1.622 -0.7540 -0.0117  0.2855
  436MOL0     C58759   0.008   9.683   1.613  0.1236  0.0586 -0.3203
  436MOL0     C58760  -0.048   9.804   1.587  0.3503  0.5742 -1.0982
  436MOL0     O58761  -0.183   9.816   1.602 -0.0924  0.1215  0.3313
  436MOL0     C58762  -0.259   9.940   1.600 -1.5112  0.4042  0.5013
  436MOL0     C58763  -0.410   9.927   1.623  0.1504 -0.5380 -0.4303
  436MOL0     C58764  -0.456   9.824   1.523  0.2488 -0.1783  0.7228
  436MOL0     C58765  -0.606   9.799   1.533  0.5963  0.1375  0.4581
  436MOL0     C58766  -0.673   9.794   1.679 -0.5352  0.0293  1.2155
  436MOL0     C58767  -0.610   9.693   1.781  0.3674  0.9765  0.8766
  436MOL0     C58768  -0.687   9.694   1.915 -0.3124 -1.0643  0.0856
  436MOL0     C58769  -0.663   9.561   1.994 -0.0453  0.3187 -0.8903
  436MOL0    Cl58770  -0.504   9.558   2.085 -0.1199  0.2517 -0.0783
  436MOL0     C58771   0.024   9.919   1.552  0.4486 -0.3216 -0.6238
  436MOL0     C58772   0.166   9.898   1.552 -0.0025  0.5456 -0.6882
  436MOL0     O58773   0.404   9.827   1.398 -0.6773 -0.2662  0.8821
  436MOL0     C58774   0.681   9.788   1.445 -0.0013  0.1722  0.5799
  436MOL0     C58775   0.816   9.776   1.468  0.1811 -0.3021 -0.6062
  436MOL0     N58776   1.438  10.034   1.426  0.1092  0.8004  0.2966
  436MOL0     N58777   1.495  10.063   1.315 -0.3338  0.5692 -0.1229
  436MOL0     C58778   2.072   9.515   0.539  0.1122  0.5218  0.7076
  436MOL0     C58779   2.195   9.454   0.501 -0.1735  0.1939  0.5965
  436MOL0     C58780   2.516   9.264   0.272  0.4646 -0.3938 -0.3583
  436MOL0     C58781   2.548   9.182   0.157  0.1595 -0.1719  0.6662
  436MOL0     C58782   2.663   9.106   0.147 -0.2150 -0.5299 -0.4681
  436MOL0     C58783   2.758   9.114   0.246 -0.5494 -0.6451  0.4443
  436MOL0     O58784   2.876   9.046   0.244 -0.2173  0.1968  0.2146
  436MOL0     C58785   2.993   9.113   0.296 -0.4020 -0.2114  0.3458
  436MOL0     C58786   3.041   9.060   0.432  0.0795 -0.1898 -0.1283
  436MOL0     C58787   3.045   8.909   0.440 -0.1234 -0.6648 -0.1175
  436MOL0     C58788   2.979   8.845   0.565 -0.6531 -0.6751 -0.3525
  436MOL0     C58789   3.039   8.910   0.682  0.4012  0.4464 -0.4787
  436MOL0     C58790   3.075   8.973   0.782 -0.0449  0.1932  0.0331
  436MOL0     C58791   2.733   9.204   0.355  0.1805  0.1240 -0.1907
  436MOL0     C58792   2.608   9.277   0.370 -0.4200 -0.0206 -0.4127
  436MOL0     H58793   2.284   9.660   0.248 -2.2814 -1.3932 -2.0736
  436MOL0     H58794   2.087   9.787   0.332  1.2121  1.0238  1.5386
  436MOL0     H58795   1.812   9.557   0.619  0.6309  1.0672  2.7315
  436MOL0     H58796   1.869   9.710   0.697 -0.1111 -1.9071  1.1227
  436MOL0     H58797   1.684   9.827   0.574 -1.0446 -0.4460 -1.5251
  436MOL0     H58798   1.627   9.681   0.517  0.5966  1.6470 -1.0561
  436MOL0     H58799   1.580   9.589   0.746  1.5567  0.0584 -4.7325
  436MOL0     H58800   1.681   9.711   0.817 -1.5503 -1.2714  2.9446
  436MOL0     H58801   1.501   9.887   0.726  0.4948 -0.0850 -3.4430
  436MOL0     H58802   1.409   9.753   0.669  0.0874  0.1120 -0.1411
  436MOL0     H58803   1.320   9.817   0.878  1.5089  2.1491 -2.0294
  436MOL0     H58804   1.379   9.648   0.878  0.4421  0.0733 -1.4160
  436MOL0     H58805   1.402   9.777   1.088 -1.2555  2.0302 -1.9917
  436MOL0     H58806   1.552   9.698   1.045  1.2489  1.4343  1.5116
  436MOL0     H58807   1.603   9.914   0.918 -0.5099  4.1118 -0.2976
  436MOL0     H58808   1.468   9.987   1.010  2.1167  0.8622 -1.8202
  436MOL0     H58809   1.684  10.027   1.135 -1.5610  0.2758  2.1042
  436MOL0     H58810   1.685   9.845   1.153  1.0948  0.5302  0.9323
  436MOL0     H58811   1.545   9.736   1.334  0.7997 -0.4218 -1.1239
  436MOL0     H58812   1.476   9.733   1.591 -0.6803 -0.6340  1.7663
  436MOL0     H58813   1.440   9.891   1.663  3.2144  0.3462 -0.3406
  436MOL0     H58814   1.243   9.759   1.468 -2.5323  2.4017 -0.9121
  436MOL0     H58815   1.220   9.903   1.571 -3.3127 -1.0406  1.6814
  436MOL0     H58816   1.206   9.785   1.773 -0.5523 -0.3171 -0.7400
  436MOL0     H58817   1.254   9.634   1.705  2.1791  0.5378  1.0431
  436MOL0     H58818   1.006   9.642   1.718 -1.3978  2.1012 -0.4386
  436MOL0     H58819   1.061   9.646   1.554 -2.0746 -0.2533 -0.2318
  436MOL0     H58820   0.816   9.855   1.792 -2.4324 -0.1245  1.6801
  436MOL0     H58821   0.595   9.963   1.835  2.6592 -0.5467 -1.6572
  436MOL0     H58822   0.443   9.919   1.768  0.9537  0.4290 -2.7859
  436MOL0     H58823   0.555   9.797   1.853  1.0713 -2.0032 -1.8716
  436MOL0     H58824   0.175   9.566   1.653  0.0253 -1.2877 -3.9300
  436MOL0     H58825  -0.056   9.596   1.620 -0.0050  0.3113  3.3449
  436MOL0     H58826  -0.210  10.013   1.665  0.2740 -1.4732  1.4041
  436MOL0     H58827  -0.257   9.968   1.494 -2.7025  0.2944  0.4415
  436MOL0     H58828  -0.412   9.905   1.730  2.2947  3.9813  0.8163
  436MOL0     H58829  -0.463  10.022   1.607  0.6467  0.1826  1.8406
  436MOL0     H58830  -0.399   9.737   1.558 -0.1578 -1.8105 -2.3464
  436MOL0     H58831  -0.429   9.843   1.419 -0.4664 -0.6562  0.4481
  436MOL0     H58832  -0.665   9.874   1.479  0.5695  0.8950  1.4976
  436MOL0     H58833  -0.619   9.698   1.495  2.0906 -0.4267  1.3858
  436MOL0     H58834  -0.776   9.767   1.653  0.3599 -1.8777 -0.7183
  436MOL0     H58835  -0.663   9.892   1.727  0.0768  1.1241 -1.0140
  436MOL0     H58836  -0.614   9.595   1.733  0.7929 -0.0430  2.7812
  436MOL0     H58837  -0.504   9.714   1.796  0.5392  1.2881 -0.6277
  436MOL0     H58838  -0.794   9.704   1.892 -0.0173 -0.6153 -1.1331
  436MOL0     H58839  -0.647   9.780   1.970 -0.9364 -2.1168  2.3193
  436MOL0     H58840  -0.676   9.474   1.929 -1.0390 -2.2953  2.5072
  436MOL0     H58841  -0.743   9.557   2.069 -3.1131  2.9149 -3.7093
  436MOL0     H58842  -0.019  10.017   1.533  1.3533  0.5826  1.5454
  436MOL0     H58843   0.225   9.986   1.531 -0.1616  1.7347  3.2091
  436MOL0     H58844   0.652   9.758   1.345  1.0034 -2.0649  0.9076
  436MOL0     H58845   0.884   9.749   1.387 -0.5366 -1.7695 -0.7346
  436MOL0     H58846   2.005   9.462   0.607 -2.4574  0.8584 -1.3733
  436MOL0     H58847   2.221   9.372   0.566 -2.7909 -0.2233  1.2369
  436MOL0     H58848   2.474   9.166   0.079  1.3110 -1.1093 -0.2772
  436MOL0     H58849   2.667   9.046   0.057  1.5913 -0.8447 -0.2093
  436MOL0     H58850   3.080   9.089   0.235 -0.9709  1.2931 -1.1349
  436MOL0     H58851   2.986   9.222   0.292 -0.2510 -0.2454 -1.2949
  436MOL0     H58852   2.977   9.099   0.511 -0.3884  3.5419 -2.1171
  436MOL0     H58853   3.142   9.099   0.452  0.5957 -2.2584  1.6485
  436MOL0     H58854   3.152   8.886   0.435 -0.1924 -1.4334  1.3088
  436MOL0     H58855   3.007   8.857   0.351 -0.5595 -0.5679  0.0115
  436MOL0     H58856   2.995   8.737   0.575 -3.7718 -1.0617  2.0674
  436MOL0     H58857   2.871   8.859   0.555 -0.1816  1.9543 -3.3346
  436MOL0     H58858   3.118   9.015   0.871  1.4842 -0.4084 -0.3851
  436MOL0     H58859   2.777   9.202   0.455 -0.9243 -1.1166  0.2981
  436MOL0     H58860   2.593   9.341   0.456 -1.9079  1.3620 -1.6274
  437MOL0     O58861   1.371   1.213   7.914 -0.1963 -0.0653 -0.3625
  437MOL0     C58862   1.485   1.240   7.881  0.5028  0.4932 -0.2003
  437MOL0     O58863   1.521   1.353   7.818  0.0477 -0.3650 -0.2125
  437MOL0     C58864   1.415   1.446   7.802 -0.5641 -0.4848  0.1367
  437MOL0     C58865   1.357   1.534   7.893  0.1001 -0.1342 -0.3109
  437MOL0     C58866   1.259   1.628   7.850  0.7004  0.3113 -0.0586
  437MOL0     C58867   1.211   1.625   7.719  0.1246  0.0805 -0.6678
  437MOL0     O58868   1.102   1.715   7.710 -0.7317  0.0804  0.8115
  437MOL0     C58869   1.056   1.743   7.580 -0.8619  0.2664  0.3769
  437MOL0     C58870   0.939   1.641   7.549 -0.1761  0.0136 -0.7229
  437MOL0     C58871   0.816   1.668   7.640  0.8266  0.3582  0.2724
  437MOL0     C58872   0.678   1.616   7.603  1.0813  0.8042  0.3736
  437MOL0     C58873   0.572   1.650   7.706  0.6713  0.4317 -0.7987
  437MOL0     C58874   0.430   1.608   7.677  0.5509 -0.3806  0.3694
  437MOL0     C58875   0.401   1.462   7.666 -0.6697  0.1310  0.5720
  437MOL0     C58876   0.248   1.432   7.651  0.2912  0.2099  0.6668
  437MOL0     N58877   0.190   1.297   7.648 -0.7009 -0.0372  1.0090
  437MOL0     C58878   0.252   1.169   7.638 -1.2508 -0.6565  0.0074
  437MOL0     C58879   0.149   1.079   7.628 -0.2372  0.7620  0.8486
  437MOL0     C58880   0.168   0.929   7.621  0.4262 -0.1383  0.1783
  437MOL0     C58881   0.249   0.890   7.504 -0.0317  1.0171 -0.7516
  437MOL0     C58882   0.185   0.924   7.373  0.4442  0.1018  0.5965
  437MOL0     C58883   0.071   0.828   7.337 -0.2919 -1.0337 -0.3470
  437MOL0     O58884   0.007   0.872   7.210  0.1525 -0.0532  0.5065
  437MOL0     C58885  -0.065   0.982   7.198 -0.1632  0.3800  0.5310
  437MOL0     C58886  -0.121   0.987   7.069  0.2315  0.0550 -0.5362
  437MOL0     C58887  -0.208   1.076   7.026  0.3018 -0.3198 -0.3717
  437MOL0     C58888  -0.272   1.054   6.890 -0.2015  0.1924  1.1755
  437MOL0     C58889  -0.243   1.185   7.114 -0.3396 -0.2299 -0.1335
  437MOL0     C58890  -0.349   1.286   7.080  0.2241 -0.3575  0.1347
  437MOL0     O58891  -0.391   1.295   6.947  0.0606  1.5102 -0.6080
  437MOL0     C58892  -0.492   1.366   6.901  0.4399  0.1223  0.0302
  437MOL0     C58893  -0.567   1.312   6.792 -0.2650  0.0882  0.5955
  437MOL0     C58894  -0.658   1.395   6.728  0.7004  0.5748 -0.2349
  437MOL0     C58895  -0.706   1.518   6.784 -0.1487  0.5163 -0.1921
  437MOL0     O58896  -0.797   1.592   6.710 -0.9218  0.0287  0.5796
  437MOL0     C58897  -0.866   1.698   6.764  0.0475  0.5978 -0.1891
  437MOL0     C58898  -0.985   1.737   6.668  0.5501 -0.9250  0.3468
  437MOL0     C58899  -1.109   1.771   6.755 -0.6967  1.0592  0.6840
  437MOL0     C58900  -1.100   1.895   6.849  0.0793 -0.3220  0.9356
  437MOL0     C58901  -1.222   1.903   6.950  0.1291 -0.0835  0.4602
  437MOL0     C58902  -1.250   2.045   7.003  0.4424 -0.1260 -0.0959
  437MOL0     C58903  -1.367   2.033   7.093  0.6301 -0.3034 -0.2015
  437MOL0     C58904  -1.402   2.163   7.154 -0.9407  0.0177 -0.5039
  437MOL0    Cl58905  -1.472   2.282   7.033  0.3820  0.0475 -0.2705
  437MOL0     C58906  -0.627   1.578   6.883 -0.2558 -0.2443  0.8244
  437MOL0     C58907  -0.523   1.501   6.940  0.4919  0.3708  0.0224
  437MOL0     O58908  -0.378   1.361   7.167  0.1473  0.4214  0.3896
  437MOL0     C58909  -0.184   1.189   7.244 -0.2717  0.2964 -0.6520
  437MOL0     C58910  -0.098   1.086   7.281 -0.3348  0.6750  0.3866
  437MOL0     N58911   0.028   1.140   7.630 -0.1319  0.1642 -0.2291
  437MOL0     N58912   0.056   1.266   7.643 -0.3873  0.1512 -0.2919
  437MOL0     C58913   1.272   1.541   7.625 -0.2158 -0.2044  0.0272
  437MOL0     C58914   1.371   1.453   7.672  0.0736  0.3708 -0.1417
  437MOL0     C58915   1.588   1.138   7.905  0.3953  0.0316 -0.7976
  437MOL0     C58916   1.572   1.023   7.985 -0.1514  0.2001  0.4459
  437MOL0     C58917   1.664   0.912   7.987  0.2054 -0.5016 -0.4722
  437MOL0     C58918   1.788   0.927   7.927 -1.7067  0.0985 -0.9179
  437MOL0     O58919   1.892   0.834   7.945  0.0986 -0.3600 -0.0633
  437MOL0     C58920   1.880   0.736   8.050 -0.0043 -0.1016 -0.8606
  437MOL0     C58921   2.021   0.695   8.087 -0.1410 -1.0499  0.5023
  437MOL0     C58922   2.078   0.607   7.979 -0.0355  0.3660 -0.0824
  437MOL0     C58923   2.208   0.539   8.026  1.2216 -0.8301 -0.0368
  437MOL0     C58924   2.255   0.431   7.941  0.6116  1.0130  0.9062
  437MOL0     C58925   2.294   0.371   7.846  0.0974  0.1864  0.6773
  437MOL0     C58926   1.813   1.041   7.847 -0.7370 -0.2242 -0.2540
  437MOL0     C58927   1.715   1.141   7.840 -0.8043 -0.0538  1.2534
  437MOL0     H58928   1.375   1.534   8.000 -0.4396 -0.0780 -0.2208
  437MOL0     H58929   1.219   1.700   7.921  2.1682  0.8948  0.2101
  437MOL0     H58930   1.015   1.844   7.576 -0.1292  0.5398 -0.7991
  437MOL0     H58931   1.128   1.749   7.497 -2.3735  1.3854 -0.9420
  437MOL0     H58932   0.911   1.651   7.444 -1.9248  2.5656 -0.1161
  437MOL0     H58933   0.977   1.539   7.557 -1.1760 -0.4359 -1.5297
  437MOL0     H58934   0.831   1.647   7.746  1.4747 -1.3991 -0.1299
  437MOL0     H58935   0.804   1.776   7.629  0.7068  0.3457  0.2809
  437MOL0     H58936   0.653   1.655   7.504  0.5913  0.7797  0.4854
  437MOL0     H58937   0.684   1.507   7.604  4.1928  0.8756  1.6802
  437MOL0     H58938   0.615   1.611   7.799  0.8208  1.3145 -0.4907
  437MOL0     H58939   0.569   1.758   7.717 -0.6408  0.3463 -0.0880
  437MOL0     H58940   0.369   1.634   7.764 -0.0493 -2.1019  0.5050
  437MOL0     H58941   0.406   1.651   7.580 -0.5950 -1.9151 -0.0637
  437MOL0     H58942   0.459   1.425   7.581  1.8615  0.7041  1.9650
  437MOL0     H58943   0.424   1.413   7.761  0.7229 -0.5284 -0.0987
  437MOL0     H58944   0.215   1.476   7.557  1.7523 -0.2535 -0.1035
  437MOL0     H58945   0.184   1.482   7.725 -0.8771  0.4565 -0.4794
  437MOL0     H58946   0.357   1.142   7.648 -0.7195  1.9054  3.3839
  437MOL0     H58947   0.224   0.890   7.707  0.5451 -0.5272 -0.0713
  437MOL0     H58948   0.071   0.878   7.623  0.6092 -0.4762  0.9487
  437MOL0     H58949   0.266   0.782   7.504  0.4456  1.0675  0.9685
  437MOL0     H58950   0.350   0.933   7.507  0.8169 -0.8531 -0.7441
  437MOL0     H58951   0.267   0.920   7.301  1.8080 -1.0020  2.1185
  437MOL0     H58952   0.148   1.027   7.374 -0.1327 -0.0755 -0.9060
  437MOL0     H58953  -0.002   0.822   7.418 -0.4390  1.4362 -0.2094
  437MOL0     H58954   0.113   0.729   7.320  0.0833 -0.8549 -0.4769
  437MOL0     H58955  -0.073   0.916   7.003  0.4003 -1.2262  0.9063
  437MOL0     H58956  -0.256   0.954   6.849  0.3272  0.9248 -0.4917
  437MOL0     H58957  -0.381   1.066   6.886 -0.1215  0.6294 -0.6825
  437MOL0     H58958  -0.214   1.124   6.828  2.7963 -2.2198  1.0412
  437MOL0     H58959  -0.542   1.224   6.733 -2.1472 -0.0587 -0.0503
  437MOL0     H58960  -0.704   1.356   6.638 -3.5735 -0.8605  2.2717
  437MOL0     H58961  -0.898   1.670   6.865 -1.4173  1.5267 -0.3719
  437MOL0     H58962  -0.794   1.778   6.781  1.6630 -1.1726  1.8642
  437MOL0     H58963  -0.947   1.826   6.617  3.2767 -2.4220 -0.4201
  437MOL0     H58964  -1.000   1.659   6.592  2.1508 -0.2600 -0.7117
  437MOL0     H58965  -1.132   1.679   6.810 -1.1501  0.6993 -0.0945
  437MOL0     H58966  -1.188   1.797   6.684 -1.8827 -0.8838  1.2270
  437MOL0     H58967  -1.004   1.890   6.902  1.1809 -0.6579 -1.0009
  437MOL0     H58968  -1.106   1.987   6.790 -0.4062 -0.8249  0.1814
  437MOL0     H58969  -1.193   1.833   7.029  2.0900  0.4813  0.3117
  437MOL0     H58970  -1.302   1.852   6.896  0.5990 -1.3376  0.9132
  437MOL0     H58971  -1.166   2.078   7.065 -0.9730  0.6368  1.4736
  437MOL0     H58972  -1.260   2.113   6.917 -0.4741 -0.9545 -0.6601
  437MOL0     H58973  -1.350   1.965   7.177  1.0990  1.4216  1.1732
  437MOL0     H58974  -1.458   1.992   7.049 -2.2709  2.6138  2.4604
  437MOL0     H58975  -1.316   2.207   7.204 -3.0650  1.0603  2.4787
  437MOL0     H58976  -1.472   2.144   7.236  0.1286 -0.8502  0.2344
  437MOL0     H58977  -0.639   1.684   6.905  0.2192  0.1500 -0.6861
  437MOL0     H58978  -0.453   1.560   6.998  1.6571 -0.1688 -0.7909
  437MOL0     H58979  -0.198   1.270   7.316 -2.7422  1.0582 -1.8728
  437MOL0     H58980  -0.068   1.093   7.385 -2.1617  0.4431  0.9614
  437MOL0     H58981   1.257   1.550   7.518  0.7788  0.7709 -0.0444
  437MOL0     H58982   1.414   1.395   7.591 -0.3415  0.5013 -0.4549
  437MOL0     H58983   1.475   1.010   8.033  0.3023  2.2813  2.1294
  437MOL0     H58984   1.641   0.825   8.048 -3.6224  1.2496  0.9644
  437MOL0     H58985   1.821   0.775   8.134  2.0032  0.4828  0.3370
  437MOL0     H58986   1.832   0.646   8.011 -0.0669  0.1989 -1.4976
  437MOL0     H58987   2.017   0.642   8.183 -2.2524 -0.5962  0.7249
  437MOL0     H58988   2.084   0.782   8.105 -0.0701 -1.1193  0.5921
  437MOL0     H58989   2.100   0.670   7.892 -0.8498 -0.6554 -1.0561
  437MOL0     H58990   2.008   0.526   7.958 -0.6413  0.4956  1.3390
  437MOL0     H58991   2.179   0.485   8.117  1.2075 -2.2205 -0.8362
  437MOL0     H58992   2.279   0.614   8.061 -0.1842 -0.0592  1.2894
  437MOL0     H58993   2.351   0.329   7.766  2.1852  3.0842  0.4760
  437MOL0     H58994   1.909   1.065   7.803 -0.7921  0.8375  0.1755
  437MOL0     H58995   1.740   1.229   7.781 -2.3432 -1.3701 -1.5482
  438MOL0     O58996   2.737   1.085   5.679  0.0267  0.3517  0.0075
  438MOL0     C58997   2.701   0.970   5.652 -0.6473  0.1055  0.0612
  438MOL0     O58998   2.787   0.865   5.621  0.3151 -0.5994 -0.6453
  438MOL0     C58999   2.913   0.903   5.602 -0.3590  0.0345 -0.0920
  438MOL0     C59000   3.018   0.879   5.699  0.0970  1.0096  0.8871
  438MOL0     C59001   3.153   0.882   5.655 -0.2010 -0.2266  1.0504
  438MOL0     C59002   3.187   0.929   5.523  0.3670 -0.0351 -0.6043
  438MOL0     O59003   3.311   0.919   5.477 -0.2834 -0.6527 -0.0840
  438MOL0     C59004   3.369   1.045   5.438 -0.4979 -0.1922 -0.3639
  438MOL0     C59005   3.510   1.028   5.383  0.1034  0.3288  0.1189
  438MOL0     C59006   3.514   0.979   5.236 -0.2245  0.5915 -0.9222
  438MOL0     C59007   3.465   0.833   5.205  0.5316  0.2216 -0.1701
  438MOL0     C59008   3.473   0.813   5.052  0.5180  0.2279  0.0799
  438MOL0     C59009   3.434   0.667   5.025  0.3369  0.7447  0.3709
  438MOL0     C59010   3.459   0.622   4.876 -0.1301 -0.9222 -0.1333
  438MOL0     C59011   3.601   0.638   4.830  0.0322  0.7015  0.3696
  438MOL0     N59012   3.628   0.616   4.685  0.5498 -0.8531 -0.4593
  438MOL0     C59013   3.561   0.534   4.602 -0.3299  0.9562  0.4266
  438MOL0     C59014   3.644   0.542   4.490 -0.0438  0.0224  0.0383
  438MOL0     C59015   3.660   0.465   4.360 -0.2410 -0.0487  1.1436
  438MOL0     C59016   3.599   0.328   4.372  0.1710 -0.1740 -0.3095
  438MOL0     C59017   3.620   0.255   4.234 -0.0609 -0.3056 -0.4447
  438MOL0     C59018   3.619   0.103   4.250 -0.0417 -0.3024 -0.1398
  438MOL0     O59019   3.743   0.070   4.315  0.5514  0.4404 -0.1910
  438MOL0     C59020   3.742  -0.045   4.392 -0.3988  0.2198  0.3618
  438MOL0     C59021   3.858  -0.050   4.475 -0.7053 -0.2459  0.5344
  438MOL0     C59022   3.898  -0.163   4.540  0.3572  0.8936  0.0882
  438MOL0     C59023   4.029  -0.143   4.621 -1.4298 -0.2289 -0.1533
  438MOL0     C59024   3.819  -0.281   4.531 -0.3867  0.2100  0.5813
  438MOL0     C59025   3.843  -0.401   4.611  0.1789  0.0874 -0.8369
  438MOL0     O59026   3.963  -0.437   4.671  0.1462 -0.0255  0.2311
  438MOL0     C59027   3.968  -0.559   4.733  0.5193 -0.3579  0.5032
  438MOL0     C59028   3.974  -0.572   4.868  0.2432  0.2292 -0.7558
  438MOL0     C59029   3.998  -0.699   4.927 -0.1065 -0.6107 -0.2742
  438MOL0     C59030   4.041  -0.807   4.846  1.0982 -0.7504  0.3166
  438MOL0     O59031   4.086  -0.915   4.910  0.2207 -0.1452 -0.2911
  438MOL0     C59032   4.185  -1.008   4.852  0.0861  0.0398 -0.7325
  438MOL0     C59033   4.253  -1.102   4.957  1.0540  0.6000  0.4381
  438MOL0     C59034   4.351  -1.023   5.044 -0.4321  0.4584 -0.4078
  438MOL0     C59035   4.391  -1.113   5.161  0.1860 -0.4346  0.7235
  438MOL0     C59036   4.519  -1.053   5.234 -0.0243  0.0435  0.0373
  438MOL0     C59037   4.496  -0.908   5.289 -0.4113  0.0272  0.0448
  438MOL0     C59038   4.390  -0.899   5.404  0.4586 -0.3976 -0.1792
  438MOL0     C59039   4.361  -0.752   5.442 -0.0667  0.2384  0.7700
  438MOL0    Cl59040   4.235  -0.740   5.576  0.3349 -0.0172 -0.0797
  438MOL0     C59041   4.033  -0.792   4.711  0.2345  0.9982  0.2783
  438MOL0     C59042   3.987  -0.675   4.652 -0.5708  0.3488  0.6032
  438MOL0     O59043   3.740  -0.466   4.636 -0.1129  0.2798 -0.1199
  438MOL0     C59044   3.708  -0.275   4.450 -0.1034  0.1938 -1.0377
  438MOL0     C59045   3.661  -0.159   4.390 -0.2476 -0.5838 -0.2067
  438MOL0     N59046   3.750   0.632   4.512 -0.2189 -0.4835  0.3730
  438MOL0     N59047   3.743   0.677   4.631 -0.7534 -0.9948  0.4429
  438MOL0     C59048   3.078   0.948   5.435 -0.4139  0.3727  0.1123
  438MOL0     C59049   2.950   0.937   5.477 -0.3009 -0.4667  0.4337
  438MOL0     C59050   2.568   0.928   5.646  1.1968  0.1602  0.3249
  438MOL0     C59051   2.534   0.801   5.602  0.1597 -0.3056  0.1752
  438MOL0     C59052   2.402   0.773   5.573  0.5086 -0.5525 -1.3182
  438MOL0     C59053   2.293   0.862   5.586  0.4653 -0.8067  0.1824
  438MOL0     O59054   2.172   0.810   5.545  0.0034  0.6901 -0.6314
  438MOL0     C59055   2.063   0.881   5.603 -0.9718 -0.2256 -0.9315
  438MOL0     C59056   1.936   0.808   5.568 -0.5900 -0.8659 -0.5720
  438MOL0     C59057   1.821   0.847   5.660  0.8208  0.5194  0.2008
  438MOL0     C59058   1.685   0.858   5.592  0.5157  0.4371 -0.5680
  438MOL0     C59059   1.620   0.736   5.540 -0.1259  0.5301  0.3386
  438MOL0     C59060   1.547   0.659   5.483 -0.4190  0.1305 -0.6433
  438MOL0     C59061   2.321   0.990   5.645 -0.8646  0.4169  0.2557
  438MOL0     C59062   2.462   1.022   5.675  0.4464 -0.5192 -0.3700
  438MOL0     H59063   3.009   0.848   5.803  2.8386  0.1513  0.9586
  438MOL0     H59064   3.226   0.850   5.728 -0.8083  0.2076  1.8741
  438MOL0     H59065   3.319   1.085   5.349  3.6822 -0.1658 -2.9673
  438MOL0     H59066   3.354   1.106   5.528 -2.9727 -0.1938 -0.7004
  438MOL0     H59067   3.557   1.126   5.390 -2.5925  1.8582 -1.5291
  438MOL0     H59068   3.576   0.959   5.438 -1.4878  0.9964  3.0361
  438MOL0     H59069   3.461   1.045   5.168  0.1392 -0.1151 -1.9118
  438MOL0     H59070   3.619   0.998   5.212  0.4878 -2.2180 -0.4541
  438MOL0     H59071   3.530   0.763   5.258 -1.3071 -1.8598 -0.5260
  438MOL0     H59072   3.364   0.820   5.244 -0.3860 -0.5848 -2.5977
  438MOL0     H59073   3.399   0.876   5.002  0.9622 -1.1177 -2.4507
  438MOL0     H59074   3.571   0.842   5.013  0.0918  1.0208 -0.4277
  438MOL0     H59075   3.503   0.608   5.087 -0.8252  0.9696  1.9107
  438MOL0     H59076   3.335   0.644   5.063 -0.1348  1.1992 -0.5502
  438MOL0     H59077   3.431   0.519   4.852 -0.4157 -0.4738 -1.8901
  438MOL0     H59078   3.403   0.693   4.815 -1.6692 -1.1805  0.9151
  438MOL0     H59079   3.671   0.575   4.886 -2.0107 -0.9292  1.2196
  438MOL0     H59080   3.620   0.745   4.844  0.9618  0.2327  3.3049
  438MOL0     H59081   3.471   0.475   4.610  0.8323 -1.7733 -3.4099
  438MOL0     H59082   3.602   0.507   4.278 -1.2786 -5.2084 -1.1630
  438MOL0     H59083   3.766   0.451   4.336 -0.7996 -1.7418 -0.5838
  438MOL0     H59084   3.490   0.336   4.380  0.1440 -2.1971  2.6321
  438MOL0     H59085   3.640   0.279   4.460  2.5777  1.5636 -0.3693
  438MOL0     H59086   3.713   0.282   4.184  1.3684 -2.5155  0.8635
  438MOL0     H59087   3.541   0.279   4.161  0.1177 -0.6025 -0.7382
  438MOL0     H59088   3.615   0.063   4.149 -1.9896 -0.3652 -0.0856
  438MOL0     H59089   3.523   0.081   4.299 -0.6579  3.9145  0.9861
  438MOL0     H59090   3.922   0.037   4.483 -0.0758 -0.5413 -0.9945
  438MOL0     H59091   4.030  -0.171   4.726 -0.2061 -1.8895 -0.5631
  438MOL0     H59092   4.111  -0.205   4.582  0.4147  0.0163  3.0193
  438MOL0     H59093   4.056  -0.037   4.612  0.2693 -0.6522 -0.3699
  438MOL0     H59094   3.956  -0.488   4.935 -0.1926  0.3403 -1.0039
  438MOL0     H59095   3.995  -0.718   5.034  1.2520  0.0640 -0.0889
  438MOL0     H59096   4.138  -1.080   4.784  1.3535  1.3251 -3.1009
  438MOL0     H59097   4.268  -0.958   4.800  1.5572 -0.5836  0.9317
  438MOL0     H59098   4.184  -1.158   5.020  2.1245 -1.8205 -0.4158
  438MOL0     H59099   4.308  -1.179   4.901  2.5116  1.5720  0.4763
  438MOL0     H59100   4.289  -0.942   5.082 -2.1345 -1.0638  0.1986
  438MOL0     H59101   4.437  -0.987   4.987 -1.7573 -0.1198 -2.9788
  438MOL0     H59102   4.308  -1.120   5.232 -3.0817  1.1193 -2.6085
  438MOL0     H59103   4.409  -1.210   5.113  0.7895 -0.2120  0.4930
  438MOL0     H59104   4.604  -1.045   5.165  1.4532  0.3186  1.8115
  438MOL0     H59105   4.544  -1.123   5.314  0.6666  0.7370  0.4386
  438MOL0     H59106   4.599  -0.885   5.319 -0.0105 -2.5200  0.8819
  438MOL0     H59107   4.460  -0.846   5.207 -3.0123 -0.6780  0.5663
  438MOL0     H59108   4.416  -0.964   5.488 -1.1078 -0.7157  0.0891
  438MOL0     H59109   4.294  -0.935   5.366 -1.6471  3.7862  0.6163
  438MOL0     H59110   4.344  -0.687   5.356 -0.3136  0.4019  0.9399
  438MOL0     H59111   4.449  -0.718   5.497  1.7658  1.7446 -2.8158
  438MOL0     H59112   4.072  -0.872   4.650 -0.1491 -0.2716  1.6324
  438MOL0     H59113   3.998  -0.665   4.545  2.8190 -2.3063  0.5331
  438MOL0     H59114   3.651  -0.365   4.426  0.0233  0.0799 -0.9082
  438MOL0     H59115   3.581  -0.165   4.316  0.7232  1.3395 -1.4852
  438MOL0     H59116   3.099   0.987   5.336 -0.6763 -1.0022 -0.5035
  438MOL0     H59117   2.876   0.969   5.404 -0.1035 -0.7934  0.0853
  438MOL0     H59118   2.614   0.728   5.594  0.3615 -0.0422 -0.2522
  438MOL0     H59119   2.371   0.671   5.552 -0.6978 -0.3193 -0.7729
  438MOL0     H59120   2.072   0.896   5.711  0.1284 -0.9201 -0.9132
  438MOL0     H59121   2.069   0.981   5.559 -2.3002 -0.4754 -1.7340
  438MOL0     H59122   1.952   0.701   5.586  1.3727 -1.0301 -2.7677
  438MOL0     H59123   1.913   0.820   5.462  0.7325  2.4649 -0.5816
  438MOL0     H59124   1.844   0.944   5.706 -1.6150  0.6517  1.3074
  438MOL0     H59125   1.814   0.769   5.736 -1.2884  1.0032  0.5811
  438MOL0     H59126   1.697   0.911   5.497  0.2925 -1.2706 -1.6006
  438MOL0     H59127   1.618   0.916   5.656 -1.2432 -2.3442  0.3250
  438MOL0     H59128   1.488   0.592   5.424 -1.4234  0.1776  0.2756
  438MOL0     H59129   2.248   1.071   5.645 -1.9127 -0.4617  1.7801
  438MOL0     H59130   2.480   1.117   5.725 -0.6555 -0.8748  0.7507
  439MOL0     O59131   9.538   4.756   5.148  0.0315  0.1873 -0.7285
  439MOL0     C59132   9.611   4.775   5.254 -0.3287  0.7608  1.1865
  439MOL0     O59133   9.582   4.742   5.382  0.1055  0.2850 -0.9822
  439MOL0     C59134   9.477   4.660   5.426  0.3439 -0.0825  0.5762
  439MOL0     C59135   9.415   4.562   5.349 -0.2628 -1.0771  0.1543
  439MOL0     C59136   9.303   4.500   5.397 -0.5679  0.2847 -0.2004
  439MOL0     C59137   9.258   4.514   5.531 -0.8455  1.4428  0.3991
  439MOL0     O59138   9.154   4.438   5.567  0.8972  0.5978 -0.1143
  439MOL0     C59139   9.125   4.413   5.706 -1.0225 -0.3567  0.3929
  439MOL0     C59140   9.030   4.296   5.719  0.1175  0.1949  0.9611
  439MOL0     C59141   8.979   4.273   5.860  0.6951 -0.6222  0.1088
  439MOL0     C59142   8.913   4.144   5.880  0.2437  1.0228 -0.4396
  439MOL0     C59143   8.830   4.143   6.014 -0.8243 -0.4919 -0.7212
  439MOL0     C59144   8.786   4.008   6.060  0.3502  0.2082  0.3923
  439MOL0     C59145   8.719   3.918   5.944  0.8795  0.3801  0.3017
  439MOL0     C59146   8.622   3.811   5.997  0.3543 -0.0178  0.3548
  439MOL0     N59147   8.544   3.747   5.889 -0.2701 -0.1762 -0.2400
  439MOL0     C59148   8.452   3.814   5.814 -0.1737  0.9286 -0.6959
  439MOL0     C59149   8.411   3.724   5.729 -0.2529  1.0579 -0.2184
  439MOL0     C59150   8.305   3.764   5.625 -0.2749  0.8250  0.2985
  439MOL0     C59151   8.212   3.652   5.604 -0.2307  0.3870 -0.2371
  439MOL0     C59152   8.150   3.612   5.739  0.1723 -0.1436 -0.2387
  439MOL0     C59153   8.030   3.519   5.701 -0.5951 -0.3234 -1.0186
  439MOL0     O59154   7.973   3.471   5.827  0.3484 -0.0407  0.4273
  439MOL0     C59155   7.881   3.367   5.815  0.2553 -0.2992  0.1653
  439MOL0     C59156   7.804   3.338   5.926 -0.4365 -0.2700  0.2179
  439MOL0     C59157   7.708   3.232   5.928  0.2792 -0.1084  0.1715
  439MOL0     C59158   7.645   3.198   6.060 -0.0121 -0.6907  0.5944
  439MOL0     C59159   7.698   3.153   5.815  0.3693  0.5738 -0.1132
  439MOL0     C59160   7.605   3.038   5.806  0.6531  1.2235 -0.0482
  439MOL0     O59161   7.646   2.946   5.709 -0.7967 -0.2427 -0.1022
  439MOL0     C59162   7.579   2.828   5.693  0.0987 -0.7256  0.6047
  439MOL0     C59163   7.541   2.760   5.807 -0.2038  0.6782 -0.1822
  439MOL0     C59164   7.481   2.634   5.789  0.3002 -0.3426 -0.2092
  439MOL0     C59165   7.460   2.583   5.664  0.1599 -0.1697  0.8444
  439MOL0     O59166   7.410   2.458   5.639 -0.4465  0.4454  0.5275
  439MOL0     C59167   7.361   2.377   5.754  0.7513 -0.7016 -0.9100
  439MOL0     C59168   7.272   2.274   5.685 -1.2542  0.3066  0.3180
  439MOL0     C59169   7.216   2.181   5.787 -0.1420  0.2063 -0.4186
  439MOL0     C59170   7.140   2.238   5.909 -0.0621 -0.8944 -0.1850
  439MOL0     C59171   7.094   2.121   5.987 -0.5064  0.4099 -0.0819
  439MOL0     C59172   7.048   2.178   6.123  0.4357  0.8983 -0.2792
  439MOL0     C59173   6.996   2.070   6.224  0.3536 -0.1731 -0.8180
  439MOL0     C59174   6.858   2.005   6.183 -0.3610 -0.0370  0.1200
  439MOL0    Cl59175   6.734   2.127   6.162  0.1009  0.1613 -0.1235
  439MOL0     C59176   7.491   2.659   5.549  0.3667  0.1968 -0.4076
  439MOL0     C59177   7.558   2.780   5.564 -0.9767 -0.1450  1.0069
  439MOL0     O59178   7.499   3.034   5.864 -0.4367 -0.1451 -0.0347
  439MOL0     C59179   7.771   3.181   5.696  0.4501  0.1820  0.0199
  439MOL0     C59180   7.856   3.295   5.698  1.5939 -0.7067  0.1690
  439MOL0     N59181   8.484   3.605   5.742  0.2568 -0.4774 -0.2354
  439MOL0     N59182   8.559   3.621   5.850  0.3068 -0.3148  0.6270
  439MOL0     C59183   9.337   4.597   5.616  0.4036  0.0204 -0.6941
  439MOL0     C59184   9.438   4.676   5.555 -0.1487 -0.7746  0.2635
  439MOL0     C59185   9.734   4.852   5.238  0.7062  0.0939 -0.8486
  439MOL0     C59186   9.795   4.922   5.342  0.9993  0.9453 -0.5934
  439MOL0     C59187   9.918   4.992   5.328 -0.4952 -0.3429  0.9351
  439MOL0     C59188   9.981   4.986   5.203 -0.0315  0.1136  0.3595
  439MOL0     O59189  10.093   5.056   5.171 -0.0061 -0.4339  0.8510
  439MOL0     C59190  10.192   5.073   5.278 -0.5127 -0.1152 -0.3162
  439MOL0     C59191  10.222   5.222   5.292 -0.5027  0.2350 -0.1086
  439MOL0     C59192  10.094   5.297   5.322  0.0794  0.6018 -0.5288
  439MOL0     C59193  10.127   5.441   5.344 -0.1818  0.5714  0.3414
  439MOL0     C59194  10.021   5.504   5.421 -0.4630  0.2403 -0.3353
  439MOL0     C59195   9.938   5.563   5.482  0.1634  0.4557  0.0519
  439MOL0     C59196   9.919   4.921   5.092  0.3647 -0.5621  0.7161
  439MOL0     C59197   9.802   4.851   5.116 -0.1296  0.4660  0.3680
  439MOL0     H59198   9.452   4.545   5.248 -2.9724  0.7407 -1.2739
  439MOL0     H59199   9.250   4.435   5.329  1.4768 -0.5719 -1.0795
  439MOL0     H59200   9.215   4.383   5.761  0.1493 -3.7558 -2.9217
  439MOL0     H59201   9.083   4.503   5.750  0.1295 -0.1234  1.0619
  439MOL0     H59202   8.940   4.307   5.658 -1.4747  2.9066  3.5355
  439MOL0     H59203   9.065   4.194   5.698 -3.9826 -1.7017  2.3428
  439MOL0     H59204   9.068   4.277   5.923  2.0806  1.5180 -1.8282
  439MOL0     H59205   8.920   4.360   5.886  1.0048  0.5619 -2.7259
  439MOL0     H59206   8.860   4.125   5.786  1.8057  1.2183 -1.3974
  439MOL0     H59207   8.976   4.055   5.893 -2.8357 -0.9047  3.6490
  439MOL0     H59208   8.886   4.202   6.087 -0.6197 -1.1501 -0.3398
  439MOL0     H59209   8.742   4.205   5.992 -2.2320 -3.4409 -4.3361
  439MOL0     H59210   8.870   3.953   6.104  1.3223  1.5235  0.2186
  439MOL0     H59211   8.713   4.022   6.140  2.0207 -1.8520  2.4420
  439MOL0     H59212   8.661   3.982   5.876  1.8090 -0.3841 -1.2592
  439MOL0     H59213   8.785   3.874   5.868 -1.3998 -0.8825 -1.0755
  439MOL0     H59214   8.552   3.858   6.067  1.3241 -0.2240  1.4860
  439MOL0     H59215   8.674   3.738   6.060 -0.2371 -0.4882  0.3018
  439MOL0     H59216   8.441   3.920   5.834 -1.0797  1.0884 -1.8973
  439MOL0     H59217   8.237   3.845   5.652 -1.0057  0.2410  0.2571
  439MOL0     H59218   8.348   3.787   5.527 -1.4997  0.8895 -0.2394
  439MOL0     H59219   8.255   3.568   5.549  5.0622  1.4078  1.7399
  439MOL0     H59220   8.135   3.683   5.534 -0.8293  1.6561  0.9427
  439MOL0     H59221   8.111   3.707   5.777 -2.1380 -0.5675 -1.3673
  439MOL0     H59222   8.223   3.574   5.810  1.8151 -1.1556 -2.3511
  439MOL0     H59223   8.068   3.432   5.646  0.4384 -1.4888  1.3578
  439MOL0     H59224   7.960   3.582   5.647  0.8607  0.6082 -1.8986
  439MOL0     H59225   7.832   3.404   6.007  2.6043 -0.1247 -0.7905
  439MOL0     H59226   7.643   3.090   6.074  0.1400 -0.6360  1.0272
  439MOL0     H59227   7.699   3.239   6.146  1.8991 -2.8526  0.5141
  439MOL0     H59228   7.542   3.235   6.064  0.5401  1.2422 -1.2749
  439MOL0     H59229   7.562   2.787   5.909 -1.3216  2.1533 -0.3177
  439MOL0     H59230   7.446   2.580   5.877  0.6490  0.0668  0.1884
  439MOL0     H59231   7.444   2.326   5.803  0.6428  1.8147  2.2770
  439MOL0     H59232   7.297   2.435   5.822  2.6068  1.1650 -0.6386
  439MOL0     H59233   7.183   2.316   5.636 -1.6836  0.0719  0.8935
  439MOL0     H59234   7.332   2.220   5.612  0.0033 -0.9690  2.2153
  439MOL0     H59235   7.301   2.115   5.803  0.9347  1.3811 -1.1010
  439MOL0     H59236   7.137   2.118   5.745 -0.2532  0.1087 -0.0698
  439MOL0     H59237   7.194   2.310   5.971  0.4154 -0.0189 -1.5559
  439MOL0     H59238   7.063   2.298   5.860  0.8517 -0.1112 -0.6982
  439MOL0     H59239   7.182   2.058   6.000 -1.2493 -0.8297 -0.8417
  439MOL0     H59240   7.013   2.068   5.936 -0.5135 -1.1667  1.4748
  439MOL0     H59241   7.128   2.227   6.181 -0.8836 -0.2843  2.7697
  439MOL0     H59242   6.965   2.246   6.104 -1.0288 -0.0229  2.2872
  439MOL0     H59243   6.964   2.114   6.319  1.0729  0.0448 -0.6679
  439MOL0     H59244   7.074   1.994   6.233 -1.9422 -2.9985 -3.1174
  439MOL0     H59245   6.830   1.921   6.247  0.6357 -2.0243 -1.9014
  439MOL0     H59246   6.882   1.956   6.088  3.2567  2.3885 -0.4288
  439MOL0     H59247   7.465   2.611   5.455 -2.6715 -2.9628  1.7671
  439MOL0     H59248   7.597   2.832   5.477 -0.4302 -1.4202  0.4794
  439MOL0     H59249   7.766   3.117   5.608 -1.2294 -1.3798  1.1831
  439MOL0     H59250   7.917   3.317   5.611  0.2528 -0.5238 -0.7453
  439MOL0     H59251   9.313   4.596   5.721  2.1588  2.1153 -0.2015
  439MOL0     H59252   9.499   4.740   5.618  0.5030  0.0912 -1.2036
  439MOL0     H59253   9.745   4.949   5.434  0.6498 -0.1895 -0.4300
  439MOL0     H59254   9.953   5.045   5.416 -3.6489  0.5228  1.7974
  439MOL0     H59255  10.161   5.033   5.375  1.0178 -1.7398 -0.4622
  439MOL0     H59256  10.292   5.030   5.268 -0.6718 -0.8282  0.9098
  439MOL0     H59257  10.266   5.257   5.198  0.5706 -2.2965 -0.6381
  439MOL0     H59258  10.292   5.232   5.376 -3.5426 -0.5682  2.7711
  439MOL0     H59259  10.047   5.253   5.411  0.3144  0.4890 -0.4590
  439MOL0     H59260  10.022   5.287   5.240 -0.3406 -2.1893  0.0914
  439MOL0     H59261  10.160   5.492   5.252 -0.8620  0.9562  0.3026
  439MOL0     H59262  10.215   5.449   5.408  1.4593 -0.2350 -1.7047
  439MOL0     H59263   9.859   5.616   5.531 -1.5732 -1.9045  0.0492
  439MOL0     H59264   9.971   4.932   4.997  1.4462  3.0182  1.5679
  439MOL0     H59265   9.751   4.795   5.037  0.2705  1.1439 -0.3841
  440MOL0     O59266   5.997   6.877   8.893  0.0548  0.2159  0.6427
  440MOL0     C59267   5.926   6.842   8.800 -0.3228 -0.9939 -0.1211
  440MOL0     O59268   5.969   6.838   8.677  0.1554  0.0203  0.7886
  440MOL0     C59269   6.107   6.824   8.651 -0.2389  0.1185  0.6950
  440MOL0     C59270   6.209   6.920   8.675  0.8793 -0.0251 -1.2336
  440MOL0     C59271   6.343   6.895   8.665  0.3298  0.1613 -0.6634
  440MOL0     C59272   6.388   6.769   8.631 -0.2073  0.6588 -0.0986
  440MOL0     O59273   6.525   6.751   8.622 -0.2337  0.3656  0.1744
  440MOL0     C59274   6.565   6.712   8.489  0.7826  0.4137  0.1691
  440MOL0     C59275   6.654   6.832   8.439 -1.0803 -0.0583  0.5547
  440MOL0     C59276   6.716   6.807   8.301 -0.7142  0.2947  0.5445
  440MOL0     C59277   6.835   6.706   8.310  0.0048  0.4078 -0.0645
  440MOL0     C59278   6.920   6.724   8.186  0.3450  0.2317  0.7180
  440MOL0     C59279   6.995   6.857   8.190  0.4292  0.1671  0.0851
  440MOL0     C59280   6.981   6.931   8.057  0.9566 -0.2982 -0.4280
  440MOL0     C59281   7.056   6.873   7.932  0.1232 -0.1734 -0.0559
  440MOL0     N59282   7.008   6.965   7.821 -0.0817  0.3335  0.3539
  440MOL0     C59283   6.897   6.936   7.750 -0.3899 -0.1774  0.5959
  440MOL0     C59284   6.881   7.044   7.668 -0.5307 -0.0947  1.2310
  440MOL0     C59285   6.786   7.061   7.554 -0.7733 -0.7246  0.8037
  440MOL0     C59286   6.637   7.028   7.600 -0.3509  0.1587 -0.3916
  440MOL0     C59287   6.535   7.104   7.524 -1.1991  0.3751  0.0078
  440MOL0     C59288   6.402   7.037   7.550  0.6425  0.8141 -0.2495
  440MOL0     O59289   6.299   7.109   7.468  0.4790 -0.4544 -0.2833
  440MOL0     C59290   6.182   7.036   7.460  0.3513  0.2084 -0.6305
  440MOL0     C59291   6.146   6.915   7.523 -0.6074  0.4695 -0.2913
  440MOL0     C59292   6.007   6.874   7.514 -0.1864 -0.1065 -0.0963
  440MOL0     C59293   5.976   6.745   7.589 -0.5568 -0.7667 -0.7268
  440MOL0     C59294   5.914   6.948   7.439 -0.4192 -0.3322 -0.0748
  440MOL0     C59295   5.773   6.899   7.421 -0.5893  0.4994 -0.8295
  440MOL0     O59296   5.753   6.775   7.437  0.1531  0.3481  0.3076
  440MOL0     C59297   5.621   6.735   7.435 -0.7532  0.0633 -0.3278
  440MOL0     C59298   5.549   6.703   7.314 -0.4595  0.0869 -0.0678
  440MOL0     C59299   5.410   6.693   7.316  0.0965 -0.1262  0.3336
  440MOL0     C59300   5.333   6.717   7.432  0.3144 -0.4868 -0.8476
  440MOL0     O59301   5.201   6.702   7.448  0.2538  0.1776 -0.5098
  440MOL0     C59302   5.117   6.688   7.338 -0.4497  0.5051  0.0851
  440MOL0     C59303   5.119   6.535   7.300 -0.5904 -0.4029 -0.4431
  440MOL0     C59304   5.013   6.458   7.387 -0.0994  0.1733  0.1065
  440MOL0     C59305   5.040   6.314   7.393 -0.6766  0.2431  0.9352
  440MOL0     C59306   5.017   6.252   7.250 -0.5770 -0.2622 -0.4679
  440MOL0     C59307   4.873   6.262   7.201  0.7570 -0.8832 -0.4784
  440MOL0     C59308   4.845   6.190   7.071 -0.2671 -0.0399 -0.4417
  440MOL0     C59309   4.914   6.254   6.955  0.3413  0.4234  0.7985
  440MOL0    Cl59310   4.863   6.167   6.796 -0.1383 -0.1785 -0.2652
  440MOL0     C59311   5.401   6.744   7.552 -1.6430 -0.5023  0.3917
  440MOL0     C59312   5.545   6.758   7.549  0.8851 -0.0339 -0.1695
  440MOL0     O59313   5.687   6.977   7.388  0.0851  0.1571 -0.1427
  440MOL0     C59314   5.951   7.072   7.376 -1.2719 -0.1764 -0.3667
  440MOL0     C59315   6.088   7.110   7.387  0.6176  0.3415  0.8528
  440MOL0     N59316   6.981   7.138   7.693  0.5476  0.0295 -0.7777
  440MOL0     N59317   7.054   7.085   7.786 -0.4342 -0.2869 -0.5123
  440MOL0     C59318   6.294   6.664   8.602  0.0674 -0.9373 -0.6194
  440MOL0     C59319   6.155   6.698   8.601  0.5611  0.3699 -0.7134
  440MOL0     C59320   5.784   6.821   8.805 -0.3623  0.4535 -0.2692
  440MOL0     C59321   5.709   6.838   8.921 -1.3513  0.8078  0.2211
  440MOL0     C59322   5.568   6.807   8.919 -0.1710  0.3773 -0.7042
  440MOL0     C59323   5.504   6.758   8.805 -0.2780  0.0691  0.3248
  440MOL0     O59324   5.371   6.719   8.787  0.3064  0.5572  0.3090
  440MOL0     C59325   5.291   6.716   8.906 -0.2476 -0.5378 -0.0055
  440MOL0     C59326   5.323   6.593   8.985 -0.4188 -0.5108 -0.4238
  440MOL0     C59327   5.275   6.605   9.128 -0.4987  0.1094 -0.3176
  440MOL0     C59328   5.244   6.461   9.189  1.0861 -0.4643  0.4336
  440MOL0     C59329   5.194   6.493   9.321 -0.0492  0.1411 -0.1457
  440MOL0     C59330   5.147   6.544   9.421 -0.6621  0.7515 -0.0849
  440MOL0     C59331   5.574   6.739   8.694  0.2280 -0.2626  0.0354
  440MOL0     C59332   5.715   6.768   8.690 -0.3198 -0.2770  0.6369
  440MOL0     H59333   6.184   7.020   8.710  1.5141 -0.1644 -0.3577
  440MOL0     H59334   6.419   6.972   8.678 -0.4356  0.6820  0.9765
  440MOL0     H59335   6.630   6.625   8.496 -0.0123 -0.3044 -0.9782
  440MOL0     H59336   6.486   6.681   8.419  0.0569  2.9266 -0.2114
  440MOL0     H59337   6.595   6.924   8.447 -3.3877 -1.5445  1.5715
  440MOL0     H59338   6.732   6.858   8.511 -1.0313 -0.6262  0.7141
  440MOL0     H59339   6.647   6.779   8.221 -1.0737  1.9736  0.2428
  440MOL0     H59340   6.749   6.909   8.279 -0.0295  0.0850  0.5926
  440MOL0     H59341   6.886   6.721   8.406 -2.0298  1.0494  0.9676
  440MOL0     H59342   6.801   6.602   8.318  2.2290 -0.4493 -0.7970
  440MOL0     H59343   6.996   6.647   8.171  1.8260  1.7346  0.1894
  440MOL0     H59344   6.844   6.715   8.107 -2.3556 -1.3629  3.3149
  440MOL0     H59345   6.967   6.918   8.276 -0.9408  1.2661 -1.0828
  440MOL0     H59346   7.095   6.823   8.218  0.4609  1.2365  1.3729
  440MOL0     H59347   6.876   6.936   8.028  1.5179  3.1898 -2.5029
  440MOL0     H59348   7.019   7.032   8.077  1.3176 -0.5254  0.0552
  440MOL0     H59349   7.029   6.768   7.921  0.8046 -0.1964 -1.9111
  440MOL0     H59350   7.161   6.875   7.963  0.1006  0.8909  0.0015
  440MOL0     H59351   6.828   6.853   7.761 -0.1726 -0.0335  3.9067
  440MOL0     H59352   6.795   7.157   7.503 -1.0139 -0.6227  0.9506
  440MOL0     H59353   6.808   6.986   7.478  1.1740  1.3965 -0.8704
  440MOL0     H59354   6.619   7.027   7.708 -3.5667 -0.1369 -0.8431
  440MOL0     H59355   6.620   6.925   7.567  0.7455  0.9474 -3.8850
  440MOL0     H59356   6.571   7.114   7.421  2.2763 -0.6549  0.9745
  440MOL0     H59357   6.547   7.206   7.561  1.9552 -0.2293  1.0287
  440MOL0     H59358   6.380   7.042   7.657  2.6847 -0.3717  0.2727
  440MOL0     H59359   6.416   6.932   7.526  0.1119  0.8566 -0.7675
  440MOL0     H59360   6.222   6.855   7.572 -2.1674 -2.6281 -1.3101
  440MOL0     H59361   5.941   6.665   7.524 -1.0107 -2.1044  1.0604
  440MOL0     H59362   6.056   6.711   7.656 -1.2429  1.9676  1.7250
  440MOL0     H59363   5.888   6.768   7.650 -1.2921  0.3252 -2.1517
  440MOL0     H59364   5.608   6.703   7.223  2.4652 -1.3371  1.6905
  440MOL0     H59365   5.354   6.648   7.235  0.8278 -3.7281  1.6274
  440MOL0     H59366   5.019   6.726   7.368  1.2021  2.2126  3.9677
  440MOL0     H59367   5.154   6.754   7.259  0.3704  0.8432  0.7334
  440MOL0     H59368   5.089   6.536   7.195 -1.4647 -2.1618 -0.2503
  440MOL0     H59369   5.216   6.491   7.326 -0.7390 -0.1504  0.5826
  440MOL0     H59370   4.920   6.477   7.333 -1.0016 -0.7754  1.2620
  440MOL0     H59371   4.992   6.506   7.483 -1.2635 -0.6961  0.3086
  440MOL0     H59372   5.145   6.292   7.415  0.0917  0.5613 -1.9319
  440MOL0     H59373   4.979   6.261   7.467  1.3340 -2.6266  0.7057
  440MOL0     H59374   5.050   6.149   7.258  0.6660  0.2256  1.2292
  440MOL0     H59375   5.076   6.306   7.176  0.2042 -2.4215 -1.4870
  440MOL0     H59376   4.802   6.216   7.270  1.0643  1.5207  1.6016
  440MOL0     H59377   4.833   6.364   7.194  1.9102  0.1717  4.3554
  440MOL0     H59378   4.736   6.191   7.060 -0.3191 -2.2718 -0.7030
  440MOL0     H59379   4.874   6.084   7.074  0.0246 -0.0438 -2.4146
  440MOL0     H59380   5.022   6.264   6.963  0.3827  0.5435  0.1348
  440MOL0     H59381   4.885   6.359   6.950 -0.8529  0.0540 -0.8885
  440MOL0     H59382   5.352   6.771   7.645 -0.9606 -0.2279  0.6725
  440MOL0     H59383   5.597   6.786   7.641 -2.4265 -0.0390  1.8931
  440MOL0     H59384   5.891   7.136   7.312 -1.4287  1.8651  1.6742
  440MOL0     H59385   6.114   7.212   7.363  2.0608  0.4738  2.8307
  440MOL0     H59386   6.326   6.570   8.558 -2.2557 -1.9752 -0.2142
  440MOL0     H59387   6.087   6.615   8.589  1.0625 -0.0061 -0.9897
  440MOL0     H59388   5.767   6.876   9.004 -1.2436  1.2180 -0.0379
  440MOL0     H59389   5.523   6.835   9.014  1.2551  2.0919 -0.4828
  440MOL0     H59390   5.293   6.809   8.963  2.0246  0.0064 -0.8818
  440MOL0     H59391   5.186   6.720   8.876 -0.1697  2.4104 -0.1010
  440MOL0     H59392   5.430   6.576   8.998 -0.5157 -0.4774  0.5148
  440MOL0     H59393   5.273   6.510   8.933 -1.1654  0.9311 -2.1062
  440MOL0     H59394   5.192   6.676   9.133 -2.1463 -1.7837  0.7460
  440MOL0     H59395   5.355   6.650   9.188  2.8187 -2.5844 -2.3419
  440MOL0     H59396   5.338   6.406   9.194  1.8565  0.8839  1.2869
  440MOL0     H59397   5.156   6.407   9.152 -0.8171  1.9500  1.1674
  440MOL0     H59398   5.118   6.586   9.515  2.2576 -0.6486  1.5924
  440MOL0     H59399   5.524   6.687   8.613  2.2730 -3.2830  0.5271
  440MOL0     H59400   5.769   6.759   8.596 -1.2334  1.9925 -0.1615
  441MOL0     O59401   7.333   3.366   8.900  0.2354  0.5217  1.0837
  441MOL0     C59402   7.398   3.386   8.795 -0.8820  0.6352  0.1744
  441MOL0     O59403   7.358   3.424   8.674  0.0230  0.2278 -0.1294
  441MOL0     C59404   7.221   3.448   8.641 -0.6928 -0.3791  0.4053
  441MOL0     C59405   7.104   3.427   8.711 -0.2357  0.1492 -0.9378
  441MOL0     C59406   6.974   3.441   8.657  0.1482 -0.0748 -0.9590
  441MOL0     C59407   6.951   3.526   8.554  0.2719 -0.2494  0.8702
  441MOL0     O59408   6.828   3.563   8.496  0.2072  0.9708  0.3371
  441MOL0     C59409   6.715   3.530   8.585  0.0461  0.3583  0.7123
  441MOL0     C59410   6.601   3.623   8.540 -0.5045  0.3982  0.7200
  441MOL0     C59411   6.502   3.615   8.662  0.4327 -0.7419 -1.1117
  441MOL0     C59412   6.370   3.656   8.594  0.1326 -0.9324  0.0720
  441MOL0     C59413   6.248   3.660   8.685  0.5732  1.2149  0.1534
  441MOL0     C59414   6.138   3.744   8.626 -0.1686  0.9371  0.1067
  441MOL0     C59415   6.013   3.730   8.725 -0.1030 -0.7588 -0.4717
  441MOL0     C59416   5.885   3.761   8.652 -1.0874  0.4902  0.2368
  441MOL0     N59417   5.810   3.867   8.721  0.0745  0.0684 -0.2150
  441MOL0     C59418   5.715   3.855   8.817  0.1342 -0.3881  0.0704
  441MOL0     C59419   5.693   3.981   8.872 -0.7831 -0.5612  0.6806
  441MOL0     C59420   5.593   4.016   8.980 -0.0152  0.8181 -0.3955
  441MOL0     C59421   5.590   3.914   9.094  0.4536  1.3435 -0.0709
  441MOL0     C59422   5.512   3.951   9.219 -0.3928  0.4077 -0.0600
  441MOL0     C59423   5.569   4.078   9.297  0.1539  0.1405 -0.0326
  441MOL0     O59424   5.504   4.075   9.432 -0.6744 -0.1097  0.4259
  441MOL0     C59425   5.446   4.190   9.456 -0.0799 -0.6190  0.0626
  441MOL0     C59426   5.472   4.244   9.580 -0.1434 -0.8109 -0.1327
  441MOL0     C59427   5.404   4.361   9.630 -0.7272 -0.0584 -0.3611
  441MOL0     C59428   5.447   4.414   9.764 -0.3595 -0.3326 -0.0495
  441MOL0     C59429   5.306   4.421   9.552  0.9708 -0.4684  0.7945
  441MOL0     C59430   5.233   4.557   9.588 -0.0466  0.3782  0.6496
  441MOL0     O59431   5.282   4.636   9.687 -0.8120 -0.1395  0.5270
  441MOL0     C59432   5.211   4.741   9.742 -0.3603 -0.0315  1.6511
  441MOL0     C59433   5.246   4.864   9.693  0.0581  0.2566  0.9287
  441MOL0     C59434   5.207   4.975   9.765  0.7065  0.0705 -0.2383
  441MOL0     C59435   5.121   4.973   9.870  0.1417  0.3360  1.0126
  441MOL0     O59436   5.088   5.094   9.931  0.8802  0.1231  0.4397
  441MOL0     C59437   4.948   5.105   9.983 -0.6599  0.0724  0.2222
  441MOL0     C59438   4.886   5.240   9.976  0.9558 -0.7992  0.9311
  441MOL0     C59439   4.862   5.280   9.831  0.0545 -0.8020 -0.7987
  441MOL0     C59440   4.873   5.432   9.824  0.3981 -0.3105 -0.3067
  441MOL0     C59441   4.795   5.502   9.708  0.7584 -0.6140 -0.5234
  441MOL0     C59442   4.651   5.479   9.717  0.2961  0.4659  0.6985
  441MOL0     C59443   4.558   5.556   9.618 -0.5152  0.4395 -0.5647
  441MOL0     C59444   4.473   5.456   9.535 -0.9066 -0.5909  0.0387
  441MOL0    Cl59445   4.580   5.371   9.433  0.0910 -0.2979 -0.0927
  441MOL0     C59446   5.078   4.845   9.917 -0.2787 -0.2817  0.1806
  441MOL0     C59447   5.118   4.733   9.844  0.0069 -0.1654  0.4354
  441MOL0     O59448   5.145   4.598   9.514 -0.1230 -0.2458 -0.1791
  441MOL0     C59449   5.274   4.361   9.431 -0.6944 -0.2220 -0.0094
  441MOL0     C59450   5.345   4.248   9.381 -0.7924 -0.8378 -0.6436
  441MOL0     N59451   5.784   4.063   8.810 -0.3087  0.2022 -0.0267
  441MOL0     N59452   5.847   4.002   8.722  0.9832  0.9220 -0.1746
  441MOL0     C59453   7.060   3.565   8.482  0.9674 -0.5038  0.4478
  441MOL0     C59454   7.195   3.521   8.517 -0.1369  0.4424  0.1834
  441MOL0     C59455   7.541   3.357   8.803 -0.1191 -0.5968  0.4451
  441MOL0     C59456   7.615   3.297   8.704  0.2661 -0.8080  0.4770
  441MOL0     C59457   7.751   3.269   8.711  1.0384  0.2721  0.4664
  441MOL0     C59458   7.824   3.316   8.821 -0.4419  0.8240  0.3708
  441MOL0     O59459   7.960   3.292   8.830  0.3117  0.0770 -1.0427
  441MOL0     C59460   8.028   3.171   8.779  0.2874 -0.0052 -0.3199
  441MOL0     C59461   8.174   3.183   8.813 -0.1267 -1.0514  0.6032
  441MOL0     C59462   8.249   3.299   8.743 -0.0646  0.2196 -0.2668
  441MOL0     C59463   8.401   3.303   8.778  0.6615 -0.0457 -0.2102
  441MOL0     C59464   8.462   3.414   8.701  0.0070 -0.0895 -0.3342
  441MOL0     C59465   8.482   3.512   8.626 -1.3167 -0.6062 -0.1076
  441MOL0     C59466   7.751   3.359   8.931 -0.7341 -0.7254  0.4663
  441MOL0     C59467   7.615   3.385   8.922  0.1426  0.6654 -0.2871
  441MOL0     H59468   7.110   3.384   8.810 -1.9029  1.5992 -0.1722
  441MOL0     H59469   6.887   3.406   8.711  0.8827  0.6554  0.7505
  441MOL0     H59470   6.688   3.424   8.574 -1.7606  1.0101 -2.3662
  441MOL0     H59471   6.743   3.543   8.690  3.6281 -0.1181 -0.0557
  441MOL0     H59472   6.629   3.726   8.517 -2.0307  0.4227 -1.3385
  441MOL0     H59473   6.559   3.596   8.442 -1.2218  1.0403  0.8441
  441MOL0     H59474   6.489   3.523   8.720 -3.5967  1.0521  1.3282
  441MOL0     H59475   6.527   3.689   8.738 -0.5446 -1.4771 -0.0356
  441MOL0     H59476   6.376   3.757   8.551  1.0728 -0.4687  1.2509
  441MOL0     H59477   6.344   3.597   8.506 -0.5226  1.7464 -1.6514
  441MOL0     H59478   6.225   3.555   8.702 -1.2125  1.4060 -0.8841
  441MOL0     H59479   6.276   3.700   8.783 -0.8764  2.2332  0.1864
  441MOL0     H59480   6.176   3.847   8.618  1.1882  0.3627 -1.0914
  441MOL0     H59481   6.120   3.703   8.527  1.6942 -0.5607  0.3318
  441MOL0     H59482   6.017   3.624   8.751  0.1900 -0.4189  0.9614
  441MOL0     H59483   6.019   3.763   8.829 -2.8263 -0.5765 -0.3079
  441MOL0     H59484   5.811   3.680   8.645 -0.2064 -0.2879 -0.2378
  441MOL0     H59485   5.900   3.798   8.550 -2.5145  0.3240 -0.0583
  441MOL0     H59486   5.664   3.769   8.860  0.2442  0.3675  1.7892
  441MOL0     H59487   5.608   4.118   9.014  1.2852  1.3723 -2.4533
  441MOL0     H59488   5.498   4.016   8.924 -1.8745  2.2134  2.5018
  441MOL0     H59489   5.685   3.880   9.136 -0.1450  0.3582  0.5280
  441MOL0     H59490   5.529   3.832   9.056 -0.6906  2.8485 -1.6142
  441MOL0     H59491   5.510   3.860   9.279  2.4852 -0.1546 -0.6587
  441MOL0     H59492   5.407   3.967   9.192 -0.6249 -3.0256 -1.8397
  441MOL0     H59493   5.560   4.176   9.249  1.6398  1.2392  1.8204
  441MOL0     H59494   5.675   4.055   9.309 -0.2532 -1.6459  0.4441
  441MOL0     H59495   5.551   4.194   9.635 -1.0152 -1.2037  0.8090
  441MOL0     H59496   5.502   4.508   9.748 -0.3677 -0.2279  0.5174
  441MOL0     H59497   5.365   4.440   9.831  0.1839  1.2969  0.0370
  441MOL0     H59498   5.514   4.345   9.815 -0.5559  0.0470  0.7239
  441MOL0     H59499   5.307   4.876   9.604  0.9391 -4.8137  0.5675
  441MOL0     H59500   5.235   5.074   9.729  1.8147  1.0125  2.9185
  441MOL0     H59501   4.876   5.029   9.951 -0.5451 -1.2395  2.7815
  441MOL0     H59502   4.954   5.101  10.093  0.2606  4.4660  0.5239
  441MOL0     H59503   4.787   5.243  10.023  0.8370  4.4875  0.9232
  441MOL0     H59504   4.950   5.314  10.024  1.6965 -0.6786 -0.2126
  441MOL0     H59505   4.758   5.256   9.808 -0.5924  1.0017  0.0028
  441MOL0     H59506   4.927   5.241   9.752  3.5868  1.5236  0.6992
  441MOL0     H59507   4.844   5.469   9.923  1.5377  0.8201 -0.3738
  441MOL0     H59508   4.978   5.456   9.803  0.2071 -0.3659 -1.3627
  441MOL0     H59509   4.828   5.460   9.613  0.7648 -0.0991 -0.7504
  441MOL0     H59510   4.823   5.607   9.721 -1.2166 -0.1915  0.7730
  441MOL0     H59511   4.629   5.374   9.701 -0.6833  0.9359 -1.3297
  441MOL0     H59512   4.607   5.493   9.817  1.9717 -2.0390  1.8837
  441MOL0     H59513   4.619   5.612   9.547  3.6024 -0.3649  2.0110
  441MOL0     H59514   4.504   5.622   9.686  4.9193  2.8095  2.0842
  441MOL0     H59515   4.397   5.512   9.479  0.4809 -0.2962 -1.6311
  441MOL0     H59516   4.425   5.387   9.605  0.8981 -1.6443  0.3020
  441MOL0     H59517   5.008   4.848   9.999 -2.0802  1.9196 -1.3043
  441MOL0     H59518   5.092   4.633   9.876 -1.7466  0.1619  0.1051
  441MOL0     H59519   5.189   4.403   9.378  0.6559  1.5013 -0.8775
  441MOL0     H59520   5.318   4.202   9.287 -1.0495 -0.1539 -0.9016
  441MOL0     H59521   7.050   3.639   8.403 -3.1257 -0.7201  0.5349
  441MOL0     H59522   7.283   3.543   8.457  1.5139 -1.5088  1.6902
  441MOL0     H59523   7.562   3.300   8.609  2.0678 -1.3506 -0.6019
  441MOL0     H59524   7.805   3.229   8.626 -1.2500 -1.0021 -0.4716
  441MOL0     H59525   7.989   3.081   8.827  1.4733 -1.3374 -1.7589
  441MOL0     H59526   8.004   3.160   8.673 -1.9694 -1.0807  0.2556
  441MOL0     H59527   8.210   3.084   8.784 -1.6054 -1.9543  1.7006
  441MOL0     H59528   8.194   3.181   8.920  2.6329 -0.6272  0.1497
  441MOL0     H59529   8.217   3.397   8.779  0.1718  1.3002 -2.8311
  441MOL0     H59530   8.248   3.282   8.635 -4.0238 -0.7087 -0.2297
  441MOL0     H59531   8.450   3.209   8.750  3.3490  1.2468 -0.1270
  441MOL0     H59532   8.405   3.316   8.887  0.5119 -2.3132  0.1075
  441MOL0     H59533   8.491   3.606   8.574 -2.6834 -1.3051 -1.6949
  441MOL0     H59534   7.798   3.377   9.028  0.7803 -1.6187 -0.0622
  441MOL0     H59535   7.574   3.426   9.014  1.3740 -0.6727  0.9084
  442MOL0     O59536  10.364   9.688  10.963 -0.7717 -0.1414 -0.4530
  442MOL0     C59537  10.422   9.579  10.960  0.5741 -0.0594 -0.5835
  442MOL0     O59538  10.361   9.456  10.972  0.1481  0.1037 -0.0482
  442MOL0     C59539  10.222   9.453  10.993  0.1885  0.0234 -0.4955
  442MOL0     C59540  10.167   9.464  11.119  0.1569  0.0973 -0.7147
  442MOL0     C59541  10.031   9.443  11.124  0.1311 -0.1563 -0.5887
  442MOL0     C59542   9.949   9.413  11.012 -0.9876 -0.4833 -1.2234
  442MOL0     O59543   9.819   9.381  11.040 -0.9972 -1.3574 -0.1148
  442MOL0     C59544   9.723   9.404  10.931 -0.4858  0.0896 -0.2050
  442MOL0     C59545   9.600   9.476  10.985 -0.2248  0.0624 -0.0909
  442MOL0     C59546   9.524   9.389  11.084  0.0706 -0.6537 -0.0225
  442MOL0     C59547   9.452   9.266  11.020 -0.2935 -0.6199 -1.1631
  442MOL0     C59548   9.390   9.178  11.136  0.4595  0.2722 -0.4348
  442MOL0     C59549   9.301   9.066  11.071  0.8464 -0.3431 -0.4092
  442MOL0     C59550   9.226   8.993  11.184  0.9256 -0.7145 -0.2574
  442MOL0     C59551   9.123   8.886  11.139 -0.1533 -0.4523 -0.2124
  442MOL0     N59552   9.172   8.763  11.087  0.7366 -0.1286 -0.3034
  442MOL0     C59553   9.253   8.674  11.155  0.7643 -0.1187  0.8457
  442MOL0     C59554   9.288   8.581  11.059 -0.0685  0.4599  0.6469
  442MOL0     C59555   9.393   8.466  11.066  0.2870 -0.7669 -0.2022
  442MOL0     C59556   9.510   8.514  10.986  0.0943  0.0813 -0.8327
  442MOL0     C59557   9.625   8.412  11.005 -0.0094 -0.5684  0.1163
  442MOL0     C59558   9.761   8.442  10.948 -0.4530  0.1991  0.5882
  442MOL0     O59559   9.742   8.468  10.807 -0.0897 -0.0116 -0.6165
  442MOL0     C59560   9.862   8.487  10.746  0.5048  0.2539 -0.1463
  442MOL0     C59561   9.899   8.397  10.647 -0.2277  1.1964  0.5027
  442MOL0     C59562  10.017   8.395  10.577 -0.9657 -0.0742 -0.0452
  442MOL0     C59563  10.054   8.278  10.483  0.2847  0.1113  0.1257
  442MOL0     C59564  10.104   8.512  10.602  0.1600  0.5001  0.4050
  442MOL0     C59565  10.227   8.538  10.515  0.1522  0.4502  0.4892
  442MOL0     O59566  10.317   8.620  10.575 -0.0621  0.6129 -0.0302
  442MOL0     C59567  10.433   8.660  10.515 -0.1037  0.0180 -0.1368
  442MOL0     C59568  10.547   8.591  10.560 -0.1754 -0.0186  1.3065
  442MOL0     C59569  10.670   8.635  10.522  0.7207 -0.0099 -0.1675
  442MOL0     C59570  10.689   8.735  10.431 -0.5437 -0.2256 -0.2607
  442MOL0     O59571  10.812   8.787  10.387  0.3637  0.0896 -0.4542
  442MOL0     C59572  10.924   8.710  10.415 -0.1275 -0.1595  0.3957
  442MOL0     C59573  11.052   8.765  10.354 -1.0912 -0.4768  1.2359
  442MOL0     C59574  11.023   8.793  10.208  0.9232  0.4868 -0.2117
  442MOL0     C59575  10.987   8.670  10.125  0.3240 -0.2269 -0.7091
  442MOL0     C59576  10.967   8.719   9.986 -0.1323 -0.2491  0.9739
  442MOL0     C59577  10.905   8.598   9.908 -0.3960 -0.3502 -0.3259
  442MOL0     C59578  10.907   8.634   9.760 -0.0260 -0.2281  0.7265
  442MOL0     C59579  10.888   8.523   9.669 -0.5753  0.7905 -0.9141
  442MOL0    Cl59580  10.902   8.572   9.492  0.1878 -0.1963 -0.3547
  442MOL0     C59581  10.573   8.805  10.384  0.1503  0.1714 -0.2339
  442MOL0     C59582  10.440   8.760  10.423  0.4175  0.3860  0.1522
  442MOL0     O59583  10.227   8.495  10.400 -0.3325 -0.0750 -0.3801
  442MOL0     C59584  10.070   8.595  10.713  0.6779  0.2972  0.0527
  442MOL0     C59585   9.955   8.587  10.781  0.7005  0.5102 -0.3544
  442MOL0     N59586   9.221   8.608  10.942  0.7745 -0.4781  0.7207
  442MOL0     N59587   9.150   8.714  10.964  0.4263 -0.7067  0.3165
  442MOL0     C59588  10.011   9.412  10.886  0.6673  0.6356 -1.1687
  442MOL0     C59589  10.153   9.432  10.876  1.3625 -0.4909  0.3309
  442MOL0     C59590  10.571   9.576  10.943  0.0662 -0.8774  0.4310
  442MOL0     C59591  10.629   9.699  10.905 -0.4206 -0.0155  0.4014
  442MOL0     C59592  10.766   9.702  10.866  0.5351  1.3182 -0.5029
  442MOL0     C59593  10.833   9.584  10.845  0.2318  1.0855  0.4954
  442MOL0     O59594  10.964   9.571  10.799 -0.2391  0.0083 -0.0251
  442MOL0     C59595  11.042   9.691  10.773  0.5114  0.2622 -0.2727
  442MOL0     C59596  11.014   9.755  10.642 -0.2967 -0.3564  0.8627
  442MOL0     C59597  11.054   9.673  10.525 -0.1596 -0.1675  0.2857
  442MOL0     C59598  11.042   9.754  10.395  0.0610  1.1196 -0.4933
  442MOL0     C59599  11.082   9.671  10.281 -0.5649 -0.2397 -0.1780
  442MOL0     C59600  11.105   9.612  10.188  0.3665 -0.3768  0.5140
  442MOL0     C59601  10.770   9.462  10.881 -0.2459  0.1102  0.3191
  442MOL0     C59602  10.641   9.460  10.923  0.0554  0.4895 -0.4254
  442MOL0     H59603  10.228   9.484  11.207  0.1115 -1.7443 -0.2338
  442MOL0     H59604   9.994   9.425  11.225  1.5933 -2.9870 -0.4521
  442MOL0     H59605   9.763   9.468  10.852 -0.7338  0.3418 -0.1287
  442MOL0     H59606   9.704   9.309  10.879 -0.7640 -1.3390  2.3362
  442MOL0     H59607   9.633   9.566  11.037 -1.8893 -0.6451  2.3590
  442MOL0     H59608   9.529   9.496  10.904  0.5006 -0.3321 -0.8363
  442MOL0     H59609   9.592   9.357  11.163  3.3793  1.7738 -1.6932
  442MOL0     H59610   9.444   9.441  11.138  1.0562  0.7647  0.1265
  442MOL0     H59611   9.366   9.295  10.958  0.7961 -0.0310 -2.4389
  442MOL0     H59612   9.527   9.210  10.962  0.8412 -2.0846  1.5311
  442MOL0     H59613   9.478   9.140  11.188  2.2383  2.2644 -1.7949
  442MOL0     H59614   9.338   9.246  11.204  0.2197 -0.8351  0.5137
  442MOL0     H59615   9.230   9.120  11.007  1.8698  2.0608  0.4029
  442MOL0     H59616   9.365   8.992  11.022  0.4934 -0.7573 -0.2534
  442MOL0     H59617   9.293   8.939  11.251  1.6085 -3.5821 -3.0159
  442MOL0     H59618   9.158   9.062  11.235  2.3471  2.0880 -1.8640
  442MOL0     H59619   9.058   8.936  11.067  0.7287 -0.1843 -0.8323
  442MOL0     H59620   9.058   8.868  11.226 -0.6074 -0.0937 -0.4684
  442MOL0     H59621   9.290   8.679  11.257  0.7398  0.3582  0.8349
  442MOL0     H59622   9.422   8.459  11.171 -1.0298 -1.0205  0.1740
  442MOL0     H59623   9.357   8.373  11.019  1.2612 -1.4156  0.3235
  442MOL0     H59624   9.541   8.617  11.004  3.6839 -0.6100 -2.1418
  442MOL0     H59625   9.475   8.507  10.883  0.9830 -1.4246 -1.0678
  442MOL0     H59626   9.593   8.320  10.956 -1.5842 -1.0326  1.8920
  442MOL0     H59627   9.636   8.372  11.106 -1.3577  0.4030  0.6861
  442MOL0     H59628   9.823   8.353  10.960  1.1598  1.3510  1.0106
  442MOL0     H59629   9.812   8.529  10.990 -0.9351  0.9917 -0.4146
  442MOL0     H59630   9.842   8.305  10.641  2.4649 -0.6701  1.7275
  442MOL0     H59631  10.002   8.184  10.498 -0.0518  0.4536  1.2329
  442MOL0     H59632  10.059   8.309  10.378  4.2982  1.7044  0.5887
  442MOL0     H59633  10.157   8.262  10.518  1.0288 -2.4730 -2.8433
  442MOL0     H59634  10.541   8.502  10.622  4.3402 -1.5944 -0.1171
  442MOL0     H59635  10.748   8.566  10.553 -0.7058 -0.3003  3.2707
  442MOL0     H59636  10.930   8.708  10.524  2.5865  0.2070  0.3312
  442MOL0     H59637  10.908   8.607  10.381  0.6593 -0.7137  1.6290
  442MOL0     H59638  11.070   8.865  10.394 -2.4105  0.6735 -0.8373
  442MOL0     H59639  11.131   8.690  10.365  0.1811  0.7659  0.8031
  442MOL0     H59640  11.114   8.838  10.168  1.3426  1.8529  2.1254
  442MOL0     H59641  10.952   8.875  10.209  1.7124  1.1792  0.9366
  442MOL0     H59642  11.058   8.588  10.140  0.3765  0.0425  0.6539
  442MOL0     H59643  10.887   8.639  10.159  0.4387 -1.5942 -1.5568
  442MOL0     H59644  11.065   8.755   9.951 -1.1021  1.0434 -0.5644
  442MOL0     H59645  10.898   8.804   9.980 -4.2275 -3.0589  3.2445
  442MOL0     H59646  10.975   8.517   9.928 -1.3230 -0.1751  5.0734
  442MOL0     H59647  10.805   8.572   9.945 -0.7037 -1.2499 -1.7368
  442MOL0     H59648  11.005   8.677   9.738  0.4880 -2.4865 -1.8069
  442MOL0     H59649  10.831   8.708   9.732  1.2631  0.1716 -2.1147
  442MOL0     H59650  10.795   8.471   9.693 -0.0927  0.9233  1.6039
  442MOL0     H59651  10.967   8.449   9.687 -1.1006  0.1323 -1.3116
  442MOL0     H59652  10.581   8.890  10.317  2.7712  0.3096  0.1432
  442MOL0     H59653  10.369   8.813  10.360  0.8708  0.7056 -0.0896
  442MOL0     H59654  10.144   8.670  10.740  1.1386 -0.0285 -0.2786
  442MOL0     H59655   9.941   8.663  10.858  1.1091  1.1541 -0.9093
  442MOL0     H59656   9.958   9.393  10.793  2.3710 -0.5034 -1.9546
  442MOL0     H59657  10.196   9.428  10.776 -0.6507 -2.1655 -0.5600
  442MOL0     H59658  10.573   9.791  10.917 -1.3802 -0.4730 -0.4086
  442MOL0     H59659  10.811   9.797  10.837  4.9546  0.2854  2.0284
  442MOL0     H59660  11.015   9.761  10.854 -1.8988 -0.7676 -0.0806
  442MOL0     H59661  11.147   9.664  10.782  1.1192  2.4987 -0.0624
  442MOL0     H59662  11.062   9.853  10.634 -0.6247 -0.3609 -1.7135
  442MOL0     H59663  10.905   9.767  10.647 -0.6427  0.0917 -3.9106
  442MOL0     H59664  10.983   9.591  10.513  1.0296 -1.0338 -1.3132
  442MOL0     H59665  11.157   9.637  10.540 -0.2290 -0.6691 -0.4270
  442MOL0     H59666  11.095   9.850  10.392 -1.4707  1.9833 -0.7102
  442MOL0     H59667  10.937   9.782  10.382 -0.9490 -2.1082 -0.0468
  442MOL0     H59668  11.120   9.556  10.098 -0.3378  0.3434 -0.0657
  442MOL0     H59669  10.812   9.362  10.872  0.9831  0.6213  0.1434
  442MOL0     H59670  10.594   9.364  10.945  2.7993 -1.8111 -3.4970
  443MOL0     O59671   2.348   6.734   0.350 -0.8251  0.8129  0.2071
  443MOL0     C59672   2.370   6.839   0.278  1.6019  0.8108 -0.1702
  443MOL0     O59673   2.295   6.951   0.278 -0.6030 -0.0020  0.0123
  443MOL0     C59674   2.174   6.968   0.348 -0.3125 -1.0266  0.1075
  443MOL0     C59675   2.076   7.044   0.295  0.3529 -0.5202 -0.8653
  443MOL0     C59676   1.959   7.073   0.361 -0.1020  0.9069  0.4304
  443MOL0     C59677   1.931   7.004   0.475 -0.2567  0.7898  0.2173
  443MOL0     O59678   1.800   7.027   0.509  0.1242  0.1626  0.2832
  443MOL0     C59679   1.723   6.926   0.569 -0.1371  1.0084 -0.9045
  443MOL0     C59680   1.579   6.964   0.605 -0.2469  0.0545  0.0315
  443MOL0     C59681   1.531   7.070   0.506 -0.7499  0.6241  0.2561
  443MOL0     C59682   1.371   7.097   0.516  0.3517 -0.3896 -0.4257
  443MOL0     C59683   1.332   7.205   0.413  0.1221 -0.7427 -0.3398
  443MOL0     C59684   1.182   7.238   0.435  0.0543 -0.0314  0.0501
  443MOL0     C59685   1.130   7.350   0.352 -0.4163  0.1619 -0.3393
  443MOL0     C59686   1.131   7.479   0.429 -0.3200 -0.0874  0.2639
  443MOL0     N59687   1.264   7.515   0.484  0.2664 -0.8315 -0.2024
  443MOL0     C59688   1.334   7.479   0.595  0.7354  0.1037 -0.6451
  443MOL0     C59689   1.462   7.539   0.582  0.4679  0.7209  0.7688
  443MOL0     C59690   1.581   7.540   0.681  0.3449  0.0834  0.5717
  443MOL0     C59691   1.567   7.499   0.824  1.2082  0.4660  0.7479
  443MOL0     C59692   1.554   7.343   0.844 -0.2060 -0.2289  0.3835
  443MOL0     C59693   1.517   7.308   0.979  0.1049 -0.0564  0.7772
  443MOL0     O59694   1.382   7.360   1.014  0.3498 -0.2470 -0.5002
  443MOL0     C59695   1.270   7.289   0.995  0.7714 -0.5957  0.7143
  443MOL0     C59696   1.271   7.156   0.949  0.2058  0.0784  0.5332
  443MOL0     C59697   1.151   7.091   0.922  0.6694  0.2847 -0.0841
  443MOL0     C59698   1.170   6.941   0.894  0.3722 -0.9172  0.0583
  443MOL0     C59699   1.025   7.155   0.917 -0.0585  0.4425 -0.0699
  443MOL0     C59700   0.886   7.091   0.883  0.3597 -0.6281 -1.0542
  443MOL0     O59701   0.769   7.155   0.924 -0.7336 -0.4328 -0.8061
  443MOL0     C59702   0.653   7.147   0.852 -0.9617  0.4191  0.5438
  443MOL0     C59703   0.586   7.027   0.868  0.4143 -0.1086  0.4115
  443MOL0     C59704   0.466   6.998   0.808 -0.0010  0.0950 -0.0474
  443MOL0     C59705   0.397   7.103   0.737  0.4204  0.4441 -0.5823
  443MOL0     O59706   0.277   7.084   0.674  0.6072  0.0705 -0.6561
  443MOL0     C59707   0.242   6.955   0.628 -0.9900  0.5829  0.4363
  443MOL0     C59708   0.115   6.964   0.558 -0.2143 -0.2564 -0.3114
  443MOL0     C59709   0.049   6.825   0.565 -0.5350  0.2969 -0.1035
  443MOL0     C59710  -0.091   6.832   0.497 -0.7396  0.6142 -0.6042
  443MOL0     C59711  -0.142   6.692   0.498  0.0058 -0.7948  0.0348
  443MOL0     C59712  -0.277   6.682   0.409  0.1537  0.3534  0.4985
  443MOL0     C59713  -0.355   6.550   0.443 -0.3757  0.7757 -0.4618
  443MOL0     C59714  -0.476   6.547   0.348 -0.7906 -0.3791  0.2101
  443MOL0    Cl59715  -0.595   6.436   0.413 -0.1231  0.0571  0.1197
  443MOL0     C59716   0.457   7.232   0.731  0.2320  0.7985  0.2479
  443MOL0     C59717   0.582   7.254   0.788  0.0713  0.8175  0.6268
  443MOL0     O59718   0.882   6.987   0.821  0.5450  0.6220 -0.3673
  443MOL0     C59719   1.027   7.283   0.982  0.5141 -0.6146 -0.3045
  443MOL0     C59720   1.146   7.348   1.012 -0.8262  0.0180  0.4369
  443MOL0     N59721   1.452   7.611   0.463  0.1216 -0.0220  0.1285
  443MOL0     N59722   1.343   7.589   0.404  0.3559 -0.9575 -0.5842
  443MOL0     C59723   2.019   6.920   0.538 -0.4436 -0.1035  0.4554
  443MOL0     C59724   2.146   6.903   0.479  0.3691  0.6444 -0.6886
  443MOL0     C59725   2.493   6.837   0.203 -0.2705  0.5449  0.2743
  443MOL0     C59726   2.563   6.950   0.170 -0.5858  0.3290  0.5395
  443MOL0     C59727   2.681   6.948   0.100  0.5586  0.1515 -1.0613
  443MOL0     C59728   2.738   6.834   0.062 -0.3176  1.3006  0.8302
  443MOL0     O59729   2.858   6.833  -0.006  0.4520  0.4047 -0.4137
  443MOL0     C59730   2.947   6.717   0.002  0.6718  0.3887 -0.6352
  443MOL0     C59731   3.082   6.783   0.033 -1.0663  0.7750 -0.2218
  443MOL0     C59732   3.138   6.774   0.175 -0.1143 -0.3977  0.0302
  443MOL0     C59733   3.208   6.910   0.223  0.1446  0.1323  0.1535
  443MOL0     C59734   3.259   6.868   0.353 -0.5421 -0.7476  0.4890
  443MOL0     C59735   3.318   6.845   0.461  0.9576  0.5419  0.2864
  443MOL0     C59736   2.673   6.715   0.107 -0.1051  0.3811  0.6778
  443MOL0     C59737   2.559   6.719   0.175 -0.3982  0.1467 -0.1867
  443MOL0     H59738   2.095   7.086   0.197 -0.8110  0.5124 -0.6821
  443MOL0     H59739   1.876   7.128   0.317 -0.4268 -1.4774 -2.2461
  443MOL0     H59740   1.727   6.841   0.500  3.6079 -3.0648  3.5674
  443MOL0     H59741   1.774   6.886   0.657 -0.2605 -1.0208 -1.7051
  443MOL0     H59742   1.524   6.873   0.581 -0.9702  0.1704  1.1862
  443MOL0     H59743   1.570   6.992   0.710  0.6858 -4.1776  1.4070
  443MOL0     H59744   1.569   7.168   0.534 -1.9261  1.9941 -2.4990
  443MOL0     H59745   1.557   7.044   0.403 -1.0540  0.7926  0.1344
  443MOL0     H59746   1.307   7.010   0.497 -1.6960  1.1436 -0.7741
  443MOL0     H59747   1.362   7.142   0.616 -0.3684 -0.8569 -0.2712
  443MOL0     H59748   1.395   7.294   0.428  0.8793 -1.3773  0.3788
  443MOL0     H59749   1.346   7.169   0.311  0.7919 -0.6285 -0.2941
  443MOL0     H59750   1.112   7.157   0.412 -1.1984  0.9372  0.3757
  443MOL0     H59751   1.180   7.259   0.542  1.9430 -0.2660  0.1730
  443MOL0     H59752   1.188   7.347   0.259  1.1682  1.2296  0.5711
  443MOL0     H59753   1.026   7.334   0.322 -0.4557 -0.8761  0.3195
  443MOL0     H59754   1.065   7.469   0.515  0.1983  2.6147  1.0548
  443MOL0     H59755   1.094   7.565   0.372 -0.3765  0.3294  0.9172
  443MOL0     H59756   1.302   7.430   0.686 -0.4712  1.6992 -0.1528
  443MOL0     H59757   1.661   7.475   0.644  0.5259 -0.0414  1.1808
  443MOL0     H59758   1.622   7.642   0.678  2.9214 -0.8714  0.7661
  443MOL0     H59759   1.471   7.537   0.859  0.4868 -0.2449 -0.3873
  443MOL0     H59760   1.651   7.533   0.886  2.0738 -0.1171 -0.0858
  443MOL0     H59761   1.646   7.303   0.801  1.4326  3.0744  0.4543
  443MOL0     H59762   1.469   7.312   0.783 -1.1972  2.4053  0.2711
  443MOL0     H59763   1.595   7.357   1.040 -0.9571  0.9205  1.3955
  443MOL0     H59764   1.522   7.200   0.991 -0.7982 -0.0859  0.9717
  443MOL0     H59765   1.361   7.100   0.927  0.3593  0.5896 -0.1680
  443MOL0     H59766   1.270   6.914   0.930  0.6582 -0.2108 -0.1865
  443MOL0     H59767   1.088   6.892   0.947  1.3301  0.1588  2.7389
  443MOL0     H59768   1.157   6.929   0.787 -1.8957  2.0997 -0.1440
  443MOL0     H59769   0.638   6.949   0.922 -0.2028 -0.2949  0.7395
  443MOL0     H59770   0.425   6.897   0.812 -1.9140  0.8257  3.7053
  443MOL0     H59771   0.314   6.904   0.564 -0.7204  1.1043  0.3161
  443MOL0     H59772   0.233   6.906   0.725  1.0731 -0.6606  0.0745
  443MOL0     H59773   0.051   7.032   0.614 -0.2015 -1.7988  1.6812
  443MOL0     H59774   0.124   6.991   0.452 -0.3603 -2.0374 -0.8168
  443MOL0     H59775   0.027   6.791   0.666 -5.0947 -2.4960 -1.7405
  443MOL0     H59776   0.120   6.759   0.514  0.8592  1.2290  0.5552
  443MOL0     H59777  -0.154   6.904   0.550  0.4029  2.7141 -1.9409
  443MOL0     H59778  -0.076   6.870   0.395  1.0983  1.3841 -0.0795
  443MOL0     H59779  -0.166   6.684   0.605  1.3348  2.2134  0.6489
  443MOL0     H59780  -0.068   6.621   0.462  2.1660  0.9089  0.9086
  443MOL0     H59781  -0.336   6.765   0.449 -0.1513  0.4284 -0.0944
  443MOL0     H59782  -0.263   6.697   0.302  1.5934 -1.0395  0.4607
  443MOL0     H59783  -0.384   6.551   0.548  0.4022  3.5816 -0.1967
  443MOL0     H59784  -0.285   6.471   0.415 -1.5090 -0.4847  0.1695
  443MOL0     H59785  -0.456   6.506   0.249  0.2070 -3.8786  1.7249
  443MOL0     H59786  -0.524   6.646   0.348 -1.6515 -0.7671 -1.2490
  443MOL0     H59787   0.415   7.311   0.670  0.9986 -1.5909 -3.7224
  443MOL0     H59788   0.634   7.347   0.769 -1.6669  1.4504 -1.4744
  443MOL0     H59789   0.931   7.330   1.000  1.5812  1.1653  1.1433
  443MOL0     H59790   1.129   7.443   1.062 -0.4747 -0.7513  2.1077
  443MOL0     H59791   1.991   6.869   0.629  0.6480 -2.4339 -0.4383
  443MOL0     H59792   2.223   6.842   0.526  0.0693  0.6680 -0.1566
  443MOL0     H59793   2.518   7.047   0.187 -0.3944  0.1007  2.6300
  443MOL0     H59794   2.718   7.049   0.083  0.2138  0.1870 -1.6543
  443MOL0     H59795   2.926   6.637   0.074  3.2408  0.5911  0.4156
  443MOL0     H59796   2.934   6.667  -0.094  1.5586  0.0539 -0.5817
  443MOL0     H59797   3.095   6.880  -0.017  0.2793 -0.1104 -1.7036
  443MOL0     H59798   3.149   6.718  -0.024 -0.8774  0.7252  0.0577
  443MOL0     H59799   3.217   6.699   0.178  0.3502  0.1009  2.0495
  443MOL0     H59800   3.062   6.756   0.251 -0.5067  1.5072  0.1442
  443MOL0     H59801   3.145   6.998   0.237  1.9920  1.3206  1.4185
  443MOL0     H59802   3.293   6.937   0.160  0.1419 -2.6367 -1.1842
  443MOL0     H59803   3.372   6.831   0.552  1.6108  3.4957  0.4603
  443MOL0     H59804   2.710   6.622   0.065  4.3947  1.9050  0.7268
  443MOL0     H59805   2.507   6.625   0.192  0.5249 -0.3713 -0.1298
  444MOL0     O59806  11.063   4.427  10.477  0.2067 -0.0887 -0.1971
  444MOL0     C59807  11.139   4.432  10.568 -0.1603 -0.5528 -0.0731
  444MOL0     O59808  11.118   4.507  10.688  0.4061 -0.2705  0.7615
  444MOL0     C59809  10.987   4.558  10.706  0.0323 -0.6051  1.4260
  444MOL0     C59810  10.945   4.685  10.652  0.3063 -0.2327  0.1099
  444MOL0     C59811  10.822   4.731  10.677 -0.3040 -0.2788 -0.3154
  444MOL0     C59812  10.739   4.661  10.759  0.2312  0.0377  0.4468
  444MOL0     O59813  10.618   4.705  10.783  0.1483 -0.1122 -0.5437
  444MOL0     C59814  10.521   4.713  10.671 -0.3565  0.3196 -0.1969
  444MOL0     C59815  10.383   4.742  10.727  0.2626 -0.3444 -0.2893
  444MOL0     C59816  10.283   4.734  10.608 -0.0264 -0.1694  1.1326
  444MOL0     C59817  10.149   4.791  10.634  0.8556  1.0339 -0.3946
  444MOL0     C59818  10.056   4.717  10.726  0.0454 -0.7791  0.1265
  444MOL0     C59819   9.936   4.809  10.752  0.4905  0.1077 -0.2678
  444MOL0     C59820   9.816   4.751  10.829  0.4678 -0.0593 -0.3419
  444MOL0     C59821   9.846   4.726  10.981  0.7496  0.1345  0.3172
  444MOL0     N59822   9.824   4.846  11.057  0.1425 -0.3083  0.5863
  444MOL0     C59823   9.718   4.889  11.141 -0.3756  0.1254  0.5705
  444MOL0     C59824   9.750   5.012  11.190 -0.0253  0.3661 -0.4165
  444MOL0     C59825   9.669   5.104  11.279 -0.3471  0.0246  0.2475
  444MOL0     C59826   9.574   5.205  11.212  0.5932 -0.2049 -0.0804
  444MOL0     C59827   9.441   5.165  11.142  0.3925  0.3445  0.4724
  444MOL0     C59828   9.326   5.198  11.230  0.1914  0.2991 -0.7347
  444MOL0     O59829   9.343   5.144  11.356  0.5812 -0.0349  0.0881
  444MOL0     C59830   9.221   5.104  11.418 -0.7988  0.2743 -0.1546
  444MOL0     C59831   9.215   4.976  11.479 -0.4717  0.1481 -0.4058
  444MOL0     C59832   9.109   4.937  11.564 -1.3024 -0.1299 -0.4166
  444MOL0     C59833   9.130   4.793  11.618  0.3055 -0.3555  0.3411
  444MOL0     C59834   9.004   5.027  11.601 -0.1657 -0.3531 -0.6915
  444MOL0     C59835   8.887   5.004  11.691 -0.2576 -0.0115  1.0169
  444MOL0     O59836   8.877   4.884  11.758  0.3774 -0.4099  0.5272
  444MOL0     C59837   8.767   4.871  11.844  0.0669  0.2610 -0.1799
  444MOL0     C59838   8.663   4.778  11.814 -0.3463 -0.1057 -0.2095
  444MOL0     C59839   8.558   4.767  11.899 -0.7510 -0.6497  0.1624
  444MOL0     C59840   8.554   4.844  12.015 -0.6032 -0.0845  0.4102
  444MOL0     O59841   8.449   4.820  12.095  0.3773 -0.5053  0.2403
  444MOL0     C59842   8.496   4.737  12.207  0.3991  0.3413 -0.4500
  444MOL0     C59843   8.440   4.584  12.190 -0.4126 -0.7809 -0.3213
  444MOL0     C59844   8.299   4.560  12.233  0.7270  0.0839 -0.7179
  444MOL0     C59845   8.248   4.622  12.363 -0.5310 -0.0127  0.3018
  444MOL0     C59846   8.102   4.644  12.360  0.1945 -0.2229  0.3896
  444MOL0     C59847   8.054   4.746  12.466 -0.5863 -0.5708 -0.6246
  444MOL0     C59848   7.909   4.754  12.497 -0.2572 -0.1570 -1.1818
  444MOL0     C59849   7.863   4.883  12.571  0.5968  0.2751 -0.1488
  444MOL0    Cl59850   7.909   4.891  12.752 -0.2580  0.0073 -0.0607
  444MOL0     C59851   8.656   4.932  12.039  0.2368  0.2842  0.0750
  444MOL0     C59852   8.760   4.950  11.960  1.1108  0.2182  0.3727
  444MOL0     O59853   8.812   5.094  11.707 -0.0594  0.3648  0.3111
  444MOL0     C59854   9.006   5.144  11.525 -0.2762  0.1764  0.3232
  444MOL0     C59855   9.113   5.189  11.438 -0.1604 -0.5626  0.2378
  444MOL0     N59856   9.871   5.035  11.128  0.2982 -0.9277 -0.5766
  444MOL0     N59857   9.916   4.950  11.050 -0.0031  0.0975  0.0634
  444MOL0     C59858  10.778   4.540  10.811  0.3601  0.2284  0.2724
  444MOL0     C59859  10.906   4.488  10.785  0.4038 -0.5261  0.2690
  444MOL0     C59860  11.262   4.349  10.572 -0.3025 -0.2083  0.2392
  444MOL0     C59861  11.314   4.310  10.450 -0.9395 -0.1792 -0.8915
  444MOL0     C59862  11.442   4.248  10.453  0.3639  0.2539  0.6550
  444MOL0     C59863  11.509   4.200  10.572 -0.8736  1.1125 -0.3949
  444MOL0     O59864  11.621   4.119  10.574 -0.6651  0.0867  0.1854
  444MOL0     C59865  11.700   4.120  10.458 -0.2687 -0.8145  0.0930
  444MOL0     C59866  11.835   4.055  10.494  0.2250  0.3028 -0.2501
  444MOL0     C59867  11.838   3.912  10.549 -0.0147  0.2875  1.0022
  444MOL0     C59868  11.859   3.802  10.444  0.3873 -0.0836  0.7490
  444MOL0     C59869  11.896   3.669  10.507  0.3078 -0.2839 -0.2374
  444MOL0     C59870  11.935   3.554  10.547  0.4521  0.4335  0.0060
  444MOL0     C59871  11.444   4.229  10.694  0.6666  0.4904 -0.3123
  444MOL0     C59872  11.321   4.302  10.689 -0.5068  0.1517  0.3914
  444MOL0     H59873  11.012   4.757  10.606  0.1121 -1.0340 -1.4643
  444MOL0     H59874  10.802   4.831  10.638  0.5045 -1.0217 -2.8146
  444MOL0     H59875  10.546   4.801  10.611 -2.5118  2.9831  2.5108
  444MOL0     H59876  10.518   4.628  10.602 -0.7436 -0.1159  0.3457
  444MOL0     H59877  10.356   4.677  10.810 -1.9888  1.4836  0.5207
  444MOL0     H59878  10.380   4.841  10.774 -0.0217 -0.9342  0.9864
  444MOL0     H59879  10.332   4.781  10.523 -1.0431 -0.0961  0.5857
  444MOL0     H59880  10.265   4.629  10.585 -0.2464  0.3688 -1.4114
  444MOL0     H59881  10.157   4.893  10.672  0.4723  0.7395  0.4992
  444MOL0     H59882  10.094   4.799  10.540  1.8457 -0.3775 -1.1272
  444MOL0     H59883  10.036   4.620  10.679  2.0909 -0.8069 -0.7984
  444MOL0     H59884  10.102   4.699  10.824  0.2661  1.2174  0.4315
  444MOL0     H59885   9.973   4.902  10.797  3.7900 -0.5707 -1.3321
  444MOL0     H59886   9.896   4.833  10.653  1.4595  1.1625 -0.4280
  444MOL0     H59887   9.738   4.827  10.825 -0.0006 -0.4592  0.7753
  444MOL0     H59888   9.783   4.652  10.796  1.2062 -1.4664  2.7998
  444MOL0     H59889   9.947   4.689  10.996  1.6636  2.7451  1.0931
  444MOL0     H59890   9.769   4.657  11.015 -0.1682  0.7150 -0.5064
  444MOL0     H59891   9.622   4.841  11.154 -0.5833  0.9301  2.3636
  444MOL0     H59892   9.604   5.054  11.352  0.6101 -1.7855 -0.0870
  444MOL0     H59893   9.747   5.152  11.339 -1.3769  1.0563  0.8273
  444MOL0     H59894   9.640   5.248  11.137  1.5987  0.1606  0.9793
  444MOL0     H59895   9.551   5.290  11.277 -0.8036  1.3118 -2.4296
  444MOL0     H59896   9.444   5.060  11.111  2.8412  0.4226  0.2730
  444MOL0     H59897   9.419   5.228  11.055 -0.6986  1.4893  1.5374
  444MOL0     H59898   9.241   5.160  11.173  0.3761  1.1749 -1.6240
  444MOL0     H59899   9.300   5.304  11.230  1.2842  0.6576  2.0398
  444MOL0     H59900   9.301   4.917  11.450 -2.6961 -2.4226 -2.4095
  444MOL0     H59901   9.192   4.783  11.707  2.3015  1.2410 -0.7718
  444MOL0     H59902   9.031   4.747  11.627  0.4400 -0.2882  2.9441
  444MOL0     H59903   9.190   4.734  11.548  4.5810  0.2256  3.1826
  444MOL0     H59904   8.673   4.723  11.721  0.0487  2.4874 -1.8169
  444MOL0     H59905   8.481   4.695  11.873  0.5482 -1.1480 -2.6681
  444MOL0     H59906   8.603   4.721  12.218  0.1372 -3.9818 -2.1005
  444MOL0     H59907   8.457   4.783  12.298 -1.0374  3.1047 -2.2986
  444MOL0     H59908   8.453   4.557  12.084  1.2235 -0.4032 -0.2474
  444MOL0     H59909   8.508   4.525  12.252 -0.0428  0.3621  0.3850
  444MOL0     H59910   8.288   4.452  12.245 -0.0831  0.2029 -0.3863
  444MOL0     H59911   8.231   4.572  12.149 -3.6147 -0.4459  2.4032
  444MOL0     H59912   8.269   4.554  12.446 -0.4696  1.6528  1.7202
  444MOL0     H59913   8.291   4.723  12.371  3.6636 -1.3332 -2.3372
  444MOL0     H59914   8.047   4.550  12.372  1.9079 -1.2443  0.5540
  444MOL0     H59915   8.082   4.682  12.259  1.2840 -0.2608  0.1496
  444MOL0     H59916   8.127   4.742  12.547 -1.0284 -0.7406 -0.2304
  444MOL0     H59917   8.086   4.842  12.425  0.3703 -1.2133 -1.4318
  444MOL0     H59918   7.873   4.662  12.544 -0.7510 -0.5384 -2.2846
  444MOL0     H59919   7.859   4.749  12.400 -2.3946  2.7588 -0.3640
  444MOL0     H59920   7.755   4.894  12.572  0.6458  1.1955 -1.9959
  444MOL0     H59921   7.891   4.977  12.523  0.3077 -0.1398 -1.1591
  444MOL0     H59922   8.659   4.996  12.127  0.3720  0.2330  0.1070
  444MOL0     H59923   8.845   5.015  11.979  0.7484  0.7138  0.3191
  444MOL0     H59924   8.933   5.225  11.534 -1.4272 -1.0054  2.4440
  444MOL0     H59925   9.109   5.288  11.392 -0.4978 -1.5416 -1.9905
  444MOL0     H59926  10.714   4.464  10.856  0.7794  0.3994  1.1753
  444MOL0     H59927  10.939   4.389  10.817  0.7858 -0.6692 -0.5345
  444MOL0     H59928  11.268   4.354  10.362 -1.5886  0.5272 -0.2055
  444MOL0     H59929  11.475   4.230  10.351 -0.3138  2.9131 -0.1007
  444MOL0     H59930  11.659   4.061  10.375  3.2096 -0.5104 -2.0293
  444MOL0     H59931  11.709   4.224  10.428 -3.3076 -0.4585  0.1175
  444MOL0     H59932  11.881   4.121  10.568  0.4424  0.0673 -0.1750
  444MOL0     H59933  11.905   4.043  10.410  1.0565 -4.9838  0.8938
  444MOL0     H59934  11.753   3.877  10.608 -0.2411 -0.0474  0.4844
  444MOL0     H59935  11.932   3.908  10.606  1.7270 -0.8609 -1.7529
  444MOL0     H59936  11.937   3.841  10.377  0.5707  2.1056  2.1129
  444MOL0     H59937  11.762   3.793  10.394  1.3043 -1.6271 -0.8629
  444MOL0     H59938  11.974   3.462  10.586  0.4256  0.5007  0.1924
  444MOL0     H59939  11.487   4.181  10.781  3.5255  1.1692 -1.2418
  444MOL0     H59940  11.272   4.314  10.785 -1.4793 -1.1060  0.0916
  445MOL0     O59941  10.161   7.613   9.572  0.1203 -0.5230 -0.4827
  445MOL0     C59942  10.175   7.604   9.695  0.5931  0.2715 -0.2025
  445MOL0     O59943  10.091   7.535   9.779 -0.3603 -0.0936 -0.9577
  445MOL0     C59944   9.994   7.449   9.732 -0.1968  0.5710  0.2048
  445MOL0     C59945   9.874   7.494   9.682 -0.1068  0.2719  1.0255
  445MOL0     C59946   9.777   7.405   9.642 -0.4557 -0.4079 -0.8300
  445MOL0     C59947   9.803   7.266   9.651 -0.4153 -0.2204  0.4213
  445MOL0     O59948   9.706   7.183   9.604 -0.2082 -0.4345  0.3660
  445MOL0     C59949   9.705   7.044   9.601  0.1348  0.6577 -0.1950
  445MOL0     C59950   9.589   7.009   9.511 -0.6766 -0.6109 -0.1942
  445MOL0     C59951   9.594   7.068   9.367  0.2240 -0.3283 -0.2988
  445MOL0     C59952   9.468   7.052   9.296  0.0894  0.3638 -0.4329
  445MOL0     C59953   9.493   7.106   9.150 -0.9630  0.1282  0.8901
  445MOL0     C59954   9.549   7.003   9.055 -0.7492 -0.4450  0.6182
  445MOL0     C59955   9.437   6.916   8.995  0.0572 -0.1736 -0.0528
  445MOL0     C59956   9.480   6.792   8.927  0.4428 -0.1965  0.6614
  445MOL0     N59957   9.369   6.727   8.862 -0.7115  0.6624 -0.5767
  445MOL0     C59958   9.251   6.683   8.917  0.0740  0.3852  0.7313
  445MOL0     C59959   9.176   6.631   8.813 -0.3713 -0.1922 -0.7164
  445MOL0     C59960   9.037   6.572   8.832  0.2827  0.0251  0.2260
  445MOL0     C59961   8.956   6.570   8.698 -0.0814 -0.0454  0.7943
  445MOL0     C59962   8.838   6.474   8.715 -0.5886  0.6395 -0.2826
  445MOL0     C59963   8.735   6.520   8.811 -0.2178 -0.5199  0.0724
  445MOL0     O59964   8.658   6.633   8.758 -0.2063 -0.2372  0.2841
  445MOL0     C59965   8.573   6.692   8.842  0.0229  0.6498 -0.7892
  445MOL0     C59966   8.513   6.796   8.776  0.4309 -0.5111 -0.7461
  445MOL0     C59967   8.405   6.869   8.821 -0.0327 -0.2184  0.3990
  445MOL0     C59968   8.339   6.974   8.735  0.2085 -0.3747  0.6742
  445MOL0     C59969   8.350   6.842   8.948 -0.1035  0.5792 -1.1820
  445MOL0     C59970   8.214   6.891   9.001 -0.7690 -0.3019  0.1905
  445MOL0     O59971   8.182   6.865   9.134 -0.1736 -0.0340  0.5205
  445MOL0     C59972   8.050   6.886   9.175 -1.0063 -0.6335 -0.4007
  445MOL0     C59973   7.986   6.772   9.191  0.6977  0.3329 -0.4456
  445MOL0     C59974   7.851   6.769   9.226 -0.4397 -0.3054  0.2075
  445MOL0     C59975   7.776   6.887   9.209 -0.1096  0.2811 -0.1647
  445MOL0     O59976   7.634   6.885   9.232 -0.4019 -0.1464  0.1459
  445MOL0     C59977   7.532   6.962   9.169  0.5576 -0.1848 -0.9050
  445MOL0     C59978   7.393   6.916   9.225  0.2774  1.0205 -1.0662
  445MOL0     C59979   7.272   6.997   9.168 -0.2758 -1.2530  0.4958
  445MOL0     C59980   7.251   7.131   9.258 -0.3853 -0.4958  0.1579
  445MOL0     C59981   7.131   7.206   9.207 -0.6076 -0.0198  0.1004
  445MOL0     C59982   7.004   7.142   9.239 -0.5101 -0.2265  0.3113
  445MOL0     C59983   6.888   7.234   9.275 -0.1820 -0.0296  0.0845
  445MOL0     C59984   6.757   7.157   9.251 -0.1667  0.7182  0.1697
  445MOL0    Cl59985   6.627   7.251   9.324  0.2239  0.5122  0.2187
  445MOL0     C59986   7.847   7.006   9.187  0.0682  0.6884  0.0062
  445MOL0     C59987   7.986   7.012   9.176 -0.7684  0.2054 -0.4162
  445MOL0     O59988   8.137   6.943   8.919 -0.4417 -0.3004  0.1904
  445MOL0     C59989   8.406   6.738   9.017 -0.1764  0.6398  0.0386
  445MOL0     C59990   8.518   6.667   8.965 -0.7756 -0.9382  0.0563
  445MOL0     N59991   9.252   6.640   8.699 -0.1634 -0.3708  0.0404
  445MOL0     N59992   9.360   6.710   8.728  0.0918 -0.1147  0.1790
  445MOL0     C59993   9.923   7.225   9.698 -0.4627  0.2433 -0.7058
  445MOL0     C59994  10.023   7.311   9.741 -0.3860  0.1757 -0.1694
  445MOL0     C59995  10.299   7.667   9.757 -0.1000 -0.2251 -0.5092
  445MOL0     C59996  10.326   7.657   9.900 -0.2001  0.0161 -0.2035
  445MOL0     C59997  10.441   7.709   9.956 -0.1361 -0.2426  0.7008
  445MOL0     C59998  10.522   7.789   9.881 -0.6399  0.3061  0.1049
  445MOL0     O59999  10.630   7.850   9.934 -0.3256  0.2637  0.0185
  445MOL0     C60000  10.691   7.796  10.059  0.0562 -0.6320 -0.5637
  445MOL0     C60001  10.792   7.901  10.116  0.0166 -0.0621  0.0260
  445MOL0     C60002  10.729   8.040  10.155  0.0485 -0.3586  0.9009
  445MOL0     C60003  10.823   8.133  10.239  0.5967  0.8028 -0.2973
  445MOL0     C60004  10.783   8.272  10.242  0.1845  0.0319 -0.3867
  445MOL0     C60005  10.742   8.383  10.212 -0.5609  0.6992  0.3041
  445MOL0     C60006  10.488   7.814   9.745  0.3932  0.6173  0.1970
  445MOL0     C60007  10.379   7.749   9.682  0.3290  0.5487  0.1519
  445MOL0     H60008   9.862   7.601   9.668 -0.1181  0.2223  0.6476
  445MOL0     H60009   9.686   7.442   9.596  1.1406  2.4288 -1.8898
  445MOL0     H60010   9.787   6.995   9.549 -0.6041 -1.7263  0.7500
  445MOL0     H60011   9.689   6.999   9.700 -0.8097 -2.5529 -1.7020
  445MOL0     H60012   9.570   6.902   9.513 -3.2010 -0.2294  1.6458
  445MOL0     H60013   9.500   7.053   9.558  0.1559 -1.2843  2.1870
  445MOL0     H60014   9.634   7.169   9.357  3.0209 -1.3435 -0.0795
  445MOL0     H60015   9.666   7.015   9.305 -0.3008 -0.3058 -0.9402
  445MOL0     H60016   9.444   6.946   9.291 -0.0616  0.4138 -0.8198
  445MOL0     H60017   9.390   7.106   9.351  2.1373  1.5465  1.4818
  445MOL0     H60018   9.393   7.141   9.119 -2.8899 -2.6536  3.3854
  445MOL0     H60019   9.574   7.179   9.155  1.9702 -2.7631 -0.4233
  445MOL0     H60020   9.606   7.046   8.973  2.2538  2.2810  3.8527
  445MOL0     H60021   9.616   6.942   9.116  1.8750  0.5605 -1.1020
  445MOL0     H60022   9.378   6.880   9.080 -1.1393  1.2446 -0.2422
  445MOL0     H60023   9.368   6.976   8.935 -0.0710  1.3456  1.5071
  445MOL0     H60024   9.536   6.722   8.989  0.4064 -1.4071 -0.6266
  445MOL0     H60025   9.544   6.830   8.847 -0.7171 -0.0008 -0.2136
  445MOL0     H60026   9.208   6.694   9.016 -0.6495  1.1738  0.3387
  445MOL0     H60027   9.034   6.475   8.883 -2.9803 -0.8116 -1.2472
  445MOL0     H60028   8.975   6.632   8.900 -2.4428 -1.4370 -0.7927
  445MOL0     H60029   9.019   6.530   8.618 -0.8919  0.6641 -0.2192
  445MOL0     H60030   8.923   6.671   8.674 -2.2812 -0.3401  2.2401
  445MOL0     H60031   8.884   6.383   8.753  0.0155  1.8920  2.1848
  445MOL0     H60032   8.788   6.459   8.619 -1.0042 -4.7222  0.4476
  445MOL0     H60033   8.793   6.548   8.899  3.5014 -4.4491 -0.7377
  445MOL0     H60034   8.659   6.444   8.832 -1.5123  1.5168  3.4305
  445MOL0     H60035   8.530   6.825   8.672 -0.5886  3.2533 -0.0360
  445MOL0     H60036   8.341   7.069   8.789  1.9201  0.5840 -0.9327
  445MOL0     H60037   8.386   6.996   8.638 -2.1915  1.5360 -0.1626
  445MOL0     H60038   8.237   6.949   8.704 -0.8234 -1.0158  4.1447
  445MOL0     H60039   8.048   6.684   9.179  1.1685  0.5909  0.0135
  445MOL0     H60040   7.795   6.679   9.245  1.0901 -1.6368 -1.2299
  445MOL0     H60041   7.554   7.066   9.197 -1.2461 -0.4958  2.1973
  445MOL0     H60042   7.546   6.956   9.061  2.1125  0.7806 -0.7914
  445MOL0     H60043   7.375   6.813   9.193  0.7813  0.1309  1.3083
  445MOL0     H60044   7.405   6.923   9.333  0.3834 -1.5151 -0.8446
  445MOL0     H60045   7.180   6.938   9.178 -0.5782 -1.0668 -0.8788
  445MOL0     H60046   7.267   7.018   9.060 -2.4801 -2.1019  0.3756
  445MOL0     H60047   7.247   7.106   9.365 -1.0690 -2.3189 -0.2438
  445MOL0     H60048   7.335   7.201   9.258  0.1517 -1.1008  1.2924
  445MOL0     H60049   7.143   7.209   9.098 -1.8193 -1.3733 -0.1029
  445MOL0     H60050   7.133   7.304   9.255  0.3115 -0.2317  0.5168
  445MOL0     H60051   6.962   7.089   9.153  1.1046  1.5530 -1.6767
  445MOL0     H60052   7.017   7.065   9.316  0.3404  0.6214  1.0521
  445MOL0     H60053   6.885   7.322   9.211 -1.1615 -0.4523 -0.4679
  445MOL0     H60054   6.909   7.260   9.379  0.2820 -1.3581  0.3455
  445MOL0     H60055   6.759   7.059   9.301  0.1010  0.3103 -0.6332
  445MOL0     H60056   6.741   7.151   9.143 -3.0233 -0.3200  0.5477
  445MOL0     H60057   7.794   7.098   9.168  0.6536  1.2107  0.8042
  445MOL0     H60058   8.044   7.103   9.168 -0.2927  0.1738  1.9524
  445MOL0     H60059   8.367   6.706   9.114 -0.3562  0.6304 -0.0369
  445MOL0     H60060   8.556   6.585   9.026  1.9725  0.7147  0.7342
  445MOL0     H60061   9.925   7.118   9.713  3.5316  0.1661 -0.8520
  445MOL0     H60062  10.118   7.287   9.788 -1.9018 -1.6613  2.1995
  445MOL0     H60063  10.256   7.606   9.966  0.7556  0.5128  1.2416
  445MOL0     H60064  10.458   7.698  10.062 -0.7334  4.3773  1.4947
  445MOL0     H60065  10.601   7.803  10.120 -2.0658 -0.3664 -3.4768
  445MOL0     H60066  10.727   7.693  10.057 -4.3293 -2.4241  1.2741
  445MOL0     H60067  10.863   7.930  10.038 -0.4590  1.0150 -0.0268
  445MOL0     H60068  10.848   7.873  10.205 -2.2051 -0.8155  1.2828
  445MOL0     H60069  10.641   8.026  10.218 -0.2978  0.6694  0.6490
  445MOL0     H60070  10.706   8.098  10.066  0.4661  1.8373  2.1524
  445MOL0     H60071  10.928   8.131  10.209  1.4547 -1.1759  2.4583
  445MOL0     H60072  10.821   8.095  10.341 -0.2361  3.1872  0.6458
  445MOL0     H60073  10.712   8.484  10.191 -2.4111 -0.0771 -1.1476
  445MOL0     H60074  10.541   7.885   9.683  0.0207 -0.4626 -1.4296
  445MOL0     H60075  10.359   7.763   9.576 -2.6414 -0.4622  0.4860
  446MOL0     O60076   6.627   2.197  10.538 -0.0540 -0.3402  1.1388
  446MOL0     C60077   6.595   2.247  10.425  0.2357 -0.0696  0.3314
  446MOL0     O60078   6.685   2.279  10.320 -0.2498 -0.0525 -0.7745
  446MOL0     C60079   6.815   2.237  10.332  0.0875  0.5109  0.4457
  446MOL0     C60080   6.917   2.325  10.370  0.5534  0.0180  0.1756
  446MOL0     C60081   7.044   2.266  10.390 -0.0631 -0.6818 -0.3248
  446MOL0     C60082   7.081   2.137  10.370  0.9563  0.1876 -0.8210
  446MOL0     O60083   7.213   2.102  10.357 -0.0955  0.2007 -0.2146
  446MOL0     C60084   7.250   1.999  10.448  0.1911  0.1371 -0.8394
  446MOL0     C60085   7.389   1.945  10.424 -0.8501  0.7152  0.2417
  446MOL0     C60086   7.414   1.852  10.308  0.2009 -0.5004 -0.6592
  446MOL0     C60087   7.402   1.904  10.167  0.2045 -0.7406 -0.0574
  446MOL0     C60088   7.407   1.795  10.055 -0.7830  0.5984  0.3948
  446MOL0     C60089   7.300   1.678  10.082 -1.1037 -0.2161  0.1923
  446MOL0     C60090   7.278   1.579   9.962 -0.4953  0.7784 -0.2300
  446MOL0     C60091   7.200   1.461  10.026 -0.3885 -0.5415 -0.1430
  446MOL0     N60092   7.170   1.355   9.926 -0.4010  0.8215  0.3729
  446MOL0     C60093   7.056   1.343   9.849  0.2251  0.3606 -0.0731
  446MOL0     C60094   7.069   1.220   9.786 -0.3271  0.1894  0.2146
  446MOL0     C60095   6.967   1.142   9.711 -0.8654  0.3138  0.7943
  446MOL0     C60096   6.829   1.140   9.788  0.7015  0.1771 -0.1788
  446MOL0     C60097   6.845   1.081   9.936  0.0228 -0.1717 -1.4526
  446MOL0     C60098   6.716   1.104  10.015 -0.2015  0.2247  0.0562
  446MOL0     O60099   6.697   1.251  10.027 -1.3567 -1.2208  0.7582
  446MOL0     C60100   6.778   1.319  10.113 -0.7404  0.3006 -0.5002
  446MOL0     C60101   6.779   1.461  10.096 -0.4229 -0.1409 -0.9870
  446MOL0     C60102   6.860   1.539  10.188  0.4920 -0.2602 -0.3527
  446MOL0     C60103   6.852   1.681  10.160  0.5775  0.2708  0.6271
  446MOL0     C60104   6.958   1.477  10.281 -0.4655 -0.3942  0.8704
  446MOL0     C60105   7.065   1.545  10.364  1.4510  0.2239 -0.0479
  446MOL0     O60106   7.148   1.469  10.441  0.5802  0.5524 -0.0315
  446MOL0     C60107   7.213   1.533  10.541  0.7689 -0.3224 -0.6480
  446MOL0     C60108   7.344   1.586  10.533 -0.2012  1.1180 -0.1141
  446MOL0     C60109   7.412   1.628  10.639 -0.1428  1.2555 -0.4963
  446MOL0     C60110   7.358   1.644  10.772 -0.5457 -0.6042  1.6545
  446MOL0     O60111   7.421   1.700  10.881 -0.0169 -0.0540  0.0311
  446MOL0     C60112   7.529   1.786  10.873 -0.6001  0.4040  0.8697
  446MOL0     C60113   7.483   1.934  10.899  0.3166 -0.1011  0.3195
  446MOL0     C60114   7.590   2.038  10.870  0.4180  0.0667 -0.2052
  446MOL0     C60115   7.527   2.177  10.885 -0.0743  0.2858  0.0164
  446MOL0     C60116   7.523   2.237  10.746 -0.0906 -0.6806  0.6422
  446MOL0     C60117   7.664   2.264  10.682  0.5486 -0.0706  0.5591
  446MOL0     C60118   7.656   2.336  10.545 -0.9261 -0.5848 -0.2357
  446MOL0     C60119   7.601   2.280  10.425  0.2732  0.7177  0.1435
  446MOL0    Cl60120   7.723   2.167  10.369 -0.0928 -0.1628  0.3081
  446MOL0     C60121   7.232   1.598  10.779  1.0335 -0.0863 -0.0982
  446MOL0     C60122   7.159   1.544  10.672  0.5242  0.0141 -1.1518
  446MOL0     O60123   7.073   1.665  10.353 -0.5892 -0.3269  0.6806
  446MOL0     C60124   6.941   1.336  10.301  0.3743  0.7583  0.5944
  446MOL0     C60125   6.860   1.259  10.214  0.3703  0.7862 -0.0942
  446MOL0     N60126   7.187   1.167   9.820 -0.2983 -0.5034  0.5954
  446MOL0     N60127   7.242   1.243   9.913 -0.7287 -0.5769  0.1563
  446MOL0     C60128   6.970   2.053  10.345  0.6794 -0.3311  0.0094
  446MOL0     C60129   6.836   2.101  10.321 -1.2263 -0.1672 -0.2247
  446MOL0     C60130   6.453   2.262  10.399  0.0229 -1.1994  0.3260
  446MOL0     C60131   6.359   2.226  10.500  0.7536  0.2715 -0.1040
  446MOL0     C60132   6.224   2.228  10.468  0.2204  0.3122 -0.4815
  446MOL0     C60133   6.181   2.287  10.351 -0.3059 -0.3824  0.0051
  446MOL0     O60134   6.044   2.283  10.327 -0.3881 -0.5567  0.2867
  446MOL0     C60135   5.999   2.322  10.197  0.8245 -0.4553  0.5770
  446MOL0     C60136   5.854   2.279  10.160 -0.2139  0.0725  0.1023
  446MOL0     C60137   5.750   2.337  10.263  0.2477  0.2505  0.2974
  446MOL0     C60138   5.627   2.398  10.184 -0.1091  0.1285 -0.4803
  446MOL0     C60139   5.566   2.315  10.081  0.5780  0.0634 -0.0506
  446MOL0     C60140   5.509   2.256   9.984  0.4222 -1.3353 -0.0958
  446MOL0     C60141   6.274   2.329  10.264  0.9848 -0.6949 -0.3111
  446MOL0     C60142   6.410   2.315  10.279 -0.3300  0.1909  0.1883
  446MOL0     H60143   6.900   2.432  10.380  0.8309 -0.0054  1.0031
  446MOL0     H60144   7.127   2.334  10.401 -0.4196 -0.0174 -1.5532
  446MOL0     H60145   7.249   2.045  10.547  1.4369 -1.1240 -0.1934
  446MOL0     H60146   7.183   1.914  10.432  1.2718 -0.2590 -4.1202
  446MOL0     H60147   7.464   2.024  10.414 -0.6215  0.4890  0.1228
  446MOL0     H60148   7.424   1.891  10.512  0.5931 -2.0867 -1.8776
  446MOL0     H60149   7.513   1.808  10.325 -0.4685 -1.7515  0.1421
  446MOL0     H60150   7.343   1.770  10.322 -0.6744  0.2763 -0.4585
  446MOL0     H60151   7.310   1.962  10.164  1.0852  0.9651  2.3918
  446MOL0     H60152   7.484   1.972  10.141 -0.9790  0.3676 -0.9807
  446MOL0     H60153   7.397   1.841   9.956  0.4828  1.3034  0.5830
  446MOL0     H60154   7.504   1.747  10.066 -0.5077  1.0200 -0.1508
  446MOL0     H60155   7.335   1.617  10.166  2.1584  1.9260  0.6217
  446MOL0     H60156   7.204   1.725  10.104 -1.3606 -1.6523  2.4272
  446MOL0     H60157   7.218   1.626   9.883  1.3589 -0.2658 -2.3969
  446MOL0     H60158   7.373   1.537   9.928 -0.5605 -0.4235  0.9896
  446MOL0     H60159   7.105   1.492  10.071  0.4301  1.4865  0.3389
  446MOL0     H60160   7.257   1.409  10.104 -0.8378  0.0804  0.6156
  446MOL0     H60161   6.969   1.408   9.853  0.3069  0.4235  0.8286
  446MOL0     H60162   6.940   1.179   9.611 -3.4383 -0.6188  1.0681
  446MOL0     H60163   7.003   1.039   9.701  0.7543  0.7326  2.0091
  446MOL0     H60164   6.764   1.080   9.724 -0.2963  1.6470 -0.5949
  446MOL0     H60165   6.793   1.243   9.792  2.9887  1.0247  0.0029
  446MOL0     H60166   6.935   1.116   9.988 -2.5957 -0.1860  3.7979
  446MOL0     H60167   6.869   0.975   9.926  0.2915 -0.4993  1.5340
  446MOL0     H60168   6.718   1.046  10.108 -0.1956 -0.5518 -0.4192
  446MOL0     H60169   6.635   1.057   9.959  0.2344 -1.1296  0.5006
  446MOL0     H60170   6.726   1.508  10.014 -0.8452  0.7064 -0.2605
  446MOL0     H60171   6.950   1.709  10.120  0.2547 -1.2980 -1.4483
  446MOL0     H60172   6.781   1.722  10.088  1.2944 -0.2261 -0.3843
  446MOL0     H60173   6.826   1.734  10.252  1.0114  3.2314 -0.8216
  446MOL0     H60174   7.407   1.580  10.444  2.5146 -0.4652  1.7629
  446MOL0     H60175   7.517   1.647  10.622 -0.0125 -0.7862 -2.3663
  446MOL0     H60176   7.597   1.778  10.958  1.2972  2.7117 -0.3105
  446MOL0     H60177   7.582   1.769  10.780 -4.2580 -4.6183 -0.7489
  446MOL0     H60178   7.402   1.948  10.826  1.0974 -0.0840 -0.5567
  446MOL0     H60179   7.455   1.944  11.005  2.7776  0.8605  0.9382
  446MOL0     H60180   7.640   2.023  10.774  0.0959  0.7105 -0.4808
  446MOL0     H60181   7.656   2.017  10.955 -1.2705 -2.7652  0.5182
  446MOL0     H60182   7.424   2.177  10.922 -0.0780  0.6242  0.0052
  446MOL0     H60183   7.586   2.245  10.947 -1.8633  2.9420 -1.0031
  446MOL0     H60184   7.469   2.331  10.757 -0.4629 -1.1313  3.7253
  446MOL0     H60185   7.459   2.168  10.690 -0.7061  0.1190  0.3430
  446MOL0     H60186   7.723   2.325  10.751 -1.1314  0.8969  1.2113
  446MOL0     H60187   7.711   2.170  10.651 -0.7176 -0.0935 -1.5405
  446MOL0     H60188   7.757   2.360  10.512 -0.7741  0.6083  1.0032
  446MOL0     H60189   7.595   2.425  10.566  0.7502  0.4707  0.3776
  446MOL0     H60190   7.597   2.373  10.367  1.1136  1.6777  1.5517
  446MOL0     H60191   7.502   2.234  10.420  0.5190  0.2842 -0.9676
  446MOL0     H60192   7.174   1.614  10.870 -3.6345 -0.2391 -2.7171
  446MOL0     H60193   7.056   1.517  10.692  1.3079 -0.9967  2.0013
  446MOL0     H60194   7.004   1.282  10.370 -1.1892 -3.3188 -0.8442
  446MOL0     H60195   6.850   1.154  10.239 -2.2706  1.0518  0.2164
  446MOL0     H60196   6.972   1.947  10.324 -0.0943 -1.2905  3.8781
  446MOL0     H60197   6.758   2.030  10.299 -0.0500 -1.8362  0.7595
  446MOL0     H60198   6.384   2.188  10.598  1.7620  0.2837 -0.3493
  446MOL0     H60199   6.147   2.194  10.536  2.4048 -1.4909  1.2619
  446MOL0     H60200   5.995   2.431  10.203  2.7847 -0.4247  2.6205
  446MOL0     H60201   6.068   2.288  10.119 -0.3503 -1.4142 -0.0819
  446MOL0     H60202   5.843   2.171  10.168  0.7703 -0.0286  0.2117
  446MOL0     H60203   5.831   2.322  10.062 -0.6103  0.2114  0.2559
  446MOL0     H60204   5.798   2.415  10.323  0.1014  2.8475 -2.6661
  446MOL0     H60205   5.717   2.252  10.322  0.3734 -2.3742 -3.0731
  446MOL0     H60206   5.654   2.492  10.133  0.4586 -0.2516 -0.8869
  446MOL0     H60207   5.552   2.428  10.258  3.0463  3.6808  1.6343
  446MOL0     H60208   5.463   2.192   9.912 -3.1973 -1.7292  2.3238
  446MOL0     H60209   6.230   2.381  10.180 -1.5371  0.3542  1.5326
  446MOL0     H60210   6.473   2.332  10.192 -0.7000 -2.7842 -0.7706
  447MOL0     O60211   1.068   9.129  10.168  0.9898 -0.4934 -0.5631
  447MOL0     C60212   1.103   9.173  10.058  0.2609 -0.0237 -0.9882
  447MOL0     O60213   1.156   9.293  10.044 -0.0927  0.2018  0.4126
  447MOL0     C60214   1.203   9.368  10.149  1.0436 -0.7171  0.2567
  447MOL0     C60215   1.143   9.485  10.184 -0.2859  0.5584  0.0745
  447MOL0     C60216   1.197   9.576  10.276 -1.8447 -0.2094  0.2465
  447MOL0     C60217   1.323   9.542  10.342 -0.1422  0.7256  0.7719
  447MOL0     O60218   1.385   9.615  10.439  0.9980 -0.4906 -0.1219
  447MOL0     C60219   1.340   9.750  10.455 -0.4025 -0.3741 -0.0666
  447MOL0     C60220   1.416   9.817  10.570 -0.4542 -0.1572  0.1660
  447MOL0     C60221   1.406   9.750  10.711  0.2741 -0.2080 -0.0924
  447MOL0     C60222   1.271   9.818  10.769 -0.6370  0.1382 -1.0273
  447MOL0     C60223   1.231   9.758  10.903  0.2430 -0.2172  1.2813
  447MOL0     C60224   1.102   9.826  10.961  0.5197 -0.4570  0.2897
  447MOL0     C60225   0.988   9.845  10.864 -0.3599  0.2034  0.6691
  447MOL0     C60226   0.865   9.892  10.951  1.1462 -0.4998  0.9378
  447MOL0     N60227   0.746   9.907  10.862  0.5537 -0.1038  0.4854
  447MOL0     C60228   0.685   9.803  10.798  0.5565 -0.6751 -0.3946
  447MOL0     C60229   0.583   9.862  10.733 -0.1295 -0.2002  0.0216
  447MOL0     C60230   0.476   9.805  10.637  0.5254 -0.2143 -0.3574
  447MOL0     C60231   0.347   9.878  10.658  0.6301  0.6038 -0.9777
  447MOL0     C60232   0.277   9.854  10.795  0.7968  0.6423 -1.0181
  447MOL0     C60233   0.212   9.720  10.817 -0.3650 -0.2868 -0.6782
  447MOL0     O60234   0.089   9.738  10.892  0.5990 -0.2439 -0.4643
  447MOL0     C60235   0.016   9.637  10.943  0.0774 -0.4173  0.3234
  447MOL0     C60236  -0.111   9.669  10.995  0.0102  0.3954  0.4748
  447MOL0     C60237  -0.190   9.580  11.074 -0.3755 -0.1865 -0.3279
  447MOL0     C60238  -0.316   9.632  11.135 -0.1076 -0.9617  0.3606
  447MOL0     C60239  -0.141   9.450  11.087 -0.5395  0.7097  0.1282
  447MOL0     C60240  -0.199   9.340  11.164  0.4529  0.2100  0.2894
  447MOL0     O60241  -0.116   9.230  11.183 -0.0589 -0.7723  0.5002
  447MOL0     C60242  -0.167   9.111  11.224 -0.0245 -0.3094 -0.5803
  447MOL0     C60243  -0.211   9.079  11.355 -1.0765  0.3201 -0.0985
  447MOL0     C60244  -0.285   8.974  11.387  0.0738 -0.2649  0.3558
  447MOL0     C60245  -0.309   8.872  11.294  0.8290  0.5250  1.0953
  447MOL0     O60246  -0.379   8.751  11.311  0.0967  0.0649  0.3791
  447MOL0     C60247  -0.382   8.701  11.443  0.1662  0.4682  0.1344
  447MOL0     C60248  -0.484   8.588  11.456  0.5122  0.3404  0.5567
  447MOL0     C60249  -0.635   8.630  11.449  0.7380  0.5067 -0.0443
  447MOL0     C60250  -0.715   8.526  11.528  0.0540  0.1957 -0.2585
  447MOL0     C60251  -0.862   8.529  11.491 -0.4919  0.0505 -0.2086
  447MOL0     C60252  -0.957   8.469  11.594 -0.2230 -0.0543 -0.3909
  447MOL0     C60253  -1.098   8.487  11.542  0.5939 -0.0073 -0.0769
  447MOL0     C60254  -1.216   8.421  11.620  0.4627 -0.3324  0.6183
  447MOL0    Cl60255  -1.234   8.501  11.774 -0.2881 -0.0605 -0.2361
  447MOL0     C60256  -0.273   8.898  11.165  1.0869  0.1381  0.0313
  447MOL0     C60257  -0.208   9.014  11.127  0.0351 -0.8743 -0.4534
  447MOL0     O60258  -0.315   9.345  11.198 -0.1602  0.5089 -0.0413
  447MOL0     C60259  -0.022   9.418  11.010 -0.0158  0.3436 -0.0234
  447MOL0     C60260   0.056   9.506  10.945 -0.2594 -0.2601 -0.1792
  447MOL0     N60261   0.586   9.998  10.755 -0.4847 -0.4088 -0.2165
  447MOL0     N60262   0.686  10.023  10.829 -0.2245 -0.5758  0.5273
  447MOL0     C60263   1.379   9.418  10.309  0.2462  0.7210 -0.2946
  447MOL0     C60264   1.314   9.337  10.214  0.9201  0.9018  1.1033
  447MOL0     C60265   1.064   9.096   9.937 -0.7549 -0.1890 -0.4541
  447MOL0     C60266   1.103   9.142   9.809  0.1449  0.0415  0.4042
  447MOL0     C60267   1.085   9.079   9.686 -0.2383  0.1485 -1.2821
  447MOL0     C60268   1.010   8.963   9.676 -0.9180  0.0467 -0.0631
  447MOL0     O60269   1.003   8.910   9.548  0.8833 -0.0869 -0.5286
  447MOL0     C60270   0.939   8.782   9.539  0.0630  0.6961  0.1052
  447MOL0     C60271   0.904   8.759   9.395  0.0777  0.2126  0.1880
  447MOL0     C60272   0.836   8.623   9.379  0.7333 -0.5631  0.7695
  447MOL0     C60273   0.871   8.555   9.250 -1.0332  0.3415 -0.3164
  447MOL0     C60274   1.012   8.518   9.240 -0.1712  0.6506 -0.2205
  447MOL0     C60275   1.129   8.481   9.221 -0.0664  0.0424  0.3488
  447MOL0     C60276   0.967   8.908   9.801 -0.7777  0.0204  0.0105
  447MOL0     C60277   0.991   8.978   9.926  0.1063 -0.2226 -0.0470
  447MOL0     H60278   1.045   9.506  10.142 -0.9357 -2.6367 -0.2686
  447MOL0     H60279   1.140   9.667  10.288 -0.7330  1.0954 -3.1304
  447MOL0     H60280   1.359   9.818  10.372  0.5686 -0.7414 -0.1616
  447MOL0     H60281   1.232   9.750  10.473 -0.1945 -0.2701  1.3479
  447MOL0     H60282   1.520   9.844  10.547  0.3250  0.2004  3.6825
  447MOL0     H60283   1.372   9.916  10.578  1.8593  1.1066 -1.5345
  447MOL0     H60284   1.405   9.640  10.715  0.4569 -0.1763  2.6146
  447MOL0     H60285   1.486   9.789  10.774 -0.9981  1.1233  0.7599
  447MOL0     H60286   1.279   9.926  10.786 -1.8679  0.0348  0.4572
  447MOL0     H60287   1.185   9.788  10.708 -1.6763  1.0008 -0.0523
  447MOL0     H60288   1.222   9.650  10.884  0.7707 -0.2414  1.1379
  447MOL0     H60289   1.313   9.778  10.973  1.6505  0.8935 -0.5748
  447MOL0     H60290   1.078   9.779  11.057  2.6073  2.7717  2.5852
  447MOL0     H60291   1.133   9.929  10.978  1.2622 -0.2422 -2.0320
  447MOL0     H60292   1.001   9.920  10.786  0.2913 -0.8413 -0.2489
  447MOL0     H60293   0.967   9.753  10.808  0.1902 -1.0641  2.4576
  447MOL0     H60294   0.882   9.986  11.005 -0.3970 -0.4213  1.3162
  447MOL0     H60295   0.833   9.823  11.029 -2.1877  1.0960  1.1542
  447MOL0     H60296   0.717   9.700  10.784  3.8798 -0.1645  2.0390
  447MOL0     H60297   0.507   9.827  10.534  1.2120  1.2860  0.1528
  447MOL0     H60298   0.463   9.696  10.648 -1.1657  0.0539  0.7755
  447MOL0     H60299   0.271   9.853  10.584  0.4003 -0.4679 -0.4039
  447MOL0     H60300   0.358   9.986  10.643  1.2569  0.8940  1.1973
  447MOL0     H60301   0.198   9.929  10.789 -1.9551 -2.0910 -1.4295
  447MOL0     H60302   0.344   9.868  10.880  0.4998  0.4785 -0.7534
  447MOL0     H60303   0.285   9.662  10.875  3.8302  3.5501 -1.6237
  447MOL0     H60304   0.197   9.666  10.723 -1.6351 -3.6138  1.2581
  447MOL0     H60305  -0.138   9.773  10.978  0.5260  0.4351 -0.1140
  447MOL0     H60306  -0.322   9.741  11.126  0.9585 -1.0355 -1.9535
  447MOL0     H60307  -0.400   9.596  11.074  0.9584 -1.2694 -0.9728
  447MOL0     H60308  -0.335   9.589  11.234 -1.6736 -2.5023 -0.5436
  447MOL0     H60309  -0.196   9.152  11.434  2.1275 -1.3581  1.0106
  447MOL0     H60310  -0.306   8.966  11.493  0.9248  1.2470  0.6707
  447MOL0     H60311  -0.287   8.668  11.486 -0.5426 -0.5948  0.9568
  447MOL0     H60312  -0.428   8.782  11.501  0.2408 -0.8014  2.1002
  447MOL0     H60313  -0.463   8.529  11.366  0.9189  2.3144 -0.7316
  447MOL0     H60314  -0.459   8.530  11.545 -1.7141 -1.6000  0.0149
  447MOL0     H60315  -0.665   8.636  11.344  1.1989  1.8718 -0.1186
  447MOL0     H60316  -0.643   8.733  11.485  0.3269 -0.4337  2.8113
  447MOL0     H60317  -0.677   8.424  11.516 -1.4214 -0.0960 -2.9871
  447MOL0     H60318  -0.701   8.548  11.635 -2.0420 -2.5117  0.7027
  447MOL0     H60319  -0.885   8.483  11.394  2.2303  0.4020 -1.0937
  447MOL0     H60320  -0.879   8.636  11.472 -2.5831 -0.5139 -2.0251
  447MOL0     H60321  -0.925   8.369  11.623 -1.2969  0.4684  3.1288
  447MOL0     H60322  -0.952   8.532  11.684  3.2051 -0.6465 -0.0347
  447MOL0     H60323  -1.107   8.440  11.444 -2.2636  2.1907 -1.0078
  447MOL0     H60324  -1.125   8.592  11.526 -1.2416 -0.5457 -0.8188
  447MOL0     H60325  -1.194   8.314  11.633  1.6605 -0.4315 -1.7295
  447MOL0     H60326  -1.304   8.431  11.556  1.1839 -0.9147 -0.4910
  447MOL0     H60327  -0.320   8.843  11.085  0.2650  3.0938 -1.6805
  447MOL0     H60328  -0.190   9.044  11.024 -0.7091 -4.2802 -1.7241
  447MOL0     H60329   0.022   9.319  11.006 -0.1307  0.3317 -1.0805
  447MOL0     H60330   0.153   9.478  10.907  0.1465  2.0330 -0.9900
  447MOL0     H60331   1.473   9.398  10.359 -0.1704  0.8587  0.5648
  447MOL0     H60332   1.359   9.241  10.193 -1.5352  0.0961 -1.0405
  447MOL0     H60333   1.162   9.233   9.812 -0.4757  0.4928 -0.5526
  447MOL0     H60334   1.128   9.130   9.600 -3.7892  1.2725 -2.5771
  447MOL0     H60335   1.001   8.700   9.574 -1.1432 -0.0564  0.5479
  447MOL0     H60336   0.845   8.788   9.595 -1.8073 -2.3411 -2.4075
  447MOL0     H60337   0.995   8.762   9.334 -0.5906 -0.9877 -0.9204
  447MOL0     H60338   0.837   8.841   9.369  1.1632  1.3970  1.0258
  447MOL0     H60339   0.729   8.642   9.387  0.3631 -1.2512 -1.8947
  447MOL0     H60340   0.872   8.566   9.465 -1.3453  0.4606  2.4142
  447MOL0     H60341   0.840   8.607   9.159  0.1847 -1.1657 -1.6604
  447MOL0     H60342   0.813   8.463   9.238  1.0976 -0.7727 -3.3953
  447MOL0     H60343   1.229   8.446   9.226 -1.4780 -5.0103 -1.2304
  447MOL0     H60344   0.909   8.817   9.799  0.5920 -0.8748  0.0484
  447MOL0     H60345   0.946   8.942  10.018  1.1830  2.1960  1.5050
  448MOL0     O60346   3.750   3.901   3.981 -0.3285 -0.9328 -0.0634
  448MOL0     C60347   3.672   3.994   4.008  0.0312  0.0566 -0.2846
  448MOL0     O60348   3.547   3.983   4.053 -0.4006 -0.2561 -0.2941
  448MOL0     C60349   3.500   3.850   4.056 -0.7004 -0.2207 -0.1057
  448MOL0     C60350   3.496   3.766   3.940  0.1243  1.3153 -0.4178
  448MOL0     C60351   3.449   3.637   3.961 -0.2707 -0.1999 -1.0691
  448MOL0     C60352   3.384   3.595   4.082  0.3200  0.0021 -0.3234
  448MOL0     O60353   3.348   3.467   4.080  0.4729  0.3746  0.2786
  448MOL0     C60354   3.239   3.422   4.161 -0.4840  0.3324  0.3084
  448MOL0     C60355   3.232   3.267   4.150  0.4906 -0.3670 -0.1350
  448MOL0     C60356   3.144   3.187   4.251  0.0471  0.6731  0.1889
  448MOL0     C60357   3.010   3.131   4.197 -0.6305 -0.3450 -0.5339
  448MOL0     C60358   2.951   3.043   4.304  0.0133  0.5513  0.2333
  448MOL0     C60359   2.808   3.006   4.258 -0.4550  0.1971 -0.3459
  448MOL0     C60360   2.749   2.896   4.362  0.1189 -0.5729  0.4276
  448MOL0     C60361   2.599   2.892   4.346  0.9940 -0.6801 -0.4545
  448MOL0     N60362   2.525   3.010   4.399 -0.4987 -1.1167  0.7147
  448MOL0     C60363   2.547   3.057   4.519  0.1426  0.3665 -0.7572
  448MOL0     C60364   2.457   3.158   4.537  0.2873 -0.8629  0.2907
  448MOL0     C60365   2.447   3.238   4.666 -0.3352 -0.4603  0.4632
  448MOL0     C60366   2.332   3.205   4.763 -0.0870 -0.1117 -0.1227
  448MOL0     C60367   2.198   3.181   4.693  0.8427 -0.3053 -0.7826
  448MOL0     C60368   2.144   3.311   4.651 -0.2783 -0.4309 -0.3209
  448MOL0     O60369   2.011   3.290   4.620  0.4466  0.6749 -0.5917
  448MOL0     C60370   1.909   3.290   4.716  0.0307 -0.0975  0.7164
  448MOL0     C60371   1.925   3.326   4.848 -0.0366  0.8119  0.2194
  448MOL0     C60372   1.826   3.309   4.951 -0.1267  0.1503  0.4800
  448MOL0     C60373   1.845   3.361   5.092  0.7103  0.3117 -1.3439
  448MOL0     C60374   1.700   3.259   4.910  0.5555 -0.3000 -0.3488
  448MOL0     C60375   1.588   3.211   4.997  0.0586 -0.7850  0.1975
  448MOL0     O60376   1.620   3.206   5.129  0.6446  1.2351  0.1345
  448MOL0     C60377   1.554   3.104   5.192  0.3799  0.1338  0.7939
  448MOL0     C60378   1.596   2.977   5.171 -0.4145 -0.0305 -0.7562
  448MOL0     C60379   1.539   2.864   5.238 -0.2444 -0.5862 -0.0275
  448MOL0     C60380   1.446   2.893   5.334 -0.7318 -0.1594 -1.3999
  448MOL0     O60381   1.397   2.795   5.413 -0.3527 -0.1917  0.2125
  448MOL0     C60382   1.324   2.694   5.342 -0.5716 -0.4886 -0.2892
  448MOL0     C60383   1.207   2.765   5.276  0.4799  0.3540  0.8455
  448MOL0     C60384   1.112   2.650   5.241  0.1654 -0.0704 -0.0304
  448MOL0     C60385   1.003   2.705   5.150  0.1411  0.6693  0.7311
  448MOL0     C60386   0.897   2.602   5.106 -0.6277 -1.0236 -0.0887
  448MOL0     C60387   0.784   2.636   5.201  0.3099 -0.0512  0.3419
  448MOL0     C60388   0.683   2.519   5.194 -0.0664  0.2250  0.7859
  448MOL0     C60389   0.547   2.562   5.257 -0.1652  0.3738 -1.1150
  448MOL0    Cl60390   0.477   2.715   5.172  0.0857 -0.1065  0.0839
  448MOL0     C60391   1.413   3.027   5.362  0.5971  0.0282  0.1492
  448MOL0     C60392   1.457   3.138   5.284 -0.1366  0.1668 -0.5160
  448MOL0     O60393   1.479   3.186   4.951 -0.7251 -1.0821  0.1069
  448MOL0     C60394   1.683   3.237   4.768  0.0927  0.5627 -0.2163
  448MOL0     C60395   1.781   3.243   4.670  0.1974  0.2840 -0.5593
  448MOL0     N60396   2.385   3.167   4.418  0.5188 -0.8463 -0.4244
  448MOL0     N60397   2.431   3.083   4.339  0.3567 -0.1125 -0.2757
  448MOL0     C60398   3.376   3.688   4.191  0.0810  0.1637 -0.8544
  448MOL0     C60399   3.442   3.810   4.180  0.0789 -0.1607  0.3761
  448MOL0     C60400   3.741   4.126   4.018 -0.4086 -0.8662  0.9252
  448MOL0     C60401   3.866   4.146   3.951 -0.2862 -0.4539  0.2672
  448MOL0     C60402   3.930   4.274   3.949  0.5356  0.7314 -0.2178
  448MOL0     C60403   3.846   4.384   3.987 -0.0946 -0.9371  0.3566
  448MOL0     O60404   3.894   4.517   3.976  0.4719 -0.9671 -0.6157
  448MOL0     C60405   3.838   4.606   3.886  0.2579 -0.6152 -0.6948
  448MOL0     C60406   3.901   4.583   3.757 -0.1851  0.1328 -0.4770
  448MOL0     C60407   3.853   4.679   3.657  0.2690  0.3364  0.3205
  448MOL0     C60408   3.948   4.720   3.542  0.6114  0.0072  0.4271
  448MOL0     C60409   4.065   4.811   3.575 -0.1170 -0.4603 -0.5120
  448MOL0     C60410   4.151   4.895   3.608  0.8347 -0.2019  0.4040
  448MOL0     C60411   3.715   4.366   4.042 -0.2737  0.0371  0.3877
  448MOL0     C60412   3.672   4.239   4.067 -0.7747 -0.3141  0.2295
  448MOL0     H60413   3.524   3.812   3.846  0.7442  2.6629  0.3990
  448MOL0     H60414   3.454   3.562   3.882  0.4142  1.9093 -3.1692
  448MOL0     H60415   3.239   3.452   4.266 -0.1661  3.1744 -0.4170
  448MOL0     H60416   3.147   3.448   4.108 -0.2345 -2.8489 -1.9660
  448MOL0     H60417   3.193   3.238   4.052 -3.5046 -0.5211  1.2983
  448MOL0     H60418   3.334   3.238   4.174 -0.7625 -2.4047  3.6818
  448MOL0     H60419   3.201   3.099   4.284  0.3807  1.0550  0.6521
  448MOL0     H60420   3.123   3.248   4.340 -0.3190 -0.5681  0.9836
  448MOL0     H60421   2.957   3.222   4.168  2.4340  1.3853 -1.1229
  448MOL0     H60422   3.033   3.062   4.115  3.1887 -1.7786  1.5069
  448MOL0     H60423   2.998   2.944   4.302 -2.3480 -0.6443 -1.8408
  448MOL0     H60424   2.951   3.087   4.403 -1.3354  1.0640  0.0142
  448MOL0     H60425   2.739   3.090   4.267  0.7021  1.4973 -2.7206
  448MOL0     H60426   2.812   2.961   4.159 -0.0192  1.6329 -1.0029
  448MOL0     H60427   2.789   2.797   4.335  0.1078 -1.2873  2.7672
  448MOL0     H60428   2.791   2.906   4.463  2.4304  2.1094 -0.6649
  448MOL0     H60429   2.549   2.801   4.380  0.1902 -0.8116 -1.8869
  448MOL0     H60430   2.573   2.885   4.240 -0.5336 -1.3010 -0.0664
  448MOL0     H60431   2.619   3.005   4.581  0.7187 -1.3820 -2.7588
  448MOL0     H60432   2.538   3.225   4.725 -0.3777 -1.4174  0.3299
  448MOL0     H60433   2.434   3.345   4.645  2.8459  0.4543  2.3864
  448MOL0     H60434   2.326   3.289   4.833 -0.2021 -0.9506  0.9058
  448MOL0     H60435   2.364   3.118   4.822 -0.0825  1.7825  2.8733
  448MOL0     H60436   2.144   3.142   4.780  1.8062  0.3267  0.1408
  448MOL0     H60437   2.201   3.103   4.617 -2.2395  0.4866 -1.8224
  448MOL0     H60438   2.190   3.347   4.559 -1.0698 -2.6316 -1.6287
  448MOL0     H60439   2.161   3.389   4.726 -0.5648  1.4583 -2.1082
  448MOL0     H60440   2.024   3.354   4.884  0.1479 -0.2037  0.5183
  448MOL0     H60441   1.933   3.426   5.100  1.8816 -1.3530  0.2266
  448MOL0     H60442   1.755   3.410   5.129  0.1959 -1.4312 -0.1406
  448MOL0     H60443   1.858   3.276   5.160 -2.7662 -0.4002 -1.4158
  448MOL0     H60444   1.682   2.960   5.108  2.3673 -0.9303  2.9252
  448MOL0     H60445   1.574   2.767   5.206 -1.1795 -0.7449 -0.6203
  448MOL0     H60446   1.377   2.634   5.267 -1.0078  1.0228 -1.8912
  448MOL0     H60447   1.283   2.622   5.414 -0.4713  0.1018  0.3677
  448MOL0     H60448   1.150   2.839   5.333  1.2261  0.6477  1.2148
  448MOL0     H60449   1.238   2.819   5.186  0.7693  0.1723  0.8377
  448MOL0     H60450   1.053   2.612   5.326 -2.3641  1.1086 -1.1495
  448MOL0     H60451   1.166   2.570   5.189  0.6452  0.8497 -0.9642
  448MOL0     H60452   0.966   2.800   5.188 -0.7446  1.1168 -1.1556
  448MOL0     H60453   1.062   2.714   5.058  0.3280 -0.0224  0.7749
  448MOL0     H60454   0.925   2.498   5.120 -1.4484 -1.2763 -0.2513
  448MOL0     H60455   0.876   2.629   5.002 -1.0670  4.5804  1.0941
  448MOL0     H60456   0.817   2.644   5.305 -1.3607 -1.0246  0.9871
  448MOL0     H60457   0.748   2.734   5.169 -0.3704 -0.5283 -0.4255
  448MOL0     H60458   0.722   2.424   5.232  0.6734 -1.3002 -3.2400
  448MOL0     H60459   0.661   2.488   5.091 -1.8553  1.8066  0.6446
  448MOL0     H60460   0.560   2.578   5.365  2.6206 -2.6364 -0.8488
  448MOL0     H60461   0.478   2.477   5.249 -0.9199  0.3035  3.4352
  448MOL0     H60462   1.343   3.043   5.442 -0.4226  0.4379 -0.7995
  448MOL0     H60463   1.426   3.242   5.289  3.0102  1.1716  1.6733
  448MOL0     H60464   1.588   3.208   4.726 -1.2640 -0.3923  3.1479
  448MOL0     H60465   1.755   3.224   4.566 -1.6565  2.6303 -0.5941
  448MOL0     H60466   3.338   3.655   4.287  1.9116 -1.1158 -0.5156
  448MOL0     H60467   3.437   3.888   4.255 -0.3091  1.3257 -1.1289
  448MOL0     H60468   3.923   4.058   3.922 -2.3553 -1.4123 -1.1379
  448MOL0     H60469   4.025   4.306   3.908 -1.6500  1.7022 -5.2331
  448MOL0     H60470   3.730   4.595   3.885  0.2054 -0.9851  1.8550
  448MOL0     H60471   3.847   4.712   3.913 -1.4787 -0.7261  0.4626
  448MOL0     H60472   3.876   4.481   3.724  0.7046  0.0016 -0.7850
  448MOL0     H60473   4.010   4.593   3.761 -0.1969 -0.0239  2.4006
  448MOL0     H60474   3.809   4.764   3.711 -3.2000 -1.7855  1.1375
  448MOL0     H60475   3.765   4.634   3.611  0.6871 -1.3568  1.0755
  448MOL0     H60476   3.893   4.776   3.465 -0.4008 -2.0230 -0.4168
  448MOL0     H60477   3.972   4.622   3.499  1.4853  0.0622  0.7724
  448MOL0     H60478   4.223   4.965   3.645 -0.6972  1.2362  0.7967
  448MOL0     H60479   3.657   4.454   4.068 -1.7398 -0.5228 -0.8868
  448MOL0     H60480   3.576   4.234   4.117 -0.5190 -0.5405  0.6982
  449MOL0     O60481   1.700  10.761   2.169 -0.5525  0.8887  0.5864
  449MOL0     C60482   1.818  10.769   2.133  0.8657 -0.1550 -0.8841
  449MOL0     O60483   1.870  10.865   2.044 -0.3917  0.5795 -1.4068
  449MOL0     C60484   1.782  10.959   1.993 -0.6184 -0.7372  0.2852
  449MOL0     C60485   1.724  11.055   2.084  0.1239 -0.3357 -0.3028
  449MOL0     C60486   1.617  11.134   2.052  0.6652 -1.1138 -0.7916
  449MOL0     C60487   1.564  11.121   1.918 -0.5272  0.2759 -0.3327
  449MOL0     O60488   1.452  11.203   1.896 -0.6459 -0.1898 -0.1510
  449MOL0     C60489   1.411  11.218   1.760 -0.1666 -0.2167  0.0414
  449MOL0     C60490   1.306  11.324   1.745  0.1943 -0.2436 -0.6665
  449MOL0     C60491   1.206  11.319   1.870 -0.5107  0.1643  0.1109
  449MOL0     C60492   1.129  11.187   1.882 -0.7732 -0.2406  0.1229
  449MOL0     C60493   1.033  11.180   1.996  0.3911 -0.4936  0.1383
  449MOL0     C60494   0.934  11.070   1.997  0.9303  0.4280 -0.2613
  449MOL0     C60495   0.793  11.118   2.015  0.4407 -0.8339 -0.1902
  449MOL0     C60496   0.715  10.993   2.050  0.0052 -0.3345  0.3516
  449MOL0     N60497   0.574  11.023   2.060  0.0662 -0.4503  0.3304
  449MOL0     C60498   0.480  11.016   1.962  0.3930  0.2608  0.9008
  449MOL0     C60499   0.360  10.983   2.015 -0.2265  0.5601  0.2042
  449MOL0     C60500   0.227  10.964   1.942 -0.2568  1.1347 -0.6631
  449MOL0     C60501   0.168  10.820   1.967 -0.3062  0.1453  0.0729
  449MOL0     C60502   0.026  10.817   1.904  0.1698  0.4410  0.3719
  449MOL0     C60503  -0.043  10.687   1.915 -0.4837 -0.4423 -0.1274
  449MOL0     O60504  -0.163  10.701   1.835 -0.0508  0.1486 -0.5178
  449MOL0     C60505  -0.270  10.622   1.876  0.3462 -0.0006 -1.1162
  449MOL0     C60506  -0.393  10.666   1.840 -0.1572  0.2892 -0.5674
  449MOL0     C60507  -0.505  10.589   1.860  0.6789 -0.3769 -0.5629
  449MOL0     C60508  -0.629  10.655   1.816  0.6911 -0.6166  0.3831
  449MOL0     C60509  -0.492  10.470   1.944  0.5031 -0.0589 -0.0388
  449MOL0     C60510  -0.602  10.395   1.999 -0.3516 -0.3773  0.0368
  449MOL0     O60511  -0.579  10.314   2.104 -0.9427  0.0134  0.2239
  449MOL0     C60512  -0.677  10.222   2.140  0.2018 -1.2472 -0.5843
  449MOL0     C60513  -0.707  10.108   2.067 -0.0182  0.3456 -0.3819
  449MOL0     C60514  -0.798  10.006   2.114 -1.0978  0.2950  0.4952
  449MOL0     C60515  -0.857  10.027   2.250 -0.8573  0.5533  1.2002
  449MOL0     O60516  -0.947   9.942   2.311  0.5016 -0.1403 -1.1198
  449MOL0     C60517  -1.005   9.840   2.227  0.8084 -0.6430 -0.1108
  449MOL0     C60518  -1.102   9.759   2.322 -0.4916  0.1772  0.0244
  449MOL0     C60519  -1.207   9.847   2.379 -0.1198  0.0216 -0.4337
  449MOL0     C60520  -1.312   9.776   2.448  0.0343  0.1884 -0.0480
  449MOL0     C60521  -1.255   9.716   2.579 -0.4307  0.2655 -0.0353
  449MOL0     C60522  -1.355   9.624   2.651  0.5563  0.8285  0.1588
  449MOL0     C60523  -1.466   9.699   2.712 -0.0245  0.6920 -0.9912
  449MOL0     C60524  -1.553   9.599   2.802  0.1395 -0.0499  0.1195
  449MOL0    Cl60525  -1.722   9.658   2.805  0.0692  0.2150 -0.2266
  449MOL0     C60526  -0.832  10.151   2.312  0.9538 -0.1943  0.0229
  449MOL0     C60527  -0.741  10.248   2.261 -0.3730  0.0453 -0.0470
  449MOL0     O60528  -0.708  10.396   1.931 -0.3345  0.3911  0.0132
  449MOL0     C60529  -0.366  10.425   1.992  0.4354 -0.7051  0.4688
  449MOL0     C60530  -0.256  10.506   1.948  0.2833  0.4659  0.0132
  449MOL0     N60531   0.384  10.975   2.155  0.2609 -0.2218  0.9624
  449MOL0     N60532   0.509  10.984   2.172 -0.4669 -0.4221  0.1164
  449MOL0     C60533   1.623  11.029   1.824 -0.1294 -0.7166  0.1383
  449MOL0     C60534   1.736  10.946   1.864  0.8734 -0.3276 -0.1112
  449MOL0     C60535   1.903  10.660   2.177  0.0764  1.4090  0.4335
  449MOL0     C60536   1.847  10.552   2.245 -0.5951  0.2655  0.3038
  449MOL0     C60537   1.929  10.442   2.274 -0.3592 -0.3032  1.2829
  449MOL0     C60538   2.065  10.448   2.240 -0.2481 -0.6555  0.1219
  449MOL0     O60539   2.149  10.347   2.282  0.4025  0.4199 -0.0340
  449MOL0     C60540   2.095  10.215   2.293 -0.0755  0.3639 -0.6944
  449MOL0     C60541   2.187  10.098   2.321  0.0879 -1.0070  0.6285
  449MOL0     C60542   2.241  10.100   2.464 -0.0815  0.0598 -0.1577
  449MOL0     C60543   2.336  10.220   2.502  0.0220 -0.0483 -0.6427
  449MOL0     C60544   2.369  10.209   2.646 -0.5286 -0.0097 -1.2301
  449MOL0     C60545   2.408  10.192   2.760  0.5348  0.8689  0.5259
  449MOL0     C60546   2.120  10.562   2.170  0.3561 -0.6588 -1.0092
  449MOL0     C60547   2.034  10.663   2.137 -1.5639  1.0124  0.4913
  449MOL0     H60548   1.749  11.047   2.190 -3.7713 -1.3663  0.6983
  449MOL0     H60549   1.579  11.217   2.112  2.8305 -2.0927  2.1648
  449MOL0     H60550   1.497  11.255   1.704 -1.3551 -2.4360 -3.6147
  449MOL0     H60551   1.381  11.123   1.714 -0.8260 -0.2050  0.4417
  449MOL0     H60552   1.360  11.419   1.749  1.7283 -1.0975  2.0676
  449MOL0     H60553   1.257  11.302   1.650  0.7882 -1.9495 -0.6218
  449MOL0     H60554   1.264  11.330   1.962  3.3580 -2.9806 -1.6729
  449MOL0     H60555   1.135  11.402   1.865 -0.5504  0.0930 -0.6625
  449MOL0     H60556   1.076  11.166   1.788  0.0491 -0.2742 -0.3482
  449MOL0     H60557   1.207  11.111   1.894 -0.7694 -0.5028 -1.3255
  449MOL0     H60558   1.095  11.170   2.085 -0.1440 -1.9489  0.3720
  449MOL0     H60559   0.981  11.276   1.994 -0.1603 -0.7871  0.2885
  449MOL0     H60560   0.947  11.012   1.905 -0.1688  2.6493 -1.9385
  449MOL0     H60561   0.962  11.001   2.077 -0.7644  2.2509  2.0570
  449MOL0     H60562   0.766  11.184   2.098 -2.9380 -0.8338 -1.1446
  449MOL0     H60563   0.765  11.189   1.937  1.0191  0.4540  0.7310
  449MOL0     H60564   0.759  10.943   2.136  2.1368  1.6965  0.5416
  449MOL0     H60565   0.724  10.920   1.969 -1.5183 -0.4596  0.2677
  449MOL0     H60566   0.489  11.027   1.855  0.1099 -0.9327  0.7314
  449MOL0     H60567   0.163  11.046   1.976  0.7751  0.7190  2.5475
  449MOL0     H60568   0.252  10.973   1.836  3.3012  0.4233 -0.0004
  449MOL0     H60569   0.187  10.821   2.075  1.5511  0.1589 -0.2330
  449MOL0     H60570   0.233  10.742   1.927 -1.5855 -1.1292  0.3707
  449MOL0     H60571   0.046  10.840   1.799  1.0863 -0.4308  0.3413
  449MOL0     H60572  -0.041  10.893   1.945 -0.3512  0.3444 -0.2690
  449MOL0     H60573  -0.071  10.678   2.021 -1.3494 -0.4507 -0.3513
  449MOL0     H60574   0.020  10.603   1.886  2.5067  1.4483  0.5195
  449MOL0     H60575  -0.397  10.762   1.790  0.4578  0.7004  0.1450
  449MOL0     H60576  -0.683  10.590   1.746  0.8115  1.8728 -2.2486
  449MOL0     H60577  -0.690  10.676   1.904 -1.5077  1.8080 -1.5373
  449MOL0     H60578  -0.624  10.754   1.768 -2.5063 -0.5285  0.0065
  449MOL0     H60579  -0.656  10.101   1.972  0.2781  1.0797 -0.2822
  449MOL0     H60580  -0.810   9.915   2.057  1.3950  0.1539  0.1006
  449MOL0     H60581  -1.069   9.881   2.149 -2.0745 -5.2701 -0.5875
  449MOL0     H60582  -0.928   9.786   2.171 -0.2521 -0.1934 -2.1013
  449MOL0     H60583  -1.158   9.694   2.254  0.8673  1.3429 -2.3648
  449MOL0     H60584  -1.043   9.706   2.397 -0.4703 -0.5432 -0.4866
  449MOL0     H60585  -1.249   9.892   2.288 -0.3073  1.1092  0.1699
  449MOL0     H60586  -1.169   9.934   2.433 -1.8627 -0.0792  1.0515
  449MOL0     H60587  -1.393   9.846   2.470  0.9033  1.4081 -0.5799
  449MOL0     H60588  -1.341   9.692   2.384 -0.3490  0.7924 -0.6729
  449MOL0     H60589  -1.223   9.789   2.655 -2.9530  0.4487  0.9596
  449MOL0     H60590  -1.165   9.660   2.553 -0.1287  0.0819  1.3257
  449MOL0     H60591  -1.412   9.560   2.583 -0.8127  3.0933 -0.9181
  449MOL0     H60592  -1.297   9.565   2.724 -0.9546  1.3324  1.8271
  449MOL0     H60593  -1.532   9.742   2.636 -1.1199  0.6329 -0.0935
  449MOL0     H60594  -1.424   9.783   2.768  1.9109  0.2870 -1.7767
  449MOL0     H60595  -1.520   9.578   2.904 -1.2574 -3.1635  0.0415
  449MOL0     H60596  -1.558   9.504   2.749  3.2591 -1.5925  2.2970
  449MOL0     H60597  -0.901  10.164   2.395 -2.9631 -5.0269 -1.9623
  449MOL0     H60598  -0.726  10.331   2.330 -2.4128 -0.8114  1.5528
  449MOL0     H60599  -0.343  10.339   2.054  1.0308 -2.3465 -1.9043
  449MOL0     H60600  -0.159  10.463   1.972 -0.3169 -0.3619  1.0081
  449MOL0     H60601   1.591  10.997   1.726  0.8661 -0.4705 -0.2748
  449MOL0     H60602   1.775  10.865   1.803  1.2577 -0.1395 -0.1195
  449MOL0     H60603   1.743  10.548   2.276 -1.1182  0.1350 -1.3693
  449MOL0     H60604   1.886  10.357   2.326  1.4469 -1.8631  0.3328
  449MOL0     H60605   2.008  10.206   2.359 -0.7845  0.5798 -1.5820
  449MOL0     H60606   2.052  10.192   2.194 -0.4747  1.4536 -0.7854
  449MOL0     H60607   2.278  10.114   2.263  0.8999  1.9142  2.5314
  449MOL0     H60608   2.137  10.002   2.302  1.4772 -1.8987  1.3440
  449MOL0     H60609   2.299  10.007   2.469 -0.2185  0.0022  0.4309
  449MOL0     H60610   2.168  10.093   2.545  0.2879 -4.3453  0.0320
  449MOL0     H60611   2.296  10.321   2.492 -0.2994 -0.3061 -2.1099
  449MOL0     H60612   2.423  10.224   2.436 -1.9753  4.5896 -3.5101
  449MOL0     H60613   2.440  10.179   2.861 -0.7679 -0.3025  0.8207
  449MOL0     H60614   2.227  10.567   2.150  0.0433 -0.1719 -2.6692
  449MOL0     H60615   2.083  10.755   2.106  1.6489  0.1359  2.4793
  450MOL0     O60616   8.761   6.076   2.945  0.2466 -0.1687 -0.6864
  450MOL0     C60617   8.713   6.001   2.871  1.1284  0.3050  0.4652
  450MOL0     O60618   8.626   5.899   2.902  0.0358 -0.8101  1.2042
  450MOL0     C60619   8.559   5.903   3.028 -0.3623 -0.4564  0.2728
  450MOL0     C60620   8.492   6.023   3.070 -0.7140 -0.0914 -0.0444
  450MOL0     C60621   8.417   6.038   3.182  0.3362 -0.2611  0.9291
  450MOL0     C60622   8.408   5.930   3.275 -0.7205 -1.1048 -0.2227
  450MOL0     O60623   8.337   5.953   3.387  0.0704 -0.2097  0.7332
  450MOL0     C60624   8.198   5.965   3.346  0.7652  0.7309  0.8359
  450MOL0     C60625   8.113   6.066   3.425 -0.2598 -0.7256  0.6028
  450MOL0     C60626   7.954   6.058   3.397 -1.5421  0.0227  0.1870
  450MOL0     C60627   7.878   6.156   3.488 -0.4529  0.0723 -0.6769
  450MOL0     C60628   7.863   6.107   3.633 -0.0784  0.9448 -0.1647
  450MOL0     C60629   7.793   5.969   3.629  0.3434 -1.0534 -0.0760
  450MOL0     C60630   7.767   5.919   3.772  0.1224 -0.3098 -0.4130
  450MOL0     C60631   7.728   5.775   3.776 -0.7899 -0.9901 -0.1251
  450MOL0     N60632   7.609   5.739   3.690 -1.1304  0.1922  0.1779
  450MOL0     C60633   7.477   5.764   3.722  0.2337  0.0207  0.7508
  450MOL0     C60634   7.410   5.690   3.628 -0.0435 -0.4719  0.0728
  450MOL0     C60635   7.261   5.676   3.607  0.0588 -0.4570  0.2079
  450MOL0     C60636   7.207   5.713   3.465 -0.0875  0.8338  0.7116
  450MOL0     C60637   7.108   5.605   3.420  0.0476  0.3898  0.0157
  450MOL0     C60638   7.049   5.655   3.290 -0.0401 -0.1861 -0.0530
  450MOL0     O60639   6.944   5.558   3.253 -0.4916 -0.2312  0.5943
  450MOL0     C60640   6.817   5.600   3.221  0.2309  1.1614  0.5692
  450MOL0     C60641   6.798   5.730   3.165  0.1307 -0.1164  0.4147
  450MOL0     C60642   6.679   5.787   3.133  0.3964 -0.0225  1.4561
  450MOL0     C60643   6.664   5.910   3.049 -0.1826 -0.0921  0.0142
  450MOL0     C60644   6.557   5.707   3.149  0.0010  0.6332  1.0616
  450MOL0     C60645   6.422   5.750   3.124  1.2398 -0.1845 -0.1471
  450MOL0     O60646   6.399   5.883   3.135  0.9380 -0.1470 -0.0297
  450MOL0     C60647   6.275   5.938   3.123 -0.0455 -0.2362 -0.3296
  450MOL0     C60648   6.253   6.063   3.054 -0.0563  0.5871 -0.4824
  450MOL0     C60649   6.133   6.129   3.070 -0.1456 -0.1402  0.1454
  450MOL0     C60650   6.025   6.082   3.148 -0.4256 -0.7563  1.4428
  450MOL0     O60651   5.897   6.123   3.154 -0.0904 -0.3068 -0.8545
  450MOL0     C60652   5.874   6.256   3.088  1.3344 -0.6516 -0.4048
  450MOL0     C60653   5.947   6.371   3.156 -0.1431 -0.5793 -0.9636
  450MOL0     C60654   5.887   6.396   3.289 -0.8780 -0.2146  0.4847
  450MOL0     C60655   5.961   6.515   3.351 -0.0425 -0.6065 -0.3428
  450MOL0     C60656   5.887   6.552   3.475  0.6534  0.0663  0.3195
  450MOL0     C60657   5.922   6.477   3.599  0.6679 -0.9451  0.1964
  450MOL0     C60658   5.884   6.572   3.713 -0.6773 -0.3814  0.1614
  450MOL0     C60659   5.929   6.517   3.848 -0.2284 -0.3224  0.6386
  450MOL0    Cl60660   5.831   6.384   3.897  0.0883  0.0312  0.4081
  450MOL0     C60661   6.054   5.968   3.227 -0.2241  0.2287 -1.0698
  450MOL0     C60662   6.172   5.895   3.213  0.0147 -0.0000  0.6139
  450MOL0     O60663   6.334   5.667   3.105 -0.3799  0.1125 -0.7022
  450MOL0     C60664   6.572   5.573   3.199  0.3931  0.4206 -0.3626
  450MOL0     C60665   6.695   5.523   3.250 -0.7532 -0.1203  0.2751
  450MOL0     N60666   7.498   5.603   3.559  0.8726 -0.1435  0.2182
  450MOL0     N60667   7.610   5.635   3.599 -0.0025  0.3064 -0.8726
  450MOL0     C60668   8.479   5.813   3.245  0.1472  0.3534 -0.1874
  450MOL0     C60669   8.555   5.797   3.122  0.4950 -0.5082  0.1135
  450MOL0     C60670   8.765   5.997   2.728 -0.1475  0.1410 -0.3299
  450MOL0     C60671   8.856   6.088   2.681  1.0396 -0.0144 -0.6199
  450MOL0     C60672   8.906   6.096   2.554 -0.0560  0.6390 -0.3400
  450MOL0     C60673   8.893   5.988   2.471 -0.9575  0.2757 -0.0237
  450MOL0     O60674   8.944   5.985   2.345  0.1721 -0.2956  0.1956
  450MOL0     C60675   8.908   5.888   2.256 -0.1116  1.0081  0.2825
  450MOL0     C60676   8.769   5.907   2.199  0.8533 -0.3039  0.5093
  450MOL0     C60677   8.727   5.772   2.133 -0.0466  0.2199 -0.5142
  450MOL0     C60678   8.596   5.797   2.071  0.7572  0.4644  0.7374
  450MOL0     C60679   8.519   5.680   2.028 -0.4790 -0.3150  0.0097
  450MOL0     C60680   8.450   5.595   1.975 -0.0569 -0.2429  0.6755
  450MOL0     C60681   8.815   5.877   2.513  0.0684  0.2259 -0.8309
  450MOL0     C60682   8.738   5.889   2.636  0.5942  0.9637 -0.4213
  450MOL0     H60683   8.514   6.112   3.012  1.9872  1.3071  2.8741
  450MOL0     H60684   8.384   6.138   3.207  1.2616  0.4405 -0.4776
  450MOL0     H60685   8.180   6.000   3.244 -0.9448 -0.8564  0.5421
  450MOL0     H60686   8.144   5.870   3.349  2.4526 -0.3069 -0.4814
  450MOL0     H60687   8.138   6.036   3.527  0.1066 -0.7977  0.4942
  450MOL0     H60688   8.138   6.172   3.411  0.3472 -0.9025  0.2964
  450MOL0     H60689   7.949   6.086   3.291 -3.0268 -3.6143 -0.8396
  450MOL0     H60690   7.921   5.954   3.399 -1.0505 -0.5049 -4.9850
  450MOL0     H60691   7.939   6.247   3.487  0.0034 -0.2029 -2.6387
  450MOL0     H60692   7.777   6.183   3.455 -0.2022 -0.3422 -1.8344
  450MOL0     H60693   7.959   6.088   3.684 -0.6148 -0.7211  0.2796
  450MOL0     H60694   7.798   6.176   3.688  0.2375  1.0241  0.1133
  450MOL0     H60695   7.696   5.972   3.578  0.9886  3.1445 -1.4755
  450MOL0     H60696   7.855   5.891   3.584  2.1794 -0.7494  1.7464
  450MOL0     H60697   7.858   5.932   3.831 -0.9373 -0.7627  1.4009
  450MOL0     H60698   7.688   5.981   3.816 -0.8779 -2.7971  1.5008
  450MOL0     H60699   7.715   5.744   3.880  2.1608 -0.1240  0.5970
  450MOL0     H60700   7.814   5.721   3.735  0.7412  1.4288 -0.2690
  450MOL0     H60701   7.442   5.832   3.799  1.1313  0.9059  0.3852
  450MOL0     H60702   7.234   5.571   3.623 -2.4637 -0.0942 -1.1314
  450MOL0     H60703   7.203   5.736   3.679 -0.2252 -1.4740  0.8509
  450MOL0     H60704   7.298   5.705   3.404 -0.3813 -2.7514  0.5341
  450MOL0     H60705   7.172   5.816   3.451  3.5555  1.9360 -1.8742
  450MOL0     H60706   7.037   5.586   3.501  1.6379 -0.5811  1.2406
  450MOL0     H60707   7.153   5.506   3.402  1.3303  1.0837 -0.7109
  450MOL0     H60708   7.125   5.650   3.211  0.6700 -2.0890  0.6894
  450MOL0     H60709   7.004   5.753   3.304 -2.6234 -1.3917  0.7798
  450MOL0     H60710   6.886   5.791   3.147  1.9862 -1.9581  2.5986
  450MOL0     H60711   6.760   5.951   3.017  0.8168  0.1488  2.9852
  450MOL0     H60712   6.615   5.899   2.952  1.6359  1.1879 -1.1185
  450MOL0     H60713   6.615   5.990   3.106 -1.7986 -2.6561  2.5304
  450MOL0     H60714   6.335   6.105   2.997 -0.7506  1.9539 -0.5131
  450MOL0     H60715   6.108   6.219   3.014 -0.2696 -0.3391 -0.1199
  450MOL0     H60716   5.883   6.242   2.980  0.5120 -1.8989 -0.3304
  450MOL0     H60717   5.768   6.281   3.094  1.4296 -0.3687  0.1657
  450MOL0     H60718   6.054   6.354   3.174 -0.6279 -0.4701  2.5849
  450MOL0     H60719   5.937   6.467   3.104  1.8352  0.0709 -0.2566
  450MOL0     H60720   5.914   6.318   3.360  0.9271  0.6365  0.7957
  450MOL0     H60721   5.778   6.406   3.286 -0.8367 -0.0379 -0.8112
  450MOL0     H60722   6.067   6.495   3.367  0.5013  1.5400 -0.9060
  450MOL0     H60723   5.950   6.599   3.281 -2.1737 -0.0056  0.6119
  450MOL0     H60724   5.779   6.547   3.463  0.5642  2.8552 -0.8117
  450MOL0     H60725   5.903   6.658   3.497 -1.3114  0.3449  0.5898
  450MOL0     H60726   5.869   6.381   3.597  1.0968 -1.2020  0.7159
  450MOL0     H60727   6.029   6.457   3.600  1.2550  1.6588 -1.1157
  450MOL0     H60728   5.782   6.612   3.706 -0.4688  0.0868 -0.2081
  450MOL0     H60729   5.952   6.656   3.700  1.0012 -2.1012 -3.4993
  450MOL0     H60730   5.929   6.590   3.929  0.1469 -0.6042  0.8987
  450MOL0     H60731   6.033   6.483   3.839  0.2116  0.8105  1.2836
  450MOL0     H60732   5.985   5.943   3.307 -0.4034 -1.3639 -1.6944
  450MOL0     H60733   6.191   5.818   3.288 -0.2601  0.3485  1.0463
  450MOL0     H60734   6.487   5.506   3.192  0.1723  0.8500 -2.8646
  450MOL0     H60735   6.699   5.432   3.308  3.7831  0.0856  0.6313
  450MOL0     H60736   8.468   5.732   3.317  0.1195 -1.6109 -2.2854
  450MOL0     H60737   8.602   5.700   3.110 -3.5519 -3.2239  3.1858
  450MOL0     H60738   8.887   6.161   2.756 -1.6982  0.8603 -0.2187
  450MOL0     H60739   8.956   6.181   2.509 -1.4683  1.7094  0.0347
  450MOL0     H60740   8.980   5.891   2.174 -0.9397 -2.0579 -0.6863
  450MOL0     H60741   8.913   5.783   2.286 -1.4830  0.3085 -1.7139
  450MOL0     H60742   8.762   5.983   2.120 -1.0509 -1.6316 -0.6854
  450MOL0     H60743   8.701   5.913   2.284  0.4697 -1.6570  0.3185
  450MOL0     H60744   8.722   5.692   2.207  1.4680  0.8319  0.2984
  450MOL0     H60745   8.808   5.749   2.063  2.3611  1.4023  1.7066
  450MOL0     H60746   8.614   5.841   1.972 -1.0852 -0.3850 -0.0366
  450MOL0     H60747   8.527   5.856   2.132  1.6395  0.0643  2.1705
  450MOL0     H60748   8.402   5.517   1.920 -0.6599  0.6370 -0.0744
  450MOL0     H60749   8.791   5.785   2.461  0.7430 -0.2232 -0.3656
  450MOL0     H60750   8.677   5.813   2.683  0.7247  1.8641  1.2742
  451MOL0     O60751   3.556   1.413   3.191  0.3348  0.4824 -0.0707
  451MOL0     C60752   3.606   1.347   3.283 -0.3091 -0.0433 -0.1056
  451MOL0     O60753   3.530   1.287   3.389 -0.2298  0.1297 -0.5187
  451MOL0     C60754   3.385   1.308   3.380 -0.6445  0.4200  0.9695
  451MOL0     C60755   3.311   1.232   3.297  0.3392  0.0025  0.1241
  451MOL0     C60756   3.171   1.227   3.311 -1.6855  0.3695  0.6592
  451MOL0     C60757   3.099   1.303   3.405 -0.7999  0.0641  0.0584
  451MOL0     O60758   2.959   1.290   3.414  0.1696 -0.3977  0.6463
  451MOL0     C60759   2.883   1.401   3.471 -0.2461  0.1685  0.0955
  451MOL0     C60760   2.900   1.541   3.397  0.2972 -0.4188 -0.8175
  451MOL0     C60761   2.772   1.631   3.392  0.7391  0.1936 -0.0914
  451MOL0     C60762   2.729   1.676   3.531 -0.4144 -0.4108 -1.6126
  451MOL0     C60763   2.663   1.813   3.550 -0.0921  0.7483  0.0530
  451MOL0     C60764   2.531   1.838   3.473 -0.6150  0.3667 -0.4523
  451MOL0     C60765   2.416   1.741   3.504  0.2037  0.3526  0.6247
  451MOL0     C60766   2.422   1.595   3.442 -0.8549 -0.1938  0.1937
  451MOL0     N60767   2.287   1.520   3.451 -0.0352  0.1911  0.8291
  451MOL0     C60768   2.199   1.510   3.552  0.2908  0.7542  0.5811
  451MOL0     C60769   2.111   1.421   3.516 -0.0465 -0.7224 -0.1725
  451MOL0     C60770   2.010   1.383   3.619 -0.1501 -0.1536  0.4252
  451MOL0     C60771   1.891   1.477   3.608 -0.0362  0.4388 -0.3982
  451MOL0     C60772   1.783   1.421   3.517  1.2216 -0.6827  0.3560
  451MOL0     C60773   1.660   1.507   3.531  0.5885 -0.5854  0.0158
  451MOL0     O60774   1.537   1.448   3.499  0.4101  0.4090 -0.4441
  451MOL0     C60775   1.412   1.494   3.536  0.7317  0.0752  0.1106
  451MOL0     C60776   1.397   1.623   3.589 -0.0816 -0.6488  0.3744
  451MOL0     C60777   1.263   1.668   3.599  0.0627 -0.2698 -0.4825
  451MOL0     C60778   1.252   1.815   3.644 -0.5551  1.1164 -0.4949
  451MOL0     C60779   1.149   1.582   3.573  0.3655 -1.1503 -1.0200
  451MOL0     C60780   1.011   1.624   3.599  0.3406 -0.0536  0.0909
  451MOL0     O60781   0.998   1.721   3.691  0.9823 -0.2683 -0.6653
  451MOL0     C60782   0.883   1.736   3.767  0.7182 -0.7039 -0.2076
  451MOL0     C60783   0.749   1.708   3.730 -0.2513  0.6020  0.3685
  451MOL0     C60784   0.640   1.720   3.820  0.0968 -0.3085  0.0067
  451MOL0     C60785   0.665   1.760   3.959 -0.5495 -0.0994  0.5172
  451MOL0     O60786   0.570   1.775   4.057  0.0943  0.5883 -0.7346
  451MOL0     C60787   0.449   1.699   4.037 -0.8793  0.1701 -0.1107
  451MOL0     C60788   0.352   1.722   4.149  0.7266 -0.0029 -0.1972
  451MOL0     C60789   0.249   1.604   4.170  0.3526 -0.0709  0.4003
  451MOL0     C60790   0.109   1.617   4.098 -0.2605 -0.2040 -0.1980
  451MOL0     C60791   0.109   1.623   3.944 -0.0762 -1.2069 -0.5365
  451MOL0     C60792  -0.035   1.648   3.889  0.6076 -0.2248 -0.1254
  451MOL0     C60793  -0.039   1.688   3.738 -0.9866 -0.1714  0.7325
  451MOL0     C60794  -0.182   1.719   3.690  0.5766  0.5344  0.7827
  451MOL0    Cl60795  -0.191   1.831   3.548 -0.2967  0.1543  0.1976
  451MOL0     C60796   0.800   1.794   3.986  0.1294 -0.0948 -0.6245
  451MOL0     C60797   0.907   1.791   3.894 -0.3658  0.1204  0.7207
  451MOL0     O60798   0.920   1.558   3.553 -0.5493 -1.1346  0.0956
  451MOL0     C60799   1.175   1.451   3.536 -0.0929 -0.2399  0.0866
  451MOL0     C60800   1.304   1.406   3.517  0.8335  0.1651  0.0632
  451MOL0     N60801   2.147   1.381   3.390  0.0567  0.0067 -0.1779
  451MOL0     N60802   2.246   1.444   3.347  0.2385 -0.1068 -0.0903
  451MOL0     C60803   3.178   1.389   3.482 -0.4384  0.1537 -0.6213
  451MOL0     C60804   3.318   1.389   3.469  0.9542 -0.2588 -0.7510
  451MOL0     C60805   3.751   1.349   3.280 -0.8115 -0.5203  0.1687
  451MOL0     C60806   3.834   1.405   3.181  0.2189 -0.0569 -0.1522
  451MOL0     C60807   3.968   1.400   3.183  0.2249  0.6172 -0.2764
  451MOL0     C60808   4.043   1.330   3.278  0.4467  0.0561 -0.6300
  451MOL0     O60809   4.176   1.308   3.274 -0.2933 -0.1710 -0.0131
  451MOL0     C60810   4.259   1.251   3.379  0.5082 -0.4781 -0.8851
  451MOL0     C60811   4.279   1.363   3.487  0.3767 -0.2172  0.2613
  451MOL0     C60812   4.334   1.495   3.424 -0.1327 -0.4792  0.2321
  451MOL0     C60813   4.377   1.597   3.523 -0.7549 -0.7905  1.4544
  451MOL0     C60814   4.503   1.553   3.595  0.2722  0.1570 -0.4649
  451MOL0     C60815   4.594   1.489   3.630 -0.4512  0.5262  1.0776
  451MOL0     C60816   3.970   1.275   3.382  0.3015 -0.4600  0.9745
  451MOL0     C60817   3.829   1.277   3.374  0.5887  0.5852 -0.9616
  451MOL0     H60818   3.359   1.164   3.226 -0.2310 -0.3066  0.0223
  451MOL0     H60819   3.118   1.159   3.245 -0.5329  0.7972 -0.7570
  451MOL0     H60820   2.776   1.380   3.470 -0.5889  1.2402  3.3948
  451MOL0     H60821   2.897   1.416   3.578 -1.1178 -1.9408  0.5472
  451MOL0     H60822   2.978   1.604   3.442 -1.1972  1.3234 -0.5770
  451MOL0     H60823   2.942   1.521   3.298  1.5530  0.3014 -0.4618
  451MOL0     H60824   2.797   1.716   3.329  3.2693 -0.9200 -0.7094
  451MOL0     H60825   2.685   1.582   3.347 -0.9392  1.9531  1.0547
  451MOL0     H60826   2.667   1.596   3.573 -1.3374  1.1486  0.1525
  451MOL0     H60827   2.822   1.673   3.588 -1.0230 -2.1251 -0.6266
  451MOL0     H60828   2.638   1.832   3.655 -1.4328  0.2020 -0.1422
  451MOL0     H60829   2.732   1.888   3.511 -1.7079  2.2642 -0.0142
  451MOL0     H60830   2.489   1.936   3.496 -1.0589  0.3994 -1.3509
  451MOL0     H60831   2.565   1.834   3.369  2.3769  1.1940  0.4062
  451MOL0     H60832   2.400   1.741   3.612  0.4560  0.9607  0.6671
  451MOL0     H60833   2.331   1.787   3.454  0.0532 -0.2743  0.2989
  451MOL0     H60834   2.495   1.532   3.492 -2.1487  0.3583  2.9498
  451MOL0     H60835   2.439   1.593   3.334 -1.5276  1.2128  0.0420
  451MOL0     H60836   2.204   1.553   3.651  1.6436  0.2930  0.7458
  451MOL0     H60837   1.992   1.276   3.612  0.1770 -0.3916  2.4404
  451MOL0     H60838   2.044   1.397   3.722  2.7254 -0.7935 -0.3471
  451MOL0     H60839   1.926   1.573   3.570  0.1291  0.7700  0.5578
  451MOL0     H60840   1.856   1.504   3.708 -0.4227 -0.4389 -0.2783
  451MOL0     H60841   1.759   1.316   3.537 -0.1528 -1.0022 -2.4502
  451MOL0     H60842   1.804   1.418   3.410 -0.8754 -2.8942 -0.0798
  451MOL0     H60843   1.672   1.601   3.478  0.1790 -0.1557  0.6619
  451MOL0     H60844   1.642   1.536   3.635 -0.1831  1.3312 -0.6158
  451MOL0     H60845   1.478   1.695   3.593 -0.0165 -0.1065 -4.7305
  451MOL0     H60846   1.251   1.825   3.753 -2.5408 -2.3912 -0.0265
  451MOL0     H60847   1.339   1.868   3.606  1.3478 -1.4307  0.0427
  451MOL0     H60848   1.166   1.856   3.590 -1.1636  0.3488 -0.1289
  451MOL0     H60849   0.721   1.675   3.631  0.6222  3.5321 -0.9358
  451MOL0     H60850   0.539   1.702   3.785 -0.6141  2.6171  0.2081
  451MOL0     H60851   0.401   1.735   3.945  0.3433  0.5878 -0.5974
  451MOL0     H60852   0.472   1.593   4.020 -1.3505  0.2580 -1.4250
  451MOL0     H60853   0.409   1.730   4.242  0.4267  0.3131 -0.0374
  451MOL0     H60854   0.310   1.823   4.148  0.1418 -0.2471 -1.0558
  451MOL0     H60855   0.225   1.579   4.274 -1.8101  2.3938  0.6031
  451MOL0     H60856   0.301   1.519   4.126  2.2594 -0.4120  3.0547
  451MOL0     H60857   0.050   1.533   4.136 -0.5307  1.4920  3.5710
  451MOL0     H60858   0.057   1.709   4.126 -3.2508 -1.4798 -1.1358
  451MOL0     H60859   0.152   1.530   3.906  1.6612 -0.1885 -1.2119
  451MOL0     H60860   0.170   1.702   3.900  0.0842 -2.2719 -2.3160
  451MOL0     H60861  -0.091   1.556   3.907 -2.7947  1.3872 -1.5399
  451MOL0     H60862  -0.080   1.724   3.954  1.1969 -0.4429  0.5571
  451MOL0     H60863   0.006   1.605   3.683  0.9019  1.7250 -0.7630
  451MOL0     H60864   0.017   1.780   3.714 -4.0490  0.8354 -3.8610
  451MOL0     H60865  -0.235   1.756   3.778 -3.0577 -2.1749 -0.0524
  451MOL0     H60866  -0.228   1.622   3.666  1.0298  0.3582  0.6050
  451MOL0     H60867   0.818   1.843   4.081 -0.8442 -1.0445  0.0704
  451MOL0     H60868   1.005   1.832   3.916 -0.7481  2.3154 -1.2679
  451MOL0     H60869   1.095   1.379   3.519 -0.4865 -0.0083  0.9056
  451MOL0     H60870   1.314   1.303   3.484 -0.2484  0.5207 -1.4622
  451MOL0     H60871   3.129   1.454   3.553 -1.8536  2.2141 -3.2857
  451MOL0     H60872   3.379   1.454   3.532  0.8118 -3.7220  3.3755
  451MOL0     H60873   3.782   1.446   3.096  2.4929  0.8181 -1.2098
  451MOL0     H60874   4.020   1.436   3.094 -1.0463 -0.3819 -1.4760
  451MOL0     H60875   4.211   1.160   3.417  0.0264  0.4073  0.7442
  451MOL0     H60876   4.354   1.207   3.347  2.2558  2.2744  0.1942
  451MOL0     H60877   4.350   1.320   3.558  1.5517  0.1974 -0.6293
  451MOL0     H60878   4.184   1.378   3.540 -1.7569 -2.0418 -2.7228
  451MOL0     H60879   4.260   1.543   3.360  1.9118  2.3787 -0.1512
  451MOL0     H60880   4.415   1.479   3.353 -1.7187 -3.6245 -1.0371
  451MOL0     H60881   4.295   1.617   3.593 -3.2459 -1.9538 -0.9703
  451MOL0     H60882   4.400   1.692   3.473 -0.9208 -1.0708  0.8407
  451MOL0     H60883   4.667   1.427   3.678 -0.8284 -0.5836  0.2487
  451MOL0     H60884   4.008   1.221   3.468  1.2763 -1.8014 -0.2461
  451MOL0     H60885   3.775   1.214   3.445  1.8801  1.9826  1.3989
  452MOL0     O60886   8.489   7.905   5.458 -0.0926  0.3024 -0.2827
  452MOL0     C60887   8.506   7.922   5.578  0.0131  0.5230 -0.1290
  452MOL0     O60888   8.416   7.919   5.673 -0.0957  0.5132 -0.0593
  452MOL0     C60889   8.283   7.906   5.637  0.5273  0.4640  0.0542
  452MOL0     C60890   8.192   7.999   5.691  1.2951 -0.6971 -0.0838
  452MOL0     C60891   8.053   7.996   5.660  0.0393  0.9912 -0.3863
  452MOL0     C60892   7.997   7.893   5.590  0.1263  0.5932 -0.3469
  452MOL0     O60893   7.868   7.850   5.578  0.2776  0.7735  0.7594
  452MOL0     C60894   7.772   7.930   5.643  0.0128 -0.2259  0.1503
  452MOL0     C60895   7.639   7.864   5.640 -0.5384 -0.0341 -0.2211
  452MOL0     C60896   7.550   7.885   5.521  0.1728 -0.0492 -0.8014
  452MOL0     C60897   7.484   7.754   5.470  0.5395 -0.4597  0.0425
  452MOL0     C60898   7.365   7.772   5.378 -0.7698  0.2303  0.5105
  452MOL0     C60899   7.288   7.643   5.370  1.1552  0.4741  0.4100
  452MOL0     C60900   7.157   7.647   5.278  0.4974  0.1209  0.3289
  452MOL0     C60901   7.173   7.646   5.124 -0.4904  0.1196  0.8270
  452MOL0     N60902   7.246   7.535   5.067  0.6380  0.7454 -0.6299
  452MOL0     C60903   7.381   7.515   5.066  0.3147 -0.8234 -0.1987
  452MOL0     C60904   7.403   7.399   5.005 -0.0934 -0.1890 -0.8067
  452MOL0     C60905   7.542   7.337   4.968 -0.6123 -0.8106  0.0117
  452MOL0     C60906   7.553   7.187   5.014 -0.4903  0.6152 -0.1418
  452MOL0     C60907   7.518   7.106   4.884 -0.1309  0.3918 -0.3389
  452MOL0     C60908   7.533   6.948   4.904  0.1342 -0.3078  0.7892
  452MOL0     O60909   7.441   6.911   5.005 -0.5899 -0.3731  0.2466
  452MOL0     C60910   7.458   6.791   5.053  0.5499 -0.2233 -0.4072
  452MOL0     C60911   7.408   6.775   5.184  0.2811 -0.0148  1.6048
  452MOL0     C60912   7.392   6.640   5.227 -0.3721 -0.1938  0.0472
  452MOL0     C60913   7.326   6.614   5.357  0.6438 -0.6393  0.0959
  452MOL0     C60914   7.463   6.534   5.163  0.5932 -0.3496  0.2504
  452MOL0     C60915   7.446   6.389   5.197  0.2805  0.5165 -0.1203
  452MOL0     O60916   7.436   6.309   5.085 -0.5812 -0.1415  0.0298
  452MOL0     C60917   7.402   6.178   5.104  0.7569  0.0914 -0.0728
  452MOL0     C60918   7.487   6.083   5.149 -0.0098  0.5711 -0.2654
  452MOL0     C60919   7.438   5.956   5.187  0.1763  0.7913 -0.1513
  452MOL0     C60920   7.302   5.931   5.181 -0.1699 -0.1635 -0.0793
  452MOL0     O60921   7.252   5.805   5.203 -0.2173 -0.0345  0.4319
  452MOL0     C60922   7.113   5.776   5.231  0.1806 -0.4097 -0.0990
  452MOL0     C60923   7.068   5.631   5.258  0.1537  0.3998  0.8173
  452MOL0     C60924   7.114   5.586   5.395  0.0581 -0.4199  0.0963
  452MOL0     C60925   7.145   5.434   5.393  0.6289  0.3138 -0.3872
  452MOL0     C60926   7.159   5.391   5.535  0.4465 -0.8676  0.7848
  452MOL0     C60927   7.180   5.236   5.539 -0.3159  0.5439 -0.1859
  452MOL0     C60928   7.101   5.174   5.655 -0.0464  0.3829 -0.3144
  452MOL0     C60929   6.951   5.134   5.630 -0.2357  0.0447  0.1975
  452MOL0    Cl60930   6.888   5.074   5.780  0.6558  0.2960  0.0627
  452MOL0     C60931   7.220   6.032   5.140 -0.4060  0.1367  0.6249
  452MOL0     C60932   7.260   6.157   5.111 -0.2078 -0.0987 -0.2120
  452MOL0     O60933   7.443   6.350   5.317 -0.8509 -0.2284  0.2327
  452MOL0     C60934   7.538   6.563   5.046  0.3458  0.2436  0.4460
  452MOL0     C60935   7.518   6.687   4.988 -0.0325  0.1167  0.1919
  452MOL0     N60936   7.285   7.341   4.972 -0.3422  0.2979  0.6045
  452MOL0     N60937   7.192   7.430   5.001 -0.0783  0.2659  0.6494
  452MOL0     C60938   8.086   7.804   5.532 -0.6136  0.8895  0.1161
  452MOL0     C60939   8.230   7.805   5.558  0.8535  0.5384 -0.2122
  452MOL0     C60940   8.641   7.935   5.636  0.0702  0.9898 -0.5624
  452MOL0     C60941   8.754   7.978   5.559  0.4545  0.0438  0.9926
  452MOL0     C60942   8.883   8.005   5.612 -0.4686 -0.7335 -0.1812
  452MOL0     C60943   8.910   7.969   5.749  0.6475  0.0464 -0.9371
  452MOL0     O60944   9.031   8.030   5.794  0.5742  0.6730 -0.0890
  452MOL0     C60945   9.095   7.987   5.919 -0.1697 -0.3947 -0.9360
  452MOL0     C60946   9.222   8.056   5.938  0.8474 -0.2062  0.1212
  452MOL0     C60947   9.277   8.009   6.077 -0.1639  0.1214  0.5673
  452MOL0     C60948   9.415   8.069   6.106 -0.3548 -0.0363 -0.2383
  452MOL0     C60949   9.500   8.077   5.989  0.5776  0.4856  0.4122
  452MOL0     C60950   9.578   8.107   5.900 -1.2487 -1.3157  0.0887
  452MOL0     C60951   8.803   7.916   5.826  0.5065 -0.1666  0.2751
  452MOL0     C60952   8.669   7.908   5.771 -0.5491  0.2862  0.2667
  452MOL0     H60953   8.239   8.080   5.746  2.8763 -0.7446 -1.3001
  452MOL0     H60954   7.982   8.073   5.691 -2.2009 -0.5239 -1.4835
  452MOL0     H60955   7.803   7.956   5.745  2.6250  1.0563 -0.8803
  452MOL0     H60956   7.783   8.026   5.591  2.6249 -0.5908 -0.0918
  452MOL0     H60957   7.648   7.758   5.661  3.1687 -0.0592 -1.2429
  452MOL0     H60958   7.577   7.903   5.721  0.9454  3.6878 -0.6468
  452MOL0     H60959   7.471   7.957   5.544 -1.7468 -1.3244 -3.0431
  452MOL0     H60960   7.607   7.935   5.442 -0.0250  0.2748 -0.7440
  452MOL0     H60961   7.563   7.685   5.440 -0.3236 -1.2321 -0.5058
  452MOL0     H60962   7.438   7.702   5.554  0.0812 -0.4017 -0.1706
  452MOL0     H60963   7.294   7.847   5.416 -2.0047  1.6142 -3.9012
  452MOL0     H60964   7.402   7.802   5.279  1.5427  0.3413  1.3387
  452MOL0     H60965   7.354   7.568   5.324  1.0852 -0.2215  1.3971
  452MOL0     H60966   7.264   7.608   5.471 -0.4231  0.3537  0.0180
  452MOL0     H60967   7.110   7.554   5.310  0.4356  0.5937  1.6710
  452MOL0     H60968   7.087   7.726   5.306 -0.6224  0.2868 -2.6243
  452MOL0     H60969   7.214   7.744   5.096  1.1202 -0.8217 -0.2600
  452MOL0     H60970   7.072   7.642   5.084 -1.0838 -0.1674  2.2810
  452MOL0     H60971   7.448   7.589   5.109 -1.3653  1.2701 -1.0102
  452MOL0     H60972   7.563   7.352   4.862 -0.1048 -2.1832 -0.1118
  452MOL0     H60973   7.615   7.397   5.022 -0.1034 -1.3605 -0.0459
  452MOL0     H60974   7.495   7.162   5.103  1.7552 -0.4872  1.0807
  452MOL0     H60975   7.657   7.162   5.036 -0.5460  2.8160  3.3330
  452MOL0     H60976   7.596   7.125   4.809 -0.9889 -3.7737 -2.6172
  452MOL0     H60977   7.419   7.134   4.848  0.1155  3.1610  0.8944
  452MOL0     H60978   7.635   6.913   4.921  0.9759  2.2704  1.5700
  452MOL0     H60979   7.506   6.891   4.815 -1.1103 -1.2421  1.7299
  452MOL0     H60980   7.392   6.864   5.244  1.4908  1.0910  0.3695
  452MOL0     H60981   7.297   6.716   5.386 -0.0181 -0.7653 -0.0890
  452MOL0     H60982   7.244   6.546   5.330  0.1415 -0.0687  0.1609
  452MOL0     H60983   7.395   6.592   5.438  0.6049  0.9267  0.5956
  452MOL0     H60984   7.593   6.103   5.150  0.0952  0.2478 -2.2031
  452MOL0     H60985   7.506   5.879   5.221  1.5264  1.3877 -1.4049
  452MOL0     H60986   7.086   5.839   5.316 -0.6500  0.5594 -1.0551
  452MOL0     H60987   7.056   5.811   5.144  0.7530 -1.2075 -0.8273
  452MOL0     H60988   6.960   5.638   5.245  0.2110  1.4264  0.8253
  452MOL0     H60989   7.113   5.561   5.187 -1.8819 -1.6241  1.4111
  452MOL0     H60990   7.030   5.609   5.460 -0.4846 -1.5549 -0.1624
  452MOL0     H60991   7.201   5.643   5.428  0.2790 -1.5005  1.4854
  452MOL0     H60992   7.060   5.377   5.355  1.0506 -1.4391  1.1817
  452MOL0     H60993   7.234   5.416   5.332  1.6003  0.8218  0.8478
  452MOL0     H60994   7.071   5.427   5.588  0.6756  2.8784 -1.0662
  452MOL0     H60995   7.243   5.454   5.565  1.5014 -0.1359 -3.1311
  452MOL0     H60996   7.154   5.188   5.445  2.1058 -1.4723  0.0796
  452MOL0     H60997   7.286   5.219   5.560 -0.2035  2.3699  1.0056
  452MOL0     H60998   7.118   5.245   5.736  0.6689  1.5208 -1.4452
  452MOL0     H60999   7.153   5.080   5.676 -0.9404  0.1212  0.9074
  452MOL0     H61000   6.934   5.057   5.554 -1.6244  0.6849 -0.1723
  452MOL0     H61001   6.901   5.224   5.592 -0.6264 -0.0427  0.4874
  452MOL0     H61002   7.113   6.022   5.130 -0.2130 -0.7663 -0.7561
  452MOL0     H61003   7.180   6.227   5.088  0.1225 -0.0761 -1.3543
  452MOL0     H61004   7.585   6.489   4.982 -0.8140  1.4800 -1.9682
  452MOL0     H61005   7.566   6.699   4.892 -0.1883  1.5814  0.2779
  452MOL0     H61006   8.053   7.726   5.464 -3.6053  0.7030  1.6180
  452MOL0     H61007   8.295   7.726   5.523 -1.0222 -0.8576 -0.7165
  452MOL0     H61008   8.736   7.994   5.453 -3.3378  3.7309  1.9127
  452MOL0     H61009   8.956   8.063   5.555 -1.4606  2.9080  1.9237
  452MOL0     H61010   9.038   8.000   6.011 -2.4372  0.7349 -2.4145
  452MOL0     H61011   9.132   7.884   5.910  4.5115  0.9445  0.1512
  452MOL0     H61012   9.188   8.160   5.945 -0.4970 -0.4081 -2.3047
  452MOL0     H61013   9.283   8.049   5.848 -1.1486  0.7455 -1.3948
  452MOL0     H61014   9.281   7.900   6.089 -1.0717  0.0823  0.5802
  452MOL0     H61015   9.219   8.042   6.163  1.5390  1.0830  1.4071
  452MOL0     H61016   9.462   8.009   6.183  1.7891  0.8514 -0.7923
  452MOL0     H61017   9.405   8.167   6.154 -1.7068  0.7520 -1.9630
  452MOL0     H61018   9.661   8.129   5.835 -2.3885  0.3535 -0.8676
  452MOL0     H61019   8.811   7.889   5.931  2.9329  1.4078  0.5664
  452MOL0     H61020   8.594   7.871   5.839 -0.7030  2.3437  1.2989
  453MOL0     O61021   3.050   6.463   1.069 -0.4626  0.4491 -0.5708
  453MOL0     C61022   3.171   6.482   1.057 -1.0274  0.4900  0.0195
  453MOL0     O61023   3.251   6.433   0.963 -0.0359 -0.0536 -0.0472
  453MOL0     C61024   3.200   6.348   0.864 -0.0512  0.6278  0.7359
  453MOL0     C61025   3.275   6.237   0.835 -0.3624 -0.6435  0.1996
  453MOL0     C61026   3.236   6.149   0.727  0.0268  1.2340 -0.2370
  453MOL0     C61027   3.120   6.173   0.664  0.1740  0.9584  0.3308
  453MOL0     O61028   3.087   6.072   0.572  0.5209  0.1524 -0.4493
  453MOL0     C61029   2.972   6.087   0.486 -0.3556 -0.3238 -0.0722
  453MOL0     C61030   2.976   5.976   0.383  0.7406 -0.1007 -0.5696
  453MOL0     C61031   3.089   5.996   0.283  0.0847  0.2025  0.2691
  453MOL0     C61032   3.039   5.932   0.147  0.3819 -0.0184 -0.4287
  453MOL0     C61033   3.016   5.783   0.161 -0.1099  0.0842 -0.3302
  453MOL0     C61034   2.979   5.709   0.028  1.1058  0.2859  0.4247
  453MOL0     C61035   3.083   5.690  -0.077 -0.4984 -0.3525 -0.0706
  453MOL0     C61036   3.022   5.612  -0.190 -0.4771 -0.7644 -0.4073
  453MOL0     N61037   3.121   5.586  -0.297 -0.3904  0.6137  0.1657
  453MOL0     C61038   3.106   5.624  -0.422 -0.0018 -0.6804  0.8200
  453MOL0     C61039   3.228   5.592  -0.489  0.6079 -0.0599 -0.1444
  453MOL0     C61040   3.246   5.624  -0.636 -0.0892  0.3976 -0.0844
  453MOL0     C61041   3.387   5.677  -0.649  1.2468  0.1207 -0.3104
  453MOL0     C61042   3.430   5.684  -0.795  0.2440 -0.3803  0.0971
  453MOL0     C61043   3.333   5.756  -0.896  0.2299  0.2715 -0.0593
  453MOL0     O61044   3.413   5.795  -1.010 -0.1345  0.1537 -0.7647
  453MOL0     C61045   3.339   5.831  -1.116  0.0557  0.3135 -0.2405
  453MOL0     C61046   3.272   5.948  -1.126 -0.7067  0.5679 -0.3798
  453MOL0     C61047   3.186   5.970  -1.233  0.2332  0.7196  0.2877
  453MOL0     C61048   3.108   6.098  -1.240  1.1294  0.9043  0.2949
  453MOL0     C61049   3.172   5.879  -1.339 -0.1640  0.0801 -0.2315
  453MOL0     C61050   3.094   5.901  -1.462 -0.0329 -0.6416  0.8372
  453MOL0     O61051   3.152   6.007  -1.540  0.2408  0.0793 -0.6026
  453MOL0     C61052   3.092   6.034  -1.660 -0.5315 -0.4418  0.4650
  453MOL0     C61053   2.954   6.021  -1.699 -0.1132  0.2428 -0.5943
  453MOL0     C61054   2.904   6.019  -1.831 -0.8159 -0.4387  0.2535
  453MOL0     C61055   2.992   6.055  -1.932 -0.1271 -0.4963 -0.1401
  453MOL0     O61056   2.951   6.084  -2.065  0.6672  0.4644  0.5411
  453MOL0     C61057   2.986   5.987  -2.164 -0.1892  0.1911  0.1934
  453MOL0     C61058   2.903   6.016  -2.293 -0.6586  0.3614  0.0319
  453MOL0     C61059   2.755   6.021  -2.274  0.2991 -0.7986 -0.2758
  453MOL0     C61060   2.692   6.082  -2.390  0.9159 -0.3969  1.3473
  453MOL0     C61061   2.538   6.071  -2.377  0.1745  0.4050 -0.5040
  453MOL0     C61062   2.488   5.922  -2.371 -0.6625 -0.1795 -0.5943
  453MOL0     C61063   2.336   5.930  -2.387  0.4730  0.6201  0.0987
  453MOL0     C61064   2.278   5.796  -2.400 -0.3863 -0.3136 -0.3972
  453MOL0    Cl61065   2.268   5.727  -2.231  0.4760 -0.3925  0.2307
  453MOL0     C61066   3.127   6.071  -1.904  0.1276  0.5510 -0.0341
  453MOL0     C61067   3.179   6.056  -1.772 -0.0441 -0.2258 -0.4633
  453MOL0     O61068   2.998   5.824  -1.496 -0.2783 -0.5199 -0.2024
  453MOL0     C61069   3.257   5.757  -1.334  0.9988  0.3078 -0.0093
  453MOL0     C61070   3.334   5.737  -1.219  0.6206 -0.6029  0.1974
  453MOL0     N61071   3.320   5.552  -0.391 -0.4189  0.2185 -0.4329
  453MOL0     N61072   3.253   5.536  -0.289  0.5094 -0.1434 -0.0453
  453MOL0     C61073   3.036   6.283   0.703  0.1882 -0.2714  0.2590
  453MOL0     C61074   3.081   6.375   0.790  0.3046 -0.0060 -0.2034
  453MOL0     C61075   3.244   6.547   1.168 -0.5331  0.3009  0.3332
  453MOL0     C61076   3.168   6.606   1.266 -0.3180 -0.7292 -0.5082
  453MOL0     C61077   3.220   6.670   1.383  0.4644 -0.8905  1.0828
  453MOL0     C61078   3.357   6.674   1.393 -0.9727  0.0166  0.2464
  453MOL0     O61079   3.410   6.733   1.505 -1.1197 -0.2525 -0.6137
  453MOL0     C61080   3.552   6.746   1.518  0.4797  0.0172 -0.5909
  453MOL0     C61081   3.597   6.853   1.415  0.4939 -0.3442 -0.0137
  453MOL0     C61082   3.756   6.862   1.424 -0.1522 -0.1085  0.5274
  453MOL0     C61083   3.808   6.956   1.313 -0.7362  0.7397  0.3634
  453MOL0     C61084   3.946   6.980   1.341 -0.5119 -0.8121 -0.1168
  453MOL0     C61085   4.063   7.009   1.349  0.6714  0.3496 -0.5914
  453MOL0     C61086   3.438   6.617   1.292 -0.1212 -0.5264  1.2973
  453MOL0     C61087   3.385   6.554   1.179 -0.8016 -0.3936 -0.2770
  453MOL0     H61088   3.361   6.229   0.901  0.0715 -1.6896 -0.4705
  453MOL0     H61089   3.294   6.066   0.688  2.3138  1.9916  1.3307
  453MOL0     H61090   2.881   6.071   0.545  2.1394 -1.8305  3.7047
  453MOL0     H61091   2.968   6.180   0.429  0.0622  0.0769  0.5424
  453MOL0     H61092   3.020   5.891   0.436  1.3459  0.6496  0.1531
  453MOL0     H61093   2.882   5.961   0.329  1.3794 -2.9567 -1.0588
  453MOL0     H61094   3.108   6.100   0.256 -0.6031 -0.3604 -2.7241
  453MOL0     H61095   3.182   5.946   0.313  0.0376 -1.1640 -1.7022
  453MOL0     H61096   2.958   5.991   0.102  0.8339  1.2009  0.3143
  453MOL0     H61097   3.120   5.955   0.077 -0.6979  1.8087 -1.1673
  453MOL0     H61098   3.105   5.736   0.205  0.5270  0.3549 -1.3043
  453MOL0     H61099   2.936   5.769   0.235  2.1706 -0.7823  2.1481
  453MOL0     H61100   2.929   5.615   0.056 -1.5506  1.4159 -0.1712
  453MOL0     H61101   2.901   5.770  -0.018  2.0120  3.6835  3.0475
  453MOL0     H61102   3.132   5.785  -0.103  2.9114 -1.9939 -0.1614
  453MOL0     H61103   3.163   5.634  -0.027 -1.8537 -0.7238  1.7860
  453MOL0     H61104   2.938   5.669  -0.231 -0.6939 -1.5221 -1.0322
  453MOL0     H61105   2.984   5.513  -0.161  2.8582 -2.4021 -1.1123
  453MOL0     H61106   3.020   5.658  -0.479  1.2838  0.8730 -0.2945
  453MOL0     H61107   3.221   5.531  -0.687  2.4941 -0.5180  0.1694
  453MOL0     H61108   3.168   5.696  -0.662 -0.7863 -0.3931 -0.2448
  453MOL0     H61109   3.442   5.588  -0.617  0.6847  0.3148  1.2822
  453MOL0     H61110   3.398   5.777  -0.606 -0.9001  0.1822  0.2005
  453MOL0     H61111   3.471   5.587  -0.824  2.3435  0.5520 -0.2942
  453MOL0     H61112   3.519   5.748  -0.793  0.0155 -0.0494  3.0121
  453MOL0     H61113   3.271   5.836  -0.854  0.1688 -0.5626  1.5114
  453MOL0     H61114   3.264   5.681  -0.938  0.7651  1.8432 -4.2281
  453MOL0     H61115   3.280   6.015  -1.041 -1.8879  0.3125 -0.0422
  453MOL0     H61116   3.108   6.148  -1.337 -0.3475 -0.1527 -0.2951
  453MOL0     H61117   3.006   6.078  -1.206  0.1607  1.1465 -2.2396
  453MOL0     H61118   3.161   6.173  -1.181  1.4698 -0.4193  1.7694
  453MOL0     H61119   2.876   6.014  -1.624 -0.8885 -1.1899 -1.4905
  453MOL0     H61120   2.798   6.001  -1.842 -0.3933 -5.2235  1.7036
  453MOL0     H61121   3.095   5.997  -2.176  0.0685 -3.4372 -2.1374
  453MOL0     H61122   2.970   5.883  -2.134 -0.8247  1.6014  5.7904
  453MOL0     H61123   2.935   6.114  -2.331  2.0761 -1.0250 -1.5628
  453MOL0     H61124   2.939   5.931  -2.351  4.1635  2.2347 -0.2355
  453MOL0     H61125   2.722   6.078  -2.187  1.0445 -0.8574  0.0500
  453MOL0     H61126   2.723   5.917  -2.259 -0.2285 -0.4838  0.9042
  453MOL0     H61127   2.722   6.188  -2.387  0.2411 -0.1832  0.7218
  453MOL0     H61128   2.707   6.037  -2.488 -2.7636 -0.0415  0.5018
  453MOL0     H61129   2.499   6.124  -2.465 -0.8926  1.9732  0.8599
  453MOL0     H61130   2.506   6.128  -2.290  2.1044 -0.8420  1.1122
  453MOL0     H61131   2.544   5.859  -2.441  0.5471  0.3189 -0.1047
  453MOL0     H61132   2.503   5.885  -2.269 -3.3905  2.3568  0.8745
  453MOL0     H61133   2.311   5.982  -2.479 -0.8867  0.2376  0.2366
  453MOL0     H61134   2.292   5.988  -2.305  2.1807  2.5607 -0.2681
  453MOL0     H61135   2.331   5.728  -2.467 -0.2686 -1.4426  0.8056
  453MOL0     H61136   2.180   5.805  -2.447  1.0833  2.2935 -3.3409
  453MOL0     H61137   3.197   6.103  -1.980 -1.1956  1.2964 -0.9745
  453MOL0     H61138   3.280   6.080  -1.739 -1.3916  3.7571  1.3973
  453MOL0     H61139   3.253   5.683  -1.413  0.8013  0.8851 -0.5535
  453MOL0     H61140   3.402   5.655  -1.198  1.6301  0.4152  1.0414
  453MOL0     H61141   2.947   6.294   0.642  1.4309 -1.6320 -1.9252
  453MOL0     H61142   3.022   6.460   0.825  0.7608 -0.2940  1.3055
  453MOL0     H61143   3.060   6.617   1.261 -0.4797 -2.5497 -2.9112
  453MOL0     H61144   3.148   6.714   1.452 -2.0430 -3.8697  0.5435
  453MOL0     H61145   3.570   6.771   1.623  1.4960 -0.9821 -0.5065
  453MOL0     H61146   3.592   6.645   1.503 -2.7047 -1.8007  1.7838
  453MOL0     H61147   3.556   6.949   1.447  0.0214  0.0281 -1.6285
  453MOL0     H61148   3.561   6.823   1.316 -2.9306 -1.0538  1.3153
  453MOL0     H61149   3.811   6.767   1.418 -0.2361 -0.0625 -2.0182
  453MOL0     H61150   3.782   6.901   1.523  0.8030  0.7546 -0.0475
  453MOL0     H61151   3.775   7.060   1.306  0.2421  0.9308 -3.1365
  453MOL0     H61152   3.797   6.899   1.221 -1.6386 -0.6397  1.2958
  453MOL0     H61153   4.168   7.015   1.369  0.8770 -2.4312 -0.5908
  453MOL0     H61154   3.545   6.602   1.294 -0.1346 -1.1266 -0.4621
  453MOL0     H61155   3.449   6.498   1.112 -0.7967 -3.0673  1.7738
  454MOL0     O61156   1.434   7.477   6.674 -0.2207 -0.3585  1.1749
  454MOL0     C61157   1.551   7.516   6.661  0.6832 -1.4756 -1.1326
  454MOL0     O61158   1.590   7.647   6.688 -0.1525 -0.6441 -0.4269
  454MOL0     C61159   1.489   7.749   6.699 -0.1440  0.1485  0.3083
  454MOL0     C61160   1.507   7.866   6.620  0.7645  0.3377 -0.2005
  454MOL0     C61161   1.395   7.956   6.616  0.4747  0.9734 -0.7866
  454MOL0     C61162   1.292   7.950   6.702  0.3626 -0.8086  0.8407
  454MOL0     O61163   1.201   8.052   6.685  0.0728  0.0636 -0.6511
  454MOL0     C61164   1.084   8.061   6.764  0.0098  0.0278 -0.6775
  454MOL0     C61165   0.989   8.160   6.695 -0.1781 -0.3259  0.3691
  454MOL0     C61166   0.952   8.093   6.557  0.3114  0.1260 -0.4050
  454MOL0     C61167   0.908   8.195   6.455  0.9115 -0.2296  0.7454
  454MOL0     C61168   0.868   8.125   6.323 -0.1132  0.5106  0.0603
  454MOL0     C61169   0.828   8.226   6.216 -0.8356  0.3159 -0.3758
  454MOL0     C61170   0.810   8.160   6.081 -0.8271  0.3074 -0.4597
  454MOL0     C61171   0.761   8.256   5.983  0.2798 -1.1946  0.3163
  454MOL0     N61172   0.627   8.323   6.001 -0.2025 -0.5524  1.0325
  454MOL0     C61173   0.505   8.270   6.044  0.3168  0.1341  0.5283
  454MOL0     C61174   0.410   8.358   6.010  0.8130 -0.3073  0.0271
  454MOL0     C61175   0.261   8.369   6.033  0.2974 -0.5842 -1.3381
  454MOL0     C61176   0.236   8.509   6.082  0.2575 -0.3118  0.0435
  454MOL0     C61177   0.093   8.519   6.148 -0.5303  0.1674 -0.5123
  454MOL0     C61178  -0.033   8.487   6.055  0.5048 -0.4894 -0.1567
  454MOL0     O61179  -0.149   8.545   6.128 -0.5620  0.0729  0.6885
  454MOL0     C61180  -0.248   8.463   6.182 -0.5098 -0.6482  0.2017
  454MOL0     C61181  -0.303   8.513   6.301 -0.2241 -0.1063  0.0553
  454MOL0     C61182  -0.400   8.452   6.378 -0.2372 -0.9488 -0.5472
  454MOL0     C61183  -0.426   8.510   6.516 -0.0074  0.1542 -0.3033
  454MOL0     C61184  -0.458   8.342   6.324 -0.2805  0.7003  1.5675
  454MOL0     C61185  -0.579   8.274   6.385 -0.2683 -1.2533 -0.6027
  454MOL0     O61186  -0.677   8.251   6.295  0.3309  0.2838  0.2247
  454MOL0     C61187  -0.809   8.235   6.340  0.8711  0.1563 -1.0828
  454MOL0     C61188  -0.843   8.108   6.387  0.0826 -0.4093  0.1621
  454MOL0     C61189  -0.962   8.083   6.457 -0.2925  0.2910  0.1572
  454MOL0     C61190  -1.052   8.188   6.463  0.2700 -0.3555  0.3441
  454MOL0     O61191  -1.156   8.183   6.543 -0.2901  0.2130 -0.8148
  454MOL0     C61192  -1.143   8.140   6.677  0.4951 -0.7607  0.4236
  454MOL0     C61193  -1.087   8.244   6.771  0.1842 -0.1114 -0.1875
  454MOL0     C61194  -1.176   8.371   6.778 -0.0412  0.1520 -0.9195
  454MOL0     C61195  -1.104   8.479   6.854 -0.1661 -0.4059  0.6015
  454MOL0     C61196  -1.201   8.606   6.865 -0.2543 -0.4737 -0.8784
  454MOL0     C61197  -1.155   8.704   6.977  0.1825 -0.4139  0.0888
  454MOL0     C61198  -1.265   8.808   7.006  0.0019 -0.0709 -0.8111
  454MOL0     C61199  -1.238   8.894   7.134  0.6735  0.3892  0.6969
  454MOL0    Cl61200  -1.273   8.787   7.287  0.0478 -0.3373  0.3148
  454MOL0     C61201  -1.030   8.312   6.400  0.0130  0.8630 -0.3828
  454MOL0     C61202  -0.905   8.336   6.356 -0.9616  0.0908 -0.2825
  454MOL0     O61203  -0.568   8.230   6.506  0.6233 -0.5129  0.7554
  454MOL0     C61204  -0.398   8.282   6.203  0.0980  0.1911  0.8509
  454MOL0     C61205  -0.286   8.338   6.136  0.5933 -0.3183 -0.3135
  454MOL0     N61206   0.464   8.454   5.934 -1.2351  1.2250 -0.2330
  454MOL0     N61207   0.593   8.442   5.935 -0.3349 -0.2557  1.2746
  454MOL0     C61208   1.281   7.841   6.794  0.1656 -0.1879  0.7411
  454MOL0     C61209   1.374   7.734   6.788 -0.5417 -0.4655  0.6073
  454MOL0     C61210   1.657   7.418   6.618  0.2770  0.4273  1.2378
  454MOL0     C61211   1.609   7.296   6.572 -0.3088  0.8830 -0.1071
  454MOL0     C61212   1.713   7.207   6.536  0.1106  0.0153  0.6724
  454MOL0     C61213   1.853   7.232   6.529 -0.9270 -1.6207  1.6603
  454MOL0     O61214   1.944   7.138   6.488  0.5045 -0.2519 -0.3663
  454MOL0     C61215   2.080   7.184   6.465 -0.1153 -0.3469  0.3306
  454MOL0     C61216   2.139   7.074   6.368  0.7701 -0.8776 -0.9965
  454MOL0     C61217   2.104   7.082   6.217 -0.2541  0.1247 -0.3271
  454MOL0     C61218   2.211   7.021   6.132 -0.1651 -0.1702 -0.2728
  454MOL0     C61219   2.196   7.047   5.985  0.0692 -0.4557 -0.5923
  454MOL0     C61220   2.166   7.078   5.869 -0.1215  0.0759  1.4532
  454MOL0     C61221   1.898   7.354   6.591  0.7995  0.3141 -0.8050
  454MOL0     C61222   1.790   7.454   6.618 -0.4155  0.1513 -0.1626
  454MOL0     H61223   1.604   7.879   6.574  1.9112 -0.8730  1.7446
  454MOL0     H61224   1.397   8.038   6.545  1.8367 -0.8619 -2.9983
  454MOL0     H61225   1.039   7.962   6.759 -0.0425 -0.0511  0.7743
  454MOL0     H61226   1.105   8.080   6.870 -5.1805  0.0129  0.6285
  454MOL0     H61227   0.900   8.174   6.758 -0.1256  2.9315 -0.1322
  454MOL0     H61228   1.044   8.253   6.685  0.5733 -0.5067  2.3093
  454MOL0     H61229   1.038   8.043   6.511  1.4642  1.4059  0.2678
  454MOL0     H61230   0.875   8.019   6.578  0.1769  0.7288  1.3462
  454MOL0     H61231   0.832   8.268   6.487  0.2855 -0.7831  0.5554
  454MOL0     H61232   0.996   8.259   6.445 -0.2042  1.2589  0.0930
  454MOL0     H61233   0.954   8.064   6.292 -0.7237 -0.7461  0.7732
  454MOL0     H61234   0.794   8.047   6.344  3.6643 -2.8876  2.6665
  454MOL0     H61235   0.739   8.283   6.244 -0.3538 -0.0972  2.1949
  454MOL0     H61236   0.909   8.299   6.205  0.9959 -1.0033  2.8179
  454MOL0     H61237   0.904   8.118   6.046 -0.4216  0.7896  0.0236
  454MOL0     H61238   0.740   8.076   6.094  0.0719 -0.6205 -1.4417
  454MOL0     H61239   0.764   8.207   5.885 -1.2731  0.8286 -0.8153
  454MOL0     H61240   0.828   8.342   5.976 -1.2043  0.5524  4.3519
  454MOL0     H61241   0.486   8.179   6.100 -2.2580  0.9731  1.1773
  454MOL0     H61242   0.193   8.342   5.952 -4.6722 -0.3715  2.3467
  454MOL0     H61243   0.232   8.293   6.106 -0.0190  0.3412 -0.4789
  454MOL0     H61244   0.246   8.568   5.991  1.0371  0.6425  0.7252
  454MOL0     H61245   0.327   8.534   6.137  0.7630  2.3593 -1.8467
  454MOL0     H61246   0.081   8.621   6.185  2.2450  0.0360  1.0030
  454MOL0     H61247   0.094   8.462   6.242 -1.8952 -0.9915 -1.1655
  454MOL0     H61248  -0.032   8.380   6.032  0.5059 -0.5664  0.2009
  454MOL0     H61249  -0.030   8.538   5.958  0.1553 -2.7223 -1.4230
  454MOL0     H61250  -0.254   8.601   6.340 -1.3494 -0.1857  1.7267
  454MOL0     H61251  -0.438   8.618   6.505  0.8975  0.3723  0.6738
  454MOL0     H61252  -0.513   8.470   6.569  2.6215 -2.0851  2.7588
  454MOL0     H61253  -0.339   8.482   6.576 -0.4930 -3.5410 -1.0767
  454MOL0     H61254  -0.768   8.032   6.366  2.4339  1.3618  1.6563
  454MOL0     H61255  -0.990   7.983   6.489 -2.4484  0.7093 -0.2888
  454MOL0     H61256  -1.243   8.129   6.722  1.5459  1.0496  3.4931
  454MOL0     H61257  -1.097   8.042   6.693  1.4075 -0.4200 -0.0855
  454MOL0     H61258  -1.073   8.208   6.874  0.5117 -1.2577 -0.6260
  454MOL0     H61259  -0.981   8.266   6.757  1.1286 -1.5132  3.4442
  454MOL0     H61260  -1.270   8.336   6.823  0.7141 -0.9293 -0.0958
  454MOL0     H61261  -1.197   8.413   6.680 -2.5443 -1.8252 -1.3316
  454MOL0     H61262  -1.077   8.445   6.954 -0.7812 -0.8306  0.6286
  454MOL0     H61263  -1.008   8.506   6.810  0.6890 -2.1174  1.3312
  454MOL0     H61264  -1.296   8.569   6.904  0.9858  1.4190  5.0219
  454MOL0     H61265  -1.207   8.652   6.766 -0.2871  2.3823  0.3597
  454MOL0     H61266  -1.150   8.655   7.075 -3.0313  4.0566  2.8790
  454MOL0     H61267  -1.056   8.743   6.954 -0.0147 -0.5842 -1.1051
  454MOL0     H61268  -1.359   8.754   7.017  1.8070 -2.9607  2.5952
  454MOL0     H61269  -1.276   8.878   6.923  1.6837  1.3212  0.0671
  454MOL0     H61270  -1.311   8.975   7.132  0.1603  0.1862 -4.5313
  454MOL0     H61271  -1.134   8.926   7.133  1.4565 -1.9263 -0.5205
  454MOL0     H61272  -1.101   8.391   6.421 -0.2375  0.0002  2.3400
  454MOL0     H61273  -0.883   8.440   6.332 -1.9666  0.4051  0.0842
  454MOL0     H61274  -0.441   8.191   6.164  1.5515  0.4471 -1.5974
  454MOL0     H61275  -0.247   8.299   6.043  3.4840 -0.2042  0.7597
  454MOL0     H61276   1.206   7.818   6.869  2.4701  0.2291  3.3452
  454MOL0     H61277   1.359   7.644   6.846  1.3870 -1.6584 -0.6131
  454MOL0     H61278   1.504   7.275   6.556  0.1860 -1.1276 -1.0033
  454MOL0     H61279   1.681   7.116   6.487  0.2854  0.8540 -1.0717
  454MOL0     H61280   2.085   7.280   6.414  1.1822 -0.1778  0.7382
  454MOL0     H61281   2.143   7.188   6.554  0.3391  1.4054 -0.0339
  454MOL0     H61282   2.109   6.974   6.402  0.1324 -0.3240  0.1203
  454MOL0     H61283   2.248   7.070   6.376  0.9749 -0.0110 -2.7983
  454MOL0     H61284   2.085   7.185   6.187 -1.5490 -0.5790 -2.1100
  454MOL0     H61285   2.005   7.037   6.207 -0.4180  0.5429 -0.6247
  454MOL0     H61286   2.223   6.914   6.150 -1.7891 -0.4763 -0.8270
  454MOL0     H61287   2.300   7.082   6.153 -0.8073  1.1167 -1.1287
  454MOL0     H61288   2.134   7.109   5.772 -1.6849 -3.6279  0.6173
  454MOL0     H61289   2.001   7.383   6.606  0.4259  2.1660 -1.5761
  454MOL0     H61290   1.828   7.549   6.654  1.3419 -0.3210 -0.6811
  455MOL0     O61291  10.796   6.994   3.996  0.4903 -0.4049  0.6594
  455MOL0     C61292  10.755   7.040   3.890 -0.5977  0.6876  0.3669
  455MOL0     O61293  10.722   7.167   3.878  0.0642 -0.5364 -0.3186
  455MOL0     C61294  10.735   7.255   3.988 -0.5886  0.9010  0.2269
  455MOL0     C61295  10.632   7.271   4.074  0.2329 -0.4712  0.0450
  455MOL0     C61296  10.639   7.362   4.182  0.4084  0.1847 -0.8314
  455MOL0     C61297  10.747   7.448   4.195 -0.3388  0.2126  0.0446
  455MOL0     O61298  10.772   7.540   4.301  0.3738 -0.4061  0.4150
  455MOL0     C61299  10.665   7.540   4.400 -0.8510  0.1901 -0.1717
  455MOL0     C61300  10.704   7.636   4.519 -0.0380  0.0373 -0.4426
  455MOL0     C61301  10.680   7.781   4.499 -0.1798 -0.4017  0.9789
  455MOL0     C61302  10.702   7.867   4.627 -0.7271  0.0595 -1.1933
  455MOL0     C61303  10.857   7.895   4.647 -0.3736 -0.8120 -1.1358
  455MOL0     C61304  10.899   7.953   4.787  0.6725  1.3502  0.1786
  455MOL0     C61305  10.833   8.084   4.821 -0.3880  0.0803 -0.3112
  455MOL0     C61306  10.839   8.191   4.719 -0.7732 -0.9091 -0.1075
  455MOL0     N61307  10.808   8.326   4.767  0.2190 -0.1946 -1.3160
  455MOL0     C61308  10.732   8.361   4.886  0.0735 -0.5017  0.5763
  455MOL0     C61309  10.683   8.485   4.844  0.5984 -0.8891 -0.2568
  455MOL0     C61310  10.595   8.587   4.916  0.3717  0.1047  1.1938
  455MOL0     C61311  10.506   8.540   5.025  0.1019  0.3847  0.6966
  455MOL0     C61312  10.378   8.466   4.979 -0.3556 -0.3362  0.2654
  455MOL0     C61313  10.279   8.465   5.103 -0.9135 -0.1364  0.8123
  455MOL0     O61314  10.184   8.573   5.110 -0.1950  0.1007 -0.3940
  455MOL0     C61315  10.093   8.604   5.009  0.4444  0.1832  0.2135
  455MOL0     C61316  10.051   8.739   4.995 -0.9251  1.0949  0.1762
  455MOL0     C61317   9.959   8.779   4.895 -0.2960  0.7840  0.7549
  455MOL0     C61318   9.930   8.924   4.889  0.0685  0.2094 -0.4052
  455MOL0     C61319   9.901   8.680   4.815 -0.4683  0.5215 -0.0397
  455MOL0     C61320   9.784   8.698   4.719 -0.4468  0.4506 -1.0976
  455MOL0     O61321   9.744   8.582   4.651 -0.6496  0.1939 -0.1998
  455MOL0     C61322   9.617   8.583   4.586  0.2977 -0.3395 -1.0353
  455MOL0     C61323   9.621   8.548   4.450 -0.6165 -0.0821 -1.4554
  455MOL0     C61324   9.500   8.549   4.377  0.2915 -0.2557 -0.2844
  455MOL0     C61325   9.386   8.588   4.439 -0.1098  0.9020  0.2903
  455MOL0     O61326   9.273   8.602   4.367  0.1907 -0.2865  0.3870
  455MOL0     C61327   9.221   8.516   4.280 -0.3336 -0.1922 -0.0503
  455MOL0     C61328   9.257   8.555   4.136 -0.6998  0.1781  0.1431
  455MOL0     C61329   9.178   8.467   4.031  0.2082 -0.1496 -0.8830
  455MOL0     C61330   9.033   8.504   4.025  0.6022 -0.5101 -0.5973
  455MOL0     C61331   8.982   8.647   3.993  0.9424  0.6055  0.1975
  455MOL0     C61332   8.828   8.663   3.970 -0.5136 -0.5745  0.5521
  455MOL0     C61333   8.746   8.669   4.107 -0.1215 -0.4877 -0.0031
  455MOL0     C61334   8.599   8.667   4.066  0.1957 -1.3792 -0.5065
  455MOL0    Cl61335   8.500   8.679   4.219 -0.1402 -0.1617 -0.2243
  455MOL0     C61336   9.384   8.618   4.577  0.0302  0.5574 -0.2870
  455MOL0     C61337   9.501   8.622   4.648 -1.0270 -0.4606 -0.1285
  455MOL0     O61338   9.719   8.806   4.722 -0.0365  0.0179  0.4999
  455MOL0     C61339   9.949   8.548   4.819  0.2828 -0.3337  0.2645
  455MOL0     C61340  10.049   8.512   4.912  1.1223 -0.1742 -0.6520
  455MOL0     N61341  10.718   8.508   4.713  0.3773 -0.4498 -0.0832
  455MOL0     N61342  10.790   8.417   4.668 -0.2246 -0.9468  0.1766
  455MOL0     C61343  10.849   7.433   4.102 -1.2969 -0.0392 -0.3969
  455MOL0     C61344  10.846   7.345   3.995 -0.5551  0.5707  0.2684
  455MOL0     C61345  10.747   6.954   3.768  0.2440  0.4687 -0.6113
  455MOL0     C61346  10.720   7.017   3.650  0.9725 -0.3177 -0.0043
  455MOL0     C61347  10.703   6.943   3.536 -0.1036  0.0583 -0.8326
  455MOL0     C61348  10.726   6.804   3.540  0.9593 -0.2685  0.4474
  455MOL0     O61349  10.722   6.738   3.417 -0.0631 -0.8488  0.3666
  455MOL0     C61350  10.665   6.612   3.416 -0.4424  0.2194 -0.2081
  455MOL0     C61351  10.512   6.596   3.461  0.0077  0.3415  0.6935
  455MOL0     C61352  10.423   6.700   3.387 -0.5469 -0.1512  0.1208
  455MOL0     C61353  10.279   6.715   3.438  0.9786  0.2558 -1.1585
  455MOL0     C61354  10.284   6.802   3.558 -0.5854  0.8949  0.6988
  455MOL0     C61355  10.295   6.862   3.662 -0.7122  0.7370  0.3234
  455MOL0     C61356  10.764   6.740   3.658  0.1680 -0.1317 -0.9281
  455MOL0     C61357  10.776   6.814   3.779  1.1696  0.0798 -0.5192
  455MOL0     H61358  10.537   7.221   4.055  1.0340 -1.7645 -0.6606
  455MOL0     H61359  10.560   7.353   4.256 -0.8411 -1.6703 -2.2737
  455MOL0     H61360  10.571   7.574   4.357 -2.2757 -1.2082  1.6708
  455MOL0     H61361  10.651   7.439   4.440 -3.4486  1.1495  1.6191
  455MOL0     H61362  10.637   7.615   4.602 -0.2387  1.1716 -0.2926
  455MOL0     H61363  10.808   7.609   4.543  0.7227  0.9031 -2.5007
  455MOL0     H61364  10.738   7.801   4.408  0.2119  0.0180  1.3176
  455MOL0     H61365  10.579   7.813   4.473  0.4831  2.2795  1.4022
  455MOL0     H61366  10.650   7.963   4.613 -1.2442  0.5635  2.9671
  455MOL0     H61367  10.665   7.815   4.715  1.9739  1.5064  0.9445
  455MOL0     H61368  10.918   7.806   4.629 -0.1791 -0.8585 -0.2700
  455MOL0     H61369  10.888   7.975   4.579 -0.9748  0.9576  0.5927
  455MOL0     H61370  10.879   7.870   4.857  1.8909 -2.4037 -3.4917
  455MOL0     H61371  11.008   7.962   4.788  0.6048  2.1670  0.8268
  455MOL0     H61372  10.737   8.076   4.873  0.0177 -1.6332  0.2158
  455MOL0     H61373  10.901   8.112   4.902 -0.9519 -1.8437  0.8807
  455MOL0     H61374  10.768   8.179   4.637  0.4851 -0.3200 -1.3039
  455MOL0     H61375  10.942   8.199   4.684 -0.1305 -0.7178  1.6838
  455MOL0     H61376  10.724   8.304   4.978  0.1869  0.1237  0.9807
  455MOL0     H61377  10.660   8.670   4.946  0.5924  0.7419 -0.8867
  455MOL0     H61378  10.535   8.632   4.837  1.6392  1.3012  0.8734
  455MOL0     H61379  10.468   8.626   5.081  0.4513 -0.4409  2.2645
  455MOL0     H61380  10.561   8.470   5.089 -3.1227 -2.4614  0.6891
  455MOL0     H61381  10.409   8.366   4.947 -1.1148 -0.3318 -0.5159
  455MOL0     H61382  10.324   8.521   4.901  1.1026  0.1798 -0.4252
  455MOL0     H61383  10.343   8.466   5.191  0.1635  0.7319  0.0562
  455MOL0     H61384  10.222   8.371   5.103 -0.0795 -0.7519 -2.0981
  455MOL0     H61385  10.088   8.799   5.077 -3.5794  2.1860  0.6880
  455MOL0     H61386  10.002   8.983   4.947 -0.8441  0.1178  0.8461
  455MOL0     H61387   9.938   8.956   4.784  0.9397  1.1847 -0.0659
  455MOL0     H61388   9.830   8.941   4.929  0.4512  0.6215  0.3868
  455MOL0     H61389   9.714   8.522   4.400  0.1905  0.7787 -0.4481
  455MOL0     H61390   9.506   8.533   4.270  0.5624 -3.4604  0.0853
  455MOL0     H61391   9.259   8.417   4.305 -1.8426  0.0584  4.0536
  455MOL0     H61392   9.113   8.508   4.298 -0.1844 -3.2068 -0.1009
  455MOL0     H61393   9.249   8.664   4.123  0.3545  0.5463  2.1502
  455MOL0     H61394   9.364   8.534   4.128 -1.3712 -5.0313  1.1322
  455MOL0     H61395   9.204   8.367   4.068 -1.4594  0.0113  0.8570
  455MOL0     H61396   9.226   8.471   3.932  1.5456 -1.1549 -0.3052
  455MOL0     H61397   8.986   8.430   3.959  1.8490 -0.8900 -1.0869
  455MOL0     H61398   8.982   8.479   4.119 -2.6652  1.6000 -1.6610
  455MOL0     H61399   9.034   8.664   3.898 -0.7640  0.0435 -0.8817
  455MOL0     H61400   9.005   8.717   4.074  3.0260  0.4613 -0.2118
  455MOL0     H61401   8.808   8.757   3.918 -2.1249 -1.1266  0.1339
  455MOL0     H61402   8.799   8.574   3.914  1.2931 -2.7403  2.7991
  455MOL0     H61403   8.778   8.757   4.164  1.3264 -1.2619  0.4354
  455MOL0     H61404   8.766   8.595   4.185 -1.4423  0.6395  1.4792
  455MOL0     H61405   8.572   8.570   4.023 -3.9444 -1.1478  1.1101
  455MOL0     H61406   8.573   8.751   4.001 -1.5805 -0.4350  1.3044
  455MOL0     H61407   9.302   8.673   4.623  0.5065  2.8733 -2.0188
  455MOL0     H61408   9.511   8.662   4.749  2.3244  1.0694 -0.9188
  455MOL0     H61409   9.911   8.472   4.751 -0.1465 -0.1105  0.2532
  455MOL0     H61410  10.083   8.409   4.920  0.2990 -0.3741  0.5732
  455MOL0     H61411  10.942   7.488   4.115 -1.6696  0.6195 -0.4982
  455MOL0     H61412  10.928   7.334   3.925 -0.5766 -0.3386  0.3780
  455MOL0     H61413  10.701   7.123   3.643 -0.0781 -0.5256 -0.4645
  455MOL0     H61414  10.664   6.991   3.447 -3.2952 -0.2092  0.2924
  455MOL0     H61415  10.672   6.574   3.314  0.4871  0.9866 -0.4459
  455MOL0     H61416  10.731   6.540   3.467 -0.6525  0.1798  0.0076
  455MOL0     H61417  10.521   6.621   3.567  3.6382 -0.0642  0.6063
  455MOL0     H61418  10.489   6.490   3.452  0.9876  0.0475  1.3720
  455MOL0     H61419  10.415   6.677   3.280  1.7790  1.0280 -0.3816
  455MOL0     H61420  10.462   6.802   3.391 -2.7989  0.8629 -1.8577
  455MOL0     H61421  10.246   6.615   3.468  1.8830  0.0998 -0.6469
  455MOL0     H61422  10.214   6.764   3.365 -1.9497 -1.4686  0.1156
  455MOL0     H61423  10.301   6.906   3.759  1.3537 -0.0356  0.6120
  455MOL0     H61424  10.769   6.631   3.664 -3.2141 -0.3335  0.3778
  455MOL0     H61425  10.791   6.760   3.873 -2.3574 -1.1382 -0.4965
  456MOL0     O61426   8.407   7.611   8.587  0.0809  0.4501  0.2972
  456MOL0     C61427   8.399   7.539   8.681 -0.4107  0.0336 -0.7652
  456MOL0     O61428   8.502   7.532   8.777  0.2600 -0.2810  0.1440
  456MOL0     C61429   8.615   7.610   8.775  0.4005  1.0024 -0.1173
  456MOL0     C61430   8.619   7.741   8.740  0.5282 -0.4873  0.0024
  456MOL0     C61431   8.738   7.813   8.740  0.2930  0.0575 -0.6416
  456MOL0     C61432   8.859   7.755   8.776  0.7307 -1.3547  0.0590
  456MOL0     O61433   8.983   7.817   8.772 -0.0110 -0.1281 -0.6303
  456MOL0     C61434   8.976   7.960   8.784 -0.1610 -1.3354  0.6012
  456MOL0     C61435   9.104   8.041   8.820  0.4908  0.0017  0.0817
  456MOL0     C61436   9.074   8.187   8.789 -0.0637  0.6172  0.1046
  456MOL0     C61437   9.189   8.287   8.812 -0.2533  0.7286  0.7205
  456MOL0     C61438   9.207   8.321   8.958 -0.2170  0.1926 -0.3976
  456MOL0     C61439   9.311   8.433   8.986 -0.3435 -0.7302  0.1556
  456MOL0     C61440   9.335   8.481   9.124  0.3817  0.0017 -0.2923
  456MOL0     C61441   9.428   8.606   9.124  0.2716  0.2038 -0.7193
  456MOL0     N61442   9.468   8.647   9.262 -1.6582  0.4755  0.4164
  456MOL0     C61443   9.473   8.781   9.292 -0.1038  0.1652  1.5263
  456MOL0     C61444   9.540   8.780   9.409 -0.3030  0.5004 -0.6378
  456MOL0     C61445   9.577   8.899   9.482  0.2464  0.8508 -0.0404
  456MOL0     C61446   9.677   8.983   9.401 -0.0112 -0.5785  0.3147
  456MOL0     C61447   9.733   9.119   9.466 -0.0186  0.2876 -0.4860
  456MOL0     C61448   9.868   9.094   9.546 -0.7073  0.2386  0.4866
  456MOL0     O61449   9.971   9.027   9.463 -0.4651  0.3237 -0.2280
  456MOL0     C61450  10.101   9.073   9.455  0.3600 -0.8771 -0.2457
  456MOL0     C61451  10.180   8.981   9.388  0.3102 -0.4516 -0.9851
  456MOL0     C61452  10.323   8.984   9.390  0.2278 -0.3915  1.0848
  456MOL0     C61453  10.386   8.866   9.323  1.5355 -0.7895 -0.2579
  456MOL0     C61454  10.387   9.094   9.453  0.0056  1.2870  0.4106
  456MOL0     C61455  10.539   9.103   9.473  0.0738 -0.8555  0.3718
  456MOL0     O61456  10.627   9.019   9.406  0.7454 -0.4431  0.0087
  456MOL0     C61457  10.764   9.042   9.392  0.8320 -0.0467 -0.5669
  456MOL0     C61458  10.847   8.934   9.436 -0.0656 -0.2199  0.2071
  456MOL0     C61459  10.987   8.946   9.416  0.7037 -0.3418 -0.4457
  456MOL0     C61460  11.052   9.061   9.367  0.6527  0.2373  0.0672
  456MOL0     O61461  11.187   9.064   9.353 -0.5981  0.4684  0.2413
  456MOL0     C61462  11.252   9.188   9.355 -0.0734 -0.2935  1.2950
  456MOL0     C61463  11.405   9.161   9.370  0.2946  0.2525  0.7107
  456MOL0     C61464  11.462   9.074   9.258  0.4559 -0.1872  0.0523
  456MOL0     C61465  11.601   9.030   9.309 -1.6172 -0.2297  0.0150
  456MOL0     C61466  11.659   8.918   9.203 -0.4127 -0.3356 -0.2316
  456MOL0     C61467  11.810   8.882   9.225 -0.3584  0.5883 -0.3294
  456MOL0     C61468  11.856   8.784   9.113 -0.5503 -0.3422  1.0288
  456MOL0     C61469  11.929   8.859   9.000 -0.5129 -0.1086  0.3059
  456MOL0    Cl61470  12.090   8.913   9.058 -0.5592  0.2796 -0.2797
  456MOL0     C61471  10.961   9.165   9.330  0.3622  0.1622  0.6396
  456MOL0     C61472  10.814   9.163   9.341 -0.1214 -0.6126  0.3061
  456MOL0     O61473  10.573   9.217   9.515  0.6251  0.4627 -0.4424
  456MOL0     C61474  10.302   9.188   9.519 -0.0082 -0.5103 -0.1052
  456MOL0     C61475  10.164   9.176   9.521  0.4982  0.5505  0.3764
  456MOL0     N61476   9.583   8.655   9.443  0.3762 -0.6989  0.6820
  456MOL0     N61477   9.552   8.585   9.346  0.3209 -0.9991  0.3042
  456MOL0     C61478   8.854   7.620   8.807  0.2407 -0.0482 -0.3327
  456MOL0     C61479   8.736   7.552   8.813  0.3700  0.6719  0.4555
  456MOL0     C61480   8.269   7.466   8.715 -0.7997 -0.4585 -0.4671
  456MOL0     C61481   8.154   7.530   8.663 -0.2897 -0.7328  0.3507
  456MOL0     C61482   8.033   7.466   8.703  0.0770  0.6107  0.5285
  456MOL0     C61483   8.025   7.353   8.784  0.6136 -0.3042  0.9204
  456MOL0     O61484   7.897   7.310   8.805  0.1399 -0.5027  0.2406
  456MOL0     C61485   7.868   7.186   8.879  0.9470 -0.3918  0.5940
  456MOL0     C61486   7.711   7.170   8.905 -0.7865 -1.1591  0.2787
  456MOL0     C61487   7.630   7.204   8.786 -0.3577  0.1764 -0.6465
  456MOL0     C61488   7.478   7.178   8.799  0.2540  0.1283 -0.3047
  456MOL0     C61489   7.470   7.032   8.791 -0.3025  0.1248  0.0191
  456MOL0     C61490   7.450   6.912   8.786  0.1484 -0.3640 -0.6563
  456MOL0     C61491   8.142   7.295   8.827 -0.1081 -0.5579  0.5483
  456MOL0     C61492   8.267   7.352   8.795  0.6977 -0.5839 -0.2428
  456MOL0     H61493   8.521   7.788   8.733  1.4629  2.0121  2.1439
  456MOL0     H61494   8.736   7.917   8.708  1.4917  1.2776  2.7894
  456MOL0     H61495   8.932   7.994   8.689  0.3494 -2.3413 -0.0119
  456MOL0     H61496   8.913   7.981   8.870 -0.5964 -0.1109  0.0093
  456MOL0     H61497   9.144   8.037   8.922  1.1931  1.6214 -0.1052
  456MOL0     H61498   9.189   8.001   8.765  0.6345 -0.4776  0.6345
  456MOL0     H61499   9.059   8.193   8.681  0.7164  2.0496  0.0544
  456MOL0     H61500   8.986   8.221   8.844 -0.7892  0.8249 -1.1480
  456MOL0     H61501   9.286   8.262   8.769  0.8863  4.0857  1.0336
  456MOL0     H61502   9.167   8.384   8.767 -2.7186 -0.7073 -1.4797
  456MOL0     H61503   9.110   8.346   9.001  1.1136 -0.6932  3.5918
  456MOL0     H61504   9.252   8.236   9.009  1.5488 -0.2010 -2.4670
  456MOL0     H61505   9.405   8.393   8.950 -0.3971 -1.3821  0.7125
  456MOL0     H61506   9.274   8.523   8.936  2.0181  0.5843  0.6448
  456MOL0     H61507   9.238   8.507   9.169 -0.0468  0.5531 -1.4829
  456MOL0     H61508   9.376   8.398   9.181 -0.7775 -1.2465 -1.2129
  456MOL0     H61509   9.387   8.694   9.074  0.3942  0.4398 -0.4078
  456MOL0     H61510   9.513   8.575   9.063 -0.2590 -1.5972 -0.6010
  456MOL0     H61511   9.424   8.863   9.240 -0.7369 -0.9464  0.3076
  456MOL0     H61512   9.492   8.952   9.525  1.0643 -1.1761  4.8267
  456MOL0     H61513   9.632   8.865   9.570 -1.4194 -1.7435  0.1001
  456MOL0     H61514   9.620   9.018   9.315 -0.4423  1.3844  1.3155
  456MOL0     H61515   9.759   8.919   9.370 -1.4405 -2.3528  0.0739
  456MOL0     H61516   9.656   9.149   9.537  0.1525  2.8681 -1.2845
  456MOL0     H61517   9.754   9.198   9.394 -0.0583  0.3194 -0.4634
  456MOL0     H61518   9.838   9.045   9.639 -2.1382  2.1474  1.0966
  456MOL0     H61519   9.914   9.188   9.576  0.7118 -0.7393  1.5411
  456MOL0     H61520  10.125   8.897   9.346  0.1747 -0.3608 -0.9871
  456MOL0     H61521  10.431   8.900   9.229 -1.4435 -0.6211 -1.7331
  456MOL0     H61522  10.460   8.824   9.391  0.4256 -0.9857  0.8598
  456MOL0     H61523  10.310   8.793   9.295  3.2552 -1.9561 -2.2819
  456MOL0     H61524  10.805   8.839   9.466  1.0862 -1.9340 -3.0094
  456MOL0     H61525  11.053   8.869   9.454  0.7463  0.0651  0.3334
  456MOL0     H61526  11.241   9.242   9.261  0.6741 -1.5985  0.4183
  456MOL0     H61527  11.207   9.256   9.428  1.4069  0.9063  1.1345
  456MOL0     H61528  11.451   9.260   9.367  1.6550 -0.3476  0.8746
  456MOL0     H61529  11.419   9.126   9.473 -2.2665  0.6843  1.2761
  456MOL0     H61530  11.460   9.129   9.163  0.5031  0.8695  0.6388
  456MOL0     H61531  11.406   8.981   9.247  2.8494 -1.8395  1.1086
  456MOL0     H61532  11.664   9.119   9.308 -1.5036 -0.3140 -0.6542
  456MOL0     H61533  11.602   8.989   9.410  2.2410  2.4746  1.3057
  456MOL0     H61534  11.649   8.969   9.107 -1.5349 -0.3320 -0.1259
  456MOL0     H61535  11.597   8.828   9.204 -0.8178 -0.0985 -1.9021
  456MOL0     H61536  11.871   8.973   9.232 -0.2397  0.4938 -0.1390
  456MOL0     H61537  11.831   8.825   9.316 -0.7570  1.5324  0.3765
  456MOL0     H61538  11.774   8.730   9.064 -0.0637  0.7209 -1.1043
  456MOL0     H61539  11.928   8.711   9.150 -0.8166 -2.6475 -2.4930
  456MOL0     H61540  11.874   8.941   8.952 -2.2640 -2.4312 -1.9485
  456MOL0     H61541  11.958   8.792   8.919 -1.2328 -1.5183  1.1677
  456MOL0     H61542  11.016   9.242   9.277  1.2314 -0.3282  0.8044
  456MOL0     H61543  10.753   9.246   9.308  1.3787  0.0512 -0.8728
  456MOL0     H61544  10.355   9.274   9.558  1.7517 -0.8928 -1.5262
  456MOL0     H61545  10.116   9.253   9.580 -1.3473  0.7275 -1.2544
  456MOL0     H61546   8.952   7.580   8.832 -0.3545 -0.7642  0.9373
  456MOL0     H61547   8.732   7.449   8.848 -3.3947  0.3462 -0.5195
  456MOL0     H61548   8.166   7.624   8.610  2.6588 -0.8575  0.6018
  456MOL0     H61549   7.937   7.506   8.671  0.7153 -0.8865 -3.9329
  456MOL0     H61550   7.897   7.091   8.834 -0.3989 -0.2487 -0.6444
  456MOL0     H61551   7.910   7.207   8.978 -0.0428  3.9459  0.2855
  456MOL0     H61552   7.695   7.241   8.987 -0.5815  0.0156 -0.6630
  456MOL0     H61553   7.682   7.069   8.936 -0.4316 -1.5673 -0.6690
  456MOL0     H61554   7.678   7.145   8.707  1.0168 -1.2355  1.1506
  456MOL0     H61555   7.639   7.310   8.760 -2.9541  1.1377  1.8378
  456MOL0     H61556   7.423   7.212   8.711  2.6150  0.3964 -1.7639
  456MOL0     H61557   7.438   7.216   8.893  4.2736  2.6318  0.6397
  456MOL0     H61558   7.434   6.806   8.792  0.2394 -0.3001  2.9844
  456MOL0     H61559   8.139   7.210   8.894  0.6940  0.6894  2.2469
  456MOL0     H61560   8.352   7.308   8.846  1.2372  2.2660  1.5339
  457MOL0     O61561   6.596   0.219  11.218 -0.5745  0.5385 -0.0754
  457MOL0     C61562   6.666   0.312  11.251 -0.5155  1.1886 -0.4316
  457MOL0     O61563   6.645   0.400  11.353 -0.3350  0.2656 -0.3722
  457MOL0     C61564   6.534   0.395  11.423 -0.1711  0.1202  0.1321
  457MOL0     C61565   6.533   0.424  11.564 -1.0960 -0.9639 -0.2891
  457MOL0     C61566   6.420   0.416  11.641  0.4324 -0.0031 -0.6774
  457MOL0     C61567   6.297   0.381  11.581 -0.1844  0.2759 -0.0549
  457MOL0     O61568   6.196   0.375  11.666 -0.9366 -0.0616 -0.7285
  457MOL0     C61569   6.067   0.330  11.623 -0.1034  0.4175  0.2076
  457MOL0     C61570   5.958   0.369  11.723  0.4867  0.8594  0.2085
  457MOL0     C61571   5.959   0.521  11.744 -0.1633  0.3509 -0.2322
  457MOL0     C61572   5.845   0.570  11.837  0.2727 -0.3093 -0.3600
  457MOL0     C61573   5.702   0.561  11.774  0.2794  1.1039 -0.1668
  457MOL0     C61574   5.600   0.597  11.873  0.3801 -0.1490 -0.0935
  457MOL0     C61575   5.460   0.620  11.819 -0.3487 -0.3922  0.1796
  457MOL0     C61576   5.361   0.500  11.817  0.0173  0.9197  0.4487
  457MOL0     N61577   5.334   0.459  11.957 -0.2492 -0.1255 -0.1831
  457MOL0     C61578   5.241   0.521  12.045 -0.4309  0.5892  0.3292
  457MOL0     C61579   5.258   0.454  12.166 -0.5568  0.4046  0.4241
  457MOL0     C61580   5.149   0.486  12.272 -0.0262  0.5087  0.7864
  457MOL0     C61581   5.060   0.361  12.294 -0.6191 -0.2023 -0.0885
  457MOL0     C61582   4.949   0.405  12.381  0.5257  0.3285 -0.1302
  457MOL0     C61583   4.859   0.289  12.416  0.0411  0.7164  0.2009
  457MOL0     O61584   4.940   0.197  12.499 -0.0587 -0.1903  0.3525
  457MOL0     C61585   4.886   0.105  12.580  0.1871 -0.2438 -0.3585
  457MOL0     C61586   4.768   0.038  12.552  0.4234  0.4592 -0.1186
  457MOL0     C61587   4.722  -0.061  12.643  0.0809  0.1735  0.4904
  457MOL0     C61588   4.592  -0.127  12.595  0.6647  0.0498 -1.0078
  457MOL0     C61589   4.799  -0.099  12.760  0.1953  0.1805 -0.0047
  457MOL0     C61590   4.761  -0.223  12.835 -0.2423 -0.0683 -0.0340
  457MOL0     O61591   4.856  -0.294  12.893 -0.2109  0.2703  0.0790
  457MOL0     C61592   4.951  -0.359  12.817 -0.1233 -0.3003  0.0024
  457MOL0     C61593   4.936  -0.383  12.682  1.1261 -0.4344  0.1373
  457MOL0     C61594   5.042  -0.437  12.613  0.1027 -0.4794  0.1871
  457MOL0     C61595   5.162  -0.485  12.668 -1.0059  0.5436  0.2600
  457MOL0     O61596   5.257  -0.555  12.581  0.0132  0.4222 -0.0863
  457MOL0     C61597   5.386  -0.572  12.632  0.0174  0.3054  0.3920
  457MOL0     C61598   5.471  -0.644  12.529  0.0390 -0.7523  0.1329
  457MOL0     C61599   5.626  -0.647  12.570  0.2348 -0.2565 -0.2003
  457MOL0     C61600   5.710  -0.683  12.452 -0.4037  0.2832  0.4264
  457MOL0     C61601   5.697  -0.835  12.417 -0.3314 -0.3587 -0.9724
  457MOL0     C61602   5.789  -0.865  12.304  0.4153  0.8840  0.9470
  457MOL0     C61603   5.761  -1.011  12.273  1.0755  0.2574 -0.3785
  457MOL0     C61604   5.837  -1.043  12.150 -0.1912  1.0682  0.4933
  457MOL0    Cl61605   6.009  -1.085  12.207 -0.0345  0.0787  0.2965
  457MOL0     C61606   5.178  -0.461  12.810 -0.2741 -0.1605  0.4491
  457MOL0     C61607   5.073  -0.394  12.880  0.1581  0.2595  0.1592
  457MOL0     O61608   4.642  -0.230  12.860 -1.2347  0.6154 -0.0703
  457MOL0     C61609   4.912  -0.023  12.788 -0.1222  0.1428  0.4505
  457MOL0     C61610   4.952   0.078  12.702 -0.1425  0.8002 -0.7126
  457MOL0     N61611   5.352   0.357  12.150 -0.1924  0.8046 -0.6175
  457MOL0     N61612   5.406   0.368  12.035  0.4486  0.0222 -0.2066
  457MOL0     C61613   6.290   0.359  11.444  0.2537  0.5764  0.7538
  457MOL0     C61614   6.407   0.371  11.366 -0.6421 -0.4449 -0.5143
  457MOL0     C61615   6.790   0.327  11.166  0.6293  1.4131  0.2287
  457MOL0     C61616   6.808   0.251  11.050  0.6040 -1.0236 -0.2137
  457MOL0     C61617   6.928   0.255  10.974 -0.1310 -0.0784  0.4317
  457MOL0     C61618   7.041   0.322  11.034 -0.2545  0.5822  0.4858
  457MOL0     O61619   7.172   0.306  10.986 -0.1583  0.5827 -0.7306
  457MOL0     C61620   7.189   0.339  10.850 -0.0311  0.4588  0.1736
  457MOL0     C61621   7.129   0.463  10.781  0.4105  0.7097  1.0889
  457MOL0     C61622   7.178   0.600  10.834 -0.3146 -0.7285 -0.5375
  457MOL0     C61623   7.158   0.729  10.739 -0.3356  0.3697 -0.2963
  457MOL0     C61624   7.271   0.742  10.649 -0.4267 -0.5297 -0.7531
  457MOL0     C61625   7.379   0.761  10.593  0.5446 -0.9246  0.6975
  457MOL0     C61626   7.026   0.401  11.144  0.4549 -0.1456 -0.2516
  457MOL0     C61627   6.897   0.405  11.208  0.7318  0.0510 -0.2391
  457MOL0     H61628   6.629   0.438  11.613 -1.2348 -0.2543 -0.2153
  457MOL0     H61629   6.426   0.453  11.743  1.0947  0.9623 -1.0599
  457MOL0     H61630   6.040   0.374  11.527  0.2025 -0.7101 -0.4064
  457MOL0     H61631   6.065   0.221  11.616 -2.3273  0.2852  1.8181
  457MOL0     H61632   5.865   0.323  11.689  2.3729 -1.2015 -2.6131
  457MOL0     H61633   5.980   0.322  11.820  0.7316 -0.9620 -0.7001
  457MOL0     H61634   6.050   0.544  11.799  0.6269 -0.9687 -0.9421
  457MOL0     H61635   5.959   0.573  11.648 -0.1866 -1.8329 -1.4835
  457MOL0     H61636   5.850   0.514  11.931 -1.1188  0.2939  0.1183
  457MOL0     H61637   5.863   0.675  11.863 -1.9449 -0.0359  0.3576
  457MOL0     H61638   5.703   0.618  11.681  4.4133 -0.3111 -1.2239
  457MOL0     H61639   5.679   0.455  11.762  0.9147  1.1743 -2.3742
  457MOL0     H61640   5.598   0.521  11.952 -0.3229  1.4328  1.5033
  457MOL0     H61641   5.622   0.689  11.928  1.2698 -0.5980  0.3204
  457MOL0     H61642   5.414   0.703  11.873  3.5663  1.8337  0.4830
  457MOL0     H61643   5.466   0.647  11.714  1.1688  0.9804  0.5774
  457MOL0     H61644   5.400   0.417  11.759 -1.2639  0.5535  0.0833
  457MOL0     H61645   5.269   0.540  11.773 -0.4544  0.1692  0.7329
  457MOL0     H61646   5.163   0.596  12.035 -1.9455 -0.9049  0.4922
  457MOL0     H61647   5.190   0.515  12.370  1.6301  0.2621  0.2018
  457MOL0     H61648   5.093   0.573  12.236  0.6136  2.0047  3.1449
  457MOL0     H61649   5.117   0.278  12.336  1.7869  0.4409 -1.8537
  457MOL0     H61650   5.013   0.328  12.201 -2.0631 -0.6135  0.7582
  457MOL0     H61651   4.889   0.484  12.336  1.3073  0.6081 -0.6912
  457MOL0     H61652   4.979   0.442  12.480 -0.3657  0.8330 -0.0379
  457MOL0     H61653   4.822   0.238  12.327 -1.4463 -0.7365  1.5971
  457MOL0     H61654   4.770   0.316  12.472 -0.2674  0.4641 -0.1649
  457MOL0     H61655   4.718   0.070  12.462  0.6067 -1.4552 -0.9505
  457MOL0     H61656   4.513  -0.094  12.664  2.5036  0.8562  0.8255
  457MOL0     H61657   4.563  -0.105  12.492  0.3623 -0.3572 -1.0135
  457MOL0     H61658   4.590  -0.235  12.608  2.1965  0.0287 -0.7779
  457MOL0     H61659   4.846  -0.355  12.627  1.3935  3.0736  1.1927
  457MOL0     H61660   5.026  -0.448  12.506 -1.7352  1.7142  0.1722
  457MOL0     H61661   5.432  -0.475  12.654 -1.5091  1.3170 -0.6401
  457MOL0     H61662   5.381  -0.635  12.722 -2.6029  0.4621  0.4486
  457MOL0     H61663   5.425  -0.740  12.501 -1.5463  0.3430 -1.1858
  457MOL0     H61664   5.457  -0.580  12.441 -1.1179  0.0252  0.8620
  457MOL0     H61665   5.637  -0.715  12.655  1.1291 -0.7073 -0.6603
  457MOL0     H61666   5.647  -0.545  12.601 -0.4051 -0.5678  1.3711
  457MOL0     H61667   5.678  -0.625  12.365 -3.0977 -0.0734  1.1033
  457MOL0     H61668   5.813  -0.650  12.467 -0.4451 -0.4073  2.5179
  457MOL0     H61669   5.598  -0.851  12.373 -0.1445 -4.7665 -0.3144
  457MOL0     H61670   5.709  -0.895  12.508  1.2375 -2.2453 -2.3437
  457MOL0     H61671   5.764  -0.798  12.222  0.0060 -1.9411 -1.3900
  457MOL0     H61672   5.890  -0.862  12.348  1.3794 -1.5607 -0.8910
  457MOL0     H61673   5.655  -1.036  12.265  1.4125 -0.5337 -4.1557
  457MOL0     H61674   5.792  -1.079  12.352  0.0155  2.7175  2.3192
  457MOL0     H61675   5.842  -0.956  12.084 -2.0370  0.8037 -0.0677
  457MOL0     H61676   5.792  -1.133  12.107  3.3897 -0.7834  0.2143
  457MOL0     H61677   5.267  -0.501  12.858 -1.7036 -4.8401 -0.3263
  457MOL0     H61678   5.073  -0.377  12.988 -1.0143 -1.6690  0.5073
  457MOL0     H61679   4.968  -0.064  12.871  1.6446  1.1482 -0.1846
  457MOL0     H61680   5.052   0.117  12.715 -0.4146  1.2018  0.2105
  457MOL0     H61681   6.196   0.325  11.402  0.9920  0.2546 -0.6881
  457MOL0     H61682   6.409   0.356  11.258 -0.0039 -2.1662 -0.3005
  457MOL0     H61683   6.734   0.180  11.015 -0.2026 -0.3670  0.1289
  457MOL0     H61684   6.937   0.198  10.881 -1.3794  1.4658 -0.6988
  457MOL0     H61685   7.297   0.337  10.828  0.5639 -2.4211  2.7387
  457MOL0     H61686   7.154   0.256  10.787 -0.9413  1.0487 -0.1194
  457MOL0     H61687   7.020   0.456  10.781  0.4527 -0.2850 -0.0576
  457MOL0     H61688   7.169   0.458  10.679 -2.6266 -1.0167 -0.1485
  457MOL0     H61689   7.282   0.599  10.867 -0.8322  0.8185  1.2268
  457MOL0     H61690   7.119   0.621  10.923  2.1169 -3.1129  1.8585
  457MOL0     H61691   7.142   0.816  10.802  0.1366  0.0811  0.2299
  457MOL0     H61692   7.072   0.723  10.672  0.9920 -1.0856 -1.9820
  457MOL0     H61693   7.465   0.771  10.529 -1.5442 -1.4746 -2.4619
  457MOL0     H61694   7.096   0.473  11.184 -1.5385  2.1972 -0.7356
  457MOL0     H61695   6.877   0.479  11.284  0.9252  3.7077 -3.3998
  458MOL0     O61696   5.722   3.428   7.100 -0.5238 -0.1597  0.3143
  458MOL0     C61697   5.672   3.455   7.213 -0.4457 -0.3734 -0.4769
  458MOL0     O61698   5.736   3.458   7.337 -0.7580 -0.1101 -0.0962
  458MOL0     C61699   5.863   3.418   7.335  0.0530  0.1829  0.4242
  458MOL0     C61700   5.959   3.480   7.264 -0.5685 -0.1836  0.1529
  458MOL0     C61701   6.089   3.425   7.268 -1.2140  0.3552  0.3679
  458MOL0     C61702   6.123   3.314   7.341 -0.7317  0.1740 -0.8050
  458MOL0     O61703   6.255   3.279   7.344 -0.2464 -0.0860  0.9190
  458MOL0     C61704   6.343   3.363   7.423  0.4952 -0.1401  0.3042
  458MOL0     C61705   6.477   3.311   7.467  0.5913  0.3096 -0.0833
  458MOL0     C61706   6.558   3.263   7.348  0.3609  0.1434 -0.1189
  458MOL0     C61707   6.666   3.171   7.406 -0.5636  0.3196 -0.1415
  458MOL0     C61708   6.766   3.127   7.301 -0.2292  0.7309 -0.5212
  458MOL0     C61709   6.897   3.069   7.369  0.8555 -0.6816 -0.0681
  458MOL0     C61710   6.978   2.999   7.262  0.1487 -0.8142 -0.6969
  458MOL0     C61711   7.121   2.973   7.315 -0.9055 -0.6575  0.4389
  458MOL0     N61712   7.127   2.847   7.399 -0.2282  0.0615  0.3560
  458MOL0     C61713   7.093   2.715   7.350 -0.2216 -0.3887 -0.3128
  458MOL0     C61714   7.075   2.639   7.467  0.3547  0.0849 -0.3466
  458MOL0     C61715   7.036   2.497   7.476 -0.2610  0.4526  0.0397
  458MOL0     C61716   6.901   2.456   7.408 -0.4920 -0.4083 -0.5867
  458MOL0     C61717   6.785   2.536   7.457 -1.0494  0.2954 -0.2480
  458MOL0     C61718   6.645   2.502   7.394 -0.5026 -0.2150  0.7636
  458MOL0     O61719   6.560   2.602   7.448  0.2074 -0.5354 -0.2254
  458MOL0     C61720   6.447   2.636   7.375  0.0394 -0.6334 -0.7253
  458MOL0     C61721   6.392   2.767   7.379  0.1188 -0.1257 -0.5735
  458MOL0     C61722   6.281   2.809   7.299 -0.7325  0.2867  0.2585
  458MOL0     C61723   6.249   2.951   7.295 -0.2051 -0.5281  0.6917
  458MOL0     C61724   6.226   2.712   7.205 -0.5039  0.2028  0.2325
  458MOL0     C61725   6.119   2.745   7.100  0.1340 -0.3238 -0.6278
  458MOL0     O61726   6.062   2.866   7.085  0.1992 -0.4125  0.1559
  458MOL0     C61727   5.940   2.892   7.023  0.4139  0.2420  0.7973
  458MOL0     C61728   5.896   3.020   7.015  0.8142 -0.6355 -0.0790
  458MOL0     C61729   5.773   3.058   6.959 -0.5197  0.6620  0.3876
  458MOL0     C61730   5.690   2.957   6.906  0.7917 -0.3526 -0.4655
  458MOL0     O61731   5.559   2.984   6.862  0.5623 -0.1424 -0.4281
  458MOL0     C61732   5.549   3.118   6.791  0.0516  0.6774  0.2323
  458MOL0     C61733   5.435   3.111   6.682  0.4691  0.0705 -0.1776
  458MOL0     C61734   5.325   3.012   6.702 -0.7391  0.1670  0.8757
  458MOL0     C61735   5.233   3.038   6.827 -0.3703 -0.7218 -0.1544
  458MOL0     C61736   5.097   2.954   6.835 -0.6673 -0.1061  0.0944
  458MOL0     C61737   5.143   2.799   6.842  0.4107  0.4949 -0.3471
  458MOL0     C61738   5.034   2.686   6.859 -0.5811 -0.4258  0.1501
  458MOL0     C61739   4.939   2.677   6.733  0.5997  0.1503 -0.2818
  458MOL0    Cl61740   4.837   2.534   6.755 -0.2985 -0.2928 -0.0451
  458MOL0     C61741   5.731   2.827   6.910 -0.7492  0.7546 -0.3684
  458MOL0     C61742   5.859   2.794   6.960 -0.4367  0.4747 -0.0525
  458MOL0     O61743   6.099   2.649   7.019  0.2038 -0.0244 -0.4707
  458MOL0     C61744   6.275   2.577   7.214 -0.0771 -0.3880  0.8405
  458MOL0     C61745   6.384   2.547   7.297  0.1130  0.1115 -0.0401
  458MOL0     N61746   7.077   2.731   7.572  0.3829 -0.0394  0.2747
  458MOL0     N61747   7.122   2.847   7.538  0.2939  0.4561  0.7829
  458MOL0     C61748   6.028   3.238   7.400  0.7046 -0.5434 -1.5223
  458MOL0     C61749   5.895   3.292   7.400 -0.1569 -0.4130 -0.4513
  458MOL0     C61750   5.521   3.480   7.210 -0.0032 -0.0028  0.4814
  458MOL0     C61751   5.467   3.576   7.288 -0.8475 -0.1905  0.0136
  458MOL0     C61752   5.333   3.609   7.281 -0.6881 -0.0347 -0.0723
  458MOL0     C61753   5.237   3.553   7.191  0.0099  0.4593  0.3941
  458MOL0     O61754   5.109   3.601   7.173  0.1271 -0.2150 -0.0131
  458MOL0     C61755   5.091   3.655   7.035 -0.2827  0.2506 -0.4880
  458MOL0     C61756   4.956   3.723   7.011 -0.5277  0.1805 -0.8368
  458MOL0     C61757   4.933   3.737   6.861  0.4505  0.3375  0.3552
  458MOL0     C61758   4.813   3.818   6.823  0.6269  0.5438 -0.0511
  458MOL0     C61759   4.692   3.774   6.895  0.7080 -0.6498  0.1788
  458MOL0     C61760   4.586   3.733   6.944 -0.3648  0.7834  0.0935
  458MOL0     C61761   5.293   3.451   7.111 -0.3354  0.4927 -0.0657
  458MOL0     C61762   5.428   3.409   7.132 -1.2243  0.6480 -0.8787
  458MOL0     H61763   5.942   3.574   7.213 -0.0204 -0.8813 -1.3653
  458MOL0     H61764   6.170   3.476   7.217  0.8269 -1.4820  1.6089
  458MOL0     H61765   6.359   3.447   7.354 -0.3707 -1.8099 -2.0291
  458MOL0     H61766   6.296   3.404   7.513  1.6996  0.5044  0.6628
  458MOL0     H61767   6.520   3.397   7.519  0.1853 -0.0896  0.9417
  458MOL0     H61768   6.466   3.230   7.540 -1.2300 -0.5376 -1.2271
  458MOL0     H61769   6.506   3.199   7.276  1.6627 -2.1102  0.8306
  458MOL0     H61770   6.600   3.346   7.291  0.5167 -0.6493 -1.2120
  458MOL0     H61771   6.719   3.216   7.490 -1.4621 -1.0853  1.2390
  458MOL0     H61772   6.621   3.080   7.447 -1.2736  0.8102  0.1916
  458MOL0     H61773   6.715   3.062   7.228 -1.1665 -1.0834  1.6392
  458MOL0     H61774   6.801   3.214   7.244  0.6869 -1.3822 -3.3829
  458MOL0     H61775   6.947   3.150   7.422 -2.1238  0.5011  1.1859
  458MOL0     H61776   6.878   2.994   7.447  2.7731 -0.3112  0.8210
  458MOL0     H61777   6.934   2.906   7.226  0.9751 -1.0586 -1.1083
  458MOL0     H61778   6.995   3.064   7.176 -0.3897  1.2385  0.6669
  458MOL0     H61779   7.160   3.055   7.376  1.0201 -0.7528 -0.6058
  458MOL0     H61780   7.191   2.962   7.232 -1.0844 -2.9076  0.5092
  458MOL0     H61781   7.078   2.677   7.249  0.8373 -1.6794 -0.0085
  458MOL0     H61782   7.110   2.441   7.418 -0.0124  2.9731 -2.2589
  458MOL0     H61783   7.045   2.447   7.574 -1.1755 -5.4960 -2.4489
  458MOL0     H61784   6.889   2.348   7.421  1.8233 -0.4760  1.8996
  458MOL0     H61785   6.904   2.486   7.303  2.1860 -1.0856 -0.7858
  458MOL0     H61786   6.793   2.640   7.426  1.0781 -0.4394 -2.4785
  458MOL0     H61787   6.783   2.529   7.566  0.0335 -0.1911 -0.2435
  458MOL0     H61788   6.605   2.405   7.425  0.3044  0.4523  4.3149
  458MOL0     H61789   6.654   2.508   7.285  2.6721  1.8556  1.0193
  458MOL0     H61790   6.441   2.830   7.453 -1.7899 -1.6903  2.2052
  458MOL0     H61791   6.281   2.997   7.390 -0.7757 -1.1132  1.1766
  458MOL0     H61792   6.306   3.001   7.217 -0.2235  2.3074  2.3365
  458MOL0     H61793   6.141   2.971   7.286 -0.6720 -3.4537 -2.1076
  458MOL0     H61794   5.965   3.101   7.037 -0.1998  0.5427 -1.0897
  458MOL0     H61795   5.741   3.161   6.973  0.3414  0.9628  0.2178
  458MOL0     H61796   5.537   3.207   6.853  1.4364  0.1779  1.2841
  458MOL0     H61797   5.647   3.132   6.744  1.2616 -3.5503  1.0118
  458MOL0     H61798   5.398   3.213   6.667 -1.4789 -0.4777  0.5695
  458MOL0     H61799   5.472   3.088   6.582 -1.7892  3.2428 -1.9514
  458MOL0     H61800   5.368   2.912   6.715  0.5899  0.8709  2.2479
  458MOL0     H61801   5.265   3.008   6.611  1.7892  0.1696 -0.8778
  458MOL0     H61802   5.292   3.012   6.916 -1.6412 -1.1322  0.5998
  458MOL0     H61803   5.211   3.145   6.839 -2.2664 -1.0787 -0.1594
  458MOL0     H61804   5.044   2.969   6.740  0.1314 -0.9231 -0.4987
  458MOL0     H61805   5.025   2.979   6.913  0.5826  0.6339  1.0423
  458MOL0     H61806   5.214   2.779   6.761 -1.0320 -0.9947 -1.3276
  458MOL0     H61807   5.194   2.794   6.938  1.2292  5.8512 -0.1925
  458MOL0     H61808   4.973   2.695   6.950 -0.7917  2.0143 -0.1501
  458MOL0     H61809   5.081   2.589   6.875  2.0406  1.2427  4.4796
  458MOL0     H61810   5.007   2.656   6.650  1.6714  0.3070  0.5338
  458MOL0     H61811   4.878   2.767   6.725  0.3590  0.2355  2.0182
  458MOL0     H61812   5.668   2.745   6.874  1.3626 -1.2953  0.3297
  458MOL0     H61813   5.874   2.687   6.963 -0.5911  0.4182 -1.0678
  458MOL0     H61814   6.234   2.499   7.151 -0.6833  0.5216  0.0714
  458MOL0     H61815   6.430   2.450   7.278  0.3383  0.1135  0.4903
  458MOL0     H61816   6.044   3.135   7.431 -0.3913 -0.5589 -0.9394
  458MOL0     H61817   5.823   3.231   7.452  1.5154 -0.3346  2.1433
  458MOL0     H61818   5.539   3.630   7.349 -0.6373  0.6310 -0.9212
  458MOL0     H61819   5.303   3.695   7.341 -0.7757 -0.1909  0.1058
  458MOL0     H61820   5.170   3.727   7.013 -1.6450  1.5268 -1.3588
  458MOL0     H61821   5.105   3.560   6.981 -0.9610 -2.9028  4.2424
  458MOL0     H61822   4.950   3.820   7.061 -0.2915  0.2352 -0.9098
  458MOL0     H61823   4.886   3.656   7.062  1.5406  1.1653  3.9040
  458MOL0     H61824   4.910   3.636   6.823 -0.9290  1.1844 -1.1782
  458MOL0     H61825   5.020   3.790   6.821  0.1370  2.1617  2.0033
  458MOL0     H61826   4.781   3.818   6.718 -3.6374  1.6232  1.0315
  458MOL0     H61827   4.839   3.921   6.850 -1.1725  1.4301 -1.4236
  458MOL0     H61828   4.493   3.697   6.984 -0.5244  1.8225  0.6896
  458MOL0     H61829   5.232   3.403   7.035 -2.5960  0.0205  1.9172
  458MOL0     H61830   5.478   3.334   7.071  2.5396  2.1342  0.0826
  459MOL0     O61831   5.540   6.222   2.349  1.0342  0.0322 -0.1773
  459MOL0     C61832   5.478   6.201   2.460 -0.4104 -1.0748  0.2941
  459MOL0     O61833   5.526   6.136   2.571 -0.1728  0.0639 -0.1137
  459MOL0     C61834   5.651   6.092   2.589  0.7546  0.4929  0.0548
  459MOL0     C61835   5.726   6.039   2.487  0.3182  0.1091  0.2394
  459MOL0     C61836   5.843   5.974   2.516  0.2280 -0.9685  0.2526
  459MOL0     C61837   5.890   5.968   2.646  0.4969 -0.1159 -0.2020
  459MOL0     O61838   6.000   5.890   2.674  0.1880 -0.1988 -0.1682
  459MOL0     C61839   6.078   5.916   2.793 -0.0793 -0.0259  1.1604
  459MOL0     C61840   6.166   5.794   2.812  0.2649 -0.3876 -0.1766
  459MOL0     C61841   6.281   5.776   2.704  0.1803  0.8951 -0.3629
  459MOL0     C61842   6.403   5.726   2.775 -0.2582 -0.7509 -0.3137
  459MOL0     C61843   6.518   5.692   2.672 -0.0975  0.3662 -0.1300
  459MOL0     C61844   6.645   5.643   2.748 -0.1526 -0.2757 -0.8563
  459MOL0     C61845   6.635   5.498   2.778  0.1943  0.0248 -0.5611
  459MOL0     C61846   6.751   5.448   2.855 -1.2035 -0.2010  0.2305
  459MOL0     N61847   6.728   5.320   2.913  0.1498  0.3506  0.4906
  459MOL0     C61848   6.797   5.288   3.026 -0.4295 -0.5002  0.1007
  459MOL0     C61849   6.777   5.152   3.044  0.0396 -0.2721 -0.0706
  459MOL0     C61850   6.825   5.063   3.161 -0.1988  0.1381  0.3222
  459MOL0     C61851   6.769   5.133   3.285 -0.0983 -1.5569 -0.9471
  459MOL0     C61852   6.679   5.042   3.366  0.1275 -0.2871  0.8660
  459MOL0     C61853   6.682   5.096   3.504 -0.0499  0.0384  0.3799
  459MOL0     O61854   6.650   5.229   3.532 -0.1831 -0.3861 -0.7814
  459MOL0     C61855   6.524   5.280   3.520  0.6620 -0.4715 -0.1348
  459MOL0     C61856   6.502   5.417   3.498 -0.9497 -0.4618 -0.2543
  459MOL0     C61857   6.380   5.473   3.498  0.2742 -0.1662  0.9091
  459MOL0     C61858   6.369   5.619   3.512  0.7235  0.6016  0.5557
  459MOL0     C61859   6.264   5.391   3.470  0.0582  0.2797  0.0959
  459MOL0     C61860   6.133   5.444   3.436 -0.0317  0.1527  0.6922
  459MOL0     O61861   6.033   5.359   3.452  0.3574 -0.5427 -0.2305
  459MOL0     C61862   5.904   5.405   3.448  0.7162  0.5724 -0.4056
  459MOL0     C61863   5.857   5.490   3.553  0.1342 -0.1190 -0.9996
  459MOL0     C61864   5.722   5.542   3.553  0.0778  0.6032 -0.0318
  459MOL0     C61865   5.644   5.513   3.438  0.5833  0.3872 -0.1134
  459MOL0     O61866   5.519   5.562   3.413  0.0098  0.4639 -0.2855
  459MOL0     C61867   5.435   5.612   3.521 -0.0125 -0.1008 -0.1290
  459MOL0     C61868   5.366   5.492   3.588 -0.4690 -0.6595  0.0866
  459MOL0     C61869   5.286   5.405   3.493  0.2883  0.3706 -0.0521
  459MOL0     C61870   5.166   5.474   3.426  0.3756  0.1498  0.5475
  459MOL0     C61871   5.081   5.382   3.326 -0.5090 -0.1108 -0.2064
  459MOL0     C61872   4.967   5.457   3.274 -0.7002 -0.2433  0.6967
  459MOL0     C61873   5.000   5.579   3.186  0.1160  0.3507  0.3871
  459MOL0     C61874   5.082   5.548   3.065 -0.1281  0.2913  0.1047
  459MOL0    Cl61875   5.100   5.674   2.951 -0.3821 -0.2413  0.4732
  459MOL0     C61876   5.694   5.428   3.342  0.7104  0.5310  0.3071
  459MOL0     C61877   5.822   5.372   3.342  1.2386 -0.0552  0.2049
  459MOL0     O61878   6.121   5.550   3.383 -0.6597 -0.3729  0.6985
  459MOL0     C61879   6.281   5.249   3.489 -0.4022  0.7219 -0.1057
  459MOL0     C61880   6.413   5.198   3.515  0.2020 -0.1758 -0.4534
  459MOL0     N61881   6.706   5.098   2.936  0.1907 -0.5031  0.2348
  459MOL0     N61882   6.681   5.204   2.861 -0.4980  0.6447  0.7706
  459MOL0     C61883   5.818   6.032   2.749 -0.6909 -0.4698  0.2238
  459MOL0     C61884   5.693   6.091   2.726 -0.2133 -0.4798 -0.3088
  459MOL0     C61885   5.335   6.258   2.463 -0.8079  0.0491  0.7543
  459MOL0     C61886   5.277   6.282   2.576  0.0248 -0.3863 -0.2575
  459MOL0     C61887   5.139   6.311   2.587 -0.3721  0.4063 -0.2066
  459MOL0     C61888   5.059   6.317   2.469  0.2242  0.4454 -0.1400
  459MOL0     O61889   4.922   6.335   2.471 -0.5155 -0.2100 -0.3817
  459MOL0     C61890   4.858   6.330   2.601 -0.7312 -0.6857 -0.3455
  459MOL0     C61891   4.716   6.282   2.592  0.4426  0.1299  0.3254
  459MOL0     C61892   4.681   6.139   2.569 -0.2281 -0.1165 -0.2533
  459MOL0     C61893   4.727   6.100   2.430  0.0354  0.0439 -0.3582
  459MOL0     C61894   4.716   5.957   2.402  0.5339  0.5193 -0.7123
  459MOL0     C61895   4.727   5.839   2.364  0.0308  0.6157 -0.0892
  459MOL0     C61896   5.123   6.296   2.348 -0.2157  0.3001 -0.1077
  459MOL0     C61897   5.257   6.269   2.349  0.7668  0.0306 -1.0068
  459MOL0     H61898   5.685   6.026   2.387 -0.1108 -1.3588  0.5840
  459MOL0     H61899   5.904   5.932   2.437  0.8545 -0.5186  0.4811
  459MOL0     H61900   6.140   6.005   2.779 -2.7518  1.9515  1.1291
  459MOL0     H61901   6.017   5.913   2.883  0.9540  2.7372  2.0295
  459MOL0     H61902   6.203   5.802   2.914 -1.6524 -2.7413  0.8007
  459MOL0     H61903   6.112   5.699   2.816 -3.5854  1.6507  0.9219
  459MOL0     H61904   6.256   5.704   2.625  5.8343 -3.5836  1.2253
  459MOL0     H61905   6.312   5.869   2.656  3.4073  1.0269  1.6987
  459MOL0     H61906   6.449   5.805   2.836  0.3550 -0.8442 -0.6486
  459MOL0     H61907   6.377   5.642   2.841  0.4076  0.7906  2.0653
  459MOL0     H61908   6.490   5.608   2.608  0.4074  0.6568 -0.7469
  459MOL0     H61909   6.554   5.783   2.624  0.1679  0.9773  1.1919
  459MOL0     H61910   6.723   5.657   2.673  1.0867 -2.1717  0.0073
  459MOL0     H61911   6.675   5.710   2.829  0.9609  0.2664 -1.6870
  459MOL0     H61912   6.553   5.491   2.850 -0.6680 -0.3156 -1.5542
  459MOL0     H61913   6.611   5.446   2.685 -0.0724 -0.7969 -0.0446
  459MOL0     H61914   6.788   5.522   2.926 -0.4970  0.3015 -0.6368
  459MOL0     H61915   6.824   5.440   2.774 -1.9677  0.1809 -0.5147
  459MOL0     H61916   6.849   5.350   3.097 -3.6577  1.2925  1.1100
  459MOL0     H61917   6.786   4.961   3.147 -1.3863  0.6832 -0.4252
  459MOL0     H61918   6.934   5.054   3.165 -0.2566 -0.4281  0.8830
  459MOL0     H61919   6.719   5.225   3.254 -1.2069 -1.5770  0.6771
  459MOL0     H61920   6.858   5.159   3.344 -1.1603 -1.5387  0.7296
  459MOL0     H61921   6.718   4.940   3.366 -0.5339 -0.5557 -0.4483
  459MOL0     H61922   6.577   5.048   3.327  0.1232  0.4905  0.9690
  459MOL0     H61923   6.784   5.090   3.541 -0.1574  0.5508  0.7545
  459MOL0     H61924   6.617   5.032   3.565 -1.0016  0.4323 -0.1887
  459MOL0     H61925   6.594   5.475   3.506 -1.8234  0.8279  0.8816
  459MOL0     H61926   6.461   5.665   3.549 -0.9580  3.8081  1.1263
  459MOL0     H61927   6.353   5.658   3.411 -0.5020 -3.8535 -1.1845
  459MOL0     H61928   6.280   5.628   3.576 -0.2942 -2.4101 -0.2499
  459MOL0     H61929   5.922   5.516   3.636 -0.1134  0.9826 -1.1366
  459MOL0     H61930   5.691   5.612   3.630  1.5122  2.9093 -1.4257
  459MOL0     H61931   5.490   5.673   3.593 -0.4830  0.7177 -0.4435
  459MOL0     H61932   5.372   5.683   3.467  1.0020  0.9326 -0.0000
  459MOL0     H61933   5.444   5.434   3.638  0.0421  0.0212  0.0902
  459MOL0     H61934   5.303   5.528   3.670  0.8567 -0.6881  1.1567
  459MOL0     H61935   5.254   5.316   3.549  0.3413  0.1978 -0.2949
  459MOL0     H61936   5.351   5.356   3.420  1.0499 -0.3427  1.0758
  459MOL0     H61937   5.100   5.514   3.503 -0.9219 -3.4644  1.5269
  459MOL0     H61938   5.216   5.549   3.365 -0.0333  0.0817  0.1243
  459MOL0     H61939   5.055   5.291   3.381  0.5760 -1.8401 -2.3906
  459MOL0     H61940   5.147   5.353   3.244 -2.2481  1.0159 -2.1012
  459MOL0     H61941   4.911   5.379   3.220  2.9592 -1.6125 -1.4611
  459MOL0     H61942   4.896   5.485   3.352 -3.0263 -1.3077 -0.9147
  459MOL0     H61943   5.052   5.652   3.249  1.0342 -0.4478  0.5751
  459MOL0     H61944   4.903   5.624   3.161 -1.6339 -3.0325  0.4750
  459MOL0     H61945   5.045   5.455   3.020  1.1658 -0.4033  0.4291
  459MOL0     H61946   5.181   5.527   3.106 -0.3618 -0.1090  0.4766
  459MOL0     H61947   5.622   5.403   3.265  1.2575  0.3977 -0.1663
  459MOL0     H61948   5.847   5.323   3.248 -2.9754  1.6102 -2.0975
  459MOL0     H61949   6.200   5.178   3.481 -0.8773  1.4434 -1.9681
  459MOL0     H61950   6.419   5.090   3.519  2.0449 -0.0734  0.7367
  459MOL0     H61951   5.858   6.036   2.850  1.4538 -1.1653 -0.5325
  459MOL0     H61952   5.629   6.136   2.802  1.6243 -0.5294  1.3397
  459MOL0     H61953   5.340   6.280   2.664  1.0339 -1.3510 -0.9753
  459MOL0     H61954   5.101   6.326   2.687 -1.8733  1.9558 -0.9628
  459MOL0     H61955   4.917   6.273   2.674 -0.2732 -0.4343 -0.5150
  459MOL0     H61956   4.851   6.432   2.641 -1.3332 -1.1174  0.6736
  459MOL0     H61957   4.656   6.343   2.523 -1.7117 -1.7720  0.4052
  459MOL0     H61958   4.680   6.307   2.692  0.1442 -1.6179  0.6827
  459MOL0     H61959   4.572   6.127   2.569 -0.3787  0.7639  2.3484
  459MOL0     H61960   4.721   6.066   2.640  0.8347 -0.8889 -1.5841
  459MOL0     H61961   4.832   6.128   2.418  0.7574 -1.7358  1.3762
  459MOL0     H61962   4.681   6.165   2.354 -0.7652  0.3441  0.3699
  459MOL0     H61963   4.742   5.739   2.329 -0.2363 -0.0096  1.4784
  459MOL0     H61964   5.065   6.285   2.257  1.3163 -0.7943 -0.9906
  459MOL0     H61965   5.300   6.247   2.252 -0.2410  0.6623 -1.6223
  460MOL0     O61966   0.096   7.679   7.497 -0.1422  0.1877 -0.2778
  460MOL0     C61967   0.110   7.728   7.605  0.0741 -0.8765 -1.2917
  460MOL0     O61968   0.128   7.652   7.713 -0.5216  0.5438 -0.0393
  460MOL0     C61969   0.183   7.528   7.694  1.1098  0.2764  0.0342
  460MOL0     C61970   0.122   7.411   7.738  0.4488  1.4055  0.4055
  460MOL0     C61971   0.192   7.295   7.736  0.2288 -0.1447 -0.2098
  460MOL0     C61972   0.322   7.280   7.689  0.3981  0.9209  0.1735
  460MOL0     O61973   0.401   7.161   7.689  0.0610 -1.0105  0.0757
  460MOL0     C61974   0.447   7.124   7.553  0.0709  0.1229  0.1384
  460MOL0     C61975   0.591   7.090   7.554 -0.6893 -0.0759  0.3143
  460MOL0     C61976   0.612   6.974   7.645  0.8621 -0.6996 -0.2692
  460MOL0     C61977   0.755   6.931   7.630  0.4684 -0.4043 -0.0893
  460MOL0     C61978   0.800   6.860   7.753 -0.2444  0.9752 -0.0805
  460MOL0     C61979   0.929   6.784   7.728  0.5446  0.4724  0.5603
  460MOL0     C61980   1.052   6.881   7.755  0.3466  0.5664  0.3299
  460MOL0     C61981   1.187   6.811   7.742  0.0027 -0.2225 -0.0347
  460MOL0     N61982   1.212   6.731   7.620 -0.1803 -0.1581  0.6765
  460MOL0     C61983   1.167   6.611   7.593  1.1603 -0.0722 -0.8410
  460MOL0     C61984   1.209   6.585   7.466  0.9692  1.0807 -0.0750
  460MOL0     C61985   1.164   6.469   7.382  0.3065 -0.5371 -0.7201
  460MOL0     C61986   1.008   6.462   7.377 -1.0126 -0.1108  0.9988
  460MOL0     C61987   0.945   6.347   7.297  0.7544  0.1644 -0.3053
  460MOL0     C61988   0.987   6.338   7.152  1.5879 -0.0158  0.1770
  460MOL0     O61989   1.115   6.289   7.117  0.4480  0.8545 -0.2800
  460MOL0     C61990   1.134   6.159   7.152 -0.6841  0.3792  0.5918
  460MOL0     C61991   1.268   6.126   7.189  0.1595  0.2294  0.4551
  460MOL0     C61992   1.295   5.997   7.234 -0.0738  0.2549  0.4461
  460MOL0     C61993   1.422   5.979   7.313 -0.4147 -1.1557 -0.4963
  460MOL0     C61994   1.193   5.890   7.224 -1.2147  0.2064  0.4163
  460MOL0     C61995   1.209   5.750   7.270 -0.0781 -0.4776 -0.3696
  460MOL0     O61996   1.121   5.661   7.216  0.1630  0.5887  0.2706
  460MOL0     C61997   1.091   5.554   7.298  0.0350 -0.1840 -0.9018
  460MOL0     C61998   1.185   5.455   7.325  0.6403  0.1905  0.0839
  460MOL0     C61999   1.146   5.338   7.392  0.6703  0.6582 -1.4783
  460MOL0     C62000   1.013   5.323   7.440 -0.3115 -0.0089  0.1548
  460MOL0     O62001   0.968   5.221   7.512 -0.4781  0.6011 -0.2398
  460MOL0     C62002   1.011   5.092   7.466  0.1499  0.2391  0.0526
  460MOL0     C62003   0.923   4.989   7.537  0.2622  1.5469 -0.7746
  460MOL0     C62004   0.777   5.008   7.537  0.4015 -0.2213  0.0126
  460MOL0     C62005   0.700   4.882   7.580  0.0388  1.1476  0.7112
  460MOL0     C62006   0.549   4.906   7.548 -0.3323  0.5388 -0.9675
  460MOL0     C62007   0.466   4.775   7.526  0.1134  0.2442  0.4533
  460MOL0     C62008   0.324   4.826   7.522 -0.1552  0.1722  0.3668
  460MOL0     C62009   0.221   4.720   7.470  0.5615  0.1486  0.1353
  460MOL0    Cl62010   0.194   4.603   7.608  0.4631 -0.5644  0.0668
  460MOL0     C62011   0.923   5.423   7.413  0.0032  0.3685  0.3542
  460MOL0     C62012   0.960   5.531   7.335 -0.6180 -0.5502 -0.2747
  460MOL0     O62013   1.278   5.731   7.367  0.3549 -0.3050 -0.0845
  460MOL0     C62014   1.064   5.923   7.173  0.0198  0.3105 -0.5255
  460MOL0     C62015   1.035   6.053   7.142 -0.2282 -0.5569 -0.5169
  460MOL0     N62016   1.300   6.680   7.429  0.0181 -0.7778 -0.1203
  460MOL0     N62017   1.299   6.771   7.523 -0.6672 -0.4667  0.8850
  460MOL0     C62018   0.384   7.397   7.649 -0.8300 -0.4035 -0.1095
  460MOL0     C62019   0.321   7.520   7.649 -0.2931  0.2840 -0.6249
  460MOL0     C62020   0.109   7.879   7.618 -0.5395  1.0376  0.0807
  460MOL0     C62021   0.080   7.955   7.504  0.4742  0.1276 -0.3032
  460MOL0     C62022   0.079   8.093   7.514 -0.6078  0.0046 -0.7624
  460MOL0     C62023   0.119   8.152   7.631 -0.0438 -0.6736 -0.1351
  460MOL0     O62024   0.116   8.284   7.651  0.7918  0.2498 -0.1740
  460MOL0     C62025   0.144   8.367   7.539 -0.8497  0.1317 -0.6942
  460MOL0     C62026   0.121   8.512   7.587  0.0458 -0.1282 -0.0683
  460MOL0     C62027   0.182   8.626   7.499  0.0675  0.0368 -0.4733
  460MOL0     C62028   0.152   8.615   7.348 -0.0205  0.0656  0.5867
  460MOL0     C62029   0.246   8.689   7.255 -0.9938 -0.1755  0.6719
  460MOL0     C62030   0.307   8.744   7.162  0.3472 -0.4977 -0.1045
  460MOL0     C62031   0.152   8.082   7.741 -1.3719 -0.0379  0.8669
  460MOL0     C62032   0.144   7.945   7.742  0.8153 -0.6124  0.1748
  460MOL0     H62033   0.026   7.413   7.790  0.5249  1.6753  0.5402
  460MOL0     H62034   0.145   7.202   7.769 -1.0891  0.4533 -0.3419
  460MOL0     H62035   0.383   7.044   7.514 -1.0897  2.1359 -2.3894
  460MOL0     H62036   0.434   7.203   7.478 -0.1308 -0.6505 -0.6616
  460MOL0     H62037   0.627   7.085   7.451  0.2470 -3.1606  0.6918
  460MOL0     H62038   0.649   7.175   7.592  0.6507  0.9424 -3.5152
  460MOL0     H62039   0.584   7.000   7.747 -0.1021  1.7770 -1.0797
  460MOL0     H62040   0.548   6.890   7.619 -3.8083  0.7278  4.7358
  460MOL0     H62041   0.760   6.856   7.550  0.2878 -0.3296 -0.1688
  460MOL0     H62042   0.822   7.015   7.608  0.3442 -0.3127 -0.1140
  460MOL0     H62043   0.810   6.938   7.830  4.9085  0.7012 -0.1320
  460MOL0     H62044   0.724   6.786   7.779  1.0755 -1.4663 -2.7246
  460MOL0     H62045   0.935   6.699   7.796  2.2790 -1.1658 -1.4739
  460MOL0     H62046   0.926   6.736   7.629  2.3358  1.3390  0.0451
  460MOL0     H62047   1.058   6.963   7.682  2.6373  0.1458 -0.0387
  460MOL0     H62048   1.032   6.928   7.851 -0.0595 -1.4667  1.2769
  460MOL0     H62049   1.200   6.750   7.832 -1.2434  0.7890  0.8609
  460MOL0     H62050   1.262   6.890   7.734  0.5764 -0.8598 -1.4074
  460MOL0     H62051   1.098   6.553   7.654  0.9280  0.9923 -0.0725
  460MOL0     H62052   1.208   6.473   7.282  1.3437 -1.9475 -0.3444
  460MOL0     H62053   1.206   6.386   7.439 -0.4603  1.9423  3.9790
  460MOL0     H62054   0.972   6.560   7.345  1.2749  1.0989  1.9339
  460MOL0     H62055   0.976   6.447   7.481  2.2155 -1.4114  1.9222
  460MOL0     H62056   0.836   6.345   7.308  0.5443  0.8724 -2.0148
  460MOL0     H62057   0.988   6.257   7.341  1.8372  0.9216  0.2338
  460MOL0     H62058   0.970   6.432   7.099 -1.2485 -1.8684 -2.5002
  460MOL0     H62059   0.923   6.264   7.103  0.4863  0.9067  0.1995
  460MOL0     H62060   1.338   6.209   7.187 -2.4797  2.5879 -0.5416
  460MOL0     H62061   1.424   5.999   7.421  0.6802  1.1167 -0.8730
  460MOL0     H62062   1.472   5.882   7.310  0.3972 -0.7123 -2.2202
  460MOL0     H62063   1.487   6.054   7.268 -0.6858 -1.8719 -2.1480
  460MOL0     H62064   1.290   5.470   7.304  0.4916 -0.3582 -1.1967
  460MOL0     H62065   1.221   5.261   7.406 -2.0219 -1.7365  1.2063
  460MOL0     H62066   0.983   5.093   7.360 -0.5295  3.1552  0.1675
  460MOL0     H62067   1.115   5.060   7.472  0.7173  2.0811  0.5027
  460MOL0     H62068   0.952   4.895   7.489 -2.7139  0.3073 -0.3487
  460MOL0     H62069   0.951   4.980   7.643  0.4909 -4.0228 -1.0101
  460MOL0     H62070   0.740   5.040   7.440  0.7312  1.9072  0.5522
  460MOL0     H62071   0.764   5.094   7.603  1.8830  1.3779 -1.7022
  460MOL0     H62072   0.734   4.800   7.517  1.4427  0.4512  2.3021
  460MOL0     H62073   0.709   4.869   7.688 -0.8321 -0.3401  0.6283
  460MOL0     H62074   0.556   4.972   7.461  4.0924  1.9697  0.2021
  460MOL0     H62075   0.505   4.950   7.637 -0.2491 -2.0935  0.4775
  460MOL0     H62076   0.487   4.735   7.426  0.5353  1.1929  0.1562
  460MOL0     H62077   0.491   4.700   7.601  0.9934 -0.6292 -0.6824
  460MOL0     H62078   0.334   4.905   7.448 -2.1427  1.1009  1.0048
  460MOL0     H62079   0.291   4.871   7.616  0.8839 -0.1572  0.8968
  460MOL0     H62080   0.259   4.682   7.375 -1.8934  0.8570 -1.2061
  460MOL0     H62081   0.136   4.777   7.434  1.6366  1.6398 -0.1225
  460MOL0     H62082   0.818   5.420   7.441 -0.2444 -1.4620 -0.5913
  460MOL0     H62083   0.877   5.586   7.290  0.2757  0.0779 -1.1928
  460MOL0     H62084   0.989   5.845   7.167  0.9769 -0.7699  0.9406
  460MOL0     H62085   0.930   6.076   7.124 -0.1701  0.0846 -0.0863
  460MOL0     H62086   0.488   7.385   7.622 -0.0679 -0.8115  2.6816
  460MOL0     H62087   0.375   7.607   7.613  2.7796 -1.7694 -1.3722
  460MOL0     H62088   0.044   7.895   7.420  3.0933 -2.3511  0.1652
  460MOL0     H62089   0.055   8.147   7.423 -1.8027 -2.8867 -2.3016
  460MOL0     H62090   0.247   8.368   7.501 -0.8125  1.9892 -0.6229
  460MOL0     H62091   0.075   8.357   7.455 -1.5074  0.9016 -0.2564
  460MOL0     H62092   0.171   8.525   7.683  3.0482  1.7663 -1.7351
  460MOL0     H62093   0.016   8.507   7.616  0.1187 -1.5136  0.0355
  460MOL0     H62094   0.288   8.625   7.525 -0.5674 -0.4021  2.3797
  460MOL0     H62095   0.141   8.718   7.543 -0.3056 -0.2916 -0.1272
  460MOL0     H62096   0.050   8.648   7.329 -0.8676 -0.7563  3.3084
  460MOL0     H62097   0.177   8.514   7.316 -2.2218  0.4350 -2.7899
  460MOL0     H62098   0.344   8.784   7.070  1.1578 -0.8896  0.0411
  460MOL0     H62099   0.169   8.125   7.840 -2.4101  5.0860 -0.8680
  460MOL0     H62100   0.168   7.886   7.830  0.2693 -1.3575 -0.1544
  461MOL0     O62101   8.380   8.477   0.310  0.2024 -0.2031 -0.6499
  461MOL0     C62102   8.486   8.480   0.366  0.6327  0.5352  0.4435
  461MOL0     O62103   8.515   8.467   0.503 -0.8885  0.6054  0.2978
  461MOL0     C62104   8.416   8.453   0.599  0.4887  0.0793  0.3933
  461MOL0     C62105   8.309   8.537   0.603 -0.5205  0.3876 -1.0299
  461MOL0     C62106   8.193   8.515   0.676  0.3696 -0.3689  0.4049
  461MOL0     C62107   8.199   8.415   0.768 -0.1847  0.1961  0.3658
  461MOL0     O62108   8.082   8.380   0.838  0.1570 -0.3671 -0.4658
  461MOL0     C62109   8.068   8.460   0.956 -0.5156 -0.3940  0.0767
  461MOL0     C62110   7.943   8.430   1.029  0.2125  0.1170 -0.2152
  461MOL0     C62111   7.948   8.468   1.172  0.2361 -0.9112 -0.8227
  461MOL0     C62112   7.832   8.399   1.256  0.3851 -0.2313 -0.0822
  461MOL0     C62113   7.845   8.257   1.273 -0.8756  0.0455  0.1510
  461MOL0     C62114   7.744   8.202   1.379  0.0988  0.5426 -0.3687
  461MOL0     C62115   7.780   8.064   1.420 -1.0242 -1.0612 -0.1710
  461MOL0     C62116   7.728   8.017   1.554  0.3533  0.2073  0.4112
  461MOL0     N62117   7.776   7.883   1.587  0.0875 -0.4612  0.5986
  461MOL0     C62118   7.727   7.768   1.537  0.0805  0.0360  0.2270
  461MOL0     C62119   7.800   7.668   1.603 -0.2575 -0.7377  0.0996
  461MOL0     C62120   7.788   7.517   1.582 -0.3232 -0.3105 -0.1106
  461MOL0     C62121   7.671   7.445   1.658 -1.2684 -0.0959  0.2081
  461MOL0     C62122   7.569   7.368   1.569 -0.0837 -0.7543 -0.6289
  461MOL0     C62123   7.624   7.229   1.545  0.5131  0.1794  0.7209
  461MOL0     O62124   7.740   7.235   1.465  0.4843  0.3269 -0.3056
  461MOL0     C62125   7.822   7.132   1.474  0.0926 -0.7223 -0.0051
  461MOL0     C62126   7.777   7.007   1.439 -0.3124  1.3375 -0.0800
  461MOL0     C62127   7.868   6.894   1.446 -0.5916  0.4887  0.8513
  461MOL0     C62128   7.811   6.753   1.416 -0.8131  1.4086 -0.2609
  461MOL0     C62129   8.002   6.915   1.493 -0.4521  0.2388 -1.1462
  461MOL0     C62130   8.097   6.802   1.506  0.0422 -1.2199  0.2501
  461MOL0     O62131   8.228   6.831   1.485 -1.2540  0.0638  0.4397
  461MOL0     C62132   8.327   6.741   1.504 -0.0793 -0.4363  0.2902
  461MOL0     C62133   8.322   6.615   1.444  0.2262 -0.9249 -1.1437
  461MOL0     C62134   8.436   6.539   1.447  0.2515 -0.3565  0.1303
  461MOL0     C62135   8.562   6.588   1.491 -0.2167  0.5366 -1.4791
  461MOL0     O62136   8.674   6.509   1.481 -0.2701 -0.3706  0.4714
  461MOL0     C62137   8.804   6.557   1.514 -0.2483 -0.4718 -0.6871
  461MOL0     C62138   8.899   6.438   1.530  0.7699  0.5229 -0.0143
  461MOL0     C62139   9.044   6.469   1.551  0.7554  0.3852  0.1850
  461MOL0     C62140   9.064   6.549   1.681 -0.3495 -0.4239  0.3523
  461MOL0     C62141   9.216   6.590   1.689  0.2908 -0.6125 -0.2632
  461MOL0     C62142   9.311   6.476   1.698 -0.9516  0.2318 -0.3581
  461MOL0     C62143   9.442   6.512   1.764  0.2089 -0.8395 -0.6622
  461MOL0     C62144   9.514   6.618   1.690 -0.5401  0.6795  0.2094
  461MOL0    Cl62145   9.687   6.626   1.706  0.7801 -0.3664  0.0282
  461MOL0     C62146   8.567   6.716   1.552  1.0648  0.1660 -0.1874
  461MOL0     C62147   8.452   6.792   1.554 -0.1236 -0.1991  0.1647
  461MOL0     O62148   8.063   6.698   1.557  0.0552  1.4166  0.1382
  461MOL0     C62149   8.043   7.049   1.517  0.2665  0.2876  1.1709
  461MOL0     C62150   7.954   7.154   1.508  0.4213  0.2529 -1.0519
  461MOL0     N62151   7.903   7.732   1.679 -0.0546  0.2708 -0.1340
  461MOL0     N62152   7.876   7.855   1.661 -0.0083  0.5864 -0.4475
  461MOL0     C62153   8.315   8.342   0.785  0.9731  0.1718 -0.9983
  461MOL0     C62154   8.423   8.360   0.700  0.4353 -0.1410 -0.0267
  461MOL0     C62155   8.598   8.503   0.273 -0.0373  0.2659 -1.0112
  461MOL0     C62156   8.593   8.502   0.125  0.7926 -0.0740 -1.2086
  461MOL0     C62157   8.712   8.535   0.057 -0.3722 -0.0711  0.7124
  461MOL0     C62158   8.828   8.576   0.119 -0.1710 -0.7972  0.5886
  461MOL0     O62159   8.931   8.620   0.043  0.3123  1.0494 -0.1849
  461MOL0     C62160   9.063   8.641   0.105 -0.1392 -0.4753  0.3231
  461MOL0     C62161   9.132   8.508   0.114 -0.1274  1.1967 -0.9633
  461MOL0     C62162   9.148   8.421  -0.004 -0.3361 -0.4471  0.2299
  461MOL0     C62163   9.265   8.320   0.021 -0.1933  0.2088 -0.7226
  461MOL0     C62164   9.303   8.248  -0.096 -0.2528  0.3203  1.1234
  461MOL0     C62165   9.348   8.190  -0.192  0.4557 -0.6469 -0.6328
  461MOL0     C62166   8.833   8.563   0.257  0.3589 -1.1138  0.2763
  461MOL0     C62167   8.724   8.530   0.335  0.2860 -0.6635 -0.1552
  461MOL0     H62168   8.303   8.616   0.529 -2.1385 -0.3011 -1.6922
  461MOL0     H62169   8.101   8.569   0.657 -0.6318 -1.7822  1.0751
  461MOL0     H62170   8.161   8.445   1.012  1.3282  1.8318 -2.1503
  461MOL0     H62171   8.063   8.567   0.936 -1.2537 -0.3041  0.7046
  461MOL0     H62172   7.862   8.486   0.981 -0.3773  0.4620  1.1227
  461MOL0     H62173   7.916   8.326   1.011  1.6886 -0.6533  1.7313
  461MOL0     H62174   8.043   8.435   1.214  0.2750  0.3907  0.1487
  461MOL0     H62175   7.944   8.576   1.188 -1.5897 -1.0880  0.2370
  461MOL0     H62176   7.827   8.448   1.353  1.3194 -2.4859  1.1950
  461MOL0     H62177   7.731   8.406   1.213 -0.6944 -0.5641  2.2220
  461MOL0     H62178   7.840   8.207   1.176  6.2406  0.5080 -0.9797
  461MOL0     H62179   7.945   8.226   1.304 -1.5023 -2.9016 -0.4660
  461MOL0     H62180   7.737   8.262   1.470 -1.9839 -3.2051  2.1948
  461MOL0     H62181   7.643   8.200   1.336  0.2897  0.0874 -0.8094
  461MOL0     H62182   7.747   8.000   1.338  0.6704 -1.5579 -0.5017
  461MOL0     H62183   7.889   8.066   1.423 -0.8950  1.1161 -2.7692
  461MOL0     H62184   7.621   8.000   1.544  0.6065 -2.3345  1.3363
  461MOL0     H62185   7.737   8.077   1.645 -3.3183 -0.9310  1.7171
  461MOL0     H62186   7.649   7.757   1.463  0.1485 -1.0560  0.2981
  461MOL0     H62187   7.780   7.489   1.476 -0.1290 -1.9015  0.2693
  461MOL0     H62188   7.885   7.477   1.610 -0.2652 -2.6741 -3.0670
  461MOL0     H62189   7.605   7.522   1.700 -2.2885 -1.4144  1.1089
  461MOL0     H62190   7.711   7.381   1.737 -0.7217 -2.8030 -2.1113
  461MOL0     H62191   7.554   7.417   1.473  0.3786  0.4710 -0.0876
  461MOL0     H62192   7.478   7.365   1.630  0.5833 -0.8487  0.4072
  461MOL0     H62193   7.548   7.169   1.493 -0.5822  3.0238 -1.1812
  461MOL0     H62194   7.643   7.183   1.643 -0.5461 -1.1787  0.3184
  461MOL0     H62195   7.670   6.995   1.428 -0.6860  2.3144  1.9309
  461MOL0     H62196   7.876   6.666   1.398 -1.4154  0.2273  2.6504
  461MOL0     H62197   7.755   6.722   1.505  0.2072  0.7101  0.1685
  461MOL0     H62198   7.739   6.756   1.334 -1.3425 -2.4877 -0.1411
  461MOL0     H62199   8.233   6.569   1.403  0.2255 -0.3229 -1.8276
  461MOL0     H62200   8.429   6.441   1.399 -4.1949  0.1006 -0.5755
  461MOL0     H62201   8.843   6.630   1.442 -0.5437 -0.5401 -0.9180
  461MOL0     H62202   8.811   6.609   1.610  2.0929  0.2345 -1.1759
  461MOL0     H62203   8.866   6.370   1.610  1.4605  0.5001  0.2610
  461MOL0     H62204   8.890   6.385   1.435 -0.7439 -0.4899  0.6448
  461MOL0     H62205   9.095   6.511   1.464  1.9522  0.4785  0.9130
  461MOL0     H62206   9.091   6.371   1.557  2.0732  0.7446 -2.6158
  461MOL0     H62207   8.998   6.636   1.686 -0.9094 -0.6878 -1.5069
  461MOL0     H62208   9.032   6.490   1.767  0.4753 -1.0784  0.2259
  461MOL0     H62209   9.220   6.653   1.778 -0.4563  1.3860 -1.5738
  461MOL0     H62210   9.226   6.655   1.602  1.1450 -1.0500 -0.5046
  461MOL0     H62211   9.265   6.396   1.757 -0.0061 -0.7102 -0.8684
  461MOL0     H62212   9.329   6.433   1.598  3.1375 -1.1660  0.7697
  461MOL0     H62213   9.516   6.433   1.783  0.9984 -0.4478 -2.0062
  461MOL0     H62214   9.418   6.539   1.868  1.5814 -2.4026  0.1080
  461MOL0     H62215   9.477   6.720   1.703  1.4545  1.4932 -0.0500
  461MOL0     H62216   9.505   6.608   1.581  2.7676  1.6272 -0.2670
  461MOL0     H62217   8.656   6.760   1.596  0.6150  0.3397  0.5546
  461MOL0     H62218   8.450   6.890   1.601 -0.4088  0.9144 -2.0657
  461MOL0     H62219   8.149   7.054   1.539  1.4358  0.8747 -3.4471
  461MOL0     H62220   7.997   7.254   1.510  1.0848 -0.0127 -1.6808
  461MOL0     H62221   8.319   8.266   0.861  1.5313  0.6126 -0.5775
  461MOL0     H62222   8.508   8.293   0.708  0.5301  0.0533  0.6552
  461MOL0     H62223   8.502   8.479   0.071  0.6875 -1.0310 -0.6373
  461MOL0     H62224   8.706   8.544  -0.051  1.4020 -0.2310  0.5798
  461MOL0     H62225   9.122   8.712   0.046 -0.6418 -1.1366 -1.0086
  461MOL0     H62226   9.060   8.677   0.208  3.6781 -0.6011  0.6327
  461MOL0     H62227   9.088   8.446   0.193  2.0430  0.7872 -0.0076
  461MOL0     H62228   9.228   8.522   0.165  0.1093 -0.5543 -0.8596
  461MOL0     H62229   9.165   8.485  -0.091  2.7290  1.2940  1.9390
  461MOL0     H62230   9.057   8.361  -0.014 -1.4492  1.0544  0.9302
  461MOL0     H62231   9.232   8.251   0.100 -0.3832  1.1630  0.0620
  461MOL0     H62232   9.359   8.364   0.056 -0.4819  0.4567 -0.2437
  461MOL0     H62233   9.377   8.131  -0.276 -0.1451 -0.8716 -0.6871
  461MOL0     H62234   8.923   8.586   0.313  0.9981 -2.5451 -0.1207
  461MOL0     H62235   8.722   8.531   0.444 -2.4102  0.2528 -0.1269
  462MOL0     O62236   5.865   5.427   5.539 -0.7232 -0.1714 -0.6004
  462MOL0     C62237   5.809   5.324   5.569 -0.5253 -0.3491  0.1244
  462MOL0     O62238   5.859   5.219   5.617 -0.3166  0.0485 -0.1408
  462MOL0     C62239   5.993   5.211   5.672 -0.3385 -1.4035  0.8281
  462MOL0     C62240   6.074   5.323   5.720 -0.0565  0.5782 -0.2965
  462MOL0     C62241   6.195   5.289   5.789 -0.1560 -0.8473  0.5289
  462MOL0     C62242   6.239   5.156   5.798 -0.1868 -1.1181 -0.6184
  462MOL0     O62243   6.375   5.125   5.831 -0.0782  0.1174  0.0070
  462MOL0     C62244   6.433   5.203   5.938 -0.4155 -0.1252  0.7054
  462MOL0     C62245   6.570   5.141   5.979  0.5231 -0.1761 -0.8277
  462MOL0     C62246   6.654   5.225   6.076 -0.0296 -0.2149 -0.3594
  462MOL0     C62247   6.804   5.198   6.104 -0.9609  0.7366  0.2252
  462MOL0     C62248   6.856   5.264   6.231  0.0152 -0.6506  0.6085
  462MOL0     C62249   6.981   5.203   6.291  0.0343  0.0204 -0.5788
  462MOL0     C62250   7.100   5.187   6.198 -0.2176  0.2666 -0.3614
  462MOL0     C62251   7.232   5.153   6.280 -0.4968 -1.2858  0.6596
  462MOL0     N62252   7.256   5.011   6.303  0.0395  0.7957  0.5120
  462MOL0     C62253   7.296   4.930   6.202 -0.0722  1.4023 -0.1686
  462MOL0     C62254   7.285   4.808   6.264  0.7280  0.3905 -0.9413
  462MOL0     C62255   7.327   4.676   6.195  0.3038  0.1225 -0.3031
  462MOL0     C62256   7.474   4.685   6.175 -0.9997 -0.7188 -0.2079
  462MOL0     C62257   7.519   4.545   6.121  0.2164 -0.2835  0.1785
  462MOL0     C62258   7.430   4.468   6.021  0.1736 -1.0433 -0.2043
  462MOL0     O62259   7.501   4.360   5.956 -0.2991 -0.3621 -0.0679
  462MOL0     C62260   7.442   4.295   5.852  0.6667 -1.0174 -0.1041
  462MOL0     C62261   7.315   4.309   5.800  0.5022  0.5955  0.6624
  462MOL0     C62262   7.273   4.225   5.696 -0.3638  0.1632 -0.4784
  462MOL0     C62263   7.125   4.232   5.652 -0.0916  0.9676  1.0158
  462MOL0     C62264   7.358   4.134   5.640 -0.0622  0.0666  1.0581
  462MOL0     C62265   7.334   4.056   5.520  0.0115 -0.3059  0.1256
  462MOL0     O62266   7.430   4.065   5.424 -0.2728 -0.1865  0.3987
  462MOL0     C62267   7.430   3.992   5.306 -0.7224  0.7940  0.6274
  462MOL0     C62268   7.311   3.978   5.233 -0.6645 -0.0022 -0.0435
  462MOL0     C62269   7.310   3.908   5.103 -0.1182  0.7331  0.6943
  462MOL0     C62270   7.434   3.864   5.052 -0.2272  0.1648 -0.3003
  462MOL0     O62271   7.455   3.803   4.932  0.3992  0.1052  0.4750
  462MOL0     C62272   7.354   3.831   4.825 -0.3597 -0.4133  0.0656
  462MOL0     C62273   7.398   3.757   4.701  0.8562  0.5467  0.4332
  462MOL0     C62274   7.547   3.772   4.671 -0.1159  0.1679 -0.0704
  462MOL0     C62275   7.572   3.710   4.535  1.7736 -0.1048  1.3865
  462MOL0     C62276   7.709   3.744   4.483  0.0676  0.1960  1.2187
  462MOL0     C62277   7.735   3.654   4.358 -0.0625 -0.0053  0.4017
  462MOL0     C62278   7.878   3.680   4.295 -0.4168 -0.4070 -0.2512
  462MOL0     C62279   7.905   3.561   4.200 -0.1929 -0.4906 -0.0883
  462MOL0    Cl62280   8.050   3.583   4.114 -1.0983  0.0237  0.2103
  462MOL0     C62281   7.553   3.877   5.130  0.0280  0.1733  0.0848
  462MOL0     C62282   7.549   3.943   5.249 -0.3028  0.2690 -0.2546
  462MOL0     O62283   7.248   3.972   5.525  0.0974 -0.4092 -0.3520
  462MOL0     C62284   7.491   4.123   5.688  0.3101 -1.1261  0.3904
  462MOL0     C62285   7.519   4.202   5.795  0.3339  1.0791  0.9740
  462MOL0     N62286   7.243   4.827   6.395  0.0001  0.2731  0.5967
  462MOL0     N62287   7.218   4.949   6.411  0.1489 -0.0901  0.4669
  462MOL0     C62288   6.153   5.053   5.753 -0.0790  0.4160 -0.6005
  462MOL0     C62289   6.028   5.076   5.692 -0.0224  0.6960  0.7116
  462MOL0     C62290   5.666   5.320   5.521  0.5024 -0.7051 -0.3812
  462MOL0     C62291   5.597   5.433   5.494 -0.4780 -1.0564 -0.9202
  462MOL0     C62292   5.460   5.439   5.458 -0.7847  0.3993  0.3266
  462MOL0     C62293   5.392   5.320   5.472 -0.4562  0.1403  0.0388
  462MOL0     O62294   5.260   5.301   5.450  0.0735 -0.1897  0.1677
  462MOL0     C62295   5.162   5.409   5.429  0.3059  0.0248 -0.1702
  462MOL0     C62296   5.023   5.354   5.381 -0.2244 -0.8572 -0.3707
  462MOL0     C62297   4.911   5.463   5.385  0.4342 -0.1886 -1.1336
  462MOL0     C62298   4.946   5.585   5.295  0.4837 -0.4174 -0.2160
  462MOL0     C62299   4.907   5.554   5.160 -0.2391 -0.3238 -0.4616
  462MOL0     C62300   4.870   5.513   5.047 -1.1577 -0.0520 -0.3038
  462MOL0     C62301   5.469   5.201   5.490  0.0143  1.7181 -0.9126
  462MOL0     C62302   5.599   5.196   5.520 -0.0790 -0.4111 -0.6694
  462MOL0     H62303   6.050   5.428   5.707  0.4018  0.4770 -2.1645
  462MOL0     H62304   6.257   5.374   5.817 -2.1320  1.1182 -0.7393
  462MOL0     H62305   6.442   5.307   5.907 -0.9138 -0.2604  0.0722
  462MOL0     H62306   6.373   5.205   6.030  0.0924  0.6269  1.0299
  462MOL0     H62307   6.554   5.043   6.023 -0.5972 -0.3724 -1.6434
  462MOL0     H62308   6.626   5.131   5.886 -0.4567  0.3044 -1.4876
  462MOL0     H62309   6.636   5.331   6.061  0.9175 -0.2265 -1.7630
  462MOL0     H62310   6.600   5.203   6.169  1.2084 -0.2114  0.3994
  462MOL0     H62311   6.824   5.091   6.118 -1.1677  0.8168  1.2168
  462MOL0     H62312   6.864   5.232   6.019 -2.0904 -1.6892 -1.6885
  462MOL0     H62313   6.872   5.371   6.213  0.2451 -0.7119  0.4397
  462MOL0     H62314   6.775   5.262   6.305  0.2388  1.9097  0.9964
  462MOL0     H62315   7.010   5.272   6.370  2.8354 -1.9808  0.2978
  462MOL0     H62316   6.971   5.101   6.328  2.9284 -0.7528 -1.6561
  462MOL0     H62317   7.084   5.102   6.131  0.8179 -2.1972  2.3043
  462MOL0     H62318   7.107   5.285   6.150 -3.0691  0.6848 -0.0833
  462MOL0     H62319   7.236   5.203   6.378 -1.7315  1.2298 -0.4849
  462MOL0     H62320   7.324   5.199   6.242  0.1868  0.5215  4.1000
  462MOL0     H62321   7.318   4.952   6.098  0.0153  0.1981 -0.4297
  462MOL0     H62322   7.287   4.589   6.248 -0.2766  0.4413 -0.2041
  462MOL0     H62323   7.289   4.688   6.094  3.6667  3.4508 -1.3915
  462MOL0     H62324   7.524   4.710   6.268  3.0529  0.2207 -2.4148
  462MOL0     H62325   7.499   4.769   6.110 -0.8968  0.6674  1.5650
  462MOL0     H62326   7.533   4.482   6.209 -1.0734 -2.8891 -1.3471
  462MOL0     H62327   7.620   4.557   6.081  0.8068  0.8534  1.9341
  462MOL0     H62328   7.393   4.541   5.947  0.4168 -0.1518  0.5380
  462MOL0     H62329   7.349   4.429   6.082  0.6917 -0.7461  0.6898
  462MOL0     H62330   7.254   4.392   5.834 -0.2630  0.5528 -0.5577
  462MOL0     H62331   7.072   4.145   5.690  0.7707 -0.1155 -0.1940
  462MOL0     H62332   7.074   4.324   5.683 -1.5881 -0.5656  3.3720
  462MOL0     H62333   7.115   4.217   5.544 -2.6954  2.9326  0.8761
  462MOL0     H62334   7.220   4.028   5.266  1.6767  3.5226  1.7920
  462MOL0     H62335   7.217   3.907   5.047 -2.3201  3.1913  3.9026
  462MOL0     H62336   7.257   3.791   4.856  0.7746 -1.8899  2.0283
  462MOL0     H62337   7.343   3.938   4.806  2.1381  0.1481  1.2878
  462MOL0     H62338   7.392   3.650   4.722 -1.3367  0.9388  2.1289
  462MOL0     H62339   7.335   3.783   4.616 -0.1061 -0.5083  0.8030
  462MOL0     H62340   7.606   3.724   4.750  1.0604  1.5352 -0.0630
  462MOL0     H62341   7.585   3.875   4.665  1.9209 -0.6405 -2.6251
  462MOL0     H62342   7.569   3.600   4.533  0.1085 -0.4358 -5.7368
  462MOL0     H62343   7.495   3.737   4.463 -0.3139 -4.0519  1.8322
  462MOL0     H62344   7.785   3.745   4.561  3.0332  0.4291 -1.4689
  462MOL0     H62345   7.710   3.850   4.457  0.2754 -0.1722 -0.4029
  462MOL0     H62346   7.733   3.549   4.389 -2.4044 -0.4466 -0.9641
  462MOL0     H62347   7.660   3.664   4.279 -0.1127 -0.8298  0.3293
  462MOL0     H62348   7.948   3.690   4.378 -0.2792  1.6817 -0.5744
  462MOL0     H62349   7.890   3.775   4.243  0.8966 -1.0830 -1.2311
  462MOL0     H62350   7.824   3.553   4.126  0.9866 -2.7960 -1.2237
  462MOL0     H62351   7.925   3.471   4.257  1.8435 -0.0330 -0.0269
  462MOL0     H62352   7.649   3.839   5.098 -0.3042 -1.4688  0.9646
  462MOL0     H62353   7.638   3.964   5.309 -2.0996  1.3676  2.2011
  462MOL0     H62354   7.569   4.066   5.640  2.0762  0.9589  0.6529
  462MOL0     H62355   7.612   4.165   5.837 -1.5015 -1.7487  2.8947
  462MOL0     H62356   6.184   4.949   5.747 -2.3677 -0.2395 -4.6273
  462MOL0     H62357   5.979   4.983   5.668  0.8486 -0.2534  2.4131
  462MOL0     H62358   5.652   5.526   5.504 -0.0576 -1.5324  4.6274
  462MOL0     H62359   5.414   5.537   5.451  2.8210  2.2595  0.3624
  462MOL0     H62360   5.164   5.471   5.520 -1.5307  0.6071 -0.4834
  462MOL0     H62361   5.200   5.477   5.353  0.2968 -0.9409 -1.0536
  462MOL0     H62362   4.985   5.273   5.444 -0.0894  1.2457  2.6553
  462MOL0     H62363   5.041   5.319   5.279  1.6319 -2.6803  0.5306
  462MOL0     H62364   4.912   5.490   5.492 -2.2038  0.9990 -1.3316
  462MOL0     H62365   4.820   5.413   5.350 -0.1531  1.3335 -1.8460
  462MOL0     H62366   5.051   5.615   5.306 -0.2009  2.2525 -0.5121
  462MOL0     H62367   4.883   5.666   5.331 -0.5439 -0.7899 -1.1385
  462MOL0     H62368   4.826   5.492   4.952 -0.2844  0.9019 -0.9328
  462MOL0     H62369   5.424   5.102   5.492 -0.0740  1.7614  0.3863
  462MOL0     H62370   5.647   5.103   5.546 -1.5722 -1.2594 -0.8435
  463MOL0     O62371   7.324   4.120   3.108 -0.1535 -0.8449 -0.2586
  463MOL0     C62372   7.322   4.069   2.993 -0.4740  0.4809  0.0616
  463MOL0     O62373   7.432   4.065   2.905  0.1907 -0.1779 -0.0554
  463MOL0     C62374   7.550   4.102   2.962 -0.7705  1.1886 -0.2563
  463MOL0     C62375   7.630   3.999   3.012 -0.8201  0.1243 -0.9949
  463MOL0     C62376   7.740   4.027   3.093 -0.3999 -0.4149 -0.0584
  463MOL0     C62377   7.781   4.156   3.116  0.1550  0.2365 -0.3944
  463MOL0     O62378   7.890   4.170   3.207  0.2792  0.5558 -0.1418
  463MOL0     C62379   7.989   4.274   3.185 -0.1617 -0.1835 -0.5130
  463MOL0     C62380   8.102   4.245   3.270  0.1561 -0.1234  0.0392
  463MOL0     C62381   8.080   4.251   3.426  0.0228  0.1387 -0.8704
  463MOL0     C62382   8.096   4.388   3.492  0.1510  0.1974 -0.1289
  463MOL0     C62383   8.071   4.370   3.644 -0.7485 -0.4090 -0.1544
  463MOL0     C62384   7.927   4.386   3.692  0.7291  0.5710 -0.6590
  463MOL0     C62385   7.876   4.534   3.685 -0.1940  0.3124 -0.9297
  463MOL0     C62386   7.730   4.542   3.732  0.0662 -0.0350 -0.9328
  463MOL0     N62387   7.673   4.680   3.763 -0.3272  0.4641 -0.2827
  463MOL0     C62388   7.705   4.758   3.877 -0.3968  0.7918  0.4167
  463MOL0     C62389   7.637   4.871   3.863 -0.4767  0.3565 -0.0226
  463MOL0     C62390   7.621   4.974   3.974 -0.3601  0.0391  0.1396
  463MOL0     C62391   7.494   4.938   4.052  0.1680  0.9519 -0.1419
  463MOL0     C62392   7.521   4.802   4.126  0.2316  0.4008 -1.1174
  463MOL0     C62393   7.429   4.759   4.245 -0.4216  0.2194  0.6560
  463MOL0     O62394   7.477   4.626   4.262  0.1854  0.6148 -0.7195
  463MOL0     C62395   7.417   4.536   4.354 -0.6937  0.1601  0.2622
  463MOL0     C62396   7.490   4.418   4.387 -0.6173  0.2544 -0.2963
  463MOL0     C62397   7.449   4.321   4.484  0.5453  0.3703 -0.0136
  463MOL0     C62398   7.551   4.212   4.521  0.6203 -0.3551  0.3118
  463MOL0     C62399   7.329   4.342   4.555 -0.0478 -0.5997 -1.1599
  463MOL0     C62400   7.276   4.262   4.667 -0.7253 -0.0773  0.5633
  463MOL0     O62401   7.148   4.271   4.685 -0.7576 -0.1490  0.5489
  463MOL0     C62402   7.074   4.207   4.785  0.3101 -0.3052  0.1359
  463MOL0     C62403   6.936   4.214   4.761  0.5081 -0.3758 -0.6375
  463MOL0     C62404   6.843   4.176   4.852  0.2887  1.0550 -0.0646
  463MOL0     C62405   6.884   4.113   4.972  0.2550  0.4336  1.5195
  463MOL0     O62406   6.806   4.085   5.089  0.6254  0.7115  0.1809
  463MOL0     C62407   6.662   4.091   5.082 -0.9191  0.8157  0.2283
  463MOL0     C62408   6.618   3.992   5.204 -1.1057  0.4075  0.6966
  463MOL0     C62409   6.469   4.010   5.249 -0.3744  0.1759 -1.3732
  463MOL0     C62410   6.450   3.910   5.369  0.8272 -0.4150  0.2316
  463MOL0     C62411   6.329   3.938   5.457  0.3432  0.4145  0.4771
  463MOL0     C62412   6.194   3.914   5.387  0.1694 -0.2055  0.2920
  463MOL0     C62413   6.084   3.980   5.470  0.6875  0.2050 -0.6525
  463MOL0     C62414   5.936   3.956   5.437 -0.1960  0.0325  0.4144
  463MOL0    Cl62415   5.891   3.785   5.477 -0.1429 -0.2124 -0.9055
  463MOL0     C62416   7.022   4.104   4.996 -0.0733  0.7046  0.3133
  463MOL0     C62417   7.116   4.146   4.900 -0.0988  0.1302 -0.4167
  463MOL0     O62418   7.360   4.198   4.733 -0.1380  0.1518  0.5103
  463MOL0     C62419   7.259   4.465   4.528  0.8263 -0.6037 -0.3244
  463MOL0     C62420   7.303   4.554   4.430  0.8168  0.2206 -0.0702
  463MOL0     N62421   7.571   4.875   3.737  0.1581  0.6236 -0.5913
  463MOL0     N62422   7.585   4.755   3.681 -0.0195  0.2389 -0.2056
  463MOL0     C62423   7.704   4.258   3.070 -0.0866  0.1363  0.4886
  463MOL0     C62424   7.592   4.230   2.993 -0.6309 -0.7401 -0.1284
  463MOL0     C62425   7.204   4.012   2.947  0.8010  0.3397 -0.0745
  463MOL0     C62426   7.178   4.036   2.810 -0.0847  0.1100 -0.6215
  463MOL0     C62427   7.058   3.986   2.753  0.8928 -0.2892  0.2511
  463MOL0     C62428   6.960   3.925   2.827 -1.2437 -0.9789 -0.1933
  463MOL0     O62429   6.850   3.858   2.780 -0.4694 -0.4707 -0.1040
  463MOL0     C62430   6.769   3.903   2.667  0.3099  0.5241  0.2372
  463MOL0     C62431   6.630   3.829   2.676 -0.6685  0.1605 -0.3981
  463MOL0     C62432   6.541   3.891   2.784  0.2552 -0.6311 -0.9125
  463MOL0     C62433   6.421   3.799   2.804 -0.2444  0.2686 -0.5776
  463MOL0     C62434   6.348   3.787   2.678  0.6216 -0.6648  0.5081
  463MOL0     C62435   6.294   3.768   2.570  0.8280 -0.0457 -0.3460
  463MOL0     C62436   6.993   3.902   2.961  0.1396 -0.5621  0.1071
  463MOL0     C62437   7.111   3.942   3.027  0.0247 -0.3231 -0.5934
  463MOL0     H62438   7.605   3.894   3.001  0.2412 -0.0367 -2.0208
  463MOL0     H62439   7.784   3.941   3.142  1.3821  1.6880  2.3123
  463MOL0     H62440   8.019   4.276   3.080  0.3764  0.6828 -0.3480
  463MOL0     H62441   7.946   4.373   3.201 -1.0029 -0.0735 -3.0408
  463MOL0     H62442   8.143   4.148   3.239  0.5351 -0.2557  0.9345
  463MOL0     H62443   8.170   4.327   3.243  1.2245 -1.5956 -2.1025
  463MOL0     H62444   7.985   4.211   3.462  0.2954  1.7675  2.0170
  463MOL0     H62445   8.151   4.183   3.474 -1.3672 -0.3724  0.5492
  463MOL0     H62446   8.200   4.420   3.491  0.0967  0.8663  3.4140
  463MOL0     H62447   8.041   4.467   3.440  1.0720 -0.1754 -1.7340
  463MOL0     H62448   8.115   4.279   3.685  2.6991  0.6907 -1.1553
  463MOL0     H62449   8.111   4.456   3.698 -3.8321 -0.6021  2.7895
  463MOL0     H62450   7.859   4.332   3.625 -1.6101  0.1468  1.8630
  463MOL0     H62451   7.910   4.358   3.797  2.0161  0.1791 -0.5403
  463MOL0     H62452   7.940   4.596   3.748 -1.7069  4.4077 -3.0452
  463MOL0     H62453   7.883   4.574   3.583 -0.2178  1.7061 -0.4088
  463MOL0     H62454   7.728   4.484   3.825  0.4590 -0.4648 -1.1858
  463MOL0     H62455   7.663   4.477   3.675  0.5892  0.4049 -2.0944
  463MOL0     H62456   7.755   4.735   3.971 -0.8228 -4.3800 -0.3632
  463MOL0     H62457   7.708   4.983   4.041 -0.4180 -0.2170  0.2509
  463MOL0     H62458   7.613   5.071   3.923  1.2094  0.4453  0.5884
  463MOL0     H62459   7.402   4.933   3.994  1.4702  0.2071 -2.2791
  463MOL0     H62460   7.476   5.022   4.120 -1.3514 -0.2739  1.0447
  463MOL0     H62461   7.616   4.804   4.180  0.8995 -0.2269 -2.2349
  463MOL0     H62462   7.516   4.719   4.056 -0.9197 -0.4567 -0.0756
  463MOL0     H62463   7.323   4.752   4.222 -1.0966  0.8533  3.3319
  463MOL0     H62464   7.430   4.826   4.331 -2.6826 -2.0518  2.5875
  463MOL0     H62465   7.581   4.410   4.329 -1.0863  0.8908 -1.1317
  463MOL0     H62466   7.640   4.229   4.460  1.6083 -1.4811  1.3780
  463MOL0     H62467   7.575   4.215   4.628  1.9066  1.4230  0.0138
  463MOL0     H62468   7.494   4.119   4.505 -0.2284  0.1158  0.5377
  463MOL0     H62469   6.892   4.252   4.670  1.3749  1.0012 -0.5143
  463MOL0     H62470   6.746   4.174   4.803  0.9669 -1.0759 -1.4549
  463MOL0     H62471   6.621   4.190   5.102 -0.3804  0.8088  1.4810
  463MOL0     H62472   6.625   4.060   4.984  2.8040 -2.0402 -0.5101
  463MOL0     H62473   6.637   3.888   5.174  0.5039  1.0422 -0.6776
  463MOL0     H62474   6.676   4.006   5.295  1.7641  0.0211 -0.9242
  463MOL0     H62475   6.397   3.989   5.170 -1.2173 -1.4829 -0.2278
  463MOL0     H62476   6.445   4.111   5.281 -0.1907 -0.0240 -0.5796
  463MOL0     H62477   6.429   3.810   5.331  1.3915 -0.3102 -0.3751
  463MOL0     H62478   6.543   3.904   5.427  0.7672 -0.4827  0.3220
  463MOL0     H62479   6.321   4.044   5.482 -0.8437  0.6634 -0.8509
  463MOL0     H62480   6.330   3.873   5.546 -1.6735 -0.9953 -0.4523
  463MOL0     H62481   6.190   3.963   5.289 -1.2811  0.3582  0.5995
  463MOL0     H62482   6.163   3.809   5.380  0.6578 -0.5668  2.7241
  463MOL0     H62483   6.097   4.087   5.455  0.9291  0.3483  0.4838
  463MOL0     H62484   6.095   3.958   5.577  2.0851 -1.0133 -1.0137
  463MOL0     H62485   5.923   3.969   5.329  1.3396 -1.8144 -0.0567
  463MOL0     H62486   5.878   4.025   5.497 -1.3694  2.5231 -3.2153
  463MOL0     H62487   7.061   4.064   5.089  1.6621  0.0766 -0.6446
  463MOL0     H62488   7.222   4.139   4.925 -0.3729  0.8710  1.1319
  463MOL0     H62489   7.164   4.492   4.573  0.2122  1.7345 -2.8147
  463MOL0     H62490   7.232   4.630   4.396 -0.0437 -1.5253 -2.4556
  463MOL0     H62491   7.731   4.363   3.072  2.1558 -0.3596  3.1364
  463MOL0     H62492   7.527   4.312   2.964 -2.6081 -0.9648  3.0951
  463MOL0     H62493   7.250   4.100   2.761  0.3128  1.2228  1.3322
  463MOL0     H62494   7.035   4.001   2.648  0.8355  1.0732  0.4306
  463MOL0     H62495   6.757   4.011   2.678  1.9026  1.0615 -2.4587
  463MOL0     H62496   6.814   3.882   2.570  2.8821 -0.0587  1.4492
  463MOL0     H62497   6.657   3.726   2.701  1.1028  0.8255  0.5594
  463MOL0     H62498   6.578   3.827   2.579 -2.4446  1.0428  0.4901
  463MOL0     H62499   6.508   3.995   2.783  0.6366 -0.4477  1.3517
  463MOL0     H62500   6.602   3.895   2.874  1.1915 -0.0536 -1.5552
  463MOL0     H62501   6.353   3.835   2.881  0.9526  1.6998 -0.1571
  463MOL0     H62502   6.443   3.699   2.842  1.2158  1.5000  2.0470
  463MOL0     H62503   6.262   3.744   2.471 -0.2097 -3.9523  0.7803
  463MOL0     H62504   6.917   3.857   3.024 -0.4003 -2.5692 -1.8409
  463MOL0     H62505   7.119   3.919   3.133  2.1991  1.2027 -0.3621
  464MOL0     O62506   9.236   5.899   2.082  0.0115 -0.1044 -0.2309
  464MOL0     C62507   9.293   5.955   1.991 -0.4201  0.0229 -0.4215
  464MOL0     O62508   9.231   6.011   1.878 -0.3005 -0.0120 -0.2903
  464MOL0     C62509   9.101   6.009   1.855  0.2434 -0.7458 -0.2173
  464MOL0     C62510   9.036   6.130   1.827 -0.1114 -0.4243 -0.7921
  464MOL0     C62511   8.902   6.136   1.799 -0.1125  0.0488  0.6409
  464MOL0     C62512   8.828   6.019   1.767  0.9645  0.0709 -0.5981
  464MOL0     O62513   8.695   6.019   1.714 -0.1340  0.5946  0.4340
  464MOL0     C62514   8.618   6.146   1.719  0.5821 -0.1058  0.4382
  464MOL0     C62515   8.468   6.136   1.676 -0.6379  0.4685  0.4645
  464MOL0     C62516   8.369   6.231   1.742 -0.3371 -0.2898 -0.9148
  464MOL0     C62517   8.243   6.239   1.650  0.5717  0.0642  0.0739
  464MOL0     C62518   8.139   6.328   1.710  0.9869 -0.1479 -0.7576
  464MOL0     C62519   8.010   6.327   1.625  0.0149 -0.3629  0.9067
  464MOL0     C62520   7.883   6.357   1.696  0.5443 -0.4114 -0.1930
  464MOL0     C62521   7.900   6.462   1.803  0.6204 -0.4722 -0.1062
  464MOL0     N62522   7.777   6.542   1.836 -0.4805  0.9538  0.1932
  464MOL0     C62523   7.766   6.677   1.807  0.5354 -0.5756 -0.0710
  464MOL0     C62524   7.632   6.702   1.835  0.2306 -0.4099 -0.2456
  464MOL0     C62525   7.547   6.828   1.832  0.1819 -0.9418 -0.0213
  464MOL0     C62526   7.626   6.957   1.807  0.1648  0.0151 -0.7468
  464MOL0     C62527   7.685   7.010   1.937  0.2860 -0.0508  0.0883
  464MOL0     C62528   7.811   7.100   1.912  0.7014  0.4953  0.3219
  464MOL0     O62529   7.923   7.012   1.881 -0.1694  0.8074 -0.4154
  464MOL0     C62530   8.048   7.069   1.870  0.2648  0.1999  0.0275
  464MOL0     C62531   8.078   7.207   1.853  0.1448 -0.2625 -0.0373
  464MOL0     C62532   8.212   7.260   1.843  0.9337  0.0956 -0.2294
  464MOL0     C62533   8.232   7.404   1.793 -0.2581  0.1440 -0.4830
  464MOL0     C62534   8.318   7.167   1.851  0.8368  0.3027 -0.4801
  464MOL0     C62535   8.469   7.199   1.841  0.1665 -0.0824 -0.7075
  464MOL0     O62536   8.520   7.315   1.893  0.1228  0.2182 -0.0731
  464MOL0     C62537   8.653   7.332   1.901  0.3206  0.3617 -0.1816
  464MOL0     C62538   8.723   7.279   2.009 -0.2921 -0.4670 -0.2748
  464MOL0     C62539   8.860   7.313   2.014 -0.5911 -0.5813  0.2094
  464MOL0     C62540   8.925   7.385   1.911  0.9495 -0.6968  0.4888
  464MOL0     O62541   9.067   7.397   1.900  0.0587  0.5405  0.6951
  464MOL0     C62542   9.128   7.441   1.772  0.4334 -0.2958  0.6769
  464MOL0     C62543   9.277   7.465   1.797  0.6220  0.5731  0.9019
  464MOL0     C62544   9.282   7.589   1.887 -0.4615  0.4163  0.5172
  464MOL0     C62545   9.427   7.623   1.915 -0.0663 -0.5379  0.4533
  464MOL0     C62546   9.447   7.724   2.026 -0.5175  0.0539 -1.2668
  464MOL0     C62547   9.602   7.730   2.063  0.0400 -0.1396 -0.4102
  464MOL0     C62548   9.635   7.836   2.168 -0.1452  0.8201  0.2511
  464MOL0     C62549   9.790   7.844   2.193 -0.1380  0.0218  0.4085
  464MOL0    Cl62550   9.816   7.920   2.360  0.0565 -0.1684  0.2980
  464MOL0     C62551   8.844   7.437   1.815 -0.5970 -0.7680  0.5825
  464MOL0     C62552   8.705   7.417   1.813  0.1782 -0.0688  0.1746
  464MOL0     O62553   8.539   7.120   1.781  0.3459  0.5223 -0.4049
  464MOL0     C62554   8.280   7.033   1.864  0.0602 -0.3588  0.8332
  464MOL0     C62555   8.154   6.988   1.877  0.0176 -0.1061  0.0575
  464MOL0     N62556   7.570   6.577   1.867  0.1003  0.3459  0.3307
  464MOL0     N62557   7.654   6.492   1.866 -0.2158  0.7111  0.4688
  464MOL0     C62558   8.895   5.898   1.799 -0.5357  0.0278  0.8862
  464MOL0     C62559   9.024   5.903   1.857  0.1035  0.0132  0.1329
  464MOL0     C62560   9.443   5.960   1.988  0.3241  0.1581 -0.3979
  464MOL0     C62561   9.507   6.030   1.881 -0.5298 -0.0739  0.7439
  464MOL0     C62562   9.641   6.027   1.868 -0.0976 -0.1546  0.1419
  464MOL0     C62563   9.724   5.965   1.966 -0.0302 -0.3911  0.8717
  464MOL0     O62564   9.862   5.955   1.958 -0.1200 -0.1503 -0.3759
  464MOL0     C62565   9.932   6.046   1.871  0.5161 -0.6160  0.1261
  464MOL0     C62566  10.085   6.029   1.876 -0.0312 -0.1570  0.0599
  464MOL0     C62567  10.160   6.154   1.818  0.5585  0.7563  0.6400
  464MOL0     C62568  10.306   6.132   1.800  0.7157  0.9026  0.2399
  464MOL0     C62569  10.339   6.025   1.712  0.4759  0.9019  0.7563
  464MOL0     C62570  10.355   5.923   1.650  0.7007  0.4759  0.1635
  464MOL0     C62571   9.662   5.888   2.060  0.0790 -1.0628 -0.8773
  464MOL0     C62572   9.523   5.883   2.079 -0.1894 -0.5632  1.2268
  464MOL0     H62573   9.080   6.229   1.818  1.2984 -0.9112  0.3475
  464MOL0     H62574   8.859   6.236   1.789 -3.6642 -1.4652 -1.0183
  464MOL0     H62575   8.615   6.161   1.827 -0.3429  1.3284  0.2290
  464MOL0     H62576   8.667   6.219   1.653 -2.5344  1.0421 -0.7626
  464MOL0     H62577   8.477   6.166   1.571  2.3289 -1.7109 -0.0201
  464MOL0     H62578   8.434   6.033   1.674  1.1516 -0.1479 -1.1438
  464MOL0     H62579   8.342   6.191   1.840  0.5118 -1.9580 -1.3051
  464MOL0     H62580   8.405   6.334   1.745  2.7712 -1.2997  0.0777
  464MOL0     H62581   8.265   6.271   1.548 -0.4713 -2.7021 -1.1161
  464MOL0     H62582   8.207   6.136   1.636 -1.6470  0.5057  1.8867
  464MOL0     H62583   8.118   6.304   1.815  1.3121  0.7107 -0.4817
  464MOL0     H62584   8.180   6.430   1.701 -0.8799  0.8043  0.8265
  464MOL0     H62585   8.019   6.384   1.532 -0.0698 -0.2345  0.9773
  464MOL0     H62586   7.996   6.226   1.585 -0.6845  0.2743 -0.5591
  464MOL0     H62587   7.807   6.391   1.626  0.7945 -1.2608 -0.8905
  464MOL0     H62588   7.841   6.265   1.738  0.3240  0.3508  1.3474
  464MOL0     H62589   7.988   6.520   1.772  0.0533  0.5209  0.1121
  464MOL0     H62590   7.926   6.411   1.897  2.8188  0.9404  0.1383
  464MOL0     H62591   7.844   6.746   1.776  0.4251 -1.1764 -1.8047
  464MOL0     H62592   7.472   6.809   1.754  1.6548 -2.3799 -1.1348
  464MOL0     H62593   7.489   6.847   1.923  1.6253 -0.1590  0.7681
  464MOL0     H62594   7.557   7.035   1.772  0.1606  0.5476  0.3943
  464MOL0     H62595   7.701   6.953   1.728 -0.1148  2.6457 -1.2559
  464MOL0     H62596   7.719   6.930   2.004  1.3866  0.9666  0.7933
  464MOL0     H62597   7.605   7.077   1.969 -0.9614  0.5205 -3.7304
  464MOL0     H62598   7.849   7.151   2.001 -0.1140  3.8143 -1.0744
  464MOL0     H62599   7.787   7.179   1.840  1.3549 -1.2825 -1.9596
  464MOL0     H62600   7.996   7.278   1.846 -1.5318 -2.0463  0.5291
  464MOL0     H62601   8.205   7.464   1.880 -2.8143 -0.9670 -0.4385
  464MOL0     H62602   8.338   7.418   1.769 -0.0177  1.2984  1.0900
  464MOL0     H62603   8.171   7.440   1.710  1.0868  2.8950 -0.4030
  464MOL0     H62604   8.682   7.218   2.088  1.4048 -1.8716 -0.4085
  464MOL0     H62605   8.925   7.260   2.083 -1.6090 -0.7927  1.0294
  464MOL0     H62606   9.122   7.366   1.692  1.8874  2.0992 -1.8374
  464MOL0     H62607   9.082   7.535   1.742  2.3605  0.0590 -1.4880
  464MOL0     H62608   9.328   7.383   1.847 -1.1871 -0.5778  0.9263
  464MOL0     H62609   9.327   7.473   1.700  1.6239  1.0393  1.4369
  464MOL0     H62610   9.232   7.574   1.983 -2.5435  0.8687 -0.4556
  464MOL0     H62611   9.237   7.679   1.843 -2.0640 -0.2014  0.8590
  464MOL0     H62612   9.477   7.532   1.951  2.9718  0.1478 -1.6042
  464MOL0     H62613   9.482   7.654   1.825 -1.4179 -0.4312 -0.3560
  464MOL0     H62614   9.382   7.700   2.110 -0.2407  0.4626 -0.9316
  464MOL0     H62615   9.418   7.823   1.987 -2.1228 -0.7783 -2.3037
  464MOL0     H62616   9.625   7.637   2.116 -2.5107 -0.2249  0.6802
  464MOL0     H62617   9.663   7.737   1.972 -2.1934 -2.7115 -2.2796
  464MOL0     H62618   9.588   7.803   2.261  1.9992  2.5608  2.0738
  464MOL0     H62619   9.590   7.932   2.141 -0.3025  0.4650 -0.7944
  464MOL0     H62620   9.830   7.910   2.115 -1.0077 -0.1178 -0.1719
  464MOL0     H62621   9.839   7.746   2.189  0.2004  0.1137  1.8370
  464MOL0     H62622   8.888   7.501   1.740 -2.4890  0.5335  0.5142
  464MOL0     H62623   8.640   7.459   1.737  2.7511  0.2953 -2.0172
  464MOL0     H62624   8.359   6.959   1.869  2.3842  1.8843 -0.3691
  464MOL0     H62625   8.127   6.886   1.903  1.3772  0.0436  2.2942
  464MOL0     H62626   8.840   5.805   1.792 -2.1042  0.9985 -0.5496
  464MOL0     H62627   9.060   5.800   1.864 -2.8519 -1.0012  1.9498
  464MOL0     H62628   9.449   6.098   1.819 -1.7488  0.3347  2.2385
  464MOL0     H62629   9.679   6.086   1.785 -0.4041 -0.8337 -0.4914
  464MOL0     H62630   9.904   6.039   1.765 -1.1263  0.8488  0.4228
  464MOL0     H62631   9.904   6.146   1.905 -4.0253 -1.1939 -1.3137
  464MOL0     H62632  10.097   5.940   1.814  0.3861 -0.3571  0.4277
  464MOL0     H62633  10.123   6.007   1.977 -0.3574 -0.3785  0.1375
  464MOL0     H62634  10.135   6.240   1.880 -2.2629 -0.3256  1.1562
  464MOL0     H62635  10.112   6.169   1.721  1.9389  0.8184 -0.0616
  464MOL0     H62636  10.352   6.118   1.898  0.3445 -0.9675  0.1857
  464MOL0     H62637  10.347   6.227   1.764  2.0850 -0.3892 -1.8306
  464MOL0     H62638  10.360   5.834   1.591  0.8832  1.0509 -0.7102
  464MOL0     H62639   9.711   5.825   2.134 -2.0536 -1.0042  0.6673
  464MOL0     H62640   9.464   5.830   2.152 -1.4711 -1.0755 -0.1436
  465MOL0     O62641   3.142   4.252   3.397 -0.0994 -0.4286 -0.5058
  465MOL0     C62642   3.135   4.219   3.279  0.2111  0.3521 -0.0745
  465MOL0     O62643   3.018   4.180   3.209  0.2662 -0.2963 -0.3042
  465MOL0     C62644   2.921   4.127   3.285 -0.6082  0.1802 -0.0445
  465MOL0     C62645   2.927   3.992   3.307  0.3969  1.0361 -0.1687
  465MOL0     C62646   2.819   3.930   3.377 -1.2572  0.2791 -0.0207
  465MOL0     C62647   2.718   4.012   3.432 -0.2942  0.5619 -0.4565
  465MOL0     O62648   2.607   3.952   3.495 -0.0727  0.1346 -0.7439
  465MOL0     C62649   2.578   3.816   3.456 -0.1174 -1.2715 -0.1450
  465MOL0     C62650   2.450   3.768   3.517  0.6294  0.6969  0.3076
  465MOL0     C62651   2.329   3.844   3.466  0.4929  0.3591  0.2170
  465MOL0     C62652   2.202   3.782   3.534  0.3325 -0.1058  0.2184
  465MOL0     C62653   2.149   3.663   3.454  0.4417 -0.9465 -0.0783
  465MOL0     C62654   2.029   3.591   3.526 -0.7903 -0.3524 -0.2690
  465MOL0     C62655   2.075   3.490   3.634  0.6415  0.4209 -0.7429
  465MOL0     C62656   1.964   3.382   3.650  0.4378 -0.7684 -0.6019
  465MOL0     N62657   1.827   3.427   3.690 -0.6592 -0.5344  0.0526
  465MOL0     C62658   1.800   3.547   3.751 -0.2380  0.7166 -0.5320
  465MOL0     C62659   1.667   3.544   3.791  0.3579  0.1831  0.1196
  465MOL0     C62660   1.582   3.657   3.816 -0.5873 -0.6237 -0.8498
  465MOL0     C62661   1.430   3.617   3.788  0.5898 -0.3029 -0.5319
  465MOL0     C62662   1.336   3.738   3.827 -1.0180 -0.1435 -0.1364
  465MOL0     C62663   1.190   3.688   3.825  0.2492 -0.2802 -0.1739
  465MOL0     O62664   1.111   3.796   3.868 -0.4519  0.2528 -0.7392
  465MOL0     C62665   0.973   3.760   3.866  0.3126  0.9964 -0.2793
  465MOL0     C62666   0.893   3.821   3.770  0.5041  0.0899 -0.4806
  465MOL0     C62667   0.751   3.798   3.772  0.2327  0.1689  0.2945
  465MOL0     C62668   0.675   3.869   3.658 -0.2937  0.3943  0.1359
  465MOL0     C62669   0.689   3.694   3.852 -1.1112  0.1887  0.6221
  465MOL0     C62670   0.550   3.646   3.847  0.2649 -0.5504  0.7717
  465MOL0     O62671   0.525   3.528   3.911 -1.0290  0.4202  0.5451
  465MOL0     C62672   0.396   3.483   3.895 -0.1228  0.5157  0.2009
  465MOL0     C62673   0.358   3.397   3.788 -0.6964 -0.3347 -0.5123
  465MOL0     C62674   0.222   3.378   3.756 -0.4455 -0.2073  0.9316
  465MOL0     C62675   0.127   3.423   3.843  0.2560  0.2188  0.3453
  465MOL0     O62676  -0.009   3.428   3.815  0.0851 -0.5867  0.3338
  465MOL0     C62677  -0.055   3.343   3.713  0.3415  0.4673  0.1775
  465MOL0     C62678  -0.204   3.383   3.697  0.4244  0.7989 -0.1385
  465MOL0     C62679  -0.229   3.490   3.594  0.4369  0.3570  0.1296
  465MOL0     C62680  -0.377   3.509   3.590 -0.7063  0.2540 -0.1459
  465MOL0     C62681  -0.431   3.619   3.493  0.3340  0.1157  0.2220
  465MOL0     C62682  -0.575   3.587   3.452  0.6067  0.2552 -0.0062
  465MOL0     C62683  -0.607   3.602   3.303 -0.9234 -0.7531  0.3614
  465MOL0     C62684  -0.749   3.553   3.270 -0.8819  1.1866 -0.0742
  465MOL0    Cl62685  -0.849   3.697   3.288 -0.2382 -0.3915  0.3352
  465MOL0     C62686   0.164   3.496   3.949 -0.0856 -0.0401  0.2979
  465MOL0     C62687   0.296   3.530   3.978  0.4588  0.5717  0.2445
  465MOL0     O62688   0.464   3.716   3.790 -0.4577  0.0890 -0.0289
  465MOL0     C62689   0.773   3.635   3.948  0.3737 -0.4852  0.5843
  465MOL0     C62690   0.914   3.662   3.951  0.0212 -1.2146  0.3811
  465MOL0     N62691   1.621   3.417   3.761 -0.6231  0.0722 -0.7492
  465MOL0     N62692   1.722   3.349   3.703  0.1913  0.2094  0.0942
  465MOL0     C62693   2.725   4.153   3.422  1.1587  0.2180 -0.6741
  465MOL0     C62694   2.822   4.212   3.348  0.7886 -0.7391 -0.3786
  465MOL0     C62695   3.260   4.234   3.202  0.4172 -0.2217  0.3333
  465MOL0     C62696   3.379   4.270   3.274 -0.3304  0.5941 -0.5805
  465MOL0     C62697   3.499   4.283   3.209 -0.0160  0.3291 -0.0973
  465MOL0     C62698   3.507   4.264   3.066  0.2895 -0.5081  0.3437
  465MOL0     O62699   3.646   4.274   3.016  0.2221  0.3062 -0.1537
  465MOL0     C62700   3.677   4.263   2.877 -0.2071  0.5021 -0.3019
  465MOL0     C62701   3.640   4.390   2.796  0.2905 -0.3487 -0.3585
  465MOL0     C62702   3.688   4.513   2.873  0.2522  0.6506  0.2423
  465MOL0     C62703   3.847   4.513   2.882  0.6829 -0.0619 -0.4494
  465MOL0     C62704   3.890   4.652   2.885 -0.2403  0.1740 -0.4601
  465MOL0     C62705   3.930   4.765   2.885  0.2781  0.4730 -0.8782
  465MOL0     C62706   3.390   4.232   2.995  0.0695 -0.2503  0.3293
  465MOL0     C62707   3.273   4.222   3.068 -0.7299  0.1101  1.1661
  465MOL0     H62708   3.016   3.937   3.276  1.5717  0.8434  3.1180
  465MOL0     H62709   2.828   3.823   3.369  0.0716  0.3496  0.2567
  465MOL0     H62710   2.575   3.805   3.347  2.1399 -0.4332 -0.3460
  465MOL0     H62711   2.660   3.751   3.489  0.4632  0.0858  1.2140
  465MOL0     H62712   2.433   3.661   3.501 -0.3302  1.1124 -1.8538
  465MOL0     H62713   2.464   3.782   3.624  0.3675 -1.3309  0.6311
  465MOL0     H62714   2.328   3.947   3.502  1.0190  0.0857  1.0319
  465MOL0     H62715   2.323   3.831   3.357  1.5106 -3.6704  0.4813
  465MOL0     H62716   2.229   3.750   3.635  2.7640  1.6286  0.1921
  465MOL0     H62717   2.131   3.865   3.534  1.8233  1.2463  1.6240
  465MOL0     H62718   2.113   3.697   3.356 -1.8483  1.0036  1.3222
  465MOL0     H62719   2.221   3.582   3.439  3.3207  0.9919  2.2554
  465MOL0     H62720   1.975   3.672   3.574  2.2392  0.9197  1.2518
  465MOL0     H62721   1.969   3.550   3.445  1.2413  3.2833 -3.9977
  465MOL0     H62722   2.166   3.435   3.605  2.4284  2.7010  0.1882
  465MOL0     H62723   2.106   3.541   3.726 -0.9226 -0.8748  0.5695
  465MOL0     H62724   1.989   3.303   3.721 -0.6636  0.8761  1.7501
  465MOL0     H62725   1.965   3.330   3.553 -0.2530  1.2487 -1.7575
  465MOL0     H62726   1.863   3.636   3.744  0.9344  0.1620  2.0951
  465MOL0     H62727   1.606   3.685   3.919  1.4120  0.3932 -1.5427
  465MOL0     H62728   1.609   3.743   3.754  0.7799 -1.3375 -1.2790
  465MOL0     H62729   1.401   3.534   3.853  2.0088 -1.2897 -1.1058
  465MOL0     H62730   1.407   3.589   3.684  0.1762 -0.7826 -0.3171
  465MOL0     H62731   1.366   3.820   3.761  0.5335  0.6125  1.4324
  465MOL0     H62732   1.369   3.753   3.930 -1.7819 -2.5325  0.5254
  465MOL0     H62733   1.193   3.601   3.892 -0.6167  1.6770  2.5858
  465MOL0     H62734   1.173   3.665   3.719  1.8199 -2.3951 -0.0287
  465MOL0     H62735   0.919   3.906   3.708 -2.7180  1.7865  0.2876
  465MOL0     H62736   0.576   3.906   3.686  0.1019  1.1880  0.5219
  465MOL0     H62737   0.737   3.943   3.605 -0.9806  1.2636  0.5187
  465MOL0     H62738   0.650   3.784   3.595 -3.8341  1.8889 -0.7122
  465MOL0     H62739   0.439   3.374   3.719  1.8782  3.0083  1.0989
  465MOL0     H62740   0.201   3.338   3.657 -0.4238 -0.3320  0.9782
  465MOL0     H62741  -0.012   3.355   3.614 -1.9773  0.6313 -0.8641
  465MOL0     H62742  -0.052   3.235   3.732  2.5779  0.3808 -0.4529
  465MOL0     H62743  -0.248   3.292   3.656 -0.1736  0.9301  0.1898
  465MOL0     H62744  -0.238   3.400   3.800 -0.4332 -0.7585 -0.1319
  465MOL0     H62745  -0.191   3.457   3.497 -0.7275 -2.3317  0.4937
  465MOL0     H62746  -0.183   3.586   3.617 -0.3878  1.5183 -2.6591
  465MOL0     H62747  -0.428   3.414   3.568 -2.2011  0.2560  2.7753
  465MOL0     H62748  -0.412   3.537   3.690 -2.2853  1.9633 -1.1133
  465MOL0     H62749  -0.379   3.610   3.397 -0.2057  2.3056 -0.3218
  465MOL0     H62750  -0.428   3.717   3.540 -1.5333 -0.2959  1.3070
  465MOL0     H62751  -0.604   3.483   3.473  2.3360 -0.1146  0.6990
  465MOL0     H62752  -0.639   3.656   3.508 -2.7481 -3.6233  1.4492
  465MOL0     H62753  -0.539   3.541   3.242  2.0740  0.7826  1.9324
  465MOL0     H62754  -0.600   3.707   3.271 -0.0435  0.2027  3.3704
  465MOL0     H62755  -0.787   3.469   3.329 -2.6009  1.7501 -0.3354
  465MOL0     H62756  -0.732   3.510   3.171  0.3474 -0.5413  0.8399
  465MOL0     H62757   0.104   3.541   4.027 -0.8208  0.2800 -0.4322
  465MOL0     H62758   0.326   3.582   4.068  1.9193 -2.3634  1.5704
  465MOL0     H62759   0.735   3.557   4.013  0.7888 -1.2901 -0.1080
  465MOL0     H62760   0.983   3.596   4.002 -0.2267 -1.5784  0.2477
  465MOL0     H62761   2.651   4.214   3.472  2.6019  2.9630 -1.6517
  465MOL0     H62762   2.829   4.317   3.320 -2.9451  0.1061  1.2542
  465MOL0     H62763   3.371   4.283   3.381 -1.8951  0.6615 -0.6726
  465MOL0     H62764   3.588   4.309   3.266  0.2752 -4.8934  2.3904
  465MOL0     H62765   3.784   4.237   2.870 -0.1039  1.0787 -0.9584
  465MOL0     H62766   3.631   4.176   2.829  1.4355 -1.2268  1.0635
  465MOL0     H62767   3.533   4.398   2.776  0.0473  1.1859  1.2967
  465MOL0     H62768   3.687   4.387   2.697 -0.1439  2.4793 -0.7386
  465MOL0     H62769   3.638   4.523   2.970  0.2400 -2.9173  0.7666
  465MOL0     H62770   3.655   4.603   2.822 -0.1905  0.9715  1.0731
  465MOL0     H62771   3.885   4.455   2.797  1.2747  0.6888 -0.7006
  465MOL0     H62772   3.887   4.455   2.965 -3.5311 -2.2027  0.3985
  465MOL0     H62773   3.978   4.860   2.894 -1.0694  1.1777 -0.8674
  465MOL0     H62774   3.393   4.194   2.894  0.2324 -4.4245  1.7322
  465MOL0     H62775   3.188   4.201   3.004  0.0441 -1.2745  0.5693
  466MOL0     O62776   8.724   6.215   7.156 -0.2234 -0.2412  0.3586
  466MOL0     C62777   8.768   6.207   7.269 -0.3627 -0.9390 -0.1391
  466MOL0     O62778   8.694   6.178   7.390 -0.1378  0.0535 -0.4532
  466MOL0     C62779   8.556   6.165   7.390  0.1306  0.5418 -0.4562
  466MOL0     C62780   8.499   6.133   7.510  0.0847  0.0556  0.4140
  466MOL0     C62781   8.357   6.119   7.535 -0.1228 -0.3245  0.3601
  466MOL0     C62782   8.274   6.128   7.426 -0.4514 -0.7867 -0.0633
  466MOL0     O62783   8.138   6.107   7.423  0.0543  0.2763  0.2183
  466MOL0     C62784   8.073   6.088   7.547 -0.6087  0.0240 -0.5185
  466MOL0     C62785   7.922   6.119   7.523  0.0557 -0.3116 -0.7585
  466MOL0     C62786   7.903   6.250   7.445  0.0492  0.0376  0.0172
  466MOL0     C62787   7.767   6.307   7.456 -0.5908  0.4947 -0.5205
  466MOL0     C62788   7.665   6.200   7.411  0.6101 -0.5158  0.2074
  466MOL0     C62789   7.522   6.251   7.410 -0.6476  0.4006 -0.4851
  466MOL0     C62790   7.479   6.303   7.553 -0.6184 -0.1902 -0.8001
  466MOL0     C62791   7.406   6.205   7.633  0.5469  0.2068 -0.3686
  466MOL0     N62792   7.281   6.140   7.581 -0.0073 -0.1864 -0.3057
  466MOL0     C62793   7.150   6.185   7.575  0.2236  0.1024 -0.0908
  466MOL0     C62794   7.069   6.078   7.542 -0.4612  0.2610  0.4503
  466MOL0     C62795   6.916   6.091   7.515 -0.7231  0.2791 -0.6867
  466MOL0     C62796   6.825   6.076   7.638  0.1715 -1.0529 -0.1140
  466MOL0     C62797   6.832   5.941   7.705  0.7208 -0.3097 -0.0725
  466MOL0     C62798   6.721   5.945   7.813  0.4370  0.7139  0.2219
  466MOL0     O62799   6.596   5.898   7.759 -0.5026 -0.7186  0.4617
  466MOL0     C62800   6.474   5.908   7.821  0.1621  0.4606 -0.0117
  466MOL0     C62801   6.454   5.973   7.936  0.0130 -0.7603  0.0777
  466MOL0     C62802   6.326   5.978   8.007  0.3167  0.3616 -0.1510
  466MOL0     C62803   6.323   6.064   8.135 -0.3668 -0.9352  0.1255
  466MOL0     C62804   6.218   5.894   7.961  0.2189 -0.1896  0.4683
  466MOL0     C62805   6.093   5.861   8.035 -0.7856  0.7607 -0.4500
  466MOL0     O62806   6.064   5.924   8.160 -0.5206 -0.4380 -0.4490
  466MOL0     C62807   5.951   5.897   8.238 -0.0382 -0.3385  0.7448
  466MOL0     C62808   5.898   6.004   8.321  0.7125 -0.4450 -0.0596
  466MOL0     C62809   5.795   5.989   8.411  0.5911  0.7758  0.3938
  466MOL0     C62810   5.724   5.865   8.400 -0.0770  0.3138  1.2090
  466MOL0     O62811   5.617   5.835   8.471 -0.2444  0.4432 -0.3713
  466MOL0     C62812   5.564   5.921   8.573  0.3055 -0.1841 -0.4001
  466MOL0     C62813   5.438   5.872   8.636  0.6247  1.0706  0.3868
  466MOL0     C62814   5.313   5.871   8.529 -0.1956  0.9195 -0.0878
  466MOL0     C62815   5.188   5.892   8.617 -0.3586 -0.3136 -0.4837
  466MOL0     C62816   5.061   5.885   8.527  0.1674 -0.1818 -0.6749
  466MOL0     C62817   5.043   5.987   8.406 -0.5953  0.4962 -0.1850
  466MOL0     C62818   5.064   6.128   8.459  0.1568  0.3928  0.0976
  466MOL0     C62819   5.093   6.209   8.329  0.0049  0.6418  0.2978
  466MOL0    Cl62820   4.985   6.350   8.310 -0.0385 -0.0663  0.2596
  466MOL0     C62821   5.767   5.766   8.308  1.3634 -0.7162 -0.5720
  466MOL0     C62822   5.876   5.777   8.233 -0.6393  0.1129 -0.4954
  466MOL0     O62823   6.013   5.792   7.979  0.0032  0.3577 -0.6378
  466MOL0     C62824   6.248   5.813   7.848 -0.2943 -0.3575  1.0669
  466MOL0     C62825   6.373   5.820   7.769  0.2811 -0.0029 -0.6335
  466MOL0     N62826   7.153   5.978   7.510  0.5155  0.1176 -0.7990
  466MOL0     N62827   7.279   6.009   7.542 -0.1993  0.2683  0.1235
  466MOL0     C62828   8.326   6.167   7.304 -0.4934  0.1785 -0.6697
  466MOL0     C62829   8.460   6.178   7.286 -0.1307  0.5179  0.0113
  466MOL0     C62830   8.911   6.236   7.291 -0.4703 -0.4749 -0.3388
  466MOL0     C62831   8.984   6.262   7.174 -0.7214  0.7514 -0.0589
  466MOL0     C62832   9.121   6.298   7.182 -0.3820 -0.6625  0.1249
  466MOL0     C62833   9.187   6.293   7.304  0.2433  0.7756  0.1607
  466MOL0     O62834   9.316   6.339   7.306  0.6455  1.3432 -0.8847
  466MOL0     C62835   9.383   6.365   7.429  0.5007 -0.1665 -0.8444
  466MOL0     C62836   9.514   6.434   7.400 -0.2914  0.2516 -0.5222
  466MOL0     C62837   9.611   6.385   7.292 -0.0337  0.0062 -0.2091
  466MOL0     C62838   9.652   6.238   7.331 -0.5482 -0.0451 -0.4975
  466MOL0     C62839   9.797   6.218   7.310  0.2444  0.4324 -0.0076
  466MOL0     C62840   9.918   6.197   7.292 -0.1715 -0.2098 -0.6426
  466MOL0     C62841   9.117   6.244   7.415  0.5040  0.6610 -0.2344
  466MOL0     C62842   8.980   6.218   7.411  0.2362 -0.6775 -0.1735
  466MOL0     H62843   8.548   6.126   7.607 -1.4143  0.5905  1.2445
  466MOL0     H62844   8.311   6.099   7.631  0.0966 -1.4493  0.2414
  466MOL0     H62845   8.095   5.991   7.592  1.3325  0.8083  0.3224
  466MOL0     H62846   8.096   6.167   7.618 -1.0292  0.5009 -0.9017
  466MOL0     H62847   7.878   6.034   7.470 -1.0724  0.4613 -1.1068
  466MOL0     H62848   7.865   6.128   7.616 -2.7229 -1.4818 -2.2191
  466MOL0     H62849   7.971   6.324   7.487 -0.2104 -0.0657  0.6325
  466MOL0     H62850   7.932   6.220   7.344  1.9719 -2.6229  1.2423
  466MOL0     H62851   7.758   6.324   7.564 -0.5529 -4.2573  0.4415
  466MOL0     H62852   7.763   6.400   7.399 -0.4282 -0.8932 -2.9290
  466MOL0     H62853   7.683   6.164   7.309 -2.6772 -1.9464  0.0116
  466MOL0     H62854   7.679   6.105   7.464  1.9583 -0.5574 -0.1899
  466MOL0     H62855   7.524   6.341   7.349  0.3903  0.5082 -0.3078
  466MOL0     H62856   7.451   6.173   7.380 -1.4527  1.1061 -0.4596
  466MOL0     H62857   7.561   6.344   7.613  0.4870 -1.1788 -1.5858
  466MOL0     H62858   7.406   6.383   7.539 -0.1595  0.7473  1.6433
  466MOL0     H62859   7.377   6.263   7.721 -1.5301  2.0329 -2.1640
  466MOL0     H62860   7.485   6.133   7.657  2.5349  2.3307 -0.1958
  466MOL0     H62861   7.112   6.281   7.606 -2.0811  0.1067 -2.6226
  466MOL0     H62862   6.910   6.184   7.457  0.5161 -0.2197 -1.6695
  466MOL0     H62863   6.889   6.014   7.442 -2.0145  1.2192 -1.2463
  466MOL0     H62864   6.722   6.104   7.616 -0.0140 -0.5432  1.3125
  466MOL0     H62865   6.853   6.155   7.708 -2.4400 -0.7946  0.7501
  466MOL0     H62866   6.929   5.940   7.756  1.1759  1.5304 -0.8090
  466MOL0     H62867   6.817   5.854   7.640 -1.5803  0.0283 -0.1058
  466MOL0     H62868   6.719   6.039   7.869  1.5908 -0.2750  2.0239
  466MOL0     H62869   6.754   5.870   7.887  0.4367 -1.0175 -1.4634
  466MOL0     H62870   6.535   6.034   7.977  2.1888  0.0391 -4.7656
  466MOL0     H62871   6.394   6.146   8.133 -2.9977  1.5910  2.1539
  466MOL0     H62872   6.226   6.114   8.145  0.7440  1.3451  0.1820
  466MOL0     H62873   6.339   6.001   8.222  1.8532 -1.8220 -0.8536
  466MOL0     H62874   5.953   6.098   8.317  0.1014 -0.1132 -1.7322
  466MOL0     H62875   5.755   6.071   8.470 -1.6768 -0.1112  0.2084
  466MOL0     H62876   5.638   5.926   8.653 -1.2976 -1.5575  1.2780
  466MOL0     H62877   5.539   6.017   8.526  0.7951  0.8861  1.4433
  466MOL0     H62878   5.472   5.775   8.672  0.2338  0.1831 -1.4861
  466MOL0     H62879   5.407   5.924   8.727 -2.5726 -2.4702  1.5550
  466MOL0     H62880   5.302   5.776   8.476 -3.0151 -1.1257  3.6259
  466MOL0     H62881   5.324   5.946   8.450  0.5347 -0.1502 -1.0282
  466MOL0     H62882   5.186   5.813   8.692 -1.3381  0.4399  0.3113
  466MOL0     H62883   5.198   5.989   8.666 -1.3915 -0.1065 -0.6696
  466MOL0     H62884   4.984   5.909   8.600 -0.5755 -1.0072 -1.1702
  466MOL0     H62885   5.049   5.783   8.490  1.2286 -1.0844  1.2875
  466MOL0     H62886   5.121   5.973   8.330 -0.8544 -0.0603 -0.3549
  466MOL0     H62887   4.945   5.976   8.358 -1.1523  5.3756 -0.6119
  466MOL0     H62888   5.146   6.146   8.530 -1.7148  3.2861  1.6830
  466MOL0     H62889   4.977   6.164   8.514 -0.0939  5.3333 -2.9653
  466MOL0     H62890   5.068   6.146   8.243 -1.7412 -4.1559  3.8604
  466MOL0     H62891   5.195   6.245   8.320  0.2671 -0.2447 -0.4740
  466MOL0     H62892   5.706   5.677   8.294 -0.8638  0.8548 -1.3591
  466MOL0     H62893   5.910   5.695   8.171  1.2787  1.2565 -1.0596
  466MOL0     H62894   6.184   5.730   7.819  1.6040 -2.6199  2.9525
  466MOL0     H62895   6.381   5.751   7.685 -0.7161 -1.2197  0.2284
  466MOL0     H62896   8.261   6.201   7.224 -0.2742  0.1535 -0.8586
  466MOL0     H62897   8.497   6.213   7.190  0.9843 -0.8314 -0.0926
  466MOL0     H62898   8.927   6.278   7.083 -1.6004 -0.1572  0.3298
  466MOL0     H62899   9.179   6.317   7.093 -0.7970  1.0135  0.1855
  466MOL0     H62900   9.319   6.428   7.491  0.3393 -0.6345 -0.5245
  466MOL0     H62901   9.398   6.268   7.478  0.5063 -0.4374 -1.3748
  466MOL0     H62902   9.562   6.441   7.498  0.3127 -0.4397 -0.7550
  466MOL0     H62903   9.476   6.530   7.363 -2.6625 -1.5997 -3.3670
  466MOL0     H62904   9.691   6.458   7.280  0.7096 -0.4975  1.3873
  466MOL0     H62905   9.551   6.388   7.201  1.6518  0.4056 -1.3410
  466MOL0     H62906   9.591   6.174   7.267  1.2861 -0.3835 -1.9946
  466MOL0     H62907   9.638   6.225   7.439  0.9171  1.8798 -0.0212
  466MOL0     H62908  10.021   6.182   7.269 -0.0289  0.3940 -0.4244
  466MOL0     H62909   9.157   6.231   7.515 -1.9795 -0.5250  0.6980
  466MOL0     H62910   8.933   6.173   7.498  1.8536  2.2230  2.3833
  467MOL0     O62911   4.548   7.290   1.165 -0.0615 -0.3254 -0.7562
  467MOL0     C62912   4.554   7.267   1.283  0.5490 -0.6951 -0.3710
  467MOL0     O62913   4.672   7.226   1.354  0.3183 -0.7218  0.5983
  467MOL0     C62914   4.792   7.255   1.306  0.9643  0.5272  0.4622
  467MOL0     C62915   4.872   7.157   1.252  0.0020  0.0565  0.0469
  467MOL0     C62916   5.011   7.186   1.209 -0.1713 -0.3305 -0.7321
  467MOL0     C62917   5.065   7.319   1.224  0.1147 -0.5067 -0.4121
  467MOL0     O62918   5.194   7.351   1.190  0.9764  0.1535  1.1751
  467MOL0     C62919   5.294   7.291   1.272  0.2718  0.2203  0.1150
  467MOL0     C62920   5.429   7.296   1.195  0.2569 -0.6399  0.2388
  467MOL0     C62921   5.535   7.221   1.275 -0.2234  0.3961  0.1335
  467MOL0     C62922   5.653   7.185   1.184 -0.2382 -0.4721 -0.2386
  467MOL0     C62923   5.780   7.138   1.248 -0.1661  0.3235  0.2223
  467MOL0     C62924   5.841   7.235   1.346  0.5717  0.2599 -0.2683
  467MOL0     C62925   5.921   7.153   1.440 -0.2615  0.0874  0.8847
  467MOL0     C62926   5.855   7.097   1.575  0.1201 -0.8583 -0.4034
  467MOL0     N62927   5.829   7.216   1.664  0.5623 -0.4001  0.5353
  467MOL0     C62928   5.708   7.265   1.713 -0.0820 -0.3519  1.2757
  467MOL0     C62929   5.733   7.383   1.779 -0.4018 -0.5221 -0.9044
  467MOL0     C62930   5.641   7.469   1.870 -0.6834  0.5948 -0.1499
  467MOL0     C62931   5.627   7.605   1.809 -0.9470 -0.7672 -0.2188
  467MOL0     C62932   5.613   7.717   1.916  0.2589  0.9575 -0.1673
  467MOL0     C62933   5.484   7.707   2.008  0.3331  0.9950  0.2252
  467MOL0     O62934   5.363   7.681   1.934 -0.4443  0.5131  0.3282
  467MOL0     C62935   5.243   7.660   1.997 -0.0942  0.0263 -0.0305
  467MOL0     C62936   5.217   7.654   2.134 -0.4419 -0.8006  0.1808
  467MOL0     C62937   5.087   7.653   2.182  0.1121  0.0213  0.7621
  467MOL0     C62938   5.073   7.662   2.335  0.1094  0.3039  0.2722
  467MOL0     C62939   4.972   7.649   2.096  0.3512  0.1899  0.3141
  467MOL0     C62940   4.830   7.645   2.143 -0.3376 -0.3911  0.0427
  467MOL0     O62941   4.807   7.604   2.266  0.6165 -0.3347 -0.2829
  467MOL0     C62942   4.673   7.611   2.313  0.4600 -0.4767  0.0946
  467MOL0     C62943   4.634   7.714   2.392 -0.2805 -1.0775 -0.3499
  467MOL0     C62944   4.502   7.744   2.429  0.0913  0.6497 -0.5423
  467MOL0     C62945   4.401   7.652   2.401  0.5124 -0.0163 -0.2054
  467MOL0     O62946   4.270   7.689   2.435 -0.3293 -0.2719  0.6228
  467MOL0     C62947   4.161   7.615   2.395  0.2656  0.2888  0.7648
  467MOL0     C62948   4.119   7.512   2.502 -0.2231 -0.9547  0.9873
  467MOL0     C62949   4.007   7.435   2.436 -0.4245  0.1489 -0.0232
  467MOL0     C62950   3.917   7.383   2.546  0.7181 -0.3979 -1.0135
  467MOL0     C62951   3.773   7.384   2.494  0.3967 -0.0897 -0.5354
  467MOL0     C62952   3.739   7.263   2.415 -0.5677  0.2387 -0.2713
  467MOL0     C62953   3.724   7.138   2.509 -0.1592 -0.3516 -0.2885
  467MOL0     C62954   3.644   7.033   2.423  0.4498 -0.4945 -0.4993
  467MOL0    Cl62955   3.471   7.086   2.396 -0.5570  0.3503 -0.3179
  467MOL0     C62956   4.442   7.538   2.326 -0.3595 -0.8448 -0.8005
  467MOL0     C62957   4.577   7.510   2.283 -0.4875 -0.6058 -0.6671
  467MOL0     O62958   4.749   7.669   2.057 -0.0947  0.3333 -0.4201
  467MOL0     C62959   5.001   7.626   1.961 -0.1153  0.3818  0.4162
  467MOL0     C62960   5.128   7.643   1.919 -0.1760 -0.9953  0.1361
  467MOL0     N62961   5.866   7.419   1.747  0.8193  0.0470  0.1966
  467MOL0     N62962   5.919   7.317   1.685  1.0419 -0.2191 -0.6937
  467MOL0     C62963   4.980   7.412   1.295  0.0620 -0.3071  0.0699
  467MOL0     C62964   4.844   7.377   1.327  0.0270 -0.6279 -0.1021
  467MOL0     C62965   4.429   7.294   1.363  0.3560 -0.1022  0.7291
  467MOL0     C62966   4.432   7.283   1.505  0.0594  0.3488  0.5994
  467MOL0     C62967   4.317   7.293   1.578 -0.9629 -0.7485  0.4882
  467MOL0     C62968   4.198   7.319   1.521  1.3077 -0.2469  0.4605
  467MOL0     O62969   4.085   7.328   1.601 -0.3530 -0.6993 -0.5473
  467MOL0     C62970   3.949   7.343   1.553  0.1934  0.4205 -0.9778
  467MOL0     C62971   3.913   7.501   1.539 -0.2517 -0.1911 -0.1592
  467MOL0     C62972   3.761   7.498   1.497  0.2965  0.3348  0.6037
  467MOL0     C62973   3.716   7.629   1.423 -1.3640  0.5547 -0.2684
  467MOL0     C62974   3.770   7.750   1.488  0.9087 -1.0445 -0.6001
  467MOL0     C62975   3.833   7.848   1.538 -0.4885  0.6796  0.9890
  467MOL0     C62976   4.189   7.350   1.386  0.6281 -0.0419  1.0383
  467MOL0     C62977   4.301   7.338   1.303  0.9955 -1.1244 -0.7143
  467MOL0     H62978   4.828   7.060   1.234  0.5055  0.0561 -1.3076
  467MOL0     H62979   5.069   7.117   1.149 -0.0108  2.2006 -3.7681
  467MOL0     H62980   5.291   7.344   1.367 -0.5816  1.5544 -0.6346
  467MOL0     H62981   5.276   7.187   1.301  2.0583  0.2947  1.7059
  467MOL0     H62982   5.411   7.249   1.098 -0.1898 -0.3412  0.1734
  467MOL0     H62983   5.456   7.401   1.184  0.0694 -0.6260 -0.0919
  467MOL0     H62984   5.578   7.283   1.354  0.1540  0.9684 -0.5131
  467MOL0     H62985   5.505   7.133   1.332 -0.6057 -0.8299 -1.8782
  467MOL0     H62986   5.625   7.102   1.119  0.8357 -2.6912  1.9448
  467MOL0     H62987   5.682   7.271   1.123  1.4092 -2.0708 -1.8093
  467MOL0     H62988   5.767   7.046   1.305  1.3986  1.0590  1.8390
  467MOL0     H62989   5.848   7.117   1.165  1.0426  1.4734  0.8930
  467MOL0     H62990   5.884   7.315   1.285  0.5228  1.8573  1.6850
  467MOL0     H62991   5.768   7.285   1.409 -0.4537 -1.3335 -0.1311
  467MOL0     H62992   5.965   7.070   1.384  0.4974  0.7695  0.4584
  467MOL0     H62993   6.005   7.211   1.477 -1.1458  0.3279  2.5910
  467MOL0     H62994   5.918   7.031   1.635  0.6984  0.5990  0.6444
  467MOL0     H62995   5.760   7.051   1.549  0.0763 -0.8416 -0.2702
  467MOL0     H62996   5.606   7.231   1.695 -1.7300  4.2809  0.4890
  467MOL0     H62997   5.543   7.419   1.873  0.6857 -2.2673  2.8666
  467MOL0     H62998   5.692   7.470   1.966 -0.1983  0.0638 -0.4003
  467MOL0     H62999   5.546   7.616   1.737 -2.0228  2.6316  1.2672
  467MOL0     H63000   5.725   7.635   1.769  0.2687  2.6634  4.3929
  467MOL0     H63001   5.620   7.811   1.860  0.2341  2.7201  2.5709
  467MOL0     H63002   5.699   7.706   1.983  1.5584  0.1174 -1.9000
  467MOL0     H63003   5.466   7.793   2.075  0.6712 -0.9081  2.9415
  467MOL0     H63004   5.497   7.617   2.068 -0.6330  1.2747  0.8927
  467MOL0     H63005   5.296   7.655   2.208  0.5511 -1.0422 -0.8567
  467MOL0     H63006   5.083   7.571   2.394 -1.3304  1.0461  1.7599
  467MOL0     H63007   5.146   7.726   2.384  1.9500 -0.2180 -1.6051
  467MOL0     H63008   4.978   7.711   2.359  0.2412 -1.2528  4.8096
  467MOL0     H63009   4.712   7.786   2.416 -1.4475  0.4680 -1.0558
  467MOL0     H63010   4.484   7.833   2.487  1.7360 -0.3185  1.6105
  467MOL0     H63011   4.072   7.671   2.362 -0.3680 -0.7983  0.5787
  467MOL0     H63012   4.177   7.565   2.299  1.5571  1.7127  0.1884
  467MOL0     H63013   4.204   7.449   2.529 -1.0739 -2.0362  1.2447
  467MOL0     H63014   4.088   7.559   2.595 -0.4495  2.0282 -0.4920
  467MOL0     H63015   4.049   7.356   2.372 -3.1282 -0.2826 -1.4091
  467MOL0     H63016   3.949   7.482   2.356  0.4513 -0.5250 -1.0831
  467MOL0     H63017   3.956   7.285   2.574 -0.1600 -0.3673  0.3732
  467MOL0     H63018   3.923   7.436   2.642  1.2484 -0.0501 -1.2283
  467MOL0     H63019   3.750   7.477   2.441 -1.7119 -1.0723 -1.4762
  467MOL0     H63020   3.711   7.392   2.585  2.0342  2.0821  0.4929
  467MOL0     H63021   3.648   7.283   2.358 -1.4077 -2.1135  0.1569
  467MOL0     H63022   3.818   7.236   2.345 -0.9378 -1.6501  0.0018
  467MOL0     H63023   3.657   7.153   2.594 -3.4993 -2.4919 -2.3164
  467MOL0     H63024   3.819   7.104   2.552  0.8573  1.4630 -1.0084
  467MOL0     H63025   3.638   6.945   2.488  3.4297 -0.5498 -0.1394
  467MOL0     H63026   3.693   7.004   2.330 -0.0020 -2.9963 -0.0275
  467MOL0     H63027   4.370   7.462   2.296  0.4743 -1.1699 -2.0612
  467MOL0     H63028   4.593   7.417   2.230 -0.3444 -0.3088 -1.1599
  467MOL0     H63029   4.918   7.607   1.893 -0.7573  1.3213  0.9063
  467MOL0     H63030   5.141   7.627   1.812  0.1525  1.0556 -0.1742
  467MOL0     H63031   5.002   7.515   1.322 -3.4048  0.5914  0.0057
  467MOL0     H63032   4.776   7.431   1.392  0.7803 -1.9251  1.8348
  467MOL0     H63033   4.523   7.242   1.547  0.2681  0.8010  0.5947
  467MOL0     H63034   4.322   7.286   1.687  1.6831  1.8991  0.6738
  467MOL0     H63035   3.939   7.282   1.463  3.2283 -0.6463 -0.7004
  467MOL0     H63036   3.888   7.299   1.633 -0.9343  0.4473 -1.7959
  467MOL0     H63037   3.978   7.561   1.475  1.0927 -0.5155  0.8548
  467MOL0     H63038   3.919   7.559   1.631  1.2722  2.4359 -1.8135
  467MOL0     H63039   3.704   7.502   1.591 -1.6783  1.4698 -0.5696
  467MOL0     H63040   3.720   7.414   1.441 -0.3347  0.1387  1.3251
  467MOL0     H63041   3.609   7.637   1.441 -0.6281  1.3003  5.4880
  467MOL0     H63042   3.739   7.621   1.316  1.1209 -1.0795  0.3124
  467MOL0     H63043   3.881   7.937   1.572 -0.2808  1.3665 -0.9760
  467MOL0     H63044   4.098   7.383   1.338  1.6917  1.0320 -0.3288
  467MOL0     H63045   4.297   7.365   1.198  2.9889 -0.7497 -0.7286
  468MOL0     O63046   9.527   0.757   7.617 -0.2977 -0.3769  0.1169
  468MOL0     C63047   9.517   0.879   7.637  0.0207 -0.3165 -0.0053
  468MOL0     O63048   9.414   0.965   7.593  0.5348  0.4874  0.4313
  468MOL0     C63049   9.297   0.917   7.542  0.0755  0.4558 -0.0628
  468MOL0     C63050   9.290   0.886   7.406  1.0002 -1.0476 -0.2356
  468MOL0     C63051   9.168   0.837   7.351  0.5538  0.3595 -0.2304
  468MOL0     C63052   9.059   0.806   7.426 -1.0656 -0.5101 -0.4749
  468MOL0     O63053   8.953   0.752   7.371  0.5377 -0.6484 -0.5936
  468MOL0     C63054   8.827   0.784   7.434  0.6606  0.7822  0.1353
  468MOL0     C63055   8.795   0.928   7.445  0.9941  0.4048  0.0585
  468MOL0     C63056   8.652   0.953   7.478 -0.2422 -0.9347 -0.0372
  468MOL0     C63057   8.635   1.099   7.496  0.0161 -0.2695  0.4500
  468MOL0     C63058   8.492   1.131   7.555 -0.0274 -0.0219 -0.0578
  468MOL0     C63059   8.482   1.279   7.586 -0.7682  0.6850  0.1402
  468MOL0     C63060   8.340   1.329   7.612  0.4742  0.9051 -0.4067
  468MOL0     C63061   8.231   1.299   7.502 -0.3392 -0.5007 -0.0307
  468MOL0     N63062   8.105   1.346   7.561 -0.0271  0.7832  0.2738
  468MOL0     C63063   8.083   1.459   7.632  0.1018 -0.4612 -0.3853
  468MOL0     C63064   7.950   1.447   7.664  0.0920  0.1867 -0.1490
  468MOL0     C63065   7.876   1.517   7.769  0.2853  1.3437  0.0654
  468MOL0     C63066   7.745   1.558   7.723  0.1949 -0.2869 -0.2754
  468MOL0     C63067   7.651   1.609   7.841 -0.3958 -0.3928  0.8060
  468MOL0     C63068   7.535   1.696   7.774 -0.0908  0.1688 -0.9155
  468MOL0     O63069   7.477   1.781   7.877 -0.4556  0.3310  0.9204
  468MOL0     C63070   7.349   1.757   7.916 -0.4134 -0.0294 -0.2994
  468MOL0     C63071   7.275   1.639   7.897 -0.1692  0.0172 -0.4585
  468MOL0     C63072   7.150   1.626   7.960  0.3087 -1.2453  0.6176
  468MOL0     C63073   7.070   1.508   7.940  0.1554  0.1753 -0.1522
  468MOL0     C63074   7.090   1.743   8.015  1.2823 -0.4659  0.7885
  468MOL0     C63075   6.957   1.747   8.084 -0.3147 -0.1016  1.0109
  468MOL0     O63076   6.886   1.869   8.071 -0.4259  0.1270  0.4108
  468MOL0     C63077   6.785   1.894   8.156 -0.1828  0.8124  0.1424
  468MOL0     C63078   6.664   1.925   8.098 -0.3742  0.3291 -0.3843
  468MOL0     C63079   6.555   1.950   8.183 -0.0315 -0.4789  0.1842
  468MOL0     C63080   6.561   1.954   8.320 -0.5253  1.0020 -1.2323
  468MOL0     O63081   6.453   1.979   8.406  0.8335  1.2352 -0.2259
  468MOL0     C63082   6.322   2.010   8.359  0.8536  0.6160  0.0707
  468MOL0     C63083   6.222   1.956   8.455 -0.4426 -0.3427 -0.5144
  468MOL0     C63084   6.084   1.919   8.382 -0.0456 -0.3440 -0.3124
  468MOL0     C63085   6.007   1.808   8.452 -1.0967  0.8565 -0.0054
  468MOL0     C63086   5.898   1.849   8.551 -0.6252  0.3722 -0.4454
  468MOL0     C63087   5.828   1.729   8.601  0.2828 -0.8409  0.2023
  468MOL0     C63088   5.690   1.768   8.660  0.0006 -0.0888  0.8267
  468MOL0     C63089   5.625   1.676   8.765 -0.2794  0.1440 -0.5860
  468MOL0    Cl63090   5.447   1.708   8.752  0.5244  0.0981  0.0728
  468MOL0     C63091   6.683   1.920   8.384  0.3195  0.3269  0.7090
  468MOL0     C63092   6.796   1.884   8.299  0.3179  0.5747 -0.2421
  468MOL0     O63093   6.927   1.660   8.160  0.8982  0.1193 -0.3301
  468MOL0     C63094   7.165   1.855   8.020 -0.8134  0.3544 -0.4263
  468MOL0     C63095   7.302   1.861   7.990  0.4706 -0.6175  0.6354
  468MOL0     N63096   7.894   1.337   7.604  0.0205 -0.3603  0.5204
  468MOL0     N63097   7.989   1.269   7.558  0.3369 -0.1906 -0.9440
  468MOL0     C63098   9.079   0.812   7.566 -0.6562 -0.6805 -0.2763
  468MOL0     C63099   9.192   0.864   7.626  0.7133  0.8883  0.4851
  468MOL0     C63100   9.643   0.953   7.690  0.7265  0.5369  0.7810
  468MOL0     C63101   9.762   0.892   7.671  0.1418 -0.4933 -0.0935
  468MOL0     C63102   9.875   0.935   7.746 -0.1289 -0.0794 -0.1798
  468MOL0     C63103   9.879   1.047   7.820  0.0947 -0.0688 -0.4543
  468MOL0     O63104  10.001   1.077   7.878 -0.4535  0.0045  0.5397
  468MOL0     C63105   9.997   1.167   7.991 -0.6649 -0.0963  0.4911
  468MOL0     C63106  10.142   1.155   8.052  0.6840  0.3654 -0.9717
  468MOL0     C63107  10.264   1.160   7.957  0.5129  0.4454  0.6631
  468MOL0     C63108  10.389   1.203   8.026 -0.1829  0.1916  0.5022
  468MOL0     C63109  10.506   1.172   7.940 -0.0345  1.2714  0.4137
  468MOL0     C63110  10.599   1.121   7.876 -0.3306 -0.3603  0.1738
  468MOL0     C63111   9.757   1.115   7.829  0.5062  0.5436 -0.0700
  468MOL0     C63112   9.638   1.073   7.761 -0.8449  0.1362 -0.1702
  468MOL0     H63113   9.373   0.913   7.342  1.0910  0.5937  0.5090
  468MOL0     H63114   9.150   0.821   7.245 -1.8909 -1.6043  0.4035
  468MOL0     H63115   8.750   0.738   7.371  1.2414  1.8041 -1.3578
  468MOL0     H63116   8.815   0.739   7.533 -2.7368 -0.4854 -0.6960
  468MOL0     H63117   8.860   0.954   7.529 -0.8070 -1.3559  2.1148
  468MOL0     H63118   8.814   0.982   7.352  0.3163  1.5614  0.5609
  468MOL0     H63119   8.590   0.908   7.400  0.7432 -1.0600 -0.7733
  468MOL0     H63120   8.614   0.920   7.575  0.2885 -0.4197  0.3576
  468MOL0     H63121   8.710   1.140   7.564  0.3510 -1.9192  1.1244
  468MOL0     H63122   8.632   1.152   7.400  0.4824  0.1266  0.6511
  468MOL0     H63123   8.416   1.099   7.484 -2.3911  0.7795  1.9532
  468MOL0     H63124   8.466   1.076   7.646 -0.2559 -3.4960 -2.0572
  468MOL0     H63125   8.538   1.295   7.679  0.7932  0.4818 -0.7339
  468MOL0     H63126   8.518   1.345   7.508  1.1864  0.1980  0.5808
  468MOL0     H63127   8.299   1.284   7.703  0.2897  1.8906  0.0153
  468MOL0     H63128   8.351   1.436   7.634 -2.6898  1.2759 -0.1681
  468MOL0     H63129   8.227   1.193   7.475  1.3731 -0.3885 -0.8761
  468MOL0     H63130   8.265   1.363   7.419 -1.1834 -0.5168 -0.3975
  468MOL0     H63131   8.146   1.537   7.673 -0.4616  0.4244 -1.1442
  468MOL0     H63132   7.861   1.448   7.852  2.4144 -1.4953 -1.7586
  468MOL0     H63133   7.926   1.606   7.811 -0.3245  1.8470 -0.2600
  468MOL0     H63134   7.695   1.468   7.687  0.6435 -1.7983  2.5967
  468MOL0     H63135   7.769   1.640   7.655  0.8463 -0.5015 -0.3078
  468MOL0     H63136   7.709   1.681   7.900 -0.2713  1.8848 -1.8790
  468MOL0     H63137   7.600   1.536   7.905  1.6085  0.5061  3.6421
  468MOL0     H63138   7.467   1.640   7.710  0.6394  0.3646 -1.8834
  468MOL0     H63139   7.584   1.773   7.713 -1.1034  3.4045  2.0301
  468MOL0     H63140   7.330   1.554   7.858  2.2787  0.6511  1.3347
  468MOL0     H63141   7.126   1.417   7.963 -1.0927 -0.3548  0.9226
  468MOL0     H63142   6.979   1.497   8.000  1.0264  0.5872  1.2956
  468MOL0     H63143   7.035   1.494   7.837  0.1909 -1.3685  0.0131
  468MOL0     H63144   6.658   1.938   7.990  0.1442 -2.5772 -0.8482
  468MOL0     H63145   6.463   1.975   8.130 -0.4115 -2.2782 -0.0853
  468MOL0     H63146   6.300   2.116   8.342 -0.5331  1.1296  3.9775
  468MOL0     H63147   6.314   1.952   8.266  2.8198 -1.5931  1.1638
  468MOL0     H63148   6.265   1.863   8.493  1.3668  0.3913 -0.6962
  468MOL0     H63149   6.203   2.029   8.534 -2.7215  1.1732 -2.3213
  468MOL0     H63150   6.098   1.890   8.278 -0.1031 -0.4521 -0.2887
  468MOL0     H63151   6.012   2.001   8.374 -0.1845 -0.3442  0.8382
  468MOL0     H63152   5.967   1.743   8.374  2.7636 -1.4018 -0.3170
  468MOL0     H63153   6.081   1.740   8.494 -2.9299 -0.1184  1.8437
  468MOL0     H63154   5.832   1.906   8.485 -0.1373  1.2020 -0.2406
  468MOL0     H63155   5.930   1.926   8.623  1.4843  0.9034 -1.8322
  468MOL0     H63156   5.802   1.655   8.525 -0.5518  1.1117 -1.5133
  468MOL0     H63157   5.895   1.671   8.666  1.1698  0.6254  0.6431
  468MOL0     H63158   5.617   1.782   8.579  0.4299  1.0406  0.6070
  468MOL0     H63159   5.704   1.862   8.714 -0.3429 -0.0932  0.9220
  468MOL0     H63160   5.663   1.688   8.867 -3.2222 -1.7908  0.8578
  468MOL0     H63161   5.638   1.571   8.738 -0.4014 -0.7012  2.3114
  468MOL0     H63162   6.689   1.926   8.492  0.7878 -0.9074  0.7684
  468MOL0     H63163   6.884   1.845   8.349  0.6661  0.8113 -0.6695
  468MOL0     H63164   7.113   1.944   8.055 -0.2394  1.3300 -1.9736
  468MOL0     H63165   7.360   1.952   8.002  0.9991 -0.6379 -1.3982
  468MOL0     H63166   9.013   0.747   7.624 -2.2292  0.0300 -1.1919
  468MOL0     H63167   9.201   0.864   7.734 -2.1318 -0.4056  0.8107
  468MOL0     H63168   9.770   0.802   7.611  1.7901 -0.4697  0.0523
  468MOL0     H63169   9.971   0.884   7.740  2.1827  3.9474 -0.7422
  468MOL0     H63170   9.983   1.273   7.965  1.5041  0.5690  1.7704
  468MOL0     H63171   9.914   1.149   8.060  1.5398  1.1848  3.7007
  468MOL0     H63172  10.143   1.060   8.107  3.8917  0.0989 -1.3234
  468MOL0     H63173  10.158   1.234   8.126 -1.2648  1.2636 -1.4405
  468MOL0     H63174  10.252   1.225   7.870  1.0081  0.3283  0.5042
  468MOL0     H63175  10.269   1.059   7.915 -3.4761  0.3979 -0.1110
  468MOL0     H63176  10.394   1.158   8.126 -1.3481 -2.2455 -0.4839
  468MOL0     H63177  10.392   1.312   8.042 -2.7369 -0.0019  3.2321
  468MOL0     H63178  10.675   1.072   7.819 -2.1094 -4.7466  1.1593
  468MOL0     H63179   9.750   1.206   7.888 -1.5006 -0.0852  0.7613
  468MOL0     H63180   9.544   1.124   7.782  0.2347  1.5935  1.4730
  469MOL0     O63181   3.683   1.475   4.856  0.2999  0.0056  0.0779
  469MOL0     C63182   3.588   1.554   4.880 -0.3155 -0.0879  0.3150
  469MOL0     O63183   3.456   1.529   4.871  0.1378  0.4109  0.1466
  469MOL0     C63184   3.405   1.408   4.852  0.1404  0.7746  0.1108
  469MOL0     C63185   3.326   1.331   4.949  0.0337  0.0831 -0.0285
  469MOL0     C63186   3.281   1.200   4.908 -0.3746 -0.6082 -0.4096
  469MOL0     C63187   3.310   1.144   4.788  0.7541  0.6286 -0.2917
  469MOL0     O63188   3.244   1.029   4.756 -0.0590  0.4306  0.0957
  469MOL0     C63189   3.260   0.975   4.620 -0.6802 -0.3577  0.6104
  469MOL0     C63190   3.181   0.842   4.609  0.3354 -1.5757 -0.0356
  469MOL0     C63191   3.225   0.739   4.507  0.4816  0.5112  0.0513
  469MOL0     C63192   3.132   0.621   4.488 -0.5616 -0.4237  0.2521
  469MOL0     C63193   3.003   0.656   4.406 -0.1515 -0.4312  1.0895
  469MOL0     C63194   2.915   0.534   4.388 -0.8048 -0.6872 -0.8280
  469MOL0     C63195   2.776   0.579   4.352  0.3310  0.4171 -0.2312
  469MOL0     C63196   2.762   0.623   4.204  0.8040 -0.0101  1.1475
  469MOL0     N63197   2.621   0.657   4.156 -0.4297 -0.1211 -0.1771
  469MOL0     C63198   2.529   0.589   4.071 -0.4797 -0.6056  0.6041
  469MOL0     C63199   2.429   0.678   4.047  0.5355  0.9677  0.0688
  469MOL0     C63200   2.316   0.651   3.953  0.5640 -0.0295  0.0405
  469MOL0     C63201   2.177   0.670   4.012  1.2268 -0.2594 -0.9660
  469MOL0     C63202   2.090   0.545   4.004 -0.9454 -0.2271 -0.2544
  469MOL0     C63203   1.944   0.584   4.011  0.3429  0.2688 -0.6110
  469MOL0     O63204   1.848   0.471   4.008 -0.7919 -0.8573 -0.2771
  469MOL0     C63205   1.716   0.505   4.010  0.4040  0.6816  0.6179
  469MOL0     C63206   1.635   0.390   4.008  0.5187 -0.5764  0.7301
  469MOL0     C63207   1.496   0.396   4.018 -0.2661  0.8909  0.2063
  469MOL0     C63208   1.432   0.259   4.042  0.1546 -0.6212 -0.2394
  469MOL0     C63209   1.436   0.526   4.014  0.2773  1.0034  1.0468
  469MOL0     C63210   1.291   0.557   4.017  0.3055  0.9860  0.2254
  469MOL0     O63211   1.211   0.443   4.022  1.0166  0.5977 -0.1889
  469MOL0     C63212   1.072   0.438   4.023  0.8417 -0.3426 -0.9194
  469MOL0     C63213   1.009   0.341   3.950  0.1053  0.2158 -0.2404
  469MOL0     C63214   0.871   0.340   3.923 -1.0812  0.0687  0.6595
  469MOL0     C63215   0.790   0.449   3.973 -0.1690  0.5094 -0.0262
  469MOL0     O63216   0.661   0.467   3.951  0.4190  0.1290  0.0575
  469MOL0     C63217   0.607   0.396   3.841 -0.6453  0.5244  0.7783
  469MOL0     C63218   0.554   0.259   3.893 -0.3530 -0.3273  0.3641
  469MOL0     C63219   0.450   0.270   4.004  0.2830  0.0164  0.4222
  469MOL0     C63220   0.428   0.127   4.059  0.6653 -0.0084 -0.4409
  469MOL0     C63221   0.316   0.126   4.164  0.4233  0.1225 -0.6910
  469MOL0     C63222   0.341   0.004   4.253 -1.0933 -0.3140 -0.4593
  469MOL0     C63223   0.257   0.005   4.372 -0.9712  0.5622 -0.0921
  469MOL0     C63224   0.289  -0.114   4.466 -0.7635  0.2895  0.0526
  469MOL0    Cl63225   0.180  -0.094   4.600  0.3014  0.4756  0.3827
  469MOL0     C63226   0.848   0.545   4.055  0.5037 -0.0206 -0.7947
  469MOL0     C63227   0.982   0.540   4.074  0.9142  0.6180  0.5369
  469MOL0     O63228   1.252   0.667   3.990 -0.1629 -0.1584 -0.2323
  469MOL0     C63229   1.514   0.640   4.011 -0.5096 -0.1714 -0.0149
  469MOL0     C63230   1.660   0.630   4.014  0.7591 -0.6419  0.3800
  469MOL0     N63231   2.462   0.803   4.115 -0.4899 -0.0507 -0.6452
  469MOL0     N63232   2.577   0.790   4.182  0.1350 -0.3720  0.8308
  469MOL0     C63233   3.389   1.218   4.700 -0.0387 -0.6880  0.1052
  469MOL0     C63234   3.435   1.344   4.730 -0.6500 -0.0186  0.0857
  469MOL0     C63235   3.636   1.686   4.918 -0.3783  0.0494  0.4520
  469MOL0     C63236   3.549   1.795   4.927 -0.0529  0.0663 -0.4279
  469MOL0     C63237   3.590   1.913   4.979 -0.5289 -0.8639 -0.0020
  469MOL0     C63238   3.717   1.925   5.035 -0.3900 -0.2341 -1.0836
  469MOL0     O63239   3.763   2.043   5.091  0.3757 -0.1936 -0.1361
  469MOL0     C63240   3.883   2.102   5.027 -0.1630  0.3578  0.0179
  469MOL0     C63241   3.952   2.189   5.118 -1.0019  0.0447 -0.8099
  469MOL0     C63242   3.860   2.273   5.212 -1.2139  0.6304 -0.8689
  469MOL0     C63243   3.920   2.406   5.247 -0.0996 -0.4670 -0.5523
  469MOL0     C63244   3.945   2.480   5.123  0.6592 -0.4170 -0.7052
  469MOL0     C63245   3.971   2.544   5.028  0.1399  0.0048 -0.2756
  469MOL0     C63246   3.805   1.816   5.028 -0.6083  0.2131  0.3918
  469MOL0     C63247   3.765   1.701   4.957 -0.0479  0.3361 -0.1761
  469MOL0     H63248   3.320   1.372   5.050 -0.2183  0.3505 -0.1517
  469MOL0     H63249   3.232   1.132   4.978  0.9376 -0.8194  0.3266
  469MOL0     H63250   3.231   1.037   4.535 -0.1780 -0.6920  0.1881
  469MOL0     H63251   3.363   0.941   4.602 -0.0069  1.7624  0.1343
  469MOL0     H63252   3.192   0.780   4.699  0.4644 -1.9975 -0.3376
  469MOL0     H63253   3.076   0.870   4.608  0.4190 -1.2267  0.5213
  469MOL0     H63254   3.250   0.786   4.412  0.5178 -1.5194 -0.9865
  469MOL0     H63255   3.317   0.693   4.544  0.0528  1.4934  2.5356
  469MOL0     H63256   3.190   0.542   4.440 -0.0276 -1.9715  3.2023
  469MOL0     H63257   3.110   0.583   4.588  0.2130  0.0337  0.6054
  469MOL0     H63258   2.945   0.729   4.464 -1.9737 -1.1829  0.2886
  469MOL0     H63259   3.039   0.694   4.310 -1.2035  0.4242  1.0065
  469MOL0     H63260   2.948   0.462   4.311  0.9075  0.8076 -1.5735
  469MOL0     H63261   2.922   0.486   4.486  2.1394  2.4007  0.6800
  469MOL0     H63262   2.708   0.497   4.376 -1.4138  2.1103  0.9862
  469MOL0     H63263   2.742   0.665   4.412 -2.2708 -0.2762 -0.5770
  469MOL0     H63264   2.793   0.531   4.154  1.9156  0.6293  0.6425
  469MOL0     H63265   2.834   0.702   4.183  1.7694 -1.3015 -0.6948
  469MOL0     H63266   2.537   0.496   4.016  3.8555  1.2746 -2.5172
  469MOL0     H63267   2.334   0.730   3.880 -0.5581 -1.0511 -1.3974
  469MOL0     H63268   2.323   0.551   3.908 -0.6927 -0.5164  0.8422
  469MOL0     H63269   2.123   0.750   3.960  0.9605  0.5065  0.4465
  469MOL0     H63270   2.193   0.705   4.114  3.5485 -3.3510 -0.1152
  469MOL0     H63271   2.113   0.483   4.091  0.2025 -0.1953 -0.5163
  469MOL0     H63272   2.109   0.498   3.907 -1.7080  2.5610 -1.8714
  469MOL0     H63273   1.923   0.644   3.923  1.9253  1.8285  0.0238
  469MOL0     H63274   1.923   0.645   4.099  1.0492 -0.8960  0.4148
  469MOL0     H63275   1.680   0.292   4.001 -0.8523 -1.3028  1.5914
  469MOL0     H63276   1.502   0.177   4.060  1.0493  0.4972  1.5963
  469MOL0     H63277   1.358   0.263   4.122 -1.7911 -1.4179 -1.8882
  469MOL0     H63278   1.376   0.231   3.952  0.5236 -0.1934 -0.6093
  469MOL0     H63279   1.076   0.280   3.892  1.5252  2.5129 -1.1369
  469MOL0     H63280   0.833   0.264   3.855 -0.4972  0.1373  0.2501
  469MOL0     H63281   0.521   0.448   3.798  0.7858  2.5951  0.3222
  469MOL0     H63282   0.678   0.383   3.759  0.7700 -3.0141  2.3273
  469MOL0     H63283   0.501   0.207   3.813 -1.9807 -0.0215  1.2055
  469MOL0     H63284   0.641   0.202   3.928  0.5019  1.0559  0.5409
  469MOL0     H63285   0.361   0.318   3.962  2.2074 -0.7406 -5.6008
  469MOL0     H63286   0.481   0.333   4.088  1.4701 -1.4863  1.1738
  469MOL0     H63287   0.410   0.055   3.978  0.5368 -0.9403  0.4039
  469MOL0     H63288   0.519   0.096   4.111 -0.2088 -0.7369  0.7113
  469MOL0     H63289   0.223   0.105   4.110  1.5322 -0.8821 -2.3091
  469MOL0     H63290   0.304   0.219   4.219 -1.1529 -0.1646 -0.5083
  469MOL0     H63291   0.332  -0.086   4.192  1.8337 -0.0334 -1.5014
  469MOL0     H63292   0.443   0.011   4.292 -1.5465  2.3307  0.4640
  469MOL0     H63293   0.151   0.015   4.346 -0.9785 -1.3962 -0.9854
  469MOL0     H63294   0.279   0.089   4.439  2.6553 -1.7046  1.8571
  469MOL0     H63295   0.392  -0.102   4.500 -0.0186  0.9220 -2.2699
  469MOL0     H63296   0.280  -0.216   4.428 -1.4657 -1.5730  4.5605
  469MOL0     H63297   0.799   0.636   4.088  0.5951 -0.8888  1.9311
  469MOL0     H63298   1.032   0.621   4.126  2.5224 -0.2153  0.3701
  469MOL0     H63299   1.489   0.745   4.007  1.1212  0.2017 -1.5662
  469MOL0     H63300   1.714   0.721   3.991 -2.2615  0.8330 -1.5830
  469MOL0     H63301   3.408   1.175   4.602 -0.0633 -0.7731  0.1376
  469MOL0     H63302   3.495   1.400   4.658  0.7739 -1.4556  0.0886
  469MOL0     H63303   3.444   1.797   4.901 -0.6242  1.2114  1.7118
  469MOL0     H63304   3.534   2.006   4.985  1.9087  0.9068 -2.2226
  469MOL0     H63305   3.952   2.023   4.997 -2.7966 -2.5440  1.1328
  469MOL0     H63306   3.862   2.165   4.940  1.0264 -1.5774 -1.7328
  469MOL0     H63307   4.025   2.242   5.057  0.8149 -1.5605 -0.1151
  469MOL0     H63308   4.021   2.134   5.182  0.5568  1.4897 -1.1925
  469MOL0     H63309   3.836   2.208   5.297  0.1346 -1.1639 -1.7856
  469MOL0     H63310   3.769   2.297   5.156 -0.9413  3.2331 -0.3069
  469MOL0     H63311   4.018   2.393   5.294  0.5337  2.6967 -0.7661
  469MOL0     H63312   3.851   2.458   5.313  2.4371  1.2048  0.9465
  469MOL0     H63313   3.994   2.618   4.953 -1.3981 -2.0267 -2.9326
  469MOL0     H63314   3.900   1.819   5.081 -0.5713  0.6385  0.3062
  469MOL0     H63315   3.840   1.623   4.953  1.4084  1.6047  1.0604
  470MOL0     O63316   3.469   3.819   1.200  0.0904 -0.6316  0.5854
  470MOL0     C63317   3.554   3.864   1.277 -0.9205  0.2795 -0.0566
  470MOL0     O63318   3.529   3.906   1.403 -0.0130  0.2879 -0.0190
  470MOL0     C63319   3.399   3.892   1.463  0.8046  0.1811  0.0960
  470MOL0     C63320   3.274   3.861   1.406 -0.1890 -0.1580  0.0643
  470MOL0     C63321   3.159   3.850   1.497 -0.2821  0.5895 -0.1744
  470MOL0     C63322   3.173   3.874   1.633  0.4852 -0.1489  0.3597
  470MOL0     O63323   3.073   3.869   1.722  0.0604  0.2902 -0.6004
  470MOL0     C63324   3.001   3.745   1.719  1.2454  0.7936  0.4102
  470MOL0     C63325   2.898   3.741   1.827  0.3931  0.9797 -1.1545
  470MOL0     C63326   2.835   3.595   1.852  1.1005 -0.3417 -0.1944
  470MOL0     C63327   2.741   3.617   1.968  0.8969  0.4721  0.6908
  470MOL0     C63328   2.662   3.493   2.008 -0.0571  0.1111  0.9949
  470MOL0     C63329   2.530   3.544   2.057  1.2453 -0.7729 -0.6703
  470MOL0     C63330   2.434   3.437   2.118 -0.3469  0.6466  0.7902
  470MOL0     C63331   2.307   3.511   2.162 -0.3202 -0.4609 -0.2798
  470MOL0     N63332   2.204   3.439   2.233 -0.5888  0.8524  0.3782
  470MOL0     C63333   2.201   3.303   2.245 -0.2344  0.1980 -0.3366
  470MOL0     C63334   2.078   3.286   2.294  0.2344 -0.5149 -0.1451
  470MOL0     C63335   2.012   3.155   2.329 -0.0428  0.0802 -0.2375
  470MOL0     C63336   1.926   3.095   2.216  0.4401 -0.3503  0.1920
  470MOL0     C63337   1.850   2.971   2.255 -0.2447  0.3934  0.5704
  470MOL0     C63338   1.950   2.853   2.259 -0.3203  0.4429  0.4620
  470MOL0     O63339   1.991   2.843   2.121  0.2222  0.4149  0.1256
  470MOL0     C63340   2.030   2.713   2.095  0.9602 -0.7010  0.5912
  470MOL0     C63341   2.141   2.653   2.154 -0.7874 -0.1080  0.5382
  470MOL0     C63342   2.184   2.523   2.105  0.3275  0.3082  0.4926
  470MOL0     C63343   2.315   2.465   2.149  0.2811  0.3182 -0.2054
  470MOL0     C63344   2.108   2.460   2.001 -0.2336  0.6101 -0.2577
  470MOL0     C63345   2.148   2.340   1.948 -0.2493  0.2040  0.3735
  470MOL0     O63346   2.184   2.355   1.816 -0.3043 -0.2069 -0.1248
  470MOL0     C63347   2.243   2.251   1.758  1.0611 -0.4689  0.8597
  470MOL0     C63348   2.182   2.127   1.754  0.2381  0.3978  0.4793
  470MOL0     C63349   2.249   2.015   1.693  1.7467 -0.1866  0.1036
  470MOL0     C63350   2.363   2.032   1.608  0.0002  0.2213  0.3410
  470MOL0     O63351   2.435   1.932   1.539 -0.5511 -0.2700  0.1192
  470MOL0     C63352   2.461   1.819   1.621 -0.6899  0.5214 -0.3886
  470MOL0     C63353   2.567   1.845   1.728  0.1384 -0.1572  0.6318
  470MOL0     C63354   2.696   1.892   1.667  0.0716  0.2506  0.5188
  470MOL0     C63355   2.807   1.854   1.763 -0.5284  0.2168  0.0664
  470MOL0     C63356   2.943   1.839   1.694  0.1118  0.7208 -0.2630
  470MOL0     C63357   3.053   1.803   1.787 -0.3153 -0.2859 -1.2883
  470MOL0     C63358   3.190   1.823   1.723  1.0760 -0.3937 -0.1672
  470MOL0     C63359   3.269   1.700   1.679  0.1585  0.6472  0.2213
  470MOL0    Cl63360   3.405   1.741   1.571 -0.2083  0.3077 -0.4694
  470MOL0     C63361   2.418   2.160   1.614 -0.5438 -0.5518  1.4813
  470MOL0     C63362   2.362   2.267   1.686 -0.2446  0.6958 -0.2158
  470MOL0     O63363   2.158   2.243   2.018 -0.5929  0.3095 -0.4361
  470MOL0     C63364   1.992   2.523   1.955  0.0923 -0.4663  1.0362
  470MOL0     C63365   1.954   2.643   2.005 -0.0152  0.0593  0.7394
  470MOL0     N63366   2.012   3.401   2.309  0.5379  1.0374 -0.0967
  470MOL0     N63367   2.088   3.494   2.269  0.5271  0.2748 -0.2281
  470MOL0     C63368   3.300   3.913   1.681  1.4569  0.1405 -0.3777
  470MOL0     C63369   3.399   3.932   1.595 -0.1868 -0.4750  0.1492
  470MOL0     C63370   3.681   3.900   1.227 -0.0896 -0.4879  0.0842
  470MOL0     C63371   3.776   3.985   1.291 -0.2013 -0.7821 -0.1905
  470MOL0     C63372   3.903   4.009   1.244  0.1779 -0.2993  0.0120
  470MOL0     C63373   3.938   3.958   1.120  0.3411  0.8068 -0.3305
  470MOL0     O63374   4.057   4.006   1.077  0.0695 -0.7773  0.0773
  470MOL0     C63375   4.131   3.930   0.987  0.4948 -0.6167 -0.1219
  470MOL0     C63376   4.212   3.810   1.035  0.0806 -0.0116  0.8365
  470MOL0     C63377   4.268   3.808   1.178 -0.3253 -0.4032 -0.7626
  470MOL0     C63378   4.387   3.711   1.191 -0.7025  0.8870  0.6656
  470MOL0     C63379   4.506   3.767   1.119 -0.6986  0.0129 -0.4749
  470MOL0     C63380   4.618   3.807   1.089 -0.4278 -0.5103 -0.4596
  470MOL0     C63381   3.853   3.873   1.052  0.6437 -0.3474  0.7791
  470MOL0     C63382   3.719   3.853   1.099 -0.5105 -0.7172  0.8840
  470MOL0     H63383   3.262   3.834   1.302  1.1327  0.7873 -0.3677
  470MOL0     H63384   3.070   3.798   1.462  0.1273  0.1045 -0.5177
  470MOL0     H63385   2.956   3.719   1.623  1.3654 -3.6166  1.3616
  470MOL0     H63386   3.075   3.668   1.740  0.8698  0.6036  1.0761
  470MOL0     H63387   2.942   3.783   1.918 -1.5159  1.5398 -0.4385
  470MOL0     H63388   2.813   3.805   1.799 -1.0741  0.7375  2.2335
  470MOL0     H63389   2.790   3.541   1.768  1.0263 -1.5752  0.6067
  470MOL0     H63390   2.925   3.539   1.880  0.1079 -1.3928  1.0029
  470MOL0     H63391   2.785   3.651   2.062  1.1247  0.6232  0.5281
  470MOL0     H63392   2.675   3.701   1.943 -1.0793 -0.5103  2.2345
  470MOL0     H63393   2.641   3.424   1.926 -1.2183  0.8801  0.6199
  470MOL0     H63394   2.722   3.445   2.087 -1.2267 -0.3188  1.6528
  470MOL0     H63395   2.536   3.614   2.141 -1.6227 -0.7604 -0.3672
  470MOL0     H63396   2.475   3.598   1.979  0.9152 -1.2869 -0.7961
  470MOL0     H63397   2.401   3.373   2.036 -1.0227  2.0914 -0.1082
  470MOL0     H63398   2.481   3.385   2.202  1.8452  2.7611  0.9960
  470MOL0     H63399   2.251   3.545   2.074 -1.3270  1.8236  1.1572
  470MOL0     H63400   2.340   3.594   2.224  0.4471 -1.1102  0.2000
  470MOL0     H63401   2.280   3.230   2.231 -0.0633  0.4547 -0.7214
  470MOL0     H63402   2.086   3.078   2.356 -1.8843 -0.5216  3.9339
  470MOL0     H63403   1.952   3.171   2.419  0.2339 -0.1166 -0.0133
  470MOL0     H63404   1.989   3.089   2.127 -2.4278  4.2215 -2.5480
  470MOL0     H63405   1.847   3.165   2.185  1.0226 -0.2108 -1.0442
  470MOL0     H63406   1.785   2.945   2.171  0.2709 -1.7511  0.7760
  470MOL0     H63407   1.791   2.984   2.346  1.4732 -1.0470  1.9689
  470MOL0     H63408   1.897   2.767   2.301  1.7165 -0.9470  0.3441
  470MOL0     H63409   2.039   2.877   2.318  0.7552  0.3495 -1.0443
  470MOL0     H63410   2.204   2.704   2.227 -0.0461 -2.3709  1.6034
  470MOL0     H63411   2.293   2.369   2.197 -0.8201  0.5519 -0.2147
  470MOL0     H63412   2.385   2.454   2.066 -1.0620 -0.6114 -1.2558
  470MOL0     H63413   2.353   2.534   2.226  2.1825 -0.6874 -0.1701
  470MOL0     H63414   2.084   2.122   1.799 -0.4998  0.4492 -1.0373
  470MOL0     H63415   2.208   1.914   1.701  0.5398  0.3347  0.7829
  470MOL0     H63416   2.374   1.776   1.671 -1.3174  2.2269  0.0366
  470MOL0     H63417   2.500   1.737   1.560 -1.3064 -1.3614  1.5929
  470MOL0     H63418   2.519   1.911   1.801  0.0586 -1.4031  1.7383
  470MOL0     H63419   2.589   1.748   1.772  1.3852 -0.2744 -0.2123
  470MOL0     H63420   2.690   2.001   1.657  1.5460  0.5815  2.5219
  470MOL0     H63421   2.706   1.852   1.566  0.0061  1.3506  0.0596
  470MOL0     H63422   2.817   1.930   1.841  0.6191  0.0179  0.1366
  470MOL0     H63423   2.789   1.756   1.807  0.9994  0.3509  1.0667
  470MOL0     H63424   2.956   1.935   1.643 -3.2101  1.6560  0.3952
  470MOL0     H63425   2.930   1.762   1.617 -2.7863  0.6700  0.1546
  470MOL0     H63426   3.047   1.857   1.882 -2.3656 -1.9890 -0.3538
  470MOL0     H63427   3.039   1.698   1.814 -0.8300  0.1102  0.0815
  470MOL0     H63428   3.246   1.880   1.797 -1.2469  2.5180 -0.4861
  470MOL0     H63429   3.184   1.890   1.637  4.9298 -1.7745 -1.7352
  470MOL0     H63430   3.197   1.627   1.640  1.3229 -0.4502  0.0631
  470MOL0     H63431   3.306   1.639   1.762 -1.8405 -1.2619 -0.1850
  470MOL0     H63432   2.498   2.180   1.544 -1.2256 -1.5463  0.3750
  470MOL0     H63433   2.405   2.365   1.674 -2.2020  1.4313 -1.9563
  470MOL0     H63434   1.931   2.476   1.879  0.8862 -1.5973  1.0677
  470MOL0     H63435   1.867   2.691   1.960  1.1681  0.3360 -1.4141
  470MOL0     H63436   3.298   3.952   1.783 -1.4058  1.1502 -0.7503
  470MOL0     H63437   3.492   3.957   1.644 -0.5028 -1.5255  1.3592
  470MOL0     H63438   3.741   4.034   1.381 -1.4990 -0.1949 -0.9809
  470MOL0     H63439   3.972   4.080   1.288 -0.7650  2.5659 -2.7653
  470MOL0     H63440   4.065   3.897   0.906 -1.4308 -0.5538  1.3570
  470MOL0     H63441   4.203   4.000   0.943  2.2025 -0.2334  2.9705
  470MOL0     H63442   4.295   3.800   0.963  0.0793  1.3424  0.6214
  470MOL0     H63443   4.151   3.720   1.024  1.6763 -0.9602 -0.8540
  470MOL0     H63444   4.193   3.775   1.250 -1.0539  1.6499 -0.5143
  470MOL0     H63445   4.296   3.908   1.212 -1.5485 -0.5385  0.7007
  470MOL0     H63446   4.361   3.619   1.138 -1.7483  0.2325  2.2514
  470MOL0     H63447   4.420   3.690   1.293 -1.2328  1.2083  0.9057
  470MOL0     H63448   4.713   3.853   1.070  0.1360 -1.1346  0.7054
  470MOL0     H63449   3.882   3.841   0.952  3.4771  1.5778  0.8555
  470MOL0     H63450   3.643   3.797   1.045  0.0709 -2.0650  1.4203
  471MOL0     O63451  11.409   5.303  10.962  0.2700  0.3759 -0.0270
  471MOL0     C63452  11.366   5.315  11.080 -0.6214  0.2813  0.2766
  471MOL0     O63453  11.445   5.359  11.190  0.0838  0.3120 -0.2595
  471MOL0     C63454  11.566   5.412  11.163 -0.1652  1.0404 -1.5459
  471MOL0     C63455  11.592   5.525  11.102  0.2985 -0.2525  0.3780
  471MOL0     C63456  11.717   5.589  11.098 -0.6429 -0.1728 -0.0130
  471MOL0     C63457  11.831   5.522  11.150 -0.4854  0.4427 -0.6863
  471MOL0     O63458  11.957   5.582  11.140  0.2677 -0.6981 -0.4353
  471MOL0     C63459  12.057   5.504  11.199  0.5267  0.1061 -0.4134
  471MOL0     C63460  12.191   5.575  11.180  0.8089 -0.8651 -0.0590
  471MOL0     C63461  12.299   5.503  11.254  0.3251  0.4421  0.0856
  471MOL0     C63462  12.431   5.499  11.177  0.8911 -0.3600 -0.3845
  471MOL0     C63463  12.418   5.403  11.059 -0.5559  0.0245 -0.5705
  471MOL0     C63464  12.547   5.382  10.977  0.4189  0.3254  0.4448
  471MOL0     C63465  12.526   5.275  10.867  0.4210 -0.0226  0.1263
  471MOL0     C63466  12.644   5.238  10.791 -0.0600 -1.5897  0.0885
  471MOL0     N63467  12.673   5.339  10.692  0.4445 -0.2077 -0.4729
  471MOL0     C63468  12.642   5.334  10.559 -0.5735 -0.5639 -0.5918
  471MOL0     C63469  12.697   5.443  10.504 -0.0267 -0.5073  0.5020
  471MOL0     C63470  12.689   5.474  10.354 -0.2331 -0.0774 -0.2998
  471MOL0     C63471  12.766   5.394  10.253 -0.2506  0.1066  0.2391
  471MOL0     C63472  12.720   5.398  10.101 -0.3308 -0.2038  0.0882
  471MOL0     C63473  12.582   5.342  10.075  0.9371 -0.5547 -1.0433
  471MOL0     O63474  12.567   5.370   9.942 -0.7277  0.5644  0.4866
  471MOL0     C63475  12.446   5.413   9.918 -0.1237 -0.1293 -0.3685
  471MOL0     C63476  12.360   5.343   9.832  0.1798  0.6772 -0.5352
  471MOL0     C63477  12.224   5.377   9.816  0.0431 -1.2743 -0.1692
  471MOL0     C63478  12.144   5.299   9.717  0.3406 -0.6222 -0.1274
  471MOL0     C63479  12.171   5.497   9.874 -0.0867 -0.6319 -0.3234
  471MOL0     C63480  12.028   5.548   9.865  0.4126 -0.6133 -0.2040
  471MOL0     O63481  11.918   5.471   9.885 -0.4389 -0.6778  0.5335
  471MOL0     C63482  11.814   5.473   9.796  0.1211 -0.2060 -0.5415
  471MOL0     C63483  11.797   5.554   9.683  0.4229 -0.7032  0.1644
  471MOL0     C63484  11.673   5.543   9.619  0.7192 -0.6622  0.0212
  471MOL0     C63485  11.554   5.481   9.674 -0.5272  0.8005 -0.5027
  471MOL0     O63486  11.437   5.487   9.599  0.4671 -0.5923 -0.4367
  471MOL0     C63487  11.365   5.363   9.592  0.3997 -0.1170  0.6727
  471MOL0     C63488  11.252   5.375   9.484 -0.1475 -0.5044  0.6470
  471MOL0     C63489  11.182   5.235   9.482 -0.2578 -0.5791  0.7400
  471MOL0     C63490  11.085   5.217   9.607  0.4077 -0.0573  0.6452
  471MOL0     C63491  11.016   5.079   9.598  0.5297  0.7023  0.2926
  471MOL0     C63492  10.935   5.045   9.723  0.7146  0.6405 -0.4115
  471MOL0     C63493  10.883   4.913   9.704  0.9965 -0.3742  0.4105
  471MOL0     C63494  10.984   4.802   9.731  0.1410 -0.3908 -0.3208
  471MOL0    Cl63495  11.078   4.816   9.887 -0.3979  0.1225 -0.2432
  471MOL0     C63496  11.579   5.401   9.787  0.2973 -0.2057  0.3330
  471MOL0     C63497  11.705   5.398   9.846  0.2193 -0.2570  0.0912
  471MOL0     O63498  12.018   5.672   9.856 -0.1169  0.1027  0.5265
  471MOL0     C63499  12.259   5.573   9.960  0.2156  0.6354  0.2710
  471MOL0     C63500  12.392   5.527   9.975  0.3247 -0.0539 -0.9241
  471MOL0     N63501  12.762   5.517  10.594 -0.3480  0.1631  0.1361
  471MOL0     N63502  12.742   5.455  10.703  0.0880  0.1232 -0.3179
  471MOL0     C63503  11.802   5.401  11.223  0.0170 -0.4579 -0.0720
  471MOL0     C63504  11.673   5.354  11.232 -0.0593  0.2935 -0.5582
  471MOL0     C63505  11.236   5.243  11.109  0.9099  0.0938 -0.0818
  471MOL0     C63506  11.173   5.272  11.233 -1.6061 -0.4545 -0.5899
  471MOL0     C63507  11.050   5.220  11.268 -0.1603 -0.0854  0.6982
  471MOL0     C63508  10.993   5.126  11.176  0.2511 -0.0461 -0.4947
  471MOL0     O63509  10.886   5.048  11.208 -0.6500  0.3528 -0.2593
  471MOL0     C63510  10.766   5.093  11.139 -0.1511 -0.3153 -0.2944
  471MOL0     C63511  10.725   4.979  11.049  1.1465  0.5980 -0.2273
  471MOL0     C63512  10.573   4.956  11.037 -0.2397  0.9070  0.0646
  471MOL0     C63513  10.504   5.064  10.949 -0.3658  0.0351  0.0051
  471MOL0     C63514  10.366   5.049  10.957 -0.3786  1.1332  0.8496
  471MOL0     C63515  10.250   5.025  10.957 -0.5859 -0.1673  0.8841
  471MOL0     C63516  11.049   5.103  11.051  0.3247  0.4521  0.0534
  471MOL0     C63517  11.166   5.162  11.018 -0.6124 -0.0532  0.2815
  471MOL0     H63518  11.511   5.581  11.056  1.6678  2.2593  0.8226
  471MOL0     H63519  11.729   5.691  11.063 -1.6998 -0.1735 -0.4402
  471MOL0     H63520  12.046   5.488  11.307 -1.4378  0.5765 -0.5051
  471MOL0     H63521  12.074   5.414  11.139 -0.1287 -0.1464 -0.2301
  471MOL0     H63522  12.202   5.585  11.072 -0.7273 -3.9705 -0.6294
  471MOL0     H63523  12.180   5.671  11.231  2.2026 -0.1797 -0.9913
  471MOL0     H63524  12.318   5.552  11.349 -0.1366 -0.0895  0.4576
  471MOL0     H63525  12.282   5.397  11.276  0.1504  0.3741 -0.3668
  471MOL0     H63526  12.455   5.601  11.146  0.5343  0.7509  2.6675
  471MOL0     H63527  12.508   5.460  11.245  0.0216 -1.0279  0.2422
  471MOL0     H63528  12.415   5.304  11.105  2.6561  0.8089  1.6300
  471MOL0     H63529  12.334   5.432  10.994 -0.6228  2.1507  0.4107
  471MOL0     H63530  12.574   5.472  10.921 -2.3140 -0.9371 -3.3182
  471MOL0     H63531  12.630   5.365  11.046  0.3819  2.2357  1.0116
  471MOL0     H63532  12.479   5.183  10.901  1.6636 -0.4444  0.7829
  471MOL0     H63533  12.453   5.327  10.804 -0.3973  1.0398  1.8698
  471MOL0     H63534  12.623   5.141  10.746 -1.3085 -1.7099  0.8801
  471MOL0     H63535  12.734   5.226  10.851  1.5883  1.5199 -1.4895
  471MOL0     H63536  12.590   5.265  10.494  2.9130 -0.4975 -3.8095
  471MOL0     H63537  12.583   5.471  10.328 -0.3886  2.2448 -0.2071
  471MOL0     H63538  12.732   5.573  10.336  1.0399 -0.7564 -1.1929
  471MOL0     H63539  12.769   5.291  10.289 -2.9834  0.3847  1.5431
  471MOL0     H63540  12.870   5.427  10.252 -0.0235 -0.5575  1.2174
  471MOL0     H63541  12.791   5.328  10.053 -1.7339  0.3774 -3.1209
  471MOL0     H63542  12.727   5.500  10.062 -1.1019 -0.6945 -1.4437
  471MOL0     H63543  12.509   5.386  10.144  0.4834 -2.2649 -0.3759
  471MOL0     H63544  12.574   5.236  10.103  1.3142 -0.2176  0.4334
  471MOL0     H63545  12.403   5.253   9.787  0.5540 -1.1674  3.1337
  471MOL0     H63546  12.055   5.347   9.675 -0.2169 -0.3389  1.3346
  471MOL0     H63547  12.208   5.255   9.640  0.1256 -1.9501  0.4283
  471MOL0     H63548  12.106   5.208   9.763  2.0428 -2.0766 -1.4407
  471MOL0     H63549  11.867   5.629   9.648 -0.6530  1.5386  2.4629
  471MOL0     H63550  11.661   5.610   9.534  1.5115 -1.0277 -0.3922
  471MOL0     H63551  11.436   5.282   9.568 -0.1177 -0.2786 -0.3615
  471MOL0     H63552  11.334   5.327   9.691  1.9502 -4.0991 -0.0666
  471MOL0     H63553  11.182   5.457   9.503  1.9602  1.3550  0.8037
  471MOL0     H63554  11.303   5.399   9.390  1.3798 -0.8360  1.3672
  471MOL0     H63555  11.268   5.169   9.472  0.1690  0.2886 -2.5411
  471MOL0     H63556  11.118   5.224   9.393  0.5802  1.6091 -0.1993
  471MOL0     H63557  11.140   5.216   9.702  0.1467  0.8874  0.8126
  471MOL0     H63558  11.011   5.298   9.607  1.9269  1.4069 -1.0492
  471MOL0     H63559  11.090   5.001   9.574 -0.4336 -1.0833  2.7414
  471MOL0     H63560  10.940   5.096   9.521  0.6345  0.7748  0.2046
  471MOL0     H63561  10.987   5.065   9.817  1.1381 -1.3724 -0.1686
  471MOL0     H63562  10.854   5.118   9.724  1.0099  1.1158 -3.0916
  471MOL0     H63563  10.829   4.909   9.610 -4.6356 -0.8266  3.2441
  471MOL0     H63564  10.807   4.896   9.782  1.7781 -0.1307  1.2457
  471MOL0     H63565  11.056   4.799   9.649 -0.6745 -0.2256 -1.0576
  471MOL0     H63566  10.935   4.705   9.726  2.5686 -1.6366 -2.1677
  471MOL0     H63567  11.503   5.343   9.839  2.4589 -4.9407 -1.1825
  471MOL0     H63568  11.726   5.360   9.945  2.4897 -0.8682 -0.5638
  471MOL0     H63569  12.214   5.654  10.018 -1.0957 -1.6230  2.6024
  471MOL0     H63570  12.456   5.575  10.048 -1.8746 -0.4490  1.4394
  471MOL0     H63571  11.870   5.341  11.282  0.1946  0.1725  0.3798
  471MOL0     H63572  11.652   5.255  11.270  1.8330 -1.8881 -4.5763
  471MOL0     H63573  11.200   5.339  11.314 -3.1624 -1.9597  1.2911
  471MOL0     H63574  10.991   5.245  11.355 -1.0326 -0.7801  0.3224
  471MOL0     H63575  10.685   5.123  11.206  0.4141  0.4012  0.0808
  471MOL0     H63576  10.779   5.182  11.076 -0.1933 -0.1505 -0.0708
  471MOL0     H63577  10.762   4.883  11.088 -0.9650  0.6022  2.0219
  471MOL0     H63578  10.774   4.998  10.954  0.0905 -0.0646 -0.9250
  471MOL0     H63579  10.534   4.958  11.140  0.0499  0.6804  0.1786
  471MOL0     H63580  10.559   4.858  10.990  0.7436  1.0327 -0.5036
  471MOL0     H63581  10.538   5.054  10.845  1.8122 -0.8442  0.7358
  471MOL0     H63582  10.535   5.163  10.982 -1.4946  1.0936 -1.9441
  471MOL0     H63583  10.145   5.012  10.973 -0.8945  0.2130 -0.7135
  471MOL0     H63584  11.003   5.033  10.982  1.3478 -0.9776  0.7675
  471MOL0     H63585  11.209   5.162  10.918  2.3084 -1.4657  1.4284
  472MOL0     O63586   0.921   1.205   4.325 -0.5354 -0.5324  0.2984
  472MOL0     C63587   0.996   1.122   4.283  0.6792  0.2939 -0.6565
  472MOL0     O63588   0.970   0.998   4.244  0.5055  0.0858 -0.3559
  472MOL0     C63589   0.854   0.934   4.272  0.8313  0.0251  0.5254
  472MOL0     C63590   0.733   0.983   4.231  0.2263 -0.0370  0.6960
  472MOL0     C63591   0.621   0.905   4.252  0.0730 -0.8877  0.6446
  472MOL0     C63592   0.620   0.775   4.310  0.3023 -0.1779 -0.1599
  472MOL0     O63593   0.510   0.694   4.336  0.4058 -0.9882  0.4169
  472MOL0     C63594   0.398   0.706   4.241  0.7598 -0.1553 -0.7829
  472MOL0     C63595   0.318   0.579   4.262 -0.1137 -0.0470 -0.5923
  472MOL0     C63596   0.193   0.558   4.166  0.2110  0.0769 -0.5498
  472MOL0     C63597   0.232   0.596   4.023 -0.5067 -0.1863  0.7467
  472MOL0     C63598   0.130   0.531   3.916  0.9012 -1.1143  0.3354
  472MOL0     C63599   0.009   0.626   3.894 -0.3470  0.0749  0.2212
  472MOL0     C63600  -0.088   0.565   3.786  0.3115  0.3597 -0.1481
  472MOL0     C63601  -0.205   0.643   3.746  1.1602  0.4656  0.8469
  472MOL0     N63602  -0.183   0.785   3.731 -0.0298  0.0303 -0.6560
  472MOL0     C63603  -0.167   0.845   3.613  0.3013 -0.1751  0.1628
  472MOL0     C63604  -0.136   0.971   3.646  0.6930 -0.1437 -0.2163
  472MOL0     C63605  -0.096   1.083   3.547 -0.0792  0.9312 -0.3174
  472MOL0     C63606   0.057   1.107   3.553  0.3038 -0.4999 -0.2109
  472MOL0     C63607   0.104   1.227   3.460  0.2788  0.3850 -0.5019
  472MOL0     C63608   0.251   1.247   3.444 -0.3984  0.8089  0.0834
  472MOL0     O63609   0.306   1.116   3.417  0.4167 -0.2250  0.5101
  472MOL0     C63610   0.442   1.095   3.407  0.6758 -0.4721  0.7602
  472MOL0     C63611   0.536   1.201   3.408  1.1640  0.3667  0.5771
  472MOL0     C63612   0.677   1.184   3.391  0.9250  1.4764  0.2435
  472MOL0     C63613   0.768   1.304   3.371  0.1665  0.5787 -0.5296
  472MOL0     C63614   0.722   1.053   3.377  0.2199  0.7311 -1.0761
  472MOL0     C63615   0.868   1.022   3.345  0.0280 -0.6189  0.1389
  472MOL0     O63616   0.929   0.942   3.443 -0.1250  0.5064  0.3796
  472MOL0     C63617   1.063   0.915   3.414 -0.3426  0.3198 -0.4801
  472MOL0     C63618   1.113   0.816   3.326 -0.1168  0.2689  0.9206
  472MOL0     C63619   1.256   0.792   3.311  0.1259 -0.9335 -0.7552
  472MOL0     C63620   1.347   0.862   3.392  0.6606 -0.1102 -0.1478
  472MOL0     O63621   1.478   0.829   3.385 -0.1119 -0.0197  0.4700
  472MOL0     C63622   1.580   0.905   3.456 -0.0232  0.2041  0.3464
  472MOL0     C63623   1.587   1.042   3.396  0.1004  0.5146  0.0205
  472MOL0     C63624   1.610   1.032   3.247  0.5398  0.2423  0.1946
  472MOL0     C63625   1.643   1.170   3.193  0.0417  0.3195  0.0434
  472MOL0     C63626   1.684   1.162   3.040  1.0820  0.2189  0.0174
  472MOL0     C63627   1.748   1.295   3.000  0.2683  1.0535  0.4416
  472MOL0     C63628   1.771   1.298   2.848 -0.7373 -0.2936  0.5112
  472MOL0     C63629   1.821   1.171   2.786 -0.2590  0.5303 -0.6026
  472MOL0    Cl63630   1.906   1.198   2.640  0.3777 -0.1256 -0.1915
  472MOL0     C63631   1.299   0.957   3.488 -0.1250  0.6665  0.1751
  472MOL0     C63632   1.163   0.985   3.489 -0.2439  0.5542  0.2110
  472MOL0     O63633   0.906   1.042   3.230 -0.3157  1.0251 -0.6954
  472MOL0     C63634   0.631   0.940   3.382 -0.2524 -0.8656 -0.1399
  472MOL0     C63635   0.495   0.969   3.380  0.4325 -0.3924  0.3471
  472MOL0     N63636  -0.146   0.978   3.787 -0.1553 -0.8279  0.7599
  472MOL0     N63637  -0.187   0.874   3.834  0.4136 -0.0479  0.2740
  472MOL0     C63638   0.750   0.725   4.343  0.2837  0.1024  0.7042
  472MOL0     C63639   0.863   0.800   4.324  0.0585 -0.3628  1.2320
  472MOL0     C63640   1.137   1.157   4.268  0.1278  0.1240  0.0692
  472MOL0     C63641   1.226   1.086   4.189  0.6967  0.3297 -0.9901
  472MOL0     C63642   1.363   1.123   4.178 -1.0792  0.6411 -0.2415
  472MOL0     C63643   1.408   1.232   4.252 -0.3190  0.4195  0.0714
  472MOL0     O63644   1.541   1.272   4.237  0.1721 -0.1268 -0.0568
  472MOL0     C63645   1.585   1.378   4.315 -0.1114  0.3054  0.5160
  472MOL0     C63646   1.730   1.397   4.322 -0.0531 -0.2406  0.4490
  472MOL0     C63647   1.794   1.441   4.190  0.6587 -0.4386  0.4403
  472MOL0     C63648   1.942   1.419   4.194  0.4344  0.7365  0.1635
  472MOL0     C63649   2.001   1.480   4.073 -0.1813  0.6148 -0.2807
  472MOL0     C63650   2.033   1.527   3.968  0.3305 -0.4344 -0.3098
  472MOL0     C63651   1.319   1.304   4.334  0.7616 -0.4489  0.5101
  472MOL0     C63652   1.189   1.260   4.337  0.4972 -0.1717  0.3042
  472MOL0     H63653   0.727   1.086   4.199 -2.5003 -0.8364 -1.7859
  472MOL0     H63654   0.530   0.955   4.220 -0.3968 -2.3916 -0.4486
  472MOL0     H63655   0.340   0.795   4.264 -1.1743 -1.5278 -0.1007
  472MOL0     H63656   0.428   0.720   4.137 -1.4225 -0.3379 -1.4911
  472MOL0     H63657   0.381   0.489   4.255  0.0378  0.0451 -0.4172
  472MOL0     H63658   0.285   0.589   4.365 -3.1801  1.4224 -1.6151
  472MOL0     H63659   0.171   0.452   4.186  1.8516 -0.2270 -0.2200
  472MOL0     H63660   0.106   0.622   4.186  1.1287  1.4719 -0.8940
  472MOL0     H63661   0.209   0.702   4.008  0.7152 -0.2802 -2.5978
  472MOL0     H63662   0.335   0.576   3.991  0.3165 -1.0149  3.5965
  472MOL0     H63663   0.179   0.511   3.820  3.1400 -2.3858  1.6542
  472MOL0     H63664   0.093   0.435   3.951 -2.2022 -0.1254  0.0922
  472MOL0     H63665  -0.052   0.628   3.985  1.1025 -3.8358  1.4748
  472MOL0     H63666   0.050   0.725   3.873  2.7085 -0.6277  2.1649
  472MOL0     H63667  -0.014   0.545   3.708  1.0830  0.1375  0.6126
  472MOL0     H63668  -0.133   0.471   3.819  1.2616 -0.9441 -2.3963
  472MOL0     H63669  -0.282   0.627   3.822 -0.1171 -2.9532 -0.9422
  472MOL0     H63670  -0.238   0.609   3.648 -1.2147  0.6486  1.5326
  472MOL0     H63671  -0.188   0.798   3.517  0.2281  0.6258 -0.2244
  472MOL0     H63672  -0.125   1.047   3.447 -1.6644  0.2885  0.3429
  472MOL0     H63673  -0.155   1.170   3.575 -2.6695 -0.7720 -0.1311
  472MOL0     H63674   0.104   1.010   3.537  2.5464  0.1934  1.4537
  472MOL0     H63675   0.079   1.143   3.654  1.7606  0.7389 -0.9226
  472MOL0     H63676   0.068   1.319   3.507  1.9616  0.0511  1.6244
  472MOL0     H63677   0.054   1.215   3.364  0.8430  2.5927 -1.1210
  472MOL0     H63678   0.291   1.288   3.537 -2.7037 -0.4331  1.7015
  472MOL0     H63679   0.289   1.308   3.361  2.1538 -0.6825  0.0357
  472MOL0     H63680   0.497   1.302   3.410 -3.3158 -1.0178 -2.3736
  472MOL0     H63681   0.862   1.272   3.327  0.7152 -0.3045  1.2103
  472MOL0     H63682   0.726   1.385   3.309 -1.0174 -0.0785 -0.6197
  472MOL0     H63683   0.792   1.361   3.461  1.6711  0.1628 -0.6523
  472MOL0     H63684   1.047   0.759   3.261  2.0295  1.4859 -2.6586
  472MOL0     H63685   1.291   0.716   3.242  3.2281 -0.5810  0.2894
  472MOL0     H63686   1.570   0.909   3.565  0.5062 -0.9488  0.4481
  472MOL0     H63687   1.678   0.859   3.438  0.9191  2.2944 -0.2060
  472MOL0     H63688   1.496   1.099   3.414 -0.5313 -0.4542 -0.0547
  472MOL0     H63689   1.667   1.095   3.448  0.4775 -2.9067  3.4474
  472MOL0     H63690   1.524   0.994   3.191  0.6584  0.9923 -0.5069
  472MOL0     H63691   1.694   0.966   3.221  0.6343 -0.7141  2.6421
  472MOL0     H63692   1.556   1.235   3.210 -1.4925 -1.8240  0.7383
  472MOL0     H63693   1.729   1.213   3.244  1.6555 -0.8161 -1.6162
  472MOL0     H63694   1.607   1.123   2.973  1.2110 -0.6422  0.3461
  472MOL0     H63695   1.738   1.066   3.038  0.2712 -0.2598  0.4199
  472MOL0     H63696   1.686   1.378   3.035 -2.2971 -0.3866 -0.4361
  472MOL0     H63697   1.843   1.306   3.053 -0.7880  4.5596  1.8934
  472MOL0     H63698   1.846   1.376   2.831 -0.2481 -0.7004  0.7537
  472MOL0     H63699   1.680   1.338   2.803  0.1773  2.0820  0.6188
  472MOL0     H63700   1.732   1.109   2.770  0.7171 -0.1484 -4.5745
  472MOL0     H63701   1.894   1.114   2.844 -1.1828 -0.5097 -0.4230
  472MOL0     H63702   1.363   0.998   3.565  1.6226 -2.6802  0.6595
  472MOL0     H63703   1.134   1.056   3.566 -0.4056  0.8636 -0.1357
  472MOL0     H63704   0.666   0.837   3.378 -1.8413 -1.4601  0.6129
  472MOL0     H63705   0.420   0.891   3.370  1.5753 -1.3014 -1.7564
  472MOL0     H63706   0.773   0.632   4.394 -0.6880  0.3507  1.6120
  472MOL0     H63707   0.962   0.765   4.349 -0.0876  1.1620  4.4701
  472MOL0     H63708   1.193   1.011   4.118  1.9285  0.4184 -1.6843
  472MOL0     H63709   1.432   1.060   4.124  0.6517  0.7905  1.6766
  472MOL0     H63710   1.530   1.467   4.284 -3.6795 -1.3295  1.5391
  472MOL0     H63711   1.549   1.365   4.417 -1.4308 -0.3904 -0.0040
  472MOL0     H63712   1.776   1.301   4.345  1.4139  0.0930 -0.9382
  472MOL0     H63713   1.758   1.460   4.408  1.2693  0.2263 -0.3089
  472MOL0     H63714   1.777   1.548   4.170  1.4204 -0.5579 -1.0491
  472MOL0     H63715   1.747   1.397   4.101  1.1695  0.9179 -0.5478
  472MOL0     H63716   1.964   1.312   4.182 -1.1764  0.5513 -1.7356
  472MOL0     H63717   1.976   1.449   4.294 -0.4575  2.8685 -0.1305
  472MOL0     H63718   2.067   1.570   3.876 -0.0069 -1.1926 -0.7901
  472MOL0     H63719   1.340   1.395   4.388 -0.3495  0.8546 -1.1426
  472MOL0     H63720   1.123   1.309   4.408  1.1288  1.2847 -0.0829
  473MOL0     O63721   8.817   7.189   7.219 -0.1254  0.6397 -0.5595
  473MOL0     C63722   8.720   7.110   7.215  0.3270 -0.0201  0.1707
  473MOL0     O63723   8.645   7.085   7.330 -0.4379  0.1272 -0.0362
  473MOL0     C63724   8.703   7.136   7.444  0.5431  0.4548 -0.2471
  473MOL0     C63725   8.768   7.031   7.532  0.0686 -0.0507  0.6532
  473MOL0     C63726   8.811   7.069   7.658  0.3278 -0.0768  0.4807
  473MOL0     C63727   8.782   7.193   7.713  0.8295 -0.3725 -0.0295
  473MOL0     O63728   8.820   7.216   7.840 -0.6119 -0.7003 -0.2175
  473MOL0     C63729   8.955   7.259   7.856 -0.4738 -0.3626 -0.4519
  473MOL0     C63730   8.967   7.375   7.960  0.1667 -0.4746 -0.1515
  473MOL0     C63731   9.110   7.433   7.964  0.7574  0.5843  0.3592
  473MOL0     C63732   9.112   7.567   8.022  0.4463 -0.1588 -0.2317
  473MOL0     C63733   9.249   7.628   8.034 -0.0804  0.4993  0.0198
  473MOL0     C63734   9.349   7.564   8.128 -1.2422 -0.5335  0.4610
  473MOL0     C63735   9.474   7.657   8.171  0.0439 -0.0646 -0.5994
  473MOL0     C63736   9.432   7.800   8.207  0.2126  0.4283 -1.0652
  473MOL0     N63737   9.549   7.859   8.262 -0.0709  0.0024 -0.5578
  473MOL0     C63738   9.658   7.916   8.197  0.2059 -0.7719  0.3137
  473MOL0     C63739   9.737   7.958   8.293 -0.2946  0.5999  0.2128
  473MOL0     C63740   9.874   8.019   8.294  0.0941 -0.0920  0.3243
  473MOL0     C63741   9.992   7.943   8.365  0.9119 -0.5072  0.6853
  473MOL0     C63742  10.021   7.822   8.266 -0.0023 -0.3369 -0.7508
  473MOL0     C63743  10.102   7.713   8.336  1.0875 -0.6362  0.4668
  473MOL0     O63744  10.027   7.651   8.443  0.2477  1.0301  0.0978
  473MOL0     C63745   9.944   7.550   8.408 -1.0764 -0.0277  1.2306
  473MOL0     C63746   9.999   7.427   8.369  0.7032 -1.0506  0.6974
  473MOL0     C63747   9.916   7.321   8.329 -0.2246 -0.2032  0.9321
  473MOL0     C63748   9.978   7.186   8.285 -0.0344 -0.2472 -0.2573
  473MOL0     C63749   9.771   7.342   8.328  0.1926  0.6093 -1.0177
  473MOL0     C63750   9.676   7.242   8.270 -0.5005 -0.9956 -0.2098
  473MOL0     O63751   9.542   7.272   8.286 -0.2261  0.1617 -0.0691
  473MOL0     C63752   9.438   7.206   8.228 -0.2960  0.6655  0.6119
  473MOL0     C63753   9.439   7.147   8.107  0.1226  0.6206  0.5674
  473MOL0     C63754   9.324   7.087   8.044  0.3226  0.1156  0.9157
  473MOL0     C63755   9.207   7.084   8.111  0.0410 -0.0733 -0.0398
  473MOL0     O63756   9.092   7.032   8.060  0.3441 -0.5410  0.6519
  473MOL0     C63757   9.071   6.896   8.075  0.5626  0.2491 -0.2088
  473MOL0     C63758   8.948   6.860   8.001  0.6218  0.1538 -0.2819
  473MOL0     C63759   8.913   6.714   8.023  0.0372 -0.9386 -0.3534
  473MOL0     C63760   8.816   6.680   7.910  0.0163  0.0952 -0.6606
  473MOL0     C63761   8.745   6.544   7.946 -0.4464  0.1900  1.4498
  473MOL0     C63762   8.619   6.513   7.868 -0.0777  0.8514  0.0639
  473MOL0     C63763   8.632   6.507   7.718 -0.3556 -0.3011  0.3952
  473MOL0     C63764   8.492   6.492   7.651  0.1041  0.1811  0.1194
  473MOL0    Cl63765   8.385   6.373   7.724 -0.0170 -0.0371 -0.1082
  473MOL0     C63766   9.198   7.144   8.235  0.0564 -1.2441  0.1331
  473MOL0     C63767   9.317   7.206   8.299  0.5818  0.1355  0.6290
  473MOL0     O63768   9.716   7.147   8.194 -0.9059 -0.2522 -0.3635
  473MOL0     C63769   9.720   7.462   8.387  0.5878  0.0712  0.3652
  473MOL0     C63770   9.807   7.562   8.428 -0.7810  0.0240 -0.4612
  473MOL0     N63771   9.683   7.922   8.411 -0.7673  0.3013 -0.3591
  473MOL0     N63772   9.578   7.857   8.393 -0.0361 -0.1202  0.2542
  473MOL0     C63773   8.718   7.287   7.636  0.3845  0.2101 -0.7775
  473MOL0     C63774   8.686   7.263   7.500  0.0784  0.0398  0.1528
  473MOL0     C63775   8.703   7.026   7.096  0.2837 -0.1158  0.0086
  473MOL0     C63776   8.587   6.947   7.087 -0.7588 -0.3489  0.2790
  473MOL0     C63777   8.569   6.875   6.961 -0.1004  0.3205  0.1150
  473MOL0     C63778   8.660   6.887   6.858 -0.3265  0.2806  0.0945
  473MOL0     O63779   8.632   6.808   6.749  0.4329 -0.0312  0.1477
  473MOL0     C63780   8.700   6.822   6.630 -0.1411 -0.0535  0.0737
  473MOL0     C63781   8.627   6.784   6.509  0.8125 -0.9160 -0.7442
  473MOL0     C63782   8.510   6.872   6.474 -0.8031 -0.4501 -0.5008
  473MOL0     C63783   8.541   6.984   6.374 -0.0788 -0.1008  0.4713
  473MOL0     C63784   8.417   7.050   6.318 -0.0731  0.1146  1.8714
  473MOL0     C63785   8.308   7.084   6.282  0.2948 -0.5773 -0.4551
  473MOL0     C63786   8.772   6.964   6.874  0.8018  0.3553  0.0669
  473MOL0     C63787   8.792   7.035   6.989 -0.2264 -0.1925  0.9537
  473MOL0     H63788   8.787   6.938   7.480 -2.1463 -0.5601  0.6656
  473MOL0     H63789   8.848   6.985   7.717  1.6395  0.1954  0.0901
  473MOL0     H63790   9.023   7.181   7.892 -1.0645 -2.0311 -2.6638
  473MOL0     H63791   9.005   7.290   7.763  2.5068 -1.1529  0.7801
  473MOL0     H63792   8.898   7.458   7.943  2.9424  2.7020  2.6709
  473MOL0     H63793   8.946   7.334   8.059 -1.1746 -0.8078 -0.5493
  473MOL0     H63794   9.176   7.362   8.016  0.1364 -0.8683 -0.7703
  473MOL0     H63795   9.158   7.441   7.866  2.3825 -1.9616  0.8436
  473MOL0     H63796   9.044   7.633   7.968  0.7187  2.1252  2.0205
  473MOL0     H63797   9.066   7.555   8.121 -0.6028  0.8218 -0.5812
  473MOL0     H63798   9.288   7.630   7.932  0.3110  1.2630  0.1751
  473MOL0     H63799   9.235   7.733   8.060 -0.5736  1.1410 -2.5901
  473MOL0     H63800   9.291   7.526   8.212  1.4978 -2.0551  1.7940
  473MOL0     H63801   9.403   7.479   8.085  0.5395  1.3817 -1.3209
  473MOL0     H63802   9.532   7.606   8.249  0.2255 -2.1747 -2.0141
  473MOL0     H63803   9.539   7.659   8.083 -1.7455  2.2435 -1.9871
  473MOL0     H63804   9.353   7.800   8.282  0.8656  0.9927 -0.3565
  473MOL0     H63805   9.395   7.866   8.128 -0.4288  0.9620 -0.3335
  473MOL0     H63806   9.677   7.920   8.090 -0.3952 -1.5459  0.1752
  473MOL0     H63807   9.906   8.047   8.193  2.9992  0.6691  1.3583
  473MOL0     H63808   9.868   8.116   8.345  0.2133 -0.6797  1.4723
  473MOL0     H63809   9.969   7.905   8.465 -0.1564 -2.8658 -0.3718
  473MOL0     H63810  10.082   8.005   8.369 -1.0161  2.6016 -0.7650
  473MOL0     H63811  10.083   7.859   8.183  0.9439  0.1002  0.1270
  473MOL0     H63812   9.931   7.787   8.214  0.0749  0.2246 -1.2856
  473MOL0     H63813  10.182   7.766   8.388 -2.0505  0.7490  4.4114
  473MOL0     H63814  10.135   7.644   8.258 -2.6171 -0.4673 -1.5126
  473MOL0     H63815  10.107   7.421   8.363  0.8198  1.2648 -0.5828
  473MOL0     H63816   9.927   7.108   8.341 -1.0948 -0.0218 -0.8855
  473MOL0     H63817   9.960   7.172   8.178  3.0279 -2.9276 -0.5789
  473MOL0     H63818  10.084   7.173   8.309 -0.3663 -0.5529  1.0903
  473MOL0     H63819   9.532   7.136   8.051  0.9267  0.1382  1.9516
  473MOL0     H63820   9.335   7.043   7.945 -0.8521 -0.0480  0.8459
  473MOL0     H63821   9.156   6.841   8.034  1.1749 -0.2346  1.6037
  473MOL0     H63822   9.052   6.870   8.180 -0.2647 -1.2132 -0.6878
  473MOL0     H63823   8.874   6.932   8.037  2.2695  1.9207 -0.2209
  473MOL0     H63824   8.972   6.879   7.895 -1.2434 -2.5025 -1.2637
  473MOL0     H63825   8.850   6.707   8.112 -3.8040  2.3261 -2.5051
  473MOL0     H63826   9.003   6.652   8.032  0.6119 -1.2081 -5.3154
  473MOL0     H63827   8.735   6.753   7.900 -0.7737 -0.8570 -1.4730
  473MOL0     H63828   8.864   6.672   7.811 -0.9841  1.5873 -1.3029
  473MOL0     H63829   8.707   6.557   8.048  0.4931  2.7897  1.5250
  473MOL0     H63830   8.815   6.460   7.943 -0.8603 -0.1414  0.8515
  473MOL0     H63831   8.573   6.422   7.909 -2.4697  2.4322  1.0687
  473MOL0     H63832   8.560   6.602   7.891 -3.5692 -1.8246  2.5912
  473MOL0     H63833   8.699   6.423   7.695 -2.9272 -2.2025 -0.6585
  473MOL0     H63834   8.672   6.596   7.670 -1.4664 -1.2237 -2.4339
  473MOL0     H63835   8.506   6.467   7.546  0.4842  0.2218  0.1593
  473MOL0     H63836   8.449   6.592   7.660 -0.3632  0.1240 -1.3219
  473MOL0     H63837   9.107   7.125   8.291 -0.3681  0.6588  0.1565
  473MOL0     H63838   9.323   7.261   8.393  2.2654 -1.0719  1.2857
  473MOL0     H63839   9.614   7.475   8.403  0.6243  2.0119 -0.7062
  473MOL0     H63840   9.761   7.651   8.471 -2.6698 -0.7144 -0.8481
  473MOL0     H63841   8.692   7.380   7.686 -0.1029  0.3349 -1.2557
  473MOL0     H63842   8.637   7.336   7.436  2.8894  0.0526 -2.1931
  473MOL0     H63843   8.517   6.927   7.168  0.3246 -1.2784  1.0109
  473MOL0     H63844   8.481   6.814   6.944 -0.7023  0.3478  2.7121
  473MOL0     H63845   8.728   6.924   6.604  0.4152 -0.3059 -0.3220
  473MOL0     H63846   8.792   6.763   6.626 -0.4848 -0.5307 -2.0228
  473MOL0     H63847   8.588   6.683   6.522  0.6556 -0.8870 -0.9850
  473MOL0     H63848   8.692   6.786   6.422 -1.0264  0.8096 -2.1765
  473MOL0     H63849   8.457   6.909   6.562 -1.9358  0.4056 -1.4983
  473MOL0     H63850   8.433   6.814   6.422 -2.3137 -0.2638  1.3969
  473MOL0     H63851   8.601   6.944   6.292  2.2557  0.1384  1.9794
  473MOL0     H63852   8.603   7.062   6.419 -1.1546  0.7434  0.5585
  473MOL0     H63853   8.207   7.102   6.252  0.5510 -0.3805 -1.2246
  473MOL0     H63854   8.848   6.973   6.796 -1.2519 -2.5755 -2.5091
  473MOL0     H63855   8.878   7.100   6.996 -0.4406  0.0273  1.6928
  474MOL0     O63856   4.171   9.572  10.278 -0.5885  0.0170 -0.0790
  474MOL0     C63857   4.227   9.625  10.374  0.4223  0.6819  0.0858
  474MOL0     O63858   4.351   9.589  10.415  0.2246  0.1149  0.5226
  474MOL0     C63859   4.413   9.478  10.350 -0.0633 -0.4401  0.0609
  474MOL0     C63860   4.538   9.500  10.298 -1.0984  0.7805  0.0976
  474MOL0     C63861   4.618   9.396  10.251  0.3956 -1.0280 -0.2949
  474MOL0     C63862   4.575   9.261  10.262 -0.6749  0.6373  1.2442
  474MOL0     O63863   4.674   9.166  10.205  0.2768 -0.0554  0.1067
  474MOL0     C63864   4.647   9.134  10.065  0.4655 -0.5503 -0.3482
  474MOL0     C63865   4.683   8.993  10.019  0.3501  0.3124 -0.3793
  474MOL0     C63866   4.571   8.890  10.016 -0.0013  0.8488  0.0967
  474MOL0     C63867   4.605   8.766   9.934  0.1561  0.4133 -0.1331
  474MOL0     C63868   4.521   8.647   9.994 -0.2582  0.0212  0.5811
  474MOL0     C63869   4.375   8.624   9.946  1.1950  0.5829  0.6824
  474MOL0     C63870   4.274   8.730   9.966  0.2918  0.2528 -0.3663
  474MOL0     C63871   4.250   8.770  10.108 -0.4778  0.2098 -0.1034
  474MOL0     N63872   4.194   8.903  10.122  0.3788  0.7935  0.3019
  474MOL0     C63873   4.101   8.969  10.042  0.7097  0.7106 -0.7048
  474MOL0     C63874   4.091   9.091  10.085  0.5905  0.2209 -0.3847
  474MOL0     C63875   4.008   9.206  10.040  0.3670  0.3740 -0.6682
  474MOL0     C63876   4.097   9.331  10.040 -0.4599 -0.6517  0.3225
  474MOL0     C63877   4.041   9.467   9.990  0.6878  0.0272 -0.1293
  474MOL0     C63878   3.926   9.525  10.076  0.1497 -0.2389 -0.2335
  474MOL0     O63879   3.908   9.661  10.023  0.9165 -0.5672 -0.2527
  474MOL0     C63880   3.828   9.747  10.097 -0.4515  0.2106 -0.6188
  474MOL0     C63881   3.736   9.714  10.197  0.1372  0.0694 -1.1405
  474MOL0     C63882   3.653   9.816  10.258 -0.3418  0.4038 -0.0673
  474MOL0     C63883   3.562   9.768  10.361 -0.0608  1.3341  0.2221
  474MOL0     C63884   3.666   9.955  10.210 -0.3172  0.5554  1.0019
  474MOL0     C63885   3.593  10.069  10.265  0.5157 -0.5129 -0.1612
  474MOL0     O63886   3.580  10.190  10.191 -0.2847  0.3301 -0.1720
  474MOL0     C63887   3.514  10.297  10.254 -0.9130  0.0713  0.3256
  474MOL0     C63888   3.383  10.324  10.236  0.0987  0.3627 -0.1989
  474MOL0     C63889   3.326  10.440  10.287  0.0160  0.2326  0.2528
  474MOL0     C63890   3.403  10.518  10.378 -0.2260  0.3896 -0.6667
  474MOL0     O63891   3.359  10.651  10.401 -0.1168 -0.0702 -0.3789
  474MOL0     C63892   3.447  10.755  10.452  0.2345  0.8660 -0.0487
  474MOL0     C63893   3.395  10.900  10.434 -0.3413 -0.2187  0.2518
  474MOL0     C63894   3.477  11.013  10.502 -0.1929  0.1548  0.4866
  474MOL0     C63895   3.594  11.050  10.412  0.1318  0.5124  0.3607
  474MOL0     C63896   3.691  11.140  10.474  0.3702  0.2889 -0.0748
  474MOL0     C63897   3.799  11.068  10.556 -0.6936 -0.9051 -0.2778
  474MOL0     C63898   3.929  11.149  10.585  0.0719  0.0195  0.4241
  474MOL0     C63899   3.913  11.215  10.717 -0.4557 -0.8131  0.4362
  474MOL0    Cl63900   4.060  11.309  10.755  0.0020  0.3440  0.6768
  474MOL0     C63901   3.533  10.486  10.409  0.5856  0.0395  0.3336
  474MOL0     C63902   3.588  10.371  10.350 -0.1406 -0.0133 -1.6624
  474MOL0     O63903   3.553  10.055  10.382  0.6853 -0.1926 -0.1098
  474MOL0     C63904   3.746   9.976  10.095 -0.5779 -1.2238 -0.6530
  474MOL0     C63905   3.832   9.877  10.042  0.4681  0.0166 -0.9819
  474MOL0     N63906   4.185   9.110  10.184 -0.7557  0.5081  0.4575
  474MOL0     N63907   4.249   8.995  10.198  0.6225  0.5665  0.4407
  474MOL0     C63908   4.455   9.239  10.313  0.7424  0.3966 -0.1785
  474MOL0     C63909   4.377   9.347  10.363 -0.2765 -0.8848 -0.5306
  474MOL0     C63910   4.165   9.739  10.447  0.0081  0.0316 -0.5038
  474MOL0     C63911   4.048   9.797  10.387  0.6332  1.4324 -1.1155
  474MOL0     C63912   3.977   9.901  10.442  0.0484  0.4342 -1.2186
  474MOL0     C63913   4.019   9.954  10.564 -0.4003  0.0393  0.1615
  474MOL0     O63914   3.958  10.060  10.625 -0.1460  0.3075  0.5666
  474MOL0     C63915   3.831  10.108  10.575 -0.2500 -0.2460  0.3583
  474MOL0     C63916   3.782  10.212  10.674  0.3477  0.1097 -0.0771
  474MOL0     C63917   3.884  10.333  10.689  0.1285  0.2043 -0.1745
  474MOL0     C63918   3.868  10.416  10.818  1.0408 -0.6714 -0.5638
  474MOL0     C63919   3.724  10.455  10.838 -0.3681  0.5046 -0.3085
  474MOL0     C63920   3.608  10.479  10.873 -0.5922  0.0237  0.9134
  474MOL0     C63921   4.134   9.902  10.629  0.4184  0.8008  0.5710
  474MOL0     C63922   4.205   9.799  10.573  0.2939  0.5213 -0.3624
  474MOL0     H63923   4.589   9.596  10.295  0.3163  0.0306 -1.0321
  474MOL0     H63924   4.707   9.416  10.192  0.7911  2.4541  1.2322
  474MOL0     H63925   4.541   9.142  10.040  0.5287  0.0669 -0.4449
  474MOL0     H63926   4.689   9.209   9.997  0.5877 -1.1673 -0.9694
  474MOL0     H63927   4.720   9.002   9.916  0.2879  3.2644 -0.2493
  474MOL0     H63928   4.772   8.955  10.070  1.4147  1.0176 -1.6427
  474MOL0     H63929   4.536   8.864  10.116 -1.3525  2.6125  0.1096
  474MOL0     H63930   4.476   8.929   9.981 -1.7295 -1.8230  1.4929
  474MOL0     H63931   4.570   8.780   9.831 -1.1336 -1.2707  0.0306
  474MOL0     H63932   4.712   8.744   9.927  0.6114  1.6672  2.1034
  474MOL0     H63933   4.583   8.562   9.965 -0.3238  0.5635 -1.2593
  474MOL0     H63934   4.520   8.641  10.104  2.8340 -0.7454  0.6633
  474MOL0     H63935   4.389   8.605   9.840 -1.1581 -0.3960  0.4951
  474MOL0     H63936   4.332   8.537   9.995  0.8308  0.5079  0.2284
  474MOL0     H63937   4.293   8.823   9.911  1.1809  0.0492 -0.4112
  474MOL0     H63938   4.184   8.687   9.921 -0.9444  1.6989  0.6377
  474MOL0     H63939   4.345   8.775  10.161  0.3750  1.7364 -1.6929
  474MOL0     H63940   4.187   8.700  10.165 -1.6846  0.6966 -0.7971
  474MOL0     H63941   4.041   8.934   9.958  0.8163  3.0801 -1.8482
  474MOL0     H63942   3.961   9.188   9.943  2.1845 -1.0928 -1.3369
  474MOL0     H63943   3.923   9.220  10.107  2.1290  0.4598  1.6725
  474MOL0     H63944   4.183   9.309   9.975  0.5433 -0.2935  1.5020
  474MOL0     H63945   4.134   9.353  10.140 -2.1235  1.3017  0.5559
  474MOL0     H63946   4.011   9.464   9.885  2.5729  2.3382 -0.8172
  474MOL0     H63947   4.122   9.540  10.000 -1.2324  2.5620 -1.8662
  474MOL0     H63948   3.952   9.544  10.180 -2.4756  0.0684  0.4376
  474MOL0     H63949   3.842   9.455  10.074  0.8312 -1.0590 -0.3957
  474MOL0     H63950   3.729   9.611  10.230 -3.5500  0.1774 -1.1512
  474MOL0     H63951   3.594   9.798  10.461  0.6697  1.4968 -0.0523
  474MOL0     H63952   3.461   9.805  10.342  0.0951  1.9981  0.6587
  474MOL0     H63953   3.560   9.659  10.361  0.7680  1.2486 -2.5792
  474MOL0     H63954   3.328  10.268  10.161  0.9236  0.2214 -0.7110
  474MOL0     H63955   3.224  10.472  10.266 -1.5310 -1.3339  4.3032
  474MOL0     H63956   3.475  10.729  10.554 -2.0182 -3.1542 -0.2832
  474MOL0     H63957   3.539  10.753  10.393 -0.1911 -0.9030 -0.7138
  474MOL0     H63958   3.378  10.922  10.328 -1.2046 -1.4552  0.1126
  474MOL0     H63959   3.295  10.891  10.478  0.2496 -2.3467  1.2502
  474MOL0     H63960   3.519  10.975  10.595  2.1823 -1.3772 -1.0700
  474MOL0     H63961   3.418  11.103  10.517 -1.0440 -0.5305  1.3332
  474MOL0     H63962   3.647  10.958  10.387 -0.7343 -0.3354  1.5140
  474MOL0     H63963   3.555  11.101  10.323  0.8461  0.5152  0.0469
  474MOL0     H63964   3.657  11.216  10.545  0.5283  0.2476  0.0481
  474MOL0     H63965   3.733  11.203  10.396  0.2683 -1.1289 -1.3189
  474MOL0     H63966   3.753  11.027  10.647 -2.3500 -0.4788 -0.8832
  474MOL0     H63967   3.837  10.983  10.499 -0.6558 -1.3751  0.4316
  474MOL0     H63968   3.943  11.233  10.516  2.9882 -1.2608 -0.7323
  474MOL0     H63969   4.021  11.090  10.578 -0.8389 -1.2133 -1.8681
  474MOL0     H63970   3.894  11.145  10.798  0.0952 -1.4831 -0.0024
  474MOL0     H63971   3.833  11.289  10.718  0.1927 -0.0159 -1.5061
  474MOL0     H63972   3.597  10.536  10.481  0.6627  0.4147  0.0067
  474MOL0     H63973   3.692  10.349  10.373 -0.9136 -0.8985  1.4218
  474MOL0     H63974   3.755  10.076  10.055 -1.3445 -1.0465 -0.4050
  474MOL0     H63975   3.890   9.897   9.953 -0.2871  1.7177 -1.1162
  474MOL0     H63976   4.420   9.137  10.329 -0.1101  0.6264 -0.5314
  474MOL0     H63977   4.288   9.338  10.425  1.3170 -1.9433  1.7439
  474MOL0     H63978   4.019   9.763  10.288  0.5752 -0.0614 -0.6088
  474MOL0     H63979   3.887   9.944  10.400 -0.0584  0.6667 -0.7603
  474MOL0     H63980   3.832  10.166  10.483 -2.3418  4.0296  2.7282
  474MOL0     H63981   3.759  10.026  10.567 -0.6510  0.0101  1.1616
  474MOL0     H63982   3.782  10.157  10.768 -0.4885  0.1607 -0.0390
  474MOL0     H63983   3.680  10.242  10.648 -0.5359 -0.2920  2.5744
  474MOL0     H63984   3.864  10.386  10.595 -3.7449  0.1227  0.4424
  474MOL0     H63985   3.985  10.291  10.690  0.3062  0.5103  2.7174
  474MOL0     H63986   3.936  10.499  10.840 -1.2216  0.5990  2.3256
  474MOL0     H63987   3.891  10.354  10.905  0.1439  1.8332  1.6139
  474MOL0     H63988   3.504  10.481  10.898 -0.9950 -0.9603 -0.5491
  474MOL0     H63989   4.160   9.946  10.725 -3.3349  4.0802  0.3052
  474MOL0     H63990   4.292   9.764  10.628  0.1803 -1.7647 -1.5382
  475MOL0     O63991   8.549   4.506   2.879 -0.6174 -1.1563 -0.0902
  475MOL0     C63992   8.553   4.526   2.756 -0.8835 -0.5818  0.3700
  475MOL0     O63993   8.550   4.651   2.695 -0.0947 -0.1546  1.1228
  475MOL0     C63994   8.495   4.748   2.776  0.2009 -0.3022  0.2858
  475MOL0     C63995   8.348   4.761   2.786 -0.3455  0.1784  0.1765
  475MOL0     C63996   8.300   4.869   2.868  0.4089  1.0660 -0.3398
  475MOL0     C63997   8.380   4.959   2.933  1.1849 -0.7418 -0.5175
  475MOL0     O63998   8.325   5.048   3.025  0.5469 -0.6097 -0.7313
  475MOL0     C63999   8.397   5.168   3.055  0.1496  0.4347  0.5157
  475MOL0     C64000   8.449   5.177   3.196  0.5789 -0.5427  0.4687
  475MOL0     C64001   8.328   5.162   3.285 -0.0908 -0.1378  1.1339
  475MOL0     C64002   8.366   5.177   3.428  0.0144  0.1627 -0.2489
  475MOL0     C64003   8.251   5.131   3.521 -0.2763 -0.8756  0.5856
  475MOL0     C64004   8.275   5.164   3.674  0.7259 -1.1771  0.1288
  475MOL0     C64005   8.394   5.104   3.740  0.4539  0.4053  0.4265
  475MOL0     C64006   8.476   5.194   3.822  0.4013 -0.4209  0.4538
  475MOL0     N64007   8.412   5.232   3.951 -0.2529  0.4956  0.1405
  475MOL0     C64008   8.400   5.162   4.068 -1.0606  1.1038  0.2887
  475MOL0     C64009   8.341   5.242   4.149  0.3435 -0.6765 -0.7855
  475MOL0     C64010   8.314   5.195   4.289  0.2048 -0.0749  0.8286
  475MOL0     C64011   8.175   5.146   4.326 -0.1224  0.7835  0.3477
  475MOL0     C64012   8.071   5.253   4.317 -0.0096 -0.3456  0.3640
  475MOL0     C64013   8.067   5.350   4.441  0.3883  0.4785 -0.2810
  475MOL0     O64014   8.033   5.278   4.563  0.1634  0.7173 -0.2198
  475MOL0     C64015   8.002   5.349   4.671  0.6376  0.5034  0.5734
  475MOL0     C64016   7.971   5.273   4.779 -0.3595 -0.4558 -0.3513
  475MOL0     C64017   7.934   5.314   4.909 -0.0474 -0.2753  0.1613
  475MOL0     C64018   7.927   5.210   5.017  0.1017 -0.6093  0.9740
  475MOL0     C64019   7.935   5.449   4.929  0.1562 -0.6672  0.5638
  475MOL0     C64020   7.891   5.498   5.065  0.2726 -0.3911  0.2634
  475MOL0     O64021   7.765   5.473   5.113 -0.3874  0.0916 -0.2952
  475MOL0     C64022   7.707   5.548   5.221 -0.2930 -0.1128  0.4902
  475MOL0     C64023   7.571   5.545   5.225  0.7631  0.8001 -0.0121
  475MOL0     C64024   7.501   5.601   5.333  0.9411 -1.1677  0.3245
  475MOL0     C64025   7.567   5.680   5.429  0.3061 -0.8586 -0.2882
  475MOL0     O64026   7.489   5.726   5.533 -0.2092 -0.1118  0.1505
  475MOL0     C64027   7.529   5.858   5.591  0.0561  0.2391 -0.0016
  475MOL0     C64028   7.400   5.921   5.659 -1.2502  0.4019 -0.0381
  475MOL0     C64029   7.271   5.888   5.580 -0.6630 -0.1372 -0.9652
  475MOL0     C64030   7.158   5.977   5.642 -1.2462  0.6805 -0.0225
  475MOL0     C64031   7.034   5.965   5.558 -0.6026  0.8636  0.4298
  475MOL0     C64032   6.912   6.050   5.614 -0.3050 -0.6514  1.1604
  475MOL0     C64033   6.792   6.043   5.518  0.6019  0.3176 -1.4295
  475MOL0     C64034   6.823   6.072   5.373  0.4468 -0.3253  0.0831
  475MOL0    Cl64035   6.679   6.105   5.265  0.1281  0.2165 -0.2763
  475MOL0     C64036   7.702   5.689   5.427 -0.1762 -0.3178 -0.2111
  475MOL0     C64037   7.774   5.621   5.325  0.2885  0.3715 -0.6980
  475MOL0     O64038   7.968   5.574   5.115  0.7977 -0.6082 -0.3282
  475MOL0     C64039   7.949   5.537   4.815  0.0757  0.0529 -0.7906
  475MOL0     C64040   7.977   5.491   4.687 -0.9380 -0.5504 -0.9468
  475MOL0     N64041   8.314   5.360   4.086  0.2529 -0.6721 -0.3666
  475MOL0     N64042   8.358   5.356   3.969 -0.1365  0.1912 -0.0559
  475MOL0     C64043   8.516   4.936   2.937  0.0519  0.1985 -0.1351
  475MOL0     C64044   8.567   4.833   2.857  0.3911 -0.4593  0.0504
  475MOL0     C64045   8.602   4.418   2.660 -0.0833  0.1106 -0.5992
  475MOL0     C64046   8.629   4.455   2.526 -0.4735  0.2638  0.7961
  475MOL0     C64047   8.674   4.354   2.438  0.1716 -0.7462 -1.1785
  475MOL0     C64048   8.691   4.224   2.479 -0.3725 -1.1627 -0.1778
  475MOL0     O64049   8.740   4.128   2.390 -0.0667 -0.0792 -0.5614
  475MOL0     C64050   8.667   4.098   2.279  1.1421 -0.6561 -0.0630
  475MOL0     C64051   8.512   4.118   2.293  0.2113 -0.8753 -0.2203
  475MOL0     C64052   8.444   4.028   2.396 -0.1539  0.4595  0.6535
  475MOL0     C64053   8.298   4.076   2.412 -0.4918 -0.1252  0.7728
  475MOL0     C64054   8.303   4.206   2.484  1.1158 -0.2472 -0.3474
  475MOL0     C64055   8.296   4.320   2.527  0.3660  0.0935  0.2183
  475MOL0     C64056   8.672   4.189   2.610  0.1033 -0.8180 -0.3878
  475MOL0     C64057   8.618   4.284   2.705 -0.1553 -0.1556 -0.1998
  475MOL0     H64058   8.277   4.697   2.735 -0.0507 -1.2314  1.4400
  475MOL0     H64059   8.192   4.884   2.865  0.3550  0.5525 -1.5670
  475MOL0     H64060   8.475   5.196   2.984  0.6136 -0.8747  0.4905
  475MOL0     H64061   8.330   5.253   3.040  2.4085  2.4643  1.3336
  475MOL0     H64062   8.506   5.085   3.214 -0.6324 -1.1019  1.5543
  475MOL0     H64063   8.495   5.275   3.211  0.4358 -0.3468 -0.3525
  475MOL0     H64064   8.260   5.244   3.260  0.6190  0.6399  1.7090
  475MOL0     H64065   8.283   5.062   3.287  1.6089 -1.0608  5.4989
  475MOL0     H64066   8.458   5.130   3.461 -0.2983  0.0699  0.5142
  475MOL0     H64067   8.383   5.282   3.453  1.2556  0.4933 -2.2494
  475MOL0     H64068   8.164   5.181   3.477  0.4091  0.0017  0.2183
  475MOL0     H64069   8.226   5.024   3.523  0.0531 -1.0767 -1.9365
  475MOL0     H64070   8.276   5.273   3.682 -3.0703 -1.0041  0.3782
  475MOL0     H64071   8.176   5.134   3.711 -1.1062  1.2724 -2.3896
  475MOL0     H64072   8.360   5.021   3.803 -1.0253  1.3776  0.9716
  475MOL0     H64073   8.449   5.053   3.661 -2.1971  0.5376 -1.6541
  475MOL0     H64074   8.496   5.289   3.771 -0.6136  0.5378  1.7799
  475MOL0     H64075   8.571   5.146   3.845 -0.0526 -1.2982  0.5559
  475MOL0     H64076   8.421   5.062   4.106 -0.4541  3.0821  6.1998
  475MOL0     H64077   8.392   5.119   4.299 -1.4015 -1.5405  3.6453
  475MOL0     H64078   8.337   5.283   4.350  0.9600  2.9097 -3.3105
  475MOL0     H64079   8.174   5.095   4.424  3.2839  1.6821  1.0015
  475MOL0     H64080   8.156   5.058   4.264 -2.0200  0.4408  1.3480
  475MOL0     H64081   7.971   5.215   4.295 -0.2781  0.4133  0.2303
  475MOL0     H64082   8.082   5.323   4.234 -1.8084  0.2232  0.5445
  475MOL0     H64083   8.004   5.434   4.410 -1.1437 -1.0952 -1.6274
  475MOL0     H64084   8.165   5.393   4.465  0.1898  0.8699 -0.1562
  475MOL0     H64085   7.982   5.166   4.767  0.0438 -0.3630 -0.8571
  475MOL0     H64086   7.825   5.170   5.017 -2.3197  4.7795  1.3185
  475MOL0     H64087   8.002   5.132   5.000  0.2783 -0.4960  1.2207
  475MOL0     H64088   7.943   5.255   5.115  1.3950  0.6925  0.2082
  475MOL0     H64089   7.511   5.499   5.148  0.9990 -2.4743  1.5890
  475MOL0     H64090   7.394   5.589   5.326  0.5808 -0.0327  2.6991
  475MOL0     H64091   7.601   5.835   5.670 -1.2955 -0.1283  1.1867
  475MOL0     H64092   7.570   5.926   5.516  0.7360 -1.3091 -1.0727
  475MOL0     H64093   7.405   5.894   5.765 -0.0264  2.1247  0.3848
  475MOL0     H64094   7.404   6.029   5.673 -2.1756  0.1534  2.9972
  475MOL0     H64095   7.245   5.782   5.594  2.5997 -0.9396 -0.2755
  475MOL0     H64096   7.286   5.919   5.476  2.8147  1.8391 -0.0160
  475MOL0     H64097   7.137   5.947   5.745 -1.5792  1.1407  0.0463
  475MOL0     H64098   7.192   6.080   5.633 -1.5716  0.8378  0.4934
  475MOL0     H64099   7.000   5.862   5.550 -0.2295  0.6643  1.2744
  475MOL0     H64100   7.062   5.992   5.456  0.2629  0.8882  0.6638
  475MOL0     H64101   6.872   6.023   5.712 -0.7050 -0.8809  0.9377
  475MOL0     H64102   6.951   6.152   5.612 -1.2759 -0.2665 -1.2563
  475MOL0     H64103   6.709   6.105   5.551 -1.4035 -2.0560 -1.7116
  475MOL0     H64104   6.750   5.942   5.520 -1.7266  1.1480 -3.4260
  475MOL0     H64105   6.878   5.991   5.323  1.9132  0.0096  1.0733
  475MOL0     H64106   6.893   6.156   5.380  1.9154 -1.5719  1.1052
  475MOL0     H64107   7.749   5.739   5.511  1.0662  0.8372 -1.5482
  475MOL0     H64108   7.882   5.629   5.329  0.2031  1.4552  2.6928
  475MOL0     H64109   7.946   5.644   4.832 -1.8518 -0.0587 -0.1820
  475MOL0     H64110   8.006   5.557   4.606 -0.9247 -1.2985 -1.5627
  475MOL0     H64111   8.583   4.985   3.007 -0.3355 -0.0712  0.4305
  475MOL0     H64112   8.673   4.816   2.873 -0.1910 -5.4473  0.3931
  475MOL0     H64113   8.618   4.555   2.487  2.0152 -0.2986 -1.6833
  475MOL0     H64114   8.701   4.383   2.337 -2.9027  1.2575 -1.5766
  475MOL0     H64115   8.698   4.172   2.205  0.9077  1.2017  1.6232
  475MOL0     H64116   8.692   3.995   2.251  1.0182 -0.5111 -0.7309
  475MOL0     H64117   8.467   4.102   2.194  2.3600 -0.9286 -1.2384
  475MOL0     H64118   8.493   4.220   2.328  1.1102 -1.8668  3.5569
  475MOL0     H64119   8.504   4.027   2.487  3.3625 -2.5837 -1.4333
  475MOL0     H64120   8.447   3.925   2.361 -1.5216  0.5820  0.0826
  475MOL0     H64121   8.235   4.007   2.469  0.0400 -0.7200  0.6455
  475MOL0     H64122   8.252   4.095   2.315 -0.1213 -0.3259  0.5578
  475MOL0     H64123   8.272   4.416   2.568  3.0569  0.7163  0.5244
  475MOL0     H64124   8.700   4.088   2.638  1.6593 -0.1205  0.7177
  475MOL0     H64125   8.608   4.246   2.806  0.3491  1.4158  0.4736
  476MOL0     O64126  10.660   4.405   6.481 -0.9906  0.5077  0.3630
  476MOL0     C64127  10.670   4.283   6.489  0.6075 -0.2438 -0.0772
  476MOL0     O64128  10.566   4.206   6.521  0.2727 -0.1389 -0.5996
  476MOL0     C64129  10.443   4.252   6.579  0.2480  0.1130  0.3939
  476MOL0     C64130  10.436   4.356   6.661  0.5404 -0.4507 -0.0349
  476MOL0     C64131  10.313   4.409   6.709 -0.3517  0.4937 -0.1264
  476MOL0     C64132  10.194   4.350   6.681  0.8067  0.1775  0.3967
  476MOL0     O64133  10.074   4.394   6.732  0.0596 -0.2517  0.9898
  476MOL0     C64134  10.073   4.512   6.817  0.6264  0.3261 -0.2427
  476MOL0     C64135   9.939   4.520   6.888 -0.2919 -0.0470 -0.6978
  476MOL0     C64136   9.939   4.612   7.011 -0.3789  0.2950 -0.2499
  476MOL0     C64137   9.805   4.643   7.082  0.2574 -0.0728  0.2836
  476MOL0     C64138   9.707   4.534   7.077  0.7639 -0.4957  0.2067
  476MOL0     C64139   9.576   4.597   7.133  0.6838 -0.0025 -0.3201
  476MOL0     C64140   9.461   4.501   7.138 -0.4155  0.7188  0.0503
  476MOL0     C64141   9.337   4.558   7.201  0.2678 -0.5276  0.9880
  476MOL0     N64142   9.357   4.617   7.332  0.6663 -0.1007 -0.0649
  476MOL0     C64143   9.287   4.726   7.371  0.0252  0.0812 -0.0849
  476MOL0     C64144   9.310   4.732   7.506  0.6845 -0.7303 -0.5091
  476MOL0     C64145   9.230   4.827   7.600 -0.4562  0.6775 -0.2870
  476MOL0     C64146   9.109   4.765   7.667 -0.0575  0.2385 -0.1842
  476MOL0     C64147   9.010   4.721   7.572  0.4913  0.3887 -0.2073
  476MOL0     C64148   8.903   4.633   7.644  0.2815  0.4802  0.7249
  476MOL0     O64149   8.774   4.709   7.664  0.2566  0.6109  0.0420
  476MOL0     C64150   8.662   4.632   7.666  0.8306  0.5648  0.3689
  476MOL0     C64151   8.574   4.620   7.550 -0.3257  0.5574  0.2114
  476MOL0     C64152   8.462   4.523   7.552  0.5040  0.3221 -0.0518
  476MOL0     C64153   8.370   4.514   7.428 -0.3219 -0.0062 -0.0653
  476MOL0     C64154   8.438   4.449   7.673  0.1369 -0.4765 -0.3407
  476MOL0     C64155   8.334   4.344   7.673  0.4505  0.2554  0.1779
  476MOL0     O64156   8.337   4.271   7.559  0.1165  0.6324  0.5920
  476MOL0     C64157   8.255   4.163   7.555  1.2015 -0.1886  0.4637
  476MOL0     C64158   8.132   4.166   7.491  0.0779 -0.3330 -0.2639
  476MOL0     C64159   8.049   4.049   7.482 -0.4208 -0.2912  0.0767
  476MOL0     C64160   8.082   3.926   7.545 -0.0034 -0.2089 -0.5681
  476MOL0     O64161   8.012   3.808   7.536 -0.0616 -0.5267 -0.6743
  476MOL0     C64162   7.874   3.826   7.517  0.6238 -0.1400  0.1767
  476MOL0     C64163   7.826   3.683   7.497  0.2165 -0.3946  0.2939
  476MOL0     C64164   7.678   3.683   7.446 -0.0655  0.0883  0.0670
  476MOL0     C64165   7.610   3.551   7.435 -0.5380  0.6048 -1.0819
  476MOL0     C64166   7.482   3.567   7.352 -0.7675 -0.0628 -0.0250
  476MOL0     C64167   7.385   3.447   7.332 -0.0823  0.0545 -1.0202
  476MOL0     C64168   7.250   3.476   7.257  0.1392 -0.0744  0.3560
  476MOL0     C64169   7.147   3.370   7.291 -0.7351  1.2171 -0.1215
  476MOL0    Cl64170   6.989   3.399   7.224  0.2876 -0.7878 -0.2108
  476MOL0     C64171   8.217   3.920   7.605  0.4074  0.2333  0.8297
  476MOL0     C64172   8.294   4.037   7.608 -0.3069  0.1795 -0.0553
  476MOL0     O64173   8.265   4.324   7.769 -1.2235 -0.0101  0.3486
  476MOL0     C64174   8.515   4.460   7.781  0.1250 -0.0297 -0.9304
  476MOL0     C64175   8.627   4.546   7.780  0.4023  0.5155 -0.2292
  476MOL0     N64176   9.379   4.626   7.546 -0.0795  0.5288  0.1165
  476MOL0     N64177   9.406   4.558   7.443 -0.1066 -0.3582  0.9347
  476MOL0     C64178  10.198   4.229   6.604  0.2238 -0.8078  0.8937
  476MOL0     C64179  10.318   4.191   6.544 -0.3229 -0.8565  0.5221
  476MOL0     C64180  10.801   4.221   6.459  0.2648  0.4764 -0.0295
  476MOL0     C64181  10.904   4.300   6.407  0.2566  0.1526  0.3643
  476MOL0     C64182  11.025   4.230   6.370  0.6331 -0.4290  1.0674
  476MOL0     C64183  11.035   4.091   6.376 -0.5180 -0.2788  0.2344
  476MOL0     O64184  11.130   4.010   6.318 -0.4687 -0.9059 -0.2090
  476MOL0     C64185  11.229   4.054   6.220 -0.5403 -0.5517  0.1172
  476MOL0     C64186  11.289   3.930   6.146 -0.1929  0.8401  0.2084
  476MOL0     C64187  11.422   3.893   6.210 -0.1603  0.2364 -0.0356
  476MOL0     C64188  11.505   3.771   6.148 -0.1775 -0.1587 -0.0522
  476MOL0     C64189  11.623   3.748   6.234  0.6212 -0.0011 -0.8413
  476MOL0     C64190  11.723   3.736   6.297  0.3804  0.3619  0.3168
  476MOL0     C64191  10.930   4.019   6.438  0.0082  0.4235 -0.1047
  476MOL0     C64192  10.820   4.085   6.480  0.0398  0.1254 -1.1995
  476MOL0     H64193  10.531   4.405   6.680 -1.4470  3.0408  2.0082
  476MOL0     H64194  10.318   4.505   6.760  0.7378  0.2814  0.1987
  476MOL0     H64195  10.131   4.478   6.904  0.0098 -2.2177 -0.7450
  476MOL0     H64196  10.112   4.606   6.776  3.3496 -1.9438 -3.3058
  476MOL0     H64197   9.866   4.536   6.808  0.1921 -4.3686 -2.3043
  476MOL0     H64198   9.906   4.427   6.934  2.2744  0.2478  2.0763
  476MOL0     H64199  10.004   4.579   7.093 -0.1617  2.4719  0.5197
  476MOL0     H64200   9.973   4.709   6.974  0.4369 -0.3756 -1.3328
  476MOL0     H64201   9.816   4.678   7.185 -0.9457 -0.3837  0.5376
  476MOL0     H64202   9.769   4.730   7.025  0.9781 -0.0608 -0.1563
  476MOL0     H64203   9.687   4.503   6.974 -0.3722 -3.6704  1.2634
  476MOL0     H64204   9.752   4.452   7.135 -0.7749  1.5310  4.7823
  476MOL0     H64205   9.585   4.638   7.234 -2.3320  0.6729 -0.2094
  476MOL0     H64206   9.538   4.669   7.059  0.1952  0.2024  0.1208
  476MOL0     H64207   9.439   4.479   7.033  0.8051 -0.4744  0.0153
  476MOL0     H64208   9.494   4.405   7.180  0.1778  0.4470 -1.0008
  476MOL0     H64209   9.251   4.490   7.207  0.6449 -0.9530  1.5739
  476MOL0     H64210   9.302   4.635   7.131  1.0508  0.5371  1.7573
  476MOL0     H64211   9.206   4.783   7.327 -0.2628  0.7948  1.3261
  476MOL0     H64212   9.298   4.872   7.673  0.9962 -0.0078 -1.1577
  476MOL0     H64213   9.192   4.904   7.533 -2.7636 -0.8695 -0.8822
  476MOL0     H64214   9.073   4.851   7.725  2.9366  2.1694 -0.9659
  476MOL0     H64215   9.155   4.689   7.731 -2.3559 -1.2263 -0.1734
  476MOL0     H64216   9.062   4.662   7.495  1.6217  0.8247  0.2078
  476MOL0     H64217   8.969   4.809   7.523 -0.0099  0.2230 -0.0964
  476MOL0     H64218   8.937   4.615   7.747 -2.7288  2.7928  2.2944
  476MOL0     H64219   8.887   4.540   7.589 -2.1031  0.9327  0.5554
  476MOL0     H64220   8.585   4.686   7.465 -0.4242  2.4692  1.5927
  476MOL0     H64221   8.286   4.447   7.448  0.8073 -1.5427 -0.2226
  476MOL0     H64222   8.323   4.606   7.394 -0.9940 -0.5595 -0.6644
  476MOL0     H64223   8.418   4.472   7.339 -0.9725  1.8857 -1.3483
  476MOL0     H64224   8.086   4.256   7.451 -2.1063 -1.0359  0.5370
  476MOL0     H64225   7.964   4.061   7.416 -0.6874 -0.9468  0.2907
  476MOL0     H64226   7.815   3.870   7.599 -1.9379 -3.5385  0.3584
  476MOL0     H64227   7.851   3.887   7.429 -0.2162 -0.1267  0.3919
  476MOL0     H64228   7.891   3.627   7.429 -1.1698 -1.5993 -0.0799
  476MOL0     H64229   7.835   3.629   7.592 -3.5010  1.1984  1.7221
  476MOL0     H64230   7.704   3.711   7.343  0.2739 -0.8596 -0.1165
  476MOL0     H64231   7.608   3.754   7.492  0.7873 -0.8793  3.0566
  476MOL0     H64232   7.675   3.482   7.380  0.2994  1.4644 -1.1986
  476MOL0     H64233   7.592   3.518   7.538 -1.7209  2.3500 -0.6868
  476MOL0     H64234   7.500   3.613   7.254 -3.1803  1.4851  0.1783
  476MOL0     H64235   7.411   3.637   7.397 -0.6555 -1.5034  2.5879
  476MOL0     H64236   7.444   3.375   7.274 -1.5574 -2.9141  0.8872
  476MOL0     H64237   7.369   3.396   7.428  1.2232 -3.6824 -2.5863
  476MOL0     H64238   7.263   3.479   7.148  1.1539 -2.4600  0.3355
  476MOL0     H64239   7.208   3.573   7.285 -2.4471 -0.4897 -1.6715
  476MOL0     H64240   7.142   3.355   7.399  0.3833 -0.3935 -0.2456
  476MOL0     H64241   7.197   3.273   7.279  0.7889  1.6398  2.0697
  476MOL0     H64242   8.265   3.833   7.647 -0.9598 -0.9175  0.1026
  476MOL0     H64243   8.398   4.032   7.638  0.5216  0.8346 -2.5460
  476MOL0     H64244   8.497   4.401   7.870  1.8260 -0.2456 -0.6979
  476MOL0     H64245   8.682   4.552   7.873 -0.9541  2.3273  0.5072
  476MOL0     H64246  10.108   4.168   6.600  0.1885 -0.8846  2.2375
  476MOL0     H64247  10.335   4.097   6.492 -1.1968 -1.5311  1.4207
  476MOL0     H64248  10.882   4.403   6.379  1.6489  0.7785  1.4378
  476MOL0     H64249  11.113   4.269   6.319 -0.5516  0.4842 -0.3389
  476MOL0     H64250  11.185   4.121   6.146 -0.4643  0.7935  1.2602
  476MOL0     H64251  11.312   4.113   6.261  1.1996 -1.6944 -1.5586
  476MOL0     H64252  11.307   3.944   6.039 -1.4486 -2.1224 -0.4972
  476MOL0     H64253  11.233   3.836   6.146  2.8669 -1.1525 -0.6383
  476MOL0     H64254  11.413   3.869   6.317  5.2440  1.5492  1.0336
  476MOL0     H64255  11.488   3.980   6.217  0.9296 -0.5437 -0.2733
  476MOL0     H64256  11.549   3.793   6.051  3.7146 -3.7116  0.6028
  476MOL0     H64257  11.447   3.678   6.140 -1.1227  0.4037  0.1403
  476MOL0     H64258  11.823   3.725   6.334  0.6900 -0.4448 -0.7159
  476MOL0     H64259  10.930   3.911   6.451  2.6154 -0.1660 -3.4553
  476MOL0     H64260  10.741   4.037   6.537  3.4794 -3.0578  1.4010
  477MOL0     O64261  11.083   8.893   2.909  0.0111 -0.5745  0.6646
  477MOL0     C64262  11.072   8.970   2.998 -0.0895 -0.4588 -0.4015
  477MOL0     O64263  10.982   8.955   3.095 -0.2724 -0.2414  0.4280
  477MOL0     C64264  10.899   8.850   3.081  1.1437  0.5285  0.5820
  477MOL0     C64265  10.761   8.877   3.062  0.4104 -0.0720 -0.2109
  477MOL0     C64266  10.676   8.771   3.033 -0.0417  0.3682  0.5197
  477MOL0     C64267  10.723   8.639   3.049 -0.0796  0.5034 -0.7447
  477MOL0     O64268  10.657   8.531   3.010 -0.0431  0.5267  0.2196
  477MOL0     C64269  10.527   8.529   2.975  0.0095  0.5783  0.0297
  477MOL0     C64270  10.493   8.379   2.973  0.1972  0.2382  0.9481
  477MOL0     C64271  10.338   8.363   3.007  0.0331 -0.2791 -0.5107
  477MOL0     C64272  10.233   8.445   2.925 -0.2457  1.2763  0.1601
  477MOL0     C64273  10.095   8.402   2.968  1.2198  0.2025 -1.4397
  477MOL0     C64274  10.046   8.449   3.107 -0.3806 -0.1818 -0.2670
  477MOL0     C64275   9.896   8.411   3.123  0.2973  0.2988 -0.3568
  477MOL0     C64276   9.858   8.405   3.272  0.9700  0.0551 -0.0935
  477MOL0     N64277   9.706   8.384   3.286  0.2953 -0.2990  0.2737
  477MOL0     C64278   9.642   8.279   3.235  0.3829  0.4725  0.0906
  477MOL0     C64279   9.517   8.298   3.277 -0.2516 -0.0109  1.3832
  477MOL0     C64280   9.401   8.214   3.234  0.0205 -0.0780 -0.4243
  477MOL0     C64281   9.393   8.091   3.336 -0.7916 -0.8528 -0.0783
  477MOL0     C64282   9.384   8.130   3.480 -0.0847 -0.2640 -0.0541
  477MOL0     C64283   9.271   8.225   3.520 -0.1542  0.2036  0.1783
  477MOL0     O64284   9.151   8.169   3.479  0.0174 -0.1737 -0.0261
  477MOL0     C64285   9.037   8.212   3.537  0.2962 -1.1705  0.4485
  477MOL0     C64286   8.926   8.122   3.540 -1.2430  0.1066 -0.6920
  477MOL0     C64287   8.806   8.161   3.600  0.7297  0.1647  1.3909
  477MOL0     C64288   8.702   8.050   3.602  0.2026  0.3843  0.6908
  477MOL0     C64289   8.775   8.295   3.646  0.3877  0.8573 -0.1271
  477MOL0     C64290   8.636   8.343   3.689 -0.6838 -0.0769  0.5306
  477MOL0     O64291   8.531   8.283   3.619  0.5296 -0.4380  0.2043
  477MOL0     C64292   8.398   8.327   3.630  0.2399 -0.1193  0.0666
  477MOL0     C64293   8.358   8.418   3.539 -0.3493  0.1532  0.3215
  477MOL0     C64294   8.223   8.444   3.527  0.4095 -0.3006 -0.6655
  477MOL0     C64295   8.129   8.383   3.611  0.2277 -0.4370  0.0153
  477MOL0     O64296   8.003   8.424   3.576  0.2148  0.5384 -0.2483
  477MOL0     C64297   7.885   8.372   3.644  0.0247 -0.9118 -0.1968
  477MOL0     C64298   7.755   8.415   3.575 -0.9859 -0.2340 -0.0397
  477MOL0     C64299   7.639   8.327   3.630  0.3583 -0.4161 -0.0647
  477MOL0     C64300   7.589   8.207   3.542  0.5483  0.3823 -0.3880
  477MOL0     C64301   7.464   8.148   3.611  0.0384 -0.0666 -0.1794
  477MOL0     C64302   7.408   8.028   3.541 -0.1919 -0.2782  0.3394
  477MOL0     C64303   7.364   8.060   3.395  0.5736 -0.0447  0.5982
  477MOL0     C64304   7.289   7.953   3.327 -0.9457 -0.2256  0.8870
  477MOL0    Cl64305   7.147   7.906   3.406 -0.4961  0.1146 -0.2790
  477MOL0     C64306   8.164   8.291   3.706 -0.1297 -0.4341  0.4502
  477MOL0     C64307   8.305   8.264   3.717  0.4349  0.0610 -0.3772
  477MOL0     O64308   8.636   8.426   3.785 -0.4251  0.2536  0.4742
  477MOL0     C64309   8.887   8.377   3.641 -0.2239  0.3594 -0.4126
  477MOL0     C64310   9.015   8.334   3.594 -0.9817  0.0509  0.5273
  477MOL0     N64311   9.503   8.430   3.336 -0.3564 -0.0128 -0.3746
  477MOL0     N64312   9.626   8.469   3.350  0.3642 -0.1673  0.0626
  477MOL0     C64313  10.852   8.615   3.092 -0.2484  0.6236  0.2566
  477MOL0     C64314  10.935   8.723   3.111 -0.0480 -0.3987  0.6849
  477MOL0     C64315  11.173   9.084   3.012  0.7460 -0.6312 -0.3498
  477MOL0     C64316  11.129   9.195   3.082  0.5691  0.2180 -0.3542
  477MOL0     C64317  11.213   9.315   3.101 -0.6800  0.2290  0.5316
  477MOL0     C64318  11.338   9.319   3.039 -0.0380 -0.0834  0.6489
  477MOL0     O64319  11.426   9.423   3.032  0.6453 -0.9817  0.0314
  477MOL0     C64320  11.396   9.547   3.097  0.7489  0.2889 -0.7775
  477MOL0     C64321  11.467   9.668   3.036  0.0287  0.1128 -0.3909
  477MOL0     C64322  11.619   9.640   3.018 -0.0687  0.8017  0.2087
  477MOL0     C64323  11.691   9.759   2.952 -0.0421 -0.0535 -0.4835
  477MOL0     C64324  11.832   9.727   2.959  0.1667 -0.2292  1.1387
  477MOL0     C64325  11.943   9.679   2.962  0.6794 -0.0320  0.2981
  477MOL0     C64326  11.375   9.207   2.959  0.1189 -0.0691  0.0565
  477MOL0     C64327  11.298   9.089   2.943  0.5687 -0.0386  0.1414
  477MOL0     H64328  10.716   8.976   3.062 -0.9386 -0.6522  0.7028
  477MOL0     H64329  10.572   8.779   3.004 -0.7267 -2.2214  1.8979
  477MOL0     H64330  10.461   8.568   3.053 -1.5797 -1.6985 -0.0797
  477MOL0     H64331  10.499   8.566   2.876  1.6913 -2.2781 -1.6489
  477MOL0     H64332  10.531   8.326   2.885  0.5316 -2.0057  2.3755
  477MOL0     H64333  10.546   8.325   3.052 -0.9755  1.6419  2.7784
  477MOL0     H64334  10.317   8.259   2.982  1.3165  0.2771 -4.5004
  477MOL0     H64335  10.322   8.378   3.115 -2.2848 -2.9482 -0.3587
  477MOL0     H64336  10.239   8.553   2.940  0.6134  1.5006 -1.5694
  477MOL0     H64337  10.254   8.415   2.822 -0.7660 -0.7266  0.5913
  477MOL0     H64338  10.025   8.445   2.896  0.1268  0.2099 -0.4014
  477MOL0     H64339  10.084   8.293   2.962 -1.7040  0.3384 -0.1807
  477MOL0     H64340  10.104   8.404   3.188 -1.6641 -1.9930 -0.2880
  477MOL0     H64341  10.051   8.557   3.122 -3.7119  0.2913 -1.6681
  477MOL0     H64342   9.831   8.481   3.070  0.2222  0.7599  0.3300
  477MOL0     H64343   9.873   8.315   3.075  1.3691 -0.8441  1.3030
  477MOL0     H64344   9.891   8.495   3.325  1.9108  0.2608 -1.0148
  477MOL0     H64345   9.901   8.316   3.318 -0.4787 -0.5444  0.1719
  477MOL0     H64346   9.690   8.201   3.176  3.2550  0.7924  1.8102
  477MOL0     H64347   9.306   8.268   3.231 -0.1655 -0.2584  1.4160
  477MOL0     H64348   9.414   8.172   3.133 -0.5701 -1.5178  0.0735
  477MOL0     H64349   9.481   8.028   3.319  0.2727  0.2738  1.0053
  477MOL0     H64350   9.297   8.043   3.315 -1.0074  0.3208 -2.0776
  477MOL0     H64351   9.483   8.174   3.495 -0.1524  0.0207 -0.4064
  477MOL0     H64352   9.385   8.039   3.540 -2.6366  1.1074  2.2747
  477MOL0     H64353   9.283   8.322   3.470 -5.5480  0.4223 -1.3618
  477MOL0     H64354   9.278   8.232   3.629  1.1953 -0.9944  0.1984
  477MOL0     H64355   8.939   8.019   3.507  0.4505 -0.1555  0.6647
  477MOL0     H64356   8.637   8.034   3.688 -1.4035  1.5929 -0.2431
  477MOL0     H64357   8.635   8.055   3.516 -0.7293 -0.5205  1.3308
  477MOL0     H64358   8.752   7.953   3.587  2.7832  2.0121 -2.5799
  477MOL0     H64359   8.433   8.442   3.465 -1.7967 -1.1490 -1.6567
  477MOL0     H64360   8.196   8.508   3.443 -1.8345  0.5632  0.6284
  477MOL0     H64361   7.885   8.263   3.657  1.2349 -0.9929 -0.7302
  477MOL0     H64362   7.888   8.420   3.742  1.9578 -2.9205  0.8232
  477MOL0     H64363   7.729   8.519   3.597 -1.5390  0.1366 -2.2330
  477MOL0     H64364   7.763   8.405   3.466 -0.8381  1.1773 -0.1806
  477MOL0     H64365   7.551   8.392   3.631 -0.0322 -0.9428  0.9498
  477MOL0     H64366   7.665   8.297   3.732  1.7284  0.5993 -0.0856
  477MOL0     H64367   7.555   8.243   3.445  1.4486 -1.1971 -1.3490
  477MOL0     H64368   7.668   8.133   3.522  1.6701  0.3256  3.4148
  477MOL0     H64369   7.391   8.229   3.618  2.2267  1.9227  1.0250
  477MOL0     H64370   7.490   8.119   3.713 -0.5024  2.3593  0.7342
  477MOL0     H64371   7.479   7.946   3.551 -0.3263 -0.4164  0.1594
  477MOL0     H64372   7.315   7.997   3.591  0.7894 -1.0296  1.7730
  477MOL0     H64373   7.447   8.096   3.333  0.7761  1.5821  1.7665
  477MOL0     H64374   7.302   8.149   3.403 -0.0558 -0.4756  0.5495
  477MOL0     H64375   7.344   7.859   3.329  0.2164  0.4155  0.6480
  477MOL0     H64376   7.276   7.985   3.223 -0.8025 -1.0374  0.6167
  477MOL0     H64377   8.083   8.247   3.764 -1.1108  3.9071  2.7492
  477MOL0     H64378   8.335   8.203   3.801  0.0606  0.7378  0.2592
  477MOL0     H64379   8.878   8.481   3.672  0.6135  0.3240 -0.0122
  477MOL0     H64380   9.092   8.409   3.591  0.0926 -1.0395  0.0433
  477MOL0     H64381  10.882   8.513   3.112  2.8411  1.4455  0.4040
  477MOL0     H64382  11.035   8.692   3.140 -0.5977 -2.1531  0.7818
  477MOL0     H64383  11.029   9.193   3.126  0.5464 -1.3426 -0.4468
  477MOL0     H64384  11.169   9.395   3.160 -0.5700  1.5130 -1.0704
  477MOL0     H64385  11.289   9.569   3.097  0.2974 -1.5612  0.9624
  477MOL0     H64386  11.416   9.534   3.204 -1.3570 -2.0215 -0.5555
  477MOL0     H64387  11.440   9.759   3.091 -0.2352  1.5466 -2.7421
  477MOL0     H64388  11.431   9.688   2.934  0.4600 -0.8430 -0.7457
  477MOL0     H64389  11.639   9.563   2.942 -2.4789  0.3536 -0.0632
  477MOL0     H64390  11.650   9.626   3.122  0.3527  1.5767  0.1895
  477MOL0     H64391  11.654   9.852   2.996 -2.6605 -1.8477  1.4301
  477MOL0     H64392  11.670   9.758   2.845 -2.7364 -2.8832 -0.0665
  477MOL0     H64393  12.046   9.649   2.953  0.7751  0.5293 -0.6684
  477MOL0     H64394  11.457   9.228   2.891 -2.7526  1.8121 -3.0924
  477MOL0     H64395  11.330   8.999   2.892  0.7661  0.5567 -0.8053
  478MOL0     O64396   4.050   7.974   7.308 -0.4310  0.1156  0.0010
  478MOL0     C64397   4.067   8.093   7.295 -0.5614 -0.2789 -0.7125
  478MOL0     O64398   3.993   8.183   7.226 -0.0324  0.3591  0.5663
  478MOL0     C64399   3.900   8.127   7.142 -0.8923 -0.3455 -0.4282
  478MOL0     C64400   3.773   8.188   7.136  0.1274  0.8121  0.3473
  478MOL0     C64401   3.670   8.126   7.057 -0.3344 -0.6748  0.2981
  478MOL0     C64402   3.704   8.014   6.974  0.8066 -1.0755 -0.0862
  478MOL0     O64403   3.611   7.946   6.901  0.3395  0.4666 -0.5838
  478MOL0     C64404   3.477   7.999   6.876  0.8280 -0.2824  0.3040
  478MOL0     C64405   3.404   7.899   6.781 -0.3219 -0.0487 -1.2690
  478MOL0     C64406   3.258   7.938   6.760 -0.2367 -0.1715  0.2226
  478MOL0     C64407   3.193   7.841   6.661 -0.1704  0.3367  0.6311
  478MOL0     C64408   3.044   7.864   6.633  0.4677  0.1354  0.7451
  478MOL0     C64409   3.002   7.786   6.509 -0.4670 -0.3696  0.1429
  478MOL0     C64410   2.852   7.778   6.484 -0.0162 -0.6971  0.3856
  478MOL0     C64411   2.797   7.921   6.478  0.5827 -0.1005 -0.2944
  478MOL0     N64412   2.656   7.928   6.427 -0.4516  0.3456  0.5147
  478MOL0     C64413   2.614   7.928   6.292 -0.2746 -0.4166 -0.2332
  478MOL0     C64414   2.480   7.905   6.289  0.6755 -0.2508  0.1485
  478MOL0     C64415   2.392   7.903   6.176 -0.0773 -0.3388 -0.5873
  478MOL0     C64416   2.278   8.005   6.170  0.1175  0.4863 -0.1002
  478MOL0     C64417   2.157   7.959   6.084  1.0598 -0.2695 -0.1899
  478MOL0     C64418   2.188   7.953   5.929 -0.1600 -1.0773  0.3045
  478MOL0     O64419   2.071   7.932   5.860 -0.5458 -0.3515 -0.0541
  478MOL0     C64420   1.981   8.034   5.847 -0.1133 -0.7935 -0.2752
  478MOL0     C64421   1.853   8.002   5.881 -0.3317 -0.3369  0.9391
  478MOL0     C64422   1.746   8.089   5.872  0.5260  0.4768  0.2536
  478MOL0     C64423   1.606   8.046   5.903 -0.5649 -0.8937 -0.1997
  478MOL0     C64424   1.773   8.219   5.837 -0.6446 -0.5157  0.6605
  478MOL0     C64425   1.666   8.328   5.834 -0.0973 -0.1657 -0.0062
  478MOL0     O64426   1.711   8.461   5.841 -0.1968  0.1945 -0.4708
  478MOL0     C64427   1.616   8.553   5.816 -0.3348 -0.3695  0.5103
  478MOL0     C64428   1.578   8.576   5.679 -0.6216 -0.5948 -0.4337
  478MOL0     C64429   1.459   8.651   5.660 -0.0043  0.4504  0.4140
  478MOL0     C64430   1.392   8.715   5.763  0.5094  0.8108 -0.5888
  478MOL0     O64431   1.278   8.798   5.749 -0.4708  0.2761  0.2879
  478MOL0     C64432   1.258   8.861   5.616 -0.4316  0.7823 -0.4626
  478MOL0     C64433   1.219   9.005   5.642  0.6488  0.0994 -0.1060
  478MOL0     C64434   1.110   9.025   5.751 -0.7990 -0.2500  0.6306
  478MOL0     C64435   1.078   9.168   5.767  0.6545 -0.1221 -0.5331
  478MOL0     C64436   0.971   9.198   5.864  0.2270 -0.0808 -1.5023
  478MOL0     C64437   0.931   9.339   5.858 -0.3964  0.5122 -0.4509
  478MOL0     C64438   0.796   9.364   5.919  0.0130 -0.3271  0.0621
  478MOL0     C64439   0.786   9.508   5.967  0.1506 -0.9362  0.3094
  478MOL0    Cl64440   0.839   9.529   6.136 -0.2070 -0.0859 -0.0639
  478MOL0     C64441   1.433   8.695   5.890  0.5579  0.6942  0.6644
  478MOL0     C64442   1.541   8.614   5.926 -0.7318  0.2875 -0.8954
  478MOL0     O64443   1.546   8.295   5.816 -0.0907 -0.0622 -0.3364
  478MOL0     C64444   1.904   8.255   5.801  0.1475 -0.9926 -0.7045
  478MOL0     C64445   2.008   8.162   5.802 -0.1295 -1.1767 -0.0380
  478MOL0     N64446   2.436   7.898   6.421  0.0002  0.2149  0.2537
  478MOL0     N64447   2.543   7.909   6.498 -0.0121  0.8649  0.1790
  478MOL0     C64448   3.831   7.964   6.973  1.0495 -0.3377 -0.1674
  478MOL0     C64449   3.930   8.017   7.054  0.5214  1.0134  0.2416
  478MOL0     C64450   4.200   8.146   7.346  0.9777 -0.6744 -0.5241
  478MOL0     C64451   4.283   8.052   7.425 -0.9431 -0.8286  0.5686
  478MOL0     C64452   4.409   8.094   7.479 -0.0851  0.3796  0.3907
  478MOL0     C64453   4.453   8.222   7.456 -0.0020 -0.0963  0.5385
  478MOL0     O64454   4.566   8.259   7.521  0.1808  0.4633  0.1245
  478MOL0     C64455   4.636   8.380   7.502 -0.7535 -0.1872 -0.7381
  478MOL0     C64456   4.571   8.496   7.585 -1.0326 -0.5573 -0.3352
  478MOL0     C64457   4.648   8.629   7.581 -0.7432  0.1948 -0.0896
  478MOL0     C64458   4.777   8.638   7.646 -0.0228 -0.8047 -0.2263
  478MOL0     C64459   4.886   8.572   7.581  0.3829  0.3082  0.0936
  478MOL0     C64460   4.992   8.534   7.527 -0.4425  0.3634 -0.7263
  478MOL0     C64461   4.384   8.307   7.362  0.0488  0.1121 -0.2946
  478MOL0     C64462   4.255   8.278   7.313  0.7847  0.8509 -0.1628
  478MOL0     H64463   3.741   8.275   7.193 -2.0561  0.9588 -1.0064
  478MOL0     H64464   3.571   8.155   7.091 -2.5442 -4.2236 -2.3459
  478MOL0     H64465   3.407   7.997   6.960 -0.7974  1.7724 -0.9186
  478MOL0     H64466   3.461   8.100   6.836  0.1422  0.5455  2.5221
  478MOL0     H64467   3.460   7.908   6.688  3.5444 -0.2679  0.8496
  478MOL0     H64468   3.413   7.794   6.812  1.5949  0.4326 -0.0795
  478MOL0     H64469   3.209   7.936   6.858 -3.7014  0.1856 -1.3540
  478MOL0     H64470   3.253   8.041   6.724  4.4595  0.5835  1.1380
  478MOL0     H64471   3.245   7.850   6.565  0.2713  1.2732  0.9469
  478MOL0     H64472   3.195   7.742   6.706  0.2996 -0.1636 -0.4465
  478MOL0     H64473   2.985   7.829   6.718  0.3423 -0.1465  0.5433
  478MOL0     H64474   3.027   7.971   6.618  1.0427 -0.1184 -2.2338
  478MOL0     H64475   3.046   7.827   6.417  1.1910  1.6026  1.7138
  478MOL0     H64476   3.038   7.685   6.534 -2.7092 -0.8428  1.8148
  478MOL0     H64477   2.837   7.737   6.384 -4.0954  1.9411 -0.3344
  478MOL0     H64478   2.787   7.725   6.554 -1.9660  1.6517  0.4822
  478MOL0     H64479   2.865   7.983   6.420 -0.0510  1.5538  0.6590
  478MOL0     H64480   2.795   7.958   6.581  3.2096 -1.9941  0.5439
  478MOL0     H64481   2.684   7.919   6.209 -0.5547 -0.7525 -0.4337
  478MOL0     H64482   2.451   7.900   6.084  1.1757 -4.6003  0.1650
  478MOL0     H64483   2.338   7.808   6.183 -2.0852  0.8097  0.6907
  478MOL0     H64484   2.314   8.100   6.131  0.5605 -0.8298 -3.2089
  478MOL0     H64485   2.246   8.023   6.273  0.2927 -0.6090  0.1642
  478MOL0     H64486   2.082   8.037   6.100  1.0613 -0.0022 -1.3762
  478MOL0     H64487   2.119   7.869   6.133 -0.5218  1.7777  2.5834
  478MOL0     H64488   2.266   7.876   5.919  1.5196 -0.2865  4.9719
  478MOL0     H64489   2.244   8.044   5.905  0.7003 -0.8415  2.8760
  478MOL0     H64490   1.843   7.900   5.917  1.0443 -0.9505 -0.3216
  478MOL0     H64491   1.540   8.063   5.818  3.8650  3.5804 -3.3338
  478MOL0     H64492   1.615   7.944   5.942 -0.6330 -0.1774  1.7904
  478MOL0     H64493   1.581   8.106   5.991 -2.5940 -1.0528 -0.6353
  478MOL0     H64494   1.623   8.515   5.601  0.9650 -1.5715  1.1768
  478MOL0     H64495   1.416   8.656   5.560  0.6963 -0.7574  0.0301
  478MOL0     H64496   1.346   8.859   5.549 -2.0586 -2.8192 -2.8116
  478MOL0     H64497   1.188   8.807   5.551 -0.1930  0.0322 -0.1145
  478MOL0     H64498   1.312   9.062   5.646  1.6169 -1.2092 -2.0996
  478MOL0     H64499   1.172   9.029   5.546 -0.8677  0.1729  0.6224
  478MOL0     H64500   1.149   8.993   5.848  4.5464  1.8285 -0.4627
  478MOL0     H64501   1.018   8.968   5.737 -1.3384  0.5377  0.9009
  478MOL0     H64502   1.174   9.209   5.802  1.2954 -1.4318 -0.7077
  478MOL0     H64503   1.065   9.211   5.667  1.7561 -2.0655 -1.5822
  478MOL0     H64504   1.004   9.170   5.965  1.9380  0.0194 -1.9967
  478MOL0     H64505   0.882   9.139   5.844 -2.8069  3.5113  0.1671
  478MOL0     H64506   1.004   9.410   5.899 -1.6577  0.9766  1.0966
  478MOL0     H64507   0.912   9.356   5.752 -1.5399  0.5724 -0.2492
  478MOL0     H64508   0.769   9.294   5.998 -0.2178 -0.3056  0.0031
  478MOL0     H64509   0.721   9.349   5.841 -1.7444  2.9855  0.9334
  478MOL0     H64510   0.684   9.542   5.947  0.9350  1.9659  0.9236
  478MOL0     H64511   0.850   9.567   5.901 -3.1275  0.7248 -1.6650
  478MOL0     H64512   1.381   8.747   5.969 -1.2671 -1.9383  1.3159
  478MOL0     H64513   1.575   8.599   6.029  1.3205  1.9835 -1.2470
  478MOL0     H64514   1.932   8.357   5.775  4.3421 -1.7589  0.0445
  478MOL0     H64515   2.107   8.203   5.782 -1.1665  1.3065 -0.3820
  478MOL0     H64516   3.850   7.875   6.914  0.1543  1.2158 -2.9833
  478MOL0     H64517   4.028   7.971   7.055 -0.0122 -0.1596  1.0023
  478MOL0     H64518   4.263   7.947   7.441  0.2147 -0.8840  1.8690
  478MOL0     H64519   4.458   8.014   7.534  0.2132  0.7431  0.6611
  478MOL0     H64520   4.737   8.349   7.531 -1.8796 -3.4733  0.2160
  478MOL0     H64521   4.644   8.416   7.399  3.2449 -0.9890 -0.8715
  478MOL0     H64522   4.563   8.475   7.692  1.7433 -0.8449 -0.1076
  478MOL0     H64523   4.466   8.511   7.556 -1.3001  4.4372  2.2660
  478MOL0     H64524   4.585   8.700   7.635 -1.5426 -0.6587  0.1429
  478MOL0     H64525   4.650   8.664   7.478  0.2790  2.1923  0.5560
  478MOL0     H64526   4.759   8.597   7.746 -3.1786  1.9716  0.5127
  478MOL0     H64527   4.794   8.746   7.661  0.3246 -0.6077 -1.9092
  478MOL0     H64528   5.092   8.504   7.504 -1.1045 -0.7685 -2.3263
  478MOL0     H64529   4.411   8.409   7.336  2.4204 -0.9776 -2.6156
  478MOL0     H64530   4.186   8.353   7.273 -1.0088 -0.2689  0.7238
  479MOL0     O64531   8.580   3.923   3.677  0.5670  0.5804 -0.0794
  479MOL0     C64532   8.540   3.855   3.578 -1.1247 -0.7367 -0.4262
  479MOL0     O64533   8.405   3.808   3.553  0.3796  0.4093 -0.0377
  479MOL0     C64534   8.314   3.847   3.646  0.3907  0.1308  0.0930
  479MOL0     C64535   8.239   3.958   3.614  0.3978  0.1274 -0.7267
  479MOL0     C64536   8.134   3.997   3.702  0.5649 -0.4727 -0.0580
  479MOL0     C64537   8.107   3.928   3.819  0.1070  0.0810  0.2160
  479MOL0     O64538   7.992   3.956   3.895  0.2733  0.3168 -0.4903
  479MOL0     C64539   7.945   4.093   3.900  0.2706 -0.5226 -0.2581
  479MOL0     C64540   7.863   4.108   4.025  0.1118 -0.5900 -0.5561
  479MOL0     C64541   7.713   4.083   4.002  0.8321 -0.3666 -0.0749
  479MOL0     C64542   7.630   4.135   4.119  0.1367 -0.0246  0.0924
  479MOL0     C64543   7.475   4.147   4.091 -0.4325  0.1006  0.1800
  479MOL0     C64544   7.441   4.276   4.007 -0.0415 -0.4739 -0.7128
  479MOL0     C64545   7.285   4.296   3.985 -0.3755  0.6315  0.1561
  479MOL0     C64546   7.253   4.413   3.886  1.0384  0.3245  0.5257
  479MOL0     N64547   7.103   4.429   3.868  0.0464  0.4340  0.6070
  479MOL0     C64548   7.018   4.446   3.972 -0.3765 -0.1551  0.5039
  479MOL0     C64549   6.900   4.414   3.920  1.1256 -0.4412 -0.2410
  479MOL0     C64550   6.771   4.414   3.994  1.3641  0.2008  0.1147
  479MOL0     C64551   6.686   4.291   3.993  0.4977  0.4546 -0.1432
  479MOL0     C64552   6.750   4.170   4.060 -0.0730  0.5086  0.4063
  479MOL0     C64553   6.800   4.080   3.952  0.2969 -0.4796  0.0948
  479MOL0     O64554   6.887   3.991   4.016 -0.2494 -0.1018 -0.0965
  479MOL0     C64555   6.985   3.933   3.941  0.8598  0.2358 -0.2352
  479MOL0     C64556   7.036   3.969   3.819  0.3603  0.8221  0.0058
  479MOL0     C64557   7.158   3.915   3.769 -1.1764 -0.4664  0.4532
  479MOL0     C64558   7.210   3.971   3.633  0.2598 -0.7403 -0.5991
  479MOL0     C64559   7.230   3.830   3.848 -0.3156  0.2919 -0.1692
  479MOL0     C64560   7.346   3.754   3.798  0.9926 -0.1457  0.3545
  479MOL0     O64561   7.449   3.749   3.880  0.4878 -0.5282 -1.1020
  479MOL0     C64562   7.558   3.665   3.855  0.3332  0.4777 -0.9577
  479MOL0     C64563   7.680   3.726   3.848  0.5683 -0.0595  0.0290
  479MOL0     C64564   7.795   3.654   3.826 -0.2777 -0.5933 -0.3443
  479MOL0     C64565   7.795   3.511   3.826 -0.2459 -0.1433  0.2982
  479MOL0     O64566   7.906   3.427   3.801  0.4186 -0.4438  0.5285
  479MOL0     C64567   8.034   3.471   3.777 -0.3532  0.1125  0.4655
  479MOL0     C64568   8.127   3.358   3.794 -0.6685 -0.1037 -0.0436
  479MOL0     C64569   8.124   3.263   3.683  0.2956  0.1317  0.2994
  479MOL0     C64570   8.222   3.153   3.708 -0.5290 -0.4990 -0.0995
  479MOL0     C64571   8.360   3.183   3.655 -0.3719 -0.1071 -0.0113
  479MOL0     C64572   8.438   3.045   3.658  0.3815 -0.0802 -0.3511
  479MOL0     C64573   8.586   3.053   3.616 -0.1861 -0.8533 -0.0598
  479MOL0     C64574   8.614   2.920   3.548  0.3012  0.3892  0.1902
  479MOL0    Cl64575   8.787   2.898   3.530  0.4706 -0.2473 -0.1880
  479MOL0     C64576   7.671   3.450   3.839 -0.2212 -0.1431 -0.0511
  479MOL0     C64577   7.546   3.529   3.844 -0.2674  0.1538 -0.6708
  479MOL0     O64578   7.347   3.711   3.682 -0.3728 -0.4869  0.2732
  479MOL0     C64579   7.177   3.784   3.970  0.5164  0.9257 -0.7178
  479MOL0     C64580   7.063   3.850   4.019 -0.4058  0.0133  0.2667
  479MOL0     N64581   6.914   4.403   3.790  0.0299 -0.2050  0.2373
  479MOL0     N64582   7.031   4.399   3.757 -0.2309 -0.2052  0.0074
  479MOL0     C64583   8.182   3.820   3.855 -0.1116  1.0842 -0.0761
  479MOL0     C64584   8.290   3.777   3.767 -0.5650 -0.4871 -0.9241
  479MOL0     C64585   8.653   3.833   3.481  0.6187 -0.2531  0.6178
  479MOL0     C64586   8.631   3.797   3.352 -0.6598  0.2215 -0.5746
  479MOL0     C64587   8.736   3.756   3.266  0.3173 -1.0997  1.0810
  479MOL0     C64588   8.867   3.780   3.295 -1.1641 -0.0971 -0.0690
  479MOL0     O64589   8.970   3.761   3.202  0.2336  0.1893  0.1334
  479MOL0     C64590   9.083   3.846   3.212  0.2035  0.7383 -0.8580
  479MOL0     C64591   9.147   3.858   3.078 -0.2568 -0.5015 -0.3922
  479MOL0     C64592   9.287   3.934   3.091 -0.2152  0.0367  0.7129
  479MOL0     C64593   9.344   3.959   2.945 -0.1643 -0.1257 -1.1669
  479MOL0     C64594   9.425   4.081   2.951 -0.7509  0.7285  0.5371
  479MOL0     C64595   9.478   4.190   2.966 -0.1422 -0.4086  0.4705
  479MOL0     C64596   8.886   3.839   3.415 -0.3015 -0.9182 -0.9437
  479MOL0     C64597   8.787   3.866   3.514  0.2889  0.0506  0.2737
  479MOL0     H64598   8.260   4.009   3.521 -0.6399  1.7167 -0.1291
  479MOL0     H64599   8.070   4.073   3.658  0.2578 -0.8292 -0.2345
  479MOL0     H64600   8.022   4.168   3.918 -1.8472  1.5630  0.5776
  479MOL0     H64601   7.889   4.120   3.811  0.3250 -0.8511 -0.3927
  479MOL0     H64602   7.896   4.046   4.109 -3.9479 -2.4615 -0.1354
  479MOL0     H64603   7.873   4.210   4.063  1.1761 -0.3819 -1.3422
  479MOL0     H64604   7.676   4.129   3.910  0.8209 -0.3465 -0.0607
  479MOL0     H64605   7.683   3.979   3.986 -3.2806  0.8046 -0.9861
  479MOL0     H64606   7.655   4.076   4.208 -0.3159  0.1509  0.3392
  479MOL0     H64607   7.665   4.235   4.148 -0.2686 -0.0933  0.8509
  479MOL0     H64608   7.449   4.056   4.037  0.6384  0.4075 -0.8980
  479MOL0     H64609   7.425   4.156   4.188 -0.3809  2.5897  0.0501
  479MOL0     H64610   7.481   4.370   4.048 -2.3535 -0.2646  1.2790
  479MOL0     H64611   7.477   4.265   3.904 -1.1964 -1.4896 -1.0229
  479MOL0     H64612   7.253   4.203   3.938  1.5634 -0.0006 -0.0202
  479MOL0     H64613   7.233   4.307   4.080 -1.2855 -0.7948 -0.1542
  479MOL0     H64614   7.290   4.376   3.790  2.1714  3.8161 -0.5364
  479MOL0     H64615   7.301   4.505   3.919  2.5868  0.1811 -1.1572
  479MOL0     H64616   7.050   4.481   4.070  0.3703  2.2700 -0.5250
  479MOL0     H64617   6.781   4.458   4.094  0.0105 -1.9404  1.2740
  479MOL0     H64618   6.712   4.493   3.947 -0.0091  0.7657  2.6237
  479MOL0     H64619   6.642   4.278   3.894 -3.7683  0.5789  1.5338
  479MOL0     H64620   6.596   4.317   4.049  2.2981  0.5831  2.9060
  479MOL0     H64621   6.680   4.117   4.124  1.0112  1.4502  2.4710
  479MOL0     H64622   6.833   4.200   4.125 -2.2207  2.3525  2.4499
  479MOL0     H64623   6.844   4.136   3.869  0.0611 -4.1503 -2.8167
  479MOL0     H64624   6.720   4.024   3.902 -0.0430  1.3271 -1.4714
  479MOL0     H64625   6.978   4.034   3.755 -1.8016 -1.8786 -0.9712
  479MOL0     H64626   7.198   3.886   3.566 -0.0246 -1.5220  0.4136
  479MOL0     H64627   7.151   4.056   3.598 -0.3366 -1.7128 -2.0429
  479MOL0     H64628   7.315   3.994   3.652 -0.4691 -0.2858  3.9906
  479MOL0     H64629   7.695   3.833   3.842  3.5169  0.0434  4.5615
  479MOL0     H64630   7.889   3.707   3.816 -0.1036 -0.7937  0.1864
  479MOL0     H64631   8.037   3.532   3.686  0.3134  0.6600  0.8440
  479MOL0     H64632   8.052   3.543   3.858 -0.8122 -0.3708  1.0066
  479MOL0     H64633   8.228   3.398   3.797 -0.1105 -1.4654  2.1191
  479MOL0     H64634   8.113   3.318   3.895  1.1848  0.5069  0.4947
  479MOL0     H64635   8.158   3.314   3.592 -0.9993 -1.1480 -0.9440
  479MOL0     H64636   8.022   3.226   3.670  1.2993 -2.8192  0.0835
  479MOL0     H64637   8.227   3.140   3.816  0.7662  0.9152  0.0442
  479MOL0     H64638   8.185   3.067   3.650 -0.5340  0.4162 -1.4927
  479MOL0     H64639   8.406   3.252   3.725 -0.9572 -2.3980  2.8142
  479MOL0     H64640   8.360   3.224   3.554 -0.3831 -3.3826 -1.4879
  479MOL0     H64641   8.437   3.015   3.763  2.5588 -1.4958 -0.6813
  479MOL0     H64642   8.380   2.974   3.598 -0.0359  0.7019 -0.8893
  479MOL0     H64643   8.648   3.075   3.704  1.9758 -2.6164 -1.0172
  479MOL0     H64644   8.589   3.137   3.547 -1.6797 -0.0662  0.7776
  479MOL0     H64645   8.562   2.925   3.452  0.3987 -0.9878  0.0518
  479MOL0     H64646   8.585   2.836   3.612  1.6633 -0.5079 -0.3110
  479MOL0     H64647   7.668   3.345   3.866  1.1052  0.4153  2.6094
  479MOL0     H64648   7.447   3.487   3.853 -0.1003  0.0527  1.0375
  479MOL0     H64649   7.219   3.702   4.026 -2.7468  0.0797  0.7167
  479MOL0     H64650   7.022   3.823   4.116 -0.5019  0.5554  0.3806
  479MOL0     H64651   8.163   3.763   3.946 -0.0002  2.5523  0.9117
  479MOL0     H64652   8.352   3.693   3.797 -0.3284 -0.6028 -1.7057
  479MOL0     H64653   8.530   3.787   3.313 -1.3728  2.4548  0.5475
  479MOL0     H64654   8.712   3.712   3.169 -0.2512  1.2306  0.0828
  479MOL0     H64655   9.068   3.949   3.247  0.4536  0.2812  0.6888
  479MOL0     H64656   9.152   3.796   3.281 -2.5642 -1.8795  0.2564
  479MOL0     H64657   9.085   3.917   3.011 -0.9025  0.6692  1.1717
  479MOL0     H64658   9.173   3.764   3.028  1.7462  0.0437 -0.4721
  479MOL0     H64659   9.350   3.863   3.145  1.2551  0.0171 -0.9098
  479MOL0     H64660   9.277   4.028   3.145  1.9297  1.2448 -0.8436
  479MOL0     H64661   9.272   3.973   2.864  0.6303  0.6396 -1.7698
  479MOL0     H64662   9.409   3.875   2.916 -1.6699 -1.3458 -1.1119
  479MOL0     H64663   9.537   4.279   2.956 -2.0267  0.7176 -1.5839
  479MOL0     H64664   8.987   3.869   3.442 -1.2587  0.1376  1.9326
  479MOL0     H64665   8.820   3.899   3.612  0.0285 -1.1113  0.7774
  480MOL0     O64666   5.327   1.740   7.791 -0.1116 -0.7797  0.1529
  480MOL0     C64667   5.384   1.652   7.852 -0.2455 -0.4377 -0.2252
  480MOL0     O64668   5.329   1.579   7.947 -0.7452  0.7467  0.8417
  480MOL0     C64669   5.195   1.603   7.982  0.1895 -0.4015 -0.0955
  480MOL0     C64670   5.146   1.735   8.010  0.3909  0.2419 -0.2099
  480MOL0     C64671   5.024   1.755   8.066 -0.5032  0.5000  0.2599
  480MOL0     C64672   4.940   1.646   8.093 -0.2074 -0.3729 -0.0545
  480MOL0     O64673   4.809   1.676   8.137  0.6855  0.4619  0.0942
  480MOL0     C64674   4.714   1.571   8.156  0.9616 -0.1818 -0.1639
  480MOL0     C64675   4.559   1.618   8.154  0.2049  0.1708 -0.3306
  480MOL0     C64676   4.514   1.707   8.037  0.9303 -0.3680  0.0341
  480MOL0     C64677   4.375   1.765   8.074  0.4519 -0.1833 -0.2581
  480MOL0     C64678   4.269   1.681   8.002  0.6186 -0.1703 -0.0598
  480MOL0     C64679   4.268   1.708   7.852  0.2724  0.8322 -0.4927
  480MOL0     C64680   4.187   1.612   7.773  0.6741 -0.2005  0.0803
  480MOL0     C64681   4.040   1.638   7.805 -0.2937 -0.0292  0.4842
  480MOL0     N64682   3.967   1.534   7.733  0.4885 -0.4487  0.6161
  480MOL0     C64683   3.913   1.530   7.607 -0.5817  0.3453  0.7593
  480MOL0     C64684   3.851   1.403   7.598 -0.5916 -0.8361 -0.3601
  480MOL0     C64685   3.741   1.367   7.502 -0.5620  0.3218 -0.3167
  480MOL0     C64686   3.610   1.362   7.581 -0.0469  0.0534  0.5904
  480MOL0     C64687   3.489   1.293   7.505 -0.6250 -0.3946 -0.4011
  480MOL0     C64688   3.356   1.368   7.521 -0.2093 -0.1699 -0.0110
  480MOL0     O64689   3.249   1.285   7.470  0.7963  0.3116  0.1506
  480MOL0     C64690   3.132   1.346   7.443  0.0932  0.0734 -0.7913
  480MOL0     C64691   3.084   1.469   7.497  0.3888 -0.0283 -0.8025
  480MOL0     C64692   2.961   1.521   7.455 -0.0481 -0.0532  0.6950
  480MOL0     C64693   2.923   1.665   7.496 -0.0930 -0.1074  0.2510
  480MOL0     C64694   2.877   1.447   7.375 -0.2799  0.0371  0.0730
  480MOL0     C64695   2.741   1.490   7.334  0.5772 -0.2600 -0.7075
  480MOL0     O64696   2.667   1.517   7.448  0.1804 -0.3646 -0.5298
  480MOL0     C64697   2.546   1.570   7.446  0.6241  0.7278 -0.8368
  480MOL0     C64698   2.509   1.632   7.564  0.8475 -0.3232  0.6145
  480MOL0     C64699   2.382   1.689   7.585  0.7279 -0.7181  0.1246
  480MOL0     C64700   2.280   1.666   7.493  0.2707 -0.0113 -0.3559
  480MOL0     O64701   2.155   1.722   7.532 -0.3537 -0.0735 -0.0073
  480MOL0     C64702   2.041   1.701   7.449 -1.5655  0.0925 -0.4403
  480MOL0     C64703   1.927   1.752   7.528 -0.2654  0.9407 -0.5355
  480MOL0     C64704   1.799   1.740   7.453  0.1014  0.3677  1.0841
  480MOL0     C64705   1.677   1.746   7.541  0.0914  0.6106  0.0568
  480MOL0     C64706   1.545   1.759   7.460  1.1544  0.5279  0.3051
  480MOL0     C64707   1.508   1.637   7.374  0.0546 -0.7322  0.4193
  480MOL0     C64708   1.388   1.679   7.280 -0.3906 -0.3844 -1.0963
  480MOL0     C64709   1.350   1.566   7.188  0.1076 -0.4294  0.2176
  480MOL0    Cl64710   1.204   1.606   7.108 -0.0493  0.1597  0.2757
  480MOL0     C64711   2.308   1.588   7.372  0.7307  0.1913 -0.3411
  480MOL0     C64712   2.441   1.544   7.353 -0.4074  0.4628  0.1055
  480MOL0     O64713   2.701   1.477   7.223 -0.6757 -0.0672  1.0142
  480MOL0     C64714   2.926   1.321   7.326 -0.7675  0.1744 -0.1563
  480MOL0     C64715   3.050   1.270   7.359 -0.2966 -0.7535  0.5438
  480MOL0     N64716   3.891   1.325   7.703 -0.6220 -0.7105 -0.7214
  480MOL0     N64717   3.962   1.405   7.780  0.0866 -0.0020  0.5038
  480MOL0     C64718   4.982   1.515   8.069  0.4150 -0.1314  0.2042
  480MOL0     C64719   5.117   1.496   8.033 -0.7198 -0.4742  0.6649
  480MOL0     C64720   5.531   1.629   7.821 -0.3333 -0.4446  0.0110
  480MOL0     C64721   5.595   1.521   7.885 -0.5244  0.6286 -0.8055
  480MOL0     C64722   5.733   1.499   7.862  0.1224 -0.0869 -0.6446
  480MOL0     C64723   5.807   1.566   7.770  0.9037 -0.0686 -0.3857
  480MOL0     O64724   5.938   1.529   7.751 -0.2012  0.3568 -0.6215
  480MOL0     C64725   6.029   1.627   7.686  0.5064  0.2245 -0.3077
  480MOL0     C64726   6.173   1.598   7.717 -0.5629 -0.2337 -0.6283
  480MOL0     C64727   6.198   1.456   7.681  0.3389  0.0734  0.6139
  480MOL0     C64728   6.345   1.412   7.707  0.9018  0.1920  0.3577
  480MOL0     C64729   6.445   1.515   7.722  0.1083  0.0092 -0.8679
  480MOL0     C64730   6.524   1.606   7.724  0.8420  0.2111 -1.7005
  480MOL0     C64731   5.738   1.673   7.701  0.2536  0.4085 -0.1902
  480MOL0     C64732   5.607   1.715   7.734  1.1209  0.2706 -0.7648
  480MOL0     H64733   5.200   1.825   7.983 -0.9187  1.8515  2.1205
  480MOL0     H64734   4.978   1.854   8.067  0.1062  0.8438  2.9358
  480MOL0     H64735   4.712   1.502   8.070  0.6917  2.6666 -2.5958
  480MOL0     H64736   4.725   1.520   8.252  1.3947 -2.3558 -1.2834
  480MOL0     H64737   4.503   1.524   8.158  0.1648  0.1266 -1.5242
  480MOL0     H64738   4.535   1.673   8.245 -1.6009 -0.0418 -0.6417
  480MOL0     H64739   4.585   1.790   8.028  2.1034 -1.4427 -0.9884
  480MOL0     H64740   4.521   1.667   7.935  2.2900 -0.2602  0.0728
  480MOL0     H64741   4.372   1.777   8.183 -2.6572  2.0819 -0.4443
  480MOL0     H64742   4.348   1.865   8.039 -1.6250 -0.7950 -0.5393
  480MOL0     H64743   4.294   1.576   8.017 -2.9483 -1.0405  0.6990
  480MOL0     H64744   4.170   1.691   8.047  1.7117 -2.1386  3.1432
  480MOL0     H64745   4.243   1.814   7.844 -0.9473  0.7431  1.5876
  480MOL0     H64746   4.367   1.680   7.813  0.6528 -1.9836  2.1421
  480MOL0     H64747   4.208   1.626   7.666 -0.9607 -4.5837 -1.0139
  480MOL0     H64748   4.215   1.507   7.785 -0.0326 -0.3935  0.0298
  480MOL0     H64749   4.016   1.742   7.784  0.8822 -0.0669 -1.3854
  480MOL0     H64750   4.018   1.623   7.911  4.3049  1.7591  1.9437
  480MOL0     H64751   3.916   1.610   7.533  2.2416 -0.0754  0.2971
  480MOL0     H64752   3.732   1.436   7.418 -1.6973  1.7242  0.9072
  480MOL0     H64753   3.771   1.270   7.462  0.3084  0.5263 -0.1877
  480MOL0     H64754   3.592   1.461   7.624 -0.3963 -0.6511  2.1361
  480MOL0     H64755   3.617   1.294   7.666 -0.6570  0.9170  1.3650
  480MOL0     H64756   3.485   1.193   7.547 -3.0003 -0.1492  0.1037
  480MOL0     H64757   3.516   1.286   7.400  0.9264  3.1911 -0.4023
  480MOL0     H64758   3.349   1.466   7.474  0.1390  1.0488  2.3237
  480MOL0     H64759   3.338   1.394   7.626  0.1331 -1.8523  0.4958
  480MOL0     H64760   3.140   1.530   7.566  0.3525  1.1284 -1.7661
  480MOL0     H64761   2.874   1.717   7.413 -1.2208 -0.2525  0.8026
  480MOL0     H64762   2.860   1.669   7.585 -0.3847  0.4571  0.0217
  480MOL0     H64763   3.010   1.727   7.516 -0.2090 -0.8532  3.6098
  480MOL0     H64764   2.582   1.649   7.641 -0.0627  0.1336  1.3969
  480MOL0     H64765   2.356   1.741   7.677  0.5082 -1.1367  0.3030
  480MOL0     H64766   2.061   1.753   7.355 -0.7900 -0.9350 -0.8612
  480MOL0     H64767   2.026   1.593   7.439 -3.1008  0.0314  1.7297
  480MOL0     H64768   1.918   1.703   7.625 -1.4999  0.7576 -0.7362
  480MOL0     H64769   1.939   1.858   7.556  2.1847  0.8508 -1.0025
  480MOL0     H64770   1.792   1.640   7.408  1.6704  0.5369  0.4028
  480MOL0     H64771   1.787   1.813   7.372  0.6404  0.5099  1.1261
  480MOL0     H64772   1.685   1.662   7.610  1.7792 -0.5884 -1.5037
  480MOL0     H64773   1.674   1.838   7.600 -0.2775 -0.3692  1.6298
  480MOL0     H64774   1.552   1.845   7.392 -2.0214 -0.0072 -0.8488
  480MOL0     H64775   1.455   1.785   7.515 -0.5365 -2.1726 -0.9955
  480MOL0     H64776   1.593   1.628   7.305 -0.4544  2.1236 -0.7290
  480MOL0     H64777   1.486   1.551   7.438 -0.6697  0.6782  2.1446
  480MOL0     H64778   1.413   1.773   7.230  0.6808 -0.2739 -0.3855
  480MOL0     H64779   1.300   1.701   7.343  0.3406  0.5480 -0.3645
  480MOL0     H64780   1.317   1.477   7.243 -0.8650  2.2605  4.4207
  480MOL0     H64781   1.422   1.539   7.109  0.4290 -1.3142  0.7950
  480MOL0     H64782   2.231   1.566   7.299  0.6826 -1.3819  0.1373
  480MOL0     H64783   2.466   1.481   7.269 -0.1383  1.8831 -0.9100
  480MOL0     H64784   2.870   1.273   7.247  1.5354  0.8045 -2.3161
  480MOL0     H64785   3.093   1.181   7.315  0.5077  0.3164 -0.9150
  480MOL0     H64786   4.920   1.430   8.097  0.2458  0.2644  1.0704
  480MOL0     H64787   5.160   1.397   8.036  3.9332  1.2672  0.1286
  480MOL0     H64788   5.535   1.462   7.954 -1.6297  0.8515 -1.5626
  480MOL0     H64789   5.772   1.427   7.934 -0.0294 -0.4365 -0.9118
  480MOL0     H64790   6.004   1.632   7.580  0.8042 -3.2042 -0.6401
  480MOL0     H64791   6.011   1.725   7.731 -3.3045 -0.5084  0.0762
  480MOL0     H64792   6.195   1.608   7.824  3.7818  0.5954 -1.4040
  480MOL0     H64793   6.233   1.673   7.665 -2.5781  2.1283  0.2891
  480MOL0     H64794   6.164   1.443   7.578  1.2856 -0.4037  0.3535
  480MOL0     H64795   6.122   1.392   7.728 -0.0244  1.6650  2.3545
  480MOL0     H64796   6.368   1.339   7.629  1.4200  0.4591  0.2580
  480MOL0     H64797   6.346   1.366   7.806 -2.0819 -1.5875 -0.2951
  480MOL0     H64798   6.585   1.693   7.737  0.4572  0.0517  2.7642
  480MOL0     H64799   5.768   1.732   7.615 -1.4501  0.7366 -0.5951
  480MOL0     H64800   5.549   1.793   7.686 -1.9157  0.4368  2.6993
  481MOL0     O64801   5.459   9.646   3.451  0.7848 -0.7195 -0.4947
  481MOL0     C64802   5.457   9.767   3.461 -0.2909 -0.2172 -0.3493
  481MOL0     O64803   5.491   9.864   3.363  0.0978  0.5119 -0.0129
  481MOL0     C64804   5.539   9.815   3.244 -0.3087  0.7763 -0.2909
  481MOL0     C64805   5.457   9.719   3.178 -0.6054 -0.3678  0.3457
  481MOL0     C64806   5.502   9.645   3.065 -0.1987 -0.4215  0.4957
  481MOL0     C64807   5.634   9.686   3.014  0.1426  0.5349  0.3040
  481MOL0     O64808   5.691   9.609   2.914 -0.2654  0.2937  0.2392
  481MOL0     C64809   5.760   9.487   2.968  0.6089 -0.3805 -0.6320
  481MOL0     C64810   5.891   9.452   2.905  0.5823  0.1139  0.2193
  481MOL0     C64811   6.011   9.510   2.990  0.7122 -0.2413  0.2203
  481MOL0     C64812   6.020   9.433   3.120  0.0553  0.0868 -0.1148
  481MOL0     C64813   6.133   9.502   3.211 -0.1381 -0.2628 -0.1260
  481MOL0     C64814   6.176   9.421   3.336 -0.5584  0.8548  0.0019
  481MOL0     C64815   6.266   9.309   3.299  0.5510  0.0322 -0.7619
  481MOL0     C64816   6.340   9.259   3.418  0.4532 -0.5607 -0.0366
  481MOL0     N64817   6.427   9.141   3.401 -0.5926  0.0860 -0.1962
  481MOL0     C64818   6.493   9.088   3.291  0.6521 -0.9641 -0.7313
  481MOL0     C64819   6.556   8.979   3.333  0.8258  0.3408 -0.4446
  481MOL0     C64820   6.627   8.869   3.252  0.0124 -0.5155  0.6633
  481MOL0     C64821   6.758   8.929   3.187  0.3736  0.1037  0.1658
  481MOL0     C64822   6.721   8.985   3.041 -0.0443  0.4983 -0.2887
  481MOL0     C64823   6.810   9.106   2.988  0.2781  0.0275 -0.2791
  481MOL0     O64824   6.843   9.203   3.081  1.0606 -0.4422  0.4135
  481MOL0     C64825   6.750   9.317   3.082  0.2068  0.4043 -0.0859
  481MOL0     C64826   6.626   9.323   3.009 -0.7128 -0.2273  0.4351
  481MOL0     C64827   6.547   9.437   2.988 -0.3363 -0.8518  0.0081
  481MOL0     C64828   6.424   9.423   2.895 -0.1393 -0.5213 -0.5703
  481MOL0     C64829   6.591   9.558   3.052  0.0071 -0.5591  0.5240
  481MOL0     C64830   6.519   9.693   3.043 -0.8537 -0.3570  0.8443
  481MOL0     O64831   6.386   9.706   3.009 -0.0504  0.2063 -0.3282
  481MOL0     C64832   6.322   9.829   2.997  0.2143 -0.2324 -0.6662
  481MOL0     C64833   6.331   9.916   2.885 -0.3148  0.1610 -0.0196
  481MOL0     C64834   6.264  10.037   2.886 -0.0499 -1.0414  0.8885
  481MOL0     C64835   6.173  10.075   2.986  0.8587  0.7354  0.5933
  481MOL0     O64836   6.095  10.189   2.973 -0.4623  0.2507  0.0935
  481MOL0     C64837   5.997  10.235   3.072 -0.4789  0.2412  0.6633
  481MOL0     C64838   5.893  10.291   2.980 -0.5856  0.2709  0.6593
  481MOL0     C64839   5.788  10.372   3.055 -0.2137 -0.5367 -0.1664
  481MOL0     C64840   5.661  10.290   3.080 -0.0549  0.7206  0.0991
  481MOL0     C64841   5.562  10.390   3.145  0.5504 -0.2239 -0.6277
  481MOL0     C64842   5.430  10.327   3.188  0.1846  0.4814  0.7530
  481MOL0     C64843   5.333  10.425   3.265 -0.6854  0.3344 -0.9364
  481MOL0     C64844   5.198  10.366   3.323 -0.1648  0.0681 -1.0345
  481MOL0    Cl64845   5.219  10.239   3.444 -0.0006  0.1618  0.0245
  481MOL0     C64846   6.159   9.992   3.097  0.4547  0.6366  0.0133
  481MOL0     C64847   6.233   9.870   3.098 -0.5657  0.4913  0.0055
  481MOL0     O64848   6.597   9.790   3.070  0.1142 -0.5258 -0.2832
  481MOL0     C64849   6.714   9.552   3.121 -0.3524 -0.0048 -1.4280
  481MOL0     C64850   6.795   9.437   3.136  0.6443  0.8363 -0.7586
  481MOL0     N64851   6.523   8.956   3.466 -0.0884  0.4697  0.7525
  481MOL0     N64852   6.437   9.048   3.501 -0.1294 -0.5907 -0.1368
  481MOL0     C64853   5.709   9.791   3.070  0.6057 -0.0448  0.4368
  481MOL0     C64854   5.655   9.850   3.188 -1.2030 -0.1951  0.6477
  481MOL0     C64855   5.422   9.827   3.593 -0.2711  1.2989 -0.2697
  481MOL0     C64856   5.386   9.749   3.710 -0.3449  0.0082  0.0081
  481MOL0     C64857   5.358   9.804   3.830  0.5005  0.2621 -0.1792
  481MOL0     C64858   5.368   9.941   3.844 -0.6375 -0.5037 -0.2329
  481MOL0     O64859   5.352   9.996   3.964 -0.2737 -0.4290 -0.2335
  481MOL0     C64860   5.215  10.020   4.020  0.7872 -0.0409  0.3300
  481MOL0     C64861   5.219   9.997   4.165  0.3986  0.1151 -0.4168
  481MOL0     C64862   5.234   9.846   4.194  0.7569 -0.0945 -0.3901
  481MOL0     C64863   5.195   9.813   4.341  0.1576  0.8104 -0.3002
  481MOL0     C64864   5.050   9.809   4.371  0.3029 -0.7526 -0.0649
  481MOL0     C64865   4.934   9.819   4.403 -0.3054  0.1974 -0.1428
  481MOL0     C64866   5.398  10.019   3.734 -0.1451 -0.0169  0.1573
  481MOL0     C64867   5.431   9.967   3.610  0.3420  0.8345  0.4441
  481MOL0     H64868   5.366   9.683   3.224 -0.9943 -2.1328 -1.6298
  481MOL0     H64869   5.430   9.569   3.034 -3.1441  1.6542  1.7520
  481MOL0     H64870   5.766   9.490   3.077 -2.6374  3.8774 -0.3008
  481MOL0     H64871   5.692   9.406   2.944  2.6035 -1.9045 -1.4185
  481MOL0     H64872   5.907   9.345   2.889  0.8387  0.0790  0.6959
  481MOL0     H64873   5.881   9.504   2.809 -0.8658  3.0330  1.8049
  481MOL0     H64874   6.103   9.503   2.931 -0.9971 -1.2357 -2.5320
  481MOL0     H64875   6.004   9.618   3.008 -1.5963 -0.6273  2.1591
  481MOL0     H64876   5.927   9.431   3.178 -1.1984 -1.7895 -2.0393
  481MOL0     H64877   6.049   9.329   3.103 -0.7597 -0.1009 -0.4120
  481MOL0     H64878   6.222   9.517   3.148 -2.0584  0.5103 -2.8198
  481MOL0     H64879   6.106   9.602   3.245  4.9266  1.7922 -1.1462
  481MOL0     H64880   6.231   9.480   3.410 -0.5894  0.6635  0.1784
  481MOL0     H64881   6.084   9.373   3.372  0.3754 -2.1248 -1.3066
  481MOL0     H64882   6.195   9.230   3.272 -1.6090  1.8448 -0.6305
  481MOL0     H64883   6.327   9.327   3.211  0.7277 -1.5376 -1.0015
  481MOL0     H64884   6.263   9.230   3.490  1.5383  1.6923  2.1806
  481MOL0     H64885   6.397   9.339   3.465 -0.5395 -0.0527  0.3189
  481MOL0     H64886   6.499   9.121   3.188 -4.3742  0.9839 -0.6790
  481MOL0     H64887   6.668   8.800   3.326  1.4509 -1.3002 -0.7962
  481MOL0     H64888   6.565   8.808   3.186  1.1698 -0.1869 -0.7775
  481MOL0     H64889   6.839   8.855   3.181  2.0177  1.9581 -2.8501
  481MOL0     H64890   6.786   9.006   3.259  0.0697  0.3921 -0.0201
  481MOL0     H64891   6.626   9.039   3.039  0.9734  2.3227 -1.8964
  481MOL0     H64892   6.704   8.915   2.959 -0.3613 -0.3862  0.5102
  481MOL0     H64893   6.766   9.143   2.895 -2.2928  2.7861  1.8106
  481MOL0     H64894   6.902   9.054   2.960  0.2361  0.9459 -2.2501
  481MOL0     H64895   6.584   9.245   2.946 -3.1642  0.8820  0.5932
  481MOL0     H64896   6.361   9.337   2.917 -0.0024 -0.2460  1.0167
  481MOL0     H64897   6.356   9.508   2.902 -0.0706 -0.5504  0.8867
  481MOL0     H64898   6.467   9.425   2.794 -4.1841  0.9695 -2.4611
  481MOL0     H64899   6.395   9.881   2.804  1.2639  2.9174 -0.0923
  481MOL0     H64900   6.274  10.107   2.804  1.6380  0.6031  2.3914
  481MOL0     H64901   5.945  10.152   3.120  1.3250  0.2716  2.8254
  481MOL0     H64902   6.036  10.317   3.134 -4.1515  2.7988 -0.0784
  481MOL0     H64903   5.939  10.359   2.908  1.4745  1.9307  3.3265
  481MOL0     H64904   5.846  10.212   2.921 -0.4897 -0.4351  1.5076
  481MOL0     H64905   5.758  10.469   3.015 -2.2317  1.0658  4.4542
  481MOL0     H64906   5.823  10.393   3.157 -0.8679 -2.7643  0.5604
  481MOL0     H64907   5.619  10.259   2.984 -0.3959  2.4991 -0.3693
  481MOL0     H64908   5.682  10.202   3.141  1.1615  0.1696 -1.0936
  481MOL0     H64909   5.541  10.467   3.070  0.3996 -1.5667 -2.0304
  481MOL0     H64910   5.606  10.442   3.230  1.5875 -2.2805  0.1786
  481MOL0     H64911   5.380  10.278   3.104 -1.6895  0.1918  1.9735
  481MOL0     H64912   5.468  10.252   3.258  0.4193 -1.2191 -1.1224
  481MOL0     H64913   5.311  10.506   3.194 -1.0014  0.7725 -0.3520
  481MOL0     H64914   5.384  10.464   3.354 -0.3908  0.4790 -1.1685
  481MOL0     H64915   5.145  10.319   3.240 -1.7564  0.7922 -0.4741
  481MOL0     H64916   5.126  10.435   3.368 -0.6696 -1.6170  0.9032
  481MOL0     H64917   6.093  10.012   3.181 -0.2063  0.5810 -0.4811
  481MOL0     H64918   6.227   9.805   3.184 -1.9201 -1.3092 -1.3700
  481MOL0     H64919   6.764   9.636   3.169 -0.2449 -0.7956 -0.1064
  481MOL0     H64920   6.894   9.427   3.178 -0.3936 -1.0274  1.4222
  481MOL0     H64921   5.805   9.821   3.030 -0.5016  0.0510 -2.3979
  481MOL0     H64922   5.718   9.920   3.241  1.4838 -0.7517 -1.5752
  481MOL0     H64923   5.367   9.642   3.703 -1.2617  0.0164  1.7914
  481MOL0     H64924   5.330   9.735   3.909 -1.8368 -0.1842 -1.2963
  481MOL0     H64925   5.199  10.127   4.005  2.9418  0.4256  0.9388
  481MOL0     H64926   5.138   9.967   3.964  0.7241  0.7151 -0.3151
  481MOL0     H64927   5.125  10.045   4.194 -0.1160  0.2510 -2.2314
  481MOL0     H64928   5.300  10.046   4.220  0.3549 -2.3271  2.0251
  481MOL0     H64929   5.335   9.806   4.179  0.3290 -0.3191 -3.3543
  481MOL0     H64930   5.179   9.786   4.121  2.1552  0.2788 -1.8182
  481MOL0     H64931   5.254   9.868   4.415 -0.7079  3.4263 -1.4541
  481MOL0     H64932   5.233   9.713   4.363 -0.0121  1.0244  1.0875
  481MOL0     H64933   4.829   9.818   4.426  0.0841 -1.4355  1.8044
  481MOL0     H64934   5.391  10.124   3.761 -1.5323 -0.7142  2.7977
  481MOL0     H64935   5.458  10.028   3.524 -0.2595 -1.3960 -1.4273
  482MOL0     O64936  10.262   0.326   1.170 -0.7396  0.1220  0.0643
  482MOL0     C64937  10.230   0.247   1.261  0.7477  0.2182  0.0856
  482MOL0     O64938  10.198   0.284   1.391 -0.6044 -0.2073 -0.9256
  482MOL0     C64939  10.155   0.419   1.423 -0.3879  0.4233 -0.0799
  482MOL0     C64940  10.078   0.498   1.338 -0.4205  0.0471  0.2680
  482MOL0     C64941  10.051   0.627   1.387  0.5762 -0.3710 -0.2411
  482MOL0     C64942  10.107   0.677   1.504 -0.0920 -0.2616  0.0931
  482MOL0     O64943  10.084   0.810   1.543  0.7779  0.0640  0.4319
  482MOL0     C64944  10.014   0.893   1.454 -0.1919  0.1334  0.0483
  482MOL0     C64945  10.001   1.033   1.516  0.2933 -0.0662  0.5435
  482MOL0     C64946   9.979   1.153   1.412  0.2906  0.4429 -0.2403
  482MOL0     C64947   9.959   1.297   1.466 -0.1190 -0.7553  0.0080
  482MOL0     C64948   9.942   1.401   1.348  0.2537 -0.1176 -0.6850
  482MOL0     C64949   9.854   1.350   1.233 -0.3417  0.2425  0.0141
  482MOL0     C64950   9.794   1.460   1.148  0.3175 -0.1183  0.1643
  482MOL0     C64951   9.901   1.545   1.081  0.0773 -0.3846 -0.1304
  482MOL0     N64952   9.828   1.633   0.985  0.5315  0.2645 -0.1319
  482MOL0     C64953   9.843   1.646   0.849  0.5717 -1.2172  0.8875
  482MOL0     C64954   9.761   1.751   0.819  0.0792 -0.7926  0.9130
  482MOL0     C64955   9.720   1.814   0.686 -0.6167  0.3222 -0.8231
  482MOL0     C64956   9.586   1.750   0.628 -0.1803 -0.0290  0.0796
  482MOL0     C64957   9.563   1.791   0.481 -0.3278  0.3536  0.1247
  482MOL0     C64958   9.414   1.810   0.455 -0.3664  0.9074 -1.0489
  482MOL0     O64959   9.399   1.826   0.319  0.0669  0.1338  0.0610
  482MOL0     C64960   9.276   1.810   0.266  0.3585 -0.0750  0.5119
  482MOL0     C64961   9.273   1.772   0.130  0.4744  0.7155 -0.4631
  482MOL0     C64962   9.147   1.759   0.062 -0.1482 -0.0166  0.6887
  482MOL0     C64963   9.158   1.733  -0.088  0.5765 -0.0899 -0.4912
  482MOL0     C64964   9.027   1.783   0.139  0.6089  0.5894 -0.4442
  482MOL0     C64965   8.887   1.775   0.079  1.1615  0.1149  0.7867
  482MOL0     O64966   8.785   1.860   0.120 -0.5169  0.7970 -0.0267
  482MOL0     C64967   8.662   1.836   0.066  0.8098 -0.4432  0.1382
  482MOL0     C64968   8.547   1.829   0.144  1.0450  0.2362  0.2228
  482MOL0     C64969   8.419   1.811   0.080  1.2460  0.0038  0.1075
  482MOL0     C64970   8.408   1.819  -0.063  0.4644 -0.3742 -0.6784
  482MOL0     O64971   8.283   1.787  -0.113 -0.7710 -0.9295  0.1137
  482MOL0     C64972   8.242   1.809  -0.244 -0.0917 -0.5251  0.2766
  482MOL0     C64973   8.100   1.779  -0.270  0.1208 -0.0912 -0.2224
  482MOL0     C64974   8.016   1.872  -0.370 -0.3052 -0.2224  0.2974
  482MOL0     C64975   7.996   1.795  -0.498 -0.7891  0.0491  0.3115
  482MOL0     C64976   7.900   1.872  -0.584 -0.1628 -0.2403 -0.5964
  482MOL0     C64977   7.926   1.830  -0.728 -0.0077  0.4751 -0.1213
  482MOL0     C64978   7.873   1.924  -0.833  0.1083  0.3792 -0.0351
  482MOL0     C64979   7.885   1.877  -0.975 -0.2155  0.5440  0.0707
  482MOL0    Cl64980   7.831   1.710  -0.997 -0.4588  0.1840 -0.1520
  482MOL0     C64981   8.520   1.845  -0.135  0.0247  0.1588 -0.2119
  482MOL0     C64982   8.644   1.857  -0.073 -0.7528  0.5082 -0.2217
  482MOL0     O64983   8.868   1.684   0.000 -0.1337  0.3090  0.1905
  482MOL0     C64984   9.034   1.821   0.265 -0.6056 -1.4402 -0.1075
  482MOL0     C64985   9.152   1.829   0.329  0.0055 -0.2232 -0.7807
  482MOL0     N64986   9.700   1.791   0.932  0.4753  0.7055 -0.0306
  482MOL0     N64987   9.738   1.721   1.028  0.2982 -0.3509  0.3254
  482MOL0     C64988  10.188   0.600   1.586 -0.4389  1.0674  0.5082
  482MOL0     C64989  10.201   0.466   1.548  0.0444 -0.1483 -0.0863
  482MOL0     C64990  10.231   0.101   1.234 -0.0105 -0.1574  0.2758
  482MOL0     C64991  10.209   0.013   1.344 -0.8376  1.1924 -0.4686
  482MOL0     C64992  10.209  -0.127   1.332  0.0579  0.2125  0.7789
  482MOL0     C64993  10.222  -0.178   1.205 -0.2194  0.2601 -0.2821
  482MOL0     O64994  10.202  -0.313   1.176 -0.3782  0.1248 -0.0488
  482MOL0     C64995  10.210  -0.416   1.284 -0.8758 -0.7524 -0.0115
  482MOL0     C64996  10.357  -0.457   1.310  1.1623 -0.6279 -0.4920
  482MOL0     C64997  10.436  -0.510   1.196  0.3416 -1.1585 -0.2613
  482MOL0     C64998  10.389  -0.634   1.135  0.4498 -0.9329 -0.2224
  482MOL0     C64999  10.487  -0.670   1.022  0.2029  1.0387  0.3742
  482MOL0     C65000  10.562  -0.695   0.927  0.4411  0.1823 -1.1227
  482MOL0     C65001  10.250  -0.100   1.098  0.5567  0.4058 -0.4488
  482MOL0     C65002  10.247   0.042   1.109 -0.4760 -0.4604 -0.1815
  482MOL0     H65003  10.044   0.462   1.242  0.2112  0.9860 -0.3183
  482MOL0     H65004   9.981   0.681   1.324  0.9054 -1.2883 -1.4270
  482MOL0     H65005  10.068   0.899   1.360 -0.3992 -0.3553 -0.1041
  482MOL0     H65006   9.913   0.859   1.430  0.6552 -1.8695 -0.9135
  482MOL0     H65007   9.924   1.024   1.592  0.5065 -1.8434  0.5792
  482MOL0     H65008  10.092   1.066   1.567  1.0287 -0.1158 -0.6981
  482MOL0     H65009  10.064   1.176   1.347  0.4457  0.5419 -0.0010
  482MOL0     H65010   9.890   1.114   1.362 -1.6015  2.4619  1.3464
  482MOL0     H65011   9.869   1.310   1.528 -2.0712 -0.7940 -2.6437
  482MOL0     H65012  10.040   1.328   1.533 -2.7457  2.9906  1.8538
  482MOL0     H65013   9.905   1.491   1.398  1.4138 -0.4364  0.7884
  482MOL0     H65014  10.038   1.425   1.302  0.8252 -1.8715 -0.4549
  482MOL0     H65015   9.894   1.268   1.172  1.1194 -1.6808  3.2494
  482MOL0     H65016   9.767   1.302   1.279 -1.4385 -2.8591 -4.6013
  482MOL0     H65017   9.727   1.418   1.072 -0.2712  0.3307  0.4261
  482MOL0     H65018   9.728   1.525   1.205 -1.0096  0.1261 -1.5480
  482MOL0     H65019   9.973   1.483   1.026  0.0388  0.1802 -0.8390
  482MOL0     H65020   9.945   1.605   1.162  0.3012 -1.9322  0.9255
  482MOL0     H65021   9.893   1.581   0.778 -1.1311  1.7641 -3.4976
  482MOL0     H65022   9.712   1.923   0.698  1.5806  0.5040 -0.5387
  482MOL0     H65023   9.804   1.798   0.618 -1.0718  0.0575 -1.3272
  482MOL0     H65024   9.502   1.790   0.685  2.2230  1.8951  2.5322
  482MOL0     H65025   9.583   1.641   0.631  1.4406 -0.0962  2.1074
  482MOL0     H65026   9.603   1.716   0.413 -0.8966  0.2793 -0.1287
  482MOL0     H65027   9.607   1.890   0.464 -1.0041  0.6329 -0.0133
  482MOL0     H65028   9.361   1.885   0.515 -3.4689 -3.0280  1.6617
  482MOL0     H65029   9.358   1.724   0.492 -0.9465  1.3041 -0.9833
  482MOL0     H65030   9.362   1.748   0.071  0.0261  0.3480 -1.0024
  482MOL0     H65031   9.180   1.628  -0.111 -0.4864 -0.2547 -0.7808
  482MOL0     H65032   9.057   1.745  -0.127  0.3967  0.3979  0.1113
  482MOL0     H65033   9.239   1.797  -0.125  1.0409 -0.0066  0.6255
  482MOL0     H65034   8.558   1.833   0.252 -0.4293 -0.9762  0.4547
  482MOL0     H65035   8.327   1.804   0.136 -0.4623 -2.2585 -2.6958
  482MOL0     H65036   8.261   1.916  -0.263  0.8766 -1.0435 -2.0222
  482MOL0     H65037   8.305   1.745  -0.305  2.5554 -0.4418  2.7107
  482MOL0     H65038   8.101   1.672  -0.292  0.0975 -0.1625  0.1152
  482MOL0     H65039   8.046   1.798  -0.176  0.1892 -2.9597  0.4909
  482MOL0     H65040   8.077   1.960  -0.393 -0.3514 -0.8699 -2.7529
  482MOL0     H65041   7.922   1.903  -0.324 -0.4022 -1.3923  0.9514
  482MOL0     H65042   8.089   1.783  -0.554 -1.7678 -1.9739 -1.0251
  482MOL0     H65043   7.957   1.693  -0.494 -2.6267  0.7042  0.1526
  482MOL0     H65044   7.932   1.974  -0.561  0.4658 -0.7869  1.1240
  482MOL0     H65045   7.796   1.852  -0.559  0.2268 -2.6445 -0.7168
  482MOL0     H65046   8.033   1.820  -0.748 -0.2331 -0.6347 -0.8969
  482MOL0     H65047   7.888   1.727  -0.734  1.0614  0.1364 -1.4455
  482MOL0     H65048   7.906   2.028  -0.822 -3.7993  1.5159  4.3035
  482MOL0     H65049   7.766   1.934  -0.813  0.2780  1.2689  0.5009
  482MOL0     H65050   7.991   1.883  -1.002 -0.2925  3.4831  0.1211
  482MOL0     H65051   7.828   1.934  -1.049  0.3917  0.2592 -0.6265
  482MOL0     H65052   8.513   1.861  -0.242  0.2911  0.2272 -0.2203
  482MOL0     H65053   8.725   1.886  -0.140 -1.4022 -1.5619 -2.0329
  482MOL0     H65054   8.934   1.839   0.304 -1.0875 -0.1548 -1.8379
  482MOL0     H65055   9.156   1.857   0.434  1.1218  2.0058 -1.3429
  482MOL0     H65056  10.226   0.638   1.681  0.1978 -0.4670  0.8960
  482MOL0     H65057  10.262   0.395   1.605  2.0342  0.3908 -1.4248
  482MOL0     H65058  10.184   0.050   1.443  0.4683  1.4754 -0.2297
  482MOL0     H65059  10.192  -0.191   1.419 -1.2538  0.1733  0.5197
  482MOL0     H65060  10.168  -0.381   1.379 -2.3045  0.4190 -1.0060
  482MOL0     H65061  10.162  -0.512   1.265  1.2379 -2.1705  1.3731
  482MOL0     H65062  10.359  -0.526   1.394  3.1811  0.9529  0.8677
  482MOL0     H65063  10.399  -0.362   1.346 -2.4440  2.1042 -2.7531
  482MOL0     H65064  10.541  -0.515   1.224 -0.2865 -1.3997  2.2438
  482MOL0     H65065  10.430  -0.437   1.114 -0.7064 -2.1970 -1.1552
  482MOL0     H65066  10.295  -0.611   1.084 -0.5025 -0.5852  1.6279
  482MOL0     H65067  10.379  -0.711   1.212 -0.1066  0.7994  1.5333
  482MOL0     H65068  10.619  -0.699   0.836  2.6122  1.3573  0.0916
  482MOL0     H65069  10.266  -0.153   1.005 -0.5912 -0.5907 -0.0987
  482MOL0     H65070  10.254   0.100   1.018 -0.1058  0.9882  0.7294
  483MOL0     O65071   4.521   6.289  11.264  0.0147  0.0743  0.3196
  483MOL0     C65072   4.409   6.294  11.228  0.4364  0.0587 -1.3785
  483MOL0     O65073   4.302   6.322  11.317  0.0271 -0.2131 -0.2486
  483MOL0     C65074   4.330   6.331  11.451 -0.2781  0.4699  0.3280
  483MOL0     C65075   4.397   6.439  11.504 -1.0218  0.4353  0.0067
  483MOL0     C65076   4.436   6.433  11.641  0.6960  0.4621  1.2792
  483MOL0     C65077   4.405   6.329  11.723  0.3187 -0.1761  0.1305
  483MOL0     O65078   4.471   6.325  11.842 -0.3423 -0.0496 -0.4424
  483MOL0     C65079   4.533   6.202  11.870  0.1302 -0.6707  0.1370
  483MOL0     C65080   4.679   6.231  11.922  0.2255 -0.1645 -0.2867
  483MOL0     C65081   4.740   6.123  12.002 -0.0837  0.3593  1.0581
  483MOL0     C65082   4.653   6.069  12.121  0.0013 -0.4728 -0.1577
  483MOL0     C65083   4.737   5.966  12.216 -0.3071  1.6760 -0.3347
  483MOL0     C65084   4.752   5.835  12.142 -0.1862  0.1052  0.8969
  483MOL0     C65085   4.883   5.764  12.185  0.1258 -0.6238 -0.3815
  483MOL0     C65086   4.875   5.740  12.346 -1.1612 -0.3206  0.3608
  483MOL0     N65087   4.988   5.652  12.389  0.1308  0.8772  0.7434
  483MOL0     C65088   5.022   5.534  12.320  0.0978 -0.2965 -0.7380
  483MOL0     C65089   5.114   5.475  12.404  0.0362  0.0211 -1.3475
  483MOL0     C65090   5.169   5.336  12.395  0.8599  0.5524 -0.1000
  483MOL0     C65091   5.321   5.337  12.370  0.1373 -0.7118  0.1113
  483MOL0     C65092   5.386   5.335  12.507  0.2830  0.0923  0.2568
  483MOL0     C65093   5.522   5.416  12.511 -0.5076 -0.3758  0.2912
  483MOL0     O65094   5.602   5.346  12.412 -0.2877  0.6521  0.3306
  483MOL0     C65095   5.733   5.383  12.390 -0.5588 -0.6353 -0.7005
  483MOL0     C65096   5.809   5.441  12.485 -0.0549  0.4347  0.3882
  483MOL0     C65097   5.939   5.492  12.452 -0.0901  0.9999  0.3437
  483MOL0     C65098   6.014   5.546  12.568  0.2874 -0.3377  0.1962
  483MOL0     C65099   5.989   5.491  12.317 -0.7006 -0.2863 -0.0073
  483MOL0     C65100   6.117   5.539  12.266 -0.8222 -0.6142  0.6395
  483MOL0     O65101   6.164   5.506  12.142  0.1492  0.3876 -0.6673
  483MOL0     C65102   6.303   5.518  12.121  1.1161  1.3758 -1.4815
  483MOL0     C65103   6.394   5.463  12.205 -1.0935  0.2312 -0.2488
  483MOL0     C65104   6.528   5.468  12.174  0.1017  0.2112 -0.1258
  483MOL0     C65105   6.578   5.540  12.061 -0.2660  0.3555  0.2256
  483MOL0     O65106   6.714   5.541  12.043  0.0591  0.6652 -0.1889
  483MOL0     C65107   6.767   5.662  11.996  0.5156 -0.8171 -0.1263
  483MOL0     C65108   6.918   5.662  12.025  0.4700 -0.0176  0.0738
  483MOL0     C65109   7.003   5.585  11.919  0.8737 -0.2434  0.0642
  483MOL0     C65110   7.151   5.577  11.959 -0.5200 -0.3867 -0.1271
  483MOL0     C65111   7.241   5.507  11.854 -0.7078 -0.4720 -0.2041
  483MOL0     C65112   7.382   5.494  11.929 -0.3266  0.1386 -0.0275
  483MOL0     C65113   7.502   5.459  11.845 -0.4281 -0.5680  0.5022
  483MOL0     C65114   7.618   5.412  11.936  0.0976  0.3321  0.5857
  483MOL0    Cl65115   7.574   5.261  12.024  0.2660 -0.4724 -0.2856
  483MOL0     C65116   6.480   5.588  11.968 -0.0428 -0.0032  0.4588
  483MOL0     C65117   6.340   5.583  12.005  0.1008 -0.5544  0.3124
  483MOL0     O65118   6.171   5.612  12.344 -0.4925  0.0064  0.2105
  483MOL0     C65119   5.904   5.433  12.226 -0.8012  0.9457  0.1463
  483MOL0     C65120   5.784   5.372  12.264 -0.4487 -0.1384 -0.1499
  483MOL0     N65121   5.132   5.555  12.516  0.5660  0.1576  0.4556
  483MOL0     N65122   5.059   5.655  12.507 -0.3701  0.6275  0.6472
  483MOL0     C65123   4.333   6.219  11.676  0.1108  0.3777  0.2943
  483MOL0     C65124   4.296   6.230  11.540  0.8807  1.1129 -0.1566
  483MOL0     C65125   4.367   6.278  11.093  0.2524  0.3649  0.1632
  483MOL0     C65126   4.239   6.325  11.047 -1.3179 -0.4979  0.2878
  483MOL0     C65127   4.210   6.327  10.914  1.1103  0.1684  0.2362
  483MOL0     C65128   4.302   6.274  10.823 -0.2084 -0.0776 -0.4217
  483MOL0     O65129   4.256   6.302  10.698 -0.3311 -0.5810 -0.1325
  483MOL0     C65130   4.339   6.266  10.580 -0.1942 -1.2384 -1.1763
  483MOL0     C65131   4.434   6.386  10.546  0.7751  0.6007 -0.5390
  483MOL0     C65132   4.563   6.341  10.480  0.0189 -0.3890  0.5630
  483MOL0     C65133   4.546   6.313  10.329  0.0582 -0.3967 -0.6426
  483MOL0     C65134   4.491   6.419  10.250  0.7104 -0.5373  0.0055
  483MOL0     C65135   4.444   6.508  10.178 -0.0821 -0.4268 -0.5215
  483MOL0     C65136   4.424   6.207  10.867  0.2785 -0.0017  0.5367
  483MOL0     C65137   4.454   6.215  11.000 -0.9265  0.0885 -0.0822
  483MOL0     H65138   4.420   6.523  11.438 -0.5225 -0.2889 -0.7681
  483MOL0     H65139   4.495   6.518  11.673  2.1532 -0.3004  0.6939
  483MOL0     H65140   4.462   6.157  11.941  0.3793  0.4656  1.1478
  483MOL0     H65141   4.537   6.144  11.778  1.1635  0.1282 -0.3454
  483MOL0     H65142   4.739   6.248  11.832 -1.2051 -0.9388 -1.4226
  483MOL0     H65143   4.685   6.325  11.978 -2.0014 -0.4393  0.4871
  483MOL0     H65144   4.776   6.042  11.937  0.9782  2.3978 -1.0643
  483MOL0     H65145   4.832   6.172  12.036  0.8331 -2.0166  2.2242
  483MOL0     H65146   4.630   6.160  12.176 -1.0990  0.4012 -1.9514
  483MOL0     H65147   4.565   6.023  12.075  1.3981 -2.4438 -1.0157
  483MOL0     H65148   4.826   6.008  12.261  0.5864  0.4071 -0.8507
  483MOL0     H65149   4.680   5.944  12.307  1.7224  0.8852  0.8091
  483MOL0     H65150   4.674   5.762  12.163 -0.5003  0.4164  0.8183
  483MOL0     H65151   4.754   5.849  12.034 -0.0925  2.2971  1.1353
  483MOL0     H65152   4.891   5.665  12.138  1.0581  0.1891 -2.0534
  483MOL0     H65153   4.964   5.825  12.144 -0.3871  0.7834  0.6290
  483MOL0     H65154   4.787   5.679  12.368 -1.9035  1.3214  2.2627
  483MOL0     H65155   4.882   5.826  12.414 -1.1184  0.2993 -0.4218
  483MOL0     H65156   4.984   5.489  12.229  0.8610  1.3086 -1.9072
  483MOL0     H65157   5.149   5.277  12.485  0.6183 -0.6266 -0.9114
  483MOL0     H65158   5.125   5.296  12.303  0.0112  0.7773  0.1967
  483MOL0     H65159   5.335   5.425  12.307 -1.5869  0.5167  1.3639
  483MOL0     H65160   5.366   5.251  12.320  0.1126 -2.1150  2.3576
  483MOL0     H65161   5.402   5.235  12.548  2.0358  1.5858  3.5885
  483MOL0     H65162   5.315   5.385  12.574  1.9739  2.6151  0.3216
  483MOL0     H65163   5.561   5.419  12.613 -0.6384 -3.1506  0.4945
  483MOL0     H65164   5.506   5.519  12.478  1.1316  0.0468  0.7424
  483MOL0     H65165   5.768   5.441  12.585 -1.3510 -2.9257 -0.0113
  483MOL0     H65166   6.110   5.495  12.567  0.8536  0.6512 -2.0574
  483MOL0     H65167   6.024   5.655  12.565 -2.0660  0.0060  1.7218
  483MOL0     H65168   5.961   5.538  12.663  0.4082 -1.5665  0.1804
  483MOL0     H65169   6.367   5.383  12.272 -2.9673  0.7058 -0.3908
  483MOL0     H65170   6.600   5.414  12.235  0.8402  2.0861  0.7250
  483MOL0     H65171   6.746   5.661  11.888 -4.2307  0.6690  0.5445
  483MOL0     H65172   6.711   5.748  12.034  1.2856  0.6406 -2.0688
  483MOL0     H65173   6.942   5.769  12.026  0.7336 -0.0510 -1.1029
  483MOL0     H65174   6.935   5.619  12.123 -0.9067  0.6397  0.6377
  483MOL0     H65175   7.003   5.647  11.829  3.4028 -2.0872 -1.3468
  483MOL0     H65176   6.958   5.489  11.892 -1.9242  0.6721  1.1485
  483MOL0     H65177   7.197   5.672  11.987  3.4673 -1.6219 -1.7657
  483MOL0     H65178   7.161   5.506  12.042  0.9547 -1.1271 -0.8929
  483MOL0     H65179   7.259   5.559  11.759  0.3107 -0.1764  0.1347
  483MOL0     H65180   7.204   5.407  11.830 -1.1675 -0.0511 -1.3167
  483MOL0     H65181   7.395   5.588  11.984  0.3989 -0.5003  0.9285
  483MOL0     H65182   7.368   5.425  12.012  0.4994  1.3469  1.1735
  483MOL0     H65183   7.543   5.555  11.812  1.8202 -0.5711  3.0205
  483MOL0     H65184   7.489   5.384  11.766  2.4936 -0.3259 -0.3227
  483MOL0     H65185   7.641   5.485  12.014 -1.2648  0.5883  0.7694
  483MOL0     H65186   7.709   5.391  11.879 -0.9323 -1.7619 -0.3793
  483MOL0     H65187   6.522   5.635  11.880 -0.1327 -0.1913  0.3133
  483MOL0     H65188   6.254   5.607  11.943  2.0777 -1.9636 -3.2798
  483MOL0     H65189   5.936   5.402  12.126 -0.4057 -0.4322  0.6764
  483MOL0     H65190   5.729   5.319  12.187 -0.2179 -0.7922  0.1320
  483MOL0     H65191   4.295   6.147  11.748 -1.2875  4.3017  3.9425
  483MOL0     H65192   4.241   6.148  11.495  2.7713 -0.4663  0.3095
  483MOL0     H65193   4.170   6.376  11.113 -0.7403  1.4034 -0.4939
  483MOL0     H65194   4.114   6.369  10.887  1.9770  0.5742 -2.4887
  483MOL0     H65195   4.393   6.176  10.613  1.4463  1.1374  3.4825
  483MOL0     H65196   4.267   6.239  10.502 -2.5649  1.0562  0.0650
  483MOL0     H65197   4.450   6.439  10.639  1.3324 -0.6154  0.0862
  483MOL0     H65198   4.381   6.454  10.479  2.7042  0.1852 -2.6172
  483MOL0     H65199   4.597   6.253  10.536  1.8895  0.1306  0.3146
  483MOL0     H65200   4.640   6.418  10.495  2.3426 -2.7866  1.7275
  483MOL0     H65201   4.497   6.218  10.304  1.8663 -1.7069  0.5403
  483MOL0     H65202   4.647   6.296  10.290  0.6728  0.1635  0.6390
  483MOL0     H65203   4.401   6.589  10.123  1.9579 -0.4492 -2.2739
  483MOL0     H65204   4.496   6.166  10.796  0.5745  3.5648 -1.4655
  483MOL0     H65205   4.551   6.175  11.027  1.6043  3.6360 -3.0496
  484MOL0     O65206   4.966   1.539  10.801 -0.1864  0.3908 -0.4255
  484MOL0     C65207   4.974   1.659  10.819 -0.6583 -0.2038 -1.0476
  484MOL0     O65208   4.876   1.745  10.839  0.1467 -0.0205 -0.0966
  484MOL0     C65209   4.751   1.691  10.871 -0.0305  0.1734 -0.0611
  484MOL0     C65210   4.642   1.728  10.792  0.0670  1.2523 -0.0199
  484MOL0     C65211   4.519   1.669  10.809  0.5167  1.1441 -0.4261
  484MOL0     C65212   4.496   1.570  10.912  0.0051 -0.0228  0.0260
  484MOL0     O65213   4.368   1.520  10.933 -0.0007  0.3375  0.0802
  484MOL0     C65214   4.301   1.571  11.049 -0.7850  0.5855  0.2357
  484MOL0     C65215   4.267   1.447  11.135  0.4983 -0.1012  1.5188
  484MOL0     C65216   4.171   1.479  11.248 -0.1118  0.3375 -0.5922
  484MOL0     C65217   4.025   1.418  11.241 -0.7749 -0.4931  0.3618
  484MOL0     C65218   4.030   1.270  11.278 -0.0360 -0.0294 -0.0480
  484MOL0     C65219   3.883   1.211  11.285 -0.4986  0.2984 -0.9679
  484MOL0     C65220   3.889   1.067  11.317  0.4112  0.2177  0.6360
  484MOL0     C65221   3.930   1.049  11.466 -0.3026 -0.4963  0.6967
  484MOL0     N65222   3.808   1.019  11.547  0.4723 -0.0338  0.4501
  484MOL0     C65223   3.748   1.125  11.616  0.6425  0.5310 -0.4345
  484MOL0     C65224   3.623   1.081  11.639 -0.6863  0.3323  1.1135
  484MOL0     C65225   3.516   1.164  11.704 -0.4920  0.0683 -0.3343
  484MOL0     C65226   3.460   1.268  11.603 -0.7541 -0.2862 -0.7094
  484MOL0     C65227   3.343   1.206  11.530  0.2156  0.5986 -0.7448
  484MOL0     C65228   3.233   1.168  11.616 -0.7761  0.9140 -0.6660
  484MOL0     O65229   3.193   1.285  11.676  0.7273 -0.5170 -0.5657
  484MOL0     C65230   3.089   1.269  11.758  0.4334 -0.0505 -0.1368
  484MOL0     C65231   2.956   1.245  11.711  0.2592  0.3728  1.1095
  484MOL0     C65232   2.848   1.225  11.798 -0.7107  0.3293  0.5918
  484MOL0     C65233   2.714   1.197  11.732  0.6616  0.1319 -0.8397
  484MOL0     C65234   2.871   1.243  11.935 -0.6225 -1.0626 -0.5533
  484MOL0     C65235   2.762   1.203  12.034  0.8746  0.0289  0.2177
  484MOL0     O65236   2.690   1.098  11.998 -0.3985  0.4581  0.6362
  484MOL0     C65237   2.628   1.025  12.088 -0.1380 -0.2207 -0.4269
  484MOL0     C65238   2.497   1.002  12.069  0.2017 -0.0674 -0.3895
  484MOL0     C65239   2.435   0.914  12.155  0.2666 -0.9803  0.4046
  484MOL0     C65240   2.504   0.857  12.267  0.4720 -0.3625  0.2956
  484MOL0     O65241   2.450   0.774  12.362  0.0512 -0.4538  0.1436
  484MOL0     C65242   2.318   0.725  12.333 -0.0363  0.3255  0.5732
  484MOL0     C65243   2.279   0.634  12.456 -0.3164 -0.5282  0.3492
  484MOL0     C65244   2.393   0.559  12.508 -0.6009  0.3838 -0.7365
  484MOL0     C65245   2.355   0.447  12.606 -0.1821 -0.2326 -0.9693
  484MOL0     C65246   2.474   0.402  12.701  0.1878 -0.2134  0.5459
  484MOL0     C65247   2.603   0.348  12.634 -0.3013  0.2325 -0.2687
  484MOL0     C65248   2.566   0.229  12.540  0.6021 -0.1285  0.5848
  484MOL0     C65249   2.684   0.154  12.461  0.0924 -0.8228 -0.0303
  484MOL0    Cl65250   2.768   0.052  12.588  0.1100 -0.0006 -0.1898
  484MOL0     C65251   2.638   0.887  12.280 -0.1108  0.8600 -0.8250
  484MOL0     C65252   2.702   0.967  12.188  0.0936  0.5438 -0.0947
  484MOL0     O65253   2.741   1.282  12.132 -0.3506  0.2720 -0.2209
  484MOL0     C65254   2.997   1.287  11.975 -0.2783  0.5559 -0.3495
  484MOL0     C65255   3.107   1.286  11.896 -0.2341  0.6000 -0.6863
  484MOL0     N65256   3.606   0.951  11.592 -0.0428  0.4725  0.0158
  484MOL0     N65257   3.719   0.915  11.536 -0.8556  0.5073  0.5342
  484MOL0     C65258   4.604   1.537  11.003  0.2459 -0.4583  0.4623
  484MOL0     C65259   4.730   1.597  10.974 -0.1723 -0.3934 -0.3254
  484MOL0     C65260   5.108   1.714  10.828 -0.9216  0.0675 -0.8288
  484MOL0     C65261   5.132   1.850  10.847 -0.8249  0.1074 -0.1011
  484MOL0     C65262   5.269   1.898  10.836  0.9053 -0.1356  0.0918
  484MOL0     C65263   5.371   1.817  10.831  0.5524 -0.0733 -0.0929
  484MOL0     O65264   5.494   1.877  10.836 -0.2740  0.3660 -0.2435
  484MOL0     C65265   5.607   1.790  10.834 -0.0984 -0.2114 -0.2274
  484MOL0     C65266   5.729   1.875  10.848  0.2764  0.1301  0.3999
  484MOL0     C65267   5.747   1.998  10.755  0.8551  0.5810 -0.7560
  484MOL0     C65268   5.760   1.961  10.601  0.2137 -0.3834 -0.1909
  484MOL0     C65269   5.899   1.938  10.566 -0.4754 -0.1421 -0.2265
  484MOL0     C65270   6.014   1.928  10.537 -0.7118 -0.0300  0.3806
  484MOL0     C65271   5.354   1.676  10.812 -0.5683 -0.1027 -0.1149
  484MOL0     C65272   5.226   1.628  10.815  0.4745 -0.7507  0.8714
  484MOL0     H65273   4.631   1.798  10.710 -3.5803  0.8172 -0.0842
  484MOL0     H65274   4.440   1.700  10.741 -0.9117 -0.7870  0.2676
  484MOL0     H65275   4.373   1.637  11.097  2.7117  0.5638 -4.3456
  484MOL0     H65276   4.211   1.626  11.019  0.3681  1.3476 -1.9808
  484MOL0     H65277   4.216   1.377  11.069 -1.9534  2.7640  0.1236
  484MOL0     H65278   4.360   1.412  11.181  1.4571  3.3803  2.5633
  484MOL0     H65279   4.230   1.445  11.333 -0.2116  1.6710  0.0396
  484MOL0     H65280   4.149   1.585  11.266 -1.7647 -0.3835  2.2047
  484MOL0     H65281   3.951   1.464  11.307  1.8477  2.7007  1.2965
  484MOL0     H65282   3.994   1.434  11.138 -0.4451 -2.5517 -0.1118
  484MOL0     H65283   4.089   1.206  11.212  0.6059  0.8463 -0.3466
  484MOL0     H65284   4.078   1.276  11.376 -1.9278  1.9903  0.8544
  484MOL0     H65285   3.824   1.248  11.370 -1.9734 -0.8951 -1.4383
  484MOL0     H65286   3.835   1.229  11.189 -0.4239  2.0978 -0.7064
  484MOL0     H65287   3.785   1.037  11.296 -0.3612  3.4155 -0.7765
  484MOL0     H65288   3.956   1.009  11.253  1.5171 -1.2954  3.0286
  484MOL0     H65289   3.987   1.137  11.498 -0.9341 -0.2116  1.0449
  484MOL0     H65290   3.989   0.957  11.465 -2.3815 -1.8955  0.0414
  484MOL0     H65291   3.772   1.230  11.626  1.0656  0.2520  2.2152
  484MOL0     H65292   3.447   1.094  11.751 -0.7068 -0.2091 -1.0456
  484MOL0     H65293   3.559   1.224  11.784 -0.0161  0.0940 -0.6030
  484MOL0     H65294   3.533   1.310  11.533  1.0298  1.7394  2.1683
  484MOL0     H65295   3.432   1.360  11.655 -0.7456 -0.6907  0.0164
  484MOL0     H65296   3.369   1.118  11.469 -2.9579 -0.8591 -0.2306
  484MOL0     H65297   3.298   1.264  11.449 -0.8102 -0.2782 -0.8279
  484MOL0     H65298   3.268   1.094  11.689 -1.6967  0.6754 -0.4528
  484MOL0     H65299   3.159   1.127  11.547 -1.1333 -1.6195  1.0668
  484MOL0     H65300   2.947   1.237  11.604  1.1304  2.8547  0.7862
  484MOL0     H65301   2.707   1.248  11.635 -1.8511  1.7904  0.1035
  484MOL0     H65302   2.684   1.092  11.727 -2.1454  0.8552 -0.8400
  484MOL0     H65303   2.647   1.257  11.794  2.3244  1.1638  0.0383
  484MOL0     H65304   2.437   1.046  11.989  0.6641 -0.0866 -0.7503
  484MOL0     H65305   2.330   0.903  12.131 -0.1380  0.6901  1.2201
  484MOL0     H65306   2.252   0.812  12.344 -0.8685 -0.2078 -0.1330
  484MOL0     H65307   2.296   0.681  12.235 -0.9570  0.3578  0.7586
  484MOL0     H65308   2.256   0.705  12.536 -1.1409 -0.0855 -0.2526
  484MOL0     H65309   2.192   0.573  12.429 -0.8839  0.9266 -1.3211
  484MOL0     H65310   2.473   0.618  12.554  1.6801 -2.3747 -0.8529
  484MOL0     H65311   2.447   0.507  12.429  0.0523  0.6173 -0.4547
  484MOL0     H65312   2.283   0.487  12.679  0.3170 -2.0142  0.5904
  484MOL0     H65313   2.318   0.361  12.549  1.3469 -2.0363  0.6284
  484MOL0     H65314   2.431   0.327  12.768 -1.0134 -2.0185 -2.0781
  484MOL0     H65315   2.497   0.491  12.761 -3.1749  2.8132 -2.1970
  484MOL0     H65316   2.648   0.431  12.579  1.4918 -0.9053 -0.6214
  484MOL0     H65317   2.672   0.312  12.711  0.1343  2.4275  0.4388
  484MOL0     H65318   2.505   0.266  12.457 -1.0506  0.7201  2.1152
  484MOL0     H65319   2.497   0.158  12.587 -0.2165 -0.5575 -1.1557
  484MOL0     H65320   2.753   0.236  12.441  2.2258 -1.0768  4.7566
  484MOL0     H65321   2.653   0.097  12.374 -0.9762 -1.5306  0.7802
  484MOL0     H65322   2.684   0.836  12.365 -0.2235  1.7425 -0.2225
  484MOL0     H65323   2.809   0.980  12.195 -0.2925  3.7936  1.8726
  484MOL0     H65324   3.017   1.322  12.076  0.5071 -1.1392  0.1222
  484MOL0     H65325   3.200   1.322  11.939  0.4007 -1.6733 -0.0469
  484MOL0     H65326   4.594   1.467  11.086 -0.9473 -0.4040  0.3753
  484MOL0     H65327   4.820   1.572  11.028  0.2552  1.7969  0.0791
  484MOL0     H65328   5.058   1.928  10.862  0.5284  1.6886 -1.3607
  484MOL0     H65329   5.301   2.001  10.838  0.1647  0.0980  0.4985
  484MOL0     H65330   5.604   1.733  10.927  1.9303 -0.9769 -0.5976
  484MOL0     H65331   5.613   1.730  10.743 -0.8460  0.5954 -0.8317
  484MOL0     H65332   5.825   1.824  10.843  1.1851  1.8369 -0.4146
  484MOL0     H65333   5.727   1.915  10.950  0.2804  0.4631  0.2726
  484MOL0     H65334   5.839   2.051  10.783 -0.5185  2.5788  0.1963
  484MOL0     H65335   5.667   2.071  10.771 -0.7711 -1.1526 -0.7424
  484MOL0     H65336   5.733   2.048  10.541 -2.5161 -2.0367 -1.5354
  484MOL0     H65337   5.702   1.875  10.567  0.0804 -0.8282  1.0936
  484MOL0     H65338   6.119   1.918  10.515 -1.2528 -0.4711 -2.2907
  484MOL0     H65339   5.438   1.611  10.790 -0.2568 -0.7521  2.5897
  484MOL0     H65340   5.217   1.521  10.798 -3.2336 -0.1172 -2.6923
  485MOL0     O65341   1.895   8.519   2.789  0.0624 -0.1060  0.6023
  485MOL0     C65342   1.831   8.542   2.682 -0.1440 -0.4036  0.1513
  485MOL0     O65343   1.880   8.602   2.568  1.4073  0.0356  0.1604
  485MOL0     C65344   2.011   8.627   2.541 -0.1940 -0.2900 -0.0063
  485MOL0     C65345   2.044   8.674   2.414  0.0957 -0.3598  0.2783
  485MOL0     C65346   2.176   8.690   2.368  0.1014  0.2971  0.0201
  485MOL0     C65347   2.282   8.672   2.454 -0.0153  0.5807  0.1488
  485MOL0     O65348   2.413   8.679   2.413  0.3083 -0.5789 -0.5383
  485MOL0     C65349   2.454   8.767   2.302 -0.5850  0.3136 -0.9582
  485MOL0     C65350   2.603   8.816   2.321 -0.0698 -0.4576  0.7723
  485MOL0     C65351   2.646   8.888   2.186  0.1828 -0.0712 -0.5713
  485MOL0     C65352   2.636   8.804   2.054 -0.4940 -0.3179  0.9151
  485MOL0     C65353   2.700   8.878   1.933 -0.6161  0.1312  0.2920
  485MOL0     C65354   2.702   8.802   1.798 -0.4293 -1.1550 -0.9666
  485MOL0     C65355   2.781   8.871   1.691  0.3469 -0.1121 -0.2680
  485MOL0     C65356   2.930   8.878   1.711  1.0643  0.7021 -1.0447
  485MOL0     N65357   3.001   8.886   1.588 -0.0145  0.5736  0.3606
  485MOL0     C65358   2.986   8.982   1.488  1.1535  1.0341 -0.1571
  485MOL0     C65359   3.069   8.946   1.390 -1.3555 -0.4879 -0.2314
  485MOL0     C65360   3.089   9.000   1.247 -0.6617 -0.4869  1.0808
  485MOL0     C65361   3.012   9.135   1.220  0.0053 -0.2124  0.7087
  485MOL0     C65362   3.065   9.262   1.300 -0.4550 -0.7473  0.1345
  485MOL0     C65363   3.217   9.273   1.299  0.4796 -0.0104 -0.3192
  485MOL0     O65364   3.263   9.195   1.405  1.2541  0.0879  0.1076
  485MOL0     C65365   3.399   9.195   1.415 -0.2726  0.8959 -0.5732
  485MOL0     C65366   3.486   9.300   1.407  0.2391  0.3615  0.4200
  485MOL0     C65367   3.621   9.283   1.403  0.1055  0.0176  0.4518
  485MOL0     C65368   3.711   9.402   1.383 -0.9987  0.3422 -0.4896
  485MOL0     C65369   3.676   9.154   1.400  0.2149 -0.1133 -0.4745
  485MOL0     C65370   3.824   9.111   1.389  0.0122  0.6689  0.0250
  485MOL0     O65371   3.906   9.205   1.433 -0.6389 -0.4268  0.1282
  485MOL0     C65372   4.041   9.191   1.395 -0.3090 -0.5093 -0.7699
  485MOL0     C65373   4.086   9.263   1.284 -0.1593  0.2059 -0.7179
  485MOL0     C65374   4.226   9.263   1.251  0.2489  1.3972 -0.9307
  485MOL0     C65375   4.322   9.200   1.332  0.5217  0.0422 -0.3289
  485MOL0     O65376   4.450   9.199   1.290  0.6400 -0.3799 -0.0673
  485MOL0     C65377   4.551   9.118   1.344  0.4256 -1.2538 -0.4162
  485MOL0     C65378   4.675   9.101   1.250  0.3920 -0.0298 -1.0004
  485MOL0     C65379   4.744   9.221   1.202 -0.1917 -0.3540 -1.0494
  485MOL0     C65380   4.837   9.194   1.086  0.1343 -0.2433  0.6368
  485MOL0     C65381   4.924   9.308   1.040 -0.5451 -0.1422 -0.4701
  485MOL0     C65382   5.068   9.262   0.986 -0.1843  0.0562  0.3943
  485MOL0     C65383   5.133   9.367   0.911 -1.0840 -0.0517  0.5449
  485MOL0     C65384   5.168   9.494   0.991  0.4032 -0.2474  0.1622
  485MOL0    Cl65385   5.296   9.581   0.893 -0.1862 -0.4120 -0.5085
  485MOL0     C65386   4.279   9.134   1.447  0.1807 -0.2600  0.0377
  485MOL0     C65387   4.136   9.129   1.474 -0.0531  0.0564 -0.4185
  485MOL0     O65388   3.854   8.999   1.363  0.2610 -0.3132 -0.2748
  485MOL0     C65389   3.589   9.048   1.406  0.7668  0.0382 -0.1877
  485MOL0     C65390   3.448   9.076   1.418 -0.1810  0.0633 -0.6134
  485MOL0     N65391   3.123   8.825   1.434  0.1186 -0.1943  0.6046
  485MOL0     N65392   3.069   8.785   1.548  0.1846  0.0781 -0.1366
  485MOL0     C65393   2.252   8.632   2.590  0.5855 -0.4319 -0.0096
  485MOL0     C65394   2.119   8.609   2.628  0.7946  0.1382 -0.4168
  485MOL0     C65395   1.680   8.504   2.679 -0.6660 -1.1917  0.1708
  485MOL0     C65396   1.593   8.549   2.578 -0.0150  0.0703  0.1274
  485MOL0     C65397   1.452   8.531   2.581 -0.5472 -0.8361 -0.2475
  485MOL0     C65398   1.394   8.466   2.690  0.5936 -0.4828 -0.3185
  485MOL0     O65399   1.254   8.448   2.692 -1.2342 -0.0140  0.2605
  485MOL0     C65400   1.222   8.320   2.645 -0.0221  0.7982 -0.5204
  485MOL0     C65401   1.083   8.289   2.664  0.2539  0.2981 -0.5008
  485MOL0     C65402   1.064   8.246   2.811  0.3407  0.2440  0.6627
  485MOL0     C65403   0.918   8.281   2.858  0.4785  0.3017 -0.9977
  485MOL0     C65404   0.811   8.193   2.801 -0.0082  0.9734 -0.4046
  485MOL0     C65405   0.722   8.116   2.758 -0.6928 -0.2135  0.3888
  485MOL0     C65406   1.479   8.429   2.795 -0.0552  0.2614 -0.2586
  485MOL0     C65407   1.621   8.445   2.791  0.1824 -0.0561  0.5831
  485MOL0     H65408   1.963   8.706   2.349  0.5195  0.4077  0.1077
  485MOL0     H65409   2.194   8.702   2.261 -1.0706 -1.8818 -0.5027
  485MOL0     H65410   2.435   8.709   2.211  1.7654 -3.0499  0.4693
  485MOL0     H65411   2.390   8.856   2.303 -0.2681  0.5552  0.3433
  485MOL0     H65412   2.608   8.882   2.408 -0.7025 -2.1995  2.1938
  485MOL0     H65413   2.661   8.727   2.345  3.6045  1.2242 -0.9940
  485MOL0     H65414   2.586   8.978   2.173  0.6155  0.4426  0.8319
  485MOL0     H65415   2.751   8.913   2.204  0.2876  1.3531 -2.8564
  485MOL0     H65416   2.684   8.706   2.064  0.0058  0.1052  3.4575
  485MOL0     H65417   2.533   8.778   2.031 -0.8318 -0.3201  2.2965
  485MOL0     H65418   2.654   8.976   1.919 -0.4385 -0.0327 -1.8507
  485MOL0     H65419   2.808   8.885   1.950 -0.0778 -2.7684 -1.3293
  485MOL0     H65420   2.741   8.702   1.818 -1.0087 -1.7156 -2.5326
  485MOL0     H65421   2.603   8.805   1.752 -0.4562 -1.8096 -0.9492
  485MOL0     H65422   2.764   8.831   1.591 -1.9380  1.1544 -0.4310
  485MOL0     H65423   2.745   8.974   1.686  0.1748 -0.2303 -2.8112
  485MOL0     H65424   2.952   8.796   1.780 -3.7172 -1.1679 -1.3739
  485MOL0     H65425   2.938   8.971   1.768 -1.6276 -1.5443  3.6281
  485MOL0     H65426   2.919   9.066   1.479 -2.1623 -1.5375 -1.4081
  485MOL0     H65427   3.198   8.999   1.239 -0.4533 -3.0939  2.9955
  485MOL0     H65428   3.047   8.918   1.189  1.1781 -2.1299  1.9578
  485MOL0     H65429   2.906   9.115   1.236 -0.2553 -0.2926 -0.9648
  485MOL0     H65430   3.021   9.165   1.115  2.0735  0.0969  0.9244
  485MOL0     H65431   3.029   9.276   1.402  0.2454 -2.9674  0.7228
  485MOL0     H65432   3.024   9.348   1.245  2.3031  0.4481 -0.2069
  485MOL0     H65433   3.247   9.375   1.324  2.2388 -0.7752  0.8805
  485MOL0     H65434   3.254   9.242   1.200  4.8950 -2.8454  1.9245
  485MOL0     H65435   3.450   9.402   1.409  0.6167  0.4891  0.8727
  485MOL0     H65436   3.650   9.492   1.384  0.9814  1.7534  0.2287
  485MOL0     H65437   3.798   9.416   1.448  0.2776 -0.6667 -1.8926
  485MOL0     H65438   3.767   9.388   1.290  0.3125  1.3485  0.1090
  485MOL0     H65439   4.019   9.308   1.212 -0.9548  0.6425  0.2715
  485MOL0     H65440   4.267   9.313   1.164  2.1392  3.5346  1.0580
  485MOL0     H65441   4.572   9.170   1.438 -0.6571  1.8699 -1.7604
  485MOL0     H65442   4.506   9.022   1.372 -2.5468 -0.0836 -0.7991
  485MOL0     H65443   4.754   9.038   1.294  1.1044 -1.4347 -3.9699
  485MOL0     H65444   4.638   9.023   1.182  1.5469 -2.2059  0.7365
  485MOL0     H65445   4.800   9.272   1.281  0.0693 -0.5251 -1.1221
  485MOL0     H65446   4.679   9.299   1.162 -2.0248 -1.0051  0.5608
  485MOL0     H65447   4.908   9.115   1.113  0.5051 -0.9368 -2.0667
  485MOL0     H65448   4.784   9.158   0.997 -0.6720  1.8378  0.2279
  485MOL0     H65449   4.941   9.388   1.113 -3.5158  0.0230  0.1881
  485MOL0     H65450   4.873   9.358   0.957 -1.5405  0.5944  0.5460
  485MOL0     H65451   5.136   9.239   1.068  0.2551 -0.8245 -0.1980
  485MOL0     H65452   5.039   9.175   0.926 -0.4302  1.0107 -0.9262
  485MOL0     H65453   5.083   9.391   0.816  2.5020  1.4424 -1.1508
  485MOL0     H65454   5.228   9.328   0.873 -1.3180  0.4391 -0.6095
  485MOL0     H65455   5.214   9.460   1.085  3.1474  2.3794 -0.0556
  485MOL0     H65456   5.076   9.551   0.998 -2.2810 -3.5018 -3.8883
  485MOL0     H65457   4.336   9.084   1.524  0.5657  0.4381  0.2097
  485MOL0     H65458   4.122   9.093   1.576  1.5724 -0.0705 -0.2056
  485MOL0     H65459   3.624   8.947   1.390  0.8451  0.3163 -1.8787
  485MOL0     H65460   3.386   8.987   1.411 -0.8698  0.6928 -3.8527
  485MOL0     H65461   2.328   8.605   2.663  0.2924 -3.7183 -0.7591
  485MOL0     H65462   2.117   8.568   2.729 -2.9879  0.7289 -0.1105
  485MOL0     H65463   1.634   8.582   2.483  1.9566  0.5080  1.0828
  485MOL0     H65464   1.395   8.556   2.492  0.8048 -0.7830 -1.1204
  485MOL0     H65465   1.254   8.310   2.541  0.4405  0.2409 -0.3287
  485MOL0     H65466   1.278   8.246   2.702  1.1811  1.7210 -0.4569
  485MOL0     H65467   1.057   8.209   2.594 -0.3918 -0.0666  0.1407
  485MOL0     H65468   1.020   8.373   2.633 -0.9130 -0.6240 -0.7122
  485MOL0     H65469   1.139   8.294   2.874 -1.2049 -0.3034  3.0614
  485MOL0     H65470   1.082   8.141   2.838 -0.2217 -0.5435 -1.7412
  485MOL0     H65471   0.905   8.379   2.812  0.9824  0.4436 -0.8428
  485MOL0     H65472   0.914   8.286   2.967  3.4891 -0.1383 -0.7849
  485MOL0     H65473   0.646   8.056   2.711  0.3425 -1.3809  0.1730
  485MOL0     H65474   1.435   8.394   2.888 -0.3897  1.5599  0.0833
  485MOL0     H65475   1.671   8.422   2.885 -1.1254  0.2909  1.3949
  486MOL0     O65476   6.950   6.413   6.526  0.7240  0.5958  0.3193
  486MOL0     C65477   6.901   6.476   6.617 -0.1723  0.0292  0.3023
  486MOL0     O65478   6.948   6.586   6.671  0.6287 -0.5035 -0.1670
  486MOL0     C65479   7.061   6.647   6.617  0.5030  0.9738  1.0505
  486MOL0     C65480   7.050   6.695   6.487 -0.3298  0.2917  0.1581
  486MOL0     C65481   7.166   6.754   6.423  0.6103  0.0018  0.4600
  486MOL0     C65482   7.289   6.763   6.492 -0.0196 -0.1937  0.5918
  486MOL0     O65483   7.396   6.822   6.440 -0.2075  0.0427 -0.6441
  486MOL0     C65484   7.404   6.967   6.461  0.4671  1.3536 -0.6560
  486MOL0     C65485   7.437   7.042   6.337  0.1544  0.3916 -0.2228
  486MOL0     C65486   7.377   6.984   6.207 -0.1790  0.4711  0.0465
  486MOL0     C65487   7.432   7.048   6.078  0.5497 -0.1587  0.2655
  486MOL0     C65488   7.382   7.008   5.942  0.5184  0.7569  0.0711
  486MOL0     C65489   7.468   6.898   5.888 -0.5063  0.1853 -0.2035
  486MOL0     C65490   7.396   6.816   5.774  0.1955 -0.1899 -0.3377
  486MOL0     C65491   7.488   6.714   5.723  0.1255  0.1687  0.4134
  486MOL0     N65492   7.599   6.786   5.660 -0.2287 -0.4978  0.0448
  486MOL0     C65493   7.586   6.877   5.557  0.1717  0.0799  0.0133
  486MOL0     C65494   7.712   6.894   5.519  0.0924 -0.1271  0.1674
  486MOL0     C65495   7.776   6.970   5.407  0.4442  0.5809 -0.4978
  486MOL0     C65496   7.830   6.901   5.289 -0.3827  0.2311 -0.4586
  486MOL0     C65497   7.938   6.794   5.324 -0.5856 -0.1708 -0.3310
  486MOL0     C65498   7.969   6.684   5.219 -0.0440  0.4773  0.5429
  486MOL0     O65499   8.094   6.620   5.242  0.3386 -0.1281 -0.3918
  486MOL0     C65500   8.138   6.529   5.157 -0.0153  0.2357 -0.5067
  486MOL0     C65501   8.274   6.509   5.139 -0.4219  0.6660 -0.1403
  486MOL0     C65502   8.335   6.419   5.053 -1.0814 -0.2799 -0.1709
  486MOL0     C65503   8.484   6.426   5.056  0.5848  0.3944 -0.1111
  486MOL0     C65504   8.252   6.344   4.965  0.0591 -0.9449 -0.4872
  486MOL0     C65505   8.300   6.253   4.860  0.1509 -0.3669  0.0153
  486MOL0     O65506   8.437   6.242   4.848 -0.5765 -0.2903 -0.0676
  486MOL0     C65507   8.477   6.182   4.732  0.5125 -0.9655  0.6552
  486MOL0     C65508   8.530   6.051   4.738 -0.8573  0.1604 -0.3993
  486MOL0     C65509   8.567   5.993   4.617 -0.2516  0.3403  0.7887
  486MOL0     C65510   8.569   6.059   4.492 -0.2671 -0.1458  0.0678
  486MOL0     O65511   8.620   5.997   4.377  0.1257 -0.0186 -0.2058
  486MOL0     C65512   8.686   6.068   4.267 -0.2711 -0.4377  0.3954
  486MOL0     C65513   8.814   6.120   4.321  0.0243  0.5991  0.3807
  486MOL0     C65514   8.929   6.027   4.278 -0.5430  0.3092  0.1507
  486MOL0     C65515   8.917   5.876   4.308 -0.5731 -0.9850  0.2910
  486MOL0     C65516   9.049   5.799   4.295 -0.1227 -0.5732  0.7619
  486MOL0     C65517   9.080   5.778   4.148  0.1680  0.0119  0.5477
  486MOL0     C65518   9.194   5.669   4.139  0.0623 -0.8132  0.4774
  486MOL0     C65519   9.224   5.630   3.996  0.1517  0.4979 -0.3584
  486MOL0    Cl65520   9.330   5.750   3.934  0.1246  0.2745 -0.1287
  486MOL0     C65521   8.521   6.191   4.491 -0.1172 -0.3052 -0.3636
  486MOL0     C65522   8.474   6.252   4.613 -0.0894 -0.0217 -0.0473
  486MOL0     O65523   8.222   6.199   4.780  0.3850 -0.6806  0.1143
  486MOL0     C65524   8.114   6.349   4.995  0.1577  0.2330 -0.4650
  486MOL0     C65525   8.056   6.440   5.086 -0.3568  0.0347  0.7045
  486MOL0     N65526   7.792   6.822   5.602 -0.1236 -0.3561 -0.7084
  486MOL0     N65527   7.731   6.752   5.690  0.7835  0.0573  0.4908
  486MOL0     C65528   7.303   6.710   6.614 -0.3625 -0.3458 -0.5230
  486MOL0     C65529   7.191   6.654   6.674 -0.9335 -0.1581  0.4356
  486MOL0     C65530   6.780   6.439   6.678 -0.1484  0.5285 -0.4705
  486MOL0     C65531   6.747   6.302   6.694  0.3434 -0.3290 -0.2541
  486MOL0     C65532   6.625   6.258   6.750 -0.2909 -0.2091  1.0564
  486MOL0     C65533   6.539   6.350   6.807 -0.7341 -0.3561 -1.1679
  486MOL0     O65534   6.420   6.301   6.858 -0.4421 -0.5374 -0.4345
  486MOL0     C65535   6.308   6.389   6.905 -0.3695  0.4048  0.0930
  486MOL0     C65536   6.182   6.316   6.889 -0.6104  0.3694 -0.4395
  486MOL0     C65537   6.149   6.276   6.741 -0.2288  0.0988 -0.6575
  486MOL0     C65538   6.124   6.396   6.648 -0.1593  0.1313 -0.6277
  486MOL0     C65539   6.009   6.471   6.703  0.9342  0.5218 -0.1971
  486MOL0     C65540   5.905   6.503   6.764 -0.2874  0.5243 -0.4771
  486MOL0     C65541   6.573   6.486   6.802  0.6119  0.2680  0.8594
  486MOL0     C65542   6.687   6.532   6.732 -0.0014 -0.2280  1.0829
  486MOL0     H65543   6.960   6.704   6.427  0.4443  0.6377 -0.9716
  486MOL0     H65544   7.170   6.789   6.321  1.2226  0.3781  0.6103
  486MOL0     H65545   7.303   6.998   6.488  0.7510  1.1049  0.8300
  486MOL0     H65546   7.476   6.988   6.541  0.7637 -2.0749  0.1338
  486MOL0     H65547   7.405   7.146   6.352 -1.2710 -0.0216 -0.2546
  486MOL0     H65548   7.545   7.042   6.319  0.5978 -1.4615  1.9875
  486MOL0     H65549   7.385   6.876   6.195 -1.8550  0.4283 -1.1290
  486MOL0     H65550   7.269   7.000   6.198 -0.3052 -0.7909 -1.0563
  486MOL0     H65551   7.415   7.156   6.083  0.7873 -0.1139  0.0968
  486MOL0     H65552   7.540   7.039   6.091  0.7175 -3.9701 -2.0802
  486MOL0     H65553   7.283   6.964   5.957  1.3969 -1.2599  0.3124
  486MOL0     H65554   7.358   7.097   5.884 -2.3499  0.7025  0.9898
  486MOL0     H65555   7.559   6.944   5.849 -2.5391  1.8810 -3.4009
  486MOL0     H65556   7.508   6.836   5.969  1.6960  0.1466 -1.2350
  486MOL0     H65557   7.311   6.764   5.819  1.3220 -0.9536  1.0125
  486MOL0     H65558   7.358   6.887   5.701  4.1114  2.4797 -0.0863
  486MOL0     H65559   7.447   6.645   5.648  1.9784 -2.6508  1.8175
  486MOL0     H65560   7.520   6.638   5.796 -1.5787  0.2590  1.2944
  486MOL0     H65561   7.493   6.913   5.513  0.0960  0.6247  0.6103
  486MOL0     H65562   7.711   7.049   5.369 -0.3982  0.0248 -0.2366
  486MOL0     H65563   7.866   7.008   5.457 -0.2863  3.4540 -1.1815
  486MOL0     H65564   7.873   6.977   5.223  0.9577  0.8844  1.0880
  486MOL0     H65565   7.748   6.861   5.229 -0.3773  1.0928 -1.0533
  486MOL0     H65566   7.904   6.740   5.413 -2.9223 -0.2004 -1.1789
  486MOL0     H65567   8.036   6.839   5.344 -0.2444 -0.5201 -1.1924
  486MOL0     H65568   7.958   6.709   5.113 -6.2913 -3.4755 -0.2901
  486MOL0     H65569   7.895   6.604   5.230  0.0559  0.2992 -0.0362
  486MOL0     H65570   8.336   6.565   5.208 -0.6433 -1.2824  1.7499
  486MOL0     H65571   8.529   6.488   5.134  1.6950  0.1423 -0.5322
  486MOL0     H65572   8.535   6.330   5.066 -0.2030 -0.0893 -0.6689
  486MOL0     H65573   8.513   6.468   4.959 -1.4213  0.6888 -0.6217
  486MOL0     H65574   8.534   6.012   4.840 -1.5404  4.2411  1.3861
  486MOL0     H65575   8.602   5.890   4.615 -0.2261  0.3489 -0.4393
  486MOL0     H65576   8.704   5.996   4.186 -1.0417 -1.0549  0.7575
  486MOL0     H65577   8.642   6.158   4.223 -0.8514 -0.4720  0.9002
  486MOL0     H65578   8.832   6.225   4.296 -1.4368  2.0498  4.5058
  486MOL0     H65579   8.816   6.135   4.430  3.3235 -0.9350  0.6573
  486MOL0     H65580   9.016   6.064   4.334  1.2701 -3.7775  0.3953
  486MOL0     H65581   8.945   6.035   4.170 -1.9408 -0.6850 -0.1464
  486MOL0     H65582   8.884   5.880   4.413  1.9550  1.0938  1.1187
  486MOL0     H65583   8.835   5.836   4.248 -0.9734  1.0967 -0.6394
  486MOL0     H65584   9.048   5.700   4.343  0.5289 -1.1724 -0.4233
  486MOL0     H65585   9.137   5.853   4.329  0.0939  0.3979 -1.2212
  486MOL0     H65586   8.994   5.749   4.087  2.4080 -4.0777 -1.0274
  486MOL0     H65587   9.095   5.874   4.098  2.7916 -0.4198  0.3691
  486MOL0     H65588   9.167   5.573   4.184  1.8253 -1.7592 -0.3599
  486MOL0     H65589   9.280   5.708   4.195 -1.6650  3.1657  0.6558
  486MOL0     H65590   9.128   5.626   3.943  1.3769  2.5597 -2.9137
  486MOL0     H65591   9.280   5.536   3.990 -3.5336 -2.3113  3.3449
  486MOL0     H65592   8.530   6.250   4.401  1.7411  3.5425  2.0722
  486MOL0     H65593   8.433   6.350   4.592  1.0401  0.0551 -2.1971
  486MOL0     H65594   8.061   6.282   4.929 -0.0081 -1.3786  1.2122
  486MOL0     H65595   7.951   6.432   5.111 -0.3813 -1.4728  0.2087
  486MOL0     H65596   7.399   6.704   6.663  0.3436  0.9649 -1.6657
  486MOL0     H65597   7.200   6.608   6.772  0.7777  1.9561  1.3538
  486MOL0     H65598   6.819   6.223   6.676  2.5418  1.5010  0.0598
  486MOL0     H65599   6.608   6.152   6.762 -0.6432 -0.3598 -0.5560
  486MOL0     H65600   6.327   6.417   7.009 -4.3266  1.7945  0.5830
  486MOL0     H65601   6.315   6.481   6.846 -1.4568 -0.6005 -1.7074
  486MOL0     H65602   6.101   6.380   6.925 -1.6817  1.1414 -3.9062
  486MOL0     H65603   6.185   6.224   6.950  3.5402  2.0820  2.4399
  486MOL0     H65604   6.058   6.216   6.739 -1.4407  1.8269  0.3787
  486MOL0     H65605   6.238   6.223   6.705  1.4822  2.3702 -0.0657
  486MOL0     H65606   6.106   6.365   6.545  0.6886 -0.3812 -0.6326
  486MOL0     H65607   6.215   6.456   6.650  0.2653 -0.4462 -1.7690
  486MOL0     H65608   5.820   6.523   6.827  0.3837 -0.1611  0.6700
  486MOL0     H65609   6.499   6.558   6.834  1.8099  2.2812 -0.6439
  486MOL0     H65610   6.711   6.635   6.710 -1.0648 -0.7329 -3.1847
  487MOL0     O65611   3.642   0.873   3.903 -0.9134  0.9025 -0.0987
  487MOL0     C65612   3.659   0.827   4.014 -0.8133 -0.6771 -0.0956
  487MOL0     O65613   3.566   0.756   4.084 -0.3393 -0.4134  0.1287
  487MOL0     C65614   3.432   0.747   4.046 -0.2507 -0.6929 -0.1605
  487MOL0     C65615   3.364   0.842   3.971  1.0165  0.1206 -0.7193
  487MOL0     C65616   3.226   0.831   3.938  0.1393  0.0192 -0.1948
  487MOL0     C65617   3.151   0.714   3.977 -0.6012  0.1218 -0.4617
  487MOL0     O65618   3.016   0.683   3.962 -0.1305 -0.2653  0.3276
  487MOL0     C65619   2.966   0.739   3.845 -0.0640  0.2283  0.4957
  487MOL0     C65620   2.818   0.705   3.832 -0.3716  1.0969  0.3483
  487MOL0     C65621   2.801   0.633   3.695  0.7077  0.3264  0.1254
  487MOL0     C65622   2.650   0.590   3.666  0.2468  0.6111 -0.2882
  487MOL0     C65623   2.649   0.490   3.546  0.0653 -0.0794 -0.3198
  487MOL0     C65624   2.504   0.455   3.516  0.4851 -0.5448 -0.2464
  487MOL0     C65625   2.424   0.583   3.484  0.2839 -0.1899  0.1893
  487MOL0     C65626   2.269   0.556   3.443  0.1549 -0.3093 -0.2596
  487MOL0     N65627   2.247   0.462   3.336 -0.7532 -0.4223  0.4028
  487MOL0     C65628   2.278   0.488   3.205  0.4344 -0.7095 -0.5204
  487MOL0     C65629   2.226   0.381   3.132  0.5460 -0.3966 -0.1710
  487MOL0     C65630   2.245   0.347   2.984 -0.0872  0.1712  0.1863
  487MOL0     C65631   2.123   0.384   2.898  0.3189 -0.2462 -0.6251
  487MOL0     C65632   2.018   0.281   2.940 -0.6444  0.6407  0.0684
  487MOL0     C65633   1.880   0.328   2.888  0.1350  0.3264 -0.8028
  487MOL0     O65634   1.881   0.342   2.744 -0.4204  0.2394  0.3638
  487MOL0     C65635   1.772   0.403   2.697 -0.1708  0.0280  0.5163
  487MOL0     C65636   1.774   0.403   2.560 -0.2351  0.9026 -0.2992
  487MOL0     C65637   1.665   0.448   2.484  0.9321  0.0671  0.6292
  487MOL0     C65638   1.683   0.445   2.332  1.0113  0.0396 -0.0533
  487MOL0     C65639   1.551   0.495   2.551  0.4102  0.5121 -0.4736
  487MOL0     C65640   1.423   0.550   2.490  0.0994 -0.3062  0.0680
  487MOL0     O65641   1.378   0.492   2.376  1.2520  0.5895  0.5090
  487MOL0     C65642   1.267   0.540   2.319  1.0342 -0.4286  0.8409
  487MOL0     C65643   1.155   0.464   2.339  0.2216  0.0985  0.3752
  487MOL0     C65644   1.049   0.506   2.263 -0.1972  0.8909  0.2123
  487MOL0     C65645   1.061   0.596   2.159 -0.4246  0.1593  0.7205
  487MOL0     O65646   0.955   0.623   2.072 -0.1340  0.5795  0.2462
  487MOL0     C65647   0.818   0.583   2.085  0.8820  0.6952 -0.3283
  487MOL0     C65648   0.753   0.653   2.215  0.4910 -0.4346  0.4615
  487MOL0     C65649   0.736   0.797   2.208 -0.2401 -0.0866  0.1780
  487MOL0     C65650   0.666   0.849   2.339  0.3929  0.5331  0.6454
  487MOL0     C65651   0.650   1.003   2.337 -0.1561  0.4272 -0.7333
  487MOL0     C65652   0.532   1.052   2.427  1.6054 -0.5178  0.2776
  487MOL0     C65653   0.480   1.196   2.375 -0.1949  0.7757 -0.4508
  487MOL0     C65654   0.387   1.264   2.468 -0.2307  0.3143  0.2666
  487MOL0    Cl65655   0.492   1.346   2.588 -0.2023 -0.3917 -0.0489
  487MOL0     C65656   1.175   0.671   2.150 -0.4921 -0.3567  0.1722
  487MOL0     C65657   1.284   0.643   2.228 -0.2868  0.0577  0.2025
  487MOL0     O65658   1.355   0.629   2.560  0.5197  0.5588  0.1614
  487MOL0     C65659   1.554   0.504   2.688 -0.6290  0.4682 -0.3021
  487MOL0     C65660   1.662   0.456   2.764 -0.1157 -0.1980 -0.0236
  487MOL0     N65661   2.180   0.289   3.227 -0.5732 -0.6753  0.3010
  487MOL0     N65662   2.199   0.339   3.345 -0.1107 -0.1171  0.0426
  487MOL0     C65663   3.232   0.617   4.032  0.1455  0.5314 -0.4411
  487MOL0     C65664   3.369   0.624   4.069  0.2599  0.1608 -0.4585
  487MOL0     C65665   3.790   0.830   4.087 -0.0729 -0.0837  0.5051
  487MOL0     C65666   3.907   0.879   4.027  0.4289  0.6521 -0.2572
  487MOL0     C65667   4.037   0.869   4.086  0.3077  0.7965 -0.1190
  487MOL0     C65668   4.053   0.812   4.213 -0.2256  0.3577  0.3755
  487MOL0     O65669   4.173   0.803   4.285  0.1329  0.7220  0.5455
  487MOL0     C65670   4.300   0.842   4.231  0.2135  0.3127  0.1199
  487MOL0     C65671   4.368   0.708   4.185 -0.0264 -0.2494  0.5424
  487MOL0     C65672   4.393   0.614   4.300  0.5460  0.5633  1.1364
  487MOL0     C65673   4.481   0.658   4.407 -0.6465 -0.5081 -0.3468
  487MOL0     C65674   4.525   0.541   4.485 -0.3193  0.1563  0.8726
  487MOL0     C65675   4.576   0.446   4.536 -0.5815 -0.3325 -0.2730
  487MOL0     C65676   3.935   0.765   4.277  0.6494  0.0181  0.1555
  487MOL0     C65677   3.805   0.767   4.216 -0.6222  0.3127  0.2154
  487MOL0     H65678   3.420   0.931   3.945  0.0454  0.6928 -0.8955
  487MOL0     H65679   3.171   0.908   3.886 -2.2263 -1.7958 -0.5873
  487MOL0     H65680   2.978   0.848   3.852  1.3591  0.0110  1.9512
  487MOL0     H65681   3.022   0.697   3.761 -4.4234 -1.4009 -1.9588
  487MOL0     H65682   2.773   0.648   3.913  0.1446 -3.4914 -2.2402
  487MOL0     H65683   2.760   0.797   3.818 -0.3817  1.4399  2.3644
  487MOL0     H65684   2.829   0.710   3.623  0.8271  0.8909  0.7621
  487MOL0     H65685   2.858   0.540   3.692 -1.7909 -1.4708  2.6947
  487MOL0     H65686   2.599   0.544   3.751 -0.4577  1.7064 -0.0880
  487MOL0     H65687   2.601   0.687   3.651  1.2449  1.4139  1.2614
  487MOL0     H65688   2.689   0.543   3.458  0.0548 -1.0046 -0.8939
  487MOL0     H65689   2.708   0.400   3.567 -1.8311 -1.6423 -1.3310
  487MOL0     H65690   2.508   0.385   3.432  0.5599 -0.2495 -0.4899
  487MOL0     H65691   2.460   0.413   3.607 -0.8551 -0.2522 -0.7319
  487MOL0     H65692   2.421   0.654   3.568 -1.1982  1.9508 -1.5446
  487MOL0     H65693   2.463   0.635   3.396 -3.4990 -1.2908 -2.3902
  487MOL0     H65694   2.235   0.649   3.396  1.5782 -0.9077 -2.6048
  487MOL0     H65695   2.214   0.533   3.535 -2.7145 -0.0327 -1.7782
  487MOL0     H65696   2.310   0.580   3.156 -1.9634  2.1986  2.8984
  487MOL0     H65697   2.332   0.398   2.941 -0.3943 -0.3849 -1.1634
  487MOL0     H65698   2.260   0.239   2.974  2.8911  0.6316 -1.8190
  487MOL0     H65699   2.154   0.388   2.793 -0.1720  0.6994 -0.7443
  487MOL0     H65700   2.094   0.485   2.928  4.5199  0.9822 -0.0691
  487MOL0     H65701   2.003   0.279   3.049  3.1800  0.2941  0.7160
  487MOL0     H65702   2.036   0.182   2.895  0.3763  0.8122  0.0726
  487MOL0     H65703   1.872   0.429   2.929  2.6845  0.4751 -0.5167
  487MOL0     H65704   1.802   0.266   2.933  2.3822 -1.1430  1.3019
  487MOL0     H65705   1.861   0.360   2.511 -0.5593 -1.4050  0.9878
  487MOL0     H65706   1.595   0.408   2.279 -0.9787  1.0203  2.3315
  487MOL0     H65707   1.714   0.544   2.297  0.0516  0.7645  1.0737
  487MOL0     H65708   1.760   0.372   2.305  0.1876  0.1443 -2.9325
  487MOL0     H65709   1.148   0.388   2.416  2.2074 -1.0109 -0.4506
  487MOL0     H65710   0.958   0.452   2.284 -1.4114  2.6944 -0.2208
  487MOL0     H65711   0.749   0.607   2.003  0.2468 -0.9758 -0.3137
  487MOL0     H65712   0.810   0.475   2.096  2.6366  0.3564 -1.8036
  487MOL0     H65713   0.660   0.597   2.228 -0.9015  0.9509 -2.5434
  487MOL0     H65714   0.815   0.631   2.301 -0.6022 -0.0641  1.3664
  487MOL0     H65715   0.683   0.815   2.114 -2.4286 -2.8344  0.7430
  487MOL0     H65716   0.837   0.840   2.216 -0.9374  1.4525  1.3901
  487MOL0     H65717   0.573   0.790   2.342  0.3287  0.4921 -1.0644
  487MOL0     H65718   0.716   0.821   2.431 -0.4328  1.8689  1.5353
  487MOL0     H65719   0.620   1.040   2.239 -1.0654  2.5506  0.2669
  487MOL0     H65720   0.747   1.053   2.351  1.5838 -3.2984  2.4800
  487MOL0     H65721   0.444   0.990   2.412 -0.8477  3.1032 -1.6963
  487MOL0     H65722   0.548   1.052   2.536 -3.8159 -0.8704  1.3503
  487MOL0     H65723   0.440   1.187   2.273  2.2251  2.5686 -1.6897
  487MOL0     H65724   0.572   1.253   2.357 -0.8642  1.5288 -1.6238
  487MOL0     H65725   0.320   1.185   2.503 -2.3642  2.7294  2.0513
  487MOL0     H65726   0.316   1.329   2.417 -1.9778 -0.9924  0.9342
  487MOL0     H65727   1.188   0.746   2.073 -3.3856  0.5467  0.4605
  487MOL0     H65728   1.377   0.695   2.209 -0.4156  0.0595 -0.4539
  487MOL0     H65729   1.474   0.540   2.751  0.4176  0.7486  0.9126
  487MOL0     H65730   1.645   0.471   2.871 -0.2801 -1.0287  0.0734
  487MOL0     H65731   3.189   0.518   4.037  2.2417 -0.7966 -4.2995
  487MOL0     H65732   3.421   0.537   4.107  1.9676  1.5860  0.6334
  487MOL0     H65733   3.892   0.906   3.923  0.9487  3.0068  0.2371
  487MOL0     H65734   4.122   0.890   4.022  0.9643  0.7196  0.7214
  487MOL0     H65735   4.287   0.912   4.148 -1.0772  2.6596  2.1895
  487MOL0     H65736   4.365   0.887   4.306 -0.4563 -0.9757  1.5256
  487MOL0     H65737   4.464   0.730   4.137 -1.0714  1.0685 -1.0655
  487MOL0     H65738   4.309   0.664   4.104  2.4299  1.6057 -2.4839
  487MOL0     H65739   4.432   0.522   4.254 -0.1249 -0.7642  3.0771
  487MOL0     H65740   4.295   0.588   4.341  0.6624  0.6882  1.4964
  487MOL0     H65741   4.424   0.715   4.481  0.3213  0.8224 -0.5803
  487MOL0     H65742   4.570   0.715   4.380  0.7719 -1.8474  1.2556
  487MOL0     H65743   4.629   0.364   4.581 -2.0796 -1.4087 -0.4218
  487MOL0     H65744   3.963   0.717   4.370 -0.0632 -3.3614 -1.2355
  487MOL0     H65745   3.721   0.723   4.268  0.5019 -1.8280  0.3113
  488MOL0     O65746   1.287   3.765  10.923 -0.5019  0.1139 -0.1159
  488MOL0     C65747   1.236   3.747  11.040 -0.3629 -0.1438  0.2876
  488MOL0     O65748   1.266   3.639  11.123 -0.3020 -0.0351  0.1461
  488MOL0     C65749   1.368   3.554  11.083 -0.4664 -0.8952  0.0345
  488MOL0     C65750   1.342   3.436  11.008  0.0004 -0.0605 -0.6815
  488MOL0     C65751   1.435   3.350  10.975 -0.4906 -0.3438 -0.1829
  488MOL0     C65752   1.566   3.373  11.026  1.2910 -1.0030 -1.4861
  488MOL0     O65753   1.668   3.287  11.013 -0.3199 -0.4635  0.7267
  488MOL0     C65754   1.639   3.148  10.990  0.0760 -0.5867 -0.1721
  488MOL0     C65755   1.737   3.047  11.060 -0.3598 -0.8456  0.4971
  488MOL0     C65756   1.675   2.912  11.095  0.1958 -0.3665  0.0643
  488MOL0     C65757   1.589   2.905  11.222  0.8535  1.2831  0.6328
  488MOL0     C65758   1.558   2.763  11.282  0.8382 -0.1977  0.4030
  488MOL0     C65759   1.473   2.782  11.409  0.3886  0.1662  0.6569
  488MOL0     C65760   1.404   2.645  11.442  0.7037 -0.1201 -0.3704
  488MOL0     C65761   1.492   2.546  11.521  0.3160 -0.2410  1.3394
  488MOL0     N65762   1.436   2.421  11.572 -0.1526 -0.2051  0.4805
  488MOL0     C65763   1.318   2.363  11.524 -0.4425 -0.5068  0.5865
  488MOL0     C65764   1.278   2.286  11.625  0.7230 -0.4235 -0.2093
  488MOL0     C65765   1.141   2.219  11.628 -0.3118 -0.6291 -0.2164
  488MOL0     C65766   1.135   2.105  11.736 -0.3620  0.4633  0.5138
  488MOL0     C65767   1.090   2.140  11.873  0.5042  0.8229 -0.2280
  488MOL0     C65768   0.972   2.236  11.901  0.1142 -0.4109 -0.0573
  488MOL0     O65769   0.944   2.242  12.044 -0.4563  0.8186  0.3738
  488MOL0     C65770   0.826   2.309  12.078  0.1937  1.0662 -0.6833
  488MOL0     C65771   0.797   2.429  12.021 -0.5640 -0.4514  1.8357
  488MOL0     C65772   0.693   2.505  12.075 -0.2926 -0.0923 -0.8896
  488MOL0     C65773   0.643   2.631  12.005 -0.0521 -0.4468  0.1215
  488MOL0     C65774   0.622   2.462  12.191 -0.1778  0.5959 -0.3274
  488MOL0     C65775   0.531   2.549  12.271 -0.1215  0.0829 -0.3069
  488MOL0     O65776   0.406   2.505  12.268 -0.4905  0.3277 -0.4827
  488MOL0     C65777   0.300   2.577  12.323  0.6110  1.1148 -0.2787
  488MOL0     C65778   0.175   2.532  12.281  0.9362  1.3533  0.3742
  488MOL0     C65779   0.057   2.588  12.328  0.1327  0.4323  0.1266
  488MOL0     C65780   0.057   2.691  12.429  0.5576 -0.3912  0.1597
  488MOL0     O65781  -0.049   2.735  12.494  0.2590  0.1816 -0.8150
  488MOL0     C65782  -0.173   2.739  12.426 -0.3632 -0.9334 -0.6875
  488MOL0     C65783  -0.261   2.626  12.475 -0.7090 -0.0192 -0.6119
  488MOL0     C65784  -0.395   2.629  12.401 -0.8271 -0.9098 -0.5565
  488MOL0     C65785  -0.468   2.488  12.409 -0.3475  0.0041 -0.1369
  488MOL0     C65786  -0.620   2.512  12.398  0.1029  0.8462  0.2888
  488MOL0     C65787  -0.684   2.372  12.419 -0.3366  0.0336 -0.1706
  488MOL0     C65788  -0.836   2.369  12.408 -0.1629 -0.5468 -0.1485
  488MOL0     C65789  -0.918   2.479  12.496  0.1653  0.7015  0.1575
  488MOL0    Cl65790  -1.078   2.421  12.481  0.2165 -0.3000 -0.2316
  488MOL0     C65791   0.186   2.738  12.472  0.3198 -0.0345  0.2350
  488MOL0     C65792   0.304   2.683  12.416 -0.4836 -0.3181  0.4844
  488MOL0     O65793   0.577   2.648  12.328 -0.1744  0.4701 -0.0952
  488MOL0     C65794   0.665   2.345  12.248 -0.1072 -0.1970 -1.0827
  488MOL0     C65795   0.758   2.256  12.192 -0.7499 -0.5280  0.7612
  488MOL0     N65796   1.363   2.295  11.735 -0.1846 -0.0939 -0.1214
  488MOL0     N65797   1.459   2.385  11.700 -0.0157  0.1713 -0.9925
  488MOL0     C65798   1.594   3.495  11.087  0.2206 -0.4595  0.4201
  488MOL0     C65799   1.497   3.587  11.120  0.8085 -0.0470 -0.1006
  488MOL0     C65800   1.118   3.821  11.088  0.5771  0.3252 -1.2999
  488MOL0     C65801   1.093   3.945  11.033 -0.1490 -0.1622 -0.2696
  488MOL0     C65802   0.989   4.017  11.069  0.4526  0.2732 -0.3803
  488MOL0     C65803   0.903   3.979  11.176  0.6910  0.2796  0.4228
  488MOL0     O65804   0.812   4.074  11.213 -0.3202  0.2444  0.0475
  488MOL0     C65805   0.718   4.035  11.318 -0.5727  0.2337  0.9151
  488MOL0     C65806   0.632   4.152  11.359 -0.1319  0.3663 -0.4671
  488MOL0     C65807   0.530   4.113  11.473 -0.2350  1.2418  0.2204
  488MOL0     C65808   0.496   4.244  11.543 -0.3228  0.0464  0.4387
  488MOL0     C65809   0.605   4.273  11.638 -0.8894  0.2377  0.1549
  488MOL0     C65810   0.685   4.320  11.716  1.1843  0.3207 -0.1442
  488MOL0     C65811   0.943   3.862  11.252  0.3377  0.5431 -0.2407
  488MOL0     C65812   1.040   3.782  11.204 -0.6349 -0.4425 -0.3292
  488MOL0     H65813   1.237   3.422  10.984 -0.4834  2.2291 -0.1267
  488MOL0     H65814   1.411   3.265  10.911  1.5342 -1.9257  1.0610
  488MOL0     H65815   1.543   3.134  11.040  0.6613 -3.6552  0.2965
  488MOL0     H65816   1.631   3.136  10.882  2.5765  0.8271 -0.5805
  488MOL0     H65817   1.820   3.041  10.989 -1.7435 -0.1545 -1.2594
  488MOL0     H65818   1.782   3.092  11.149  1.1378 -0.0820 -0.5937
  488MOL0     H65819   1.618   2.884  11.006  1.3801 -0.9425 -0.5461
  488MOL0     H65820   1.753   2.836  11.103 -1.2401 -2.0494 -1.1924
  488MOL0     H65821   1.634   2.954  11.309 -0.2023 -1.8503  3.1516
  488MOL0     H65822   1.496   2.959  11.202 -0.5441 -1.3282 -0.3537
  488MOL0     H65823   1.508   2.703  11.205  0.8831 -0.9955  0.9859
  488MOL0     H65824   1.649   2.710  11.309 -0.0204 -1.4507  0.9183
  488MOL0     H65825   1.545   2.804  11.488 -0.1909 -2.1745  1.9434
  488MOL0     H65826   1.397   2.858  11.388  0.6298 -0.0239 -0.9652
  488MOL0     H65827   1.310   2.665  11.494  0.4585 -0.8211 -0.5290
  488MOL0     H65828   1.379   2.590  11.350  2.1465 -1.5186  0.0326
  488MOL0     H65829   1.543   2.607  11.595  2.3767 -0.7146  0.3904
  488MOL0     H65830   1.572   2.522  11.449 -0.2288  2.6501 -0.4182
  488MOL0     H65831   1.261   2.391  11.436  3.5322  1.0601 -1.7614
  488MOL0     H65832   1.071   2.302  11.639  0.5776 -0.1466  2.3917
  488MOL0     H65833   1.130   2.173  11.529 -0.0383  0.2159 -0.6514
  488MOL0     H65834   1.239   2.071  11.731  0.3058  2.3517 -3.9773
  488MOL0     H65835   1.069   2.026  11.698 -0.5114  0.5808  0.5289
  488MOL0     H65836   1.181   2.173  11.924  0.9615  0.0722 -0.5583
  488MOL0     H65837   1.063   2.039  11.905 -0.5161  0.7508 -1.2213
  488MOL0     H65838   0.883   2.194  11.853  0.3590 -2.6402  1.3173
  488MOL0     H65839   0.998   2.335  11.862  0.2638  0.8183  2.9381
  488MOL0     H65840   0.840   2.459  11.926  0.0038  0.3090  2.3166
  488MOL0     H65841   0.700   2.668  11.919  0.8259 -2.0300 -0.0132
  488MOL0     H65842   0.543   2.611  11.963 -1.8240  4.1951  1.4830
  488MOL0     H65843   0.629   2.716  12.072 -1.1633 -0.6147  0.1209
  488MOL0     H65844   0.171   2.455  12.204 -0.8818  0.0061  1.7308
  488MOL0     H65845  -0.033   2.534  12.299  0.9877  0.1814 -2.3072
  488MOL0     H65846  -0.218   2.837  12.448  0.8771 -0.9712  2.4677
  488MOL0     H65847  -0.165   2.732  12.317 -3.3745  1.7078 -1.2459
  488MOL0     H65848  -0.213   2.529  12.465  2.8648  1.2635  2.1359
  488MOL0     H65849  -0.283   2.631  12.582 -2.4243 -0.6515 -0.9024
  488MOL0     H65850  -0.384   2.640  12.293  0.0826 -2.5586 -0.6644
  488MOL0     H65851  -0.449   2.711  12.451  0.7185  0.8662 -1.6607
  488MOL0     H65852  -0.434   2.420  12.330  0.0397  0.8648 -0.7259
  488MOL0     H65853  -0.438   2.440  12.503 -0.7551 -0.4923 -0.2541
  488MOL0     H65854  -0.651   2.546  12.299 -0.4969 -1.7070 -0.4746
  488MOL0     H65855  -0.641   2.580  12.481  0.5940  1.1165  0.1976
  488MOL0     H65856  -0.634   2.302  12.352  3.0116  2.6687 -0.7059
  488MOL0     H65857  -0.657   2.336  12.519  0.4148  1.7403  0.2782
  488MOL0     H65858  -0.868   2.273  12.449 -2.5829  1.0324  1.9543
  488MOL0     H65859  -0.880   2.385  12.309 -3.6035 -4.5022  0.4867
  488MOL0     H65860  -0.909   2.582  12.460  1.8373  0.0097 -1.5455
  488MOL0     H65861  -0.890   2.462  12.600  2.3157 -2.6961 -0.8437
  488MOL0     H65862   0.183   2.810  12.554 -2.4504  0.5617 -0.2733
  488MOL0     H65863   0.393   2.724  12.461 -3.1583  3.4731  2.8814
  488MOL0     H65864   0.628   2.313  12.345  2.9719 -1.0684 -0.0922
  488MOL0     H65865   0.787   2.167  12.247  2.1223  0.7570  1.5214
  488MOL0     H65866   1.697   3.516  11.113  0.1384 -0.1592  0.5042
  488MOL0     H65867   1.505   3.681  11.173 -2.0592 -0.0502  0.5246
  488MOL0     H65868   1.154   3.969  10.947 -0.0088 -1.3242 -0.5113
  488MOL0     H65869   0.977   4.106  11.009  0.3860 -0.0631 -0.8664
  488MOL0     H65870   0.652   3.957  11.280  1.8339 -0.7082 -1.6076
  488MOL0     H65871   0.771   4.000  11.408 -1.8712 -0.7448  1.3292
  488MOL0     H65872   0.581   4.194  11.272  1.0455  1.6693 -0.5671
  488MOL0     H65873   0.697   4.228  11.404 -0.9309  0.5130  0.5110
  488MOL0     H65874   0.550   4.026  11.536 -2.0036 -0.9130 -1.9867
  488MOL0     H65875   0.444   4.088  11.411 -0.1031 -1.4940  1.0341
  488MOL0     H65876   0.400   4.229  11.594 -1.2749 -0.3789 -1.4089
  488MOL0     H65877   0.481   4.322  11.468  0.6928  2.5454  2.6656
  488MOL0     H65878   0.768   4.352  11.776  0.5649  1.5149  0.1152
  488MOL0     H65879   0.885   3.830  11.337  0.7627  1.5904  0.4613
  488MOL0     H65880   1.065   3.689  11.255  2.2434 -0.8644 -2.2737
  489MOL0     O65881   8.749  10.127  10.897  0.5194 -0.2692  0.1763
  489MOL0     C65882   8.807  10.206  10.966  0.3123  0.2703  0.8560
  489MOL0     O65883   8.756  10.283  11.059 -0.6695 -0.8821 -0.9284
  489MOL0     C65884   8.618  10.292  11.072  0.3433  0.3301 -0.3815
  489MOL0     C65885   8.523  10.184  11.050  0.1737 -0.2710  0.1650
  489MOL0     C65886   8.395  10.199  11.101 -0.8472  0.1030 -1.1313
  489MOL0     C65887   8.342  10.312  11.169 -1.0189 -0.6581 -0.8282
  489MOL0     O65888   8.217  10.323  11.224  0.2080  0.0961  0.0610
  489MOL0     C65889   8.185  10.214  11.303  0.5614  0.2231 -0.9276
  489MOL0     C65890   8.088  10.256  11.416  0.4140  0.5630  0.5943
  489MOL0     C65891   8.129  10.375  11.487  0.3830 -0.4990 -0.6468
  489MOL0     C65892   8.023  10.440  11.572  0.2129 -0.4786 -0.3752
  489MOL0     C65893   8.091  10.543  11.665  0.0849 -0.2301  0.1531
  489MOL0     C65894   8.003  10.571  11.786  0.5161 -0.3626  0.1083
  489MOL0     C65895   7.868  10.628  11.747 -0.0779 -0.3357  0.6144
  489MOL0     C65896   7.871  10.771  11.692  0.5796  0.6100 -0.6561
  489MOL0     N65897   7.903  10.856  11.807 -0.4453  0.3283 -0.6846
  489MOL0     C65898   7.817  10.888  11.913 -0.5624 -0.1531  0.3150
  489MOL0     C65899   7.876  10.974  11.998 -0.3850  0.2367  0.8055
  489MOL0     C65900   7.821  11.053  12.114 -0.0072  0.5926  0.2725
  489MOL0     C65901   7.730  11.165  12.068 -0.3716  0.2551 -0.1668
  489MOL0     C65902   7.586  11.126  12.081 -0.2984 -0.1770 -0.1535
  489MOL0     C65903   7.549  11.096  12.228 -0.3151  0.2258 -1.2049
  489MOL0     O65904   7.409  11.138  12.249  0.1490  0.0699 -0.0137
  489MOL0     C65905   7.319  11.037  12.256  0.7117  0.0287 -0.1655
  489MOL0     C65906   7.239  11.030  12.369 -0.4883 -0.1304  0.6107
  489MOL0     C65907   7.142  10.934  12.391 -0.8007 -0.9019  0.2254
  489MOL0     C65908   7.074  10.947  12.521 -0.6112  0.8972 -0.1482
  489MOL0     C65909   7.116  10.840  12.295 -0.9523  0.2015  0.8157
  489MOL0     C65910   6.998  10.740  12.290 -0.1029 -0.0037 -0.6197
  489MOL0     O65911   6.950  10.715  12.167  0.5150 -0.3210  0.3729
  489MOL0     C65912   6.840  10.626  12.157 -0.0968  0.1321  0.5533
  489MOL0     C65913   6.732  10.664  12.069 -0.7222  0.1761  0.3805
  489MOL0     C65914   6.628  10.575  12.054  0.4294 -0.6433  0.2938
  489MOL0     C65915   6.631  10.451  12.098  0.1212  1.2506 -0.3786
  489MOL0     O65916   6.523  10.370  12.063 -0.1571  0.5205 -0.7787
  489MOL0     C65917   6.480  10.272  12.163 -1.0203  0.5445 -0.9617
  489MOL0     C65918   6.341  10.224  12.146  0.3525  0.4228 -0.5670
  489MOL0     C65919   6.331  10.076  12.137 -0.5317  1.1431  0.0183
  489MOL0     C65920   6.192  10.014  12.150  0.0755 -0.9415  0.3900
  489MOL0     C65921   6.172   9.855  12.143 -0.1878  0.5031  0.2160
  489MOL0     C65922   6.198   9.813  12.000  0.1502  1.2894  0.3766
  489MOL0     C65923   6.219   9.663  11.969  0.6012  0.2240  0.1826
  489MOL0     C65924   6.320   9.612  12.066 -0.0955 -0.0310  0.1568
  489MOL0    Cl65925   6.358   9.439  12.020  0.1189 -0.2539 -0.4326
  489MOL0     C65926   6.733  10.414  12.185 -0.4845  0.9772 -0.1088
  489MOL0     C65927   6.848  10.495  12.201 -0.2506  0.3130  0.0394
  489MOL0     O65928   6.943  10.704  12.396 -0.3196 -0.1307  0.8793
  489MOL0     C65929   7.191  10.850  12.166 -0.7641 -0.6408  0.5759
  489MOL0     C65930   7.299  10.943  12.153  0.5135  0.8724 -0.1749
  489MOL0     N65931   8.001  10.980  11.944 -1.1432 -0.0453 -0.2854
  489MOL0     N65932   8.023  10.913  11.835 -0.7303  0.4658  0.7526
  489MOL0     C65933   8.449  10.412  11.199  0.0295  0.2210 -0.5552
  489MOL0     C65934   8.574  10.395  11.143 -0.3663 -0.1222 -0.4940
  489MOL0     C65935   8.947  10.214  10.939 -0.9736 -0.1837 -0.8092
  489MOL0     C65936   9.049  10.259  11.024  0.0625 -0.0238 -0.6229
  489MOL0     C65937   9.182  10.246  10.983  0.0094  0.6533 -0.8613
  489MOL0     C65938   9.229  10.197  10.864  0.0046 -0.6765  0.0704
  489MOL0     O65939   9.357  10.184  10.836 -0.3939  0.3047 -0.5137
  489MOL0     C65940   9.397  10.106  10.727  0.5215  0.1349  0.3119
  489MOL0     C65941   9.552  10.074  10.732  0.2636 -0.6071 -0.5205
  489MOL0     C65942   9.649  10.184  10.781 -0.0926  0.0632  0.6532
  489MOL0     C65943   9.724  10.261  10.664 -0.2050  0.7668 -0.4702
  489MOL0     C65944   9.645  10.366  10.599  0.0642 -0.1184 -0.9322
  489MOL0     C65945   9.572  10.449  10.560 -0.1299  0.1638 -0.5720
  489MOL0     C65946   9.124  10.164  10.768  0.2252  0.3311 -1.5529
  489MOL0     C65947   8.991  10.163  10.814  0.1521 -0.8370 -1.2950
  489MOL0     H65948   8.549  10.094  10.996  3.0401  2.0546 -2.6874
  489MOL0     H65949   8.321  10.122  11.082 -1.1518 -0.5514  2.1499
  489MOL0     H65950   8.145  10.129  11.246 -3.6641 -0.4693  2.5802
  489MOL0     H65951   8.265  10.170  11.363 -0.7304  0.0955  0.7549
  489MOL0     H65952   7.995  10.277  11.361  0.1196 -1.1770  0.3693
  489MOL0     H65953   8.067  10.177  11.488 -0.1476 -0.0846 -0.2457
  489MOL0     H65954   8.202  10.333  11.556  0.3263  1.7292  0.8682
  489MOL0     H65955   8.176  10.454  11.428  3.6462 -0.9243  1.1475
  489MOL0     H65956   7.949  10.490  11.509 -0.1541 -0.2204  0.2460
  489MOL0     H65957   7.972  10.362  11.630  0.4839 -0.9036 -0.7005
  489MOL0     H65958   8.178  10.499  11.715 -2.0275 -1.7643  2.8311
  489MOL0     H65959   8.111  10.634  11.609 -3.1088  1.3669  1.3523
  489MOL0     H65960   7.979  10.478  11.837 -2.1139  0.2184  0.1096
  489MOL0     H65961   8.049  10.632  11.864  2.2077 -2.3072  0.7227
  489MOL0     H65962   7.832  10.564  11.665  2.2399 -0.1165 -0.6712
  489MOL0     H65963   7.802  10.617  11.833 -1.1443 -0.0778 -0.1444
  489MOL0     H65964   7.780  10.804  11.641  0.5639  3.1649  0.8498
  489MOL0     H65965   7.950  10.787  11.617  0.1687  1.3298 -0.9426
  489MOL0     H65966   7.711  10.867  11.901 -0.2542 -0.7505 -1.7344
  489MOL0     H65967   7.768  10.982  12.179  3.1957 -1.6703  0.6384
  489MOL0     H65968   7.912  11.076  12.170  0.7139  0.8300 -0.9585
  489MOL0     H65969   7.761  11.189  11.966  0.9518 -0.4726  0.0406
  489MOL0     H65970   7.757  11.252  12.129  2.5968 -0.3654 -0.4422
  489MOL0     H65971   7.551  11.043  12.018 -3.0534 -0.2773  1.3399
  489MOL0     H65972   7.530  11.215  12.052  0.7028  0.4391 -0.2097
  489MOL0     H65973   7.610  11.157  12.296 -0.4212 -0.7612 -0.1846
  489MOL0     H65974   7.563  10.992  12.258  2.0049  1.0818  1.1039
  489MOL0     H65975   7.256  11.107  12.443 -0.9250 -0.2778  0.8658
  489MOL0     H65976   7.129  11.009  12.593 -0.3277  2.2909 -1.5065
  489MOL0     H65977   6.977  10.997  12.514 -1.7042 -1.1576 -0.5501
  489MOL0     H65978   7.059  10.846  12.560  1.3424  0.9149  0.8179
  489MOL0     H65979   6.723  10.769  12.044 -0.1301  0.6835  2.1472
  489MOL0     H65980   6.540  10.611  12.001 -0.4554  2.2333  3.4068
  489MOL0     H65981   6.538  10.179  12.152 -2.3058 -0.5904  1.2384
  489MOL0     H65982   6.497  10.305  12.265 -0.7808 -0.4345 -0.6684
  489MOL0     H65983   6.301  10.255  12.243  1.6853  1.2107 -0.2356
  489MOL0     H65984   6.281  10.272  12.068  0.1488  3.1183  1.1182
  489MOL0     H65985   6.391  10.029  12.215 -1.3783 -0.1368 -0.0772
  489MOL0     H65986   6.378  10.041  12.045  0.4021 -0.8832  1.1983
  489MOL0     H65987   6.148  10.046  12.245 -0.6138 -1.3539  0.2136
  489MOL0     H65988   6.122  10.046  12.072  0.3497  1.1189  0.9442
  489MOL0     H65989   6.068   9.836  12.170  0.5632 -0.6172  2.6045
  489MOL0     H65990   6.235   9.804  12.216  0.2017 -0.0090 -0.4551
  489MOL0     H65991   6.118   9.847  11.933 -0.5484 -1.5467 -0.3480
  489MOL0     H65992   6.289   9.858  11.959 -0.6417  2.4795 -0.1263
  489MOL0     H65993   6.242   9.635  11.866 -0.2710  2.3859 -0.6650
  489MOL0     H65994   6.129   9.606  11.993  0.3721  0.4049 -0.2436
  489MOL0     H65995   6.293   9.619  12.172  0.8840 -1.4398  0.5358
  489MOL0     H65996   6.410   9.674  12.059 -0.7130  1.3303  2.8089
  489MOL0     H65997   6.750  10.308  12.204 -0.3346  0.2233 -3.6926
  489MOL0     H65998   6.938  10.451  12.244 -3.3814 -6.4927  1.0038
  489MOL0     H65999   7.163  10.788  12.081 -3.3484 -0.7922  1.4579
  489MOL0     H66000   7.366  10.959  12.069  1.6402 -1.5081  0.1703
  489MOL0     H66001   8.419  10.500  11.256  1.1790  1.1880 -1.3730
  489MOL0     H66002   8.642  10.476  11.165  1.2074 -1.8553  1.4174
  489MOL0     H66003   9.032  10.285  11.128 -0.1283 -3.9145  0.4608
  489MOL0     H66004   9.244  10.286  11.063 -2.5649  0.8453  1.1638
  489MOL0     H66005   9.360  10.004  10.714  3.5361 -0.7739 -2.3601
  489MOL0     H66006   9.368  10.168  10.641  0.7955  0.1471  0.2274
  489MOL0     H66007   9.578  10.030  10.635 -3.0151  1.6470 -2.6324
  489MOL0     H66008   9.559   9.991  10.802  1.3843  1.5168  2.0442
  489MOL0     H66009   9.724  10.128  10.837  0.0389 -1.7636 -1.2509
  489MOL0     H66010   9.598  10.264  10.837  0.4041 -0.0823  1.3206
  489MOL0     H66011   9.762  10.195  10.585 -0.6152  2.0365 -1.7783
  489MOL0     H66012   9.819  10.298  10.703 -0.1157 -0.5003  0.5629
  489MOL0     H66013   9.510  10.535  10.544 -1.3554 -0.7389 -0.8437
  489MOL0     H66014   9.137  10.124  10.668  0.7805 -1.0643 -0.9504
  489MOL0     H66015   8.920  10.133  10.737 -0.4357 -2.8238 -0.0537
  490MOL0     O66016   3.543   5.160   0.611 -0.7196 -0.1767  0.2690
  490MOL0     C66017   3.598   5.228   0.703 -0.2624  0.0276  0.0331
  490MOL0     O66018   3.676   5.338   0.684  0.7353  0.1300 -0.1010
  490MOL0     C66019   3.653   5.393   0.561 -0.0353  0.0686 -0.8141
  490MOL0     C66020   3.557   5.494   0.549  0.9161  0.3138  0.2021
  490MOL0     C66021   3.524   5.550   0.423 -0.4546  0.1810  0.0300
  490MOL0     C66022   3.582   5.504   0.302  0.4223 -0.1904  0.1865
  490MOL0     O66023   3.554   5.535   0.172 -0.3138 -0.3266 -0.2367
  490MOL0     C66024   3.447   5.634   0.154 -0.5230  0.0361 -0.6442
  490MOL0     C66025   3.451   5.673   0.001  0.6632 -0.2640 -0.4203
  490MOL0     C66026   3.577   5.745  -0.040  0.3995  0.6241 -0.4363
  490MOL0     C66027   3.567   5.797  -0.172 -0.6140  0.1754  0.2559
  490MOL0     C66028   3.706   5.837  -0.234 -0.3223 -0.3820  0.1596
  490MOL0     C66029   3.783   5.945  -0.160 -0.3740 -0.7057  0.2279
  490MOL0     C66030   3.904   6.014  -0.237  0.7059  0.1088 -0.9613
  490MOL0     C66031   3.996   6.100  -0.133  0.4953  0.1299  0.8727
  490MOL0     N66032   3.940   6.235  -0.118 -0.1002  0.1735 -1.2634
  490MOL0     C66033   3.928   6.299   0.009 -0.1962 -0.6120 -0.3987
  490MOL0     C66034   3.901   6.429  -0.011  0.9211  0.3570  0.2968
  490MOL0     C66035   3.918   6.535   0.089  0.3760 -0.4021 -0.4369
  490MOL0     C66036   4.040   6.511   0.185 -0.0719  0.2645 -0.0249
  490MOL0     C66037   4.089   6.642   0.257  0.0422  0.1256 -0.0474
  490MOL0     C66038   4.180   6.611   0.374 -0.4947 -1.0645 -0.8285
  490MOL0     O66039   4.095   6.591   0.491  0.0751  0.2985  0.0006
  490MOL0     C66040   4.157   6.599   0.614  0.7070  0.5481  0.0203
  490MOL0     C66041   4.288   6.546   0.638  0.0026  0.2903 -1.4233
  490MOL0     C66042   4.349   6.544   0.768  0.7029 -0.2192 -0.2112
  490MOL0     C66043   4.490   6.488   0.779  0.1452  0.3493 -0.3857
  490MOL0     C66044   4.272   6.598   0.881 -0.8019 -0.0685 -0.1961
  490MOL0     C66045   4.325   6.610   1.019 -0.2614 -0.3158  0.0868
  490MOL0     O66046   4.236   6.680   1.100  0.1742  0.0203 -0.3081
  490MOL0     C66047   4.291   6.722   1.220  0.0306  0.8595 -0.5323
  490MOL0     C66048   4.355   6.844   1.220 -0.2146  0.5813 -0.4881
  490MOL0     C66049   4.413   6.890   1.338 -0.4507 -0.7559  0.4835
  490MOL0     C66050   4.402   6.821   1.456  0.3758 -0.1152  0.1479
  490MOL0     O66051   4.449   6.859   1.577 -0.3303 -0.2481  0.3603
  490MOL0     C66052   4.589   6.914   1.579 -0.2214  1.1881 -0.2315
  490MOL0     C66053   4.669   6.792   1.626 -0.7214  0.0957  0.5159
  490MOL0     C66054   4.812   6.805   1.657 -1.2315  0.8050 -0.9198
  490MOL0     C66055   4.884   6.860   1.540 -0.6350  0.1226  0.5651
  490MOL0     C66056   5.033   6.837   1.545 -0.2600 -0.3579 -0.3862
  490MOL0     C66057   5.103   6.915   1.436 -0.0068  0.2111  0.2804
  490MOL0     C66058   5.255   6.902   1.438  0.8465 -0.2573 -0.1852
  490MOL0     C66059   5.302   6.969   1.561 -1.3332  0.7186  0.2546
  490MOL0    Cl66060   5.482   6.949   1.576  0.0120 -0.5457  0.4883
  490MOL0     C66061   4.327   6.703   1.463 -0.4413 -0.6084  0.6836
  490MOL0     C66062   4.273   6.655   1.341 -0.1119  0.3039  0.3189
  490MOL0     O66063   4.439   6.572   1.048 -0.1316 -0.1819  0.1683
  490MOL0     C66064   4.136   6.647   0.852  0.1704  0.1472  0.1139
  490MOL0     C66065   4.086   6.649   0.726  0.2564  0.2557 -0.4552
  490MOL0     N66066   3.888   6.434  -0.152  0.1620 -0.4337  0.2204
  490MOL0     N66067   3.894   6.321  -0.213  0.5162  0.1397  0.1793
  490MOL0     C66068   3.675   5.404   0.316 -0.1338  0.3888 -0.8774
  490MOL0     C66069   3.712   5.351   0.440  0.2969 -0.6063  0.2969
  490MOL0     C66070   3.597   5.187   0.843  0.1135  0.8917  0.0553
  490MOL0     C66071   3.655   5.254   0.949 -0.2697 -0.3182  0.1755
  490MOL0     C66072   3.652   5.208   1.087  0.3005  0.3909  0.2448
  490MOL0     C66073   3.585   5.087   1.113  0.5934  0.2602 -0.3969
  490MOL0     O66074   3.605   5.030   1.234  0.9395  0.1739 -0.5348
  490MOL0     C66075   3.525   4.919   1.270 -0.2231  1.4542  0.4119
  490MOL0     C66076   3.537   4.901   1.419  0.5198 -0.1814 -0.6929
  490MOL0     C66077   3.676   4.846   1.450  0.4673  0.3049  0.1846
  490MOL0     C66078   3.707   4.702   1.420  0.2711 -0.1970 -0.2392
  490MOL0     C66079   3.843   4.676   1.476  1.1435 -0.7111  0.9944
  490MOL0     C66080   3.962   4.651   1.496 -0.9047 -0.1617 -0.7979
  490MOL0     C66081   3.514   5.022   1.008  0.2005 -0.0117 -0.1096
  490MOL0     C66082   3.524   5.071   0.885 -0.5777  0.3043  0.3878
  490MOL0     H66083   3.508   5.524   0.641  0.6694 -0.7189  0.4215
  490MOL0     H66084   3.449   5.628   0.415  0.7175  1.1843 -2.3572
  490MOL0     H66085   3.348   5.600   0.186  0.5009 -0.5829  2.1760
  490MOL0     H66086   3.463   5.721   0.217  2.0736 -0.4070 -0.5562
  490MOL0     H66087   3.439   5.583  -0.059 -2.1349 -0.5435  0.4375
  490MOL0     H66088   3.367   5.740  -0.020 -0.7509 -2.0430 -0.5938
  490MOL0     H66089   3.591   5.827   0.030 -0.1965 -1.2408  1.9883
  490MOL0     H66090   3.667   5.683  -0.035  1.8387  2.7171  1.2702
  490MOL0     H66091   3.519   5.726  -0.240 -2.0412  2.9380 -1.8398
  490MOL0     H66092   3.505   5.887  -0.173 -0.5870  0.2338  1.7542
  490MOL0     H66093   3.764   5.747  -0.255  0.4157  0.4075 -1.4203
  490MOL0     H66094   3.680   5.883  -0.330 -0.7565 -1.4628 -0.2478
  490MOL0     H66095   3.716   6.025  -0.129  1.7024  1.3410 -0.3093
  490MOL0     H66096   3.826   5.904  -0.068 -1.8839 -1.8262  0.4846
  490MOL0     H66097   3.966   5.940  -0.288  1.4414  0.5832 -0.7752
  490MOL0     H66098   3.856   6.082  -0.309  0.4352  1.6882  0.6384
  490MOL0     H66099   4.095   6.112  -0.179  1.4427 -2.5828  2.0287
  490MOL0     H66100   4.012   6.044  -0.041 -0.8443 -2.5230 -0.3806
  490MOL0     H66101   3.942   6.252   0.106  1.6381  1.9275  0.6845
  490MOL0     H66102   3.921   6.633   0.040 -2.5636  0.1962  0.3816
  490MOL0     H66103   3.829   6.546   0.152 -0.6426  2.1888 -2.1589
  490MOL0     H66104   4.127   6.492   0.121 -0.7131 -2.4274 -0.2279
  490MOL0     H66105   4.024   6.420   0.243 -2.5055  0.1384 -0.7974
  490MOL0     H66106   4.003   6.700   0.291  1.5360  2.1215  0.4781
  490MOL0     H66107   4.148   6.699   0.185 -0.0187  0.7995  0.4244
  490MOL0     H66108   4.242   6.698   0.398 -1.5793 -0.4096 -0.3050
  490MOL0     H66109   4.239   6.519   0.368  2.7639  0.8361 -0.3649
  490MOL0     H66110   4.348   6.509   0.556  1.3400 -0.0435 -0.3377
  490MOL0     H66111   4.571   6.545   0.826  0.5496 -0.3252 -0.2460
  490MOL0     H66112   4.479   6.395   0.835 -0.6469  1.4398  1.3505
  490MOL0     H66113   4.540   6.470   0.683  1.5715 -0.1843  0.4200
  490MOL0     H66114   4.363   6.893   1.124  0.3063  4.4886  1.3827
  490MOL0     H66115   4.461   6.987   1.342  2.2824 -2.0622  1.6051
  490MOL0     H66116   4.616   6.956   1.482 -1.4155 -1.8063 -2.0081
  490MOL0     H66117   4.603   6.996   1.650  1.7766  1.7764 -1.2324
  490MOL0     H66118   4.623   6.754   1.717 -2.0315  2.0570  0.7290
  490MOL0     H66119   4.664   6.705   1.559 -0.5818 -0.9048  1.7744
  490MOL0     H66120   4.861   6.713   1.691 -1.6262  0.3922 -1.4615
  490MOL0     H66121   4.832   6.879   1.736 -1.8727  0.6006 -0.5669
  490MOL0     H66122   4.856   6.828   1.439  1.7362  2.6832 -1.0662
  490MOL0     H66123   4.871   6.968   1.536  0.9654  0.2969 -2.0067
  490MOL0     H66124   5.063   6.733   1.532  2.9116  0.1449  1.6039
  490MOL0     H66125   5.059   6.868   1.647 -3.2963 -0.1082  0.4163
  490MOL0     H66126   5.068   6.877   1.340  0.3874  0.3474  0.0788
  490MOL0     H66127   5.068   7.019   1.436  2.6065  1.1855 -0.8919
  490MOL0     H66128   5.302   6.960   1.358  1.6287 -0.6853 -0.0450
  490MOL0     H66129   5.274   6.794   1.436 -2.4061 -0.9661  0.1546
  490MOL0     H66130   5.261   6.913   1.645 -2.1918  0.0364 -0.5987
  490MOL0     H66131   5.290   7.078   1.566  0.6674  1.0152 -0.1503
  490MOL0     H66132   4.304   6.643   1.551 -2.2296 -3.7523 -1.7338
  490MOL0     H66133   4.213   6.565   1.343  0.2584  0.0711  1.5343
  490MOL0     H66134   4.072   6.685   0.932  0.9737 -0.8345  1.2500
  490MOL0     H66135   3.992   6.698   0.700  1.8035  3.9650  0.2476
  490MOL0     H66136   3.733   5.376   0.228 -0.9972  0.3203 -1.4411
  490MOL0     H66137   3.788   5.275   0.454  1.2431  0.2329 -0.1690
  490MOL0     H66138   3.696   5.352   0.931 -0.8836  0.0998  0.9771
  490MOL0     H66139   3.712   5.259   1.162 -0.1381 -0.4606  1.2092
  490MOL0     H66140   3.421   4.929   1.238 -0.7924 -0.5154  1.5022
  490MOL0     H66141   3.573   4.837   1.218  0.3056  0.6688  2.0774
  490MOL0     H66142   3.468   4.824   1.455  2.5374 -0.9488  1.9020
  490MOL0     H66143   3.525   4.995   1.474  1.9308  0.9678 -2.2466
  490MOL0     H66144   3.677   4.856   1.559 -0.2267  0.1858  0.2087
  490MOL0     H66145   3.752   4.900   1.393  0.7759  0.1210  0.4218
  490MOL0     H66146   3.715   4.674   1.314 -0.7807 -0.9265 -0.1456
  490MOL0     H66147   3.633   4.644   1.477 -0.7139  1.7744  0.5643
  490MOL0     H66148   4.065   4.624   1.506 -0.5714  1.8223  2.4241
  490MOL0     H66149   3.462   4.927   1.018 -0.4702  0.2735 -0.8152
  490MOL0     H66150   3.463   5.021   0.811 -0.0962  2.2241 -1.3838
  491MOL0     O66151   2.820   7.218   5.408 -0.2570 -0.4998  0.2883
  491MOL0     C66152   2.737   7.306   5.397 -0.0953  0.7736 -0.2076
  491MOL0     O66153   2.751   7.439   5.423 -0.2661 -0.5808 -0.0100
  491MOL0     C66154   2.866   7.499   5.474 -0.9708 -0.7524 -1.2508
  491MOL0     C66155   2.948   7.430   5.571 -0.1028 -0.4220  0.3294
  491MOL0     C66156   3.060   7.496   5.625 -0.4504  0.4821  0.4502
  491MOL0     C66157   3.109   7.610   5.593 -0.2009 -0.6083  0.3836
  491MOL0     O66158   3.218   7.665   5.662  0.2981  0.0705  0.2729
  491MOL0     C66159   3.264   7.793   5.625 -0.1643  0.3989  0.6092
  491MOL0     C66160   3.415   7.821   5.667 -0.5701  0.1945  0.4644
  491MOL0     C66161   3.464   7.947   5.603 -0.4332 -0.6541 -0.0457
  491MOL0     C66162   3.387   8.068   5.656 -0.1122 -0.9017 -0.1538
  491MOL0     C66163   3.432   8.194   5.595 -0.7511 -0.5613  0.1996
  491MOL0     C66164   3.568   8.253   5.637 -0.2512 -0.8370  0.4039
  491MOL0     C66165   3.556   8.315   5.766 -0.2759 -0.0154  0.5959
  491MOL0     C66166   3.703   8.354   5.812  0.1779  0.0775 -0.1376
  491MOL0     N66167   3.732   8.470   5.728  0.5081  0.4479 -0.0411
  491MOL0     C66168   3.665   8.590   5.738  0.2845  0.1216  0.4194
  491MOL0     C66169   3.733   8.680   5.666  0.2373 -0.0577 -0.1779
  491MOL0     C66170   3.700   8.824   5.673  0.3023 -0.2148 -0.3446
  491MOL0     C66171   3.595   8.855   5.575 -0.4027  0.7483 -0.4968
  491MOL0     C66172   3.497   8.965   5.630  0.8638  0.6424  0.1425
  491MOL0     C66173   3.444   8.961   5.780  1.1775 -0.7250  0.1237
  491MOL0     O66174   3.336   9.062   5.775 -0.1385  0.4332  0.1877
  491MOL0     C66175   3.280   9.074   5.899  0.0161  0.1454  0.4881
  491MOL0     C66176   3.335   9.039   6.025 -0.8845 -0.0387 -0.1076
  491MOL0     C66177   3.272   9.043   6.149 -1.1082 -0.4084  0.4548
  491MOL0     C66178   3.357   9.018   6.268 -0.2100 -0.3211  0.7538
  491MOL0     C66179   3.135   9.089   6.155  0.1329  0.1552 -0.1210
  491MOL0     C66180   3.047   9.104   6.277  0.8644 -0.6061 -0.2002
  491MOL0     O66181   2.920   9.142   6.253  0.1995 -0.3382 -0.0468
  491MOL0     C66182   2.840   9.174   6.362 -0.0786  0.0251 -0.5705
  491MOL0     C66183   2.778   9.075   6.435  0.7724  0.5688 -0.3217
  491MOL0     C66184   2.684   9.113   6.538 -0.3685  0.7061  1.1277
  491MOL0     C66185   2.667   9.246   6.567 -0.2279 -0.5899  0.0329
  491MOL0     O66186   2.594   9.274   6.681 -0.6238  0.0920 -0.1507
  491MOL0     C66187   2.569   9.411   6.723 -0.4742  0.3815  0.4489
  491MOL0     C66188   2.479   9.484   6.628 -0.8038 -0.0447 -0.2708
  491MOL0     C66189   2.348   9.413   6.576  0.4948 -0.4939 -0.6792
  491MOL0     C66190   2.255   9.346   6.678 -0.3056  0.4233  0.3956
  491MOL0     C66191   2.188   9.440   6.781 -1.0035 -0.2458 -0.5115
  491MOL0     C66192   2.081   9.534   6.725  0.2494 -0.1629 -0.0879
  491MOL0     C66193   2.013   9.604   6.847 -0.7294 -0.6278 -0.2501
  491MOL0     C66194   1.899   9.693   6.789  0.0616 -1.2851  0.0118
  491MOL0    Cl66195   1.829   9.787   6.926 -0.2861 -0.4892  0.1309
  491MOL0     C66196   2.731   9.340   6.496 -0.6661 -0.6951  0.3438
  491MOL0     C66197   2.816   9.310   6.392  0.2096 -0.1826 -0.1154
  491MOL0     O66198   3.093   9.086   6.390 -0.1549 -0.0836  0.3867
  491MOL0     C66199   3.084   9.134   6.030 -0.1032 -0.2498 -0.7857
  491MOL0     C66200   3.155   9.126   5.908 -0.6979 -0.4537 -0.3922
  491MOL0     N66201   3.826   8.605   5.591  0.4531 -0.3914 -0.8814
  491MOL0     N66202   3.829   8.485   5.632  0.6616 -0.2959 -0.2530
  491MOL0     C66203   3.029   7.688   5.501 -0.6376 -0.6077 -0.3921
  491MOL0     C66204   2.918   7.630   5.442  0.1450  0.9006 -0.1637
  491MOL0     C66205   2.597   7.255   5.385 -0.5113 -0.7423 -0.0177
  491MOL0     C66206   2.570   7.114   5.406 -0.2450 -0.5633  0.4006
  491MOL0     C66207   2.435   7.069   5.409 -0.0309 -0.3582 -0.4162
  491MOL0     C66208   2.328   7.154   5.381 -0.2867  0.1795  0.1089
  491MOL0     O66209   2.204   7.111   5.399  0.5228  0.0687 -0.2888
  491MOL0     C66210   2.146   7.024   5.303 -0.5719  0.3094  0.0449
  491MOL0     C66211   2.018   7.075   5.247 -0.5042  0.2581 -0.3929
  491MOL0     C66212   1.905   7.099   5.345  0.1564  0.0288  0.3866
  491MOL0     C66213   1.777   7.139   5.277  0.5925 -0.0255 -0.1306
  491MOL0     C66214   1.663   7.060   5.328 -0.9014 -0.1555 -0.1778
  491MOL0     C66215   1.564   7.005   5.358  0.1730 -0.9138 -0.6243
  491MOL0     C66216   2.357   7.295   5.366 -1.2472 -0.2141 -0.0057
  491MOL0     C66217   2.488   7.337   5.358 -1.3476  0.0105 -1.0034
  491MOL0     H66218   2.921   7.328   5.596 -0.2732 -0.8441 -1.4552
  491MOL0     H66219   3.130   7.443   5.689 -0.1597 -0.7615 -0.8463
  491MOL0     H66220   3.264   7.812   5.517  3.5632  1.1664  0.5976
  491MOL0     H66221   3.195   7.865   5.668 -2.2919 -0.5845 -0.9652
  491MOL0     H66222   3.430   7.835   5.774 -3.3934 -2.4903  1.3478
  491MOL0     H66223   3.472   7.732   5.639 -0.3245 -0.0587  1.6971
  491MOL0     H66224   3.566   7.965   5.639  0.9231  1.6587 -4.3852
  491MOL0     H66225   3.453   7.939   5.495  0.8772 -0.2812 -0.2223
  491MOL0     H66226   3.280   8.063   5.632 -0.0881  0.4669 -0.6366
  491MOL0     H66227   3.407   8.089   5.762  3.5027  1.7147 -1.1710
  491MOL0     H66228   3.435   8.189   5.486 -1.3538 -1.8821  0.2220
  491MOL0     H66229   3.363   8.278   5.607  0.7755  0.8973 -0.8937
  491MOL0     H66230   3.646   8.177   5.643  0.1662 -0.5111 -0.7214
  491MOL0     H66231   3.591   8.323   5.556  0.3306 -2.3531 -0.7816
  491MOL0     H66232   3.488   8.401   5.770  0.3851  0.4760  2.0244
  491MOL0     H66233   3.528   8.250   5.850 -0.3426  1.1062  1.4728
  491MOL0     H66234   3.772   8.269   5.807 -1.3591 -1.3685  1.7257
  491MOL0     H66235   3.701   8.377   5.919 -0.3046 -3.1688  0.6650
  491MOL0     H66236   3.590   8.620   5.811  1.2268  2.1089  0.6471
  491MOL0     H66237   3.663   8.836   5.775  0.6238 -2.8959  0.1735
  491MOL0     H66238   3.793   8.882   5.672 -1.0199  1.9729 -0.4863
  491MOL0     H66239   3.551   8.760   5.542 -1.6625  0.5387  1.6435
  491MOL0     H66240   3.646   8.907   5.493 -1.3913  1.9798 -0.3579
  491MOL0     H66241   3.415   8.982   5.560  1.7361  1.0965 -0.7926
  491MOL0     H66242   3.547   9.061   5.613 -0.0705  0.8477 -1.6381
  491MOL0     H66243   3.527   8.972   5.850  1.7987 -1.6427 -0.4449
  491MOL0     H66244   3.377   8.876   5.792 -0.8737  1.0579  2.2529
  491MOL0     H66245   3.441   9.016   6.024 -0.5302  1.4515 -1.2201
  491MOL0     H66246   3.292   8.944   6.317 -1.5121  0.7658  0.7225
  491MOL0     H66247   3.457   8.975   6.252  0.7172  1.0844  2.3711
  491MOL0     H66248   3.368   9.112   6.323  3.1882  0.2430 -0.5978
  491MOL0     H66249   2.795   8.970   6.417 -1.7991 -0.1167  0.7947
  491MOL0     H66250   2.630   9.036   6.593 -1.3085  2.6359  3.0296
  491MOL0     H66251   2.515   9.414   6.818 -0.4362 -0.3553  0.5010
  491MOL0     H66252   2.660   9.465   6.746 -1.0118  1.3491  0.3395
  491MOL0     H66253   2.446   9.573   6.682 -1.0757 -0.6225  0.5287
  491MOL0     H66254   2.534   9.514   6.538 -2.2619  2.9748 -0.3087
  491MOL0     H66255   2.383   9.334   6.509 -1.2060  0.2652 -2.5589
  491MOL0     H66256   2.281   9.475   6.517 -1.6979 -1.0732  1.0689
  491MOL0     H66257   2.174   9.290   6.630 -0.8403  1.1941  0.3827
  491MOL0     H66258   2.298   9.267   6.741  0.0792 -0.9799 -1.5297
  491MOL0     H66259   2.258   9.501   6.841 -1.3865 -1.6049  1.3896
  491MOL0     H66260   2.138   9.374   6.851 -2.5886 -1.1893 -2.4653
  491MOL0     H66261   2.138   9.595   6.655  2.2998 -3.1805 -1.2549
  491MOL0     H66262   2.009   9.489   6.656 -2.1969  1.3109  1.3155
  491MOL0     H66263   2.083   9.665   6.904 -2.0198 -0.6525  1.4391
  491MOL0     H66264   1.967   9.537   6.920  3.1283 -2.6024  0.6175
  491MOL0     H66265   1.813   9.634   6.756 -0.4447 -0.9008  0.6146
  491MOL0     H66266   1.946   9.764   6.720 -0.3254 -1.5856 -0.5630
  491MOL0     H66267   2.730   9.447   6.509  2.1883 -0.4978 -0.4383
  491MOL0     H66268   2.864   9.387   6.334 -0.3243  0.4083  0.2151
  491MOL0     H66269   2.981   9.164   6.011 -0.5666 -0.9460  0.4473
  491MOL0     H66270   3.102   9.135   5.814  0.9181  0.3367 -1.2783
  491MOL0     H66271   3.043   7.795   5.490 -0.3852 -0.1261  3.2862
  491MOL0     H66272   2.858   7.683   5.369 -1.2745 -0.6231 -0.1430
  491MOL0     H66273   2.643   7.045   5.446 -0.0516  0.1364  1.2915
  491MOL0     H66274   2.417   6.964   5.427 -1.0205 -0.1759 -0.2952
  491MOL0     H66275   2.220   6.999   5.227  0.4184  1.8388  0.4622
  491MOL0     H66276   2.114   6.930   5.348  1.0362 -0.3987 -0.2357
  491MOL0     H66277   1.986   7.006   5.168 -1.7934  3.0820 -2.5099
  491MOL0     H66278   2.045   7.165   5.191 -0.0482 -0.3626 -1.1955
  491MOL0     H66279   1.931   7.176   5.418  1.8751 -1.6578  1.6422
  491MOL0     H66280   1.880   7.001   5.389 -1.2420 -0.9299 -2.2812
  491MOL0     H66281   1.783   7.142   5.168 -1.1435  0.8820 -0.2442
  491MOL0     H66282   1.763   7.246   5.297  1.5949  0.0348  0.2852
  491MOL0     H66283   1.472   6.966   5.396 -0.8748  0.4016 -1.6973
  491MOL0     H66284   2.275   7.365   5.357  0.6219  2.0929 -0.1390
  491MOL0     H66285   2.499   7.443   5.336 -1.4062 -0.3886 -3.1342
  492MOL0     O66286   9.755  10.254  11.337  0.3710  0.4633  0.2606
  492MOL0     C66287   9.777  10.352  11.408 -0.0500  0.5853  0.5506
  492MOL0     O66288   9.686  10.427  11.468 -0.1784 -0.5438 -0.0355
  492MOL0     C66289   9.550  10.408  11.439 -1.3819  0.6581 -0.2042
  492MOL0     C66290   9.472  10.515  11.400  0.1065 -0.7877  0.2844
  492MOL0     C66291   9.340  10.486  11.369 -0.6770 -0.0097 -0.5129
  492MOL0     C66292   9.282  10.361  11.386 -0.5345  0.5854  0.7802
  492MOL0     O66293   9.149  10.351  11.353  0.0614  0.7743 -0.1174
  492MOL0     C66294   9.063  10.281  11.437  0.5050  0.3205 -0.1097
  492MOL0     C66295   8.928  10.359  11.430 -0.3406  0.5977  0.0105
  492MOL0     C66296   8.947  10.500  11.504  0.3209 -0.1217 -0.6280
  492MOL0     C66297   8.948  10.627  11.422 -0.4633  0.2340 -1.1410
  492MOL0     C66298   8.807  10.659  11.379  0.3673  0.0295 -0.9100
  492MOL0     C66299   8.816  10.777  11.280 -0.0910  0.4680 -0.0820
  492MOL0     C66300   8.678  10.847  11.236 -0.2752  0.8655 -0.9440
  492MOL0     C66301   8.576  10.874  11.345 -0.5570 -0.7004 -1.4220
  492MOL0     N66302   8.629  10.955  11.468  0.1960 -0.1263  0.6018
  492MOL0     C66303   8.707  11.061  11.442 -0.2808  0.8499  0.3401
  492MOL0     C66304   8.729  11.119  11.561  0.2917  1.2328  0.2038
  492MOL0     C66305   8.805  11.251  11.575 -0.4675  0.5653 -0.2192
  492MOL0     C66306   8.924  11.282  11.474 -0.4944 -0.6238  0.5314
  492MOL0     C66307   9.021  11.168  11.458 -0.7941 -0.6642  0.2923
  492MOL0     C66308   9.133  11.162  11.561  0.1393 -0.2667  0.0575
  492MOL0     O66309   9.187  11.032  11.543 -0.1632  0.2793  0.2391
  492MOL0     C66310   9.162  10.931  11.628  0.2900  0.4473  0.4612
  492MOL0     C66311   9.251  10.832  11.633 -0.0340  0.0873  0.0640
  492MOL0     C66312   9.230  10.718  11.711 -0.7411  0.2903 -1.1496
  492MOL0     C66313   9.343  10.613  11.711 -0.1748 -0.2900  0.3322
  492MOL0     C66314   9.108  10.700  11.786 -1.1428 -0.0097 -0.1036
  492MOL0     C66315   9.094  10.588  11.888 -0.6035  0.0840  0.1774
  492MOL0     O66316   9.006  10.617  11.990  1.1743 -0.5497  0.3968
  492MOL0     C66317   8.976  10.524  12.082  0.1154  0.7145 -0.4963
  492MOL0     C66318   9.070  10.471  12.175 -0.7826  0.6686 -0.0349
  492MOL0     C66319   9.035  10.385  12.276  0.5077  0.4887  1.2396
  492MOL0     C66320   8.901  10.356  12.292  0.6069 -0.1905  0.5333
  492MOL0     O66321   8.852  10.292  12.405 -0.8685  0.3062  0.5253
  492MOL0     C66322   8.891  10.335  12.531  0.0105  0.3386 -0.9336
  492MOL0     C66323   8.797  10.281  12.639  0.0645 -0.0270  0.6549
  492MOL0     C66324   8.773  10.128  12.624 -0.4100  0.7209  0.0272
  492MOL0     C66325   8.638  10.086  12.692  0.8445  0.2190  0.1775
  492MOL0     C66326   8.602   9.931  12.680 -0.0087 -0.8823  0.4935
  492MOL0     C66327   8.469   9.887  12.730 -0.8454 -0.9398 -0.5803
  492MOL0     C66328   8.451   9.937  12.879  0.2881 -0.4836  0.7570
  492MOL0     C66329   8.537   9.872  12.977  0.5330 -0.2329 -0.3513
  492MOL0    Cl66330   8.489   9.700  12.984 -0.3000  0.1364 -0.0586
  492MOL0     C66331   8.799  10.412  12.204  0.8739  0.0328 -0.4103
  492MOL0     C66332   8.837  10.491  12.095 -0.0163  0.8331 -0.2316
  492MOL0     O66333   9.149  10.479  11.869  0.9598  0.0680  0.1194
  492MOL0     C66334   9.015  10.793  11.778  0.0774 -0.8334  0.7257
  492MOL0     C66335   9.042  10.911  11.708 -1.1208 -1.0651  1.1979
  492MOL0     N66336   8.661  11.053  11.659  0.1573  0.5187 -0.2743
  492MOL0     N66337   8.598  10.951  11.601  0.3174 -0.7725  0.3198
  492MOL0     C66338   9.355  10.254  11.430 -0.1731 -0.4028  0.5301
  492MOL0     C66339   9.490  10.277  11.455 -0.3642 -0.7081 -0.2901
  492MOL0     C66340   9.916  10.392  11.436 -0.6713 -0.5826  0.6998
  492MOL0     C66341   9.946  10.491  11.532 -0.1482  0.1412 -0.4125
  492MOL0     C66342  10.074  10.541  11.552 -0.2011  0.0904 -0.3727
  492MOL0     C66343  10.174  10.501  11.474 -0.8668  0.2218 -0.0920
  492MOL0     O66344  10.294  10.556  11.486  0.2194 -0.6076 -0.3959
  492MOL0     C66345  10.414  10.484  11.435  0.2771 -0.9958  0.4686
  492MOL0     C66346  10.457  10.359  11.512 -0.3650 -0.5862  0.2650
  492MOL0     C66347  10.602  10.340  11.486 -0.1603 -0.6976  0.4420
  492MOL0     C66348  10.650  10.201  11.525  0.8266 -0.6510 -0.3750
  492MOL0     C66349  10.798  10.197  11.558 -0.4311  0.1268  0.6772
  492MOL0     C66350  10.913  10.196  11.606 -0.0743  0.0360  0.9668
  492MOL0     C66351  10.151  10.401  11.380  0.2629  0.0763  0.0241
  492MOL0     C66352  10.034  10.354  11.350  0.1426  0.3753 -0.8413
  492MOL0     H66353   9.507  10.618  11.394  0.9925 -1.1306 -0.5580
  492MOL0     H66354   9.282  10.573  11.338  0.2803  0.9143  0.1839
  492MOL0     H66355   9.055  10.176  11.407 -0.2021  0.0319  0.9912
  492MOL0     H66356   9.099  10.265  11.539  0.5476  0.2789 -0.1312
  492MOL0     H66357   8.896  10.372  11.327 -2.6098  1.4944  0.7581
  492MOL0     H66358   8.859  10.296  11.487  0.2692 -0.2777 -0.2033
  492MOL0     H66359   8.865  10.500  11.576 -0.9431 -1.1070 -2.0000
  492MOL0     H66360   9.036  10.494  11.568  0.4293 -0.2070 -0.7867
  492MOL0     H66361   8.987  10.708  11.484 -0.2862  0.3429 -1.3956
  492MOL0     H66362   9.023  10.623  11.343 -1.1582 -2.2453 -1.7572
  492MOL0     H66363   8.754  10.574  11.335  2.0438 -0.0711 -2.8716
  492MOL0     H66364   8.745  10.683  11.466 -3.1701  1.8324 -3.6903
  492MOL0     H66365   8.876  10.852  11.332  2.4415 -1.7352  0.4173
  492MOL0     H66366   8.867  10.743  11.190 -1.1049 -0.5106 -0.3094
  492MOL0     H66367   8.705  10.936  11.178  1.0382  0.0600 -1.6043
  492MOL0     H66368   8.627  10.774  11.172 -1.5303 -0.4310  1.4252
  492MOL0     H66369   8.547  10.773  11.376 -1.8855  0.1141  0.1927
  492MOL0     H66370   8.489  10.930  11.309 -0.3107  1.6710  1.2609
  492MOL0     H66371   8.733  11.093  11.341 -2.8668 -1.3665 -1.1801
  492MOL0     H66372   8.727  11.327  11.569 -3.4447 -2.3494 -1.7858
  492MOL0     H66373   8.846  11.238  11.676 -1.9752 -0.6129  0.2808
  492MOL0     H66374   8.977  11.373  11.504 -3.1768  0.4807  2.2675
  492MOL0     H66375   8.879  11.286  11.375 -1.2369 -4.2042  0.5747
  492MOL0     H66376   9.067  11.186  11.360  0.6886 -2.6855  0.5502
  492MOL0     H66377   8.969  11.073  11.441  0.7439 -0.9554 -3.9455
  492MOL0     H66378   9.093  11.177  11.662  0.9549  1.3937  0.1678
  492MOL0     H66379   9.207  11.240  11.540 -0.0596  0.0448  0.4877
  492MOL0     H66380   9.340  10.842  11.573  0.3871 -1.6512  0.3480
  492MOL0     H66381   9.307  10.513  11.685 -3.8459  0.7804  0.6413
  492MOL0     H66382   9.420  10.647  11.642  1.8815  1.0234  3.0538
  492MOL0     H66383   9.388  10.594  11.809 -1.0724 -0.5231  0.7154
  492MOL0     H66384   9.177  10.482  12.166 -0.8201  1.0287 -0.0658
  492MOL0     H66385   9.117  10.339  12.329  2.2231  1.6449 -0.2693
  492MOL0     H66386   8.995  10.310  12.555  0.1082  2.1145  0.7325
  492MOL0     H66387   8.884  10.444  12.540  1.4046  0.2776  2.5922
  492MOL0     H66388   8.843  10.318  12.731  1.3081  1.3459 -0.4595
  492MOL0     H66389   8.697  10.324  12.634  0.0275  0.2940  3.0225
  492MOL0     H66390   8.854  10.072  12.673 -0.8737  0.5515  0.6072
  492MOL0     H66391   8.782  10.089  12.522 -1.0733 -0.5894  0.4575
  492MOL0     H66392   8.645  10.122  12.795 -1.2865  1.1884  0.0411
  492MOL0     H66393   8.559  10.141  12.641 -0.2867 -0.7710  0.8089
  492MOL0     H66394   8.687   9.869  12.710  0.4654 -0.2715  0.4581
  492MOL0     H66395   8.585   9.925  12.572 -1.0947  1.2787  0.4971
  492MOL0     H66396   8.383   9.928  12.677 -2.6110 -2.7488  0.7419
  492MOL0     H66397   8.448   9.779  12.731 -1.4397 -0.8291  0.5247
  492MOL0     H66398   8.349   9.918  12.913 -0.1772 -0.9227 -0.7909
  492MOL0     H66399   8.472  10.043  12.897  0.8481 -0.2445 -1.0334
  492MOL0     H66400   8.516   9.914  13.076  0.9818 -1.5057  0.3107
  492MOL0     H66401   8.642   9.880  12.950  1.2185 -2.3874  1.3961
  492MOL0     H66402   8.694  10.392  12.226  1.0937 -2.8128 -1.6200
  492MOL0     H66403   8.749  10.516  12.036 -0.9937 -1.3296  0.2111
  492MOL0     H66404   8.917  10.784  11.824 -0.1143  1.2161  0.7996
  492MOL0     H66405   8.969  10.988  11.687 -0.9639 -1.9842 -4.2291
  492MOL0     H66406   9.311  10.154  11.428 -1.4134  0.1392 -1.4594
  492MOL0     H66407   9.553  10.192  11.481  2.5490  1.4945  0.4647
  492MOL0     H66408   9.868  10.541  11.588  1.6909  0.6527  1.8311
  492MOL0     H66409  10.095  10.621  11.623  1.8557 -0.5835 -0.1730
  492MOL0     H66410  10.414  10.458  11.329 -3.7970  0.9758 -0.2274
  492MOL0     H66411  10.488  10.563  11.450 -2.5815  1.3345  3.8746
  492MOL0     H66412  10.400  10.271  11.481 -1.1984  0.8358 -2.6501
  492MOL0     H66413  10.442  10.370  11.619 -2.6997 -0.5620 -0.0231
  492MOL0     H66414  10.657  10.418  11.539 -2.4227  0.9457  0.5057
  492MOL0     H66415  10.614  10.345  11.377  2.7469 -0.5625  0.6817
  492MOL0     H66416  10.611  10.136  11.446  1.1598  0.3419 -1.3907
  492MOL0     H66417  10.601  10.170  11.618 -1.4736 -0.6365 -1.4977
  492MOL0     H66418  11.015  10.195  11.639  1.1671  2.0060 -2.3473
  492MOL0     H66419  10.222  10.361  11.308 -1.9240 -2.1127 -1.0739
  492MOL0     H66420  10.024  10.273  11.278  0.8441 -1.1788  0.7370
  493MOL0     O66421   1.316   8.169   0.574  0.0273  0.5393  0.3952
  493MOL0     C66422   1.372   8.080   0.512 -0.4844 -0.3369 -0.1640
  493MOL0     O66423   1.322   7.993   0.414  0.1964  0.0939 -0.2399
  493MOL0     C66424   1.183   7.997   0.402 -0.0213 -0.2270  0.1459
  493MOL0     C66425   1.113   8.117   0.367  0.2332 -0.4178 -1.1717
  493MOL0     C66426   0.985   8.120   0.344 -0.3074 -0.8261 -0.0104
  493MOL0     C66427   0.919   8.002   0.364  0.4961  0.1978 -0.4063
  493MOL0     O66428   0.782   7.990   0.357 -0.1562  0.3594 -0.5359
  493MOL0     C66429   0.692   8.101   0.345 -0.1046  0.1802  0.5270
  493MOL0     C66430   0.556   8.036   0.359 -0.6186  0.0934  0.1404
  493MOL0     C66431   0.433   8.134   0.353  0.3957 -0.1884 -0.0437
  493MOL0     C66432   0.408   8.191   0.215  0.4199  0.0646 -1.0328
  493MOL0     C66433   0.303   8.300   0.217 -0.3956 -0.1056  0.4904
  493MOL0     C66434   0.300   8.363   0.076 -0.3470 -0.3051 -0.1059
  493MOL0     C66435   0.207   8.484   0.079  0.9874 -1.2162  0.0721
  493MOL0     C66436   0.111   8.486  -0.041  0.2856  0.3347  0.2631
  493MOL0     N66437  -0.003   8.382  -0.027 -0.3130  0.1041 -0.3058
  493MOL0     C66438  -0.008   8.242  -0.043 -1.1058 -1.1101  0.5022
  493MOL0     C66439  -0.139   8.206  -0.022 -1.0380 -1.2232  0.3371
  493MOL0     C66440  -0.178   8.065  -0.024 -0.5834  0.4260  0.0207
  493MOL0     C66441  -0.326   8.033  -0.008  0.5888  0.3299 -0.1200
  493MOL0     C66442  -0.347   7.887   0.026 -0.8455  0.4566 -0.0695
  493MOL0     C66443  -0.486   7.835   0.029 -0.5240  0.3213 -0.4887
  493MOL0     O66444  -0.496   7.695   0.053  0.5453 -0.2946  0.3682
  493MOL0     C66445  -0.605   7.643   0.102 -0.1656 -0.0646 -0.5211
  493MOL0     C66446  -0.726   7.708   0.105  1.4271 -0.0796 -0.1562
  493MOL0     C66447  -0.841   7.655   0.180 -0.6182  0.3887 -0.0811
  493MOL0     C66448  -0.975   7.721   0.153  0.4746  0.0186 -0.2752
  493MOL0     C66449  -0.821   7.534   0.255 -0.0753  0.2609  0.6185
  493MOL0     C66450  -0.935   7.481   0.333  0.1873  0.0353  1.1494
  493MOL0     O66451  -1.032   7.558   0.396 -0.0444  0.0593 -0.8372
  493MOL0     C66452  -1.099   7.509   0.503 -0.1500 -0.4512 -0.7402
  493MOL0     C66453  -1.211   7.420   0.498  0.2845 -0.1188  0.4305
  493MOL0     C66454  -1.264   7.359   0.610 -0.0416 -0.5156 -0.0209
  493MOL0     C66455  -1.209   7.386   0.744  0.0399 -0.8772  1.1962
  493MOL0     O66456  -1.278   7.337   0.855 -0.2111 -0.7052 -0.0068
  493MOL0     C66457  -1.259   7.398   0.984 -0.1018 -0.4196  0.8623
  493MOL0     C66458  -1.397   7.382   1.052  0.3757 -1.1843  0.4908
  493MOL0     C66459  -1.391   7.256   1.135 -0.6648  0.2909 -0.3951
  493MOL0     C66460  -1.527   7.179   1.132  0.1082 -0.5013  0.4624
  493MOL0     C66461  -1.519   7.096   1.009 -0.5873  0.4541  1.3614
  493MOL0     C66462  -1.639   7.011   0.993 -0.5176 -0.0695 -0.0874
  493MOL0     C66463  -1.650   6.971   0.844  0.1729 -0.3077 -0.2026
  493MOL0     C66464  -1.732   6.839   0.826 -0.1399 -0.0223  0.0923
  493MOL0    Cl66465  -1.887   6.836   0.917  0.1649  0.0041 -0.4194
  493MOL0     C66466  -1.092   7.465   0.742  0.3508  0.5206  0.1657
  493MOL0     C66467  -1.044   7.529   0.631 -0.6657 -0.4284  0.4766
  493MOL0     O66468  -0.928   7.360   0.345  0.3993  0.0642  0.1146
  493MOL0     C66469  -0.701   7.470   0.247  0.5042 -0.6826 -0.6883
  493MOL0     C66470  -0.596   7.525   0.168  0.2700  0.9227 -0.3355
  493MOL0     N66471  -0.210   8.316   0.014  0.3856  0.0875  0.2069
  493MOL0     N66472  -0.127   8.418   0.008  0.5773 -0.9042 -0.5799
  493MOL0     C66473   0.984   7.884   0.391 -0.1311  0.5519 -1.0170
  493MOL0     C66474   1.116   7.879   0.412 -0.7992  0.3738  0.3859
  493MOL0     C66475   1.517   8.063   0.543  0.1044  0.7689 -0.5445
  493MOL0     C66476   1.591   8.170   0.605  0.1848  0.6644  0.5139
  493MOL0     C66477   1.726   8.153   0.635  1.4972  0.0075  0.8092
  493MOL0     C66478   1.776   8.022   0.614 -0.3607  0.1481  1.2496
  493MOL0     O66479   1.908   7.987   0.638  0.6054 -0.7896 -0.0712
  493MOL0     C66480   1.978   8.057   0.736  0.5925  0.6712 -0.1384
  493MOL0     C66481   2.053   7.942   0.806 -0.2553 -0.1511  0.9504
  493MOL0     C66482   2.120   7.985   0.942  0.3346 -0.6429  0.0965
  493MOL0     C66483   2.166   7.850   1.026  0.4152 -0.1971 -0.0071
  493MOL0     C66484   2.170   7.868   1.178 -0.3346  0.4232 -0.2197
  493MOL0     C66485   2.141   7.872   1.297 -0.6704 -0.5773 -0.1149
  493MOL0     C66486   1.703   7.916   0.559 -0.2303 -0.5946 -0.7620
  493MOL0     C66487   1.571   7.936   0.521 -0.0172 -0.0330 -0.1763
  493MOL0     H66488   1.175   8.205   0.352 -0.2992  0.1750  0.0221
  493MOL0     H66489   0.937   8.214   0.319 -0.7119 -0.7945  0.8675
  493MOL0     H66490   0.708   8.189   0.407 -2.5239  2.6914 -2.1236
  493MOL0     H66491   0.689   8.140   0.243 -2.4502  1.4943  1.0294
  493MOL0     H66492   0.538   7.966   0.276 -0.1082 -1.6283  1.4279
  493MOL0     H66493   0.558   7.978   0.452 -0.3940  1.1706  0.8246
  493MOL0     H66494   0.337   8.085   0.373  0.3116 -0.9138 -1.9976
  493MOL0     H66495   0.453   8.210   0.429  0.3787 -1.3908  1.2128
  493MOL0     H66496   0.506   8.233   0.187  0.8514  1.4797  2.1520
  493MOL0     H66497   0.370   8.120   0.141 -0.2737 -0.0442 -0.5803
  493MOL0     H66498   0.200   8.274   0.244 -0.0141 -0.4634  1.6660
  493MOL0     H66499   0.330   8.379   0.287  0.3699  0.4114 -0.3621
  493MOL0     H66500   0.397   8.372   0.027 -0.2925 -0.4531 -0.0248
  493MOL0     H66501   0.258   8.287   0.010  2.6511 -3.0705  0.8793
  493MOL0     H66502   0.143   8.492   0.168 -1.8598  1.9317 -1.9839
  493MOL0     H66503   0.273   8.572   0.079 -0.5066 -0.0486  0.0450
  493MOL0     H66504   0.178   8.458  -0.123  0.5191 -1.0067  0.8894
  493MOL0     H66505   0.069   8.586  -0.053  1.1543  0.6791  0.0658
  493MOL0     H66506   0.072   8.175  -0.071 -0.4734 -0.1272 -0.0842
  493MOL0     H66507  -0.139   8.008  -0.110  1.3823  0.0289  1.1021
  493MOL0     H66508  -0.113   8.021   0.053 -1.5205  0.0208  0.5943
  493MOL0     H66509  -0.379   8.051  -0.102 -3.1181 -1.9098  1.3356
  493MOL0     H66510  -0.384   8.102   0.053  0.8722  3.2809 -2.8775
  493MOL0     H66511  -0.303   7.870   0.124 -0.6748  1.1748 -0.0172
  493MOL0     H66512  -0.290   7.836  -0.052  1.5348  0.7733  1.3638
  493MOL0     H66513  -0.530   7.853  -0.069  1.9655 -0.5240 -1.8612
  493MOL0     H66514  -0.537   7.891   0.108 -4.3456 -0.6497 -2.0510
  493MOL0     H66515  -0.742   7.794   0.040  0.6510  0.7680  1.1018
  493MOL0     H66516  -1.014   7.708   0.051 -2.3168 -0.1172  0.7384
  493MOL0     H66517  -1.063   7.684   0.206 -0.0708  2.4903  0.6460
  493MOL0     H66518  -0.970   7.824   0.188  1.0892 -0.4308  0.9994
  493MOL0     H66519  -1.270   7.408   0.408 -1.2772  0.0294  1.3979
  493MOL0     H66520  -1.357   7.302   0.603  0.8882 -2.0938 -0.0449
  493MOL0     H66521  -1.180   7.353   1.044  0.7254 -0.2132 -0.0456
  493MOL0     H66522  -1.235   7.504   0.972 -1.6325 -0.3390 -2.7357
  493MOL0     H66523  -1.418   7.464   1.122  2.0917 -1.0979  0.9529
  493MOL0     H66524  -1.479   7.369   0.980 -1.1257  0.1160  1.8663
  493MOL0     H66525  -1.355   7.276   1.237  1.2845  0.9462 -1.1495
  493MOL0     H66526  -1.321   7.193   1.079  1.1168  1.9776 -0.2109
  493MOL0     H66527  -1.529   7.135   1.232  1.7689  0.6256  1.0521
  493MOL0     H66528  -1.611   7.248   1.117  0.4527  0.0480  0.9958
  493MOL0     H66529  -1.428   7.036   1.000 -1.9632 -1.4553 -1.8321
  493MOL0     H66530  -1.518   7.156   0.918 -0.4778 -2.3120 -0.5863
  493MOL0     H66531  -1.633   6.934   1.071  0.6423  1.6105  1.5934
  493MOL0     H66532  -1.733   7.061   1.017 -1.4071 -1.0555 -1.4152
  493MOL0     H66533  -1.550   6.947   0.807 -0.0942 -0.8855 -0.5807
  493MOL0     H66534  -1.689   7.054   0.784 -0.3658 -0.0641  0.4728
  493MOL0     H66535  -1.666   6.759   0.860  0.7132  0.0736 -1.2557
  493MOL0     H66536  -1.739   6.809   0.721  0.5820 -2.0290  0.5774
  493MOL0     H66537  -1.031   7.483   0.831  0.8107  2.1701 -0.4430
  493MOL0     H66538  -0.962   7.599   0.631 -0.7236 -0.3374 -0.7986
  493MOL0     H66539  -0.683   7.381   0.307 -2.4199  1.1562  3.3609
  493MOL0     H66540  -0.509   7.461   0.175 -0.4551 -0.1866 -0.9712
  493MOL0     H66541   0.936   7.794   0.427  0.6292  0.0844 -1.1590
  493MOL0     H66542   1.171   7.790   0.439 -1.4286 -0.2267 -0.2368
  493MOL0     H66543   1.537   8.261   0.630 -2.3440  0.0791 -2.2137
  493MOL0     H66544   1.784   8.235   0.677 -0.1729  0.7080  1.8414
  493MOL0     H66545   2.052   8.132   0.704  0.0052  1.1785 -0.3271
  493MOL0     H66546   1.904   8.106   0.800 -0.0956  2.3067 -2.0834
  493MOL0     H66547   2.118   7.887   0.738 -1.6638 -1.0621  0.3031
  493MOL0     H66548   1.977   7.871   0.840  1.1649 -2.8799 -1.2391
  493MOL0     H66549   2.040   8.043   0.989  0.0657  1.6772 -2.9537
  493MOL0     H66550   2.205   8.053   0.933 -1.4974  1.6168 -1.2992
  493MOL0     H66551   2.260   7.813   0.983 -0.2936 -1.1949 -0.7336
  493MOL0     H66552   2.101   7.764   1.011  2.4460 -1.5183 -1.8772
  493MOL0     H66553   2.099   7.867   1.395 -3.2253 -4.1313 -1.1397
  493MOL0     H66554   1.753   7.821   0.544  2.3488  0.8546 -1.9615
  493MOL0     H66555   1.517   7.859   0.467  0.5102 -0.6709  0.2014
  494MOL0     O66556   4.029   2.209   2.421 -0.2913 -0.4851  0.3739
  494MOL0     C66557   4.011   2.330   2.386 -0.6562 -0.2170 -1.2117
  494MOL0     O66558   4.080   2.438   2.431  0.0475 -0.9836 -0.3271
  494MOL0     C66559   4.215   2.435   2.464  0.4393  0.2578  0.2693
  494MOL0     C66560   4.260   2.523   2.564 -0.8675  0.5020 -0.6890
  494MOL0     C66561   4.397   2.537   2.583  0.4491  0.8538  0.0671
  494MOL0     C66562   4.486   2.472   2.505 -0.0323  0.6531 -0.2324
  494MOL0     O66563   4.618   2.479   2.509 -0.7364 -0.0673  0.0331
  494MOL0     C66564   4.675   2.530   2.635  1.0383  0.1260  0.7222
  494MOL0     C66565   4.821   2.548   2.611  0.0044  0.3881 -0.6979
  494MOL0     C66566   4.890   2.568   2.757  0.1963  0.1983  0.6888
  494MOL0     C66567   5.037   2.614   2.736  0.6268 -0.7558 -0.2438
  494MOL0     C66568   5.106   2.618   2.875 -0.2697 -0.5434 -0.0902
  494MOL0     C66569   5.231   2.705   2.880 -0.4128  0.1896  0.1055
  494MOL0     C66570   5.314   2.679   2.995 -0.1631 -0.0024 -0.3931
  494MOL0     C66571   5.243   2.725   3.120 -0.4555  0.7771  0.0735
  494MOL0     N66572   5.326   2.733   3.242 -0.2025  0.3042  0.3859
  494MOL0     C66573   5.389   2.627   3.298 -0.5219 -0.6769  0.2169
  494MOL0     C66574   5.406   2.661   3.432  0.1488 -0.2300 -0.0177
  494MOL0     C66575   5.448   2.577   3.550  0.0226 -0.2038 -0.0793
  494MOL0     C66576   5.600   2.596   3.594  0.3714  0.4701 -0.4586
  494MOL0     C66577   5.639   2.740   3.629 -0.3135  0.6412 -1.0849
  494MOL0     C66578   5.784   2.751   3.683 -0.0268  0.0671  0.1686
  494MOL0     O66579   5.787   2.660   3.803  0.3043  0.8319 -0.0156
  494MOL0     C66580   5.889   2.662   3.888 -0.5172  0.4941 -0.1930
  494MOL0     C66581   5.876   2.569   3.990  0.3258  0.2821 -0.5246
  494MOL0     C66582   5.972   2.546   4.084 -0.1295 -0.5115 -0.5294
  494MOL0     C66583   5.937   2.444   4.197  0.1719 -1.6391  0.7545
  494MOL0     C66584   6.092   2.616   4.083 -0.0167 -0.4173  0.1831
  494MOL0     C66585   6.208   2.593   4.165  0.6879 -0.1731 -0.1967
  494MOL0     O66586   6.279   2.698   4.204 -0.1921 -1.7028 -0.9839
  494MOL0     C66587   6.386   2.677   4.293 -0.1312 -0.0321  0.9161
  494MOL0     C66588   6.381   2.586   4.399  0.5103  0.6872  0.3702
  494MOL0     C66589   6.487   2.560   4.484 -0.2507 -1.1489 -0.1714
  494MOL0     C66590   6.602   2.640   4.464 -0.5992 -0.4046  0.1624
  494MOL0     O66591   6.705   2.606   4.546 -0.1662  0.4376  0.0170
  494MOL0     C66592   6.836   2.649   4.519  0.1673 -0.3156  0.4193
  494MOL0     C66593   6.939   2.567   4.604 -0.3312 -0.4717  0.4264
  494MOL0     C66594   6.923   2.590   4.753 -0.4900 -0.8535  0.4446
  494MOL0     C66595   6.883   2.724   4.809  0.3154  0.0175 -0.2306
  494MOL0     C66596   6.910   2.750   4.957 -0.2487  0.0789  0.4184
  494MOL0     C66597   6.864   2.899   4.998 -0.5273  0.5115 -1.3263
  494MOL0     C66598   6.871   2.928   5.148  0.4689  0.5113 -0.8442
  494MOL0     C66599   7.006   2.891   5.216 -0.5493 -0.1394  0.1579
  494MOL0    Cl66600   7.006   2.717   5.269 -0.6004  0.0803 -0.0749
  494MOL0     C66601   6.616   2.723   4.354  0.2556 -0.8611  0.3755
  494MOL0     C66602   6.508   2.735   4.264 -0.0842 -0.5021  0.5468
  494MOL0     O66603   6.245   2.479   4.178  0.2348 -0.3701 -0.4575
  494MOL0     C66604   6.112   2.711   3.976 -0.9878  0.1596 -0.0948
  494MOL0     C66605   6.015   2.733   3.880 -0.3211 -0.3772 -0.3307
  494MOL0     N66606   5.364   2.788   3.447 -0.3679 -0.8966  0.4999
  494MOL0     N66607   5.320   2.836   3.334 -0.1127 -0.1161  0.2748
  494MOL0     C66608   4.434   2.384   2.415 -0.5427  0.5654  0.3036
  494MOL0     C66609   4.308   2.369   2.377  0.4539  1.6744 -0.3265
  494MOL0     C66610   3.883   2.345   2.321  0.4595  0.0478 -0.0936
  494MOL0     C66611   3.807   2.459   2.338 -0.0101  0.5769 -0.3333
  494MOL0     C66612   3.681   2.477   2.276 -0.4624 -0.5048  0.5030
  494MOL0     C66613   3.626   2.371   2.200  0.3872 -1.9723  0.1367
  494MOL0     O66614   3.505   2.378   2.132  0.7606 -0.4969  0.1168
  494MOL0     C66615   3.426   2.502   2.156 -0.1705 -0.2631  0.5272
  494MOL0     C66616   3.293   2.500   2.092  0.3068  0.8369 -0.8965
  494MOL0     C66617   3.229   2.637   2.115  0.0493 -0.5797  0.0789
  494MOL0     C66618   3.089   2.651   2.046  0.0975 -0.5576 -1.0207
  494MOL0     C66619   2.978   2.590   2.126 -0.3176 -0.1514  0.6594
  494MOL0     C66620   2.895   2.547   2.202 -0.3012  1.0053 -0.5971
  494MOL0     C66621   3.698   2.250   2.191 -0.3986 -0.0765  0.4259
  494MOL0     C66622   3.833   2.241   2.236 -0.2439  0.2919  0.6634
  494MOL0     H66623   4.197   2.582   2.630 -1.6779  1.8565 -2.5941
  494MOL0     H66624   4.424   2.596   2.670  2.7769 -2.3571  1.7080
  494MOL0     H66625   4.637   2.629   2.665  0.6993 -0.4320  2.2278
  494MOL0     H66626   4.661   2.460   2.718 -0.4054 -1.9103 -1.1359
  494MOL0     H66627   4.867   2.474   2.544  0.3500 -1.7845  1.7687
  494MOL0     H66628   4.842   2.646   2.569 -0.4725  1.3175  1.1278
  494MOL0     H66629   4.827   2.634   2.818 -0.4856 -0.4140  0.6686
  494MOL0     H66630   4.886   2.473   2.811  0.4802 -0.5034 -0.4839
  494MOL0     H66631   5.092   2.555   2.663  1.7796  0.7249 -0.6249
  494MOL0     H66632   5.036   2.714   2.692  1.2678 -1.2112 -1.3171
  494MOL0     H66633   5.041   2.666   2.949 -0.6898 -0.3216 -0.5947
  494MOL0     H66634   5.144   2.521   2.906  0.7170 -0.2590 -0.3699
  494MOL0     H66635   5.297   2.686   2.795  0.9548  0.2564  1.1128
  494MOL0     H66636   5.215   2.813   2.884  3.2550  0.8970 -0.8221
  494MOL0     H66637   5.360   2.579   2.995 -0.6270 -0.2366 -2.0202
  494MOL0     H66638   5.401   2.745   2.995 -1.6295  2.0473  1.1917
  494MOL0     H66639   5.164   2.654   3.147  1.3086 -0.9939  0.7786
  494MOL0     H66640   5.195   2.821   3.098 -1.9673 -0.3748 -1.9616
  494MOL0     H66641   5.417   2.535   3.247  1.0057  1.4918 -3.2261
  494MOL0     H66642   5.382   2.606   3.632 -2.1170  1.1526 -2.1388
  494MOL0     H66643   5.422   2.475   3.521  2.9586 -0.2408 -3.2840
  494MOL0     H66644   5.672   2.556   3.522 -1.5568 -0.4970 -1.9469
  494MOL0     H66645   5.600   2.530   3.681  1.2962 -1.6525 -1.9776
  494MOL0     H66646   5.575   2.791   3.701  0.0509 -0.8583  0.3667
  494MOL0     H66647   5.642   2.797   3.536  1.2990  1.0454 -0.8246
  494MOL0     H66648   5.813   2.855   3.703 -0.4742  0.2008  0.1151
  494MOL0     H66649   5.862   2.711   3.618  0.7551  0.4469  0.8415
  494MOL0     H66650   5.786   2.508   3.983 -0.2485  0.6742  2.1971
  494MOL0     H66651   5.834   2.410   4.209 -0.2817 -1.1052 -1.1630
  494MOL0     H66652   6.008   2.362   4.190  0.0858 -1.6058 -1.3682
  494MOL0     H66653   5.960   2.508   4.282 -0.5408 -0.7557  0.3013
  494MOL0     H66654   6.285   2.543   4.425  1.0044 -1.3147 -0.8681
  494MOL0     H66655   6.470   2.498   4.571 -0.5976 -0.0004  0.5827
  494MOL0     H66656   6.869   2.616   4.420 -0.8365 -1.1299  0.3328
  494MOL0     H66657   6.843   2.758   4.524  0.7179 -0.3971  2.2327
  494MOL0     H66658   6.930   2.462   4.575 -1.8607 -1.3639  3.7013
  494MOL0     H66659   7.035   2.610   4.573 -0.4898  2.8445  3.8283
  494MOL0     H66660   7.018   2.563   4.801 -0.7917  0.6299  1.9720
  494MOL0     H66661   6.853   2.517   4.795 -1.2960  1.1463  2.8556
  494MOL0     H66662   6.937   2.801   4.753  0.3319  0.3186  0.1991
  494MOL0     H66663   6.774   2.723   4.798  0.3347 -2.5761 -1.1067
  494MOL0     H66664   7.014   2.737   4.991 -0.5769  1.2534  1.9746
  494MOL0     H66665   6.862   2.672   5.017  0.9024 -0.6952  0.3766
  494MOL0     H66666   6.928   2.976   4.953 -1.0020  3.2562  2.1996
  494MOL0     H66667   6.761   2.920   4.967 -1.6458  0.2888  1.9147
  494MOL0     H66668   6.786   2.886   5.203  0.5940  2.2673  0.8321
  494MOL0     H66669   6.863   3.037   5.145  1.3094  0.8600  3.2656
  494MOL0     H66670   7.005   2.941   5.313 -0.8193 -1.5153  0.8888
  494MOL0     H66671   7.091   2.907   5.149 -0.7777  0.3176 -0.0241
  494MOL0     H66672   6.713   2.768   4.334  0.4514 -0.9741  1.0580
  494MOL0     H66673   6.509   2.792   4.172 -3.0727  1.5519  1.6384
  494MOL0     H66674   6.209   2.754   3.956 -0.8792 -0.3640 -0.7259
  494MOL0     H66675   6.037   2.800   3.797  0.9299 -1.4350 -0.8952
  494MOL0     H66676   4.499   2.312   2.365 -2.2035 -1.6674  1.1818
  494MOL0     H66677   4.279   2.304   2.295  0.0326  0.5838  0.6495
  494MOL0     H66678   3.844   2.540   2.400  0.6521  2.0563 -2.5514
  494MOL0     H66679   3.644   2.577   2.299  2.5619  0.4442  1.7484
  494MOL0     H66680   3.416   2.519   2.263 -0.7652 -0.4230  0.5027
  494MOL0     H66681   3.476   2.587   2.108 -1.4792  0.5107  0.4973
  494MOL0     H66682   3.234   2.425   2.145  0.5688  2.0415  1.1965
  494MOL0     H66683   3.302   2.484   1.984 -2.7485  4.8093 -1.9995
  494MOL0     H66684   3.292   2.716   2.073 -0.8341 -1.5692 -3.5033
  494MOL0     H66685   3.228   2.649   2.223  0.1347  0.5854 -0.0379
  494MOL0     H66686   3.090   2.603   1.947  1.2824  0.9227 -1.7674
  494MOL0     H66687   3.062   2.756   2.030 -2.6394 -0.8373  1.1222
  494MOL0     H66688   2.810   2.529   2.265 -0.0394  1.9521  0.0548
  494MOL0     H66689   3.658   2.172   2.127  0.7921  0.0569 -0.5144
  494MOL0     H66690   3.902   2.161   2.213  0.3013  1.6719 -3.3877
  495MOL0     O66691  10.826   4.742   4.704  0.1699  0.1251  0.7896
  495MOL0     C66692  10.888   4.844   4.675  0.0392  0.7573  0.4306
  495MOL0     O66693  11.009   4.859   4.622 -0.4193 -0.1543 -0.0642
  495MOL0     C66694  11.075   4.745   4.577  0.0293 -0.3254 -0.1492
  495MOL0     C66695  11.158   4.672   4.673  2.0230 -0.4295 -0.4019
  495MOL0     C66696  11.227   4.562   4.631 -0.2997  0.1660 -0.3417
  495MOL0     C66697  11.220   4.516   4.499 -0.2847  0.6200 -0.2930
  495MOL0     O66698  11.269   4.395   4.467 -0.1699 -0.2756  0.6680
  495MOL0     C66699  11.297   4.299   4.562 -0.3173 -0.3322 -0.4271
  495MOL0     C66700  11.328   4.170   4.481  0.1282  0.7053  0.1238
  495MOL0     C66701  11.372   4.057   4.575 -0.2934  0.4526 -0.0582
  495MOL0     C66702  11.444   3.945   4.499 -0.0413 -0.6502  0.5941
  495MOL0     C66703  11.485   3.819   4.577  0.0075  0.2801 -0.1581
  495MOL0     C66704  11.356   3.762   4.635 -1.1538  0.1630  0.4151
  495MOL0     C66705  11.372   3.626   4.687  0.4580 -0.3946  0.3560
  495MOL0     C66706  11.224   3.579   4.708  0.1671  0.6921 -1.1326
  495MOL0     N66707  11.164   3.641   4.831  0.6411  0.2520 -0.4773
  495MOL0     C66708  11.223   3.647   4.955  0.1501 -0.0151 -0.3721
  495MOL0     C66709  11.138   3.728   5.025 -0.0531  0.2841 -0.6303
  495MOL0     C66710  11.157   3.768   5.172 -0.2136  0.3307 -0.9550
  495MOL0     C66711  11.043   3.853   5.224 -0.0341 -0.3055  0.7464
  495MOL0     C66712  11.076   3.932   5.345  0.2845 -0.2355 -0.0216
  495MOL0     C66713  11.074   3.851   5.469 -0.2918 -0.7020 -0.1360
  495MOL0     O66714  11.174   3.904   5.556  0.7462 -0.6175  0.2463
  495MOL0     C66715  11.292   3.846   5.571 -0.4970  0.8621  0.9110
  495MOL0     C66716  11.379   3.810   5.465 -0.6273  0.3028  0.8090
  495MOL0     C66717  11.503   3.741   5.489 -0.2630  0.0803 -0.3989
  495MOL0     C66718  11.579   3.698   5.367 -0.5054 -0.0372 -0.6049
  495MOL0     C66719  11.540   3.709   5.625  0.2407 -0.7394  0.5000
  495MOL0     C66720  11.665   3.643   5.671 -0.5117 -0.5168 -0.1387
  495MOL0     O66721  11.750   3.579   5.580 -0.0498 -0.2031 -0.5340
  495MOL0     C66722  11.863   3.534   5.635 -0.4292 -0.0189 -0.1778
  495MOL0     C66723  11.866   3.438   5.737  0.6401 -0.3274  1.1634
  495MOL0     C66724  11.985   3.391   5.788 -0.2671 -0.5987 -0.2289
  495MOL0     C66725  12.106   3.434   5.727  0.1506 -0.3350  0.6917
  495MOL0     O66726  12.233   3.410   5.770 -0.1021 -0.6206 -0.0085
  495MOL0     C66727  12.260   3.349   5.896  0.4873 -0.3900  0.4769
  495MOL0     C66728  12.408   3.371   5.935  0.4549  0.0515 -0.5346
  495MOL0     C66729  12.440   3.269   6.051 -0.0712 -0.2054  0.5960
  495MOL0     C66730  12.589   3.292   6.099 -0.5928 -0.8266 -0.7780
  495MOL0     C66731  12.591   3.422   6.186  0.5077  0.6212  0.1944
  495MOL0     C66732  12.733   3.446   6.241 -0.8476  0.2526  0.8883
  495MOL0     C66733  12.733   3.548   6.346  0.3091 -0.0326  0.0287
  495MOL0     C66734  12.701   3.686   6.297  0.0066 -0.2031 -0.6738
  495MOL0    Cl66735  12.543   3.744   6.323  0.1991 -0.0672 -0.4971
  495MOL0     C66736  12.101   3.509   5.610 -0.7131  1.3973 -0.0435
  495MOL0     C66737  11.981   3.568   5.576  0.7532  0.3467 -0.8212
  495MOL0     O66738  11.683   3.649   5.796 -0.3908  0.0056  1.1180
  495MOL0     C66739  11.445   3.745   5.724 -0.2365 -0.0665  0.6372
  495MOL0     C66740  11.326   3.805   5.698 -0.0014  0.0523  0.6893
  495MOL0     N66741  11.027   3.761   4.948 -0.5833 -0.1602  0.0582
  495MOL0     N66742  11.042   3.696   4.837  0.0069 -1.3644 -0.2537
  495MOL0     C66743  11.147   4.581   4.406  0.4372 -0.4490  0.8862
  495MOL0     C66744  11.077   4.703   4.446 -0.7996 -0.2090  0.6349
  495MOL0     C66745  10.818   4.970   4.709 -0.3852  0.8448  0.6886
  495MOL0     C66746  10.680   4.984   4.715  0.0627  0.2442  0.5556
  495MOL0     C66747  10.623   5.110   4.725  0.1360  0.3176  0.9842
  495MOL0     C66748  10.701   5.222   4.736  0.1332 -0.0301  0.6729
  495MOL0     O66749  10.629   5.336   4.745  0.4975  0.7020  0.3646
  495MOL0     C66750  10.698   5.456   4.718 -0.6633  0.1549  0.1072
  495MOL0     C66751  10.621   5.585   4.722 -0.5291 -0.1353  0.6748
  495MOL0     C66752  10.524   5.595   4.612 -0.0767  0.3449  0.2552
  495MOL0     C66753  10.571   5.628   4.460  0.4511 -0.8528 -1.4130
  495MOL0     C66754  10.450   5.621   4.378  1.6759  0.5979  0.3642
  495MOL0     C66755  10.345   5.616   4.314 -0.4799 -0.1069 -0.0542
  495MOL0     C66756  10.845   5.216   4.733 -0.0218 -0.2446  0.1914
  495MOL0     C66757  10.899   5.090   4.717  1.0580  0.1738 -0.1141
  495MOL0     H66758  11.152   4.707   4.775 -1.3631 -0.1398 -0.5702
  495MOL0     H66759  11.275   4.498   4.704  0.0954  0.7040 -0.1236
  495MOL0     H66760  11.377   4.325   4.631 -0.2657 -1.2230 -0.1417
  495MOL0     H66761  11.207   4.280   4.622 -1.0492 -2.2793 -2.0202
  495MOL0     H66762  11.238   4.153   4.421 -1.5373 -0.3531  2.7731
  495MOL0     H66763  11.411   4.192   4.412 -0.1499  0.8757 -0.1605
  495MOL0     H66764  11.444   4.091   4.650  1.8635  1.3259 -2.3900
  495MOL0     H66765  11.286   4.022   4.633  1.5234 -1.6816  1.4777
  495MOL0     H66766  11.408   3.933   4.396 -0.0855  0.7132  0.4307
  495MOL0     H66767  11.541   3.992   4.481 -0.3682  0.4759  1.6619
  495MOL0     H66768  11.528   3.754   4.500  1.3543  0.8774  0.0739
  495MOL0     H66769  11.566   3.835   4.649 -1.5289  1.6273  1.3792
  495MOL0     H66770  11.320   3.833   4.710  0.0884 -0.6266  1.8280
  495MOL0     H66771  11.299   3.757   4.542  0.6666 -3.4509 -0.6855
  495MOL0     H66772  11.415   3.565   4.607  1.0026 -0.1966  0.4942
  495MOL0     H66773  11.428   3.614   4.781 -1.3783 -1.5390  1.3697
  495MOL0     H66774  11.214   3.470   4.722 -0.8756  0.8578 -0.4497
  495MOL0     H66775  11.162   3.599   4.620 -0.8701 -0.1795 -0.6240
  495MOL0     H66776  11.306   3.593   4.998  2.6121  2.5402 -1.6159
  495MOL0     H66777  11.162   3.685   5.243 -2.6111  1.4677  0.6781
  495MOL0     H66778  11.248   3.829   5.161 -1.0133  1.5658 -0.8801
  495MOL0     H66779  10.955   3.788   5.230  0.7384 -1.7863 -2.2717
  495MOL0     H66780  11.022   3.929   5.148  1.1567 -1.8110 -1.1716
  495MOL0     H66781  11.005   4.014   5.335 -3.4380 -3.4169 -2.9719
  495MOL0     H66782  11.173   3.981   5.335 -0.1136  0.6059  0.2040
  495MOL0     H66783  11.098   3.748   5.444  1.0923 -0.3276 -0.4683
  495MOL0     H66784  10.976   3.847   5.517  0.0981 -3.6521  0.6052
  495MOL0     H66785  11.346   3.839   5.366  0.3235  1.1123  0.7093
  495MOL0     H66786  11.682   3.734   5.375 -0.0104 -1.6630  0.9910
  495MOL0     H66787  11.565   3.591   5.349 -0.5425 -0.2613  0.6698
  495MOL0     H66788  11.546   3.733   5.269 -1.1487  0.1233 -0.3403
  495MOL0     H66789  11.772   3.406   5.782  0.5439  1.4268  2.2883
  495MOL0     H66790  11.979   3.320   5.870 -0.1577  0.7831  1.0224
  495MOL0     H66791  12.189   3.396   5.964 -0.9218  2.2598 -2.5312
  495MOL0     H66792  12.235   3.243   5.895 -1.4699 -0.0847  3.5065
  495MOL0     H66793  12.466   3.341   5.848 -1.3873 -0.6838 -1.5819
  495MOL0     H66794  12.441   3.473   5.954 -1.0879  0.4797 -0.0103
  495MOL0     H66795  12.440   3.166   6.012  0.2748  0.0513 -0.0876
  495MOL0     H66796  12.367   3.284   6.131 -0.0538  2.4171  0.1864
  495MOL0     H66797  12.620   3.211   6.165 -0.7762  0.6489  1.2193
  495MOL0     H66798  12.659   3.304   6.015 -2.2742  3.8181 -1.8498
  495MOL0     H66799  12.519   3.421   6.268  0.4340 -0.6427  0.1382
  495MOL0     H66800  12.570   3.510   6.124 -0.3354  0.4950  0.2935
  495MOL0     H66801  12.751   3.345   6.278  0.5593  0.0766 -0.2040
  495MOL0     H66802  12.804   3.465   6.160 -0.0723 -2.9579  0.6909
  495MOL0     H66803  12.834   3.546   6.388 -0.2415  0.6805  1.4794
  495MOL0     H66804  12.669   3.522   6.431  1.1447  0.2771  0.7637
  495MOL0     H66805  12.729   3.694   6.192  1.4962  1.9236 -0.1666
  495MOL0     H66806  12.768   3.757   6.345 -0.5375 -0.4232  0.4504
  495MOL0     H66807  12.192   3.542   5.562  2.5352 -0.8406  3.9852
  495MOL0     H66808  11.984   3.630   5.486  0.5225  1.2130 -0.2472
  495MOL0     H66809  11.468   3.720   5.827 -2.2922  0.3873  1.2493
  495MOL0     H66810  11.259   3.830   5.779 -0.3190 -1.2274  0.8412
  495MOL0     H66811  11.141   4.545   4.304 -1.1700 -0.9703  1.1260
  495MOL0     H66812  11.017   4.756   4.373 -0.8046  0.8841  1.4103
  495MOL0     H66813  10.620   4.894   4.708 -2.3478  1.9324 -2.4349
  495MOL0     H66814  10.515   5.105   4.719  0.2326 -2.5320  0.3775
  495MOL0     H66815  10.769   5.458   4.802 -3.1656 -0.0513  2.3364
  495MOL0     H66816  10.754   5.453   4.624  0.6442 -1.9660  0.8613
  495MOL0     H66817  10.695   5.664   4.707  2.5773 -2.8744  0.4419
  495MOL0     H66818  10.572   5.598   4.819 -2.1735 -0.0641 -0.1333
  495MOL0     H66819  10.448   5.667   4.643  0.1738  0.1948  1.2765
  495MOL0     H66820  10.474   5.497   4.612 -1.4816  1.0255  0.9080
  495MOL0     H66821  10.654   5.565   4.429 -0.2691 -1.7358 -1.5654
  495MOL0     H66822  10.614   5.729   4.465  1.4786 -1.3426  1.0702
  495MOL0     H66823  10.261   5.593   4.252 -0.0512 -3.3400  0.3709
  495MOL0     H66824  10.907   5.304   4.749  0.7414 -0.6388 -0.5290
  495MOL0     H66825  11.007   5.083   4.729  1.8100  3.9106 -2.9271
  496MOL0     O66826   2.862   5.152   2.269  0.5550 -0.4530 -0.3830
  496MOL0     C66827   2.912   5.224   2.181  0.8849 -0.0230  0.7202
  496MOL0     O66828   2.851   5.246   2.063 -0.1096 -0.1792  0.1709
  496MOL0     C66829   2.726   5.195   2.037  0.2552 -1.0871  0.0212
  496MOL0     C66830   2.616   5.279   2.074  0.3800 -0.4200 -1.1876
  496MOL0     C66831   2.485   5.236   2.043  0.0776  0.5135 -0.5682
  496MOL0     C66832   2.461   5.116   1.983  0.5760  0.3136  0.0771
  496MOL0     O66833   2.334   5.061   1.968 -0.0222 -0.2336  0.5848
  496MOL0     C66834   2.207   5.141   1.956 -0.2003 -0.8250 -0.1066
  496MOL0     C66835   2.090   5.057   1.908 -0.6358 -0.7856  0.0442
  496MOL0     C66836   2.081   4.921   1.983 -0.0270  1.6736  0.7330
  496MOL0     C66837   2.151   4.810   1.891  0.5048 -1.2930 -0.5890
  496MOL0     C66838   2.158   4.667   1.943  0.7218  0.7293 -0.1035
  496MOL0     C66839   2.018   4.606   1.957  0.0251  0.2776  0.3589
  496MOL0     C66840   2.009   4.462   1.898 -0.2598 -0.4473  0.0545
  496MOL0     C66841   2.026   4.440   1.748 -0.9664  0.5725 -0.4175
  496MOL0     N66842   2.165   4.418   1.709 -0.7734  1.0200 -0.0129
  496MOL0     C66843   2.241   4.309   1.738 -0.5147 -0.5380  0.2863
  496MOL0     C66844   2.361   4.329   1.672  0.2179 -0.6086 -0.8522
  496MOL0     C66845   2.468   4.232   1.679 -0.0471 -0.4802 -0.5257
  496MOL0     C66846   2.531   4.214   1.537 -0.1169 -1.1519  0.0038
  496MOL0     C66847   2.644   4.108   1.527  0.2790 -0.6796 -0.1147
  496MOL0     C66848   2.711   4.083   1.651 -0.1008  0.1202 -0.1662
  496MOL0     O66849   2.784   4.190   1.704 -0.1821  0.3130 -0.2407
  496MOL0     C66850   2.908   4.232   1.657 -0.5188  0.9377 -0.5020
  496MOL0     C66851   2.966   4.352   1.701 -0.5538  0.5063 -0.2522
  496MOL0     C66852   3.096   4.387   1.659  0.6129  1.0344 -0.3113
  496MOL0     C66853   3.148   4.503   1.731  0.0126 -0.2062  0.4222
  496MOL0     C66854   3.173   4.309   1.560  0.3119 -0.5237 -0.4164
  496MOL0     C66855   3.307   4.355   1.498  0.0559 -0.1101  0.0998
  496MOL0     O66856   3.398   4.257   1.481 -0.3725  0.1895  0.8079
  496MOL0     C66857   3.517   4.291   1.424  0.2545 -0.2190 -0.4250
  496MOL0     C66858   3.547   4.245   1.301  0.7168 -0.9422 -0.1113
  496MOL0     C66859   3.672   4.278   1.244 -0.2100  0.0278 -0.3554
  496MOL0     C66860   3.780   4.340   1.326  0.4266 -0.2646  0.8571
  496MOL0     O66861   3.904   4.367   1.279  0.3332  0.2309  0.5387
  496MOL0     C66862   3.916   4.356   1.138  0.0778 -0.0936 -0.0800
  496MOL0     C66863   4.057   4.395   1.104 -0.6005  0.0348  0.4413
  496MOL0     C66864   4.088   4.548   1.139  0.1298 -0.3887 -0.7919
  496MOL0     C66865   3.989   4.645   1.082  0.9674  0.6905 -0.1548
  496MOL0     C66866   4.062   4.783   1.070  0.3441  1.0410  0.2074
  496MOL0     C66867   3.955   4.891   1.062 -0.0831  0.7358 -0.6877
  496MOL0     C66868   4.020   5.005   0.982 -0.4673 -0.1617  0.1980
  496MOL0     C66869   4.114   5.085   1.068  0.0575  0.7925 -0.1200
  496MOL0    Cl66870   4.158   5.241   0.989  0.3993  0.0578  0.0999
  496MOL0     C66871   3.742   4.369   1.458  0.3022 -0.8217  0.6557
  496MOL0     C66872   3.614   4.360   1.501  0.5342 -0.4426 -0.0996
  496MOL0     O66873   3.325   4.473   1.478 -0.3045  0.3832 -0.1136
  496MOL0     C66874   3.113   4.191   1.531  0.5363  0.4672  0.4869
  496MOL0     C66875   2.981   4.152   1.573  0.3772  0.6381  0.8916
  496MOL0     N66876   2.354   4.452   1.612  1.0249  0.7188  0.5163
  496MOL0     N66877   2.230   4.495   1.617  0.3843 -0.0778  0.0229
  496MOL0     C66878   2.569   5.034   1.945  1.1930  0.2527  0.4767
  496MOL0     C66879   2.699   5.082   1.963  0.1684 -0.8417 -0.7070
  496MOL0     C66880   3.038   5.291   2.222 -0.1008  0.2760 -0.7763
  496MOL0     C66881   3.101   5.373   2.132 -0.4016  0.2287  0.3904
  496MOL0     C66882   3.216   5.447   2.157 -0.9103  0.8076  0.7978
  496MOL0     C66883   3.276   5.441   2.286 -0.0361  0.0710 -0.0927
  496MOL0     O66884   3.394   5.510   2.322 -0.2061  0.1846  0.3724
  496MOL0     C66885   3.465   5.580   2.220  0.2245  0.0748 -0.2384
  496MOL0     C66886   3.555   5.489   2.135 -0.7834 -0.4692  0.8539
  496MOL0     C66887   3.659   5.390   2.201 -0.6526 -0.1488 -0.7429
  496MOL0     C66888   3.736   5.483   2.304  0.3863  0.4990  0.6097
  496MOL0     C66889   3.842   5.405   2.367  0.0853  0.6798 -0.3233
  496MOL0     C66890   3.958   5.368   2.378 -0.5454 -0.2366  0.4880
  496MOL0     C66891   3.219   5.347   2.385 -1.2658 -0.5981 -0.0727
  496MOL0     C66892   3.102   5.282   2.350 -0.3944  0.5049 -0.0676
  496MOL0     H66893   2.648   5.369   2.127  2.0106 -0.4965 -1.9698
  496MOL0     H66894   2.393   5.285   2.075 -1.9055 -0.5252 -4.1668
  496MOL0     H66895   2.182   5.199   2.045 -0.3218 -1.4333  0.2633
  496MOL0     H66896   2.229   5.221   1.884  2.9035  1.8281  3.4016
  496MOL0     H66897   1.995   5.110   1.921  1.2260  2.0900  3.4194
  496MOL0     H66898   2.101   5.033   1.802  0.5961  1.2038 -0.3366
  496MOL0     H66899   2.145   4.925   2.071  4.0240 -1.2094 -1.7523
  496MOL0     H66900   1.979   4.893   2.012 -0.3998 -0.3861 -2.0938
  496MOL0     H66901   2.094   4.796   1.798 -2.5539 -2.0893  1.2621
  496MOL0     H66902   2.255   4.834   1.865 -0.4680  1.0707 -2.7683
  496MOL0     H66903   2.210   4.598   1.875 -1.0442 -1.2315  0.3964
  496MOL0     H66904   2.214   4.669   2.036  0.1379  2.9835  0.2657
  496MOL0     H66905   1.994   4.599   2.064  1.2991 -0.6408  0.6109
  496MOL0     H66906   1.935   4.655   1.906 -0.2323 -2.5805 -2.2489
  496MOL0     H66907   2.081   4.398   1.950  1.4528  2.3014  1.3246
  496MOL0     H66908   1.907   4.430   1.923 -0.5907 -0.9725 -1.8442
  496MOL0     H66909   1.978   4.520   1.691 -2.3336 -1.3999 -2.1986
  496MOL0     H66910   1.963   4.353   1.728  0.7879 -0.7348 -0.4669
  496MOL0     H66911   2.211   4.222   1.794  0.7859 -0.4697  1.1276
  496MOL0     H66912   2.536   4.272   1.754 -1.5825  0.8803  0.1963
  496MOL0     H66913   2.417   4.142   1.716 -3.2542  1.6651  0.7021
  496MOL0     H66914   2.573   4.314   1.522 -0.3435 -0.8907  1.0247
  496MOL0     H66915   2.460   4.197   1.457  0.2979  0.0023 -0.6376
  496MOL0     H66916   2.712   4.140   1.447 -2.1523  2.0927 -1.2535
  496MOL0     H66917   2.608   4.017   1.478 -1.1599 -0.9022  1.3152
  496MOL0     H66918   2.775   3.995   1.651 -0.4718 -0.1767  1.4694
  496MOL0     H66919   2.630   4.055   1.719 -2.1346  2.3800 -1.4796
  496MOL0     H66920   2.918   4.402   1.785 -1.4362 -1.7693  0.6849
  496MOL0     H66921   3.246   4.474   1.769  0.3499  1.0426  0.5301
  496MOL0     H66922   3.153   4.577   1.650 -3.2730  0.2169  0.4691
  496MOL0     H66923   3.091   4.534   1.819  0.2981 -1.9036  1.2397
  496MOL0     H66924   3.480   4.179   1.248 -0.2707  1.3032 -1.7903
  496MOL0     H66925   3.691   4.259   1.139  1.0658  0.5028 -0.2320
  496MOL0     H66926   3.904   4.252   1.106 -2.1500  0.2862 -0.6054
  496MOL0     H66927   3.852   4.428   1.086 -2.7013 -0.8252  2.1041
  496MOL0     H66928   4.119   4.332   1.168 -0.1599  0.2715  0.2513
  496MOL0     H66929   4.072   4.381   0.997  1.8092  1.3365  0.5420
  496MOL0     H66930   4.191   4.568   1.109  0.4502  0.0318  0.5225
  496MOL0     H66931   4.079   4.576   1.245 -1.3330  1.0522 -1.2511
  496MOL0     H66932   3.944   4.613   0.987  0.9178 -1.4341  0.5314
  496MOL0     H66933   3.902   4.646   1.149 -0.3375  2.5335 -1.7431
  496MOL0     H66934   4.107   4.780   0.971 -1.9325 -1.5934 -0.8652
  496MOL0     H66935   4.129   4.791   1.157 -1.2092 -1.3884  1.7578
  496MOL0     H66936   3.865   4.846   1.018  0.2127 -0.8009  0.1769
  496MOL0     H66937   3.938   4.912   1.168  1.2431 -4.2891  0.8389
  496MOL0     H66938   3.932   5.061   0.951 -1.0612 -0.2211  1.6918
  496MOL0     H66939   4.064   4.961   0.892  1.1655 -2.3291  1.9504
  496MOL0     H66940   4.203   5.023   1.082 -0.0202  1.2518  3.3342
  496MOL0     H66941   4.070   5.104   1.167 -1.7867  1.8057 -1.0878
  496MOL0     H66942   3.815   4.422   1.518  1.6584  0.7911 -2.1867
  496MOL0     H66943   3.590   4.387   1.604 -4.0997  1.4361 -1.4048
  496MOL0     H66944   3.172   4.137   1.457  1.6969 -0.1149  1.7798
  496MOL0     H66945   2.942   4.054   1.549 -2.1570  0.6497  4.2376
  496MOL0     H66946   2.558   4.934   1.904  1.0577  0.0639  0.9555
  496MOL0     H66947   2.782   5.025   1.920  1.6672 -1.3693  2.6028
  496MOL0     H66948   3.066   5.388   2.030  3.2826  2.3624 -0.7225
  496MOL0     H66949   3.271   5.485   2.072  1.3156 -1.0304  1.3221
  496MOL0     H66950   3.395   5.624   2.148 -0.2306  1.1363  0.8333
  496MOL0     H66951   3.522   5.660   2.269 -0.8828  0.9886 -0.4133
  496MOL0     H66952   3.616   5.560   2.078 -0.6519  1.2666  3.0465
  496MOL0     H66953   3.485   5.434   2.071 -2.6497  0.2878  2.1589
  496MOL0     H66954   3.731   5.340   2.136 -1.6594  0.7675 -2.6379
  496MOL0     H66955   3.597   5.314   2.249  0.9724 -1.7264 -1.0111
  496MOL0     H66956   3.664   5.506   2.384 -4.1941 -0.9640 -2.6948
  496MOL0     H66957   3.769   5.578   2.260  1.5030  0.8164  2.0415
  496MOL0     H66958   4.059   5.334   2.378 -0.3522  0.1973 -1.6748
  496MOL0     H66959   3.268   5.354   2.482  2.9626  0.1357 -2.0429
  496MOL0     H66960   3.049   5.210   2.411 -2.9730  2.8778  0.7133
  497MOL0     O66961   2.971   4.828   6.048  0.4503 -0.4535 -0.3884
  497MOL0     C66962   3.058   4.857   6.133 -0.1342  0.7098  0.1044
  497MOL0     O66963   3.041   4.951   6.234 -0.9023  0.3401 -0.3356
  497MOL0     C66964   2.919   4.990   6.277 -0.2243  0.3689 -0.0894
  497MOL0     C66965   2.905   4.990   6.419 -0.1045 -0.1220  0.2307
  497MOL0     C66966   2.793   5.051   6.481  0.7485  0.1808  0.6600
  497MOL0     C66967   2.693   5.104   6.405 -0.3462 -0.4016  0.6376
  497MOL0     O66968   2.590   5.169   6.471 -0.4093 -0.5700  0.7256
  497MOL0     C66969   2.485   5.224   6.392  0.0373  0.3536 -0.8613
  497MOL0     C66970   2.395   5.268   6.507 -0.0143  0.1171  0.0705
  497MOL0     C66971   2.267   5.331   6.458  0.2903  0.2080 -0.4988
  497MOL0     C66972   2.167   5.372   6.572 -0.4097  0.2145 -0.5912
  497MOL0     C66973   2.021   5.401   6.537 -0.0624 -0.8985 -0.6641
  497MOL0     C66974   2.025   5.535   6.467  0.3654  0.5845 -0.1755
  497MOL0     C66975   1.885   5.572   6.422 -0.0054 -0.1058  0.6755
  497MOL0     C66976   1.869   5.722   6.399  0.1615  0.2654 -0.4450
  497MOL0     N66977   1.730   5.764   6.350  0.4651  0.6122  0.0886
  497MOL0     C66978   1.707   5.792   6.225 -0.1496 -0.2870  0.7191
  497MOL0     C66979   1.581   5.842   6.226 -0.1532 -0.2494 -0.1586
  497MOL0     C66980   1.515   5.900   6.107  0.4162  0.5503 -0.7729
  497MOL0     C66981   1.357   5.882   6.110 -1.0139 -0.0981 -0.5967
  497MOL0     C66982   1.308   5.744   6.087 -0.2593  0.4169  0.6422
  497MOL0     C66983   1.154   5.728   6.070  0.0124  0.1143 -0.3097
  497MOL0     O66984   1.096   5.847   6.002 -0.0636  0.3768 -0.2782
  497MOL0     C66985   0.965   5.871   5.983  0.0375 -0.8259 -0.4285
  497MOL0     C66986   0.857   5.783   6.011 -1.0891 -0.0130  0.4647
  497MOL0     C66987   0.724   5.825   5.989  0.2595  0.3434 -0.3238
  497MOL0     C66988   0.620   5.723   6.050  0.2155 -0.1728  0.1398
  497MOL0     C66989   0.695   5.958   5.947 -0.3244  1.0710  0.1947
  497MOL0     C66990   0.559   6.005   5.918  1.1092 -0.6073 -0.5810
  497MOL0     O66991   0.543   6.126   5.861 -0.6439 -0.0910 -0.5970
  497MOL0     C66992   0.421   6.182   5.864  0.3730  0.6676 -0.4646
  497MOL0     C66993   0.357   6.199   5.988  0.2822 -0.3403 -0.4108
  497MOL0     C66994   0.233   6.269   6.003 -0.4669  0.3055  0.9934
  497MOL0     C66995   0.171   6.324   5.887 -0.9810 -0.7019  0.6198
  497MOL0     O66996   0.043   6.382   5.891 -0.2290 -0.3458  0.0133
  497MOL0     C66997  -0.024   6.418   5.765 -0.2128  0.3522  0.4248
  497MOL0     C66998  -0.175   6.423   5.793 -0.9474 -0.0024  0.5681
  497MOL0     C66999  -0.216   6.551   5.866  0.2329 -0.6700 -0.0451
  497MOL0     C67000  -0.365   6.580   5.858  0.5223 -0.0964  0.0280
  497MOL0     C67001  -0.403   6.709   5.924 -0.3949  0.0800  0.0486
  497MOL0     C67002  -0.548   6.735   5.886 -0.2527  0.8145  0.2702
  497MOL0     C67003  -0.596   6.846   5.976 -0.2666 -0.0589 -1.0285
  497MOL0     C67004  -0.751   6.824   5.989  0.8133  0.5498 -0.4953
  497MOL0    Cl67005  -0.837   6.984   6.028  0.0422  0.1079 -0.1848
  497MOL0     C67006   0.240   6.311   5.762 -0.5872 -0.0816 -0.3192
  497MOL0     C67007   0.364   6.250   5.751 -0.8294 -0.4477  0.0381
  497MOL0     O67008   0.464   5.941   5.946  0.2318  0.7456  0.0592
  497MOL0     C67009   0.809   6.040   5.927  0.0243 -0.2932  0.7031
  497MOL0     C67010   0.939   6.002   5.944 -0.3197 -0.8756 -0.0322
  497MOL0     N67011   1.526   5.818   6.350  0.3323  0.6596  0.3523
  497MOL0     N67012   1.612   5.764   6.421 -1.1044  0.2084  0.0577
  497MOL0     C67013   2.700   5.091   6.259  0.4318  0.2467 -1.4476
  497MOL0     C67014   2.809   5.033   6.201  0.1660 -0.0032 -0.3501
  497MOL0     C67015   3.186   4.782   6.123  0.2973 -0.1467 -0.1323
  497MOL0     C67016   3.291   4.806   6.213 -1.0359  0.1418  0.2131
  497MOL0     C67017   3.416   4.754   6.180  0.4798 -0.6948 -0.5604
  497MOL0     C67018   3.447   4.672   6.069  0.5417  0.5324  0.0026
  497MOL0     O67019   3.564   4.633   6.023  0.1292  0.5338  0.4860
  497MOL0     C67020   3.678   4.657   6.107 -1.0337  0.5826 -0.1708
  497MOL0     C67021   3.786   4.568   6.070  0.2248  0.0512  0.6734
  497MOL0     C67022   3.879   4.619   5.959  0.5921 -0.0650 -0.8274
  497MOL0     C67023   3.809   4.701   5.847 -0.5871  0.0248 -0.0224
  497MOL0     C67024   3.910   4.763   5.772 -0.1895 -0.6062  0.4590
  497MOL0     C67025   3.987   4.842   5.714 -0.5871  0.4860  0.7819
  497MOL0     C67026   3.337   4.637   5.991  0.0226  0.4346 -0.5098
  497MOL0     C67027   3.215   4.688   6.025 -0.4953  0.7516  0.9516
  497MOL0     H67028   2.990   4.956   6.478 -0.3114 -2.0282 -0.4974
  497MOL0     H67029   2.789   5.065   6.589  4.4986  0.4944  0.9112
  497MOL0     H67030   2.509   5.314   6.334 -1.8207  1.9179  0.6589
  497MOL0     H67031   2.444   5.144   6.330  0.6770  0.5882 -1.5994
  497MOL0     H67032   2.359   5.187   6.571 -3.4760  1.1577 -0.3880
  497MOL0     H67033   2.449   5.341   6.568  0.7685 -0.7391  0.4327
  497MOL0     H67034   2.290   5.423   6.402  3.5267  0.2221  0.6069
  497MOL0     H67035   2.220   5.262   6.387  0.0530  2.5454 -2.7580
  497MOL0     H67036   2.160   5.289   6.642 -0.6598 -0.6290 -1.5978
  497MOL0     H67037   2.217   5.452   6.627  0.5061  0.4240 -1.6691
  497MOL0     H67038   1.967   5.331   6.473  1.3306 -0.3621 -2.5207
  497MOL0     H67039   1.969   5.409   6.633  1.9799 -0.3977  0.4660
  497MOL0     H67040   2.063   5.615   6.532 -0.7574  2.5908 -1.8640
  497MOL0     H67041   2.092   5.521   6.381 -0.9714 -0.4747 -1.0860
  497MOL0     H67042   1.856   5.507   6.339  2.2588 -0.7187  0.2775
  497MOL0     H67043   1.821   5.545   6.506  0.9779 -2.0000  0.8787
  497MOL0     H67044   1.933   5.763   6.320 -0.9187 -1.2190 -2.2086
  497MOL0     H67045   1.891   5.773   6.493  0.1754 -1.8245  0.7453
  497MOL0     H67046   1.773   5.780   6.140 -0.9610  1.5816 -0.2269
  497MOL0     H67047   1.537   6.007   6.105 -0.4117  0.7159 -1.7785
  497MOL0     H67048   1.553   5.858   6.014  1.6262 -0.3435  0.0797
  497MOL0     H67049   1.318   5.954   6.038  1.4021  0.3422 -1.5730
  497MOL0     H67050   1.337   5.920   6.211 -0.8796 -0.0518 -0.5871
  497MOL0     H67051   1.332   5.683   6.174 -1.6692 -0.0879  0.7141
  497MOL0     H67052   1.363   5.702   6.003  0.5368 -2.8035  2.5853
  497MOL0     H67053   1.107   5.729   6.169 -0.7037 -1.0371 -0.6159
  497MOL0     H67054   1.110   5.638   6.025 -0.7480  0.3054  0.0381
  497MOL0     H67055   0.894   5.684   6.037  1.2544  0.9996  1.2776
  497MOL0     H67056   0.595   5.674   5.956 -0.7974 -0.9311  0.7850
  497MOL0     H67057   0.664   5.648   6.116  0.4530  0.7681  1.0749
  497MOL0     H67058   0.543   5.775   6.108 -0.4528 -0.6461 -0.3106
  497MOL0     H67059   0.407   6.159   6.076 -3.1891 -0.3339  1.7989
  497MOL0     H67060   0.186   6.289   6.099 -0.7825  1.4571  0.6151
  497MOL0     H67061   0.019   6.516   5.741 -0.6412  0.5670  0.5264
  497MOL0     H67062  -0.003   6.354   5.679 -0.0649 -1.2223  1.5901
  497MOL0     H67063  -0.221   6.426   5.694  0.0979 -4.0736 -0.2265
  497MOL0     H67064  -0.200   6.336   5.855 -1.0101 -0.5209 -0.1678
  497MOL0     H67065  -0.151   6.634   5.838  0.6441 -0.0340  2.5509
  497MOL0     H67066  -0.190   6.536   5.971  1.0728  2.5387  0.3082
  497MOL0     H67067  -0.385   6.584   5.751 -2.1737  0.0611  0.4883
  497MOL0     H67068  -0.427   6.497   5.891  0.1848 -0.0223 -0.4121
  497MOL0     H67069  -0.331   6.787   5.898  1.0655 -1.2313  0.0106
  497MOL0     H67070  -0.401   6.709   6.034 -3.0963  1.4207  0.1788
  497MOL0     H67071  -0.554   6.762   5.780 -1.6994 -1.3578 -0.2527
  497MOL0     H67072  -0.600   6.640   5.898  0.7742  0.2262  0.2318
  497MOL0     H67073  -0.567   6.937   5.923  3.0882  0.3038  1.0946
  497MOL0     H67074  -0.555   6.860   6.077 -2.1512 -0.1458 -0.2139
  497MOL0     H67075  -0.780   6.751   6.065 -0.5480 -0.6167 -2.0731
  497MOL0     H67076  -0.790   6.783   5.896  3.1474 -2.0506 -0.4499
  497MOL0     H67077   0.215   6.375   5.678  1.4869  0.7810 -0.3189
  497MOL0     H67078   0.423   6.266   5.661  2.5902 -1.7461  1.8768
  497MOL0     H67079   0.794   6.143   5.893  0.6701 -0.8260 -1.3909
  497MOL0     H67080   1.012   6.081   5.931  0.3110 -1.4932 -0.3181
  497MOL0     H67081   2.614   5.128   6.204 -1.1674  1.2613  1.5637
  497MOL0     H67082   2.820   5.035   6.093 -1.0305 -0.3431 -0.4870
  497MOL0     H67083   3.287   4.860   6.307  2.8631  1.0747  0.0226
  497MOL0     H67084   3.492   4.779   6.253 -1.5254  0.5042  1.2493
  497MOL0     H67085   3.709   4.762   6.112 -1.4381  0.6491  2.6359
  497MOL0     H67086   3.647   4.634   6.209 -1.3212 -1.3639 -0.6617
  497MOL0     H67087   3.741   4.475   6.036  1.9888  0.4062 -3.1976
  497MOL0     H67088   3.840   4.531   6.157 -2.6400 -2.7922  1.4051
  497MOL0     H67089   3.944   4.539   5.924  3.5950  2.2436 -0.9516
  497MOL0     H67090   3.947   4.685   6.014  0.0874 -0.4893  0.3423
  497MOL0     H67091   3.738   4.775   5.886  0.3233  0.3343  1.0702
  497MOL0     H67092   3.752   4.622   5.796  1.4343 -1.8595  0.5102
  497MOL0     H67093   4.048   4.914   5.663  0.3192 -0.6690  0.1762
  497MOL0     H67094   3.354   4.566   5.911 -2.2437  0.6502 -1.2723
  497MOL0     H67095   3.133   4.644   5.970  0.7255  1.0372 -1.2068
  498MOL0     O67096   1.456   0.633   1.123 -0.4023  0.2333 -0.4776
  498MOL0     C67097   1.476   0.750   1.149  0.1966 -0.7876 -0.3686
  498MOL0     O67098   1.579   0.832   1.110  0.1035  0.2177 -0.4066
  498MOL0     C67099   1.671   0.774   1.026 -1.0024 -0.3608 -0.1277
  498MOL0     C67100   1.804   0.770   1.073  0.0070 -0.3539  0.9042
  498MOL0     C67101   1.904   0.732   0.984 -0.2634 -0.9777  0.2518
  498MOL0     C67102   1.879   0.694   0.856  0.1168 -0.0613 -0.3787
  498MOL0     O67103   1.990   0.665   0.785  0.9832 -0.7096  0.3759
  498MOL0     C67104   1.958   0.585   0.663 -0.1821 -0.1685 -0.9418
  498MOL0     C67105   2.084   0.570   0.588 -0.1548 -0.4638 -0.0887
  498MOL0     C67106   2.186   0.482   0.663  0.4116 -0.4251 -0.2777
  498MOL0     C67107   2.314   0.462   0.581  0.9523  0.0114  0.4400
  498MOL0     C67108   2.426   0.573   0.592  0.0038 -0.2947 -0.1877
  498MOL0     C67109   2.530   0.531   0.491 -1.7836 -0.3203 -0.0962
  498MOL0     C67110   2.651   0.617   0.494 -0.1711  0.2363 -0.0078
  498MOL0     C67111   2.632   0.751   0.434 -0.0387  0.3800 -0.2710
  498MOL0     N67112   2.754   0.817   0.397 -0.8066 -0.7450 -0.6075
  498MOL0     C67113   2.866   0.805   0.482 -0.2703  0.2037  0.5541
  498MOL0     C67114   2.969   0.842   0.396 -0.6997 -0.4066 -0.8739
  498MOL0     C67115   3.111   0.856   0.448  1.1248 -0.5109  0.3775
  498MOL0     C67116   3.185   0.730   0.405 -1.0585 -0.2531 -0.1406
  498MOL0     C67117   3.205   0.710   0.255  0.4426  0.4516  0.2627
  498MOL0     C67118   3.339   0.643   0.222  0.7360 -0.1349  0.6148
  498MOL0     O67119   3.362   0.515   0.277  0.0078  0.2380  0.2948
  498MOL0     C67120   3.490   0.457   0.265  0.2155 -0.1568 -0.3797
  498MOL0     C67121   3.520   0.333   0.320  0.6710  0.3971  0.4194
  498MOL0     C67122   3.642   0.264   0.306 -0.2386  0.1101 -0.3805
  498MOL0     C67123   3.648   0.120   0.356 -0.8040 -0.3417  0.3402
  498MOL0     C67124   3.742   0.319   0.229  0.8911  0.1893 -0.2202
  498MOL0     C67125   3.865   0.256   0.197 -0.0654  2.3103  0.3802
  498MOL0     O67126   3.933   0.188   0.297  0.0076 -0.8431  1.1410
  498MOL0     C67127   4.056   0.156   0.269  0.1514 -0.4194 -0.1136
  498MOL0     C67128   4.159   0.246   0.234 -0.5405 -0.6230  0.3304
  498MOL0     C67129   4.290   0.200   0.231 -1.0719  1.0182 -1.1175
  498MOL0     C67130   4.325   0.070   0.268 -0.2172 -0.9313 -0.0023
  498MOL0     O67131   4.459   0.027   0.277 -0.1379 -0.1690  0.7042
  498MOL0     C67132   4.488  -0.078   0.374 -1.1019  0.9007  0.6375
  498MOL0     C67133   4.617  -0.067   0.447  0.2429  0.4534 -1.0715
  498MOL0     C67134   4.740  -0.104   0.364 -0.7414 -0.6632  0.6177
  498MOL0     C67135   4.773  -0.244   0.344  0.2013  0.2347 -0.1700
  498MOL0     C67136   4.927  -0.263   0.297  0.7243 -0.0190 -0.3678
  498MOL0     C67137   4.948  -0.415   0.282  0.1806 -0.2046 -0.5362
  498MOL0     C67138   5.085  -0.460   0.222 -0.7895  0.8414 -0.0029
  498MOL0     C67139   5.202  -0.413   0.316 -0.0784 -0.8747  0.5828
  498MOL0    Cl67140   5.208  -0.511   0.459 -0.1134 -0.4888 -0.2260
  498MOL0     C67141   4.218  -0.018   0.299 -0.5747 -0.4825  0.5725
  498MOL0     C67142   4.092   0.026   0.300 -0.2047  0.5880  0.5576
  498MOL0     O67143   3.912   0.272   0.081  0.1704 -0.9479  0.5886
  498MOL0     C67144   3.717   0.442   0.170  0.2335 -0.5866  0.3070
  498MOL0     C67145   3.591   0.509   0.186  0.4768 -0.1494 -0.0479
  498MOL0     N67146   2.917   0.878   0.274 -0.6929 -0.5269 -0.4298
  498MOL0     N67147   2.788   0.862   0.274 -0.1567  0.5196  0.0168
  498MOL0     C67148   1.739   0.681   0.821 -0.5635 -0.2885  0.9982
  498MOL0     C67149   1.634   0.725   0.900 -0.3884  0.3007 -0.0640
  498MOL0     C67150   1.382   0.812   1.250  0.2099 -0.6565  0.4944
  498MOL0     C67151   1.259   0.755   1.289 -0.1624  0.1812 -0.2442
  498MOL0     C67152   1.172   0.828   1.364  0.5895 -0.6567 -0.4524
  498MOL0     C67153   1.198   0.960   1.412 -0.0828 -0.0339 -0.3259
  498MOL0     O67154   1.107   1.034   1.483 -0.6560  0.5784 -0.4137
  498MOL0     C67155   1.066   1.152   1.423 -0.5116 -0.6840  0.3627
  498MOL0     C67156   0.917   1.145   1.393 -0.4603  0.1488  0.2745
  498MOL0     C67157   0.866   1.283   1.364  0.0374  0.1541  0.3511
  498MOL0     C67158   0.862   1.379   1.486 -0.3479 -0.2088  1.2913
  498MOL0     C67159   0.745   1.354   1.574  0.2446  0.1599 -0.0492
  498MOL0     C67160   0.654   1.344   1.644  0.6416 -0.1200 -0.4473
  498MOL0     C67161   1.324   1.005   1.384  0.4145  0.6582  0.2674
  498MOL0     C67162   1.416   0.936   1.297 -0.2727  0.3033 -1.0001
  498MOL0     H67163   1.815   0.812   1.173  0.4308 -2.1793  1.6615
  498MOL0     H67164   2.004   0.725   1.026 -1.6659 -0.5317  4.1006
  498MOL0     H67165   1.931   0.486   0.702  3.5356 -0.8134  0.4556
  498MOL0     H67166   1.889   0.627   0.589  0.1981  1.6981 -0.2740
  498MOL0     H67167   2.068   0.532   0.487  0.8143  1.4015 -0.9983
  498MOL0     H67168   2.122   0.671   0.569 -0.8377 -0.5394 -2.0645
  498MOL0     H67169   2.203   0.510   0.768 -0.5517 -1.0441  0.0547
  498MOL0     H67170   2.139   0.383   0.663  2.2713 -1.4694  3.0822
  498MOL0     H67171   2.354   0.368   0.621  2.1207  0.0280 -0.6005
  498MOL0     H67172   2.282   0.443   0.478  0.3559 -2.3725  0.9860
  498MOL0     H67173   2.370   0.663   0.564  1.4877  0.6924 -0.0977
  498MOL0     H67174   2.463   0.590   0.694 -2.1264 -0.9361  0.7528
  498MOL0     H67175   2.562   0.428   0.515 -0.9308  0.5952  3.3678
  498MOL0     H67176   2.488   0.517   0.392 -2.9357 -0.3638  0.3908
  498MOL0     H67177   2.691   0.622   0.596 -1.3075  1.1971  0.4224
  498MOL0     H67178   2.724   0.560   0.435 -0.2798 -0.6062  0.6498
  498MOL0     H67179   2.583   0.815   0.509 -3.2999 -1.7384 -0.4169
  498MOL0     H67180   2.571   0.749   0.343 -0.5180  1.1952  0.0191
  498MOL0     H67181   2.870   0.770   0.585 -1.8938  0.7418  0.8193
  498MOL0     H67182   3.157   0.952   0.420 -3.1262  1.5933 -0.2702
  498MOL0     H67183   3.110   0.856   0.557  1.1639  1.4198  0.4200
  498MOL0     H67184   3.133   0.639   0.435  2.4013 -1.6392  2.2284
  498MOL0     H67185   3.285   0.731   0.450 -1.4060  2.0465  0.6942
  498MOL0     H67186   3.217   0.805   0.202  0.8863 -0.6448 -1.6841
  498MOL0     H67187   3.113   0.658   0.225 -0.8919  2.5824  0.4804
  498MOL0     H67188   3.414   0.708   0.267  3.5980 -0.1966 -3.4623
  498MOL0     H67189   3.371   0.641   0.117  3.9763 -0.0337  1.4930
  498MOL0     H67190   3.437   0.293   0.377 -1.3046  3.1066 -0.3581
  498MOL0     H67191   3.666   0.047   0.276  1.1795  2.8746 -2.3881
  498MOL0     H67192   3.731   0.117   0.426  0.9096 -1.7846 -1.6450
  498MOL0     H67193   3.559   0.100   0.417  0.4297  1.7907  3.0000
  498MOL0     H67194   4.153   0.347   0.197  1.5497 -0.7556 -0.5110
  498MOL0     H67195   4.372   0.268   0.210  0.4072 -0.9849 -2.2447
  498MOL0     H67196   4.416  -0.090   0.455 -1.7191  0.8491  0.0912
  498MOL0     H67197   4.485  -0.172   0.318 -2.0224  0.0832  1.9904
  498MOL0     H67198   4.619   0.036   0.484 -1.0995  1.2786 -3.0960
  498MOL0     H67199   4.606  -0.131   0.534  0.8167  1.3324 -0.3356
  498MOL0     H67200   4.822  -0.036   0.389 -2.9256  2.8338 -0.8482
  498MOL0     H67201   4.716  -0.059   0.267  1.9339  1.5992  0.8774
  498MOL0     H67202   4.768  -0.296   0.440  0.8155  0.5492  0.0372
  498MOL0     H67203   4.699  -0.287   0.276  0.0456 -0.4898  0.4442
  498MOL0     H67204   4.988  -0.223   0.379  1.1255 -0.2871 -0.5341
  498MOL0     H67205   4.947  -0.202   0.208  0.3477  1.6561  0.6689
  498MOL0     H67206   4.931  -0.462   0.379 -0.9526 -0.4486 -0.8381
  498MOL0     H67207   4.864  -0.447   0.219  1.1948 -2.1807 -0.9680
  498MOL0     H67208   5.090  -0.408   0.126 -2.5917 -1.8352 -1.6851
  498MOL0     H67209   5.090  -0.567   0.198  1.6248  0.2937  2.4357
  498MOL0     H67210   5.185  -0.310   0.348 -4.8567 -0.6591 -1.7025
  498MOL0     H67211   5.295  -0.401   0.260 -1.0596  0.5951 -0.8364
  498MOL0     H67212   4.243  -0.121   0.323  0.0155 -0.4832  0.0011
  498MOL0     H67213   4.017  -0.051   0.315 -1.0794  1.1468 -0.7565
  498MOL0     H67214   3.793   0.486   0.105  1.5558 -1.6505  1.0867
  498MOL0     H67215   3.578   0.599   0.126  1.6151 -2.5501 -4.3129
  498MOL0     H67216   1.720   0.641   0.722  1.4292 -1.5777  1.0835
  498MOL0     H67217   1.533   0.713   0.864  0.5098 -0.6324 -2.5065
  498MOL0     H67218   1.228   0.656   1.257 -0.6733  0.7364 -1.5383
  498MOL0     H67219   1.076   0.784   1.391  0.4992 -0.2206 -0.0483
  498MOL0     H67220   1.096   1.236   1.487  3.5156  0.3041 -2.4424
  498MOL0     H67221   1.117   1.181   1.331 -1.8018  3.8479  0.8412
  498MOL0     H67222   0.875   1.110   1.488 -2.4337 -0.0914 -0.6329
  498MOL0     H67223   0.892   1.076   1.312 -1.9063  2.5036 -1.4006
  498MOL0     H67224   0.770   1.279   1.313 -0.2804 -0.4563  0.9896
  498MOL0     H67225   0.934   1.312   1.283 -0.2548 -0.3562 -0.0880
  498MOL0     H67226   0.865   1.485   1.460 -0.9524 -0.7640 -1.3002
  498MOL0     H67227   0.949   1.353   1.548 -0.4066 -1.7458  0.7623
  498MOL0     H67228   0.576   1.322   1.714  0.3972  0.7170 -0.4459
  498MOL0     H67229   1.359   1.097   1.431  0.2159 -0.1043  1.9812
  498MOL0     H67230   1.513   0.980   1.276  0.0877  1.2747  2.1768
  499MOL0     O67231   6.755   1.153   0.984  0.4241  0.3030  0.1253
  499MOL0     C67232   6.829   1.070   1.038  0.5848  0.0703  0.4054
  499MOL0     O67233   6.808   0.933   1.032 -0.2225 -0.2331  0.7325
  499MOL0     C67234   6.692   0.874   0.997 -0.0164  0.3690 -0.5560
  499MOL0     C67235   6.709   0.766   0.912 -0.4031  0.7249 -0.2502
  499MOL0     C67236   6.599   0.695   0.871 -0.3090 -0.1012  0.4553
  499MOL0     C67237   6.477   0.731   0.913 -0.4888 -0.7872 -0.0806
  499MOL0     O67238   6.358   0.668   0.866  0.1692 -0.2254 -0.9373
  499MOL0     C67239   6.365   0.573   0.765  0.1392 -0.5246 -0.6439
  499MOL0     C67240   6.231   0.526   0.717  0.2674 -0.1263  0.0256
  499MOL0     C67241   6.162   0.444   0.819  0.0180 -0.5330 -0.4795
  499MOL0     C67242   6.017   0.416   0.772  0.1782 -0.4547 -0.2873
  499MOL0     C67243   5.947   0.319   0.865 -0.5647  0.2459 -0.1749
  499MOL0     C67244   5.805   0.296   0.805  0.0516 -0.8668 -0.0217
  499MOL0     C67245   5.734   0.203   0.908  0.1381 -0.0896  0.3902
  499MOL0     C67246   5.608   0.141   0.859  0.4226  0.6704  0.1869
  499MOL0     N67247   5.636   0.025   0.772  0.7127 -0.3082  0.1594
  499MOL0     C67248   5.662   0.038   0.633 -0.4641  0.8995 -0.9842
  499MOL0     C67249   5.674  -0.091   0.595 -0.3149  1.1611 -0.6390
  499MOL0     C67250   5.718  -0.143   0.469  0.8394 -0.4490 -0.7997
  499MOL0     C67251   5.874  -0.151   0.453 -0.2255 -0.2429  0.4748
  499MOL0     C67252   5.948  -0.016   0.488 -0.3342 -0.7242  0.6452
  499MOL0     C67253   6.106  -0.024   0.494 -0.4625 -0.0794 -0.0476
  499MOL0     O67254   6.149   0.074   0.591  0.1061 -0.0802 -0.4715
  499MOL0     C67255   6.280   0.107   0.588 -0.0495 -0.0957 -0.0777
  499MOL0     C67256   6.352   0.070   0.707 -0.1837  0.6681  0.4651
  499MOL0     C67257   6.488   0.111   0.726 -1.1513 -0.2611 -0.1343
  499MOL0     C67258   6.561   0.073   0.855  0.1375  0.3377  0.2418
  499MOL0     C67259   6.535   0.211   0.636  0.4144  0.2358  0.2387
  499MOL0     C67260   6.660   0.283   0.653 -0.4294  0.2011 -0.0562
  499MOL0     O67261   6.776   0.209   0.676  0.4705  0.2837 -0.2967
  499MOL0     C67262   6.895   0.288   0.697 -0.3277  0.3256 -0.4018
  499MOL0     C67263   7.004   0.237   0.617  0.4853 -0.1269  0.1091
  499MOL0     C67264   7.128   0.299   0.616 -0.1969 -0.5114  0.3292
  499MOL0     C67265   7.139   0.427   0.671  0.2527  0.0033 -0.0629
  499MOL0     O67266   7.258   0.496   0.675  0.7308  0.3378  0.1119
  499MOL0     C67267   7.295   0.557   0.550 -0.3902 -0.3887  0.2750
  499MOL0     C67268   7.432   0.630   0.556 -0.1216 -0.5912 -0.1358
  499MOL0     C67269   7.434   0.774   0.613 -0.4498 -0.0103 -0.3601
  499MOL0     C67270   7.555   0.861   0.564 -0.1677 -0.1846 -0.4318
  499MOL0     C67271   7.541   1.018   0.604  1.4186 -0.4797  0.5032
  499MOL0     C67272   7.682   1.068   0.613  0.5087  0.8496 -0.0790
  499MOL0     C67273   7.688   1.224   0.639  0.0678  1.2904 -0.3421
  499MOL0     C67274   7.825   1.283   0.605  0.0808  0.1381  0.0170
  499MOL0    Cl67275   7.942   1.252   0.744  0.1651  0.2336 -0.2909
  499MOL0     C67276   7.035   0.474   0.755  0.5136  0.0542 -0.0600
  499MOL0     C67277   6.914   0.399   0.779  0.4954 -0.0162 -0.0292
  499MOL0     O67278   6.655   0.408   0.649  0.8050  0.0132 -0.1048
  499MOL0     C67279   6.467   0.237   0.518 -1.0287  0.5696 -0.1489
  499MOL0     C67280   6.345   0.180   0.492 -0.1154  0.0077 -0.7203
  499MOL0     N67281   5.653  -0.173   0.702 -0.4117  0.1503 -0.0090
  499MOL0     N67282   5.631  -0.103   0.805 -0.6316  1.1177 -0.0849
  499MOL0     C67283   6.456   0.831   1.005  0.2161  0.0663 -0.9326
  499MOL0     C67284   6.568   0.906   1.052 -0.3601  0.1085  0.3393
  499MOL0     C67285   6.931   1.120   1.117 -0.6490  0.8942  0.5776
  499MOL0     C67286   7.056   1.056   1.118 -0.1899  0.1401 -0.0832
  499MOL0     C67287   7.157   1.103   1.196 -0.0644 -1.6144 -0.1701
  499MOL0     C67288   7.139   1.223   1.271  0.6430 -0.0176 -0.6141
  499MOL0     O67289   7.236   1.284   1.350 -0.4280 -0.6243  0.3344
  499MOL0     C67290   7.374   1.254   1.357 -0.8854 -0.4428  0.9219
  499MOL0     C67291   7.417   1.268   1.505 -0.5068 -0.3990  0.1703
  499MOL0     C67292   7.365   1.404   1.560  0.9229  0.0609 -0.1206
  499MOL0     C67293   7.395   1.431   1.705 -0.3746 -0.1888  0.2047
  499MOL0     C67294   7.364   1.567   1.746  0.0589 -0.1163 -0.5334
  499MOL0     C67295   7.345   1.687   1.763  0.1144 -0.4341 -0.9409
  499MOL0     C67296   7.014   1.285   1.273  0.9744  0.6437 -0.3909
  499MOL0     C67297   6.910   1.237   1.192 -1.2007  0.0031  0.7567
  499MOL0     H67298   6.805   0.748   0.865 -0.3062  0.7212 -0.0498
  499MOL0     H67299   6.628   0.613   0.805  2.7943  1.2099  0.0116
  499MOL0     H67300   6.419   0.605   0.675 -1.1882 -1.9014 -1.9986
  499MOL0     H67301   6.409   0.479   0.797 -0.1900 -0.0279  1.3747
  499MOL0     H67302   6.178   0.614   0.678  2.2603  0.8792 -0.5763
  499MOL0     H67303   6.263   0.457   0.638  1.5377  1.9324 -1.3583
  499MOL0     H67304   6.200   0.342   0.828 -0.1659 -0.7371 -1.7614
  499MOL0     H67305   6.161   0.503   0.911  1.9888 -1.2952  0.0800
  499MOL0     H67306   5.960   0.510   0.763  3.1874  1.5102 -0.3549
  499MOL0     H67307   6.022   0.367   0.675  0.5450 -2.8310  0.8657
  499MOL0     H67308   6.006   0.227   0.871 -1.5927 -0.3836  0.4187
  499MOL0     H67309   5.949   0.368   0.963  1.8723 -2.5236  1.3169
  499MOL0     H67310   5.758   0.395   0.798  0.1058 -0.8806 -0.6540
  499MOL0     H67311   5.808   0.239   0.711  0.0768 -2.5061  0.9359
  499MOL0     H67312   5.794   0.120   0.949 -1.2037  0.0646  2.8727
  499MOL0     H67313   5.714   0.258   1.001 -1.0589 -2.6092  1.7379
  499MOL0     H67314   5.563   0.218   0.796  1.7605  1.4898  0.1956
  499MOL0     H67315   5.540   0.124   0.943  0.0337  1.4180  0.0262
  499MOL0     H67316   5.666   0.133   0.580  1.7933  1.3572 -0.0776
  499MOL0     H67317   5.674  -0.242   0.456  4.7287 -2.4936  0.2292
  499MOL0     H67318   5.681  -0.079   0.387  1.3399 -0.6648 -1.2015
  499MOL0     H67319   5.903  -0.176   0.351  2.2519  4.7586 -0.3813
  499MOL0     H67320   5.911  -0.223   0.526  1.1381  0.3901  0.4467
  499MOL0     H67321   5.916   0.015   0.588 -0.4459 -1.3603  0.8075
  499MOL0     H67322   5.920   0.055   0.409  0.1049 -2.6516 -1.3298
  499MOL0     H67323   6.155  -0.001   0.399  0.7531  1.9423  0.9956
  499MOL0     H67324   6.142  -0.120   0.532 -0.7312  0.5086  1.7723
  499MOL0     H67325   6.303   0.012   0.785 -0.2110 -3.7156 -2.4720
  499MOL0     H67326   6.638   0.148   0.876 -0.4016  1.3233 -1.0971
  499MOL0     H67327   6.495   0.059   0.941  0.2914 -1.6914  0.0739
  499MOL0     H67328   6.612  -0.023   0.843  1.2364  0.2975  3.8964
  499MOL0     H67329   6.986   0.148   0.558 -3.8675  1.7271 -1.7537
  499MOL0     H67330   7.212   0.261   0.559  0.4549 -0.9644  1.5308
  499MOL0     H67331   7.305   0.479   0.474  1.1764 -0.2999  0.3475
  499MOL0     H67332   7.222   0.625   0.506  1.2746  1.2577 -0.0868
  499MOL0     H67333   7.503   0.573   0.616  0.3129 -1.0989 -1.1051
  499MOL0     H67334   7.481   0.634   0.458 -0.8885  0.0203 -0.5115
  499MOL0     H67335   7.446   0.776   0.722 -0.8226  0.1289 -0.3193
  499MOL0     H67336   7.342   0.829   0.589 -0.7709 -0.4616 -0.1726
  499MOL0     H67337   7.632   0.807   0.621 -2.1583 -1.7435  0.9313
  499MOL0     H67338   7.566   0.849   0.456 -2.6485 -1.5600 -0.5998
  499MOL0     H67339   7.492   1.032   0.701  0.2328  0.1256 -0.1620
  499MOL0     H67340   7.497   1.077   0.523  2.5854  2.6580  1.9832
  499MOL0     H67341   7.743   1.007   0.680  0.9959 -0.7859 -1.9281
  499MOL0     H67342   7.723   1.037   0.516  1.3131 -1.7665  1.0134
  499MOL0     H67343   7.658   1.246   0.742 -0.2578 -1.0434  0.1256
  499MOL0     H67344   7.630   1.285   0.569  1.1497  3.0482  0.2235
  499MOL0     H67345   7.821   1.392   0.596  3.0367  0.5042  1.7758
  499MOL0     H67346   7.862   1.243   0.510 -0.2548  0.3826 -0.2195
  499MOL0     H67347   7.048   0.568   0.807  2.6274 -0.9454  1.3875
  499MOL0     H67348   6.826   0.437   0.830 -0.1461 -2.0937  0.4934
  499MOL0     H67349   6.505   0.305   0.442 -5.3154 -0.9423 -4.1424
  499MOL0     H67350   6.292   0.194   0.399  0.8221 -1.4674 -1.5207
  499MOL0     H67351   6.360   0.836   1.056  1.9707 -0.6117  2.8156
  499MOL0     H67352   6.571   0.979   1.132  1.8704 -0.1629  0.5700
  499MOL0     H67353   7.079   0.963   1.066  2.5924 -0.4708  2.0206
  499MOL0     H67354   7.257   1.060   1.204  0.5513 -0.1764  0.3074
  499MOL0     H67355   7.392   1.153   1.321  0.4055 -0.0260  0.3249
  499MOL0     H67356   7.427   1.327   1.294 -0.5750  0.0780  1.7662
  499MOL0     H67357   7.526   1.276   1.507 -0.6453  2.3608  0.5053
  499MOL0     H67358   7.371   1.189   1.565 -1.0603 -0.5141 -0.4008
  499MOL0     H67359   7.260   1.423   1.539  0.2835 -2.1801  0.8237
  499MOL0     H67360   7.405   1.488   1.501 -2.6968  2.6301  0.7619
  499MOL0     H67361   7.500   1.407   1.726  0.0343  0.8217 -0.6370
  499MOL0     H67362   7.335   1.367   1.770 -0.0821 -1.1980 -0.4958
  499MOL0     H67363   7.334   1.786   1.803 -2.4809 -0.4197 -1.4978
  499MOL0     H67364   6.991   1.375   1.329  0.0207  1.6203 -2.2676
  499MOL0     H67365   6.809   1.277   1.199 -1.5852  0.1109 -3.1741
  500MOL0     O67366   6.440   7.991   8.177 -0.4703  0.1344 -0.5639
  500MOL0     C67367   6.442   8.034   8.058 -0.4252 -0.2177  0.5643
  500MOL0     O67368   6.339   8.030   7.961 -0.7372 -0.4407 -0.5833
  500MOL0     C67369   6.237   7.952   7.994 -0.2780 -0.5127  0.4909
  500MOL0     C67370   6.134   7.985   8.081 -1.1738 -0.8442 -0.3812
  500MOL0     C67371   6.032   7.903   8.122  0.6136 -0.1862  0.7960
  500MOL0     C67372   6.014   7.782   8.059 -0.0796  0.0291  0.0893
  500MOL0     O67373   5.916   7.688   8.087 -1.0033 -0.1953  0.6284
  500MOL0     C67374   5.797   7.725   8.155 -0.2846 -0.0254  0.3987
  500MOL0     C67375   5.685   7.613   8.149  0.1308  0.0472 -1.0214
  500MOL0     C67376   5.577   7.627   8.041 -0.1256  0.9764 -0.5519
  500MOL0     C67377   5.467   7.524   8.051  0.0058  0.4150  0.0948
  500MOL0     C67378   5.367   7.537   8.171 -0.9233 -0.4504  0.0060
  500MOL0     C67379   5.276   7.417   8.193 -0.4221  0.7702  0.7931
  500MOL0     C67380   5.337   7.306   8.276  0.5690 -0.3583 -0.4573
  500MOL0     C67381   5.348   7.172   8.194 -0.0498 -0.0371  0.1125
  500MOL0     N67382   5.217   7.130   8.139  0.2783  0.6378  0.3565
  500MOL0     C67383   5.115   7.069   8.208  0.2171 -0.3587 -0.0536
  500MOL0     C67384   5.052   6.992   8.110 -0.6059 -1.0843  0.3189
  500MOL0     C67385   4.941   6.894   8.142 -0.0564  0.3997  0.3696
  500MOL0     C67386   4.995   6.760   8.085  0.0713 -0.7684  0.0100
  500MOL0     C67387   4.925   6.637   8.132 -0.5639  0.7443  0.1142
  500MOL0     C67388   4.777   6.621   8.094 -0.5763  0.2741  0.6145
  500MOL0     O67389   4.697   6.722   8.145  0.4016 -0.0282  0.3736
  500MOL0     C67390   4.567   6.745   8.098 -0.2418  0.7011 -0.3189
  500MOL0     C67391   4.497   6.667   8.003  0.6265 -0.4235 -0.3616
  500MOL0     C67392   4.360   6.685   7.973  0.2574 -0.1006  0.2634
  500MOL0     C67393   4.293   6.571   7.896 -0.4188 -0.7153  0.0385
  500MOL0     C67394   4.290   6.804   8.011  0.2786  0.2902  0.3287
  500MOL0     C67395   4.150   6.835   7.985  0.4715  0.1763 -0.0024
  500MOL0     O67396   4.090   6.914   8.079  0.4745 -0.7182  0.5801
  500MOL0     C67397   3.959   6.945   8.062 -0.1754 -0.7003  0.0300
  500MOL0     C67398   3.919   7.070   8.021  0.3899 -0.0224  0.4507
  500MOL0     C67399   3.778   7.096   8.027 -0.6377 -0.6967  0.1499
  500MOL0     C67400   3.682   7.001   8.051  0.4556  0.1050  0.2399
  500MOL0     O67401   3.547   7.036   8.056  0.7474  0.3381 -0.0060
  500MOL0     C67402   3.460   6.949   7.985 -0.1841  0.1694 -0.9802
  500MOL0     C67403   3.347   7.012   7.903  0.1388  0.2674  0.7029
  500MOL0     C67404   3.265   7.090   7.997 -0.3645  0.4733 -0.3097
  500MOL0     C67405   3.132   7.135   7.928 -0.2268 -0.1189 -0.6078
  500MOL0     C67406   3.035   7.205   8.030 -0.3371  0.2795 -0.4088
  500MOL0     C67407   2.900   7.256   7.961  0.1667  0.4535  1.3195
  500MOL0     C67408   2.797   7.290   8.060  0.0012 -0.1457  0.2712
  500MOL0     C67409   2.663   7.324   7.988 -0.0534  1.0385  0.0216
  500MOL0    Cl67410   2.569   7.203   7.903 -0.4275 -0.0176  0.0498
  500MOL0     C67411   3.726   6.875   8.086 -0.2108 -0.1647  0.4471
  500MOL0     C67412   3.862   6.845   8.090 -0.9477 -0.3640  0.7301
  500MOL0     O67413   4.096   6.793   7.882 -0.3318  0.3153 -0.1085
  500MOL0     C67414   4.357   6.884   8.097  0.5123 -0.3032 -0.5610
  500MOL0     C67415   4.487   6.858   8.144 -0.1708  0.0676 -0.6016
  500MOL0     N67416   5.100   7.035   7.987  0.3074  0.3703 -0.7964
  500MOL0     N67417   5.201   7.107   8.005 -0.1538 -1.0000 -0.4135
  500MOL0     C67418   6.116   7.745   7.971 -0.0265  0.5898  0.6068
  500MOL0     C67419   6.223   7.820   7.940 -0.0709 -0.0559  0.6263
  500MOL0     C67420   6.553   8.124   8.035 -1.0986 -0.3195  0.6107
  500MOL0     C67421   6.679   8.107   8.099  0.4875  0.1404  0.1802
  500MOL0     C67422   6.780   8.195   8.067 -0.3314  0.0186 -0.1333
  500MOL0     C67423   6.762   8.309   7.988  0.1693  0.7401 -0.5073
  500MOL0     O67424   6.871   8.392   7.966 -0.6873 -1.1987 -0.1464
  500MOL0     C67425   6.847   8.507   7.893  0.0237  0.4835 -0.3885
  500MOL0     C67426   6.983   8.551   7.849  0.4998 -0.9960  0.0602
  500MOL0     C67427   6.972   8.700   7.816  0.4583 -0.3950 -1.3244
  500MOL0     C67428   7.015   8.795   7.933 -0.3101 -0.5559 -0.2032
  500MOL0     C67429   7.090   8.911   7.882  0.8016 -0.1246 -0.5614
  500MOL0     C67430   7.165   9.001   7.842 -0.3793  0.2555  0.1063
  500MOL0     C67431   6.632   8.331   7.946  0.9177 -0.0239  0.7493
  500MOL0     C67432   6.531   8.233   7.951  1.0099  0.1114  0.1248
  500MOL0     H67433   6.159   8.075   8.137  0.4110 -0.1571 -2.0968
  500MOL0     H67434   5.956   7.932   8.194 -1.8825 -1.6818 -1.0427
  500MOL0     H67435   5.820   7.732   8.261 -0.0708 -1.4762  0.4638
  500MOL0     H67436   5.764   7.822   8.117  0.7389 -0.2486 -1.1690
  500MOL0     H67437   5.736   7.517   8.138 -1.6494 -1.1813  0.6886
  500MOL0     H67438   5.629   7.590   8.240 -2.4460  2.6315 -1.8159
  500MOL0     H67439   5.553   7.733   8.048  0.5880  1.1866 -1.1683
  500MOL0     H67440   5.625   7.606   7.944 -0.7583  2.0926 -1.1247
  500MOL0     H67441   5.415   7.531   7.955  0.5243  0.9926 -0.1559
  500MOL0     H67442   5.521   7.429   8.054 -1.5809 -0.6163 -1.6242
  500MOL0     H67443   5.426   7.554   8.262  1.0590  1.6117 -1.5710
  500MOL0     H67444   5.311   7.628   8.149 -1.7903 -1.0675 -0.3899
  500MOL0     H67445   5.188   7.456   8.245  0.9431  3.5417  1.1817
  500MOL0     H67446   5.233   7.382   8.098  0.8225  0.7389  0.2130
  500MOL0     H67447   5.436   7.337   8.308  0.3260  0.1936 -0.2289
  500MOL0     H67448   5.279   7.283   8.366  0.7767  0.6701 -0.0553
  500MOL0     H67449   5.376   7.089   8.261 -0.4660  0.7661  1.3132
  500MOL0     H67450   5.422   7.176   8.114 -0.2595  0.7350 -0.0460
  500MOL0     H67451   5.096   7.069   8.315 -1.6796 -0.0886 -0.3566
  500MOL0     H67452   4.928   6.899   8.251 -0.0322  3.0467  0.2978
  500MOL0     H67453   4.854   6.930   8.087  2.0678  3.6682 -1.1731
  500MOL0     H67454   5.099   6.757   8.119 -0.5699  2.0699  2.7190
  500MOL0     H67455   4.984   6.777   7.978 -2.5577  1.3956  0.5024
  500MOL0     H67456   4.933   6.642   8.241 -3.3032  0.7214  0.3859
  500MOL0     H67457   4.979   6.548   8.097  2.6056  0.2043  5.2866
  500MOL0     H67458   4.746   6.531   8.147  0.1419 -0.9672 -0.9794
  500MOL0     H67459   4.766   6.630   7.986 -0.7192 -1.4345  0.4595
  500MOL0     H67460   4.542   6.581   7.954 -0.1304 -0.1066 -1.6538
  500MOL0     H67461   4.207   6.536   7.954 -1.1036  2.3323  1.0472
  500MOL0     H67462   4.262   6.611   7.800 -1.2950  1.0497  1.0113
  500MOL0     H67463   4.367   6.491   7.883  0.4163 -0.0860  0.7249
  500MOL0     H67464   3.996   7.145   8.006  0.4939 -0.0502  0.8444
  500MOL0     H67465   3.761   7.202   8.011 -1.3153 -1.1464 -2.8633
  500MOL0     H67466   3.514   6.892   7.909 -0.3363 -0.6136 -0.5180
  500MOL0     H67467   3.417   6.877   8.055  2.2215 -0.8624 -0.4473
  500MOL0     H67468   3.391   7.074   7.824 -1.4213 -1.9710 -2.1004
  500MOL0     H67469   3.290   6.934   7.852 -0.2642  1.4229 -0.6961
  500MOL0     H67470   3.326   7.177   8.022 -3.1604  2.1497  1.0869
  500MOL0     H67471   3.254   7.035   8.091  0.6044  0.0394 -0.4339
  500MOL0     H67472   3.157   7.213   7.855  4.9511 -1.4086 -0.5964
  500MOL0     H67473   3.093   7.042   7.885 -0.5837 -0.8497  1.2123
  500MOL0     H67474   3.081   7.286   8.088 -2.5033 -0.2153  2.2330
  500MOL0     H67475   3.018   7.133   8.111 -1.1294  0.7680 -0.1269
  500MOL0     H67476   2.924   7.331   7.885 -1.5141 -2.0391 -1.9328
  500MOL0     H67477   2.844   7.179   7.906 -0.2514  0.1636  2.1384
  500MOL0     H67478   2.821   7.380   8.116 -0.3105  1.3788 -1.8960
  500MOL0     H67479   2.776   7.204   8.125  1.6039 -0.7085  0.0822
  500MOL0     H67480   2.680   7.404   7.916 -0.2176 -1.1225 -2.5797
  500MOL0     H67481   2.590   7.374   8.052  0.2747 -1.0928  2.2254
  500MOL0     H67482   3.647   6.801   8.089 -2.4730  2.0940  0.1066
  500MOL0     H67483   3.887   6.740   8.098 -1.7023 -1.0290 -3.2603
  500MOL0     H67484   4.300   6.965   8.140 -2.6873 -1.6743 -1.9336
  500MOL0     H67485   4.529   6.927   8.217  1.1556 -1.2070 -0.1202
  500MOL0     H67486   6.105   7.645   7.930  2.0887  0.2850  0.6796
  500MOL0     H67487   6.299   7.785   7.872 -2.8810 -1.3699 -2.0466
  500MOL0     H67488   6.694   8.031   8.175  3.3095  2.0725  1.7406
  500MOL0     H67489   6.882   8.180   8.103 -0.0082  0.9340 -0.6329
  500MOL0     H67490   6.780   8.479   7.812  1.6597  0.7232 -1.9038
  500MOL0     H67491   6.800   8.576   7.963 -0.4232  1.3321 -1.4943
  500MOL0     H67492   6.998   8.500   7.753 -2.0717 -3.2308  0.6897
  500MOL0     H67493   7.063   8.523   7.918  0.5109 -2.3874 -0.4924
  500MOL0     H67494   6.879   8.736   7.771 -1.1983  1.7414  3.1313
  500MOL0     H67495   7.045   8.720   7.738  1.9091  0.0517  0.1065
  500MOL0     H67496   7.086   8.746   8.001  3.1559  2.5620 -1.2431
  500MOL0     H67497   6.932   8.838   7.989 -1.2697  0.9866 -2.6558
  500MOL0     H67498   7.219   9.078   7.790 -1.1137  0.3463 -0.5405
  500MOL0     H67499   6.597   8.409   7.880  0.6487 -0.4690  0.3578
  500MOL0     H67500   6.439   8.239   7.895  0.6106 -4.6307 -0.1129
  501MOL0     O67501   8.327   7.068   4.809  0.0185  0.2776  1.4280
  501MOL0     C67502   8.355   6.986   4.895  0.8047  0.2454 -0.0240
  501MOL0     O67503   8.344   6.851   4.886  0.7455  1.0540  0.2827
  501MOL0     C67504   8.284   6.787   4.775 -1.2158  0.5711  0.4229
  501MOL0     C67505   8.204   6.841   4.665 -0.8818  0.1944 -0.0329
  501MOL0     C67506   8.130   6.753   4.581  0.2527  0.4180 -0.9786
  501MOL0     C67507   8.140   6.618   4.601  0.5264  0.7514  0.2029
  501MOL0     O67508   8.100   6.535   4.497 -0.8530  0.3165  0.1258
  501MOL0     C67509   8.041   6.413   4.522 -0.3271 -0.5522 -1.2299
  501MOL0     C67510   8.023   6.341   4.396 -0.0270 -0.8899 -0.2556
  501MOL0     C67511   7.991   6.186   4.399 -0.6740 -0.7582  0.4493
  501MOL0     C67512   7.869   6.141   4.460  0.2651  0.4266 -0.5735
  501MOL0     C67513   7.815   6.027   4.373  0.5918  0.6289 -0.4011
  501MOL0     C67514   7.742   6.082   4.242 -0.6451  0.0707  0.8523
  501MOL0     C67515   7.654   5.976   4.164 -0.1510  0.2026 -0.1729
  501MOL0     C67516   7.536   5.938   4.258  0.0028 -0.0951 -0.0834
  501MOL0     N67517   7.429   5.863   4.191  0.3232 -0.4029 -0.6797
  501MOL0     C67518   7.297   5.870   4.211  0.2073  0.4595 -0.6125
  501MOL0     C67519   7.241   5.789   4.114  0.3824  0.1036  0.3917
  501MOL0     C67520   7.097   5.768   4.082  0.6626 -0.3355 -0.6346
  501MOL0     C67521   7.024   5.675   4.184 -0.0629  0.0360  0.0401
  501MOL0     C67522   6.902   5.606   4.117 -0.0607 -0.4662  0.6681
  501MOL0     C67523   6.773   5.681   4.124 -0.2021  0.1818  0.7339
  501MOL0     O67524   6.757   5.791   4.024 -0.3718  0.2283 -1.2307
  501MOL0     C67525   6.633   5.829   3.995  1.2867 -0.0027 -0.1528
  501MOL0     C67526   6.558   5.917   4.071  0.0191 -0.6480  0.4604
  501MOL0     C67527   6.418   5.945   4.047 -0.5094  1.1605 -0.4301
  501MOL0     C67528   6.360   6.024   4.157 -0.3046 -0.0842 -0.2586
  501MOL0     C67529   6.358   5.907   3.924  0.0089 -0.2669  0.1844
  501MOL0     C67530   6.223   5.942   3.886 -0.3139  0.3613 -0.4683
  501MOL0     O67531   6.185   5.900   3.757  0.0341 -0.2268 -0.2348
  501MOL0     C67532   6.060   5.911   3.704  0.7170 -0.1965 -0.0957
  501MOL0     C67533   5.951   5.994   3.751 -0.3705 -0.0936 -0.1426
  501MOL0     C67534   5.814   5.993   3.697 -0.7572 -0.2232  0.1297
  501MOL0     C67535   5.798   5.906   3.590 -0.2174  1.1413 -0.5336
  501MOL0     O67536   5.666   5.888   3.554  0.3645 -0.5146  0.1980
  501MOL0     C67537   5.649   5.912   3.413  0.1558 -0.0106 -0.5197
  501MOL0     C67538   5.615   6.060   3.381  0.0109  0.1942 -0.0974
  501MOL0     C67539   5.597   6.153   3.507  0.3510 -0.1442  0.3561
  501MOL0     C67540   5.482   6.258   3.499 -0.7852  0.4466 -0.2882
  501MOL0     C67541   5.372   6.228   3.600 -0.4209 -0.1821  0.0769
  501MOL0     C67542   5.292   6.102   3.568  0.3368  0.2014 -0.3722
  501MOL0     C67543   5.201   6.060   3.690 -0.2989 -0.0145 -0.0654
  501MOL0     C67544   5.102   5.955   3.650  0.3227 -0.3016  0.1725
  501MOL0    Cl67545   5.182   5.789   3.637  0.3339  0.0240 -0.3776
  501MOL0     C67546   5.907   5.821   3.541  0.3338  0.1136 -0.0837
  501MOL0     C67547   6.032   5.821   3.601 -0.1602 -0.2846 -0.2004
  501MOL0     O67548   6.144   6.001   3.968 -0.0959  0.1796  0.4608
  501MOL0     C67549   6.439   5.818   3.838  0.3705  0.3373  0.1216
  501MOL0     C67550   6.571   5.775   3.869 -0.0944 -0.2569 -0.7726
  501MOL0     N67551   7.352   5.723   4.050  0.2019 -0.3165  0.3286
  501MOL0     N67552   7.456   5.785   4.084 -0.9540 -0.0802 -0.3576
  501MOL0     C67553   8.217   6.570   4.707 -0.5040 -0.0534 -0.0111
  501MOL0     C67554   8.279   6.650   4.799 -0.0992 -0.0375 -0.2097
  501MOL0     C67555   8.362   7.045   5.029 -1.0584  0.3478  0.0155
  501MOL0     C67556   8.367   7.186   5.046  0.0348 -0.3842 -0.0294
  501MOL0     C67557   8.365   7.240   5.179 -0.1392 -0.9523  0.4221
  501MOL0     C67558   8.375   7.155   5.285 -0.2840  0.0335  0.0694
  501MOL0     O67559   8.396   7.204   5.409  0.3979 -0.5212  0.3749
  501MOL0     C67560   8.287   7.275   5.467 -0.3102  0.2936  0.0502
  501MOL0     C67561   8.338   7.336   5.598 -0.6263 -1.0656  0.3582
  501MOL0     C67562   8.224   7.436   5.636  0.1419  0.0826 -0.2014
  501MOL0     C67563   8.203   7.454   5.792  0.6795 -0.6925  0.0480
  501MOL0     C67564   8.073   7.530   5.819 -1.0216  1.3256  0.0357
  501MOL0     C67565   7.967   7.591   5.841 -0.2446  0.4200 -0.2786
  501MOL0     C67566   8.373   7.013   5.267 -0.5863  0.4432  0.3070
  501MOL0     C67567   8.365   6.961   5.140  0.4719 -0.9707  1.2337
  501MOL0     H67568   8.187   6.946   4.647  2.3718  0.8037 -0.1100
  501MOL0     H67569   8.071   6.792   4.499 -2.3481 -0.9725  0.1054
  501MOL0     H67570   8.099   6.358   4.597 -0.4447 -1.3340 -1.6959
  501MOL0     H67571   7.942   6.436   4.565  0.8169  1.2471  0.6114
  501MOL0     H67572   7.940   6.394   4.348  1.0245  0.4839 -0.6524
  501MOL0     H67573   8.112   6.363   4.335  0.6297  0.9363  1.2586
  501MOL0     H67574   8.011   6.147   4.299 -0.0484  1.1695 -0.2293
  501MOL0     H67575   8.064   6.140   4.466  1.2328  4.1321  2.2004
  501MOL0     H67576   7.891   6.109   4.562  0.6067  1.2116 -0.4009
  501MOL0     H67577   7.797   6.223   4.460 -2.8669 -1.9461  3.2996
  501MOL0     H67578   7.898   5.966   4.338  0.1626  0.7532 -1.7118
  501MOL0     H67579   7.745   5.973   4.437 -1.3305  1.1834 -1.9256
  501MOL0     H67580   7.680   6.170   4.261 -1.7015 -0.3818 -0.3071
  501MOL0     H67581   7.815   6.108   4.164 -2.2568 -1.8101 -1.4402
  501MOL0     H67582   7.609   6.026   4.077  0.0565  1.3618  0.3666
  501MOL0     H67583   7.714   5.891   4.131 -0.5412 -0.4265  0.7319
  501MOL0     H67584   7.497   6.036   4.288 -1.2780 -0.0769 -1.6699
  501MOL0     H67585   7.559   5.881   4.348 -0.6329 -0.3305 -0.0649
  501MOL0     H67586   7.240   5.942   4.268 -0.2865  0.9481 -1.6988
  501MOL0     H67587   7.043   5.863   4.084  3.0202  1.0786 -0.0379
  501MOL0     H67588   7.079   5.738   3.979 -1.6545 -0.3479 -0.2799
  501MOL0     H67589   7.000   5.730   4.275  2.6632  0.3488  0.6624
  501MOL0     H67590   7.086   5.596   4.226 -0.6362 -0.3684  0.1342
  501MOL0     H67591   6.889   5.507   4.162  3.3240 -0.0869  2.8041
  501MOL0     H67592   6.925   5.604   4.010 -0.8829  1.0544  0.4301
  501MOL0     H67593   6.758   5.724   4.223  0.6682  0.0528  0.9315
  501MOL0     H67594   6.689   5.611   4.120  0.2765 -1.0719  6.0114
  501MOL0     H67595   6.607   5.964   4.156 -2.6001  1.8926  0.7290
  501MOL0     H67596   6.270   5.974   4.195 -0.3552  0.2880  0.1254
  501MOL0     H67597   6.428   6.050   4.239 -0.1453  1.7777 -0.9471
  501MOL0     H67598   6.342   6.125   4.119  2.7897  1.7617  2.5429
  501MOL0     H67599   5.949   6.058   3.838  0.3102 -2.2269  1.5131
  501MOL0     H67600   5.738   6.060   3.735  2.4234  2.0692  3.0762
  501MOL0     H67601   5.734   5.884   3.349 -1.1720 -2.5952 -1.3194
  501MOL0     H67602   5.571   5.844   3.377  2.3687 -1.1461 -3.6165
  501MOL0     H67603   5.691   6.105   3.318  2.1269  0.0340  2.1878
  501MOL0     H67604   5.521   6.062   3.325  0.3715  0.1635 -0.7077
  501MOL0     H67605   5.695   6.200   3.519 -0.6142  1.2569  4.2554
  501MOL0     H67606   5.590   6.099   3.602 -0.6710 -2.4991 -0.9617
  501MOL0     H67607   5.523   6.359   3.506 -0.4607  0.2691  0.3756
  501MOL0     H67608   5.435   6.252   3.400 -0.0039  0.6844 -0.6806
  501MOL0     H67609   5.307   6.315   3.602 -0.2334 -0.0191 -0.5983
  501MOL0     H67610   5.421   6.220   3.697 -0.2855 -2.4047 -0.1152
  501MOL0     H67611   5.225   6.107   3.482 -0.8953 -1.9889  0.3842
  501MOL0     H67612   5.356   6.018   3.542 -0.8034 -0.7860 -0.0749
  501MOL0     H67613   5.152   6.149   3.732  0.2050 -0.0599  0.6540
  501MOL0     H67614   5.263   6.016   3.769 -2.1975 -4.0663 -0.6285
  501MOL0     H67615   5.054   5.977   3.554  0.6008  3.2921  0.7198
  501MOL0     H67616   5.024   5.962   3.726  0.2190  3.3234 -0.0982
  501MOL0     H67617   5.884   5.749   3.464  1.1576  1.1678 -1.3451
  501MOL0     H67618   6.114   5.753   3.583  0.0349 -0.7427  2.1540
  501MOL0     H67619   6.390   5.781   3.749 -0.6046 -0.2996  0.8983
  501MOL0     H67620   6.621   5.703   3.804 -1.9263 -1.0056 -1.4127
  501MOL0     H67621   8.237   6.464   4.721 -2.0737 -0.0255  3.4334
  501MOL0     H67622   8.331   6.604   4.883 -0.5238 -1.2851 -0.6015
  501MOL0     H67623   8.375   7.251   4.960 -1.6040 -2.3428 -1.7510
  501MOL0     H67624   8.376   7.347   5.192  3.2203 -0.9340 -1.5346
  501MOL0     H67625   8.275   7.364   5.403  1.8255 -0.0341 -0.8840
  501MOL0     H67626   8.193   7.220   5.479 -0.0455 -0.0862  0.3991
  501MOL0     H67627   8.429   7.395   5.588 -2.0504  1.5197  1.4717
  501MOL0     H67628   8.353   7.259   5.675 -2.4222 -0.2892  1.5659
  501MOL0     H67629   8.128   7.400   5.597 -0.9860  2.1730  0.4595
  501MOL0     H67630   8.242   7.534   5.591  0.7256  0.3734  0.6522
  501MOL0     H67631   8.281   7.502   5.851  0.6468  1.0883 -1.2953
  501MOL0     H67632   8.190   7.355   5.837  1.6818  0.0836  2.1598
  501MOL0     H67633   7.866   7.620   5.861 -0.5837 -0.0254 -1.2459
  501MOL0     H67634   8.381   6.938   5.345 -1.0074  1.0591  0.9570
  501MOL0     H67635   8.374   6.856   5.115  0.8658 -0.5658 -0.5135
  502MOL0     O67636   0.828  11.278   8.106  0.0708  0.5492 -0.3322
  502MOL0     C67637   0.921  11.187   8.090 -0.1664 -0.2184  0.2913
  502MOL0     O67638   0.895  11.059   8.052 -0.4637 -0.1286 -0.2651
  502MOL0     C67639   0.762  11.015   8.038  0.1726  0.0350 -0.3121
  502MOL0     C67640   0.666  11.029   8.136  0.5013  0.3748  0.0739
  502MOL0     C67641   0.531  10.987   8.123  0.4089 -0.2654  0.2966
  502MOL0     C67642   0.495  10.937   7.991  0.8201  0.1232 -0.2721
  502MOL0     O67643   0.373  10.883   7.967 -0.1080 -0.2405 -0.0988
  502MOL0     C67644   0.266  10.906   8.045 -0.2062  0.2366 -0.1123
  502MOL0     C67645   0.150  10.834   7.984  0.0197  0.1774  0.2006
  502MOL0     C67646   0.024  10.872   8.058  1.1997 -0.0255 -0.7256
  502MOL0     C67647   0.038  10.877   8.209  0.3791 -0.3678  0.1338
  502MOL0     C67648  -0.099  10.879   8.267 -0.4103  0.4521 -0.0251
  502MOL0     C67649  -0.103  10.904   8.413  1.0891  0.3820 -0.5659
  502MOL0     C67650  -0.245  10.961   8.450 -0.0319 -0.6339  0.2417
  502MOL0     C67651  -0.256  11.002   8.586  0.3013  0.3033 -1.2084
  502MOL0     N67652  -0.389  11.050   8.620 -0.2510  0.3149  0.6793
  502MOL0     C67653  -0.505  10.983   8.606  0.3155 -0.2101 -0.4176
  502MOL0     C67654  -0.609  11.073   8.624 -1.2737  1.1554  0.8256
  502MOL0     C67655  -0.751  11.036   8.648  0.0422 -0.3291  0.0528
  502MOL0     C67656  -0.840  11.049   8.523 -0.0489 -0.2052  0.6900
  502MOL0     C67657  -0.985  11.056   8.569  0.4331 -0.2350 -0.4135
  502MOL0     C67658  -1.102  11.046   8.468  0.4909  0.1204  0.0155
  502MOL0     O67659  -1.083  11.140   8.359 -0.0142  0.2922  0.6418
  502MOL0     C67660  -1.043  11.101   8.230 -0.3700 -0.1361 -0.2205
  502MOL0     C67661  -0.975  10.993   8.183 -0.5926  0.4443 -0.0069
  502MOL0     C67662  -0.958  10.977   8.047  0.7706 -0.1080 -0.8496
  502MOL0     C67663  -0.878  10.854   8.016  0.1329  0.1038  0.8747
  502MOL0     C67664  -0.989  11.073   7.947 -0.7125 -0.0145  0.2047
  502MOL0     C67665  -0.944  11.067   7.797  0.1116 -1.1022  0.0901
  502MOL0     O67666  -1.008  11.150   7.711  0.4468 -0.4102 -0.4208
  502MOL0     C67667  -0.937  11.191   7.601  0.0004  0.0653  0.5604
  502MOL0     C67668  -0.917  11.100   7.489  0.4272 -0.0061 -0.6869
  502MOL0     C67669  -0.859  11.148   7.376  0.5284  0.8310  0.3453
  502MOL0     C67670  -0.800  11.272   7.373  0.6310 -0.3839 -0.0773
  502MOL0     O67671  -0.736  11.288   7.257  0.4098 -0.4789 -0.2448
  502MOL0     C67672  -0.677  11.414   7.233  0.2201  1.2675  0.3614
  502MOL0     C67673  -0.531  11.393   7.220 -0.1363 -0.4095 -0.3869
  502MOL0     C67674  -0.469  11.516   7.149  0.0648 -0.0769  0.5152
  502MOL0     C67675  -0.322  11.480   7.124  0.2488  0.0580 -0.4724
  502MOL0     C67676  -0.248  11.591   7.043 -1.3957 -0.5490 -0.1483
  502MOL0     C67677  -0.113  11.537   6.983 -0.3899 -0.0599  0.4782
  502MOL0     C67678  -0.006  11.509   7.085 -0.5572  0.4814 -0.2691
  502MOL0     C67679   0.004  11.616   7.196  0.1957 -0.9625 -0.1485
  502MOL0    Cl67680   0.041  11.776   7.117 -0.0252 -0.5108  0.2184
  502MOL0     C67681  -0.806  11.361   7.488 -0.4584 -0.0675  0.3219
  502MOL0     C67682  -0.879  11.317   7.597  0.4689 -0.1972 -0.8705
  502MOL0     O67683  -0.835  11.024   7.776  0.6702 -0.0475 -0.2470
  502MOL0     C67684  -1.056  11.184   8.001  0.9316  0.1947  0.5913
  502MOL0     C67685  -1.090  11.193   8.132  0.2524 -0.5253 -1.0279
  502MOL0     N67686  -0.544  11.195   8.642  0.0561 -0.3728  0.1555
  502MOL0     N67687  -0.414  11.180   8.640  0.1497 -1.0222  0.3022
  502MOL0     C67688   0.593  10.922   7.894 -0.9500  0.1385  0.2613
  502MOL0     C67689   0.727  10.957   7.912 -0.5134  0.4527  0.3002
  502MOL0     C67690   1.068  11.204   8.111  0.1591 -0.2083 -0.0956
  502MOL0     C67691   1.156  11.116   8.054  0.1553  0.4407  0.2822
  502MOL0     C67692   1.296  11.141   8.053  1.0092  0.0410  0.3528
  502MOL0     C67693   1.348  11.254   8.118 -0.2679  1.3686  0.8148
  502MOL0     O67694   1.483  11.286   8.111  0.1118  0.7091 -0.1919
  502MOL0     C67695   1.541  11.390   8.200  0.3043 -0.2795 -0.1593
  502MOL0     C67696   1.703  11.399   8.215 -0.1827  0.6208 -0.6048
  502MOL0     C67697   1.762  11.271   8.153 -0.2031  0.1260  0.0294
  502MOL0     C67698   1.913  11.256   8.172  0.6537  0.2661 -0.1130
  502MOL0     C67699   1.958  11.132   8.104  0.4038 -0.1785 -0.4227
  502MOL0     C67700   1.985  11.031   8.040  0.7762  0.3808  0.1578
  502MOL0     C67701   1.259  11.329   8.194  0.7739 -1.2436 -0.8107
  502MOL0     C67702   1.121  11.302   8.195 -0.2078 -0.5297  0.3431
  502MOL0     H67703   0.703  11.072   8.228 -0.6947  4.4615 -1.1023
  502MOL0     H67704   0.463  11.004   8.206  0.3436  1.4184 -0.0780
  502MOL0     H67705   0.291  10.871   8.146 -4.5737  1.3596  1.5961
  502MOL0     H67706   0.250  11.014   8.055  2.5053  0.9699 -2.3207
  502MOL0     H67707   0.147  10.864   7.879 -0.9815 -0.9374 -0.1038
  502MOL0     H67708   0.168  10.727   7.986  0.1366  0.2063  1.0766
  502MOL0     H67709   0.005  10.971   8.013 -0.2034  0.6322  1.1796
  502MOL0     H67710  -0.064  10.813   8.029  0.4831  0.6014  0.1322
  502MOL0     H67711   0.094  10.792   8.249  0.8119  1.0990  2.9665
  502MOL0     H67712   0.094  10.970   8.224  0.7015 -0.2451 -1.5961
  502MOL0     H67713  -0.167  10.945   8.212 -1.1826 -1.1374 -1.0651
  502MOL0     H67714  -0.133  10.776   8.256 -0.8509  0.5483  0.4003
  502MOL0     H67715  -0.081  10.812   8.468  2.1285 -0.7415 -2.7552
  502MOL0     H67716  -0.037  10.986   8.442 -0.0812  1.2473 -0.2633
  502MOL0     H67717  -0.277  11.045   8.386  0.7424 -0.0116  0.6583
  502MOL0     H67718  -0.318  10.881   8.432 -0.5295  0.1002 -1.2069
  502MOL0     H67719  -0.187  11.079   8.621  0.9693 -1.1431  0.8265
  502MOL0     H67720  -0.242  10.915   8.652 -0.3442  0.1860 -1.2207
  502MOL0     H67721  -0.517  10.876   8.594 -0.2334 -0.2071  0.0350
  502MOL0     H67722  -0.754  10.931   8.676  0.7602 -1.1042 -2.4849
  502MOL0     H67723  -0.774  11.099   8.735 -0.8312 -0.0747 -0.3428
  502MOL0     H67724  -0.828  10.967   8.452 -2.4706  2.9474 -3.9174
  502MOL0     H67725  -0.813  11.132   8.457  2.9511 -1.6236 -0.0605
  502MOL0     H67726  -0.985  11.149   8.625  1.1170  0.3858 -1.4031
  502MOL0     H67727  -1.004  10.978   8.644  1.6618 -1.4952 -1.3514
  502MOL0     H67728  -1.192  11.073   8.524 -0.7192  0.4995 -2.0161
  502MOL0     H67729  -1.122  10.942   8.444 -1.5385  0.1845  1.2559
  502MOL0     H67730  -0.954  10.905   8.243  0.5201  2.2092  2.3627
  502MOL0     H67731  -0.936  10.773   7.972 -0.7422  0.5299  1.2297
  502MOL0     H67732  -0.795  10.884   7.951 -1.0559  1.2917 -0.1278
  502MOL0     H67733  -0.821  10.814   8.101 -1.1117  3.0078  3.3041
  502MOL0     H67734  -0.964  11.002   7.496 -1.9261  1.0347 -0.9810
  502MOL0     H67735  -0.845  11.087   7.288 -1.7018  0.1415  0.4231
  502MOL0     H67736  -0.718  11.442   7.136 -0.5496 -0.9122  0.0058
  502MOL0     H67737  -0.692  11.487   7.313  0.8972  0.2130  1.4839
  502MOL0     H67738  -0.493  11.392   7.323 -0.5852  1.7126 -0.1567
  502MOL0     H67739  -0.510  11.301   7.164 -0.2111  0.8112 -2.5155
  502MOL0     H67740  -0.483  11.602   7.215  1.7185  0.4975  0.1687
  502MOL0     H67741  -0.507  11.531   7.048  0.5160 -0.7126  0.2431
  502MOL0     H67742  -0.272  11.471   7.221  1.1853 -1.6672 -1.0663
  502MOL0     H67743  -0.319  11.386   7.069 -5.9622  0.5761 -2.4539
  502MOL0     H67744  -0.229  11.685   7.095  0.9546  0.2884 -2.3440
  502MOL0     H67745  -0.312  11.623   6.961 -1.2620 -2.2357 -0.9557
  502MOL0     H67746  -0.147  11.453   6.921 -0.1387  0.1250  0.0889
  502MOL0     H67747  -0.075  11.607   6.908 -2.4440 -0.3356 -0.9173
  502MOL0     H67748   0.092  11.498   7.038  0.3218  2.0620  1.0902
  502MOL0     H67749  -0.029  11.415   7.136  0.0060 -1.3181 -3.1050
  502MOL0     H67750   0.076  11.584   7.272 -1.3412  1.0719  2.3080
  502MOL0     H67751  -0.085  11.623   7.259  1.6253  1.0145  1.7992
  502MOL0     H67752  -0.775  11.464   7.498 -0.5101  0.0494 -0.6649
  502MOL0     H67753  -0.905  11.380   7.682  1.6459 -0.2114 -0.4897
  502MOL0     H67754  -1.085  11.261   7.930 -1.2851 -2.1045 -1.1948
  502MOL0     H67755  -1.149  11.273   8.177  0.9900 -2.1038  3.2839
  502MOL0     H67756   0.558  10.876   7.802 -1.6207  1.5514 -0.2079
  502MOL0     H67757   0.798  10.940   7.832 -1.2666  0.9654 -0.4925
  502MOL0     H67758   1.131  11.027   7.998  0.2005 -1.3870  2.9502
  502MOL0     H67759   1.349  11.068   7.994 -0.8527  0.0342 -1.4156
  502MOL0     H67760   1.502  11.490   8.176 -0.1590 -0.3994  0.0854
  502MOL0     H67761   1.497  11.384   8.300 -1.1808  6.6874  0.1240
  502MOL0     H67762   1.731  11.406   8.321 -1.1466 -1.2600 -0.1766
  502MOL0     H67763   1.753  11.483   8.167  0.9757  1.4883  1.9187
  502MOL0     H67764   1.756  11.266   8.044  1.9613  0.7687 -0.1645
  502MOL0     H67765   1.708  11.181   8.186 -0.5810 -0.7980 -2.8058
  502MOL0     H67766   1.938  11.251   8.278  0.4431  2.9485  0.1341
  502MOL0     H67767   1.971  11.340   8.133 -0.9441  0.8387 -1.3761
  502MOL0     H67768   2.012  10.941   7.990  2.7700  0.3349  1.2090
  502MOL0     H67769   1.277  11.422   8.246  0.3495 -1.1947 -0.7489
  502MOL0     H67770   1.052  11.360   8.256  0.7398  0.8353  0.1609
  503MOL0     O67771   7.093   3.602   0.989  0.3581 -0.7178  0.0474
  503MOL0     C67772   7.124   3.659   0.885 -0.4356 -0.4213  0.3784
  503MOL0     O67773   7.039   3.716   0.790  0.2573  0.4736 -0.3586
  503MOL0     C67774   6.904   3.704   0.793  0.2468 -0.6284  0.0334
  503MOL0     C67775   6.835   3.806   0.731  1.3054  0.0721  0.6182
  503MOL0     C67776   6.691   3.804   0.730  0.2711 -0.2250  0.4863
  503MOL0     C67777   6.624   3.705   0.801  0.3518  0.5563  0.9588
  503MOL0     O67778   6.488   3.706   0.791  1.1203  0.5951 -0.2482
  503MOL0     C67779   6.424   3.697   0.918  0.5723  0.7973 -0.0034
  503MOL0     C67780   6.314   3.794   0.903 -0.2122 -1.0947 -0.7207
  503MOL0     C67781   6.222   3.771   0.781  0.4872  0.4153  0.3296
  503MOL0     C67782   6.069   3.777   0.814 -0.4142 -0.5050 -0.3020
  503MOL0     C67783   5.972   3.764   0.698 -0.7261  0.8138  0.4379
  503MOL0     C67784   5.832   3.797   0.744 -0.2532 -0.0626 -0.0112
  503MOL0     C67785   5.737   3.800   0.620  0.8326 -0.1525  0.9216
  503MOL0     C67786   5.587   3.793   0.649 -0.0044  1.0112  0.5786
  503MOL0     N67787   5.510   3.808   0.524 -0.0739 -1.0656 -0.4398
  503MOL0     C67788   5.441   3.922   0.483 -1.5383 -0.5518  0.0496
  503MOL0     C67789   5.417   3.897   0.354  0.1962 -1.3669  0.6697
  503MOL0     C67790   5.345   3.983   0.259  0.2899 -0.2317 -0.0335
  503MOL0     C67791   5.199   4.003   0.286 -0.5687 -0.3516  0.2777
  503MOL0     C67792   5.134   3.856   0.302  0.5729  0.1391  0.1134
  503MOL0     C67793   4.982   3.856   0.300  0.4392 -0.1661  0.5258
  503MOL0     O67794   4.946   3.892   0.433 -0.1495 -0.6134  0.7459
  503MOL0     C67795   4.813   3.900   0.467  0.5963  0.0903  0.0466
  503MOL0     C67796   4.769   3.862   0.597 -0.5085 -0.0238 -0.4423
  503MOL0     C67797   4.634   3.869   0.638  0.2068  0.5995 -1.0925
  503MOL0     C67798   4.598   3.816   0.782 -0.0422 -0.3040  0.3341
  503MOL0     C67799   4.527   3.922   0.552  0.4930  0.1593 -0.2829
  503MOL0     C67800   4.390   3.933   0.584  0.8853  0.2659 -0.1737
  503MOL0     O67801   4.317   4.023   0.504 -0.6274  0.3954  0.6048
  503MOL0     C67802   4.183   4.051   0.516 -0.9509  0.8341 -0.4765
  503MOL0     C67803   4.144   4.177   0.467  0.2481  0.0093  0.5647
  503MOL0     C67804   4.013   4.207   0.472 -0.0176 -0.6462 -0.0231
  503MOL0     C67805   3.921   4.112   0.517  0.8312 -0.3937  1.1686
  503MOL0     O67806   3.793   4.170   0.526  0.3755 -0.4382 -0.4404
  503MOL0     C67807   3.707   4.125   0.625  0.5752  0.1275 -0.2270
  503MOL0     C67808   3.678   4.233   0.719 -0.5396  0.3163 -0.6193
  503MOL0     C67809   3.605   4.202   0.848 -0.3614  0.5462  0.1368
  503MOL0     C67810   3.453   4.193   0.835  0.4118 -0.2431 -0.1481
  503MOL0     C67811   3.386   4.181   0.970  0.6784  0.6342  1.0076
  503MOL0     C67812   3.260   4.107   0.985  0.1633  0.1787 -0.6275
  503MOL0     C67813   3.199   4.137   1.132  0.6032 -0.4983  0.1811
  503MOL0     C67814   3.077   4.041   1.138 -0.3581 -0.2173  0.0747
  503MOL0    Cl67815   2.942   4.079   1.030 -0.1327 -0.2772 -0.1521
  503MOL0     C67816   3.958   3.986   0.553  0.3951  0.2067  0.2616
  503MOL0     C67817   4.097   3.951   0.548 -0.2590  0.2065  0.7325
  503MOL0     O67818   4.345   3.851   0.660  0.2456  0.0763 -0.3876
  503MOL0     C67819   4.581   3.963   0.417  1.1255  0.1584 -0.2567
  503MOL0     C67820   4.715   3.946   0.380  0.7386  0.2068  0.5184
  503MOL0     N67821   5.460   3.771   0.328  0.3995 -0.4268 -0.3155
  503MOL0     N67822   5.518   3.716   0.429  0.8630  0.5313 -0.0765
  503MOL0     C67823   6.698   3.602   0.857  1.0352  0.4351  0.0990
  503MOL0     C67824   6.832   3.604   0.859 -0.1073  0.8257  0.6656
  503MOL0     C67825   7.268   3.679   0.856 -0.3795  0.6700 -0.5738
  503MOL0     C67826   7.367   3.623   0.942  0.5782 -0.0198  0.0559
  503MOL0     C67827   7.502   3.631   0.900 -0.3680  0.5415  0.4403
  503MOL0     C67828   7.545   3.712   0.785  0.4227 -0.1049  0.6846
  503MOL0     O67829   7.674   3.732   0.738 -0.0418 -0.1004  1.2281
  503MOL0     C67830   7.790   3.681   0.807 -0.0274  0.1788 -0.0956
  503MOL0     C67831   7.859   3.803   0.862 -0.5934 -0.2868  0.1983
  503MOL0     C67832   7.886   3.788   1.020  0.8745 -0.0178  0.1259
  503MOL0     C67833   7.765   3.833   1.097 -0.8981 -0.1229  0.8976
  503MOL0     C67834   7.814   3.857   1.234  0.9422 -0.2072  0.3451
  503MOL0     C67835   7.872   3.868   1.337 -0.0005  0.0704 -1.0380
  503MOL0     C67836   7.437   3.763   0.705 -0.0916  0.1894 -0.0140
  503MOL0     C67837   7.303   3.736   0.738  0.4559 -0.7786  0.6004
  503MOL0     H67838   6.885   3.887   0.678 -1.2514 -0.1156 -2.3741
  503MOL0     H67839   6.634   3.891   0.698 -1.0576 -0.3891  2.2683
  503MOL0     H67840   6.381   3.597   0.921 -0.3628  1.2130  1.4895
  503MOL0     H67841   6.487   3.731   1.001  2.1722 -2.3648  0.2140
  503MOL0     H67842   6.250   3.795   0.992  2.3152 -3.6739  1.3370
  503MOL0     H67843   6.360   3.892   0.887 -1.6544 -0.2182  0.2972
  503MOL0     H67844   6.240   3.849   0.707 -1.7204 -0.7133 -1.5297
  503MOL0     H67845   6.242   3.670   0.743  3.1138  1.2225 -0.6591
  503MOL0     H67846   6.038   3.697   0.882 -1.3684  1.7879  2.1834
  503MOL0     H67847   6.057   3.870   0.871 -2.0467  1.1068 -3.0807
  503MOL0     H67848   6.012   3.820   0.613  2.7638 -3.3343 -1.0136
  503MOL0     H67849   5.966   3.664   0.657 -1.4638  1.2163 -0.4745
  503MOL0     H67850   5.804   3.714   0.810  0.9759 -0.1912  0.3646
  503MOL0     H67851   5.827   3.896   0.789  1.5453 -0.5470  1.3401
  503MOL0     H67852   5.755   3.899   0.576  1.4571 -0.0957  1.3080
  503MOL0     H67853   5.762   3.721   0.548  1.0027  0.3624  0.4081
  503MOL0     H67854   5.560   3.874   0.716  0.4479  2.7232 -1.2060
  503MOL0     H67855   5.561   3.693   0.687 -1.6846  1.3897  0.4801
  503MOL0     H67856   5.431   4.008   0.548  0.7279 -0.6709  0.6551
  503MOL0     H67857   5.399   4.078   0.267  2.5789 -1.3770 -0.9258
  503MOL0     H67858   5.374   3.956   0.157  1.7047  1.7284 -0.2069
  503MOL0     H67859   5.171   4.067   0.202  1.4414 -0.4373 -0.5060
  503MOL0     H67860   5.170   4.067   0.371  0.2224  1.1478 -0.5354
  503MOL0     H67861   5.175   3.797   0.383 -0.7026 -0.0219  0.6614
  503MOL0     H67862   5.161   3.806   0.208 -0.0778  1.4174 -0.7981
  503MOL0     H67863   4.955   3.754   0.271 -0.6472 -0.3074  1.8985
  503MOL0     H67864   4.951   3.934   0.229  1.9024 -0.9323 -1.0179
  503MOL0     H67865   4.845   3.826   0.665 -0.2739 -0.7543 -1.0718
  503MOL0     H67866   4.691   3.791   0.834  0.0409 -0.2136  0.2269
  503MOL0     H67867   4.550   3.897   0.838 -1.3742 -0.8504  0.0205
  503MOL0     H67868   4.525   3.734   0.777  1.0889 -1.2620 -1.4791
  503MOL0     H67869   4.205   4.261   0.433 -1.8676  1.3444 -0.0925
  503MOL0     H67870   3.974   4.299   0.430 -1.0000 -1.7912 -1.7603
  503MOL0     H67871   3.620   4.075   0.580 -1.3747  3.6549 -0.7973
  503MOL0     H67872   3.755   4.056   0.695  2.3291  1.5035 -0.0063
  503MOL0     H67873   3.765   4.291   0.754 -1.2772  1.6023 -0.8432
  503MOL0     H67874   3.613   4.307   0.672 -1.0287  0.3341  0.0683
  503MOL0     H67875   3.614   4.270   0.934  0.6346 -2.5155  2.6572
  503MOL0     H67876   3.648   4.115   0.899 -0.6827  0.0106 -0.4843
  503MOL0     H67877   3.428   4.282   0.775  0.1680 -0.9705 -1.1497
  503MOL0     H67878   3.420   4.112   0.770 -0.9967  1.2248 -1.3634
  503MOL0     H67879   3.386   4.281   1.016  1.7370  0.8592  0.5448
  503MOL0     H67880   3.448   4.114   1.030 -0.7539 -1.2406  0.4833
  503MOL0     H67881   3.190   4.140   0.908 -1.7773 -0.3789  0.8260
  503MOL0     H67882   3.277   3.999   0.977 -0.4790  0.0017  0.2412
  503MOL0     H67883   3.157   4.238   1.137 -1.6248 -1.1981 -2.1063
  503MOL0     H67884   3.265   4.117   1.217 -0.4683  1.3610  1.5297
  503MOL0     H67885   3.044   4.050   1.242 -1.0324  3.4886 -0.3135
  503MOL0     H67886   3.097   3.935   1.122 -0.0105 -0.0110 -0.9372
  503MOL0     H67887   3.884   3.914   0.585 -1.2283  2.7585  2.6727
  503MOL0     H67888   4.117   3.847   0.569 -0.6850 -0.1621 -0.5910
  503MOL0     H67889   4.512   4.018   0.354  0.0730 -0.6253  0.1812
  503MOL0     H67890   4.741   3.967   0.277 -0.7901 -4.1128 -0.9738
  503MOL0     H67891   6.641   3.519   0.898  0.5239  1.9677  2.7545
  503MOL0     H67892   6.885   3.516   0.895 -1.7268 -0.9133 -0.9918
  503MOL0     H67893   7.346   3.558   1.025  0.6174 -1.8022 -1.2766
  503MOL0     H67894   7.571   3.565   0.953  1.6711  0.8959 -1.5901
  503MOL0     H67895   7.760   3.609   0.884 -1.8830  2.3981  1.3786
  503MOL0     H67896   7.858   3.628   0.740 -1.3588 -1.1038 -0.5015
  503MOL0     H67897   7.799   3.892   0.840  1.0296  0.8775  0.3085
  503MOL0     H67898   7.953   3.813   0.808 -2.7180 -1.8176 -4.2289
  503MOL0     H67899   7.976   3.840   1.053  1.7217 -0.3112 -1.6347
  503MOL0     H67900   7.886   3.682   1.048 -0.2665  0.0814  0.5623
  503MOL0     H67901   7.693   3.751   1.104  0.6804 -1.5408  1.4044
  503MOL0     H67902   7.729   3.925   1.051 -1.6492 -1.1200 -0.5815
  503MOL0     H67903   7.933   3.877   1.425  0.1304  1.2825 -1.2284
  503MOL0     H67904   7.443   3.822   0.614 -3.0225 -1.4829 -1.4425
  503MOL0     H67905   7.228   3.780   0.674  1.3366  0.1377  0.1680
  504MOL0     O67906   3.210   6.387   6.128  0.3139  0.7118  0.2321
  504MOL0     C67907   3.193   6.479   6.206 -0.1696  0.0571  0.3185
  504MOL0     O67908   3.113   6.468   6.314 -0.2034  0.3456  0.0855
  504MOL0     C67909   3.046   6.350   6.356 -0.4034 -0.6669  1.0663
  504MOL0     C67910   3.040   6.325   6.494  0.4525  0.9127 -0.3592
  504MOL0     C67911   2.989   6.205   6.543  0.2448 -0.2730  0.2379
  504MOL0     C67912   2.925   6.118   6.450 -0.2780  0.7671 -0.4013
  504MOL0     O67913   2.881   5.990   6.501  0.5587  0.1366 -0.4151
  504MOL0     C67914   2.854   5.959   6.643  1.7632 -0.3233 -0.2066
  504MOL0     C67915   2.714   6.005   6.683  0.1915 -0.5769 -0.2681
  504MOL0     C67916   2.694   6.010   6.842 -0.0872 -0.5096 -0.1714
  504MOL0     C67917   2.799   6.098   6.916 -0.4286 -0.1243 -0.0728
  504MOL0     C67918   2.744   6.177   7.044 -0.3723 -0.2704  0.0990
  504MOL0     C67919   2.676   6.084   7.147 -0.0450 -0.0858  0.9256
  504MOL0     C67920   2.780   5.991   7.212  0.4645 -0.2853  0.3249
  504MOL0     C67921   2.709   5.901   7.317 -0.2645 -0.4330 -0.4086
  504MOL0     N67922   2.793   5.889   7.434 -0.4227 -0.2593 -0.3700
  504MOL0     C67923   2.881   5.784   7.462 -0.2449 -0.6129  0.1442
  504MOL0     C67924   2.914   5.815   7.591 -0.4175 -0.2618 -0.6044
  504MOL0     C67925   3.004   5.738   7.692  0.8811 -0.2950  0.2205
  504MOL0     C67926   2.935   5.735   7.836  0.0169 -0.7070 -0.2515
  504MOL0     C67927   2.807   5.648   7.856  1.1779  0.0962  0.2702
  504MOL0     C67928   2.729   5.678   7.978 -1.0259  0.0866 -1.1886
  504MOL0     O67929   2.604   5.618   7.975  0.2322 -0.1333 -0.8378
  504MOL0     C67930   2.500   5.682   7.919  0.3096 -1.3564 -0.0321
  504MOL0     C67931   2.499   5.792   7.834 -0.7335 -0.5110 -0.1896
  504MOL0     C67932   2.378   5.855   7.791  0.4380 -0.6679  0.0096
  504MOL0     C67933   2.378   5.988   7.730 -1.1519  0.2687  0.4218
  504MOL0     C67934   2.254   5.793   7.819 -0.7821  0.0056 -0.4872
  504MOL0     C67935   2.114   5.829   7.785  0.4470  0.7981  0.5572
  504MOL0     O67936   2.023   5.808   7.886  0.4918 -0.5411  1.0479
  504MOL0     C67937   1.891   5.836   7.865 -0.3249 -1.1889 -0.3068
  504MOL0     C67938   1.803   5.736   7.891 -0.2275  0.3722  0.0603
  504MOL0     C67939   1.667   5.752   7.874 -0.1412 -0.8392 -0.8441
  504MOL0     C67940   1.608   5.880   7.842 -0.3914  0.7625  0.5510
  504MOL0     O67941   1.475   5.904   7.833 -0.8980  0.6185  0.2369
  504MOL0     C67942   1.377   5.802   7.814  0.5463 -0.9951 -0.0577
  504MOL0     C67943   1.380   5.717   7.682 -0.9243 -0.2041 -0.0301
  504MOL0     C67944   1.247   5.629   7.667  0.1020  0.4720 -0.3403
  504MOL0     C67945   1.275   5.470   7.671  0.3657  0.1211 -0.0375
  504MOL0     C67946   1.300   5.420   7.811 -0.0638 -0.1521  0.7961
  504MOL0     C67947   1.323   5.270   7.822 -0.0869  0.4598 -0.4053
  504MOL0     C67948   1.466   5.235   7.781  0.2906 -0.6462  0.4777
  504MOL0     C67949   1.518   5.100   7.834 -0.2192  0.1759  0.5799
  504MOL0    Cl67950   1.502   5.080   8.006  0.1776 -0.0288 -0.1064
  504MOL0     C67951   1.694   5.984   7.812  0.4623  0.6636  0.3341
  504MOL0     C67952   1.838   5.967   7.827  0.0677 -0.6318 -0.9212
  504MOL0     O67953   2.085   5.876   7.675  0.1860 -0.5349 -0.0414
  504MOL0     C67954   2.260   5.677   7.891 -1.0819  0.6251 -0.5162
  504MOL0     C67955   2.377   5.629   7.945 -0.7133  0.6192 -0.0805
  504MOL0     N67956   2.862   5.935   7.626 -0.0569  0.0584  0.5777
  504MOL0     N67957   2.784   5.985   7.534  0.4291  0.6755 -0.7090
  504MOL0     C67958   2.921   6.144   6.318 -0.5265 -0.2540  0.4118
  504MOL0     C67959   2.976   6.260   6.271 -0.2329  0.5404 -0.3149
  504MOL0     C67960   3.286   6.597   6.213 -0.5941 -0.2761 -0.1054
  504MOL0     C67961   3.378   6.616   6.113  0.3461 -0.2058 -0.0100
  504MOL0     C67962   3.455   6.732   6.111  0.5559  0.2070  0.1782
  504MOL0     C67963   3.441   6.831   6.201 -0.0287 -0.2041 -0.1757
  504MOL0     O67964   3.515   6.947   6.188  0.8640 -0.0297 -0.0752
  504MOL0     C67965   3.454   7.074   6.238  0.1987  1.4948  0.1742
  504MOL0     C67966   3.540   7.182   6.183  1.2399  0.6941  0.1499
  504MOL0     C67967   3.663   7.219   6.270 -0.3001  0.3048  0.6469
  504MOL0     C67968   3.653   7.333   6.371 -0.1710 -0.2115 -0.8143
  504MOL0     C67969   3.747   7.299   6.477 -0.3555  0.3754 -0.0663
  504MOL0     C67970   3.821   7.255   6.558  0.3645 -0.8106  0.0835
  504MOL0     C67971   3.346   6.819   6.301  0.0717  0.8731 -0.1668
  504MOL0     C67972   3.273   6.697   6.304  0.2211  0.4845  0.2876
  504MOL0     H67973   3.094   6.394   6.558  1.1300  1.4232 -1.4450
  504MOL0     H67974   2.989   6.187   6.650 -3.2627  0.6604  0.5217
  504MOL0     H67975   2.858   5.849   6.646  1.7010 -0.3525 -1.0077
  504MOL0     H67976   2.936   5.995   6.705  2.5337 -1.0334 -0.7868
  504MOL0     H67977   2.708   6.113   6.664  2.5707 -0.5838 -1.5818
  504MOL0     H67978   2.636   5.954   6.626 -0.6946  0.2525  0.1893
  504MOL0     H67979   2.591   6.045   6.856 -0.7054 -2.0502 -0.6917
  504MOL0     H67980   2.699   5.906   6.875  0.7308 -0.3331  0.2903
  504MOL0     H67981   2.884   6.034   6.940  0.1586  0.1986 -1.2085
  504MOL0     H67982   2.840   6.171   6.845 -1.7941  0.7712  0.0231
  504MOL0     H67983   2.822   6.245   7.081 -0.3999  0.3348 -0.9312
  504MOL0     H67984   2.667   6.240   6.998  0.1126 -0.9439 -1.6840
  504MOL0     H67985   2.646   6.151   7.229  0.4345 -0.8235  1.7150
  504MOL0     H67986   2.595   6.021   7.108  1.3986 -2.1063  1.0873
  504MOL0     H67987   2.826   5.923   7.140 -1.0465  0.1681 -1.1451
  504MOL0     H67988   2.854   6.061   7.252 -0.2456  1.5301 -1.3682
  504MOL0     H67989   2.677   5.800   7.291  2.2565 -1.0190 -1.5226
  504MOL0     H67990   2.617   5.958   7.336  1.4046  1.6175  2.1973
  504MOL0     H67991   2.922   5.707   7.398  1.3445  0.4797 -0.2165
  504MOL0     H67992   3.029   5.639   7.653 -0.7341  0.2695 -2.4374
  504MOL0     H67993   3.100   5.791   7.692  1.1777 -0.7560 -2.0024
  504MOL0     H67994   2.914   5.838   7.867  3.0113 -0.9295  3.2239
  504MOL0     H67995   3.001   5.701   7.916 -0.2842  0.7169  0.6399
  504MOL0     H67996   2.816   5.539   7.856  4.4588  0.2481  0.4606
  504MOL0     H67997   2.742   5.673   7.771 -0.9762 -0.5403  1.6633
  504MOL0     H67998   2.722   5.786   7.993 -1.7528 -0.0118 -0.7583
  504MOL0     H67999   2.783   5.635   8.062 -0.4035  1.5218 -0.8317
  504MOL0     H68000   2.584   5.858   7.831 -0.3772 -0.9496  0.2080
  504MOL0     H68001   2.349   5.979   7.625  1.7268  1.0791 -0.5336
  504MOL0     H68002   2.303   6.049   7.781  1.2921  0.0273  4.7991
  504MOL0     H68003   2.481   6.023   7.738 -0.7143 -0.7239 -0.6012
  504MOL0     H68004   1.847   5.643   7.926  4.9410  2.1157 -0.9724
  504MOL0     H68005   1.599   5.675   7.909  0.4055  0.3506  3.4761
  504MOL0     H68006   1.392   5.740   7.903 -1.5797 -0.6983  0.5618
  504MOL0     H68007   1.278   5.846   7.832  0.5194 -1.7803  2.0003
  504MOL0     H68008   1.386   5.788   7.600 -1.5819  1.5371  1.3663
  504MOL0     H68009   1.476   5.665   7.672 -0.8165  0.2203 -1.3544
  504MOL0     H68010   1.172   5.641   7.589 -1.7544  1.1418  1.4403
  504MOL0     H68011   1.171   5.658   7.741 -3.3744 -0.6395 -3.2019
  504MOL0     H68012   1.183   5.425   7.633 -1.0162  0.5982  2.5247
  504MOL0     H68013   1.357   5.430   7.610  0.7038  0.7008  0.0267
  504MOL0     H68014   1.198   5.424   7.850  0.2887 -0.6587  1.8053
  504MOL0     H68015   1.370   5.481   7.868  0.6008  0.8224 -0.9885
  504MOL0     H68016   1.304   5.241   7.925 -0.2461  4.7536  0.9548
  504MOL0     H68017   1.244   5.222   7.764  0.8971 -1.2573 -0.4038
  504MOL0     H68018   1.529   5.317   7.818  1.0769 -1.8413  1.8928
  504MOL0     H68019   1.481   5.238   7.672 -1.1295  0.4626  0.2832
  504MOL0     H68020   1.624   5.094   7.805 -0.1080 -1.6392  1.2285
  504MOL0     H68021   1.465   5.017   7.786  1.6334 -1.1003  0.5864
  504MOL0     H68022   1.646   6.075   7.777 -0.8269 -0.1630 -0.1031
  504MOL0     H68023   1.898   6.057   7.813 -0.1863 -0.2168  0.4738
  504MOL0     H68024   2.173   5.615   7.912 -0.9704 -1.3143 -4.7310
  504MOL0     H68025   2.354   5.544   8.008  2.0531  0.2068  0.5275
  504MOL0     H68026   2.884   6.081   6.237 -0.1228 -0.1283  0.1268
  504MOL0     H68027   2.993   6.268   6.164  0.2782 -0.8447 -0.3561
  504MOL0     H68028   3.376   6.554   6.024  2.1538  0.2040 -0.3839
  504MOL0     H68029   3.510   6.757   6.020  1.7046 -1.1885  0.4537
  504MOL0     H68030   3.349   7.073   6.207 -0.4124 -1.6724  1.9214
  504MOL0     H68031   3.461   7.079   6.347  1.5015 -1.1240  0.2715
  504MOL0     H68032   3.485   7.276   6.168  0.3319  0.3596  1.2321
  504MOL0     H68033   3.581   7.147   6.088  0.6277 -1.8822  0.7514
  504MOL0     H68034   3.746   7.230   6.199  0.2159  0.2000  1.2281
  504MOL0     H68035   3.684   7.128   6.327 -1.0519  0.1190  0.6432
  504MOL0     H68036   3.551   7.344   6.409  0.3696  4.6243 -0.1313
  504MOL0     H68037   3.680   7.430   6.328  1.6485  0.0091  0.6642
  504MOL0     H68038   3.864   7.226   6.651  1.6363  3.6585  1.1302
  504MOL0     H68039   3.344   6.887   6.386  1.9866  1.9681 -0.9426
  504MOL0     H68040   3.226   6.672   6.399  0.1326 -2.2868 -0.4030
  505MOL0     O68041   3.079   6.102   5.388 -0.1079  0.0405  0.2305
  505MOL0     C68042   3.027   6.183   5.465  0.0066  0.1234  0.0674
  505MOL0     O68043   3.095   6.255   5.560 -0.7333 -0.1420 -0.7073
  505MOL0     C68044   3.224   6.244   5.564 -0.4111  0.2248  0.2988
  505MOL0     C68045   3.280   6.175   5.674 -1.5354  0.4898 -0.9339
  505MOL0     C68046   3.416   6.147   5.677 -0.9548  0.0933  0.1407
  505MOL0     C68047   3.500   6.194   5.569 -0.6447 -0.4058 -0.3415
  505MOL0     O68048   3.633   6.167   5.563  0.5377 -0.5769 -0.3403
  505MOL0     C68049   3.688   6.080   5.463 -0.3625  0.1853 -0.2858
  505MOL0     C68050   3.669   5.936   5.492  0.7103  0.4523 -0.5476
  505MOL0     C68051   3.773   5.891   5.596  0.2061 -0.5121 -0.4175
  505MOL0     C68052   3.775   5.741   5.618  0.6118 -0.0851  1.1726
  505MOL0     C68053   3.886   5.693   5.701 -0.0587  0.0395 -0.3570
  505MOL0     C68054   4.027   5.720   5.645 -0.3159 -0.1137  0.7364
  505MOL0     C68055   4.130   5.647   5.727  0.3200 -0.0510 -0.3023
  505MOL0     C68056   4.278   5.664   5.683  0.4905 -0.1756  0.0250
  505MOL0     N68057   4.326   5.799   5.702 -0.2226 -0.0792 -0.2015
  505MOL0     C68058   4.388   5.838   5.816 -0.4175  0.6179  0.7464
  505MOL0     C68059   4.414   5.972   5.807  0.0254  0.1547  0.3824
  505MOL0     C68060   4.485   6.068   5.891  0.1868  0.9670 -0.0643
  505MOL0     C68061   4.578   6.168   5.811  0.7353 -0.5207 -0.6306
  505MOL0     C68062   4.690   6.104   5.738  0.2284  0.1020 -1.8336
  505MOL0     C68063   4.762   6.216   5.675 -0.2097  0.4754  0.8154
  505MOL0     O68064   4.810   6.316   5.767  0.7806 -0.4314  0.0009
  505MOL0     C68065   4.883   6.412   5.715 -0.1427 -0.0644  0.3206
  505MOL0     C68066   4.928   6.518   5.803  1.0095  0.0879  0.0060
  505MOL0     C68067   5.021   6.616   5.760 -1.0379  0.1123 -0.3661
  505MOL0     C68068   5.074   6.729   5.855  0.2308 -0.2566  0.8285
  505MOL0     C68069   5.072   6.608   5.629  0.2940  0.0739 -0.7592
  505MOL0     C68070   5.180   6.701   5.588 -0.7162 -0.2076 -0.9767
  505MOL0     O68071   5.153   6.784   5.491 -0.1849  0.2564 -0.6077
  505MOL0     C68072   5.252   6.872   5.459  0.2991  0.2193  0.2506
  505MOL0     C68073   5.354   6.851   5.368  0.6889  0.0219  0.1433
  505MOL0     C68074   5.459   6.948   5.342  0.2403 -0.0266 -0.4701
  505MOL0     C68075   5.458   7.063   5.412  0.1825 -0.0805 -0.2098
  505MOL0     O68076   5.550   7.159   5.408  0.5447  0.7043  0.2176
  505MOL0     C68077   5.692   7.133   5.440  0.2605  0.5330 -0.2811
  505MOL0     C68078   5.768   7.002   5.400  0.0591 -0.5456  0.3663
  505MOL0     C68079   5.735   6.881   5.506 -0.5905  0.7310  0.1548
  505MOL0     C68080   5.817   6.753   5.470  0.2265 -0.4551 -0.7810
  505MOL0     C68081   5.790   6.639   5.562 -0.4273 -0.0633  0.0841
  505MOL0     C68082   5.665   6.552   5.525  0.6790 -0.6634 -0.9473
  505MOL0     C68083   5.650   6.430   5.607 -0.1140 -0.4335  0.2088
  505MOL0     C68084   5.592   6.448   5.749 -0.6753 -0.8768  0.8853
  505MOL0    Cl68085   5.706   6.532   5.867  0.3729  0.3343  0.2147
  505MOL0     C68086   5.362   7.083   5.511 -0.4115  0.6987 -0.4449
  505MOL0     C68087   5.264   6.994   5.539  0.3436 -0.6546  0.0903
  505MOL0     O68088   5.294   6.674   5.627 -0.3079 -0.5790  0.3791
  505MOL0     C68089   5.028   6.503   5.541  0.3794 -0.2742  0.1130
  505MOL0     C68090   4.939   6.408   5.584 -0.0199 -0.1406  0.5082
  505MOL0     N68091   4.362   6.013   5.680 -0.0172  0.0382  0.2380
  505MOL0     N68092   4.312   5.911   5.622  0.2961  0.2286  0.7216
  505MOL0     C68093   3.440   6.256   5.459 -0.5379  1.2502  0.7219
  505MOL0     C68094   3.305   6.280   5.451  0.3415  0.2582 -0.7702
  505MOL0     C68095   2.881   6.195   5.462  0.3501  0.1388 -0.1899
  505MOL0     C68096   2.789   6.094   5.437 -0.6993 -0.0702 -0.5364
  505MOL0     C68097   2.657   6.119   5.438 -0.0076 -0.7317  0.4729
  505MOL0     C68098   2.605   6.243   5.475  0.1137 -0.3988 -0.1068
  505MOL0     O68099   2.472   6.278   5.445 -0.0489 -0.1242 -0.3170
  505MOL0     C68100   2.411   6.224   5.336  0.9623  0.8052  0.5855
  505MOL0     C68101   2.268   6.271   5.315  0.9217 -0.0649 -0.6755
  505MOL0     C68102   2.176   6.236   5.426 -0.2791  1.4273 -0.4495
  505MOL0     C68103   2.033   6.286   5.435  0.7519 -0.1508  0.7505
  505MOL0     C68104   1.965   6.242   5.306  0.1225  0.2360  0.1391
  505MOL0     C68105   1.904   6.209   5.211  0.5077  0.5043  0.1073
  505MOL0     C68106   2.701   6.335   5.512  0.2618 -0.2380  0.3931
  505MOL0     C68107   2.838   6.320   5.498  1.4029  0.6506  0.9127
  505MOL0     H68108   3.208   6.134   5.744 -1.1949  1.0752 -0.2285
  505MOL0     H68109   3.465   6.093   5.758  1.4081  2.6664  0.5865
  505MOL0     H68110   3.651   6.106   5.364  0.9932  0.2375 -0.7985
  505MOL0     H68111   3.797   6.096   5.462 -0.1897 -0.8994 -1.4199
  505MOL0     H68112   3.567   5.916   5.527  0.8658  1.3550  0.4844
  505MOL0     H68113   3.687   5.876   5.402  1.8268 -0.3226  0.1774
  505MOL0     H68114   3.873   5.919   5.561 -0.5698  0.3632 -2.0693
  505MOL0     H68115   3.758   5.932   5.696  0.4088  0.0550 -0.6168
  505MOL0     H68116   3.684   5.710   5.671 -0.8269 -0.6062 -1.4318
  505MOL0     H68117   3.769   5.686   5.524 -0.7637 -4.3895  3.4821
  505MOL0     H68118   3.881   5.742   5.798 -3.0105 -0.3799 -0.2057
  505MOL0     H68119   3.867   5.587   5.720 -1.4793  0.3091 -0.1668
  505MOL0     H68120   4.019   5.691   5.540 -1.2361 -2.0746  1.3087
  505MOL0     H68121   4.051   5.827   5.640 -1.0128  0.0377  0.5678
  505MOL0     H68122   4.124   5.663   5.835 -0.5418 -3.6333  0.3093
  505MOL0     H68123   4.115   5.540   5.710 -2.3405  0.5184 -2.3200
  505MOL0     H68124   4.289   5.640   5.576 -1.2543 -0.5395 -0.1076
  505MOL0     H68125   4.342   5.590   5.731  1.1547 -0.4734 -1.2594
  505MOL0     H68126   4.419   5.772   5.896  2.3018  0.8612  0.0064
  505MOL0     H68127   4.411   6.128   5.945  0.9149  2.1852 -0.3712
  505MOL0     H68128   4.545   6.014   5.965 -0.5611  2.1109  1.4298
  505MOL0     H68129   4.612   6.235   5.891  2.8938 -0.1267 -1.8038
  505MOL0     H68130   4.512   6.225   5.745 -3.9593 -3.2516  1.1824
  505MOL0     H68131   4.656   6.042   5.654 -1.5313  1.3559 -2.1188
  505MOL0     H68132   4.749   6.058   5.817 -0.6903  2.0731  0.1086
  505MOL0     H68133   4.705   6.252   5.589 -1.2026  0.6443  1.5214
  505MOL0     H68134   4.848   6.171   5.625 -0.3621  2.1496 -1.0677
  505MOL0     H68135   4.873   6.533   5.895  2.1168  2.4593  0.3671
  505MOL0     H68136   5.041   6.830   5.829  0.3388 -0.8433 -1.9485
  505MOL0     H68137   5.043   6.709   5.957  0.5630 -1.0653  0.7799
  505MOL0     H68138   5.183   6.722   5.853  0.3294  0.4293  2.4091
  505MOL0     H68139   5.340   6.762   5.308  1.8097 -1.2538  1.6744
  505MOL0     H68140   5.520   6.941   5.253 -1.7662  2.1966 -2.1434
  505MOL0     H68141   5.759   7.200   5.386  0.0033  0.6590 -0.4434
  505MOL0     H68142   5.692   7.154   5.548 -3.0115  2.0816 -0.4473
  505MOL0     H68143   5.745   6.978   5.295 -1.3832  1.2438  0.2251
  505MOL0     H68144   5.877   7.007   5.409 -0.0330  1.0178  0.9173
  505MOL0     H68145   5.629   6.860   5.520 -0.4311  0.4321  0.9781
  505MOL0     H68146   5.777   6.905   5.604 -1.6992 -3.7010  1.9303
  505MOL0     H68147   5.782   6.719   5.372 -2.1168  0.5309 -0.3692
  505MOL0     H68148   5.919   6.792   5.468  0.1829  0.3340  3.7023
  505MOL0     H68149   5.795   6.666   5.668 -1.2439  3.3896 -0.6450
  505MOL0     H68150   5.876   6.573   5.548 -1.3851 -1.3048 -0.1837
  505MOL0     H68151   5.585   6.626   5.536  2.3352  0.9000  1.6673
  505MOL0     H68152   5.670   6.522   5.420  2.0378 -0.3349 -0.9940
  505MOL0     H68153   5.742   6.370   5.611  1.8167  2.4201  2.9852
  505MOL0     H68154   5.588   6.370   5.540  2.3360  0.0927 -2.7513
  505MOL0     H68155   5.569   6.346   5.782  0.1345 -1.6601 -0.8660
  505MOL0     H68156   5.498   6.504   5.739  0.1059  0.2818 -0.2987
  505MOL0     H68157   5.360   7.173   5.571  1.3752  0.8179 -0.5210
  505MOL0     H68158   5.194   7.010   5.620 -2.0529  0.2529 -2.0234
  505MOL0     H68159   5.067   6.506   5.440 -3.1638 -0.9139 -1.4033
  505MOL0     H68160   4.918   6.328   5.513  2.7544 -0.3152 -0.2344
  505MOL0     H68161   3.494   6.264   5.365 -1.4127 -2.8575 -0.3211
  505MOL0     H68162   3.252   6.316   5.363 -0.6816  0.0601 -0.2395
  505MOL0     H68163   2.825   5.995   5.414 -1.0920 -0.0557 -1.2583
  505MOL0     H68164   2.594   6.038   5.402 -1.4964  0.4539  0.2985
  505MOL0     H68165   2.473   6.243   5.247  1.0301 -0.8249  0.2435
  505MOL0     H68166   2.414   6.116   5.354 -0.0374  0.0294 -3.0060
  505MOL0     H68167   2.224   6.232   5.223 -2.1937  1.1951  0.1647
  505MOL0     H68168   2.257   6.380   5.306 -1.9185 -0.1772  0.5442
  505MOL0     H68169   2.216   6.260   5.525 -1.5637 -1.6336  0.9621
  505MOL0     H68170   2.170   6.127   5.417  3.0362  1.3240 -2.8180
  505MOL0     H68171   2.029   6.394   5.449 -0.2573 -0.0267 -0.2772
  505MOL0     H68172   1.983   6.236   5.518  0.4434 -0.2434  0.5155
  505MOL0     H68173   1.853   6.181   5.121  2.3713 -0.5642 -0.6967
  505MOL0     H68174   2.666   6.435   5.533  0.5180  0.0068 -0.3101
  505MOL0     H68175   2.903   6.406   5.513 -0.7223  2.5801 -0.1171
  506MOL0     O68176  10.480   6.572   9.615 -0.9788 -0.2019 -0.2822
  506MOL0     C68177  10.483   6.613   9.732 -0.1948 -0.7035  0.0688
  506MOL0     O68178  10.577   6.699   9.788 -0.2091  0.2822  0.2779
  506MOL0     C68179  10.658   6.769   9.703 -0.0985  0.0424 -0.2241
  506MOL0     C68180  10.613   6.839   9.595 -0.2076  0.0274  0.4349
  506MOL0     C68181  10.708   6.888   9.504 -0.6950  0.1025  0.5565
  506MOL0     C68182  10.847   6.893   9.533 -0.4367  0.1878 -0.1665
  506MOL0     O68183  10.937   6.968   9.457 -0.4792  0.1730  0.1244
  506MOL0     C68184  11.080   6.945   9.483 -0.6171 -0.1272  0.2264
  506MOL0     C68185  11.157   7.024   9.383 -0.5333  0.2901 -0.2003
  506MOL0     C68186  11.310   7.015   9.399  0.1829  0.3250  0.1871
  506MOL0     C68187  11.383   7.116   9.302  0.1070 -0.4768  0.3165
  506MOL0     C68188  11.535   7.126   9.332 -0.7370 -1.0190  0.8557
  506MOL0     C68189  11.567   7.157   9.475  0.9312  0.0196 -0.5794
  506MOL0     C68190  11.512   7.295   9.513 -0.9999  0.5865 -0.1314
  506MOL0     C68191  11.529   7.321   9.666  0.9155 -0.4014 -0.5014
  506MOL0     N68192  11.444   7.237   9.751  0.1215  0.2541 -1.2222
  506MOL0     C68193  11.310   7.216   9.735 -0.1696 -0.5816 -0.1505
  506MOL0     C68194  11.268   7.144   9.844 -0.3905 -0.5984  0.0068
  506MOL0     C68195  11.130   7.084   9.864 -0.5399 -0.8206  0.4561
  506MOL0     C68196  11.083   7.097  10.010 -0.0479 -0.6418  0.6756
  506MOL0     C68197  10.940   7.040  10.030 -0.0473 -0.2582  0.3899
  506MOL0     C68198  10.888   7.051  10.175  0.2850  0.5628  0.6398
  506MOL0     O68199  10.746   7.026  10.164 -0.5271  0.0347  0.1520
  506MOL0     C68200  10.669   6.964  10.257 -0.0356 -0.2552 -0.5085
  506MOL0     C68201  10.698   6.934  10.386  0.1854 -0.1850 -0.9562
  506MOL0     C68202  10.608   6.866  10.470  0.3314 -0.5224 -1.2542
  506MOL0     C68203  10.641   6.830  10.613 -0.2980  0.9368  0.5431
  506MOL0     C68204  10.488   6.817  10.411 -0.1119 -0.0842  0.0876
  506MOL0     C68205  10.385   6.740  10.480 -0.7977 -0.0330 -0.6156
  506MOL0     O68206  10.327   6.805  10.584 -0.0867  0.4888  0.3624
  506MOL0     C68207  10.220   6.749  10.648  0.5400 -0.4050 -0.4855
  506MOL0     C68208  10.083   6.792  10.651 -0.4676 -1.5042 -0.6696
  506MOL0     C68209   9.990   6.730  10.730  0.0783  0.1713 -0.7069
  506MOL0     C68210  10.037   6.621  10.810  0.5166 -0.2433 -0.2777
  506MOL0     O68211   9.938   6.557  10.892 -0.5524 -0.0528 -0.3571
  506MOL0     C68212   9.942   6.412  10.903 -0.4123 -0.3195 -0.0734
  506MOL0     C68213   9.816   6.349  10.935 -0.5003 -0.0282  0.8577
  506MOL0     C68214   9.756   6.392  11.071  0.3705 -0.4348  0.9834
  506MOL0     C68215   9.700   6.267  11.144 -0.0843  0.0032 -0.6110
  506MOL0     C68216   9.595   6.188  11.059 -0.9057 -0.5597  0.5232
  506MOL0     C68217   9.491   6.123  11.145 -0.8496 -0.0632  0.0888
  506MOL0     C68218   9.384   6.058  11.055  0.0397 -0.0288 -0.5062
  506MOL0     C68219   9.252   6.015  11.124  0.6135  0.4817 -0.4666
  506MOL0    Cl68220   9.164   5.888  11.033  0.3042  0.2657  0.5467
  506MOL0     C68221  10.165   6.582  10.817 -0.0747 -0.0198  0.4436
  506MOL0     C68222  10.263   6.645  10.731  0.8836  0.1730  0.0716
  506MOL0     O68223  10.351   6.633  10.438 -0.6197  0.1042  0.3601
  506MOL0     C68224  10.445   6.857  10.281 -0.0915  0.3559 -0.5719
  506MOL0     C68225  10.544   6.930  10.210  0.3946  0.0617  1.1643
  506MOL0     N68226  11.379   7.116   9.924  0.0041  0.5020  0.5244
  506MOL0     N68227  11.478   7.165   9.863 -0.0143 -1.5332  0.3382
  506MOL0     C68228  10.883   6.845   9.663 -0.4171  0.3921 -0.6882
  506MOL0     C68229  10.790   6.775   9.747 -0.5710  0.2619 -0.2890
  506MOL0     C68230  10.381   6.577   9.827  0.8920  0.1310  0.8287
  506MOL0     C68231  10.271   6.502   9.777  0.2630 -1.1932 -0.4222
  506MOL0     C68232  10.175   6.456   9.867 -0.4343 -0.2255  1.4569
  506MOL0     C68233  10.176   6.495   9.999  0.2463  0.1449  0.4067
  506MOL0     O68234  10.074   6.445  10.075  0.4191 -0.3846 -0.0984
  506MOL0     C68235  10.066   6.484  10.213  0.1743 -0.1436  0.3649
  506MOL0     C68236   9.928   6.447  10.260  0.3553  0.2610  0.5983
  506MOL0     C68237   9.908   6.480  10.412  0.1627  0.0504 -0.0732
  506MOL0     C68238   9.998   6.432  10.524  0.5020  0.3815 -0.2731
  506MOL0     C68239  10.016   6.286  10.532 -0.5152  0.2542  0.5999
  506MOL0     C68240  10.032   6.170  10.529  0.7788  0.0520 -0.3227
  506MOL0     C68241  10.283   6.572  10.046 -0.1517 -0.3429  0.3765
  506MOL0     C68242  10.383   6.616   9.961 -0.2728  0.3567 -0.1113
  506MOL0     H68243  10.507   6.844   9.574 -0.1516 -1.0239 -0.1620
  506MOL0     H68244  10.677   6.937   9.412  1.6068 -0.7360 -0.7467
  506MOL0     H68245  11.100   6.995   9.578  0.9645  2.6359 -1.4186
  506MOL0     H68246  11.100   6.838   9.480 -1.2591 -0.2837  1.0837
  506MOL0     H68247  11.132   6.998   9.279 -4.0138  1.9322  0.0806
  506MOL0     H68248  11.131   7.129   9.400 -0.4245  0.5264 -1.3535
  506MOL0     H68249  11.329   7.039   9.504 -4.2529 -0.1842  1.2972
  506MOL0     H68250  11.338   6.913   9.373 -1.9388  0.0299 -1.2212
  506MOL0     H68251  11.356   7.079   9.203  1.3125  1.7376 -0.9189
  506MOL0     H68252  11.333   7.213   9.306  1.8540  0.6014 -1.8633
  506MOL0     H68253  11.593   7.038   9.301 -0.6633 -0.0616 -2.0301
  506MOL0     H68254  11.580   7.206   9.273 -0.1528 -1.1625  1.0990
  506MOL0     H68255  11.541   7.079   9.548 -1.2026  1.2430  0.0563
  506MOL0     H68256  11.676   7.154   9.481  0.8225 -0.9102  1.9441
  506MOL0     H68257  11.564   7.371   9.453  0.1032 -0.0641 -0.0275
  506MOL0     H68258  11.411   7.315   9.477 -0.2745 -0.6856 -3.1624
  506MOL0     H68259  11.503   7.427   9.679 -0.6386 -0.9608  1.2301
  506MOL0     H68260  11.637   7.308   9.683  1.3093 -0.0576 -2.4820
  506MOL0     H68261  11.262   7.251   9.644 -2.0477 -2.5060 -0.0077
  506MOL0     H68262  11.061   7.144   9.803  0.7482 -0.8663 -1.1334
  506MOL0     H68263  11.142   6.984   9.821 -0.2137 -1.1088  1.2035
  506MOL0     H68264  11.087   7.205  10.031  3.0503 -0.8290  1.5860
  506MOL0     H68265  11.150   7.051  10.083  1.3359  1.8133  1.0864
  506MOL0     H68266  10.930   6.935  10.001 -0.6650 -0.1613  0.2415
  506MOL0     H68267  10.889   7.103   9.957  1.0707 -1.7094 -1.7519
  506MOL0     H68268  10.914   7.148  10.219 -1.5725  1.6810 -0.5535
  506MOL0     H68269  10.913   6.967  10.241 -2.7471  0.7983  2.2681
  506MOL0     H68270  10.792   6.961  10.434  0.4290  0.7434 -1.9204
  506MOL0     H68271  10.748   6.824  10.632 -0.3538 -0.2943  0.5561
  506MOL0     H68272  10.610   6.919  10.669 -0.9751  0.0542  1.6238
  506MOL0     H68273  10.582   6.747  10.654  1.1364  0.0400  0.8509
  506MOL0     H68274  10.051   6.879  10.595  4.5151 -1.1393 -3.4734
  506MOL0     H68275   9.887   6.759  10.748  0.5221  0.7254  1.1896
  506MOL0     H68276   9.982   6.363  10.814 -1.5291 -0.2850 -0.6059
  506MOL0     H68277  10.009   6.388  10.986 -2.8273  1.2845  2.5427
  506MOL0     H68278   9.752   6.367  10.848 -3.4313 -3.2085  2.0955
  506MOL0     H68279   9.829   6.241  10.932  0.8308  0.1252 -1.2760
  506MOL0     H68280   9.688   6.476  11.055 -0.3049 -0.6646  2.4533
  506MOL0     H68281   9.832   6.428  11.142 -1.3896 -0.1530  2.8198
  506MOL0     H68282   9.780   6.206  11.187 -0.9067 -0.0237  0.9428
  506MOL0     H68283   9.646   6.304  11.232 -4.4605  1.0058 -3.3751
  506MOL0     H68284   9.648   6.114  11.000 -1.2982  0.6165 -1.4160
  506MOL0     H68285   9.538   6.250  10.988 -1.7341  0.2172  1.8087
  506MOL0     H68286   9.526   6.051  11.219  2.3681  2.5769  1.4022
  506MOL0     H68287   9.438   6.197  11.206 -0.9496 -0.4732  0.5026
  506MOL0     H68288   9.428   5.963  11.021  2.5037  0.6067  0.6492
  506MOL0     H68289   9.352   6.114  10.966 -2.4383  0.7680  0.7939
  506MOL0     H68290   9.185   6.101  11.130 -0.3254 -0.2302 -0.4163
  506MOL0     H68291   9.266   5.972  11.224 -1.6847 -1.2132 -0.7743
  506MOL0     H68292  10.206   6.503  10.880 -0.6832 -1.1891 -0.5636
  506MOL0     H68293  10.365   6.610  10.723  0.9507  0.5603 -0.9805
  506MOL0     H68294  10.343   6.834  10.256 -0.9945 -1.1417  3.6106
  506MOL0     H68295  10.521   6.965  10.109  0.0900 -2.3423  0.3439
  506MOL0     H68296  10.985   6.857   9.699 -0.3434  1.5713 -1.2395
  506MOL0     H68297  10.814   6.720   9.837 -0.2681  0.2671 -0.3664
  506MOL0     H68298  10.258   6.485   9.670 -1.5777  1.7336 -0.7558
  506MOL0     H68299  10.092   6.406   9.819  1.4294 -2.5085  0.4252
  506MOL0     H68300  10.149   6.433  10.264  2.6128  2.8135 -0.3949
  506MOL0     H68301  10.082   6.592  10.213  2.1613 -0.2264 -3.9744
  506MOL0     H68302   9.915   6.340  10.243  4.5100 -0.2788 -0.2166
  506MOL0     H68303   9.849   6.492  10.200  1.1604 -2.4898 -2.8489
  506MOL0     H68304   9.814   6.432  10.440  1.3612 -1.3863  1.7280
  506MOL0     H68305   9.894   6.588  10.427  1.0527 -0.2428  4.0134
  506MOL0     H68306   9.954   6.471  10.616 -1.4204 -0.7663 -0.6721
  506MOL0     H68307  10.097   6.479  10.516  0.0454  1.1195 -2.1442
  506MOL0     H68308  10.033   6.063  10.530  1.1898  0.0199  2.5079
  506MOL0     H68309  10.299   6.606  10.148  1.3772 -0.0931  0.0867
  506MOL0     H68310  10.467   6.675   9.998 -1.4229  0.1702  3.1609
  507MOL0     O68311   0.424   2.813   3.297 -0.9888 -0.4656 -0.1531
  507MOL0     C68312   0.419   2.709   3.354  0.2524  0.7211 -0.9923
  507MOL0     O68313   0.307   2.629   3.359 -0.7845  0.0937 -0.1271
  507MOL0     C68314   0.203   2.676   3.291  1.0344 -1.8011  0.0493
  507MOL0     C68315   0.211   2.685   3.150 -0.3445  1.3091 -0.1828
  507MOL0     C68316   0.104   2.727   3.069  1.1398 -0.7343  0.4768
  507MOL0     C68317  -0.014   2.753   3.129 -0.0816  0.2746  0.0446
  507MOL0     O68318  -0.112   2.789   3.039 -0.7157  0.5061 -0.7102
  507MOL0     C68319  -0.249   2.775   3.071  0.5904  0.0394 -0.4576
  507MOL0     C68320  -0.335   2.790   2.941 -0.1642  1.2169 -0.2955
  507MOL0     C68321  -0.480   2.793   2.971  0.3831  0.2776 -0.3922
  507MOL0     C68322  -0.522   2.660   3.050 -0.4626 -0.7423 -0.0738
  507MOL0     C68323  -0.663   2.658   3.074  0.0882 -0.2459  0.5682
  507MOL0     C68324  -0.699   2.529   3.146  0.3802  0.0514 -0.2611
  507MOL0     C68325  -0.698   2.415   3.053  0.6156  0.8299  0.7739
  507MOL0     C68326  -0.749   2.292   3.127 -0.7474 -0.1011 -0.2562
  507MOL0     N68327  -0.759   2.164   3.053 -0.8993  1.0555  0.1517
  507MOL0     C68328  -0.828   2.142   2.935 -0.3739  0.1036 -0.7891
  507MOL0     C68329  -0.839   2.012   2.911  0.0593 -0.3745 -0.5716
  507MOL0     C68330  -0.904   1.973   2.777 -1.0546  0.4743 -0.0352
  507MOL0     C68331  -1.054   1.927   2.786 -0.1384 -0.6103 -0.5451
  507MOL0     C68332  -1.080   1.835   2.911  0.7828 -0.3238  0.2065
  507MOL0     C68333  -1.124   1.897   3.036 -0.2803  0.0531 -0.1288
  507MOL0     O68334  -1.203   1.800   3.115 -0.1646 -0.4145  0.2885
  507MOL0     C68335  -1.139   1.690   3.178 -0.0842 -0.3060  0.3680
  507MOL0     C68336  -1.229   1.603   3.221 -0.2078  0.6499 -1.0119
  507MOL0     C68337  -1.195   1.489   3.290  1.4826  0.5780  0.7951
  507MOL0     C68338  -1.305   1.385   3.329 -0.8540 -0.4925 -0.4673
  507MOL0     C68339  -1.056   1.467   3.314  0.0039  0.1442 -1.0231
  507MOL0     C68340  -1.007   1.357   3.398 -0.0455 -0.3340  0.6192
  507MOL0     O68341  -0.878   1.320   3.364 -0.1803  0.6962 -0.4154
  507MOL0     C68342  -0.829   1.222   3.445 -0.0630 -0.5279  0.4117
  507MOL0     C68343  -0.717   1.247   3.515  1.4604 -0.2616 -0.1584
  507MOL0     C68344  -0.653   1.143   3.586 -0.2780 -0.4559 -0.3171
  507MOL0     C68345  -0.699   1.009   3.585 -0.0178 -0.3151  0.4245
  507MOL0     O68346  -0.634   0.908   3.644  0.1016  0.7473 -0.1205
  507MOL0     C68347  -0.537   0.936   3.756  0.0366  0.2499  0.8935
  507MOL0     C68348  -0.621   0.965   3.875 -0.2253 -0.1873  0.1819
  507MOL0     C68349  -0.538   1.000   3.995 -0.0012  0.3510 -0.5272
  507MOL0     C68350  -0.483   0.879   4.063 -0.1047  0.4580  0.4341
  507MOL0     C68351  -0.433   0.918   4.203 -0.1367  0.1929 -1.0894
  507MOL0     C68352  -0.347   0.829   4.289  0.2296 -0.8472 -0.1253
  507MOL0     C68353  -0.223   0.787   4.205  0.3294  0.3298 -0.5792
  507MOL0     C68354  -0.137   0.694   4.286 -0.0308 -0.0266 -0.4563
  507MOL0    Cl68355  -0.009   0.758   4.406 -0.4162  0.0871  0.5615
  507MOL0     C68356  -0.818   0.985   3.510  1.0624  0.6859  0.7568
  507MOL0     C68357  -0.887   1.095   3.442 -0.4679  0.5772  0.0258
  507MOL0     O68358  -1.073   1.315   3.496 -0.5473 -0.0485 -0.5903
  507MOL0     C68359  -0.959   1.560   3.272 -0.4539  0.2521 -0.5852
  507MOL0     C68360  -1.002   1.676   3.211  0.8806 -0.0598  0.2029
  507MOL0     N68361  -0.778   1.947   3.020 -0.1112 -0.2644  0.4520
  507MOL0     N68362  -0.736   2.040   3.105  0.6727  0.0643  0.4072
  507MOL0     C68363  -0.023   2.754   3.272  0.1973 -0.0988  0.3706
  507MOL0     C68364   0.082   2.712   3.347  0.7172  0.2094 -1.1319
  507MOL0     C68365   0.536   2.655   3.426  0.3515  0.1287  0.0381
  507MOL0     C68366   0.664   2.714   3.404  0.5505  0.3032 -0.8396
  507MOL0     C68367   0.770   2.667   3.478 -0.6493 -0.2214  0.9291
  507MOL0     C68368   0.767   2.553   3.554  1.0870 -0.5757 -0.1183
  507MOL0     O68369   0.879   2.489   3.604 -0.4413 -0.2704 -0.7380
  507MOL0     C68370   0.995   2.564   3.635  0.2820  0.6478  0.4296
  507MOL0     C68371   1.099   2.544   3.528 -0.2609  0.8430  0.2075
  507MOL0     C68372   1.236   2.577   3.562  0.0994 -0.3401  0.3926
  507MOL0     C68373   1.265   2.734   3.560 -0.0282 -0.0094 -0.2208
  507MOL0     C68374   1.411   2.769   3.561  0.3067  0.7232 -0.7240
  507MOL0     C68375   1.522   2.806   3.552  0.1198  0.3439  0.4036
  507MOL0     C68376   0.636   2.500   3.585 -0.0210 -0.1036 -0.4515
  507MOL0     C68377   0.521   2.547   3.519  0.8394  0.4260  0.4334
  507MOL0     H68378   0.305   2.650   3.110 -0.2223 -0.1126  1.2009
  507MOL0     H68379   0.121   2.720   2.962 -0.0352  0.2457  0.2022
  507MOL0     H68380  -0.270   2.680   3.120 -0.0256  0.0775 -0.6459
  507MOL0     H68381  -0.280   2.857   3.137  1.9788 -1.5956  2.4082
  507MOL0     H68382  -0.307   2.881   2.887 -0.8049  2.0092  0.6741
  507MOL0     H68383  -0.313   2.705   2.876 -2.6683 -0.6024  1.0935
  507MOL0     H68384  -0.489   2.885   3.028  4.1065  1.0474 -0.7834
  507MOL0     H68385  -0.546   2.803   2.884  0.2750 -3.4033 -0.8938
  507MOL0     H68386  -0.496   2.571   2.992 -0.2522 -0.5001 -0.3507
  507MOL0     H68387  -0.475   2.658   3.149  0.9258  4.0267 -0.3573
  507MOL0     H68388  -0.682   2.743   3.140 -2.9774  0.0699 -0.5317
  507MOL0     H68389  -0.725   2.668   2.984 -0.3664 -3.3218  0.4166
  507MOL0     H68390  -0.629   2.515   3.229 -1.4473  0.0200  1.3535
  507MOL0     H68391  -0.802   2.538   3.181 -0.7295  0.9515 -3.4558
  507MOL0     H68392  -0.757   2.426   2.962  0.9363  1.7744  0.6728
  507MOL0     H68393  -0.599   2.394   3.013  0.1251 -0.9926  0.4514
  507MOL0     H68394  -0.853   2.310   3.158 -1.1578  1.1046 -2.1440
  507MOL0     H68395  -0.692   2.281   3.220 -0.2033  0.6690 -0.4862
  507MOL0     H68396  -0.860   2.221   2.867 -0.5113  1.6573  0.9790
  507MOL0     H68397  -0.872   2.043   2.700  0.7301  0.8878  1.0260
  507MOL0     H68398  -0.851   1.878   2.765  2.6379  2.0559  2.0209
  507MOL0     H68399  -1.050   1.857   2.702  1.5597 -1.0964 -0.1134
  507MOL0     H68400  -1.122   2.012   2.792 -1.6420 -1.8678  1.7736
  507MOL0     H68401  -0.989   1.781   2.938  0.8540  0.8571  2.5727
  507MOL0     H68402  -1.162   1.766   2.886 -0.3815  0.9298  0.4458
  507MOL0     H68403  -1.180   1.987   3.010 -1.6058 -0.6738  0.0961
  507MOL0     H68404  -1.039   1.922   3.099 -2.1969  0.9112  2.2530
  507MOL0     H68405  -1.332   1.614   3.190  0.2213  0.4342 -2.6077
  507MOL0     H68406  -1.312   1.370   3.437  2.9780 -1.6276 -0.2477
  507MOL0     H68407  -1.402   1.405   3.282 -1.5189  0.2267  1.1271
  507MOL0     H68408  -1.268   1.288   3.295  1.3428  0.0892  0.1556
  507MOL0     H68409  -0.683   1.349   3.526 -0.4756  0.3702  0.4702
  507MOL0     H68410  -0.561   1.165   3.639 -0.7790 -0.3729  0.5286
  507MOL0     H68411  -0.477   0.845   3.768 -0.1852 -0.3563 -1.7736
  507MOL0     H68412  -0.465   1.016   3.735  0.0871 -0.7856 -4.3502
  507MOL0     H68413  -0.679   1.052   3.842 -1.5152 -1.3619 -0.7931
  507MOL0     H68414  -0.683   0.880   3.905 -1.7479  0.9226  0.2779
  507MOL0     H68415  -0.598   1.046   4.074  2.6903  2.8560  0.2251
  507MOL0     H68416  -0.465   1.078   3.974 -0.4400  0.5204 -1.4941
  507MOL0     H68417  -0.562   0.808   4.088  0.2181  0.9116  3.0523
  507MOL0     H68418  -0.411   0.819   4.006  1.6250  1.7861  1.1294
  507MOL0     H68419  -0.519   0.949   4.263  2.4615  3.0896  1.5276
  507MOL0     H68420  -0.382   1.012   4.179 -0.2952  0.1067 -1.7825
  507MOL0     H68421  -0.322   0.884   4.381  2.1604 -4.0536  1.4648
  507MOL0     H68422  -0.407   0.741   4.313 -0.0279 -0.3904  0.9695
  507MOL0     H68423  -0.176   0.875   4.160 -1.4880  0.3134 -2.6462
  507MOL0     H68424  -0.265   0.732   4.121 -1.2042  1.4396 -0.5866
  507MOL0     H68425  -0.106   0.610   4.224  0.5719 -2.3742  2.7697
  507MOL0     H68426  -0.211   0.634   4.340  0.2819  1.0449  1.2371
  507MOL0     H68427  -0.847   0.881   3.501  1.7205  0.6602 -1.8087
  507MOL0     H68428  -0.979   1.077   3.387 -0.5885 -0.8226  0.6309
  507MOL0     H68429  -0.853   1.556   3.292 -0.1664  0.3309 -1.9772
  507MOL0     H68430  -0.925   1.741   3.171  1.1404 -1.8761 -2.5694
  507MOL0     H68431  -0.108   2.773   3.336 -1.7594 -2.8343 -1.1669
  507MOL0     H68432   0.061   2.722   3.453  1.6264  0.8616 -0.9987
  507MOL0     H68433   0.682   2.800   3.341  3.1853  0.8706  0.5227
  507MOL0     H68434   0.868   2.711   3.472 -0.1965 -0.8507  3.0312
  507MOL0     H68435   0.974   2.671   3.652 -2.5253  0.6603 -2.2084
  507MOL0     H68436   1.033   2.531   3.732 -2.0055 -1.0325  0.8432
  507MOL0     H68437   1.068   2.590   3.434 -1.9727 -1.0875 -0.2501
  507MOL0     H68438   1.091   2.440   3.495  3.3782  0.5635 -0.2277
  507MOL0     H68439   1.309   2.540   3.490  1.6485  0.5849  1.4404
  507MOL0     H68440   1.251   2.544   3.665 -1.9438  1.2102  1.2712
  507MOL0     H68441   1.213   2.791   3.637 -0.6561  1.7098 -1.8382
  507MOL0     H68442   1.239   2.781   3.465 -3.0367  4.6305  2.4955
  507MOL0     H68443   1.611   2.839   3.501  0.8647 -0.3856  1.1806
  507MOL0     H68444   0.623   2.416   3.652 -0.5482 -0.9585 -1.5800
  507MOL0     H68445   0.425   2.499   3.531  1.3240 -0.0734  2.7959
  508MOL0     O68446   4.020   2.297  10.424  0.0876  0.4172 -0.2933
  508MOL0     C68447   4.091   2.365  10.355  0.8145  0.4810 -0.1809
  508MOL0     O68448   4.047   2.464  10.265  0.1088  0.1529  0.0763
  508MOL0     C68449   3.914   2.494  10.268 -0.3353  0.0746 -0.1164
  508MOL0     C68450   3.871   2.630  10.281  0.0052  1.1873  0.6979
  508MOL0     C68451   3.739   2.662  10.262 -0.3526 -0.0612  0.0693
  508MOL0     C68452   3.646   2.570  10.216 -0.2741  0.5295 -0.8508
  508MOL0     O68453   3.515   2.609  10.187  0.2683  0.9758 -0.3940
  508MOL0     C68454   3.428   2.512  10.145  0.6076 -0.0335  0.5621
  508MOL0     C68455   3.287   2.583  10.142  0.2160  0.7420 -0.4562
  508MOL0     C68456   3.244   2.648  10.281 -0.6663  0.2146  0.1779
  508MOL0     C68457   3.104   2.699  10.255  0.3845 -0.4996  0.3794
  508MOL0     C68458   3.057   2.795  10.371  0.9624 -1.4120 -0.9208
  508MOL0     C68459   2.923   2.866  10.345  0.5561  0.2240 -0.0807
  508MOL0     C68460   2.889   2.953  10.466 -0.0724 -0.7951 -0.7533
  508MOL0     C68461   2.799   2.886  10.565  0.1126 -0.2583 -0.4696
  508MOL0     N68462   2.662   2.912  10.509 -0.5585 -0.0720 -0.2694
  508MOL0     C68463   2.597   3.028  10.481  0.1807  0.4420 -0.9607
  508MOL0     C68464   2.478   2.988  10.426 -0.0585 -0.7928 -0.2661
  508MOL0     C68465   2.376   3.092  10.371  0.2557  1.1490  0.5499
  508MOL0     C68466   2.431   3.169  10.249  0.5591  0.2713  0.0742
  508MOL0     C68467   2.330   3.272  10.205 -0.0296  0.4361 -0.2834
  508MOL0     C68468   2.237   3.213  10.108  1.1493 -0.2500 -0.6668
  508MOL0     O68469   2.118   3.287  10.130 -0.0918  0.7147  0.5681
  508MOL0     C68470   2.014   3.262  10.039  0.0975 -0.1887 -0.6098
  508MOL0     C68471   1.898   3.338  10.061 -1.5261  0.5026 -0.2979
  508MOL0     C68472   1.780   3.322   9.979 -0.9020 -0.0059 -0.0860
  508MOL0     C68473   1.677   3.422  10.017 -0.5919  0.6926 -0.3410
  508MOL0     C68474   1.786   3.243   9.864  0.4140  0.1427 -0.8058
  508MOL0     C68475   1.672   3.231   9.763 -0.0961 -0.0136 -0.3180
  508MOL0     O68476   1.701   3.175   9.642 -0.0572  0.3371  0.7351
  508MOL0     C68477   1.600   3.158   9.550 -0.4008 -0.5193  0.4896
  508MOL0     C68478   1.591   3.248   9.440  0.4239 -0.4989 -1.3101
  508MOL0     C68479   1.493   3.226   9.346 -0.4177  0.1644  0.3067
  508MOL0     C68480   1.404   3.127   9.352 -0.4844 -0.3989  0.2811
  508MOL0     O68481   1.293   3.135   9.266  0.1871 -0.0713 -0.0269
  508MOL0     C68482   1.246   3.012   9.202  0.1177  0.7236  0.2485
  508MOL0     C68483   1.167   3.029   9.069 -0.1045 -0.0149 -1.0506
  508MOL0     C68484   1.249   3.061   8.943 -1.0611 -0.2332 -1.2468
  508MOL0     C68485   1.184   3.018   8.816  0.6032  0.2964 -0.7829
  508MOL0     C68486   1.263   3.036   8.691 -0.1882 -0.6268  0.2803
  508MOL0     C68487   1.261   3.182   8.633 -0.1633  0.3072  1.0282
  508MOL0     C68488   1.337   3.204   8.501 -0.0341  0.1795 -0.6654
  508MOL0     C68489   1.487   3.204   8.533  0.0552  0.1640  0.7304
  508MOL0    Cl68490   1.581   3.319   8.419  0.3747  0.2171 -0.2692
  508MOL0     C68491   1.401   3.046   9.469 -0.3097  0.5249 -0.1497
  508MOL0     C68492   1.508   3.050   9.560 -0.2718  0.3417  0.1512
  508MOL0     O68493   1.561   3.259   9.798 -0.7455  0.2175 -0.2814
  508MOL0     C68494   1.907   3.173   9.836 -0.5421  0.3723 -1.5383
  508MOL0     C68495   2.018   3.175   9.928 -0.5670 -0.1883 -0.4918
  508MOL0     N68496   2.471   2.853  10.427  0.3870  0.6078 -0.7537
  508MOL0     N68497   2.583   2.811  10.468  0.8312 -1.0117 -0.2338
  508MOL0     C68498   3.683   2.434  10.197  0.7296  0.4659  0.5731
  508MOL0     C68499   3.817   2.399  10.227  0.6063  0.0554 -0.0065
  508MOL0     C68500   4.235   2.349  10.379  0.4505 -0.4881  0.2137
  508MOL0     C68501   4.331   2.383  10.285 -0.4701 -0.8553 -0.7735
  508MOL0     C68502   4.466   2.385  10.309 -0.7203 -0.5195 -0.1768
  508MOL0     C68503   4.518   2.343  10.430  0.0011  0.4206 -0.5239
  508MOL0     O68504   4.651   2.353  10.478  0.6734 -0.4509 -0.0087
  508MOL0     C68505   4.756   2.379  10.377 -0.2044  0.0934  0.0064
  508MOL0     C68506   4.845   2.490  10.430 -0.1489  0.9734 -0.6848
  508MOL0     C68507   4.765   2.616  10.449 -0.0985  0.5977  0.2754
  508MOL0     C68508   4.867   2.733  10.481  0.7977 -0.3123 -0.1070
  508MOL0     C68509   4.792   2.847  10.534  0.0117  0.2616 -0.1221
  508MOL0     C68510   4.752   2.960  10.576 -0.7412 -0.6656  0.5227
  508MOL0     C68511   4.423   2.309  10.528  0.2521 -0.7151 -0.4694
  508MOL0     C68512   4.285   2.315  10.508 -0.3635  0.1247  0.2770
  508MOL0     H68513   3.943   2.709  10.300  0.6569  1.1075 -1.1657
  508MOL0     H68514   3.702   2.764  10.269 -0.3265 -0.0110 -0.4946
  508MOL0     H68515   3.453   2.480  10.043  2.2401 -0.7688  1.1667
  508MOL0     H68516   3.420   2.425  10.211 -2.2464  1.0914  1.8973
  508MOL0     H68517   3.292   2.664  10.068  1.5688 -0.4651 -1.7571
  508MOL0     H68518   3.207   2.513  10.115 -0.5572  1.2052  0.5985
  508MOL0     H68519   3.243   2.582  10.368  4.1833  1.7622  1.6939
  508MOL0     H68520   3.306   2.733  10.311  2.3018 -1.3929 -0.9546
  508MOL0     H68521   3.087   2.746  10.158 -0.1468  2.2082  1.6858
  508MOL0     H68522   3.038   2.612  10.251  1.4540 -1.2819 -0.7838
  508MOL0     H68523   3.055   2.733  10.460  1.2262 -2.4150 -1.6018
  508MOL0     H68524   3.130   2.877  10.379  2.4519 -2.3606 -3.5479
  508MOL0     H68525   2.931   2.925  10.254  0.8228 -2.9567 -2.2803
  508MOL0     H68526   2.843   2.795  10.321 -2.9205  3.0001  2.2904
  508MOL0     H68527   2.980   2.968  10.525 -0.5241  1.0922 -0.4644
  508MOL0     H68528   2.852   3.051  10.433  1.2515 -1.5806 -5.4071
  508MOL0     H68529   2.816   2.924  10.667  0.2981  2.5838 -1.4695
  508MOL0     H68530   2.811   2.777  10.566 -0.2609 -0.3527  1.9502
  508MOL0     H68531   2.634   3.126  10.512  1.2259 -0.1372 -0.3098
  508MOL0     H68532   2.280   3.046  10.347  0.4633  0.9418  0.0854
  508MOL0     H68533   2.348   3.159  10.452 -1.5776  0.9330  0.1427
  508MOL0     H68534   2.441   3.104  10.161  0.1308 -2.6896  2.0879
  508MOL0     H68535   2.531   3.208  10.268  1.6493 -2.0387 -0.5315
  508MOL0     H68536   2.383   3.354  10.155 -0.2016  1.3519  0.9829
  508MOL0     H68537   2.282   3.320  10.291 -1.3427  1.2762 -1.4458
  508MOL0     H68538   2.210   3.107  10.116  0.7282 -0.1190 -0.3580
  508MOL0     H68539   2.278   3.227  10.008 -0.2252  0.6385 -1.1335
  508MOL0     H68540   1.900   3.414  10.139 -3.5606  1.5207 -1.1531
  508MOL0     H68541   1.584   3.391   9.969  0.6474  0.8456 -3.0775
  508MOL0     H68542   1.669   3.436  10.125 -0.7528 -3.0602  0.2519
  508MOL0     H68543   1.690   3.519   9.967  2.0519 -0.6200 -2.5063
  508MOL0     H68544   1.657   3.333   9.423  0.5087  0.1970  1.9688
  508MOL0     H68545   1.481   3.282   9.254 -0.3214  0.4507  0.4661
  508MOL0     H68546   1.326   2.941   9.178  0.0501  0.5275  0.5850
  508MOL0     H68547   1.179   2.973   9.279 -0.2065  0.9938  0.1032
  508MOL0     H68548   1.120   2.930   9.055  0.3919 -0.4584  0.2687
  508MOL0     H68549   1.083   3.099   9.072 -0.1193  0.0468 -2.2517
  508MOL0     H68550   1.354   3.033   8.937 -1.1895 -0.5404 -2.1965
  508MOL0     H68551   1.260   3.170   8.939  3.1596 -0.2679  2.4361
  508MOL0     H68552   1.161   2.911   8.822  1.0793  0.2565  0.9506
  508MOL0     H68553   1.086   3.066   8.809 -0.4538 -1.6153  0.0641
  508MOL0     H68554   1.223   2.978   8.607  1.3713 -0.1089 -0.8702
  508MOL0     H68555   1.362   2.997   8.715  0.1231  0.9772  1.8165
  508MOL0     H68556   1.155   3.203   8.616 -0.2921  0.0064  1.4239
  508MOL0     H68557   1.299   3.243   8.715  1.2184  0.9918 -0.0802
  508MOL0     H68558   1.317   3.304   8.463  0.6267  0.4136 -0.4074
  508MOL0     H68559   1.312   3.123   8.432 -2.0523  0.2983 -0.1284
  508MOL0     H68560   1.519   3.101   8.512  0.6126  0.3367  0.7152
  508MOL0     H68561   1.500   3.243   8.634  0.7031 -0.1714  0.7871
  508MOL0     H68562   1.310   2.991   9.486 -1.2393  2.2016  0.5098
  508MOL0     H68563   1.511   2.983   9.645 -2.9707 -1.1933 -0.8395
  508MOL0     H68564   1.905   3.115   9.745  1.6431  0.7897 -1.9053
  508MOL0     H68565   2.116   3.137   9.902  0.3335  1.2393  0.7189
  508MOL0     H68566   3.614   2.361  10.156 -0.4601  1.0966  1.3901
  508MOL0     H68567   3.847   2.295  10.220  0.4898 -0.2073  2.4486
  508MOL0     H68568   4.296   2.420  10.190 -0.3207  1.4506 -0.0176
  508MOL0     H68569   4.536   2.443  10.250  0.6783  0.4053  2.2649
  508MOL0     H68570   4.809   2.288  10.349 -1.5741  0.4638 -4.7258
  508MOL0     H68571   4.726   2.413  10.277  3.6090  0.5807 -1.1300
  508MOL0     H68572   4.926   2.505  10.358 -0.0361  2.7384 -0.2271
  508MOL0     H68573   4.892   2.447  10.519 -1.1676 -0.6646 -0.8900
  508MOL0     H68574   4.697   2.599  10.534  1.0635 -3.4257  0.5937
  508MOL0     H68575   4.703   2.632  10.360  1.0942 -0.8431 -0.8536
  508MOL0     H68576   4.900   2.759  10.380  0.2737 -1.4610 -0.5913
  508MOL0     H68577   4.952   2.693  10.537 -0.5376 -0.8822  1.5788
  508MOL0     H68578   4.729   3.046  10.636 -1.7873 -2.5379  3.0204
  508MOL0     H68579   4.457   2.288  10.629  3.8199  0.2016 -1.3296
  508MOL0     H68580   4.222   2.277  10.587 -2.7919  2.3128 -0.4525
  509MOL0     O68581   0.223   2.617  11.006 -0.0907 -0.1091 -0.1661
  509MOL0     C68582   0.205   2.494  10.982 -0.6660  0.3614  0.0071
  509MOL0     O68583   0.085   2.428  10.981  0.0002 -0.3523 -0.5993
  509MOL0     C68584  -0.032   2.503  10.961 -0.1165  0.1738 -0.5614
  509MOL0     C68585  -0.156   2.434  10.987  0.0007 -0.2503  0.8978
  509MOL0     C68586  -0.282   2.506  10.982 -0.4211  0.0030  1.2026
  509MOL0     C68587  -0.290   2.640  10.943 -0.0827 -0.1197  0.4170
  509MOL0     O68588  -0.421   2.701  10.953 -0.2509  0.4641 -0.1803
  509MOL0     C68589  -0.427   2.818  11.027  0.9063 -0.1429 -0.3549
  509MOL0     C68590  -0.574   2.882  11.011  0.0177  0.1617  0.8969
  509MOL0     C68591  -0.601   2.982  11.123  0.8583  0.0906  0.0512
  509MOL0     C68592  -0.721   3.071  11.081 -0.1026  0.2460  0.6115
  509MOL0     C68593  -0.766   3.173  11.188  0.0005 -0.4252  0.5401
  509MOL0     C68594  -0.652   3.275  11.206  0.5041  0.7284 -0.2734
  509MOL0     C68595  -0.678   3.377  11.327  0.8415 -0.3285 -0.3236
  509MOL0     C68596  -0.784   3.473  11.278  0.2361 -0.6270 -0.0653
  509MOL0     N68597  -0.844   3.560  11.384 -0.0242  1.0814  0.0883
  509MOL0     C68598  -0.970   3.536  11.435  0.3581  1.5609 -0.6878
  509MOL0     C68599  -0.974   3.620  11.540  0.1558 -0.5729  0.9645
  509MOL0     C68600  -1.094   3.614  11.646  0.6902  0.2828 -0.1471
  509MOL0     C68601  -1.085   3.474  11.710  0.8512 -0.6991 -0.1743
  509MOL0     C68602  -1.190   3.449  11.816  0.2434 -0.0562  0.8005
  509MOL0     C68603  -1.192   3.291  11.845 -0.5509 -1.1051  0.0925
  509MOL0     O68604  -1.282   3.222  11.773 -0.8230 -0.0587  0.0977
  509MOL0     C68605  -1.416   3.200  11.804 -0.0641 -0.4241  0.4832
  509MOL0     C68606  -1.480   3.249  11.924 -0.2881  0.2510 -0.7201
  509MOL0     C68607  -1.615   3.228  11.945 -1.0529  0.3191  1.4609
  509MOL0     C68608  -1.679   3.290  12.063 -1.0049 -0.3267  0.0720
  509MOL0     C68609  -1.690   3.159  11.849 -0.0835 -0.0504 -0.2664
  509MOL0     C68610  -1.833   3.123  11.875 -0.3190  0.8820  0.2916
  509MOL0     O68611  -1.870   3.092  12.004  0.1249 -0.7640 -0.2424
  509MOL0     C68612  -2.003   3.070  12.021 -0.5664 -0.6423 -1.1494
  509MOL0     C68613  -2.046   2.941  12.072 -0.1811 -1.7173  0.7061
  509MOL0     C68614  -2.181   2.915  12.104  0.4112  0.0638  0.9231
  509MOL0     C68615  -2.280   3.017  12.082 -0.8747  0.3922  0.6632
  509MOL0     O68616  -2.405   2.990  12.126  0.0906 -0.9926  0.0457
  509MOL0     C68617  -2.481   3.099  12.180 -0.1374 -0.8067 -0.5368
  509MOL0     C68618  -2.591   3.038  12.267 -0.2233 -0.6498  0.6431
  509MOL0     C68619  -2.672   2.933  12.188  0.5491  0.6356  0.7950
  509MOL0     C68620  -2.785   2.872  12.285 -0.8184 -0.0375 -0.0707
  509MOL0     C68621  -2.852   2.754  12.213 -0.6577  0.1204 -0.1417
  509MOL0     C68622  -2.973   2.718  12.307  0.6940  0.0203  0.4537
  509MOL0     C68623  -3.006   2.562  12.298 -0.3716  0.4828 -0.0791
  509MOL0     C68624  -3.102   2.522  12.187 -0.1766  0.6071  0.7826
  509MOL0    Cl68625  -3.218   2.648  12.156 -0.0544  0.2826  0.5905
  509MOL0     C68626  -2.235   3.143  12.029  0.4148  0.1526  0.6972
  509MOL0     C68627  -2.098   3.177  12.001  0.5564 -0.0936 -0.6999
  509MOL0     O68628  -1.912   3.125  11.781  0.4412  0.3157  0.7522
  509MOL0     C68629  -1.624   3.111  11.730  0.3337 -0.6610 -0.0248
  509MOL0     C68630  -1.487   3.128  11.709  0.7913 -0.5273 -0.6327
  509MOL0     N68631  -0.859   3.701  11.534 -0.5893 -0.4520  0.2761
  509MOL0     N68632  -0.782   3.657  11.442 -0.5461 -0.4292 -0.0746
  509MOL0     C68633  -0.169   2.701  10.909  0.1648 -0.0323 -0.1121
  509MOL0     C68634  -0.052   2.636  10.920 -0.4079  0.3081 -0.3586
  509MOL0     C68635   0.330   2.408  10.971  0.1614  0.2645 -0.1688
  509MOL0     C68636   0.315   2.270  10.953  0.2315 -0.6181 -0.2987
  509MOL0     C68637   0.428   2.198  10.924 -1.2146 -0.5325 -0.2857
  509MOL0     C68638   0.562   2.249  10.936  0.1909  0.0264 -0.0286
  509MOL0     O68639   0.665   2.160  10.907  0.0955 -0.1686 -0.4691
  509MOL0     C68640   0.799   2.206  10.911  0.2197 -0.2902  0.2799
  509MOL0     C68641   0.846   2.202  11.061 -0.4485  0.5184  0.0129
  509MOL0     C68642   0.993   2.235  11.071  0.0985  0.6948  0.4077
  509MOL0     C68643   1.047   2.278  11.210 -0.2003 -0.4052  0.0918
  509MOL0     C68644   1.195   2.261  11.194 -0.2222 -0.1573  0.8384
  509MOL0     C68645   1.309   2.237  11.168 -0.5561 -1.5056  0.3865
  509MOL0     C68646   0.575   2.380  10.967  0.8016 -0.3188  0.2599
  509MOL0     C68647   0.460   2.459  10.979 -0.3832  0.3214 -0.3714
  509MOL0     H68648  -0.146   2.340  11.041  2.5702  0.4176  1.7288
  509MOL0     H68649  -0.378   2.463  11.009  0.8866 -1.7688  3.4199
  509MOL0     H68650  -0.428   2.787  11.132 -1.0093 -1.1534 -0.6267
  509MOL0     H68651  -0.350   2.890  10.999 -0.8244  2.6227  1.5014
  509MOL0     H68652  -0.596   2.930  10.915  1.7106  3.8667  2.1797
  509MOL0     H68653  -0.640   2.794  11.010 -0.7530  0.7110 -0.8248
  509MOL0     H68654  -0.632   2.938  11.218 -0.4463  1.8668  0.5063
  509MOL0     H68655  -0.517   3.051  11.130 -0.3297  2.6468 -5.5200
  509MOL0     H68656  -0.680   3.117  10.990  2.4142  0.0352  1.5499
  509MOL0     H68657  -0.813   3.015  11.065 -0.6507  0.9794  1.1521
  509MOL0     H68658  -0.857   3.220  11.152  0.8744  1.2098  0.3459
  509MOL0     H68659  -0.784   3.106  11.273 -1.0662 -2.9751 -1.5943
  509MOL0     H68660  -0.556   3.229  11.229  0.7109  1.4210  0.2714
  509MOL0     H68661  -0.632   3.339  11.120 -2.6606  1.3732 -0.6424
  509MOL0     H68662  -0.716   3.330  11.418  0.9979 -1.5594 -0.8640
  509MOL0     H68663  -0.598   3.446  11.356 -0.2903  0.8640  0.0513
  509MOL0     H68664  -0.867   3.419  11.231  0.0690 -1.4270  1.1243
  509MOL0     H68665  -0.732   3.536  11.204  1.5998  0.9149  2.0887
  509MOL0     H68666  -1.048   3.469  11.398 -0.6186  1.4170  1.4614
  509MOL0     H68667  -1.082   3.694  11.719  0.2107  0.7949 -0.6194
  509MOL0     H68668  -1.197   3.617  11.607 -0.9114  0.7123  3.7139
  509MOL0     H68669  -0.996   3.472  11.774 -0.7999  0.2959  2.3192
  509MOL0     H68670  -1.076   3.394  11.636 -2.8079  0.5946 -2.2593
  509MOL0     H68671  -1.294   3.476  11.794  0.0708 -2.4752 -1.9907
  509MOL0     H68672  -1.162   3.514  11.899  1.6211  1.0249 -0.4514
  509MOL0     H68673  -1.222   3.284  11.951  1.0689  2.0084  0.8797
  509MOL0     H68674  -1.093   3.254  11.820  0.5088  1.5206  0.0763
  509MOL0     H68675  -1.417   3.288  12.003  1.1683 -0.3885 -1.5300
  509MOL0     H68676  -1.762   3.352  12.028  1.5633  2.8035 -0.8846
  509MOL0     H68677  -1.699   3.211  12.137  3.7392 -0.2988  1.6865
  509MOL0     H68678  -1.610   3.359  12.112  2.1481 -2.9362 -0.3425
  509MOL0     H68679  -1.972   2.864  12.094  0.7025 -0.2948  3.1162
  509MOL0     H68680  -2.210   2.820  12.149  2.5306  0.2194  2.8344
  509MOL0     H68681  -2.413   3.164  12.236  1.5342 -1.9843 -1.1202
  509MOL0     H68682  -2.534   3.152  12.100  1.0885  2.0787  0.4078
  509MOL0     H68683  -2.551   2.984  12.354  1.6525 -0.3377 -0.0012
  509MOL0     H68684  -2.660   3.116  12.301  0.8533  0.0075  1.3887
  509MOL0     H68685  -2.615   2.842  12.164  0.2276  0.5865  0.2157
  509MOL0     H68686  -2.719   2.976  12.100  2.0217 -0.2732 -0.5085
  509MOL0     H68687  -2.725   2.832  12.367 -1.9234  1.3082  1.4474
  509MOL0     H68688  -2.861   2.938  12.326 -0.5100 -0.6852  1.6270
  509MOL0     H68689  -2.780   2.672  12.212 -1.3182 -0.5041 -2.3610
  509MOL0     H68690  -2.874   2.777  12.108 -2.0728  1.0863  0.3292
  509MOL0     H68691  -2.955   2.726  12.415 -1.3016 -2.8838  1.1256
  509MOL0     H68692  -3.047   2.798  12.289  1.8294  0.6859 -1.5254
  509MOL0     H68693  -3.068   2.537  12.384 -0.4297  0.3725 -0.1544
  509MOL0     H68694  -2.921   2.494  12.295 -4.1992 -5.2036  2.4038
  509MOL0     H68695  -3.152   2.432  12.221 -0.1521  0.8686  1.5168
  509MOL0     H68696  -3.034   2.507  12.103  2.4324  0.8894  2.7340
  509MOL0     H68697  -2.313   3.218  12.039 -0.4355 -0.6546  0.3631
  509MOL0     H68698  -2.069   3.279  11.977 -0.3326  0.0129 -1.3830
  509MOL0     H68699  -1.685   3.060  11.656  0.5558  0.0923 -0.7408
  509MOL0     H68700  -1.447   3.073  11.625  1.1054  0.1470 -0.9317
  509MOL0     H68701  -0.160   2.801  10.867  2.1780 -1.6568 -4.0190
  509MOL0     H68702   0.035   2.700  10.908 -1.0185  1.1640 -0.3220
  509MOL0     H68703   0.213   2.231  10.953 -1.0841  2.2285 -3.8618
  509MOL0     H68704   0.401   2.097  10.893 -0.5241 -0.4526 -1.2020
  509MOL0     H68705   0.864   2.144  10.849  1.6444  0.8530  0.5537
  509MOL0     H68706   0.808   2.311  10.881 -0.4168 -0.5725 -0.9591
  509MOL0     H68707   0.831   2.102  11.103  3.7406 -0.7852 -1.1054
  509MOL0     H68708   0.795   2.275  11.123  2.9610  2.5388  0.6998
  509MOL0     H68709   1.003   2.316  10.999 -0.3117 -0.1469 -0.6268
  509MOL0     H68710   1.047   2.143  11.047 -0.0444  0.4863  0.8588
  509MOL0     H68711   0.994   2.239  11.298  0.2678  2.9289  2.0046
  509MOL0     H68712   1.028   2.385  11.223  0.5554 -0.1275 -1.0162
  509MOL0     H68713   1.410   2.221  11.138 -0.8341  0.1214 -1.6219
  509MOL0     H68714   0.665   2.438  10.984 -1.0680  2.4036  1.7561
  509MOL0     H68715   0.476   2.565  10.997  0.2748 -0.1621  2.2470
  510MOL0     O68716  11.294   4.467   6.253 -0.1053 -0.2306 -0.2393
  510MOL0     C68717  11.299   4.422   6.141 -0.4372  0.0188  0.7298
  510MOL0     O68718  11.205   4.436   6.040 -0.5007  0.7317  0.1256
  510MOL0     C68719  11.091   4.510   6.071 -1.2148 -0.4073  0.6248
  510MOL0     C68720  10.967   4.459   6.022 -0.3668  0.2077 -0.1694
  510MOL0     C68721  10.847   4.515   6.055 -0.2580 -0.1687 -0.4173
  510MOL0     C68722  10.842   4.625   6.143  0.1030  0.2543 -0.1491
  510MOL0     O68723  10.725   4.690   6.180  0.1541  0.4407 -0.7134
  510MOL0     C68724  10.615   4.606   6.214  0.0174 -0.1794 -0.6057
  510MOL0     C68725  10.504   4.626   6.111 -0.7770  0.5667  1.3258
  510MOL0     C68726  10.443   4.763   6.088  0.4206  0.8152  0.1604
  510MOL0     C68727  10.391   4.812   6.221  0.2442  0.5300 -0.5790
  510MOL0     C68728  10.272   4.731   6.270  0.3590 -0.6473 -0.3302
  510MOL0     C68729  10.221   4.788   6.403  0.5404 -0.1822 -0.1499
  510MOL0     C68730  10.102   4.711   6.455 -0.1747  0.0370 -0.1335
  510MOL0     C68731  10.018   4.802   6.546 -0.1873  0.0637 -0.1390
  510MOL0     N68732   9.909   4.852   6.465 -0.0694  0.2518 -0.0058
  510MOL0     C68733   9.898   4.984   6.425  1.0121 -0.3890 -0.1242
  510MOL0     C68734   9.772   4.993   6.367 -0.2366  0.7076 -0.6719
  510MOL0     C68735   9.689   5.114   6.338 -0.0494 -0.3815  0.3336
  510MOL0     C68736   9.699   5.204   6.464 -0.0147 -0.7623 -0.1826
  510MOL0     C68737   9.604   5.156   6.576  0.2259 -0.0190  0.4895
  510MOL0     C68738   9.635   5.228   6.703 -0.1426  0.0539 -1.0629
  510MOL0     O68739   9.591   5.363   6.698  0.5489 -1.0602 -0.3407
  510MOL0     C68740   9.463   5.407   6.729 -0.4030  0.2392 -0.3000
  510MOL0     C68741   9.365   5.325   6.778  0.0150  0.2512 -0.2662
  510MOL0     C68742   9.235   5.371   6.817  0.1853 -0.6139 -0.1994
  510MOL0     C68743   9.125   5.285   6.868 -0.3485 -0.2183 -0.9073
  510MOL0     C68744   9.211   5.518   6.793 -0.2399  0.2390  1.0734
  510MOL0     C68745   9.081   5.586   6.809 -0.5874  0.3215 -0.2520
  510MOL0     O68746   9.059   5.697   6.738  0.5495  0.1379 -0.4197
  510MOL0     C68747   8.934   5.752   6.763 -0.0801  0.6611  0.6882
  510MOL0     C68748   8.934   5.866   6.828 -0.0205 -0.3013  0.7702
  510MOL0     C68749   8.810   5.936   6.852 -0.7205 -0.4823  0.1299
  510MOL0     C68750   8.694   5.892   6.792  0.2732  1.0377  0.1415
  510MOL0     O68751   8.571   5.951   6.809  0.1396 -0.1716 -0.8123
  510MOL0     C68752   8.569   6.073   6.884  0.5788  0.0767  0.1668
  510MOL0     C68753   8.441   6.151   6.875 -0.7263  0.0356  0.6818
  510MOL0     C68754   8.311   6.081   6.932 -0.7310 -0.3457  0.4718
  510MOL0     C68755   8.175   6.133   6.891 -0.2234  0.1795  0.1139
  510MOL0     C68756   8.062   6.047   6.945 -0.4151 -0.3834 -0.7539
  510MOL0     C68757   7.924   6.109   6.898  0.0074  0.1281  0.2087
  510MOL0     C68758   7.809   6.052   6.981 -0.9385 -0.2311 -0.2434
  510MOL0     C68759   7.668   6.092   6.931 -0.6459  1.0797  0.6850
  510MOL0    Cl68760   7.543   5.992   7.009 -0.4903 -0.2300 -0.1064
  510MOL0     C68761   8.696   5.777   6.713  0.0494 -0.3250 -0.7277
  510MOL0     C68762   8.816   5.701   6.709  0.6807  0.2646  0.4902
  510MOL0     O68763   9.013   5.539   6.897  0.4404  0.6461  0.0721
  510MOL0     C68764   9.318   5.590   6.742 -0.2750  0.8442  0.2075
  510MOL0     C68765   9.442   5.544   6.710  0.4091  0.4703  1.4357
  510MOL0     N68766   9.717   4.869   6.379  0.4726 -0.1154 -0.0122
  510MOL0     N68767   9.798   4.787   6.428  0.1639  1.0270  0.6417
  510MOL0     C68768  10.965   4.683   6.184 -0.0703  0.9539 -0.3074
  510MOL0     C68769  11.092   4.626   6.135 -0.0055 -0.2395  0.6196
  510MOL0     C68770  11.426   4.349   6.113  0.7573 -0.4885 -0.9502
  510MOL0     C68771  11.461   4.319   5.982  0.6697  1.0069  0.2045
  510MOL0     C68772  11.579   4.245   5.957  0.4478  0.0222  0.4553
  510MOL0     C68773  11.662   4.202   6.062  0.2202 -0.5793 -0.3234
  510MOL0     O68774  11.767   4.116   6.053  0.2895  0.1385 -0.6790
  510MOL0     C68775  11.795   4.040   5.934  0.1013 -1.2736  0.4700
  510MOL0     C68776  11.896   3.934   5.973  0.3816  0.0882  0.7219
  510MOL0     C68777  11.963   3.874   5.848  0.3902 -0.1778 -0.6693
  510MOL0     C68778  12.036   3.737   5.881  0.4664 -0.5327 -0.4293
  510MOL0     C68779  12.132   3.744   5.994 -0.3059  0.0766 -0.4978
  510MOL0     C68780  12.213   3.742   6.093  0.1816 -0.6649  0.4499
  510MOL0     C68781  11.630   4.240   6.196  0.3572  0.0573 -0.0926
  510MOL0     C68782  11.521   4.321   6.216  0.3445  0.3002  0.6066
  510MOL0     H68783  10.978   4.362   5.973 -1.1737 -0.5368  1.0645
  510MOL0     H68784  10.761   4.455   6.026 -0.3921  1.2584 -3.2562
  510MOL0     H68785  10.638   4.499   6.223  2.0701  0.3088  0.4106
  510MOL0     H68786  10.574   4.636   6.311 -0.0097  0.9554 -0.9573
  510MOL0     H68787  10.540   4.591   6.014 -0.2321 -0.9716  2.0560
  510MOL0     H68788  10.424   4.554   6.130 -0.2538 -0.0379  1.2631
  510MOL0     H68789  10.519   4.833   6.050 -1.4475  2.2325 -1.1327
  510MOL0     H68790  10.363   4.758   6.015  1.2647 -2.7732 -0.7053
  510MOL0     H68791  10.477   4.809   6.287 -0.2002 -1.3982 -0.0305
  510MOL0     H68792  10.341   4.908   6.205 -4.6832 -1.8017 -1.2623
  510MOL0     H68793  10.187   4.740   6.203 -1.4910 -1.8814  1.6976
  510MOL0     H68794  10.298   4.625   6.280  1.0900 -0.6458 -1.8730
  510MOL0     H68795  10.302   4.795   6.476  0.2312  0.2455  0.1565
  510MOL0     H68796  10.186   4.890   6.385 -1.7962 -0.9168 -0.0520
  510MOL0     H68797  10.050   4.675   6.366  0.5405 -3.8240  0.8222
  510MOL0     H68798  10.134   4.623   6.512  1.4038 -0.0495 -1.1037
  510MOL0     H68799  10.078   4.880   6.593  1.2165 -1.7664  1.2877
  510MOL0     H68800   9.980   4.744   6.630  0.2403  0.2413  0.1802
  510MOL0     H68801   9.963   5.067   6.451  0.1139  0.2267  0.2114
  510MOL0     H68802   9.729   5.166   6.250 -1.2885 -0.6455 -0.4177
  510MOL0     H68803   9.588   5.089   6.305 -1.0552  2.5687  0.9512
  510MOL0     H68804   9.691   5.310   6.436 -2.9855 -1.3985 -2.2929
  510MOL0     H68805   9.802   5.195   6.498  0.4272 -2.2892 -1.7828
  510MOL0     H68806   9.625   5.050   6.591  1.5648  0.3356  1.2984
  510MOL0     H68807   9.503   5.178   6.539  0.5265 -1.2764 -1.2042
  510MOL0     H68808   9.744   5.225   6.713 -0.0800  0.1976 -1.6625
  510MOL0     H68809   9.603   5.183   6.797  0.1292  1.6904 -0.1625
  510MOL0     H68810   9.370   5.217   6.788 -3.0127 -0.0614 -1.1813
  510MOL0     H68811   9.114   5.315   6.973  0.7685 -0.6384 -0.6546
  510MOL0     H68812   9.035   5.295   6.807 -0.4949  0.1290 -0.6363
  510MOL0     H68813   9.160   5.181   6.877 -0.1608 -0.1601 -0.9621
  510MOL0     H68814   9.027   5.902   6.871 -1.4812  2.1220  2.1801
  510MOL0     H68815   8.836   6.014   6.923  1.9898 -0.4457 -0.8006
  510MOL0     H68816   8.580   6.053   6.991  0.8188  1.5290  0.4324
  510MOL0     H68817   8.651   6.138   6.852  0.7522 -0.9501 -1.5625
  510MOL0     H68818   8.477   6.235   6.935  2.0820 -0.5005 -0.1052
  510MOL0     H68819   8.423   6.187   6.773 -3.5466 -1.7964  0.4199
  510MOL0     H68820   8.311   6.106   7.039  3.2553  1.6990  0.2067
  510MOL0     H68821   8.335   5.976   6.916  5.5786  0.9107 -1.5549
  510MOL0     H68822   8.170   6.239   6.918  2.6886  0.5126 -0.3521
  510MOL0     H68823   8.170   6.128   6.782  1.0113  0.7935  0.0161
  510MOL0     H68824   8.059   6.039   7.054 -2.0785 -5.6720 -0.8638
  510MOL0     H68825   8.065   5.947   6.900 -1.8226  0.2428 -2.3659
  510MOL0     H68826   7.935   6.217   6.907  0.4322 -0.0003  1.3252
  510MOL0     H68827   7.921   6.090   6.790 -0.7148  1.4860 -0.0391
  510MOL0     H68828   7.813   6.088   7.084 -1.1792 -1.0029  0.0426
  510MOL0     H68829   7.817   5.943   6.971 -3.9074 -0.8130  2.0374
  510MOL0     H68830   7.663   6.080   6.822  0.9885  0.4197  0.6564
  510MOL0     H68831   7.654   6.198   6.954  1.4858  1.7183 -0.6701
  510MOL0     H68832   8.599   5.754   6.669 -0.8673  1.1786  0.4154
  510MOL0     H68833   8.809   5.613   6.646  0.8111  0.5136  0.1227
  510MOL0     H68834   9.310   5.697   6.726 -0.7051  1.1800  2.3128
  510MOL0     H68835   9.518   5.604   6.662 -0.4478 -0.4967 -1.3553
  510MOL0     H68836  10.964   4.773   6.245 -3.9946 -0.0132  1.4136
  510MOL0     H68837  11.178   4.689   6.155 -0.6208  0.5834  0.7477
  510MOL0     H68838  11.398   4.338   5.896  0.0051  0.6214  0.5969
  510MOL0     H68839  11.600   4.219   5.854  0.8556  1.5719  0.1270
  510MOL0     H68840  11.712   4.000   5.875  1.3606 -1.6841 -1.1228
  510MOL0     H68841  11.845   4.100   5.857 -0.9975 -0.5377  0.3046
  510MOL0     H68842  11.838   3.852   6.016  3.0638 -2.2378  0.1885
  510MOL0     H68843  11.971   3.963   6.047 -0.3427  0.8280  1.1755
  510MOL0     H68844  12.035   3.943   5.803  1.9043 -1.7553 -0.7743
  510MOL0     H68845  11.886   3.848   5.774 -1.8431  0.8809  1.1580
  510MOL0     H68846  12.090   3.720   5.788 -2.2395  0.9177 -2.3995
  510MOL0     H68847  11.955   3.665   5.894  1.2934 -1.2684  0.8732
  510MOL0     H68848  12.283   3.745   6.174 -2.2032 -0.0407  2.6685
  510MOL0     H68849  11.701   4.217   6.274  1.1131  0.3332 -0.6854
  510MOL0     H68850  11.488   4.357   6.312 -5.4575  0.2963 -0.9721
  511MOL0     O68851   7.450   2.589   4.262 -0.2051  0.7019 -0.3869
  511MOL0     C68852   7.542   2.651   4.318 -0.2620 -0.3830  0.7601
  511MOL0     O68853   7.626   2.598   4.399  0.2469  0.2977  0.0029
  511MOL0     C68854   7.578   2.503   4.492  0.3502 -0.2955  0.7342
  511MOL0     C68855   7.627   2.373   4.513 -0.5773 -0.9716  1.1184
  511MOL0     C68856   7.567   2.282   4.593  0.1304 -0.6695 -0.4063
  511MOL0     C68857   7.444   2.306   4.650  0.5434 -0.0797 -0.1428
  511MOL0     O68858   7.386   2.215   4.738 -0.3254 -0.5068 -1.2232
  511MOL0     C68859   7.418   2.081   4.717  0.8409  0.2541 -0.1553
  511MOL0     C68860   7.351   2.000   4.830 -1.0841  0.1110  0.4903
  511MOL0     C68861   7.369   1.853   4.811 -0.6190  0.0100 -0.3412
  511MOL0     C68862   7.326   1.778   4.935 -0.3394 -0.0565 -0.1936
  511MOL0     C68863   7.332   1.623   4.902 -0.1554 -0.7353  0.0376
  511MOL0     C68864   7.219   1.572   4.802  0.4459  0.1951  0.3995
  511MOL0     C68865   7.242   1.426   4.775  0.4819  0.3202 -0.4431
  511MOL0     C68866   7.133   1.359   4.694  0.6111 -0.5287  0.2497
  511MOL0     N68867   6.997   1.363   4.759 -0.0024 -0.6133  0.2199
  511MOL0     C68868   6.954   1.315   4.879 -0.7768 -1.4788 -0.5814
  511MOL0     C68869   6.822   1.353   4.884  0.9772 -0.4118  1.0401
  511MOL0     C68870   6.723   1.290   4.974 -0.3175 -0.9862  1.3730
  511MOL0     C68871   6.626   1.395   5.027  1.2303 -0.1982 -0.1455
  511MOL0     C68872   6.700   1.525   5.079  0.6194  0.2335  0.5271
  511MOL0     C68873   6.616   1.609   5.171  0.0711  0.3935 -0.1055
  511MOL0     O68874   6.569   1.533   5.281 -0.6112  0.2846  0.2597
  511MOL0     C68875   6.519   1.603   5.390  0.9607  0.5322  0.4542
  511MOL0     C68876   6.437   1.530   5.476 -0.0740  0.0691 -0.9318
  511MOL0     C68877   6.377   1.591   5.588  0.2204  0.0332  0.6034
  511MOL0     C68878   6.267   1.500   5.666 -0.4192 -0.2093  0.2621
  511MOL0     C68879   6.404   1.728   5.621  0.3032 -0.1036 -0.0931
  511MOL0     C68880   6.331   1.806   5.726  0.6528 -0.8049  0.1816
  511MOL0     O68881   6.393   1.918   5.761 -0.4410 -0.9992 -0.2760
  511MOL0     C68882   6.334   2.000   5.861 -0.4795 -0.3470  0.2279
  511MOL0     C68883   6.202   2.042   5.881  0.3201 -1.4923  0.0500
  511MOL0     C68884   6.178   2.127   5.992  0.1104 -0.5163  0.3628
  511MOL0     C68885   6.264   2.164   6.092  0.1536  0.0650 -0.3192
  511MOL0     O68886   6.216   2.258   6.183 -0.2529  0.3596  1.1220
  511MOL0     C68887   6.305   2.340   6.253 -0.5541  1.2982 -0.3603
  511MOL0     C68888   6.283   2.323   6.410 -0.5591  0.9850 -0.7499
  511MOL0     C68889   6.298   2.175   6.452  0.9160  0.3961 -0.1725
  511MOL0     C68890   6.442   2.141   6.473  0.6221  0.4859 -0.6573
  511MOL0     C68891   6.450   1.989   6.497 -0.1974  0.2172 -0.0019
  511MOL0     C68892   6.394   1.938   6.631 -0.7768 -0.1448 -0.0659
  511MOL0     C68893   6.419   1.781   6.646  0.0512  0.1025  0.0960
  511MOL0     C68894   6.342   1.723   6.759  0.1952  0.0587 -0.0872
  511MOL0    Cl68895   6.315   1.546   6.737 -0.1853 -0.0638  0.2017
  511MOL0     C68896   6.391   2.111   6.079  0.4806  1.0543  0.0012
  511MOL0     C68897   6.420   2.031   5.971 -0.2367 -1.7058  0.3700
  511MOL0     O68898   6.244   1.758   5.793  0.7554  0.1106 -0.1655
  511MOL0     C68899   6.500   1.795   5.537 -0.4165 -0.0830  0.1240
  511MOL0     C68900   6.555   1.735   5.423  0.9474  0.9790  0.7472
  511MOL0     N68901   6.788   1.436   4.775 -0.6100 -0.2128  0.5376
  511MOL0     N68902   6.891   1.430   4.701 -0.0656 -0.4591  0.0156
  511MOL0     C68903   7.380   2.427   4.621 -0.0525  0.2264 -0.4536
  511MOL0     C68904   7.446   2.525   4.557  0.4127  0.0164 -0.1811
  511MOL0     C68905   7.581   2.785   4.262 -0.6553 -0.3659 -0.2401
  511MOL0     C68906   7.521   2.846   4.151  0.7089 -0.0697 -0.2903
  511MOL0     C68907   7.565   2.976   4.113 -0.3382  0.5642  0.3440
  511MOL0     C68908   7.675   3.038   4.179 -0.0915  0.2317  0.2117
  511MOL0     O68909   7.718   3.151   4.116 -0.6218 -0.3200  0.3525
  511MOL0     C68910   7.853   3.195   4.128  0.5873 -0.5990  0.6930
  511MOL0     C68911   7.966   3.127   4.055 -0.5079  0.2864 -0.3093
  511MOL0     C68912   8.005   2.990   4.102  0.4645  0.8311  0.2488
  511MOL0     C68913   8.121   2.921   4.011 -0.0026 -0.6283  0.4593
  511MOL0     C68914   8.064   2.882   3.879 -0.1657  0.0321 -0.0211
  511MOL0     C68915   8.018   2.834   3.772  0.5257 -0.3632 -0.1394
  511MOL0     C68916   7.724   2.973   4.283  0.2537 -0.8539 -0.4165
  511MOL0     C68917   7.685   2.845   4.329 -1.1884  0.5139  0.8464
  511MOL0     H68918   7.723   2.362   4.464  0.3200  1.5382  2.1367
  511MOL0     H68919   7.617   2.189   4.615  1.3177  0.3425  1.3768
  511MOL0     H68920   7.373   2.055   4.621  1.9320  0.6021 -0.7845
  511MOL0     H68921   7.517   2.036   4.704 -0.7254 -3.3589 -0.5700
  511MOL0     H68922   7.387   2.026   4.930 -0.0490 -1.0895  0.4481
  511MOL0     H68923   7.250   2.042   4.836 -0.7894  0.7877  0.9749
  511MOL0     H68924   7.310   1.815   4.727  0.3612 -2.4567  0.0040
  511MOL0     H68925   7.475   1.837   4.791 -1.0426 -1.1352 -1.8268
  511MOL0     H68926   7.396   1.804   5.014  0.9067 -2.3729 -0.4534
  511MOL0     H68927   7.220   1.795   4.958 -0.6329  4.0349 -3.2660
  511MOL0     H68928   7.428   1.588   4.862 -0.2713  1.4930 -2.5010
  511MOL0     H68929   7.306   1.564   4.991 -0.7303 -2.7565 -1.4048
  511MOL0     H68930   7.127   1.596   4.856 -0.0851 -0.7888 -0.0269
  511MOL0     H68931   7.216   1.627   4.708 -2.0192  0.5839  0.6370
  511MOL0     H68932   7.336   1.416   4.721  1.4026 -1.2658  1.2975
  511MOL0     H68933   7.245   1.367   4.867  1.6921 -0.3534 -0.8973
  511MOL0     H68934   7.157   1.254   4.672 -2.8728 -2.1177  3.0527
  511MOL0     H68935   7.119   1.412   4.599 -0.2896 -2.0567 -0.5345
  511MOL0     H68936   7.007   1.253   4.951  0.4056 -0.4491 -0.5299
  511MOL0     H68937   6.670   1.208   4.923 -1.9586  0.6205  0.3701
  511MOL0     H68938   6.781   1.249   5.057  0.1227 -0.2811  1.4151
  511MOL0     H68939   6.561   1.352   5.105 -0.3130  2.3192  0.0660
  511MOL0     H68940   6.557   1.405   4.942 -0.3672 -0.0996  1.0959
  511MOL0     H68941   6.731   1.581   4.990  1.9635 -1.1519  0.0890
  511MOL0     H68942   6.779   1.487   5.143 -0.2814 -0.8086  1.0575
  511MOL0     H68943   6.535   1.661   5.119  1.0531  0.9425 -1.1485
  511MOL0     H68944   6.683   1.690   5.204  3.1087 -0.0315 -4.3614
  511MOL0     H68945   6.408   1.427   5.457 -0.0634 -1.0031  3.6569
  511MOL0     H68946   6.165   1.538   5.660 -1.2184 -2.2710 -0.3056
  511MOL0     H68947   6.259   1.399   5.625  0.3588 -0.2261  0.1277
  511MOL0     H68948   6.302   1.505   5.770  0.9459  1.8247 -0.2360
  511MOL0     H68949   6.139   2.021   5.795  0.4515 -0.2176 -0.3753
  511MOL0     H68950   6.074   2.157   5.999  0.0695 -0.1682 -1.2605
  511MOL0     H68951   6.409   2.315   6.230 -1.0619 -0.8307 -0.5453
  511MOL0     H68952   6.293   2.444   6.223 -1.0126  1.4581  0.3514
  511MOL0     H68953   6.360   2.378   6.465 -0.7810 -0.3531  0.9567
  511MOL0     H68954   6.187   2.370   6.435 -0.5163  0.4907  0.4055
  511MOL0     H68955   6.251   2.099   6.389  1.2095 -0.9753  1.2043
  511MOL0     H68956   6.238   2.153   6.541 -1.2060 -5.7907 -2.6234
  511MOL0     H68957   6.496   2.174   6.383 -0.3618  0.7124 -1.1845
  511MOL0     H68958   6.468   2.217   6.548  0.3920  2.1546 -2.1872
  511MOL0     H68959   6.557   1.965   6.487 -0.2342  0.5610 -1.4053
  511MOL0     H68960   6.406   1.931   6.414  0.0362  0.2792 -0.1723
  511MOL0     H68961   6.441   1.996   6.711  0.0704 -1.5202  0.4750
  511MOL0     H68962   6.288   1.965   6.637 -0.3606  2.5884 -2.5896
  511MOL0     H68963   6.527   1.766   6.656  0.7102  2.4620 -2.3093
  511MOL0     H68964   6.400   1.722   6.556  2.1378 -0.2605 -0.1754
  511MOL0     H68965   6.253   1.785   6.769  1.8690  2.2561  3.3900
  511MOL0     H68966   6.392   1.731   6.857 -1.1512 -0.9294  0.7206
  511MOL0     H68967   6.474   2.129   6.147 -0.1273 -0.2331  1.1249
  511MOL0     H68968   6.527   2.012   5.962 -0.2970 -1.0164 -3.8130
  511MOL0     H68969   6.538   1.894   5.559  3.7984 -1.2441 -0.8933
  511MOL0     H68970   6.619   1.805   5.372 -2.3153  1.8779 -2.5679
  511MOL0     H68971   7.277   2.444   4.650  0.1045  0.9751 -0.3093
  511MOL0     H68972   7.414   2.628   4.552  0.1760 -0.0360  0.2497
  511MOL0     H68973   7.433   2.810   4.098  0.1477  2.1397 -0.9847
  511MOL0     H68974   7.506   3.026   4.036  1.1229  2.4888  0.4081
  511MOL0     H68975   7.850   3.295   4.083 -0.0686 -2.2917 -3.4442
  511MOL0     H68976   7.876   3.202   4.235 -0.6496  1.3853  0.8811
  511MOL0     H68977   8.054   3.190   4.040 -1.2332  0.9166 -2.2990
  511MOL0     H68978   7.948   3.121   3.947  0.5796  1.8039 -0.6096
  511MOL0     H68979   7.916   2.927   4.093  0.9572  0.3576 -2.3631
  511MOL0     H68980   8.036   3.000   4.206  0.0730 -1.6950  0.6685
  511MOL0     H68981   8.164   2.832   4.058 -0.0934  0.5607  2.9658
  511MOL0     H68982   8.197   3.000   4.010 -1.9539  1.3479 -0.5860
  511MOL0     H68983   8.003   2.786   3.678  1.5666  0.4209 -0.7244
  511MOL0     H68984   7.813   3.020   4.322 -0.4255 -1.0410  1.4637
  511MOL0     H68985   7.741   2.793   4.407  1.0085  0.6188 -0.5699
  512MOL0     O68986  10.715   6.379   5.919 -0.5581  0.3198 -0.0062
  512MOL0     C68987  10.731   6.378   5.796  0.4485  0.4451  0.3189
  512MOL0     O68988  10.655   6.431   5.699  1.0300  0.4190  0.4397
  512MOL0     C68989  10.550   6.511   5.746 -0.4453  0.0014  0.3958
  512MOL0     C68990  10.450   6.450   5.819  0.6830 -0.0189 -0.7480
  512MOL0     C68991  10.327   6.526   5.845 -0.8207  0.5077 -0.0299
  512MOL0     C68992  10.318   6.662   5.815  0.5272 -0.1897 -0.2727
  512MOL0     O68993  10.202   6.732   5.842 -0.0858  0.4205 -0.7286
  512MOL0     C68994  10.133   6.772   5.732  0.0602  0.0619  0.4094
  512MOL0     C68995  10.008   6.822   5.799  0.0212  0.3929  0.8598
  512MOL0     C68996   9.910   6.886   5.703  0.4274  0.0619 -1.2605
  512MOL0     C68997   9.825   6.970   5.798 -0.7891 -0.6326 -0.9973
  512MOL0     C68998   9.677   6.966   5.737  0.0541  0.7958 -0.1140
  512MOL0     C68999   9.660   7.038   5.594 -0.1109  0.2194 -0.2810
  512MOL0     C69000   9.698   7.180   5.603 -0.9402 -0.8301  0.6929
  512MOL0     C69001   9.615   7.260   5.703  0.1607 -1.3246 -1.0937
  512MOL0     N69002   9.483   7.299   5.660 -0.0855  1.0389 -0.1696
  512MOL0     C69003   9.453   7.349   5.546 -0.1778 -0.0763 -0.6575
  512MOL0     C69004   9.321   7.358   5.537  0.4410  0.1855  0.1284
  512MOL0     C69005   9.237   7.397   5.418 -0.4869  0.8588 -0.6542
  512MOL0     C69006   9.287   7.359   5.285  0.2147  0.1055  0.4061
  512MOL0     C69007   9.171   7.375   5.177 -0.7739 -0.0624  0.8897
  512MOL0     C69008   9.090   7.506   5.178 -0.4093  0.7426  0.3935
  512MOL0     O69009   9.176   7.615   5.172  1.4096  0.2141 -0.1782
  512MOL0     C69010   9.113   7.733   5.194 -0.2170 -0.9947 -0.8090
  512MOL0     C69011   8.997   7.780   5.128 -0.4145 -0.1432  0.1424
  512MOL0     C69012   8.950   7.904   5.162  0.4157 -0.2059 -0.0983
  512MOL0     C69013   8.824   7.952   5.091 -0.4954 -0.9608  0.3253
  512MOL0     C69014   9.015   7.993   5.251  0.2479 -0.8446 -0.1954
  512MOL0     C69015   8.975   8.138   5.291 -0.0432 -0.1191 -0.1520
  512MOL0     O69016   9.061   8.208   5.371  0.5669 -0.2187 -0.1098
  512MOL0     C69017   9.017   8.304   5.453 -0.4576  0.1140 -0.6937
  512MOL0     C69018   8.932   8.406   5.417  0.6097  0.1434  0.1445
  512MOL0     C69019   8.895   8.504   5.506 -0.2824  0.3121  0.0503
  512MOL0     C69020   8.941   8.498   5.637  0.1780 -0.4623 -0.1878
  512MOL0     O69021   8.913   8.589   5.740  0.0041  0.0328  0.0898
  512MOL0     C69022   8.802   8.677   5.724 -0.3537 -0.4101 -0.2109
  512MOL0     C69023   8.804   8.766   5.847  0.5519  0.1307  0.1918
  512MOL0     C69024   8.705   8.711   5.957  0.8268  0.5270  0.3369
  512MOL0     C69025   8.718   8.803   6.084  0.4478  0.0540 -0.5750
  512MOL0     C69026   8.842   8.790   6.167  0.3083 -0.5431  0.4840
  512MOL0     C69027   8.830   8.674   6.265  0.2976  0.0847  0.2124
  512MOL0     C69028   8.930   8.696   6.386  0.3962 -0.8720  0.5602
  512MOL0     C69029   8.979   8.564   6.445  0.4556 -0.9106  0.0708
  512MOL0    Cl69030   8.844   8.502   6.542  0.1010  0.2957  0.2156
  512MOL0     C69031   9.034   8.402   5.673 -0.4674 -0.1142 -1.4471
  512MOL0     C69032   9.073   8.306   5.582 -0.4552 -0.4516 -0.0533
  512MOL0     O69033   8.858   8.178   5.258 -0.3970  0.4650 -0.2284
  512MOL0     C69034   9.123   7.939   5.322 -0.8091  0.4016 -0.8481
  512MOL0     C69035   9.170   7.811   5.297 -0.3797 -0.2824  0.3969
  512MOL0     N69036   9.269   7.293   5.645  0.2579  1.0968 -0.3056
  512MOL0     N69037   9.366   7.254   5.710 -0.5266  0.3724 -0.8649
  512MOL0     C69038  10.416   6.713   5.726 -1.5785 -0.5200  0.6476
  512MOL0     C69039  10.531   6.637   5.693 -0.4171  0.5894 -0.2579
  512MOL0     C69040  10.857   6.302   5.749  0.2216 -0.4495  0.5661
  512MOL0     C69041  10.910   6.201   5.831  0.5566 -0.1990 -0.3634
  512MOL0     C69042  11.011   6.116   5.786 -0.4146  0.1934 -0.2685
  512MOL0     C69043  11.083   6.138   5.667 -0.4526  0.0574 -0.4201
  512MOL0     O69044  11.189   6.053   5.632  0.5510 -0.8132  0.2069
  512MOL0     C69045  11.239   5.957   5.722  0.4413 -0.2063 -0.3775
  512MOL0     C69046  11.371   5.888   5.657 -0.0460 -0.4938 -0.4321
  512MOL0     C69047  11.504   5.974   5.665 -0.1763 -0.4294  0.0947
  512MOL0     C69048  11.602   5.940   5.561 -0.1321  0.2124  1.0291
  512MOL0     C69049  11.670   5.820   5.604  0.1886 -0.7845 -0.5475
  512MOL0     C69050  11.732   5.719   5.643 -1.5537 -0.2781  0.3023
  512MOL0     C69051  11.035   6.243   5.590 -0.4808  0.3611 -0.2619
  512MOL0     C69052  10.926   6.319   5.624  0.3746 -0.0932  0.0401
  512MOL0     H69053  10.463   6.349   5.856 -0.6889  0.4717  1.2171
  512MOL0     H69054  10.243   6.479   5.895 -0.3713  0.6294  0.8559
  512MOL0     H69055  10.178   6.853   5.674  4.2461  0.0623  3.2510
  512MOL0     H69056  10.107   6.687   5.669 -0.3109  0.5244 -0.0623
  512MOL0     H69057   9.947   6.741   5.841 -0.3156  0.4418  0.4763
  512MOL0     H69058  10.033   6.894   5.877  2.2273  0.6638 -0.0380
  512MOL0     H69059   9.961   6.962   5.643  1.7396  1.8879  1.9149
  512MOL0     H69060   9.842   6.820   5.649 -1.4552 -0.0979  1.1288
  512MOL0     H69061   9.830   6.928   5.899 -0.4826 -0.2767 -0.8641
  512MOL0     H69062   9.862   7.073   5.799  1.6099 -1.4572 -0.5694
  512MOL0     H69063   9.644   6.862   5.734 -1.2242  1.1569  0.6661
  512MOL0     H69064   9.600   7.006   5.804 -3.0528 -1.3576 -2.1504
  512MOL0     H69065   9.718   6.981   5.520  0.6666 -1.4423  1.5182
  512MOL0     H69066   9.555   7.036   5.563  0.2919 -0.4296 -1.7359
  512MOL0     H69067   9.803   7.196   5.630  0.0371  2.1545 -3.7206
  512MOL0     H69068   9.699   7.228   5.505 -0.1464 -0.2091  0.9986
  512MOL0     H69069   9.657   7.358   5.730 -0.0940 -0.9655 -1.9513
  512MOL0     H69070   9.607   7.206   5.798 -1.5269  1.9392  0.8064
  512MOL0     H69071   9.534   7.366   5.477 -0.4133  0.5105 -0.7960
  512MOL0     H69072   9.143   7.349   5.445  1.8203 -2.3034  2.8795
  512MOL0     H69073   9.226   7.505   5.431 -0.7502  0.7665 -0.0910
  512MOL0     H69074   9.314   7.252   5.286  1.4495  0.3897  2.5290
  512MOL0     H69075   9.384   7.409   5.273  0.4335 -0.3379  0.2776
  512MOL0     H69076   9.104   7.289   5.187  2.4275 -2.9582 -0.6461
  512MOL0     H69077   9.214   7.363   5.077  1.0681  0.0740  1.6286
  512MOL0     H69078   9.042   7.503   5.277  2.2863  0.1046  1.7671
  512MOL0     H69079   9.015   7.515   5.099  3.0487  2.1732 -2.9935
  512MOL0     H69080   8.959   7.719   5.047 -0.6397 -0.0585  0.1831
  512MOL0     H69081   8.748   7.987   5.162 -0.1860  0.7582 -0.1409
  512MOL0     H69082   8.842   8.038   5.026 -2.7252 -1.1838 -0.7078
  512MOL0     H69083   8.781   7.864   5.042 -1.9151 -0.4666  0.6283
  512MOL0     H69084   8.898   8.409   5.314  3.1247 -0.2660 -0.7799
  512MOL0     H69085   8.820   8.572   5.466 -2.2448 -0.8107  1.6726
  512MOL0     H69086   8.805   8.733   5.631 -0.6207  0.1357  0.1040
  512MOL0     H69087   8.712   8.614   5.727 -0.1042 -0.7762 -0.2398
  512MOL0     H69088   8.905   8.782   5.886  0.9036  2.5125 -1.4921
  512MOL0     H69089   8.754   8.856   5.812 -0.2932  0.2368  1.5913
  512MOL0     H69090   8.722   8.606   5.980 -2.1593 -0.2449 -0.6163
  512MOL0     H69091   8.603   8.727   5.921  1.3163  1.1191 -0.8465
  512MOL0     H69092   8.710   8.907   6.050 -0.4194  1.3403  3.0487
  512MOL0     H69093   8.632   8.794   6.152 -0.0471 -2.2178 -1.4179
  512MOL0     H69094   8.842   8.882   6.226 -0.9404 -0.7338  0.8012
  512MOL0     H69095   8.927   8.772   6.100 -1.7944 -0.2620 -2.4793
  512MOL0     H69096   8.725   8.677   6.295 -0.5769  2.1763 -2.6033
  512MOL0     H69097   8.845   8.576   6.219 -1.2062 -1.0406  1.9983
  512MOL0     H69098   8.883   8.768   6.454  0.0880  0.0786 -0.6151
  512MOL0     H69099   9.017   8.726   6.327 -1.0807 -1.5818 -2.1552
  512MOL0     H69100   9.070   8.578   6.504  0.9061 -0.4222 -0.7236
  512MOL0     H69101   9.009   8.499   6.362  2.9937  1.5801 -1.1240
  512MOL0     H69102   9.080   8.409   5.771  1.1526  0.6373 -2.2214
  512MOL0     H69103   9.140   8.229   5.617 -0.3454 -0.7352 -0.8534
  512MOL0     H69104   9.181   7.998   5.392  0.9816  0.6502 -2.4591
  512MOL0     H69105   9.256   7.768   5.347 -1.3189 -0.0512  2.2939
  512MOL0     H69106  10.386   6.803   5.672  0.6326  0.0914  0.3453
  512MOL0     H69107  10.610   6.671   5.627 -1.2634  0.0033 -1.5929
  512MOL0     H69108  10.865   6.194   5.929 -0.7925 -0.4544 -0.9793
  512MOL0     H69109  11.041   6.039   5.856 -1.5737 -1.4717 -1.5399
  512MOL0     H69110  11.278   6.002   5.814 -1.3657  2.5276 -0.8349
  512MOL0     H69111  11.166   5.881   5.751  2.3590 -1.4895  1.4630
  512MOL0     H69112  11.350   5.871   5.551 -1.6441  0.5034 -0.3155
  512MOL0     H69113  11.387   5.787   5.695  0.5278 -0.5018 -0.6731
  512MOL0     H69114  11.549   5.983   5.765  0.8214  0.4913 -0.4173
  512MOL0     H69115  11.478   6.078   5.648  1.4102 -0.3785 -2.3800
  512MOL0     H69116  11.669   6.025   5.547 -1.0494  0.6558 -1.0145
  512MOL0     H69117  11.560   5.924   5.461  1.5505  0.0144  0.3247
  512MOL0     H69118  11.798   5.641   5.677 -3.1438 -0.5014  3.1525
  512MOL0     H69119  11.100   6.255   5.504  1.2945  0.8935  1.1188
  512MOL0     H69120  10.888   6.382   5.544 -0.8633 -2.8057 -1.6719
  513MOL0     O69121   5.366   6.742   3.039  0.0279  0.2010  0.5316
  513MOL0     C69122   5.459   6.681   3.093  0.2529 -0.1179 -0.2563
  513MOL0     O69123   5.453   6.571   3.168 -0.4301  0.2510 -0.2449
  513MOL0     C69124   5.329   6.513   3.191  0.2094 -0.1155 -0.0248
  513MOL0     C69125   5.233   6.583   3.267  0.0290  0.0045 -0.1144
  513MOL0     C69126   5.109   6.534   3.295 -0.3533 -0.1040 -0.7232
  513MOL0     C69127   5.077   6.402   3.250  0.1960 -0.3400 -0.4229
  513MOL0     O69128   4.948   6.362   3.283  0.7678  0.2339 -0.2650
  513MOL0     C69129   4.936   6.343   3.422 -0.2029 -0.5401  1.1629
  513MOL0     C69130   4.792   6.333   3.459 -0.2387  0.3580  0.0317
  513MOL0     C69131   4.722   6.471   3.450  0.5021  0.1318  0.1058
  513MOL0     C69132   4.573   6.455   3.490 -0.5618 -0.7776  0.4244
  513MOL0     C69133   4.500   6.589   3.461  0.0505  0.4193 -0.4418
  513MOL0     C69134   4.353   6.550   3.494  0.3477 -0.5884  0.5545
  513MOL0     C69135   4.263   6.676   3.519 -0.1570  0.7455  0.0585
  513MOL0     C69136   4.243   6.764   3.394  0.0838 -0.1686 -0.7444
  513MOL0     N69137   4.127   6.852   3.413  0.1827  0.5811  0.5345
  513MOL0     C69138   4.010   6.838   3.340 -0.0025  0.6486 -0.7211
  513MOL0     C69139   3.947   6.957   3.355 -0.5861  0.3015 -0.7101
  513MOL0     C69140   3.821   6.994   3.292 -0.0377  0.0197  0.7499
  513MOL0     C69141   3.711   6.929   3.367 -0.2465  0.0676 -1.2390
  513MOL0     C69142   3.578   6.934   3.290  0.2412 -0.2351 -0.5145
  513MOL0     C69143   3.519   6.797   3.259  0.4942  0.9766  0.2087
  513MOL0     O69144   3.594   6.739   3.152  0.7613  0.1568  0.1236
  513MOL0     C69145   3.525   6.728   3.036  0.4443 -0.4664  0.9214
  513MOL0     C69146   3.510   6.841   2.954 -0.2145 -0.6253  0.7074
  513MOL0     C69147   3.435   6.837   2.838 -0.2003 -1.1372  0.7871
  513MOL0     C69148   3.402   6.972   2.763  0.5384 -1.2514  0.0554
  513MOL0     C69149   3.375   6.715   2.801 -0.6943  0.7962  0.4967
  513MOL0     C69150   3.306   6.698   2.677 -0.2937  0.7538 -0.2773
  513MOL0     O69151   3.374   6.676   2.561  0.3299  0.5026 -0.0571
  513MOL0     C69152   3.310   6.703   2.438  0.0314  0.8365 -0.0399
  513MOL0     C69153   3.258   6.827   2.401  0.3831 -0.2981 -0.3589
  513MOL0     C69154   3.219   6.848   2.276 -0.3261 -0.4736  0.3209
  513MOL0     C69155   3.206   6.747   2.181  0.6455  0.0011 -0.0640
  513MOL0     O69156   3.171   6.776   2.052  0.0177 -1.0747  0.8074
  513MOL0     C69157   3.221   6.699   1.940 -0.3865 -0.6988  0.4770
  513MOL0     C69158   3.193   6.755   1.804 -0.2171 -0.8478 -0.0485
  513MOL0     C69159   3.049   6.729   1.771  0.4234  0.2148 -0.1689
  513MOL0     C69160   3.018   6.585   1.712  0.4645 -0.6262 -0.9732
  513MOL0     C69161   2.875   6.565   1.699  0.3103  0.5354 -0.0359
  513MOL0     C69162   2.838   6.452   1.605  0.4263 -0.5845 -0.5785
  513MOL0     C69163   2.884   6.466   1.457  0.7158  0.5481  0.5917
  513MOL0     C69164   2.797   6.369   1.381 -0.2330  0.4046 -0.6172
  513MOL0    Cl69165   2.804   6.195   1.426 -0.0859 -0.1037  0.2817
  513MOL0     C69166   3.241   6.620   2.222 -0.3900 -0.1867  0.7365
  513MOL0     C69167   3.305   6.597   2.344 -0.2721 -0.3324  0.2415
  513MOL0     O69168   3.185   6.701   2.683 -0.5673  0.8009  0.6514
  513MOL0     C69169   3.407   6.596   2.873  0.0716  0.0021  0.0170
  513MOL0     C69170   3.476   6.606   2.991 -0.1631  0.0882  0.3493
  513MOL0     N69171   4.022   7.054   3.426  0.7526  0.5732  0.2119
  513MOL0     N69172   4.132   6.993   3.435  0.0246  0.6628  0.7978
  513MOL0     C69173   5.166   6.340   3.163  0.1474 -0.4333 -0.5278
  513MOL0     C69174   5.302   6.390   3.146  0.7364  0.8030 -0.0258
  513MOL0     C69175   5.592   6.738   3.052  0.1610  0.9831 -1.0877
  513MOL0     C69176   5.628   6.763   2.920 -0.5274 -0.7017  0.2651
  513MOL0     C69177   5.755   6.772   2.881 -0.4026 -0.1449 -0.9704
  513MOL0     C69178   5.855   6.780   2.988  0.3116  0.3831  1.0914
  513MOL0     O69179   5.975   6.822   2.953 -0.5136  0.1509  0.2134
  513MOL0     C69180   6.068   6.728   2.897 -0.5295  0.2665  0.3660
  513MOL0     C69181   6.209   6.750   2.959  0.3807 -0.2932  0.0963
  513MOL0     C69182   6.222   6.675   3.088  0.2325  0.9497  0.5432
  513MOL0     C69183   6.364   6.680   3.150 -0.1112 -1.2844  0.7628
  513MOL0     C69184   6.466   6.626   3.059  0.0325  0.3141 -0.5697
  513MOL0     C69185   6.557   6.591   2.983 -0.0313 -0.3590 -0.3764
  513MOL0     C69186   5.819   6.792   3.124  0.5076  1.4041  0.0560
  513MOL0     C69187   5.686   6.760   3.153  0.5458 -0.2316 -0.3803
  513MOL0     H69188   5.248   6.688   3.291  0.2678  0.0989 -0.6669
  513MOL0     H69189   5.031   6.591   3.345  0.3404 -0.5208  0.8818
  513MOL0     H69190   4.984   6.252   3.458  0.1110 -1.3676 -1.1845
  513MOL0     H69191   4.991   6.420   3.477 -1.9370  1.7506 -0.1158
  513MOL0     H69192   4.755   6.257   3.389  3.1870  0.8645 -2.6086
  513MOL0     H69193   4.781   6.288   3.558 -1.0112 -0.4855 -0.4205
  513MOL0     H69194   4.772   6.536   3.522 -0.5409  1.2088 -0.1233
  513MOL0     H69195   4.715   6.513   3.349 -3.3144 -0.0813  0.1367
  513MOL0     H69196   4.522   6.377   3.432 -2.3255  0.1960  0.6044
  513MOL0     H69197   4.572   6.429   3.596  0.2564  1.4568  1.0407
  513MOL0     H69198   4.544   6.660   3.531  1.1071 -0.2296 -0.4351
  513MOL0     H69199   4.519   6.624   3.359  2.7155  3.3680  0.8922
  513MOL0     H69200   4.296   6.477   3.436  0.0252  0.3030 -0.2656
  513MOL0     H69201   4.349   6.502   3.593 -2.5441 -0.6012  0.5136
  513MOL0     H69202   4.160   6.644   3.539 -1.4964  4.9518  0.9746
  513MOL0     H69203   4.312   6.725   3.603  0.5427  1.4383 -0.7431
  513MOL0     H69204   4.234   6.701   3.305 -1.6506 -0.4848 -0.3729
  513MOL0     H69205   4.320   6.840   3.375 -0.2921  1.1940  2.5986
  513MOL0     H69206   3.974   6.747   3.293  0.6575  0.9579 -1.8642
  513MOL0     H69207   3.808   7.103   3.287  2.8873  0.5909  3.0286
  513MOL0     H69208   3.824   6.959   3.188 -3.3651  0.2608  0.4689
  513MOL0     H69209   3.693   6.983   3.461 -0.8974  1.4811 -2.1383
  513MOL0     H69210   3.738   6.826   3.392 -1.5464  0.0110  0.0752
  513MOL0     H69211   3.579   6.997   3.201 -0.3572  0.6262  0.0663
  513MOL0     H69212   3.500   6.970   3.358 -0.3690 -0.9523 -0.8127
  513MOL0     H69213   3.417   6.797   3.220  0.6959  0.5258 -0.3389
  513MOL0     H69214   3.526   6.729   3.345  0.3296 -0.0668 -0.5873
  513MOL0     H69215   3.562   6.933   2.976  0.1087 -0.7310  0.4036
  513MOL0     H69216   3.421   6.963   2.656  0.5878  1.5795 -0.2459
  513MOL0     H69217   3.301   7.000   2.791  1.2801  0.6295  1.0031
  513MOL0     H69218   3.470   7.052   2.793  1.4393 -1.4472 -1.3498
  513MOL0     H69219   3.265   6.912   2.469 -0.8990 -0.4345 -0.0168
  513MOL0     H69220   3.185   6.948   2.250  0.5131  0.1021  1.3765
  513MOL0     H69221   3.329   6.691   1.955 -0.4445 -2.6550  0.1298
  513MOL0     H69222   3.177   6.600   1.952  0.5251 -0.8260  3.7025
  513MOL0     H69223   3.209   6.863   1.804 -0.5518 -0.7924  0.3324
  513MOL0     H69224   3.260   6.711   1.730 -1.3574 -1.3010 -0.8538
  513MOL0     H69225   3.024   6.808   1.700  0.3624 -1.5098 -2.1606
  513MOL0     H69226   2.992   6.753   1.861  3.7614  0.1458  2.1486
  513MOL0     H69227   3.063   6.570   1.614 -0.2553 -0.1633 -1.3851
  513MOL0     H69228   3.049   6.516   1.790  1.2494  0.5738 -0.1768
  513MOL0     H69229   2.830   6.650   1.646 -3.2262 -1.4948 -0.5832
  513MOL0     H69230   2.825   6.569   1.796  0.2251  0.2315 -0.0666
  513MOL0     H69231   2.885   6.359   1.641  3.9146  0.7871 -1.1440
  513MOL0     H69232   2.730   6.444   1.617  0.3794 -0.4112 -0.8779
  513MOL0     H69233   2.990   6.439   1.450  1.0338  0.7792  3.3087
  513MOL0     H69234   2.879   6.567   1.415 -1.8454  1.2389  2.3310
  513MOL0     H69235   2.820   6.369   1.274  1.6631  0.6678 -0.2519
  513MOL0     H69236   2.692   6.398   1.381 -0.7311 -1.1659 -2.4060
  513MOL0     H69237   3.224   6.541   2.150 -1.9066  0.4288  0.3727
  513MOL0     H69238   3.331   6.495   2.372 -3.4661 -0.9804  1.2923
  513MOL0     H69239   3.358   6.504   2.846  2.9006 -1.0644 -1.9696
  513MOL0     H69240   3.495   6.512   3.041  5.3375  1.3438  1.2840
  513MOL0     H69241   5.147   6.241   3.123  2.7196 -0.2259 -2.5611
  513MOL0     H69242   5.372   6.333   3.086 -0.8253 -0.7118 -0.4773
  513MOL0     H69243   5.552   6.758   2.843 -1.5506 -0.4142  1.2297
  513MOL0     H69244   5.793   6.772   2.779  2.0504  2.4515 -0.2063
  513MOL0     H69245   6.040   6.626   2.925 -2.4376  0.9774  1.2520
  513MOL0     H69246   6.085   6.741   2.790 -2.2298 -2.4648 -0.3438
  513MOL0     H69247   6.221   6.857   2.977  2.5171 -0.3229 -0.8027
  513MOL0     H69248   6.283   6.724   2.882 -0.0164  2.2631 -1.2308
  513MOL0     H69249   6.205   6.570   3.063  1.6617  0.9905 -0.7555
  513MOL0     H69250   6.149   6.711   3.160 -2.0361 -1.8010 -0.2140
  513MOL0     H69251   6.358   6.637   3.250 -2.7542  0.3757  1.4330
  513MOL0     H69252   6.393   6.786   3.152 -2.5212 -0.4371 -2.0692
  513MOL0     H69253   6.627   6.534   2.923  0.5288  0.1568 -0.2228
  513MOL0     H69254   5.891   6.832   3.194 -0.1772  1.7674  0.5722
  513MOL0     H69255   5.656   6.773   3.257  0.6067  0.3237 -0.4304
  514MOL0     O69256   5.310   3.000   8.186 -0.0815 -0.0540 -0.1301
  514MOL0     C69257   5.362   3.095   8.245 -0.5653  0.5371 -0.0896
  514MOL0     O69258   5.307   3.222   8.265 -0.3781 -0.1497  0.5503
  514MOL0     C69259   5.188   3.255   8.208  0.1644  0.0853  0.3471
  514MOL0     C69260   5.177   3.372   8.129 -0.1779  0.2312  0.1663
  514MOL0     C69261   5.055   3.406   8.072  0.2124  0.1897 -0.0020
  514MOL0     C69262   4.941   3.328   8.109  0.6689 -0.4421  0.2742
  514MOL0     O69263   4.819   3.369   8.068  0.3342 -0.4162 -0.8082
  514MOL0     C69264   4.710   3.274   8.067 -0.7182 -0.3465 -0.8238
  514MOL0     C69265   4.581   3.348   8.033 -0.2236 -0.4912  0.3886
  514MOL0     C69266   4.469   3.252   8.023  0.6899 -0.1905  0.4186
  514MOL0     C69267   4.343   3.322   7.968  0.1081  0.4965 -0.0547
  514MOL0     C69268   4.350   3.328   7.812  0.0827 -0.7711  0.0435
  514MOL0     C69269   4.245   3.414   7.736  0.3518 -0.3211  0.5455
  514MOL0     C69270   4.108   3.352   7.737 -0.0036 -0.6194  0.1684
  514MOL0     C69271   4.096   3.223   7.656 -0.1956 -0.5943 -0.2898
  514MOL0     N69272   3.958   3.178   7.644 -0.2884 -0.7263  0.1330
  514MOL0     C69273   3.883   3.159   7.533  0.3862  0.6965  0.1154
  514MOL0     C69274   3.758   3.132   7.582  0.3551  0.6621 -0.4536
  514MOL0     C69275   3.638   3.105   7.502 -0.4032 -0.4807  0.7835
  514MOL0     C69276   3.524   3.197   7.528 -1.1484 -1.0816 -0.3485
  514MOL0     C69277   3.392   3.133   7.470 -0.7065 -0.1563 -0.5560
  514MOL0     C69278   3.271   3.227   7.458 -0.3680 -0.0305  0.4369
  514MOL0     O69279   3.169   3.150   7.399  0.6152  0.1436  0.0996
  514MOL0     C69280   3.054   3.211   7.347  0.5809 -0.8435 -0.7200
  514MOL0     C69281   3.035   3.345   7.320  0.7648  0.3194  0.3242
  514MOL0     C69282   2.914   3.393   7.267 -0.3802 -0.5108  0.2637
  514MOL0     C69283   2.913   3.540   7.247  0.6331 -0.1577  0.4681
  514MOL0     C69284   2.806   3.302   7.253  0.2906 -0.0048  0.5451
  514MOL0     C69285   2.670   3.342   7.205  0.5279 -0.1927  0.5113
  514MOL0     O69286   2.567   3.282   7.260 -0.1607  0.0478  0.6515
  514MOL0     C69287   2.448   3.339   7.234  0.0715 -0.2176 -1.1345
  514MOL0     C69288   2.407   3.457   7.291 -0.1360 -0.1380  0.4045
  514MOL0     C69289   2.278   3.508   7.257 -0.3464 -0.9487  0.0153
  514MOL0     C69290   2.190   3.431   7.171 -0.4346 -0.4624  0.3443
  514MOL0     O69291   2.060   3.462   7.147 -0.2815  0.5919 -0.1543
  514MOL0     C69292   2.012   3.565   7.242  1.0743 -0.1753  0.0398
  514MOL0     C69293   1.866   3.582   7.219  0.1147  0.0720  0.4393
  514MOL0     C69294   1.804   3.710   7.271  0.2832  0.2278  0.4108
  514MOL0     C69295   1.872   3.771   7.396 -0.2056  0.0115  0.6455
  514MOL0     C69296   1.811   3.910   7.435  0.1205  0.6580  0.2026
  514MOL0     C69297   1.892   3.983   7.533  0.9453  0.3318  0.3742
  514MOL0     C69298   1.950   3.908   7.655 -0.2488  0.3060 -0.7768
  514MOL0     C69299   1.854   3.820   7.735  0.4463  0.0578  0.0778
  514MOL0    Cl69300   1.943   3.706   7.836 -0.1593  0.4956  0.2954
  514MOL0     C69301   2.241   3.311   7.119 -0.0038  0.6396  0.1451
  514MOL0     C69302   2.364   3.263   7.151  0.2082 -0.0639  0.4043
  514MOL0     O69303   2.661   3.420   7.104 -0.1126 -0.4281 -0.5541
  514MOL0     C69304   2.829   3.168   7.280 -0.4578 -0.3585  0.4275
  514MOL0     C69305   2.952   3.117   7.327  0.1745 -0.8097  0.4658
  514MOL0     N69306   3.758   3.146   7.721  0.4035 -0.0038 -0.0778
  514MOL0     N69307   3.878   3.177   7.759 -0.4613 -0.1358  0.5043
  514MOL0     C69308   4.958   3.218   8.197  0.0397 -0.4196  0.0385
  514MOL0     C69309   5.084   3.176   8.238  0.0654 -0.0798 -0.4820
  514MOL0     C69310   5.491   3.063   8.320  0.7703 -0.1760 -0.5701
  514MOL0     C69311   5.543   3.149   8.415  0.6311  0.6245  0.6898
  514MOL0     C69312   5.661   3.109   8.486  0.2296  0.3837  0.6554
  514MOL0     C69313   5.729   2.995   8.442 -0.0771 -0.4976 -0.0472
  514MOL0     O69314   5.849   2.972   8.503 -0.1785  0.3221 -0.4010
  514MOL0     C69315   5.955   2.988   8.419 -0.3621  0.2029 -0.7094
  514MOL0     C69316   6.020   3.130   8.443  0.7073  0.6759 -0.2192
  514MOL0     C69317   6.065   3.149   8.590  0.8301  0.8351 -0.8322
  514MOL0     C69318   6.137   3.282   8.617  1.6440 -0.1185  0.5180
  514MOL0     C69319   6.254   3.300   8.533  1.2640 -0.8889  0.6540
  514MOL0     C69320   6.349   3.312   8.459  0.0525 -0.7368 -0.3212
  514MOL0     C69321   5.685   2.919   8.337  0.7543 -0.2081  1.4730
  514MOL0     C69322   5.559   2.953   8.284  0.4243  0.4247  0.6489
  514MOL0     H69323   5.267   3.426   8.100 -0.0572  0.5379  1.0559
  514MOL0     H69324   5.031   3.495   8.016 -1.6951  0.7005  1.5126
  514MOL0     H69325   4.735   3.198   7.993  2.4916 -0.4438  0.2182
  514MOL0     H69326   4.693   3.221   8.162 -1.4606  1.0703 -0.1318
  514MOL0     H69327   4.561   3.426   8.106  1.2237  2.7477 -2.4084
  514MOL0     H69328   4.589   3.408   7.942 -0.9931  1.4918  1.5788
  514MOL0     H69329   4.482   3.170   7.953 -0.8788  0.0992 -0.2403
  514MOL0     H69330   4.433   3.218   8.121 -1.8081  0.1560 -0.3210
  514MOL0     H69331   4.257   3.262   7.996  1.5054 -2.3956 -1.4723
  514MOL0     H69332   4.325   3.421   8.010 -0.9899  0.6005 -0.7269
  514MOL0     H69333   4.449   3.365   7.785 -0.7991  1.9108  0.1611
  514MOL0     H69334   4.337   3.228   7.770 -3.0216 -0.9872  1.2372
  514MOL0     H69335   4.245   3.514   7.782 -1.1773 -0.4373  0.8556
  514MOL0     H69336   4.283   3.424   7.634 -0.4724 -1.3572  0.1199
  514MOL0     H69337   4.061   3.344   7.835 -2.2666 -1.9908 -0.9633
  514MOL0     H69338   4.039   3.420   7.686  0.7781  0.7986  0.9303
  514MOL0     H69339   4.154   3.144   7.705 -1.8787 -1.4510  0.3774
  514MOL0     H69340   4.139   3.232   7.556 -2.9675 -2.5040 -1.7689
  514MOL0     H69341   3.908   3.175   7.429 -0.2587  1.7594  0.1054
  514MOL0     H69342   3.663   3.107   7.395  1.0401 -0.8792  1.0901
  514MOL0     H69343   3.605   3.003   7.522  0.4496 -1.1674 -1.0901
  514MOL0     H69344   3.545   3.285   7.467 -0.2252 -1.9965 -1.3967
  514MOL0     H69345   3.518   3.232   7.631 -1.1400  0.4020 -0.8274
  514MOL0     H69346   3.350   3.064   7.544 -2.3268 -0.6235 -1.8578
  514MOL0     H69347   3.418   3.074   7.382  4.2106 -2.0400  1.7649
  514MOL0     H69348   3.301   3.310   7.393 -1.0944  1.6704  2.1412
  514MOL0     H69349   3.242   3.263   7.558  1.7143  2.4764  0.2494
  514MOL0     H69350   3.120   3.409   7.341  0.7598 -0.2331  2.1519
  514MOL0     H69351   3.001   3.577   7.300 -0.0148 -1.0122  2.2444
  514MOL0     H69352   2.919   3.559   7.140 -4.7051 -1.8265 -0.4230
  514MOL0     H69353   2.821   3.584   7.287 -1.9224 -3.2893 -1.4209
  514MOL0     H69354   2.471   3.503   7.365 -0.1040 -0.8542  0.8376
  514MOL0     H69355   2.262   3.605   7.303 -0.3646 -2.1229  2.6746
  514MOL0     H69356   2.018   3.537   7.348 -2.3314  0.8595  0.6272
  514MOL0     H69357   2.061   3.657   7.211  3.7606 -1.5436 -0.0974
  514MOL0     H69358   1.830   3.583   7.116 -2.1852 -1.3321  1.1515
  514MOL0     H69359   1.814   3.497   7.264  1.6896 -0.8658  0.5459
  514MOL0     H69360   1.698   3.693   7.293  0.1593  0.3841 -0.0372
  514MOL0     H69361   1.799   3.780   7.186 -0.4589  0.1711  0.3977
  514MOL0     H69362   1.875   3.696   7.476 -1.3096  0.8404  1.5021
  514MOL0     H69363   1.975   3.777   7.360 -0.2278 -1.2314  0.3180
  514MOL0     H69364   1.713   3.884   7.475  0.4642 -1.6156 -0.2800
  514MOL0     H69365   1.801   3.968   7.343 -0.8337  0.2214  0.0125
  514MOL0     H69366   1.978   4.029   7.485  0.5380  1.5905  0.7773
  514MOL0     H69367   1.833   4.073   7.558 -2.4634 -0.1457 -4.5647
  514MOL0     H69368   1.983   3.985   7.726 -0.8923 -1.6835  1.8663
  514MOL0     H69369   2.033   3.843   7.629  1.7567  0.6866  3.7521
  514MOL0     H69370   1.789   3.755   7.677 -0.1966  1.0429 -0.3360
  514MOL0     H69371   1.784   3.874   7.800  0.6709  3.5152 -2.2566
  514MOL0     H69372   2.195   3.259   7.035 -0.4024  2.7509 -1.0213
  514MOL0     H69373   2.402   3.171   7.108 -2.1179 -0.1567 -1.7094
  514MOL0     H69374   2.746   3.100   7.269 -1.8423  1.6791 -3.0772
  514MOL0     H69375   2.965   3.011   7.345 -0.0016 -0.7375  1.0387
  514MOL0     H69376   4.873   3.160   8.232  1.4947 -1.2222  2.3990
  514MOL0     H69377   5.095   3.087   8.300  1.6651  1.0625  0.9716
  514MOL0     H69378   5.493   3.243   8.435 -1.7700 -0.9251  2.5050
  514MOL0     H69379   5.700   3.175   8.563 -2.0702  0.8221  1.5508
  514MOL0     H69380   6.027   2.912   8.451  1.2918  2.8498  2.4876
  514MOL0     H69381   5.929   2.983   8.313  0.0018  5.9332 -1.3657
  514MOL0     H69382   5.945   3.203   8.414  1.2017  1.9640  1.5711
  514MOL0     H69383   6.094   3.138   8.363 -0.7041  1.3702 -1.4991
  514MOL0     H69384   6.130   3.068   8.624  0.4070  1.6574  2.3389
  514MOL0     H69385   5.978   3.144   8.656  3.0585  0.6140  2.3529
  514MOL0     H69386   6.167   3.279   8.722 -0.6164  0.2775  1.2456
  514MOL0     H69387   6.078   3.372   8.597  2.5200  0.0441 -1.6245
  514MOL0     H69388   6.424   3.322   8.383  1.2870 -0.3014  0.9063
  514MOL0     H69389   5.746   2.835   8.304  3.1636  0.8216  3.0167
  514MOL0     H69390   5.513   2.891   8.207 -1.6389 -0.6201  2.6070
  515MOL0     O69391  11.072   4.865   8.073  0.0133  0.7537 -0.1801
  515MOL0     C69392  11.093   4.785   7.979  0.6194  0.1137  0.0129
  515MOL0     O69393  11.219   4.741   7.941 -0.1121  0.2982  0.5818
  515MOL0     C69394  11.338   4.806   7.961  0.6092 -0.0288  0.7926
  515MOL0     C69395  11.450   4.741   7.911 -0.1454  0.5531 -0.2392
  515MOL0     C69396  11.576   4.794   7.923  0.0815 -0.1741  0.2372
  515MOL0     C69397  11.598   4.911   7.994  0.6439 -0.2644 -0.6339
  515MOL0     O69398  11.721   4.960   7.998  0.2158 -0.0080 -0.0958
  515MOL0     C69399  11.741   5.092   8.052  0.6062 -0.3294  1.0699
  515MOL0     C69400  11.889   5.138   8.002 -0.0915  1.0150  0.0378
  515MOL0     C69401  11.995   5.036   8.056 -0.2869 -0.1481  0.4750
  515MOL0     C69402  12.128   5.069   7.990  0.1544  0.1209 -0.0394
  515MOL0     C69403  12.244   5.025   8.078  0.5451  0.7290  0.2280
  515MOL0     C69404  12.369   5.073   8.011  0.2021  0.3835  0.2239
  515MOL0     C69405  12.486   5.021   8.082  0.2511  0.4250 -0.2972
  515MOL0     C69406  12.500   4.865   8.073  0.7557  1.1087  0.0546
  515MOL0     N69407  12.478   4.808   7.937  0.1919  0.1564 -0.0329
  515MOL0     C69408  12.370   4.726   7.906 -0.4756 -0.7788  0.1907
  515MOL0     C69409  12.396   4.688   7.777 -0.5676 -0.6007 -0.2188
  515MOL0     C69410  12.326   4.591   7.687 -0.0786  0.4958  0.0652
  515MOL0     C69411  12.178   4.572   7.708  0.6010  0.1693 -0.2561
  515MOL0     C69412  12.151   4.443   7.781  0.4541 -0.1100  0.6265
  515MOL0     C69413  12.008   4.431   7.838 -0.7194 -0.0203  0.3297
  515MOL0     O69414  11.959   4.541   7.918 -0.4591  0.2531  0.4442
  515MOL0     C69415  11.836   4.512   7.974  0.1766  0.8621  0.1687
  515MOL0     C69416  11.725   4.431   7.930  0.3467  1.2246  0.2477
  515MOL0     C69417  11.606   4.407   8.001 -0.2204 -0.8004  0.8147
  515MOL0     C69418  11.501   4.319   7.941  0.4304  0.8804  1.0772
  515MOL0     C69419  11.585   4.492   8.114  0.9250 -0.0121  0.5080
  515MOL0     C69420  11.450   4.503   8.195  0.1102 -0.5131  1.0784
  515MOL0     O69421  11.337   4.445   8.147  0.0991 -0.3423 -0.2652
  515MOL0     C69422  11.217   4.491   8.186  0.4711 -0.3705 -0.6662
  515MOL0     C69423  11.105   4.400   8.179  0.0602 -0.7085  0.6967
  515MOL0     C69424  10.975   4.438   8.233 -0.4545  0.0103  0.0428
  515MOL0     C69425  10.954   4.564   8.289 -0.6018  0.1002  0.2247
  515MOL0     O69426  10.839   4.603   8.352 -0.1025  0.2574  0.5339
  515MOL0     C69427  10.738   4.644   8.254 -0.1096  0.4511 -0.4620
  515MOL0     C69428  10.645   4.520   8.239  0.7216  0.0906  0.7665
  515MOL0     C69429  10.496   4.555   8.208 -0.2368 -0.4776 -0.1204
  515MOL0     C69430  10.487   4.640   8.080  0.2211  0.3368  0.0472
  515MOL0     C69431  10.346   4.699   8.059 -0.9018 -0.8814  0.0882
  515MOL0     C69432  10.343   4.741   7.915 -0.2569 -0.3020  0.0878
  515MOL0     C69433  10.205   4.778   7.857  0.3966  0.5238 -0.0842
  515MOL0     C69434  10.211   4.834   7.710 -0.1493 -0.1914  0.6172
  515MOL0    Cl69435  10.047   4.866   7.635 -0.2171 -0.1068 -0.5964
  515MOL0     C69436  11.061   4.657   8.278 -0.7352 -0.6175 -0.2277
  515MOL0     C69437  11.185   4.628   8.226 -0.3696  0.9677  0.5588
  515MOL0     O69438  11.460   4.550   8.305  0.6359  1.3186  0.1813
  515MOL0     C69439  11.683   4.579   8.161 -0.2762 -0.9053 -0.0692
  515MOL0     C69440  11.804   4.591   8.093 -0.3155 -0.7408  0.7774
  515MOL0     N69441  12.521   4.730   7.755  0.8887 -0.0947  0.8780
  515MOL0     N69442  12.575   4.800   7.844  0.0818 -0.8884  0.1300
  515MOL0     C69443  11.485   4.981   8.054  0.5955  0.1716 -0.7162
  515MOL0     C69444  11.360   4.929   8.027 -0.5635 -0.8886 -0.8995
  515MOL0     C69445  10.972   4.748   7.899  0.5222  0.3351 -0.1804
  515MOL0     C69446  10.975   4.648   7.806 -0.0180 -0.1481 -0.1342
  515MOL0     C69447  10.866   4.619   7.725  0.6352 -0.3551  0.3392
  515MOL0     C69448  10.746   4.695   7.735 -0.6417  0.3993 -0.3106
  515MOL0     O69449  10.629   4.664   7.659 -0.6979  0.4803 -0.6850
  515MOL0     C69450  10.637   4.601   7.532 -0.8314  0.1200 -0.2231
  515MOL0     C69451  10.500   4.620   7.464  0.5282 -0.1950  0.9586
  515MOL0     C69452  10.465   4.765   7.428  0.0488 -0.1995 -0.1903
  515MOL0     C69453  10.329   4.760   7.348 -0.6091 -0.3076 -0.7174
  515MOL0     C69454  10.341   4.685   7.214  0.3366 -0.3717  0.4967
  515MOL0     C69455  10.340   4.634   7.103 -0.0362  0.6214 -1.2867
  515MOL0     C69456  10.742   4.797   7.823  0.2827  1.2408  0.9691
  515MOL0     C69457  10.851   4.823   7.909  0.1897 -0.3172 -0.6779
  515MOL0     H69458  11.434   4.648   7.857  0.7273  1.7745 -2.7634
  515MOL0     H69459  11.670   4.748   7.892 -0.6514 -1.9336  0.4651
  515MOL0     H69460  11.668   5.169   8.022 -2.8476 -4.5464 -2.7927
  515MOL0     H69461  11.747   5.075   8.160  1.1826 -7.1955  0.3666
  515MOL0     H69462  11.901   5.141   7.893 -0.3070 -2.2796 -0.1790
  515MOL0     H69463  11.923   5.231   8.048  2.0693  0.1503  0.3310
  515MOL0     H69464  12.015   5.051   8.162  4.7150  1.6388 -0.4385
  515MOL0     H69465  11.953   4.936   8.037  0.2272 -0.9148  2.9881
  515MOL0     H69466  12.135   5.036   7.886 -1.6036 -0.1186 -0.1057
  515MOL0     H69467  12.140   5.177   7.991  1.1555  0.1721  4.6280
  515MOL0     H69468  12.228   5.071   8.176 -0.0940 -3.7996  2.5227
  515MOL0     H69469  12.239   4.917   8.095 -1.8223  0.9121  1.1498
  515MOL0     H69470  12.366   5.047   7.905 -1.2345 -2.6939  0.9257
  515MOL0     H69471  12.363   5.182   8.019  0.1454  0.4496 -0.6108
  515MOL0     H69472  12.568   5.065   8.026  0.9677 -0.4559  0.0278
  515MOL0     H69473  12.487   5.059   8.184  1.9423  3.2133 -1.2639
  515MOL0     H69474  12.430   4.815   8.140 -0.6065 -0.6784 -2.5510
  515MOL0     H69475  12.600   4.834   8.103 -0.0082 -0.8095  0.7889
  515MOL0     H69476  12.281   4.703   7.963 -0.9579 -0.3931 -0.3886
  515MOL0     H69477  12.335   4.642   7.590 -1.0301 -0.4602 -0.5451
  515MOL0     H69478  12.379   4.496   7.682 -0.6892  0.1104  0.6792
  515MOL0     H69479  12.125   4.578   7.613  0.8448  2.8501 -0.3012
  515MOL0     H69480  12.140   4.654   7.771  2.9295  0.9060  0.3138
  515MOL0     H69481  12.216   4.430   7.868  1.1037 -0.4050  0.1053
  515MOL0     H69482  12.163   4.357   7.715  0.3254 -2.2155  3.1583
  515MOL0     H69483  12.009   4.331   7.883  1.7525  0.0782  0.6318
  515MOL0     H69484  11.944   4.416   7.750  0.5259  3.3712 -1.3250
  515MOL0     H69485  11.754   4.369   7.846 -1.1466  2.5252 -1.3021
  515MOL0     H69486  11.483   4.233   8.006 -2.2897 -0.4936 -1.2580
  515MOL0     H69487  11.405   4.367   7.916 -1.6598 -4.2419 -2.3765
  515MOL0     H69488  11.526   4.286   7.840  2.1634  1.9307  1.1248
  515MOL0     H69489  11.125   4.296   8.155  1.7979 -0.5516  1.3408
  515MOL0     H69490  10.887   4.374   8.233  0.3470 -1.1425  0.6272
  515MOL0     H69491  10.685   4.733   8.290  2.2106  2.4304 -1.6097
  515MOL0     H69492  10.784   4.675   8.159  1.9969  0.8413  0.6112
  515MOL0     H69493  10.683   4.464   8.153  0.0863  0.0753  0.4947
  515MOL0     H69494  10.646   4.456   8.328  2.0670 -0.2685  0.5192
  515MOL0     H69495  10.455   4.599   8.299 -1.5517 -1.6498 -0.1033
  515MOL0     H69496  10.443   4.462   8.187 -0.9199  0.1962 -1.4950
  515MOL0     H69497  10.557   4.723   8.090 -0.0728  0.3606  2.5904
  515MOL0     H69498  10.508   4.571   7.999  0.3553  0.3018  0.1117
  515MOL0     H69499  10.324   4.779   8.131  2.7781 -0.4906  0.9595
  515MOL0     H69500  10.273   4.621   8.083  0.1499 -2.1848 -0.7951
  515MOL0     H69501  10.400   4.835   7.913 -2.4608  1.1685 -3.4788
  515MOL0     H69502  10.387   4.666   7.847 -0.1382  0.8558 -1.1669
  515MOL0     H69503  10.149   4.843   7.924 -0.7686 -1.4370  0.9230
  515MOL0     H69504  10.159   4.679   7.849 -0.6808  1.1437 -3.3725
  515MOL0     H69505  10.276   4.762   7.661  0.3158 -0.9163  2.2129
  515MOL0     H69506  10.267   4.928   7.708  0.7047 -0.6480 -3.1095
  515MOL0     H69507  11.049   4.755   8.323 -1.5010 -2.4289  3.9758
  515MOL0     H69508  11.258   4.708   8.233  0.4160  0.1222  4.4972
  515MOL0     H69509  11.667   4.655   8.237 -1.1750 -0.0244 -1.1094
  515MOL0     H69510  11.883   4.645   8.145 -0.9892 -1.8537  3.1029
  515MOL0     H69511  11.488   5.068   8.119  1.7841  0.8135 -1.5957
  515MOL0     H69512  11.275   4.978   8.073  0.0911  0.0480 -0.6690
  515MOL0     H69513  11.069   4.595   7.793 -0.3075 -0.3721 -1.5322
  515MOL0     H69514  10.865   4.530   7.662 -1.1931  0.0288 -0.2309
  515MOL0     H69515  10.718   4.646   7.473 -1.3615  2.8326  0.9816
  515MOL0     H69516  10.664   4.495   7.536  3.8235  1.0229 -1.5700
  515MOL0     H69517  10.425   4.562   7.519  0.5443 -1.6452 -0.4489
  515MOL0     H69518  10.513   4.559   7.373 -0.8845 -0.5289  0.9487
  515MOL0     H69519  10.547   4.815   7.376 -0.8490  1.0072 -0.4918
  515MOL0     H69520  10.452   4.829   7.516 -0.1320 -0.4165 -0.0549
  515MOL0     H69521  10.290   4.861   7.335  0.8679  0.4497  0.4906
  515MOL0     H69522  10.252   4.703   7.400 -1.7387 -1.6546 -3.6073
  515MOL0     H69523  10.341   4.591   7.005 -0.8262 -0.8022 -0.7090
  515MOL0     H69524  10.660   4.867   7.833  0.0502  1.3632 -1.2825
  515MOL0     H69525  10.848   4.917   7.963  0.4656 -1.4922  1.5008
  516MOL0     O69526   7.922   6.858   4.906 -0.2806  0.6299 -0.3340
  516MOL0     C69527   7.895   6.890   4.791  1.0965  0.3055 -0.8007
  516MOL0     O69528   7.812   6.815   4.706 -0.5096  0.0361 -0.4324
  516MOL0     C69529   7.775   6.684   4.730  0.1439 -1.0257 -0.2871
  516MOL0     C69530   7.660   6.650   4.656  0.4289  0.2855  0.2786
  516MOL0     C69531   7.610   6.518   4.676  1.2701  0.0559 -0.2087
  516MOL0     C69532   7.684   6.416   4.736 -0.7992  0.1209  1.0731
  516MOL0     O69533   7.623   6.294   4.731  0.0317 -0.1519  0.2133
  516MOL0     C69534   7.685   6.184   4.795  0.1987 -0.0155 -0.0475
  516MOL0     C69535   7.600   6.060   4.769 -0.8001 -0.1703  0.3507
  516MOL0     C69536   7.662   5.929   4.826  0.3681  0.5529 -0.1684
  516MOL0     C69537   7.562   5.821   4.784  0.0728  0.0192  0.2182
  516MOL0     C69538   7.597   5.694   4.854 -0.6631  0.9437 -0.7569
  516MOL0     C69539   7.513   5.580   4.806  0.4910 -0.1429  0.0321
  516MOL0     C69540   7.511   5.544   4.657  0.5196  0.7845  0.5347
  516MOL0     C69541   7.656   5.517   4.606  1.5296 -0.6106 -0.3727
  516MOL0     N69542   7.637   5.459   4.475 -0.2681  0.5536  1.1788
  516MOL0     C69543   7.555   5.500   4.371 -0.3743  0.4055  0.6825
  516MOL0     C69544   7.575   5.419   4.261 -0.0365 -0.0143  0.1342
  516MOL0     C69545   7.515   5.447   4.129  0.7205 -0.0843  0.1828
  516MOL0     C69546   7.528   5.337   4.028 -0.1912  0.2540  0.0400
  516MOL0     C69547   7.468   5.367   3.889 -0.5556 -0.4399  0.5175
  516MOL0     C69548   7.314   5.375   3.881 -0.4114  0.3966  0.2443
  516MOL0     O69549   7.240   5.302   3.983  0.1191  0.1437 -0.4135
  516MOL0     C69550   7.099   5.317   3.980 -0.2187  0.1178  0.4674
  516MOL0     C69551   7.023   5.378   3.877  0.6888 -0.0359 -1.1321
  516MOL0     C69552   6.882   5.376   3.872 -0.5748  0.4483 -0.4263
  516MOL0     C69553   6.817   5.442   3.749  0.3116  0.3134 -1.1040
  516MOL0     C69554   6.802   5.308   3.978 -0.5924 -0.7218 -0.6773
  516MOL0     C69555   6.652   5.324   3.994  0.6271 -0.5888 -0.2753
  516MOL0     O69556   6.592   5.431   3.939  0.2811 -1.2939  0.1705
  516MOL0     C69557   6.454   5.445   3.937  0.0092 -0.0347  0.2458
  516MOL0     C69558   6.388   5.542   4.014  0.2427  0.0995  0.7314
  516MOL0     C69559   6.251   5.552   4.002 -0.6069  0.3701  0.5429
  516MOL0     C69560   6.181   5.470   3.925  0.4954 -0.4447  0.0562
  516MOL0     O69561   6.043   5.486   3.902 -0.6980 -0.4975 -0.1414
  516MOL0     C69562   5.966   5.496   4.021 -0.1646  0.2277 -0.3537
  516MOL0     C69563   5.808   5.490   4.000 -0.7154 -1.0785 -0.0447
  516MOL0     C69564   5.739   5.616   4.040 -0.2150  0.4633  0.4753
  516MOL0     C69565   5.601   5.626   3.966  0.0038  0.1582  0.1991
  516MOL0     C69566   5.535   5.768   3.955 -0.5931  0.1010 -0.7648
  516MOL0     C69567   5.498   5.808   4.100 -0.1626  0.3494 -0.4565
  516MOL0     C69568   5.399   5.717   4.170  0.1896  0.4835  0.4021
  516MOL0     C69569   5.290   5.782   4.259  0.1792 -0.3504 -0.3413
  516MOL0    Cl69570   5.164   5.886   4.185  0.1677  0.0684  0.0824
  516MOL0     C69571   6.242   5.376   3.840 -0.5579 -0.3328 -0.4511
  516MOL0     C69572   6.389   5.363   3.845  0.4659 -0.2577  0.0826
  516MOL0     O69573   6.591   5.229   4.051  0.5877 -0.4664 -0.7120
  516MOL0     C69574   6.876   5.246   4.078 -0.4807  0.5068  0.6374
  516MOL0     C69575   7.019   5.251   4.067 -0.9186  0.8860 -0.7247
  516MOL0     N69576   7.670   5.335   4.302 -1.0027 -0.2676  0.3366
  516MOL0     N69577   7.707   5.354   4.426 -0.0119 -0.1322  0.3015
  516MOL0     C69578   7.806   6.446   4.807 -0.5536 -0.2612  1.4035
  516MOL0     C69579   7.844   6.585   4.802 -0.3652 -0.0698  0.2144
  516MOL0     C69580   7.925   7.023   4.744  0.7547 -0.5415  0.0489
  516MOL0     C69581   8.015   7.101   4.812 -0.1959 -0.4995 -1.1867
  516MOL0     C69582   8.050   7.229   4.775  0.9767 -0.3606  0.4726
  516MOL0     C69583   7.991   7.279   4.658  1.2507  0.0253  0.4494
  516MOL0     O69584   8.004   7.414   4.627 -0.6767 -0.0996  0.1140
  516MOL0     C69585   8.038   7.442   4.487 -0.9793  0.6326 -1.0658
  516MOL0     C69586   8.160   7.537   4.483  0.3776  0.4036 -0.6851
  516MOL0     C69587   8.296   7.464   4.509  0.7128  0.1293  0.0456
  516MOL0     C69588   8.357   7.418   4.381  0.4563 -0.2996  0.2780
  516MOL0     C69589   8.273   7.349   4.273 -0.0736 -0.5500  0.4632
  516MOL0     C69590   8.220   7.313   4.170 -0.2150  1.1913 -0.3956
  516MOL0     C69591   7.901   7.205   4.581  0.0349 -0.3582 -0.6734
  516MOL0     C69592   7.870   7.071   4.622 -0.0088  0.6734 -0.3442
  516MOL0     H69593   7.602   6.722   4.599  0.1740  2.8345  3.4727
  516MOL0     H69594   7.515   6.489   4.632  0.2968  1.6986  0.7081
  516MOL0     H69595   7.786   6.179   4.753  0.8288  1.7068  1.1673
  516MOL0     H69596   7.693   6.203   4.903 -0.3550 -3.4448  0.7230
  516MOL0     H69597   7.505   6.086   4.816 -0.7154 -1.2799  1.1745
  516MOL0     H69598   7.571   6.053   4.664 -2.4071 -0.0469  0.7549
  516MOL0     H69599   7.763   5.904   4.791  1.6947  1.4110  2.7724
  516MOL0     H69600   7.658   5.926   4.935 -0.3445 -2.0440 -0.1812
  516MOL0     H69601   7.457   5.842   4.810 -0.6000 -0.1194 -2.1410
  516MOL0     H69602   7.566   5.818   4.675  0.8749  2.7501  0.1082
  516MOL0     H69603   7.701   5.662   4.845 -1.4175 -2.8230  1.7026
  516MOL0     H69604   7.585   5.717   4.960  1.2000 -0.4168 -0.2167
  516MOL0     H69605   7.549   5.494   4.864  2.3545 -0.6381 -1.7512
  516MOL0     H69606   7.411   5.594   4.843  0.9980 -1.0296  1.8945
  516MOL0     H69607   7.455   5.451   4.646 -0.9178  1.6689  0.1412
  516MOL0     H69608   7.463   5.618   4.593 -0.9341  0.2725  0.9942
  516MOL0     H69609   7.708   5.457   4.681 -0.6794 -2.3308 -0.0960
  516MOL0     H69610   7.709   5.612   4.593  0.2894 -0.1000 -2.1522
  516MOL0     H69611   7.500   5.593   4.370 -0.1084  0.5977  2.2551
  516MOL0     H69612   7.411   5.475   4.146  1.7410  3.9840  0.9965
  516MOL0     H69613   7.564   5.541   4.099 -1.5750  1.4588  0.9799
  516MOL0     H69614   7.467   5.258   4.072  1.6606 -0.0448  2.2827
  516MOL0     H69615   7.631   5.302   4.022  0.5075  1.7847  1.8217
  516MOL0     H69616   7.506   5.282   3.831 -0.5981 -0.7566  0.9410
  516MOL0     H69617   7.507   5.461   3.848 -4.0604  0.4279 -1.1544
  516MOL0     H69618   7.286   5.334   3.784  0.3530  2.7521 -1.0587
  516MOL0     H69619   7.287   5.481   3.886  1.2735  1.0532 -2.2397
  516MOL0     H69620   7.069   5.443   3.803 -0.3296  2.4519  0.3017
  516MOL0     H69621   6.785   5.538   3.790 -1.5973 -0.8774  0.4080
  516MOL0     H69622   6.883   5.462   3.665 -0.9704  0.5481 -2.0876
  516MOL0     H69623   6.738   5.379   3.706 -1.9729 -0.2646  3.3181
  516MOL0     H69624   6.450   5.608   4.074 -0.3740  1.2520  0.1336
  516MOL0     H69625   6.210   5.625   4.070 -2.1769 -0.2478  0.2990
  516MOL0     H69626   5.992   5.410   4.084  1.6517  0.2298 -1.0315
  516MOL0     H69627   5.983   5.591   4.072  0.8334 -0.7326  1.1933
  516MOL0     H69628   5.799   5.489   3.891  1.1662  0.4864 -0.2814
  516MOL0     H69629   5.762   5.406   4.052 -2.0504  0.9211  2.2250
  516MOL0     H69630   5.802   5.697   4.003 -1.5912  2.2837  1.9271
  516MOL0     H69631   5.735   5.623   4.149  4.1829  1.0384  0.7836
  516MOL0     H69632   5.624   5.611   3.860  2.3280  2.1433  0.3369
  516MOL0     H69633   5.543   5.541   4.005 -0.6540  0.0555 -0.9638
  516MOL0     H69634   5.446   5.760   3.891  0.8444 -2.2397 -2.6639
  516MOL0     H69635   5.599   5.843   3.909  1.2491 -0.4734  0.7431
  516MOL0     H69636   5.585   5.791   4.164 -1.7447  1.1318  2.0514
  516MOL0     H69637   5.467   5.912   4.100  0.5124  0.5578 -1.2174
  516MOL0     H69638   5.456   5.639   4.221  4.1176  1.3235 -2.2685
  516MOL0     H69639   5.342   5.659   4.096  1.4923 -1.1508  0.6152
  516MOL0     H69640   5.340   5.839   4.338 -0.3990 -2.1093  1.3962
  516MOL0     H69641   5.234   5.700   4.307 -1.5933  1.6331  1.1921
  516MOL0     H69642   6.182   5.316   3.772 -1.2050  1.1544 -1.2234
  516MOL0     H69643   6.441   5.297   3.776 -0.5909 -0.3103 -0.6844
  516MOL0     H69644   6.835   5.205   4.169  2.3494 -0.2151  1.7049
  516MOL0     H69645   7.067   5.198   4.148 -2.2866  0.5318 -0.1341
  516MOL0     H69646   7.863   6.375   4.867  1.5128 -2.8026 -3.0834
  516MOL0     H69647   7.934   6.608   4.858 -2.6389  2.3742  3.1864
  516MOL0     H69648   8.064   7.067   4.903 -1.0641  0.4373 -0.3322
  516MOL0     H69649   8.125   7.289   4.826 -2.3764  2.2610  2.6878
  516MOL0     H69650   8.067   7.353   4.430  1.9478 -1.0225  2.5501
  516MOL0     H69651   7.948   7.483   4.441 -0.2482  1.4344 -1.8325
  516MOL0     H69652   8.144   7.612   4.561 -0.9286 -0.6717  0.1379
  516MOL0     H69653   8.158   7.596   4.391 -0.6830  1.7505  0.1596
  516MOL0     H69654   8.275   7.378   4.573 -5.7394 -0.1337 -1.7054
  516MOL0     H69655   8.364   7.535   4.557  0.9347 -0.0346 -0.0210
  516MOL0     H69656   8.438   7.348   4.403  1.9679  1.7897  1.7279
  516MOL0     H69657   8.408   7.498   4.328 -0.9836 -0.6358 -1.7611
  516MOL0     H69658   8.170   7.277   4.082  0.7468  0.8065 -0.8022
  516MOL0     H69659   7.858   7.246   4.491 -2.3260  0.6454  0.8060
  516MOL0     H69660   7.803   7.009   4.563 -0.8042  0.6202  0.5917
  517MOL0     O69661  10.404   8.183   0.079  0.2129  0.1758  0.4914
  517MOL0     C69662  10.413   8.099   0.169  0.3848 -0.4102 -0.2113
  517MOL0     O69663  10.305   8.034   0.231  0.5096  0.1518 -0.4499
  517MOL0     C69664  10.171   8.030   0.188 -0.0459  0.6318  0.3218
  517MOL0     C69665  10.125   8.072   0.060 -0.2270 -1.0670 -0.0818
  517MOL0     C69666   9.991   8.063   0.027  0.1899  0.8443 -0.9636
  517MOL0     C69667   9.898   7.999   0.109 -1.0708 -1.2690  0.2050
  517MOL0     O69668   9.768   7.994   0.069 -0.4077  0.0021 -0.5742
  517MOL0     C69669   9.655   7.975   0.166  0.3892 -0.9817 -0.1726
  517MOL0     C69670   9.526   7.963   0.080 -0.6330 -0.4141 -0.1919
  517MOL0     C69671   9.405   7.917   0.165  0.2691 -0.8163  0.2525
  517MOL0     C69672   9.288   7.882   0.076  0.7659 -0.1007 -0.1490
  517MOL0     C69673   9.158   7.872   0.160  0.3367 -0.1919 -0.5991
  517MOL0     C69674   9.044   7.846   0.070 -0.3999 -0.0968  0.0894
  517MOL0     C69675   8.911   7.805   0.145  0.7380  0.5002  0.0390
  517MOL0     C69676   8.863   7.930   0.223 -0.2180 -0.4436  0.1861
  517MOL0     N69677   8.813   8.040   0.142  0.1201 -0.1747  0.1715
  517MOL0     C69678   8.690   8.028   0.078  0.3887 -0.6755  0.4948
  517MOL0     C69679   8.698   8.111  -0.021 -0.3963 -0.7746  0.1931
  517MOL0     C69680   8.611   8.119  -0.141 -0.0542 -0.1891 -0.1714
  517MOL0     C69681   8.455   8.136  -0.093 -0.3089 -1.1629  0.0398
  517MOL0     C69682   8.374   8.225  -0.196 -0.0608 -0.4898  0.5893
  517MOL0     C69683   8.236   8.276  -0.159 -1.0967 -0.4388  0.4375
  517MOL0     O69684   8.169   8.179  -0.076 -0.2893  0.0909  0.7691
  517MOL0     C69685   8.041   8.209  -0.032  0.1138 -0.5305  1.0067
  517MOL0     C69686   7.966   8.305  -0.105  0.6315 -0.1707 -0.0833
  517MOL0     C69687   7.818   8.316  -0.090 -0.9534 -0.1022 -0.7740
  517MOL0     C69688   7.751   8.442  -0.158 -0.3232  0.3314  0.3024
  517MOL0     C69689   7.755   8.227  -0.002  0.4672  0.3612  0.0769
  517MOL0     C69690   7.610   8.228   0.030  0.0348 -0.3277  0.9544
  517MOL0     O69691   7.532   8.332  -0.013 -1.1141 -0.3954  0.3071
  517MOL0     C69692   7.395   8.335   0.005 -0.3013 -0.4668 -0.7537
  517MOL0     C69693   7.329   8.417  -0.095 -0.1792 -0.1600 -0.0255
  517MOL0     C69694   7.189   8.435  -0.084  0.0196 -0.0822  0.9518
  517MOL0     C69695   7.119   8.381   0.030 -0.0043 -0.2365 -0.9316
  517MOL0     O69696   6.982   8.382   0.043 -0.0974  0.0958 -0.0466
  517MOL0     C69697   6.896   8.467  -0.048  0.0692 -1.0095 -0.8983
  517MOL0     C69698   6.752   8.476   0.001  0.6636 -0.0849 -0.6241
  517MOL0     C69699   6.678   8.359  -0.050 -0.1685 -0.2505  0.2935
  517MOL0     C69700   6.537   8.352   0.017 -0.4865  0.2549  0.1511
  517MOL0     C69701   6.477   8.217  -0.021 -0.8381 -0.3338 -0.0059
  517MOL0     C69702   6.325   8.226  -0.030 -1.0692  0.7760 -0.1581
  517MOL0     C69703   6.244   8.251   0.096 -0.6395 -0.3310  0.3000
  517MOL0     C69704   6.093   8.215   0.088  0.1063  0.6735  0.8753
  517MOL0    Cl69705   6.012   8.299  -0.049  0.1068 -0.4329  0.2857
  517MOL0     C69706   7.193   8.317   0.122 -0.1619 -0.1029 -1.1232
  517MOL0     C69707   7.330   8.292   0.116 -0.1272  0.1255 -1.0566
  517MOL0     O69708   7.570   8.130   0.087 -0.2540 -0.3475  0.7943
  517MOL0     C69709   7.835   8.126   0.062  0.1927 -0.1251  0.6302
  517MOL0     C69710   7.974   8.121   0.044 -0.7204  0.0386 -0.2632
  517MOL0     N69711   8.811   8.191  -0.011 -0.1659  0.2151  0.5143
  517MOL0     N69712   8.887   8.143   0.081 -0.3809 -0.3557 -0.5811
  517MOL0     C69713   9.947   7.945   0.233 -0.2340 -0.6837  0.1309
  517MOL0     C69714  10.080   7.965   0.271  0.3304 -0.6427  0.3082
  517MOL0     C69715  10.545   8.087   0.243 -0.5026  0.6425 -0.4865
  517MOL0     C69716  10.661   8.127   0.183  0.9889  1.1429  0.2388
  517MOL0     C69717  10.785   8.107   0.251  0.4322 -0.4207 -0.2778
  517MOL0     C69718  10.784   8.071   0.392 -0.5958  1.2752  0.0729
  517MOL0     O69719  10.902   8.074   0.466  0.4258  0.2000  0.5294
  517MOL0     C69720  11.026   8.081   0.399 -0.0300 -0.0723  0.7057
  517MOL0     C69721  11.089   8.227   0.412  0.0874  0.1023  0.7488
  517MOL0     C69722  11.210   8.236   0.319  0.6322 -0.2624  0.1258
  517MOL0     C69723  11.344   8.181   0.366 -0.1544 -0.8932 -0.4196
  517MOL0     C69724  11.402   8.288   0.451  0.3840 -0.6106 -0.0219
  517MOL0     C69725  11.466   8.375   0.506 -0.5670 -0.0984  0.2333
  517MOL0     C69726  10.662   8.025   0.454  0.4774 -0.1849 -0.3710
  517MOL0     C69727  10.548   8.032   0.372  0.2378  0.5062  0.1421
  517MOL0     H69728  10.179   8.134  -0.011  2.3507 -3.3538 -0.2788
  517MOL0     H69729   9.949   8.108  -0.062 -2.3817 -2.7653 -1.8296
  517MOL0     H69730   9.661   7.878   0.216 -3.6145 -2.2451 -1.7200
  517MOL0     H69731   9.656   8.065   0.227  1.4438 -1.8666  1.1766
  517MOL0     H69732   9.504   8.061   0.037  0.9344 -0.3786 -0.9697
  517MOL0     H69733   9.547   7.893  -0.002  1.4473  1.6486 -1.5287
  517MOL0     H69734   9.422   7.825   0.223  0.0059 -1.4562 -0.6673
  517MOL0     H69735   9.376   8.001   0.229 -0.3153 -0.1195 -0.8978
  517MOL0     H69736   9.271   7.963   0.003 -4.0278  0.7909  1.5658
  517MOL0     H69737   9.302   7.787   0.025 -1.1743 -0.5553  0.0622
  517MOL0     H69738   9.174   7.800   0.241  1.1343  1.7320  1.0691
  517MOL0     H69739   9.143   7.970   0.208  3.0153  0.2571 -0.5629
  517MOL0     H69740   9.026   7.929   0.001 -0.0863 -1.9480 -2.3429
  517MOL0     H69741   9.083   7.766   0.007  2.6545  0.3488  1.2246
  517MOL0     H69742   8.826   7.767   0.087 -0.5821  1.6706  1.1257
  517MOL0     H69743   8.943   7.729   0.217  0.0909  0.1955  0.0123
  517MOL0     H69744   8.946   7.970   0.282  1.2438 -1.8298 -0.8343
  517MOL0     H69745   8.781   7.901   0.289 -0.1534 -0.8296  0.1007
  517MOL0     H69746   8.611   7.955   0.094 -1.6040  0.8517 -1.7943
  517MOL0     H69747   8.638   8.206  -0.201 -1.3777  0.5091  0.1961
  517MOL0     H69748   8.622   8.041  -0.218  0.3424  0.6770 -1.0107
  517MOL0     H69749   8.456   8.190   0.003  1.9971 -0.3454 -0.4015
  517MOL0     H69750   8.407   8.040  -0.073 -0.0184 -1.3960 -0.3863
  517MOL0     H69751   8.371   8.162  -0.285 -1.3328  2.4746 -1.6169
  517MOL0     H69752   8.431   8.317  -0.204 -0.0165 -0.5892 -0.2591
  517MOL0     H69753   8.193   8.306  -0.256  1.3856  2.1349  0.0144
  517MOL0     H69754   8.242   8.368  -0.101  1.2165 -0.5447  0.4477
  517MOL0     H69755   8.013   8.382  -0.166  0.7847 -1.3810 -1.5564
  517MOL0     H69756   7.827   8.492  -0.218  3.6320 -0.1136  4.3778
  517MOL0     H69757   7.668   8.414  -0.224 -0.6146 -2.4600  1.6886
  517MOL0     H69758   7.719   8.504  -0.074  1.0922  0.3360  0.8583
  517MOL0     H69759   7.385   8.478  -0.166 -0.0127 -0.1176  0.1435
  517MOL0     H69760   7.146   8.506  -0.154  2.1289 -0.1368 -0.5257
  517MOL0     H69761   6.935   8.569  -0.049  0.6438 -1.2282 -1.4100
  517MOL0     H69762   6.901   8.429  -0.151  1.7222 -0.5796 -1.0048
  517MOL0     H69763   6.759   8.487   0.110  3.5416  1.0055 -0.8375
  517MOL0     H69764   6.696   8.563  -0.036  0.2041  0.1346  0.5279
  517MOL0     H69765   6.729   8.264  -0.028 -0.5616 -0.2466  1.3088
  517MOL0     H69766   6.675   8.361  -0.159  0.5597  0.8903  0.2882
  517MOL0     H69767   6.541   8.362   0.126  1.8543  2.3105 -0.0233
  517MOL0     H69768   6.473   8.434  -0.019 -0.0698  0.5476  0.0698
  517MOL0     H69769   6.508   8.137   0.047  0.3040  0.8804  0.9576
  517MOL0     H69770   6.514   8.193  -0.121  2.6550  0.3195  1.0016
  517MOL0     H69771   6.307   8.308  -0.099  0.6550  1.3921  0.0751
  517MOL0     H69772   6.294   8.136  -0.083 -0.0697  0.1252  0.3271
  517MOL0     H69773   6.249   8.354   0.133 -1.5405 -0.8622  2.0404
  517MOL0     H69774   6.297   8.181   0.162 -0.6730 -0.7459 -0.1072
  517MOL0     H69775   6.042   8.258   0.175 -1.8631  1.2328 -0.4897
  517MOL0     H69776   6.081   8.107   0.079 -0.4330  0.7437  0.7631
  517MOL0     H69777   7.141   8.287   0.213  1.6083  1.7723  0.6191
  517MOL0     H69778   7.371   8.238   0.201  0.6355  2.7439  0.3594
  517MOL0     H69779   7.805   8.054   0.137  0.3419  0.3263  1.1322
  517MOL0     H69780   8.036   8.052   0.099  1.3579  1.3035 -0.9237
  517MOL0     H69781   9.886   7.878   0.293 -1.9170  1.1419  0.5597
  517MOL0     H69782  10.115   7.917   0.363  0.2987 -1.3541 -0.0399
  517MOL0     H69783  10.671   8.174   0.086 -1.7275  0.9432 -0.2164
  517MOL0     H69784  10.870   8.152   0.201 -0.6060  3.9700  1.3865
  517MOL0     H69785  11.087   8.002   0.444 -3.7709 -2.5671  1.8055
  517MOL0     H69786  11.016   8.051   0.295 -0.9898 -0.4847  0.9052
  517MOL0     H69787  11.123   8.260   0.510  0.5616  1.5544  0.1125
  517MOL0     H69788  11.006   8.283   0.368  1.0117  0.1296 -1.0892
  517MOL0     H69789  11.212   8.342   0.294 -0.4783 -0.5070 -1.0974
  517MOL0     H69790  11.178   8.184   0.228  0.2088 -2.1477  1.2796
  517MOL0     H69791  11.404   8.175   0.275 -2.3913 -1.7374 -1.9324
  517MOL0     H69792  11.338   8.086   0.419  2.4373  0.2211  2.1273
  517MOL0     H69793  11.515   8.460   0.549  0.9184 -1.1494  0.7004
  517MOL0     H69794  10.659   7.985   0.555  0.5081  2.0405  0.5698
  517MOL0     H69795  10.453   8.006   0.416  0.8774  0.5779  1.6285
  518MOL0     O69796   8.213   7.216   9.277  0.3113 -0.1659 -0.4096
  518MOL0     C69797   8.304   7.251   9.207 -1.5045 -0.1813 -0.3290
  518MOL0     O69798   8.314   7.377   9.149 -0.2534  0.0542 -0.6006
  518MOL0     C69799   8.424   7.453   9.177 -0.0416 -0.2750  0.4644
  518MOL0     C69800   8.527   7.420   9.264 -1.0268 -0.7885 -0.2417
  518MOL0     C69801   8.647   7.492   9.259 -0.5007  0.0155  0.1987
  518MOL0     C69802   8.648   7.611   9.195  0.4424 -0.8059 -0.4506
  518MOL0     O69803   8.766   7.675   9.194  0.0382  0.7650 -1.0475
  518MOL0     C69804   8.766   7.817   9.172  0.2084  0.9887  1.4098
  518MOL0     C69805   8.905   7.882   9.194  0.1013 -0.7216  0.2028
  518MOL0     C69806   8.888   8.037   9.204  0.3285  0.2730  0.2872
  518MOL0     C69807   9.017   8.110   9.249  0.4189  0.1861  0.7286
  518MOL0     C69808   8.987   8.258   9.282 -0.3882  0.1879  0.2401
  518MOL0     C69809   9.102   8.342   9.326  0.4780  0.1357  0.5581
  518MOL0     C69810   9.125   8.363   9.479  0.2534  0.5361  0.6600
  518MOL0     C69811   9.254   8.438   9.495  1.2843  0.4072 -0.3710
  518MOL0     N69812   9.290   8.484   9.627  0.5541 -0.6482  0.1801
  518MOL0     C69813   9.332   8.619   9.659  0.1920  0.3567  0.2895
  518MOL0     C69814   9.355   8.608   9.788 -0.4085  0.0125 -0.2422
  518MOL0     C69815   9.383   8.718   9.879 -0.8623 -0.0208 -0.4247
  518MOL0     C69816   9.533   8.714   9.920  0.4555 -0.2558 -1.1871
  518MOL0     C69817   9.559   8.820  10.031  0.1868  0.1409 -0.2796
  518MOL0     C69818   9.607   8.951   9.979 -0.3961 -0.6290  0.5883
  518MOL0     O69819   9.681   9.017  10.080 -0.3604  0.8759  0.1366
  518MOL0     C69820   9.819   9.005  10.087  0.6912  0.8214 -0.4130
  518MOL0     C69821   9.886   8.916  10.010 -0.0222  0.6163 -0.1063
  518MOL0     C69822  10.023   8.927   9.989 -0.0535 -1.3083  1.1946
  518MOL0     C69823  10.081   8.829   9.890  1.0100  0.3895 -0.5299
  518MOL0     C69824  10.101   9.030  10.056 -0.0213  0.3983 -0.6746
  518MOL0     C69825  10.245   9.058  10.033 -0.7312 -0.2756 -0.3599
  518MOL0     O69826  10.329   8.955  10.001  0.3506  0.5535  0.6391
  518MOL0     C69827  10.461   8.986   9.969 -0.1020  0.0589  0.4192
  518MOL0     C69828  10.555   9.017  10.068  0.5365 -0.5921  1.0067
  518MOL0     C69829  10.686   9.035  10.036  0.2753 -0.1793 -0.1207
  518MOL0     C69830  10.723   9.051   9.898 -0.3210  0.9022  0.4383
  518MOL0     O69831  10.854   9.066   9.855  0.6311  0.2040  0.2566
  518MOL0     C69832  10.947   9.109   9.954 -0.8669  0.6936 -0.0408
  518MOL0     C69833  11.077   9.148   9.877  0.2197  0.0052 -0.3141
  518MOL0     C69834  11.167   9.022   9.864  0.0458  0.1301 -0.5327
  518MOL0     C69835  11.293   9.056   9.788 -1.2770 -0.4151 -0.0074
  518MOL0     C69836  11.407   8.950   9.787 -0.2282  0.8712 -0.5402
  518MOL0     C69837  11.378   8.816   9.705 -0.0785 -0.2093 -0.8158
  518MOL0     C69838  11.359   8.836   9.560 -0.3246 -0.9520 -0.4398
  518MOL0     C69839  11.341   8.704   9.483 -1.1159 -0.4906  0.1671
  518MOL0    Cl69840  11.505   8.630   9.471 -0.4351  0.2653  0.4540
  518MOL0     C69841  10.629   9.033   9.800 -0.2038  0.0775  0.1306
  518MOL0     C69842  10.502   8.999   9.837 -0.1157  0.1436  0.4931
  518MOL0     O69843  10.271   9.174  10.065  0.7202 -0.0144 -0.8185
  518MOL0     C69844  10.026   9.121  10.139 -0.1477  0.1321  0.2067
  518MOL0     C69845   9.888   9.103  10.160 -0.4670  0.1189  0.7325
  518MOL0     N69846   9.347   8.476   9.828  0.2105 -0.0641  0.2834
  518MOL0     N69847   9.314   8.401   9.726 -0.0038 -0.6162 -0.3540
  518MOL0     C69848   8.539   7.655   9.119 -0.3088  0.8343 -0.3177
  518MOL0     C69849   8.423   7.577   9.117 -0.3120  0.4052  1.1294
  518MOL0     C69850   8.413   7.147   9.185 -0.2530 -0.7535 -0.4124
  518MOL0     C69851   8.430   7.040   9.268 -0.2477 -0.4771  0.2937
  518MOL0     C69852   8.538   6.954   9.250 -0.5398 -0.7901 -0.0513
  518MOL0     C69853   8.625   6.967   9.144 -0.0739 -0.2408 -0.4255
  518MOL0     O69854   8.717   6.865   9.132 -0.3842  0.4852  0.6292
  518MOL0     C69855   8.814   6.864   9.016 -0.0333  0.7497 -0.0507
  518MOL0     C69856   8.928   6.955   9.034 -0.9785 -0.3351 -0.1481
  518MOL0     C69857   9.005   6.924   9.167 -0.1809 -0.0717  0.1004
  518MOL0     C69858   9.100   7.039   9.201 -0.4708 -0.2815 -0.1302
  518MOL0     C69859   9.023   7.145   9.266  1.1376  0.5404 -0.6438
  518MOL0     C69860   8.965   7.237   9.335 -0.7546  0.3440 -1.2504
  518MOL0     C69861   8.607   7.075   9.059  0.0749 -0.1130  0.5555
  518MOL0     C69862   8.502   7.154   9.074  0.6321 -0.2905 -0.2368
  518MOL0     H69863   8.533   7.340   9.336  3.0827 -0.9286 -0.4804
  518MOL0     H69864   8.735   7.459   9.312  1.4971  4.8342  0.4009
  518MOL0     H69865   8.739   7.839   9.069  1.7246 -1.4499  0.3905
  518MOL0     H69866   8.689   7.864   9.234  0.2878  1.4839  1.1396
  518MOL0     H69867   8.943   7.848   9.291 -0.9455  1.8102  1.6212
  518MOL0     H69868   8.972   7.851   9.114  1.2555 -1.1035  1.2936
  518MOL0     H69869   8.863   8.080   9.106  0.5537  1.2672  0.6585
  518MOL0     H69870   8.813   8.071   9.276  2.4998  1.1192  2.2590
  518MOL0     H69871   9.054   8.062   9.340  0.5203 -0.3501  0.4053
  518MOL0     H69872   9.095   8.116   9.172 -3.5573  1.6215 -3.6760
  518MOL0     H69873   8.941   8.304   9.194  0.2949  0.9641  0.2799
  518MOL0     H69874   8.917   8.262   9.365 -1.5968 -3.4020 -0.4370
  518MOL0     H69875   9.193   8.302   9.280 -0.8548 -1.3144 -0.9602
  518MOL0     H69876   9.080   8.438   9.278 -2.0950  0.3896  2.0824
  518MOL0     H69877   9.040   8.424   9.511  0.8169  0.2235  2.9263
  518MOL0     H69878   9.134   8.268   9.534 -0.4915 -0.9719 -1.6706
  518MOL0     H69879   9.243   8.531   9.438 -2.8519  1.0553  1.1388
  518MOL0     H69880   9.330   8.367   9.464  1.1819 -1.0077  2.3053
  518MOL0     H69881   9.328   8.704   9.592 -0.8651 -0.0305 -0.1681
  518MOL0     H69882   9.373   8.817   9.834 -2.9432  0.1429  0.2848
  518MOL0     H69883   9.316   8.711   9.966  0.6413 -2.5782  0.6436
  518MOL0     H69884   9.595   8.741   9.834  0.6081 -0.8976 -1.2857
  518MOL0     H69885   9.555   8.614   9.959 -1.1584  0.3186  1.5110
  518MOL0     H69886   9.629   8.763  10.093 -1.9034  1.2286  3.3331
  518MOL0     H69887   9.470   8.832  10.093  0.5472 -0.6950  0.4225
  518MOL0     H69888   9.521   9.013   9.953  0.2952  0.6538  1.2823
  518MOL0     H69889   9.669   8.940   9.890 -0.3173  1.0853  0.4042
  518MOL0     H69890   9.838   8.828   9.967 -0.7391  0.5288  0.8357
  518MOL0     H69891  10.063   8.873   9.791 -2.1887 -2.3170 -1.3328
  518MOL0     H69892  10.185   8.798   9.904  0.2013 -2.6448 -0.6508
  518MOL0     H69893  10.014   8.743   9.895  0.4957  0.7715 -0.7224
  518MOL0     H69894  10.530   9.036  10.172 -2.1203 -2.0366  0.7318
  518MOL0     H69895  10.755   9.054  10.118  0.7621  1.1726 -0.8254
  518MOL0     H69896  10.909   9.192  10.015 -2.5097 -0.7646  1.0135
  518MOL0     H69897  10.971   9.032  10.028  4.3840  1.4308 -0.5585
  518MOL0     H69898  11.039   9.183   9.781 -1.0624 -0.3638  0.0281
  518MOL0     H69899  11.132   9.227   9.929  2.6635 -2.3125  0.8225
  518MOL0     H69900  11.110   8.942   9.816  0.6012 -0.2150 -0.6240
  518MOL0     H69901  11.184   8.983   9.965  0.6305 -0.1791 -0.7425
  518MOL0     H69902  11.256   9.074   9.687 -1.1935 -0.0611  0.0236
  518MOL0     H69903  11.338   9.150   9.823 -1.0627 -0.0565 -1.1914
  518MOL0     H69904  11.424   8.926   9.893  1.6248 -0.4486 -1.0827
  518MOL0     H69905  11.503   8.996   9.760  1.4443 -3.4442 -2.9091
  518MOL0     H69906  11.469   8.757   9.719 -0.3229 -0.3111  0.4614
  518MOL0     H69907  11.292   8.756   9.738  0.0063 -1.6200 -2.9727
  518MOL0     H69908  11.452   8.881   9.524 -0.7690 -0.4841 -1.0333
  518MOL0     H69909  11.278   8.908   9.545  1.5110  1.0964 -1.0661
  518MOL0     H69910  11.314   8.735   9.381 -0.3361 -1.7698 -0.4583
  518MOL0     H69911  11.268   8.626   9.502 -0.6717 -2.0293 -3.5952
  518MOL0     H69912  10.672   9.044   9.700  2.7448 -0.8817  1.1736
  518MOL0     H69913  10.427   8.978   9.761 -2.2104  0.9616  2.2270
  518MOL0     H69914  10.087   9.190  10.196  1.9512 -2.3410  1.1304
  518MOL0     H69915   9.837   9.167  10.232 -0.6622  1.4667 -0.5613
  518MOL0     H69916   8.542   7.748   9.063  2.5919  1.1762  0.2766
  518MOL0     H69917   8.335   7.611   9.063  0.1872 -0.6284 -0.3678
  518MOL0     H69918   8.353   7.009   9.338  0.0221  0.1909  0.8991
  518MOL0     H69919   8.556   6.872   9.318  2.0129  1.3072  1.9941
  518MOL0     H69920   8.862   6.767   8.998 -0.4224  0.4991  0.2363
  518MOL0     H69921   8.768   6.897   8.922 -0.5611  1.1916  0.3567
  518MOL0     H69922   8.892   7.058   9.028 -0.0863  0.0722  1.0577
  518MOL0     H69923   8.996   6.922   8.955 -1.1763 -2.4560  0.4958
  518MOL0     H69924   9.069   6.839   9.139 -0.0965  0.7178 -2.4094
  518MOL0     H69925   8.940   6.903   9.252 -1.5175  0.0967 -0.8414
  518MOL0     H69926   9.158   7.082   9.119 -1.9813  1.3956 -0.3704
  518MOL0     H69927   9.170   7.001   9.276  1.3015 -1.0014 -2.0465
  518MOL0     H69928   8.931   7.317   9.398 -0.2812 -1.7245  1.8597
  518MOL0     H69929   8.666   7.091   8.969 -0.0115  0.3161  0.5733
  518MOL0     H69930   8.492   7.235   9.003  2.7578  0.2785  0.0484
  519MOL0     O69931   1.882   8.809  11.086 -0.3536 -0.5570 -0.0169
  519MOL0     C69932   1.916   8.903  11.013  0.2465  0.0193 -0.0705
  519MOL0     O69933   1.844   9.013  10.988 -0.2609 -0.5233 -0.2073
  519MOL0     C69934   1.719   9.017  11.045  0.0787  0.9513  0.9082
  519MOL0     C69935   1.681   9.092  11.154  0.1823  0.3366  0.4999
  519MOL0     C69936   1.552   9.085  11.216 -1.5683  0.2554 -0.4684
  519MOL0     C69937   1.459   8.991  11.164  0.5560  0.0738  1.4153
  519MOL0     O69938   1.333   8.986  11.219  0.1705  0.3022  0.1992
  519MOL0     C69939   1.231   8.916  11.152 -0.9345  0.5554  0.4886
  519MOL0     C69940   1.113   8.932  11.238  0.1234 -0.0751  1.0850
  519MOL0     C69941   0.983   8.857  11.201  0.2501 -0.0483  0.2939
  519MOL0     C69942   0.995   8.712  11.261 -0.1422  0.5396  0.2799
  519MOL0     C69943   0.871   8.623  11.239 -0.0681  0.1699  0.0861
  519MOL0     C69944   0.747   8.669  11.315 -0.4935  0.0087 -0.3650
  519MOL0     C69945   0.621   8.580  11.296  0.0593 -0.9854  0.7903
  519MOL0     C69946   0.552   8.606  11.165 -0.4521  0.4814  0.1824
  519MOL0     N69947   0.483   8.478  11.141 -0.7935  0.1349  0.0472
  519MOL0     C69948   0.544   8.354  11.127  0.0067 -0.5523 -0.5035
  519MOL0     C69949   0.443   8.270  11.083 -0.7930 -0.3127  0.4995
  519MOL0     C69950   0.470   8.127  11.035 -0.6761 -0.9159 -0.4197
  519MOL0     C69951   0.454   8.017  11.139  0.5191 -0.0851 -0.3733
  519MOL0     C69952   0.300   7.984  11.164  1.0432 -0.1725  0.2223
  519MOL0     C69953   0.290   7.904  11.297 -0.0354 -0.5081  0.6052
  519MOL0     O69954   0.163   7.848  11.302 -0.5357  0.5683 -0.4639
  519MOL0     C69955   0.103   7.818  11.418  0.5458 -0.0999 -0.4740
  519MOL0     C69956   0.141   7.858  11.548 -0.4759 -0.3769  0.0760
  519MOL0     C69957   0.075   7.819  11.663  0.4927 -0.1407 -0.6442
  519MOL0     C69958   0.156   7.853  11.787 -0.2603  0.1991 -0.1980
  519MOL0     C69959  -0.041   7.743  11.650  0.0101  0.0153 -0.7251
  519MOL0     C69960  -0.126   7.723  11.767  0.7726  0.5406  0.1745
  519MOL0     O69961  -0.217   7.626  11.741  0.4055  0.3664  0.0973
  519MOL0     C69962  -0.327   7.600  11.821 -0.8427 -0.5472 -0.3347
  519MOL0     C69963  -0.324   7.475  11.878  0.8514 -0.6097 -0.0095
  519MOL0     C69964  -0.440   7.424  11.957  0.3164 -0.2154  0.1830
  519MOL0     C69965  -0.536   7.517  11.989  0.6010  0.0351  0.3506
  519MOL0     O69966  -0.637   7.496  12.066 -0.2699 -0.1730 -0.0142
  519MOL0     C69967  -0.617   7.411  12.183 -0.2277 -1.1154  0.8785
  519MOL0     C69968  -0.535   7.480  12.291 -0.4572  0.3913  1.2901
  519MOL0     C69969  -0.489   7.384  12.398  0.1649  0.0201  0.9318
  519MOL0     C69970  -0.413   7.445  12.520 -0.1854 -0.0126  0.1651
  519MOL0     C69971  -0.405   7.332  12.627  0.3816  0.5555 -0.4359
  519MOL0     C69972  -0.333   7.385  12.760 -0.6957 -0.1164 -0.2150
  519MOL0     C69973  -0.304   7.272  12.856 -0.1126  0.1853  0.4333
  519MOL0     C69974  -0.211   7.306  12.979 -0.6199  0.1476 -0.3512
  519MOL0    Cl69975  -0.045   7.336  12.924  0.1173  0.5028  0.1518
  519MOL0     C69976  -0.532   7.648  11.944 -0.7198 -0.2297  0.1070
  519MOL0     C69977  -0.425   7.690  11.856  1.0740 -0.5692  0.1296
  519MOL0     O69978  -0.125   7.798  11.863 -0.0135 -0.6289 -0.3858
  519MOL0     C69979  -0.082   7.706  11.529 -0.0044  0.0851  0.4784
  519MOL0     C69980  -0.009   7.742  11.408 -0.4320 -0.0881 -0.7059
  519MOL0     N69981   0.330   8.347  11.064  1.1312 -0.1335 -0.0745
  519MOL0     N69982   0.353   8.462  11.101 -0.2989 -0.2576  1.0578
  519MOL0     C69983   1.490   8.922  11.046 -0.0516 -0.4958  0.0248
  519MOL0     C69984   1.617   8.936  10.986 -0.9083 -0.6182 -0.0398
  519MOL0     C69985   2.047   8.890  10.953  0.0348  0.8014 -0.3454
  519MOL0     C69986   2.101   8.762  10.920  0.0558  0.4839 -0.0324
  519MOL0     C69987   2.233   8.741  10.861  0.8082 -0.8344 -0.0125
  519MOL0     C69988   2.312   8.857  10.844  0.2242 -0.3554  0.2746
  519MOL0     O69989   2.442   8.868  10.800 -0.3103  0.2816  0.4010
  519MOL0     C69990   2.497   8.758  10.723  0.1571 -0.6810 -0.6130
  519MOL0     C69991   2.443   8.732  10.581  0.3191  0.5829  0.9558
  519MOL0     C69992   2.491   8.594  10.536 -0.5941 -0.0804 -0.5347
  519MOL0     C69993   2.639   8.596  10.505 -0.8972  0.1335  0.0403
  519MOL0     C69994   2.692   8.457  10.495  0.2576  1.1612  0.3253
  519MOL0     C69995   2.703   8.333  10.498 -0.5491  0.2541  0.0714
  519MOL0     C69996   2.258   8.986  10.871  0.3443 -1.3508  0.0908
  519MOL0     C69997   2.128   9.002  10.917 -0.1943 -0.5750 -0.4021
  519MOL0     H69998   1.751   9.167  11.192  0.4054 -0.8000  2.4920
  519MOL0     H69999   1.527   9.153  11.297 -0.5824 -0.0148  0.0668
  519MOL0     H70000   1.216   8.974  11.060 -3.8036  2.7192  2.1611
  519MOL0     H70001   1.263   8.812  11.138  0.3695  0.7931  1.4939
  519MOL0     H70002   1.154   8.901  11.335  0.0454 -0.2541  1.0603
  519MOL0     H70003   1.077   9.035  11.245 -3.6412 -1.1383 -0.3619
  519MOL0     H70004   0.899   8.903  11.254  0.6321 -0.5025  1.3123
  519MOL0     H70005   0.948   8.851  11.097  0.9534 -2.6477  0.1315
  519MOL0     H70006   1.085   8.672  11.213 -0.3881  0.9398 -0.5419
  519MOL0     H70007   1.014   8.728  11.367  2.6725  1.2365 -0.2444
  519MOL0     H70008   0.849   8.630  11.132  0.5593 -0.0016 -0.0617
  519MOL0     H70009   0.894   8.517  11.257 -1.8128 -0.2737 -0.0696
  519MOL0     H70010   0.772   8.665  11.422 -1.3229  1.8707 -0.0580
  519MOL0     H70011   0.735   8.778  11.306  0.7116  0.3957  1.8941
  519MOL0     H70012   0.646   8.475  11.312  0.2259 -0.8973  1.1202
  519MOL0     H70013   0.559   8.611  11.381  2.5115 -0.9775  2.7275
  519MOL0     H70014   0.629   8.635  11.092  0.0984 -1.2199  0.0351
  519MOL0     H70015   0.478   8.686  11.179 -1.7825 -0.9929  2.0301
  519MOL0     H70016   0.647   8.322  11.138 -0.4077 -1.6688  0.3383
  519MOL0     H70017   0.407   8.115  10.946 -0.5280 -2.2055 -0.3756
  519MOL0     H70018   0.570   8.120  10.990 -2.4166 -1.4193 -4.7314
  519MOL0     H70019   0.500   8.063  11.227 -1.2187  2.0140 -0.4811
  519MOL0     H70020   0.503   7.929  11.096 -0.1123 -1.0494  0.8154
  519MOL0     H70021   0.251   7.940  11.077 -1.6102  1.3206  0.8769
  519MOL0     H70022   0.240   8.074  11.172 -0.8869 -1.1057 -2.2998
  519MOL0     H70023   0.303   7.972  11.382 -1.9422  0.1366  0.4101
  519MOL0     H70024   0.371   7.831  11.307 -0.2797 -0.7927  0.5017
  519MOL0     H70025   0.228   7.922  11.550  0.0755 -1.1114 -0.0135
  519MOL0     H70026   0.121   7.789  11.868 -0.4506  1.4542  0.7425
  519MOL0     H70027   0.264   7.837  11.780 -0.4752 -1.6749  0.2311
  519MOL0     H70028   0.137   7.955  11.822 -0.4387 -0.9063  3.3322
  519MOL0     H70029  -0.243   7.412  11.843 -1.2826 -1.8944 -3.0563
  519MOL0     H70030  -0.453   7.320  11.987 -1.3479 -0.6887 -1.9804
  519MOL0     H70031  -0.719   7.389  12.217 -1.7067  0.4046 -2.1260
  519MOL0     H70032  -0.556   7.322  12.167  2.0053 -0.3388  4.0203
  519MOL0     H70033  -0.461   7.555  12.262 -2.5039  2.2080  0.5283
  519MOL0     H70034  -0.606   7.546  12.342 -0.9016  0.7914  0.1879
  519MOL0     H70035  -0.431   7.303  12.353  0.5457  0.6060  0.3502
  519MOL0     H70036  -0.587   7.352  12.434 -2.4482  3.7121 -2.1373
  519MOL0     H70037  -0.313   7.482  12.494 -0.2457  1.4113  1.7571
  519MOL0     H70038  -0.476   7.529  12.553  0.8978  0.1436  2.0225
  519MOL0     H70039  -0.358   7.239  12.594 -0.4019 -0.5716  1.4461
  519MOL0     H70040  -0.503   7.300  12.664  0.8622  0.4777  0.8371
  519MOL0     H70041  -0.237   7.429  12.734  1.0529 -3.2697  0.4503
  519MOL0     H70042  -0.398   7.458  12.809 -2.6478 -1.4220 -0.7162
  519MOL0     H70043  -0.263   7.193  12.793 -0.2499  1.1656 -0.9223
  519MOL0     H70044  -0.402   7.235  12.888 -0.3873 -2.9582 -3.2795
  519MOL0     H70045  -0.199   7.217  13.041  0.7929  1.8322  1.9783
  519MOL0     H70046  -0.253   7.378  13.049 -1.4754 -0.8476  0.1800
  519MOL0     H70047  -0.592   7.732  11.975  0.3782  0.6048  0.0367
  519MOL0     H70048  -0.425   7.796  11.836  1.0362 -0.4199  0.9064
  519MOL0     H70049  -0.164   7.636  11.513  0.5383 -0.3510 -0.4432
  519MOL0     H70050  -0.048   7.698  11.317  0.4594 -3.0579  0.2012
  519MOL0     H70051   1.420   8.853  11.002  0.3901 -0.9012 -0.0509
  519MOL0     H70052   1.638   8.884  10.893  0.9187  1.9567 -1.1967
  519MOL0     H70053   2.042   8.673  10.940 -1.1928  1.3888  0.4801
  519MOL0     H70054   2.265   8.644  10.826 -1.8861 -1.2552 -1.5604
  519MOL0     H70055   2.603   8.784  10.725 -0.1071  0.4244 -0.2294
  519MOL0     H70056   2.493   8.672  10.790  0.9661  1.6024  2.5984
  519MOL0     H70057   2.478   8.811  10.515  0.7359 -1.7813 -1.8876
  519MOL0     H70058   2.334   8.732  10.573  0.3791 -1.5585 -1.0968
  519MOL0     H70059   2.440   8.569  10.442  0.7159  0.4155 -1.4000
  519MOL0     H70060   2.467   8.520  10.612  2.2758  1.1126  1.7090
  519MOL0     H70061   2.686   8.655  10.585 -1.6384  1.0837 -0.1971
  519MOL0     H70062   2.640   8.635  10.403  1.3154 -3.7265 -1.6026
  519MOL0     H70063   2.715   8.226  10.492  0.3742  0.3378  0.2542
  519MOL0     H70064   2.326   9.070  10.863 -1.0292 -0.2384 -0.3707
  519MOL0     H70065   2.096   9.105  10.931  1.2968 -0.2098  0.4773
  520MOL0     O70066   7.312   0.679   4.078 -0.0531  0.4941 -0.4352
  520MOL0     C70067   7.342   0.699   4.199  0.0583  0.7350  0.7948
  520MOL0     O70068   7.327   0.807   4.276  0.2108 -0.2765  0.5207
  520MOL0     C70069   7.234   0.906   4.247  0.4329 -0.5493  0.3164
  520MOL0     C70070   7.242   1.027   4.324  0.0357  0.9176  0.1527
  520MOL0     C70071   7.138   1.124   4.305 -0.2783  0.7491 -0.3424
  520MOL0     C70072   7.037   1.105   4.212 -0.4118  0.2199  0.9219
  520MOL0     O70073   6.946   1.196   4.194  0.5653 -0.7138 -0.1605
  520MOL0     C70074   6.817   1.145   4.226  0.2240 -0.2483 -0.3790
  520MOL0     C70075   6.712   1.251   4.218  0.0589  0.2758 -0.7532
  520MOL0     C70076   6.726   1.369   4.319 -0.3335  0.9384  0.0763
  520MOL0     C70077   6.621   1.475   4.282  0.0273  0.0264 -0.3039
  520MOL0     C70078   6.667   1.626   4.299  0.3456  0.5167 -0.3209
  520MOL0     C70079   6.694   1.657   4.450  0.3121 -1.2036  0.1925
  520MOL0     C70080   6.558   1.679   4.520 -0.0883  0.1589  0.7547
  520MOL0     C70081   6.572   1.749   4.654  0.3804 -0.8834  0.7536
  520MOL0     N70082   6.479   1.704   4.759 -0.7301 -0.2855 -0.4374
  520MOL0     C70083   6.447   1.581   4.794  0.4519 -0.5277 -0.6961
  520MOL0     C70084   6.330   1.590   4.862  1.1418 -0.1370  0.1072
  520MOL0     C70085   6.274   1.458   4.914  0.0582 -0.1395  0.3100
  520MOL0     C70086   6.140   1.474   4.997  0.4956  0.4950  0.7588
  520MOL0     C70087   6.093   1.335   5.054 -0.1445  0.5077 -0.1352
  520MOL0     C70088   5.959   1.360   5.120  0.8582  0.2197  1.3039
  520MOL0     O70089   5.974   1.423   5.250  0.4977  0.2087  0.5154
  520MOL0     C70090   5.863   1.463   5.315  1.1467  1.1230  0.6291
  520MOL0     C70091   5.732   1.426   5.269 -0.7798 -0.3425 -0.0546
  520MOL0     C70092   5.620   1.441   5.351  0.5460  0.2009 -0.6194
  520MOL0     C70093   5.498   1.363   5.301  0.0013 -0.6494  0.0405
  520MOL0     C70094   5.625   1.515   5.472 -1.6972 -0.1855 -0.0562
  520MOL0     C70095   5.512   1.567   5.545 -0.2095  0.0149  0.1569
  520MOL0     O70096   5.526   1.691   5.614  0.0539  0.2964 -0.6734
  520MOL0     C70097   5.413   1.749   5.665  0.3977 -0.2499  0.8630
  520MOL0     C70098   5.404   1.789   5.794 -0.5732 -0.3316  0.3223
  520MOL0     C70099   5.279   1.855   5.841 -0.2444  0.5334 -0.0582
  520MOL0     C70100   5.179   1.899   5.752  0.0054  0.2263  0.0632
  520MOL0     O70101   5.071   1.982   5.786 -0.1970  1.5521 -0.4584
  520MOL0     C70102   5.029   1.967   5.927  0.9360 -0.5746  0.4457
  520MOL0     C70103   4.908   2.062   5.969  0.2455  0.6143  0.5583
  520MOL0     C70104   4.949   2.210   5.987 -0.1655 -0.0932  0.1263
  520MOL0     C70105   5.037   2.265   5.872 -0.7368  0.0851  0.9105
  520MOL0     C70106   5.066   2.413   5.921  0.0611 -0.3298 -0.2301
  520MOL0     C70107   5.164   2.476   5.826 -0.2042 -0.7596  1.2818
  520MOL0     C70108   5.162   2.623   5.862 -0.9988 -0.0631  0.3997
  520MOL0     C70109   5.294   2.693   5.797  0.7043 -0.1927 -1.5547
  520MOL0    Cl70110   5.286   2.873   5.843 -0.2350  0.2531 -0.1633
  520MOL0     C70111   5.191   1.849   5.624  0.1091 -0.5331 -0.2010
  520MOL0     C70112   5.299   1.776   5.583 -0.5942  0.4272  0.5068
  520MOL0     O70113   5.406   1.513   5.531  0.4263  0.3502  0.6781
  520MOL0     C70114   5.751   1.560   5.512 -0.2557  0.4800 -0.6151
  520MOL0     C70115   5.867   1.530   5.434 -0.1307  0.1361  0.0102
  520MOL0     N70116   6.296   1.720   4.881 -0.4801  0.5612  0.2953
  520MOL0     N70117   6.385   1.789   4.819  0.0306  0.2735 -0.5840
  520MOL0     C70118   7.040   0.999   4.126 -0.6309 -0.1225  1.0892
  520MOL0     C70119   7.130   0.897   4.149 -0.4210 -0.6271 -0.1152
  520MOL0     C70120   7.400   0.577   4.273  0.1230  0.0778  0.9092
  520MOL0     C70121   7.424   0.454   4.212  1.1897 -0.5716  0.0671
  520MOL0     C70122   7.486   0.357   4.276 -0.2699  0.7087  0.0028
  520MOL0     C70123   7.549   0.379   4.399 -0.2577  0.6129  1.1282
  520MOL0     O70124   7.623   0.286   4.455 -0.3919 -0.0663  0.5004
  520MOL0     C70125   7.650   0.156   4.404 -0.3274 -0.5466  0.1768
  520MOL0     C70126   7.712   0.060   4.497  0.1962  0.4827 -0.0952
  520MOL0     C70127   7.837   0.114   4.571 -0.7634 -0.0947 -0.1141
  520MOL0     C70128   7.919   0.006   4.641  0.2300 -0.0907  0.5783
  520MOL0     C70129   8.036   0.082   4.690  0.0516  0.5369  0.6798
  520MOL0     C70130   8.137   0.134   4.728  1.0448 -0.2976 -1.6189
  520MOL0     C70131   7.544   0.511   4.451 -0.7318 -1.0905 -0.5749
  520MOL0     C70132   7.467   0.605   4.395  0.7400  0.3184 -0.4781
  520MOL0     H70133   7.321   1.039   4.397  3.9489  0.5665 -3.6558
  520MOL0     H70134   7.139   1.213   4.367 -2.5288  0.0008  0.8696
  520MOL0     H70135   6.779   1.052   4.182  0.4142 -1.2295  1.4231
  520MOL0     H70136   6.824   1.127   4.334  0.1881 -1.1763 -0.5211
  520MOL0     H70137   6.704   1.278   4.112  2.0841 -3.6846 -2.1329
  520MOL0     H70138   6.614   1.212   4.247 -0.5080  0.4869 -2.2992
  520MOL0     H70139   6.715   1.330   4.420  4.7300 -2.3869 -0.2978
  520MOL0     H70140   6.827   1.412   4.311  0.4798 -0.9819 -0.5727
  520MOL0     H70141   6.588   1.466   4.178  0.8082  1.5393 -0.7133
  520MOL0     H70142   6.525   1.451   4.329 -1.5093  1.5518 -2.4470
  520MOL0     H70143   6.751   1.640   4.230 -0.0209  0.2150 -0.8307
  520MOL0     H70144   6.587   1.693   4.266 -0.1441  0.2402  0.2773
  520MOL0     H70145   6.750   1.590   4.517  1.6235  2.1746  2.7735
  520MOL0     H70146   6.766   1.739   4.448  2.2322 -2.8104  0.2033
  520MOL0     H70147   6.487   1.739   4.462 -1.1666 -1.0197  0.7931
  520MOL0     H70148   6.519   1.577   4.533 -1.2550  0.3388 -0.9887
  520MOL0     H70149   6.557   1.856   4.642  1.0302 -0.8038  0.6038
  520MOL0     H70150   6.674   1.724   4.684  0.4072 -1.4367  0.2370
  520MOL0     H70151   6.497   1.488   4.768 -0.1793 -1.5004  1.3434
  520MOL0     H70152   6.271   1.382   4.835  0.6193 -2.7909  2.6777
  520MOL0     H70153   6.349   1.425   4.986  2.9020  3.8691 -0.4264
  520MOL0     H70154   6.061   1.523   4.939 -1.0646 -4.0243 -1.4004
  520MOL0     H70155   6.166   1.539   5.082  3.1298  1.8036 -0.9363
  520MOL0     H70156   6.166   1.289   5.121  0.0540  1.7045  0.5116
  520MOL0     H70157   6.069   1.263   4.976  0.9882  0.8549 -0.8216
  520MOL0     H70158   5.920   1.259   5.135  0.7774 -0.6126 -3.1278
  520MOL0     H70159   5.899   1.424   5.053  0.9051 -1.6722 -0.6620
  520MOL0     H70160   5.717   1.385   5.170  0.6791  2.8509 -1.7246
  520MOL0     H70161   5.459   1.297   5.378 -2.9462  0.8670 -0.0057
  520MOL0     H70162   5.415   1.421   5.258  3.1707  0.1125 -6.2560
  520MOL0     H70163   5.513   1.298   5.214 -1.8882  0.1222 -0.9266
  520MOL0     H70164   5.491   1.780   5.858 -0.2527  1.6462  0.2182
  520MOL0     H70165   5.276   1.890   5.943 -1.7143 -0.7319  0.3667
  520MOL0     H70166   4.989   1.870   5.954 -2.1970  0.2569 -0.7406
  520MOL0     H70167   5.110   1.996   5.994  0.8041  0.5981  0.1262
  520MOL0     H70168   4.821   2.050   5.905  1.1785 -0.0810 -0.6248
  520MOL0     H70169   4.881   2.030   6.070  0.8542  0.3216  0.6370
  520MOL0     H70170   5.000   2.231   6.082  4.1316  1.2526 -2.2181
  520MOL0     H70171   4.858   2.271   5.982  0.8840  1.4463 -3.0285
  520MOL0     H70172   5.135   2.218   5.859  0.3117  2.6234 -1.0606
  520MOL0     H70173   4.996   2.249   5.771  3.7702  0.0604 -1.1293
  520MOL0     H70174   5.105   2.422   6.023 -1.8899  3.4295  0.3611
  520MOL0     H70175   4.976   2.476   5.921  0.0315 -0.3556  0.6965
  520MOL0     H70176   5.265   2.436   5.838  1.4332  1.6011 -2.5411
  520MOL0     H70177   5.134   2.463   5.722  0.0723 -0.4899  1.1676
  520MOL0     H70178   5.150   2.643   5.969 -3.4518 -1.2735  0.4182
  520MOL0     H70179   5.068   2.662   5.823 -2.0243 -1.1058  1.7097
  520MOL0     H70180   5.303   2.684   5.688  1.4208 -0.6587 -1.4619
  520MOL0     H70181   5.388   2.658   5.840  0.5702 -0.9423 -1.8379
  520MOL0     H70182   5.110   1.882   5.560 -2.1315  1.3164  3.2331
  520MOL0     H70183   5.294   1.754   5.477 -0.9093  5.1057 -0.6679
  520MOL0     H70184   5.775   1.609   5.606  1.4299  0.8565 -1.2061
  520MOL0     H70185   5.967   1.552   5.470  0.0640  0.3855 -0.6775
  520MOL0     H70186   6.969   0.996   4.044 -0.8780  1.5716  1.2098
  520MOL0     H70187   7.126   0.815   4.079  1.3649 -0.7704 -0.0965
  520MOL0     H70188   7.374   0.432   4.119  2.1810 -2.1806 -0.1214
  520MOL0     H70189   7.490   0.261   4.224  0.4090 -0.6121  2.3322
  520MOL0     H70190   7.565   0.108   4.355 -1.8465  1.2947  0.9055
  520MOL0     H70191   7.720   0.171   4.322  0.6419  0.1237  1.1081
  520MOL0     H70192   7.732  -0.032   4.441  0.4410 -1.8494  3.4863
  520MOL0     H70193   7.644   0.035   4.579  0.2163  3.7989  1.0564
  520MOL0     H70194   7.791   0.173   4.651 -1.3613 -1.9479  0.9704
  520MOL0     H70195   7.893   0.175   4.499 -0.8821  0.5990  0.3721
  520MOL0     H70196   7.947  -0.079   4.579 -3.4438 -1.5234  0.6298
  520MOL0     H70197   7.860  -0.033   4.725 -1.0682 -0.9797 -0.6965
  520MOL0     H70198   8.232   0.165   4.769 -0.9405  3.4055  0.6820
  520MOL0     H70199   7.611   0.539   4.532 -1.8994 -1.3733  0.5072
  520MOL0     H70200   7.461   0.703   4.441  0.8260 -1.3168  3.3802
  521MOL0     O70201   7.028   9.859   1.295 -0.8216 -0.5931  0.0567
  521MOL0     C70202   6.972   9.763   1.344 -0.3849 -0.1010 -0.4988
  521MOL0     O70203   7.029   9.682   1.447  0.4353  0.1271  0.1572
  521MOL0     C70204   7.161   9.695   1.482  0.5744  0.1081 -0.0249
  521MOL0     C70205   7.191   9.687   1.613  0.1078  1.0607  0.3504
  521MOL0     C70206   7.319   9.700   1.670  0.9878  0.0283 -0.0047
  521MOL0     C70207   7.429   9.697   1.584 -0.4243  0.4334  0.9391
  521MOL0     O70208   7.558   9.697   1.630 -0.6476 -0.0415 -0.7663
  521MOL0     C70209   7.591   9.695   1.768 -0.1706  0.8423  0.5508
  521MOL0     C70210   7.743   9.698   1.795  0.2639  0.1255  0.3298
  521MOL0     C70211   7.777   9.696   1.946  0.6424 -0.3418 -0.0246
  521MOL0     C70212   7.767   9.557   2.008 -0.4062 -0.3677 -0.0775
  521MOL0     C70213   7.805   9.562   2.155  0.3759 -0.1617  0.0072
  521MOL0     C70214   7.902   9.672   2.198 -0.9214  0.1886  0.2176
  521MOL0     C70215   7.943   9.639   2.339 -0.0519  0.0013  0.2813
  521MOL0     C70216   7.962   9.773   2.417 -0.3183  0.1356 -0.2589
  521MOL0     N70217   7.985   9.749   2.559  0.6762  0.1653  0.0885
  521MOL0     C70218   7.921   9.653   2.631  0.8612  0.2843  0.3624
  521MOL0     C70219   7.964   9.671   2.762 -1.6174 -0.0903 -0.0708
  521MOL0     C70220   7.918   9.612   2.889  0.3617  0.4051 -0.5000
  521MOL0     C70221   7.942   9.462   2.917 -1.2828 -0.4720 -0.2467
  521MOL0     C70222   7.877   9.416   3.047  0.4434  0.6373 -1.2939
  521MOL0     C70223   7.954   9.459   3.171 -0.4424 -0.0820 -0.7476
  521MOL0     O70224   7.917   9.585   3.222 -0.5749 -0.3768  0.0939
  521MOL0     C70225   7.793   9.591   3.277  0.3264  0.3339 -0.5891
  521MOL0     C70226   7.762   9.537   3.408 -0.5028 -0.4557 -0.8345
  521MOL0     C70227   7.627   9.558   3.464 -0.8470  0.0509 -0.0740
  521MOL0     C70228   7.605   9.510   3.613  0.3709  0.4017 -1.0894
  521MOL0     C70229   7.527   9.629   3.389  0.0938  0.2903  0.2532
  521MOL0     C70230   7.388   9.655   3.441  0.1664 -0.8793 -0.5610
  521MOL0     O70231   7.299   9.707   3.349 -1.4400  0.2220  0.0278
  521MOL0     C70232   7.170   9.713   3.378 -0.2543  0.3318 -0.6720
  521MOL0     C70233   7.114   9.838   3.403 -0.4744 -0.2998 -0.9329
  521MOL0     C70234   6.977   9.854   3.404  0.4467  0.6295 -0.3512
  521MOL0     C70235   6.899   9.739   3.407  0.1359  1.0267  0.1464
  521MOL0     O70236   6.762   9.763   3.420 -0.2725 -0.1281  0.7226
  521MOL0     C70237   6.689   9.667   3.505 -0.2328  0.6342  0.5797
  521MOL0     C70238   6.551   9.732   3.550 -0.3289 -0.8389  0.9378
  521MOL0     C70239   6.484   9.657   3.666  0.3974 -0.1012  0.1623
  521MOL0     C70240   6.335   9.692   3.694 -0.1914  0.7956 -0.0640
  521MOL0     C70241   6.318   9.833   3.759  0.5461 -0.5883 -0.0207
  521MOL0     C70242   6.195   9.843   3.842  0.0194 -0.3686  0.0403
  521MOL0     C70243   6.169   9.976   3.915 -0.3430 -0.0241 -0.3185
  521MOL0     C70244   6.044   9.977   4.006  0.4270 -0.1356  0.4490
  521MOL0    Cl70245   5.902   9.905   3.930 -0.1830 -0.2240  0.1190
  521MOL0     C70246   6.954   9.612   3.393 -0.0734  0.0913  0.2245
  521MOL0     C70247   7.087   9.605   3.370 -0.5471 -0.2918  0.7472
  521MOL0     O70248   7.364   9.641   3.562  0.6072  0.1457  0.0995
  521MOL0     C70249   7.563   9.674   3.253 -0.1165  0.4291  0.1245
  521MOL0     C70250   7.695   9.667   3.209 -0.7012  0.6951  0.7747
  521MOL0     N70251   8.057   9.774   2.765  0.8723  0.5125  0.3387
  521MOL0     N70252   8.077   9.813   2.641  0.1180 -0.0078  0.2467
  521MOL0     C70253   7.405   9.694   1.444  0.1376 -0.6377  0.5265
  521MOL0     C70254   7.271   9.696   1.397  0.3117  0.3449 -0.5511
  521MOL0     C70255   6.822   9.740   1.300 -0.3402  0.4990 -0.2065
  521MOL0     C70256   6.754   9.627   1.346 -0.4724  0.5169  0.1170
  521MOL0     C70257   6.633   9.588   1.297  0.7941  0.6267 -0.4444
  521MOL0     C70258   6.558   9.671   1.215 -0.5836 -0.6480  0.9631
  521MOL0     O70259   6.433   9.637   1.163 -0.5192 -0.5430 -0.2072
  521MOL0     C70260   6.374   9.516   1.216 -0.0887  0.7727 -0.2005
  521MOL0     C70261   6.226   9.511   1.178  0.8586  1.0559 -0.4751
  521MOL0     C70262   6.149   9.390   1.244  0.2274  0.1950  0.7547
  521MOL0     C70263   6.215   9.251   1.228 -0.3833  0.4971 -0.2644
  521MOL0     C70264   6.232   9.217   1.089 -0.0248 -0.1518 -0.3123
  521MOL0     C70265   6.226   9.190   0.970  1.0870  1.2375  0.6388
  521MOL0     C70266   6.622   9.785   1.169  0.4674  0.6765  0.0440
  521MOL0     C70267   6.750   9.825   1.217  0.1152 -0.3623  0.3269
  521MOL0     H70268   7.108   9.678   1.683 -0.3283  1.1415 -0.1512
  521MOL0     H70269   7.333   9.711   1.777 -0.7932  1.4886  0.1160
  521MOL0     H70270   7.551   9.784   1.816 -0.8388 -0.2011  2.0080
  521MOL0     H70271   7.549   9.605   1.813 -0.3469  0.3224 -0.5991
  521MOL0     H70272   7.792   9.616   1.742  0.5416 -1.4301  2.8232
  521MOL0     H70273   7.782   9.792   1.754  2.7569 -1.5846 -1.4883
  521MOL0     H70274   7.870   9.752   1.962 -0.1626  1.2232 -0.6249
  521MOL0     H70275   7.703   9.758   1.999 -0.3484 -0.5030 -1.1948
  521MOL0     H70276   7.663   9.523   2.003 -0.9347  1.2242 -0.3912
  521MOL0     H70277   7.833   9.499   1.943  0.5613  1.0438 -0.3763
  521MOL0     H70278   7.717   9.578   2.219  1.4900 -0.7459  1.7748
  521MOL0     H70279   7.843   9.461   2.177 -4.6754 -2.3795  0.1063
  521MOL0     H70280   7.992   9.678   2.135 -1.6199 -1.0364 -0.9434
  521MOL0     H70281   7.846   9.765   2.183 -1.0127 -0.1322 -1.7311
  521MOL0     H70282   7.862   9.580   2.383  0.0665 -0.9471 -0.7246
  521MOL0     H70283   8.030   9.575   2.349 -1.0895 -1.5228 -0.0546
  521MOL0     H70284   7.881   9.845   2.406  2.6642  3.7022 -0.9306
  521MOL0     H70285   8.048   9.827   2.375  0.3513  0.3923  1.3905
  521MOL0     H70286   7.860   9.568   2.603 -0.0281  0.9994  0.0737
  521MOL0     H70287   7.959   9.672   2.971 -0.2495 -0.6674  0.6221
  521MOL0     H70288   7.809   9.616   2.900  0.5493  1.6175  1.3906
  521MOL0     H70289   8.050   9.446   2.922 -0.9955  1.4781  1.0171
  521MOL0     H70290   7.900   9.401   2.837 -0.2836  0.9632 -1.9363
  521MOL0     H70291   7.877   9.307   3.038 -0.2229  0.8040 -4.0276
  521MOL0     H70292   7.775   9.453   3.055  1.0130  2.2773 -1.2207
  521MOL0     H70293   8.062   9.458   3.154 -0.8988  0.6854 -4.2379
  521MOL0     H70294   7.938   9.393   3.257  1.0039  1.0452  0.4563
  521MOL0     H70295   7.833   9.473   3.459 -0.7308  1.0514  1.5493
  521MOL0     H70296   7.508   9.460   3.612  0.5933 -0.1033  0.5801
  521MOL0     H70297   7.666   9.424   3.639 -4.5817 -2.7624  1.7592
  521MOL0     H70298   7.611   9.594   3.683  1.0301  0.7078 -1.5063
  521MOL0     H70299   7.171   9.928   3.423 -0.2515 -1.0245  2.1762
  521MOL0     H70300   6.929   9.951   3.416 -1.6710 -0.2176 -1.4841
  521MOL0     H70301   6.675   9.580   3.440  0.9626  2.1168 -1.7781
  521MOL0     H70302   6.750   9.633   3.589  1.1378  1.1371 -0.1773
  521MOL0     H70303   6.552   9.836   3.583 -0.9229 -1.3302  2.5676
  521MOL0     H70304   6.492   9.717   3.458  3.9570 -2.3560 -1.8983
  521MOL0     H70305   6.540   9.657   3.760 -0.1596 -2.2992  0.5442
  521MOL0     H70306   6.480   9.552   3.634 -1.0606  0.0744 -0.3003
  521MOL0     H70307   6.279   9.682   3.601  2.3590 -1.0381 -1.5188
  521MOL0     H70308   6.306   9.611   3.761  0.7670 -0.6071 -1.2927
  521MOL0     H70309   6.317   9.917   3.689  1.1311  1.6779  2.5434
  521MOL0     H70310   6.400   9.851   3.829 -0.2079  0.3633  0.6462
  521MOL0     H70311   6.115   9.831   3.769  0.5505  1.7259 -0.9755
  521MOL0     H70312   6.190   9.759   3.912  1.4606 -2.7899 -2.5526
  521MOL0     H70313   6.161  10.058   3.843 -0.0795  1.1872  0.9920
  521MOL0     H70314   6.257  10.005   3.973 -1.4776  1.6971  0.6262
  521MOL0     H70315   6.023  10.082   4.030 -0.0471 -0.2194  0.4153
  521MOL0     H70316   6.067   9.922   4.097  0.8734  1.8635  1.6090
  521MOL0     H70317   6.881   9.532   3.395  1.2065 -1.1394 -0.6098
  521MOL0     H70318   7.126   9.518   3.319 -0.5044  2.0594 -3.8027
  521MOL0     H70319   7.493   9.733   3.195 -1.1628  1.5725  2.4301
  521MOL0     H70320   7.710   9.717   3.114 -1.6565  2.2455  1.4003
  521MOL0     H70321   7.496   9.700   1.386  0.4270  0.6133  1.0803
  521MOL0     H70322   7.259   9.691   1.289 -0.1982 -0.5046 -0.4600
  521MOL0     H70323   6.810   9.556   1.408 -1.9042 -1.6576 -0.9454
  521MOL0     H70324   6.598   9.491   1.330 -0.2931  1.8173  2.1539
  521MOL0     H70325   6.428   9.433   1.170 -1.4640 -2.0194  2.8370
  521MOL0     H70326   6.391   9.524   1.324  1.5061 -1.5667 -0.1971
  521MOL0     H70327   6.214   9.513   1.069  0.0247 -1.3053 -0.5036
  521MOL0     H70328   6.179   9.597   1.225 -1.7164 -1.2795  1.6187
  521MOL0     H70329   6.050   9.376   1.201  0.9700 -0.4523 -0.8369
  521MOL0     H70330   6.145   9.397   1.353  0.5873 -2.9492  1.0775
  521MOL0     H70331   6.153   9.176   1.279  1.3137 -0.0685  1.0718
  521MOL0     H70332   6.317   9.247   1.267 -0.3651 -2.5658 -0.3602
  521MOL0     H70333   6.224   9.166   0.865  2.7884  4.3493 -0.2277
  521MOL0     H70334   6.572   9.847   1.096  4.1058  1.3703 -2.1375
  521MOL0     H70335   6.804   9.916   1.191  2.5885 -2.1258 -1.1559
  522MOL0     O70336   5.480   4.366   9.071  0.2014 -0.0395 -0.3193
  522MOL0     C70337   5.467   4.445   8.975  0.6314  0.0036  0.3527
  522MOL0     O70338   5.353   4.450   8.901 -0.1045 -0.0788 -0.3786
  522MOL0     C70339   5.243   4.388   8.968  0.9015 -0.5565  0.4894
  522MOL0     C70340   5.228   4.251   8.989 -0.7737  0.6595 -0.8512
  522MOL0     C70341   5.118   4.196   9.050  0.4673 -0.0213 -0.3243
  522MOL0     C70342   5.014   4.277   9.098 -0.5204 -0.1601  0.0937
  522MOL0     O70343   4.914   4.212   9.152 -0.4405  0.3367  0.0876
  522MOL0     C70344   4.870   4.248   9.281 -0.5412  0.6640 -0.3766
  522MOL0     C70345   4.734   4.307   9.272  0.8487 -0.7236 -0.0911
  522MOL0     C70346   4.671   4.355   9.406  0.3944  0.2513  0.1244
  522MOL0     C70347   4.761   4.460   9.483 -0.7407  0.6346 -0.9347
  522MOL0     C70348   4.709   4.493   9.619  1.1940  0.3098  0.8183
  522MOL0     C70349   4.809   4.575   9.704 -0.2479 -0.4810  0.2083
  522MOL0     C70350   4.737   4.613   9.833  0.0961 -0.2069 -1.0291
  522MOL0     C70351   4.719   4.491   9.932  0.0689 -0.4466 -0.1524
  522MOL0     N70352   4.837   4.473  10.007 -0.3975 -0.9907  0.4581
  522MOL0     C70353   4.881   4.560  10.102  0.0207 -0.1257 -1.6924
  522MOL0     C70354   5.005   4.517  10.142 -1.4100  0.3288  0.0222
  522MOL0     C70355   5.086   4.563  10.258 -0.8593 -0.2064  0.3098
  522MOL0     C70356   5.122   4.708  10.255 -1.0938 -0.2840 -0.0008
  522MOL0     C70357   5.257   4.745  10.196  0.0850 -0.8529  0.3708
  522MOL0     C70358   5.270   4.896  10.189 -0.5897 -0.3444 -0.0075
  522MOL0     O70359   5.308   4.963  10.310  0.0966  0.3494  0.9680
  522MOL0     C70360   5.334   5.097  10.291 -0.2405 -0.0121 -0.4626
  522MOL0     C70361   5.305   5.183  10.185 -0.4370 -0.2572 -0.0689
  522MOL0     C70362   5.350   5.318  10.186 -1.0693  0.3061 -0.7748
  522MOL0     C70363   5.352   5.386  10.048 -0.0259  0.1352 -0.9065
  522MOL0     C70364   5.401   5.378  10.305  0.1950  0.3711 -0.0818
  522MOL0     C70365   5.444   5.521  10.311  0.5793 -0.9476 -0.0008
  522MOL0     O70366   5.387   5.619  10.227  0.3314 -0.4639  0.2890
  522MOL0     C70367   5.415   5.752  10.253 -1.0542  0.9291  0.2267
  522MOL0     C70368   5.433   5.816  10.378 -0.0782  0.1339  0.2725
  522MOL0     C70369   5.452   5.956  10.379 -0.7933 -0.6600  0.1945
  522MOL0     C70370   5.459   6.038  10.264  0.4522 -0.3009  0.1584
  522MOL0     O70371   5.466   6.175  10.272 -0.0808  0.8687 -0.9500
  522MOL0     C70372   5.474   6.225  10.408  0.7911  0.5406 -0.2158
  522MOL0     C70373   5.469   6.373  10.387 -0.1039  0.2474  0.3686
  522MOL0     C70374   5.333   6.434  10.375 -0.1491 -0.6398 -0.7277
  522MOL0     C70375   5.328   6.588  10.390  0.0574  0.3261 -0.7091
  522MOL0     C70376   5.181   6.634  10.386 -0.5731  0.0147 -0.2629
  522MOL0     C70377   5.133   6.639  10.536  0.0707  0.2707 -0.5214
  522MOL0     C70378   4.993   6.697  10.542 -1.0684 -0.7177 -0.6482
  522MOL0     C70379   4.896   6.625  10.639 -0.1909 -0.4112  0.1326
  522MOL0    Cl70380   4.746   6.713  10.662  0.2873 -0.0635 -0.3462
  522MOL0     C70381   5.460   5.977  10.139  0.5404  0.2652 -0.2637
  522MOL0     C70382   5.445   5.832  10.133  1.2919  0.3994  0.7801
  522MOL0     O70383   5.530   5.546  10.391 -0.2873  0.4926  0.2261
  522MOL0     C70384   5.423   5.288  10.411  0.0932 -0.1825  0.2346
  522MOL0     C70385   5.394   5.153  10.404 -0.0735 -0.4204  0.1166
  522MOL0     N70386   5.038   4.403  10.062  0.0647 -0.3006 -0.0876
  522MOL0     N70387   4.940   4.386   9.978  0.1971  0.4602  0.2076
  522MOL0     C70388   5.018   4.417   9.078  0.2590 -0.7385  1.4324
  522MOL0     C70389   5.139   4.470   9.012  0.4011 -0.3015 -0.3489
  522MOL0     C70390   5.577   4.540   8.950  0.4673 -0.5569  0.1085
  522MOL0     C70391   5.564   4.637   8.847 -0.5401 -0.6180 -0.0506
  522MOL0     C70392   5.675   4.718   8.799  0.5974  0.2678 -0.5778
  522MOL0     C70393   5.795   4.717   8.867 -0.8095  0.3973 -0.7121
  522MOL0     O70394   5.897   4.813   8.854  0.6475  0.5268 -0.2574
  522MOL0     C70395   5.950   4.825   8.718 -0.7776  1.0106 -0.0333
  522MOL0     C70396   6.067   4.722   8.691 -0.5117  0.2529 -0.1606
  522MOL0     C70397   6.021   4.576   8.674  0.6936  0.4797  0.3406
  522MOL0     C70398   6.138   4.484   8.678 -0.1072 -0.2404  0.7527
  522MOL0     C70399   6.208   4.497   8.549 -0.4192 -0.1618  0.6085
  522MOL0     C70400   6.276   4.507   8.455 -1.5144  0.5182  0.3743
  522MOL0     C70401   5.798   4.623   8.976  0.2378 -0.6707 -0.2334
  522MOL0     C70402   5.690   4.532   9.007  0.4456 -0.2772 -0.6825
  522MOL0     H70403   5.306   4.190   8.944 -0.5152 -0.7738  1.3821
  522MOL0     H70404   5.101   4.089   9.045 -0.2008  0.1315 -2.0469
  522MOL0     H70405   4.849   4.156   9.336  0.4791 -1.4467 -3.2688
  522MOL0     H70406   4.942   4.314   9.330  0.6470 -1.2176  0.5272
  522MOL0     H70407   4.729   4.388   9.199  0.7547 -2.1886 -1.7668
  522MOL0     H70408   4.662   4.235   9.233 -2.4686  1.7703  1.0150
  522MOL0     H70409   4.576   4.402   9.379 -0.2066 -0.1231  1.5283
  522MOL0     H70410   4.638   4.265   9.458 -0.0024 -1.0333 -2.1859
  522MOL0     H70411   4.865   4.425   9.496 -1.2882 -0.1388  2.1904
  522MOL0     H70412   4.768   4.558   9.436  1.6821  1.4515  0.9295
  522MOL0     H70413   4.617   4.550   9.606  1.2058 -0.1530 -2.2007
  522MOL0     H70414   4.686   4.406   9.681  1.3852  0.0428  0.5185
  522MOL0     H70415   4.908   4.533   9.721 -0.7658 -0.5903  3.7615
  522MOL0     H70416   4.851   4.659   9.648  5.4826 -3.2055 -0.2704
  522MOL0     H70417   4.799   4.691   9.876  0.9232 -0.9302 -0.8968
  522MOL0     H70418   4.638   4.655   9.810 -0.3650 -0.9017 -0.3686
  522MOL0     H70419   4.691   4.395   9.888  0.5569 -1.2585  1.2226
  522MOL0     H70420   4.639   4.522  10.000  0.7577 -2.9887  2.0068
  522MOL0     H70421   4.837   4.637  10.165  1.8071 -0.5374  0.1946
  522MOL0     H70422   5.030   4.532  10.347 -1.1541 -0.2753  0.0991
  522MOL0     H70423   5.180   4.506  10.255  0.5775  2.0564 -1.5843
  522MOL0     H70424   5.119   4.753  10.354 -1.5018  3.0611 -1.3953
  522MOL0     H70425   5.046   4.761  10.197 -0.2692  2.0676  0.9636
  522MOL0     H70426   5.261   4.710  10.093  1.6433 -0.6263  0.3321
  522MOL0     H70427   5.337   4.696  10.254  1.6627  1.7558  0.5373
  522MOL0     H70428   5.172   4.930  10.153 -2.4571 -2.9775  2.1667
  522MOL0     H70429   5.339   4.919  10.108 -3.8739 -1.6265 -3.4708
  522MOL0     H70430   5.265   5.147  10.090 -1.1190 -0.6941  0.3727
  522MOL0     H70431   5.288   5.331   9.979 -1.9595  0.0957  0.8201
  522MOL0     H70432   5.310   5.485  10.065  0.3874  0.5075 -1.9746
  522MOL0     H70433   5.455   5.407  10.018  0.2674  1.8526  1.0495
  522MOL0     H70434   5.408   5.761  10.468  0.4187 -0.6467 -0.0600
  522MOL0     H70435   5.439   5.997  10.478 -1.0329  0.8380 -0.4262
  522MOL0     H70436   5.396   6.188  10.475  2.0927 -1.8934  0.0822
  522MOL0     H70437   5.566   6.191  10.456 -0.7632  1.1294  3.5258
  522MOL0     H70438   5.514   6.424  10.473 -0.4554 -0.0396  0.7296
  522MOL0     H70439   5.528   6.400  10.299 -3.0863  1.2742 -1.4644
  522MOL0     H70440   5.264   6.396  10.452 -0.9254  0.6706 -0.7550
  522MOL0     H70441   5.297   6.410  10.275  0.4834  0.5916 -1.2706
  522MOL0     H70442   5.374   6.623  10.482  1.6388  3.4662 -2.5232
  522MOL0     H70443   5.378   6.631  10.302 -0.7476  0.9882 -0.8492
  522MOL0     H70444   5.117   6.561  10.336  0.7425 -0.8414 -0.7641
  522MOL0     H70445   5.173   6.738  10.353 -1.0220  1.4692  3.8834
  522MOL0     H70446   5.110   6.535  10.563  0.3164  0.1972 -0.5943
  522MOL0     H70447   5.208   6.678  10.604 -0.4726 -1.4355  1.1446
  522MOL0     H70448   4.953   6.703  10.441 -3.7015 -0.9339  0.3033
  522MOL0     H70449   5.002   6.802  10.572 -0.7178 -0.7143 -0.7509
  522MOL0     H70450   4.948   6.616  10.735  0.2020  0.1763 -0.0199
  522MOL0     H70451   4.869   6.526  10.602 -0.0914 -1.1205  1.8440
  522MOL0     H70452   5.474   6.034  10.048 -0.4375  1.9455  0.6004
  522MOL0     H70453   5.441   5.785  10.036  1.1675  2.1271 -0.0916
  522MOL0     H70454   5.455   5.338  10.502  1.5112  0.4734 -0.5847
  522MOL0     H70455   5.416   5.078  10.479  1.2559  1.6163  1.8894
  522MOL0     H70456   4.940   4.486   9.107  0.8966  1.3821 -1.4451
  522MOL0     H70457   5.162   4.575   8.997  0.1032 -0.4080 -1.6556
  522MOL0     H70458   5.469   4.661   8.801  0.8031  2.0644 -1.6766
  522MOL0     H70459   5.648   4.785   8.717 -4.2605  1.2269  1.4744
  522MOL0     H70460   5.869   4.813   8.646 -0.4285  1.1471 -0.4568
  522MOL0     H70461   5.983   4.928   8.702 -0.6309  1.0789  0.6616
  522MOL0     H70462   6.130   4.735   8.779  0.0976 -2.8507 -0.0417
  522MOL0     H70463   6.117   4.760   8.601 -3.1341 -0.6888 -2.1679
  522MOL0     H70464   5.963   4.564   8.583 -0.8266  0.7842  1.2408
  522MOL0     H70465   5.951   4.554   8.755  1.3457  1.7447  1.2848
  522MOL0     H70466   6.096   4.383   8.683 -1.8205  0.4225  0.3972
  522MOL0     H70467   6.207   4.491   8.762  1.3977 -1.8134 -0.2920
  522MOL0     H70468   6.347   4.501   8.374  1.2907 -2.1454  2.7795
  522MOL0     H70469   5.886   4.619   9.039  0.7904 -0.0243 -0.9507
  522MOL0     H70470   5.717   4.453   9.075 -0.3568  0.0997  0.0926
  523MOL0     O70471   3.494  11.380   3.207 -0.3466  0.6749  0.0292
  523MOL0     C70472   3.546  11.409   3.096  0.2332 -0.1186 -0.2934
  523MOL0     O70473   3.635  11.506   3.076  0.1125  0.1188 -0.9811
  523MOL0     C70474   3.670  11.574   3.190 -0.0185 -0.3305  0.0252
  523MOL0     C70475   3.577  11.664   3.254 -0.4018 -0.3972  0.0359
  523MOL0     C70476   3.619  11.742   3.360  0.3928 -0.5774 -0.0058
  523MOL0     C70477   3.743  11.722   3.425  0.1914  0.4188  0.4839
  523MOL0     O70478   3.765  11.791   3.539 -0.4499 -0.8447  0.1705
  523MOL0     C70479   3.874  11.761   3.635  1.0814 -0.8848 -0.5250
  523MOL0     C70480   4.009  11.826   3.587  0.1524  0.3083  1.1410
  523MOL0     C70481   4.131  11.789   3.679 -1.0530  0.4310 -0.3963
  523MOL0     C70482   4.121  11.861   3.818 -0.2058  0.1159 -0.0349
  523MOL0     C70483   4.260  11.860   3.892  0.0315  0.0970 -0.3934
  523MOL0     C70484   4.305  11.714   3.920 -0.1419 -0.5208  0.2252
  523MOL0     C70485   4.434  11.705   4.000  0.1078  0.7197 -0.7608
  523MOL0     C70486   4.434  11.565   4.065 -0.0692 -1.1398 -0.3536
  523MOL0     N70487   4.420  11.459   3.966 -1.0519  0.5418 -0.9517
  523MOL0     C70488   4.492  11.447   3.850 -0.0624 -0.4410 -0.1886
  523MOL0     C70489   4.414  11.383   3.761 -0.3959 -0.1598 -0.0255
  523MOL0     C70490   4.453  11.365   3.624 -0.2761  0.3102  1.3931
  523MOL0     C70491   4.511  11.225   3.601 -0.0159  0.4999  0.4958
  523MOL0     C70492   4.556  11.204   3.457 -0.3790  0.2715 -0.9416
  523MOL0     C70493   4.423  11.200   3.366 -0.7635 -0.0967 -0.0536
  523MOL0     O70494   4.402  11.338   3.331 -0.0252  0.7068 -0.3593
  523MOL0     C70495   4.305  11.372   3.243 -1.3731 -1.2028 -0.2262
  523MOL0     C70496   4.189  11.295   3.206 -0.3704  0.1553  0.3199
  523MOL0     C70497   4.095  11.354   3.111  1.2004  1.2356 -0.1539
  523MOL0     C70498   3.978  11.264   3.070 -0.6541  0.1772  0.0827
  523MOL0     C70499   4.122  11.486   3.057  0.0419  0.2449 -0.2047
  523MOL0     C70500   4.036  11.567   2.961  0.6453  0.2399  0.1737
  523MOL0     O70501   4.055  11.699   2.964  0.5168  0.0963  0.3006
  523MOL0     C70502   3.974  11.783   2.894  0.2314 -0.7681  1.2345
  523MOL0     C70503   3.839  11.797   2.924  0.8082 -0.6601 -0.1567
  523MOL0     C70504   3.749  11.880   2.848  0.6224  0.3917 -0.0867
  523MOL0     C70505   3.799  11.947   2.737  0.5270  0.1634  0.3067
  523MOL0     O70506   3.718  12.032   2.667  0.1369 -0.3506 -0.4069
  523MOL0     C70507   3.581  12.049   2.691  0.3294 -0.4944  0.1980
  523MOL0     C70508   3.532  12.177   2.620 -0.7786 -0.6451 -0.0580
  523MOL0     C70509   3.386  12.174   2.600  0.3302 -0.8282 -0.0476
  523MOL0     C70510   3.335  12.303   2.534 -0.4349  0.0668 -0.4264
  523MOL0     C70511   3.199  12.272   2.457  0.3624  0.0875 -0.6124
  523MOL0     C70512   3.085  12.217   2.552  0.0113  0.2895 -0.0575
  523MOL0     C70513   3.049  12.320   2.657  0.2336 -0.7392  0.1183
  523MOL0     C70514   2.972  12.262   2.770 -0.5072 -0.9136 -0.7475
  523MOL0    Cl70515   2.957  12.368   2.913  0.3417  0.2983  0.5635
  523MOL0     C70516   3.928  11.940   2.708 -1.4698  0.2423 -0.0380
  523MOL0     C70517   4.018  11.859   2.778  0.2947  0.1908 -0.0447
  523MOL0     O70518   3.956  11.510   2.881 -0.3264  0.1680 -0.2171
  523MOL0     C70519   4.240  11.548   3.089  1.3786  0.0369 -0.5014
  523MOL0     C70520   4.328  11.500   3.181 -0.9954  0.5964 -0.6942
  523MOL0     N70521   4.297  11.342   3.830 -0.4765  0.2856 -0.1387
  523MOL0     N70522   4.307  11.383   3.947 -0.0449 -0.4769  0.3301
  523MOL0     C70523   3.825  11.624   3.376 -1.5201  0.3937  0.5639
  523MOL0     C70524   3.791  11.559   3.253  1.1757 -0.1884 -0.3327
  523MOL0     C70525   3.504  11.342   2.972 -0.5453  0.6243 -0.8573
  523MOL0     C70526   3.589  11.327   2.864  0.3416 -0.0298  0.2913
  523MOL0     C70527   3.542  11.262   2.744  0.0819  0.6803 -0.7325
  523MOL0     C70528   3.415  11.195   2.748  0.4350 -1.1623  1.1159
  523MOL0     O70529   3.355  11.149   2.627  0.0575  0.2138 -1.0221
  523MOL0     C70530   3.426  11.138   2.497  0.3910  0.3861  0.0848
  523MOL0     C70531   3.341  11.081   2.376  0.4927 -0.2606  0.2023
  523MOL0     C70532   3.208  11.155   2.348 -0.3754 -0.8838  0.5250
  523MOL0     C70533   3.094  11.134   2.442  0.3609  0.0010  0.1961
  523MOL0     C70534   3.040  10.997   2.431 -0.0613 -0.2674  0.3373
  523MOL0     C70535   3.008  10.876   2.439  0.3097 -1.2032 -0.0080
  523MOL0     C70536   3.341  11.204   2.859  0.2729  0.1715 -0.2436
  523MOL0     C70537   3.374  11.282   2.970  0.0245  0.9600  0.2815
  523MOL0     H70538   3.477  11.680   3.214 -1.3320 -1.1081  1.9198
  523MOL0     H70539   3.547  11.814   3.397  1.7018 -1.5363  5.2445
  523MOL0     H70540   3.858  11.801   3.735  2.7564 -0.4991 -0.3783
  523MOL0     H70541   3.885  11.652   3.642  0.2144 -0.9536 -0.1067
  523MOL0     H70542   4.018  11.795   3.483 -3.3132  1.9167  0.1932
  523MOL0     H70543   4.002  11.935   3.577 -1.1664  0.0740 -1.4012
  523MOL0     H70544   4.133  11.680   3.693 -3.8049  0.0298 -2.2760
  523MOL0     H70545   4.229  11.810   3.635 -1.4781 -0.2154 -1.7024
  523MOL0     H70546   4.111  11.967   3.791  1.2993  0.8370  2.0266
  523MOL0     H70547   4.030  11.836   3.873 -1.3653 -2.6087 -2.8615
  523MOL0     H70548   4.340  11.919   3.847  1.2563 -1.8252 -0.8597
  523MOL0     H70549   4.239  11.905   3.989  0.7855 -0.2698 -0.0486
  523MOL0     H70550   4.215  11.665   3.956  1.6178 -3.7853  0.5573
  523MOL0     H70551   4.321  11.661   3.826  3.0481  1.5387 -0.5713
  523MOL0     H70552   4.515  11.717   3.927 -3.0731 -1.3073 -5.0315
  523MOL0     H70553   4.437  11.770   4.088 -0.8073  0.8017 -0.7809
  523MOL0     H70554   4.354  11.554   4.139  0.7901  0.6569  0.9052
  523MOL0     H70555   4.531  11.552   4.116  0.3409  1.0570 -0.4845
  523MOL0     H70556   4.592  11.485   3.832 -0.4674  0.0200 -1.5447
  523MOL0     H70557   4.361  11.364   3.564  0.2543 -2.4947  0.4741
  523MOL0     H70558   4.520  11.443   3.587  1.3151 -1.8742 -0.6163
  523MOL0     H70559   4.424  11.162   3.619 -0.2893 -0.1282 -2.6112
  523MOL0     H70560   4.592  11.212   3.675  3.1107  0.1517 -2.7084
  523MOL0     H70561   4.613  11.112   3.441  0.5271  0.8512 -1.1424
  523MOL0     H70562   4.615  11.291   3.426 -0.3534  0.2753 -0.8822
  523MOL0     H70563   4.335  11.160   3.417 -0.3979 -0.4011  0.3480
  523MOL0     H70564   4.450  11.150   3.273  3.6354  0.3602  0.7495
  523MOL0     H70565   4.155  11.201   3.249 -1.2659  0.3127 -0.0132
  523MOL0     H70566   3.889  11.323   3.045 -1.6898 -0.3592  2.2201
  523MOL0     H70567   3.999  11.216   2.974  0.2756 -2.1629  1.3790
  523MOL0     H70568   3.954  11.182   3.139 -1.9301  0.9429  0.5865
  523MOL0     H70569   3.800  11.745   3.011  1.9911 -0.8046  0.3148
  523MOL0     H70570   3.645  11.860   2.871  0.9136  1.9569  3.0893
  523MOL0     H70571   3.534  11.962   2.644 -2.0327 -0.1487  1.7335
  523MOL0     H70572   3.547  12.060   2.795 -1.9296  2.4634 -0.7350
  523MOL0     H70573   3.572  12.266   2.670 -1.4556 -0.7855  0.7589
  523MOL0     H70574   3.590  12.179   2.528  0.7901  1.1319  0.8793
  523MOL0     H70575   3.328  12.157   2.691 -0.4371 -1.3586 -0.6195
  523MOL0     H70576   3.373  12.089   2.532 -0.2891 -0.5491 -0.2807
  523MOL0     H70577   3.335  12.369   2.620 -0.2117 -2.1444  1.3681
  523MOL0     H70578   3.407  12.349   2.466  0.7927  0.8579  1.3502
  523MOL0     H70579   3.223  12.207   2.372  3.1552 -0.2924  0.3661
  523MOL0     H70580   3.160  12.366   2.416 -0.0105  1.2892  2.2560
  523MOL0     H70581   3.001  12.201   2.484 -1.5118 -2.4526  2.2149
  523MOL0     H70582   3.116  12.120   2.594  1.5597  0.7403 -0.1044
  523MOL0     H70583   2.984  12.392   2.607 -1.2399 -1.8942  0.3070
  523MOL0     H70584   3.139  12.367   2.696 -0.3379  1.2776 -0.8722
  523MOL0     H70585   3.016  12.170   2.808 -1.2694  0.0388  2.7943
  523MOL0     H70586   2.873  12.226   2.741 -1.1331 -0.9891  1.3701
  523MOL0     H70587   3.966  11.991   2.620 -1.2740  2.3003  1.1604
  523MOL0     H70588   4.122  11.853   2.746  0.3958 -1.0979  0.4600
  523MOL0     H70589   4.263  11.647   3.050  4.6738 -1.5509 -3.0975
  523MOL0     H70590   4.421  11.554   3.198 -0.9471  0.4311 -0.4300
  523MOL0     H70591   3.917  11.590   3.424 -2.0952 -1.1113  0.6563
  523MOL0     H70592   3.861  11.483   3.218  0.7457 -0.3045 -0.9523
  523MOL0     H70593   3.691  11.360   2.846  1.0424 -1.4761  1.3094
  523MOL0     H70594   3.615  11.272   2.665  0.6861 -1.4087 -0.5150
  523MOL0     H70595   3.459  11.240   2.477 -1.0908  0.7980 -0.3073
  523MOL0     H70596   3.515  11.075   2.507  1.5099  1.7907 -0.6443
  523MOL0     H70597   3.320  10.975   2.388 -0.4255 -0.2824 -1.3499
  523MOL0     H70598   3.405  11.091   2.288  1.0187 -0.9601  0.4955
  523MOL0     H70599   3.171  11.113   2.254  0.2965 -0.2468 -0.0361
  523MOL0     H70600   3.221  11.260   2.322 -1.1536 -0.6223  1.1191
  523MOL0     H70601   3.010  11.200   2.418 -2.3418 -3.2172  0.1008
  523MOL0     H70602   3.124  11.145   2.546  2.0296  2.6101 -0.4625
  523MOL0     H70603   2.995  10.770   2.448  2.4534 -1.5781 -0.8847
  523MOL0     H70604   3.252  11.143   2.874  0.8714 -0.4250  1.0746
  523MOL0     H70605   3.311  11.289   3.057 -0.9237  0.9135 -0.3824
  524MOL0     O70606   3.170   3.046   0.178  0.1003 -0.2094  0.1024
  524MOL0     C70607   3.188   3.164   0.182  0.2843  0.8548 -0.2092
  524MOL0     O70608   3.099   3.266   0.189 -0.1331 -0.3438  0.6534
  524MOL0     C70609   2.970   3.229   0.223  0.8628 -0.9874  0.0995
  524MOL0     C70610   2.938   3.136   0.318 -0.2589  0.2827 -1.0734
  524MOL0     C70611   2.803   3.093   0.326 -1.7081 -0.3052 -0.3599
  524MOL0     C70612   2.704   3.131   0.245 -0.1557 -0.8774  0.0295
  524MOL0     O70613   2.579   3.074   0.253 -0.5971  0.6735 -0.3062
  524MOL0     C70614   2.493   3.055   0.138 -1.4039  0.2811  1.4224
  524MOL0     C70615   2.386   2.960   0.193 -0.2164  0.1766 -0.9647
  524MOL0     C70616   2.435   2.835   0.274  0.9614  0.4689 -0.2537
  524MOL0     C70617   2.486   2.728   0.174 -0.1297  0.3170 -0.0959
  524MOL0     C70618   2.613   2.658   0.206 -0.0640  0.1995  0.0690
  524MOL0     C70619   2.735   2.746   0.165  0.8798  0.5651  0.2537
  524MOL0     C70620   2.871   2.694   0.226  0.8081  0.2163 -0.0794
  524MOL0     C70621   2.980   2.776   0.183 -0.5313  0.0522  0.6604
  524MOL0     N70622   3.043   2.744   0.055  0.8732  0.9437  0.1575
  524MOL0     C70623   3.173   2.723   0.049  0.9741  0.3506  0.1464
  524MOL0     C70624   3.199   2.704  -0.086  0.1642 -0.0322 -0.4048
  524MOL0     C70625   3.335   2.676  -0.146 -0.9410  0.4371 -0.4887
  524MOL0     C70626   3.398   2.807  -0.202  0.4657 -1.0962  0.1184
  524MOL0     C70627   3.512   2.764  -0.290  0.2890  0.1813  0.7067
  524MOL0     C70628   3.601   2.874  -0.343  0.2582 -0.7197  0.0041
  524MOL0     O70629   3.669   2.958  -0.242  0.1992 -0.3817  0.5844
  524MOL0     C70630   3.796   2.934  -0.201  0.5335  1.0309  0.1192
  524MOL0     C70631   3.865   2.817  -0.223  0.4534 -0.1040 -0.7361
  524MOL0     C70632   3.988   2.786  -0.174 -0.0101 -0.2383 -0.5979
  524MOL0     C70633   4.035   2.639  -0.180  0.8769 -0.4761  1.0858
  524MOL0     C70634   4.066   2.896  -0.115  0.3928 -0.9117  0.2205
  524MOL0     C70635   4.208   2.895  -0.084  0.3598  0.6644 -1.0403
  524MOL0     O70636   4.273   2.772  -0.045  0.5142 -0.3870 -0.1827
  524MOL0     C70637   4.416   2.788  -0.028  0.8238 -0.0387  0.5060
  524MOL0     C70638   4.470   2.825   0.101  0.5807 -0.3720 -0.1222
  524MOL0     C70639   4.608   2.835   0.121 -0.5525  0.2535  0.2167
  524MOL0     C70640   4.696   2.818   0.010 -0.6474  0.3180  0.3199
  524MOL0     O70641   4.827   2.845   0.035  0.7242 -0.1904 -0.3811
  524MOL0     C70642   4.924   2.793  -0.047 -0.0649  0.7346 -0.0473
  524MOL0     C70643   5.057   2.835   0.011  1.1379 -0.0385 -0.4293
  524MOL0     C70644   5.172   2.815  -0.083  0.5826  0.2439  0.1692
  524MOL0     C70645   5.307   2.807  -0.010 -0.4139 -0.1428 -0.0947
  524MOL0     C70646   5.404   2.767  -0.128 -0.4316 -0.4101  0.1428
  524MOL0     C70647   5.552   2.774  -0.078 -0.0161  1.2154  0.7425
  524MOL0     C70648   5.566   2.699   0.057  0.4910  0.2320  0.4208
  524MOL0     C70649   5.709   2.677   0.095  0.2562  0.0043  0.3271
  524MOL0    Cl70650   5.817   2.803   0.004  0.1855 -0.0493 -0.5399
  524MOL0     C70651   4.648   2.784  -0.121  0.3005  0.1189  0.5989
  524MOL0     C70652   4.506   2.765  -0.138 -0.2903  1.1858  0.4429
  524MOL0     O70653   4.263   3.001  -0.103  1.2305 -0.2911  0.1264
  524MOL0     C70654   3.995   3.016  -0.093  0.0355 -0.1458  0.2599
  524MOL0     C70655   3.861   3.032  -0.135 -0.6599 -0.3350 -0.6162
  524MOL0     N70656   3.082   2.724  -0.161  0.0798 -0.3522  0.1931
  524MOL0     N70657   2.994   2.754  -0.076  0.2043  0.1688  0.2768
  524MOL0     C70658   2.735   3.227   0.157 -1.0180 -0.3421  0.7988
  524MOL0     C70659   2.871   3.270   0.131 -0.6845  0.3311  0.0036
  524MOL0     C70660   3.332   3.210   0.161  0.3827  0.4572  0.7695
  524MOL0     C70661   3.373   3.344   0.172 -0.4573 -0.2151 -0.1563
  524MOL0     C70662   3.497   3.390   0.143 -0.2629  0.1059 -0.9295
  524MOL0     C70663   3.597   3.309   0.095  1.0512  0.3894  0.5595
  524MOL0     O70664   3.712   3.360   0.041 -0.4941  0.2398 -0.3077
  524MOL0     C70665   3.723   3.496   0.019 -0.4161  0.1135  0.9786
  524MOL0     C70666   3.823   3.518  -0.101  0.6724  0.1663 -0.9848
  524MOL0     C70667   3.872   3.664  -0.114  0.5918  0.2452  0.3546
  524MOL0     C70668   3.926   3.694  -0.255  0.5156  0.3123  0.5685
  524MOL0     C70669   3.948   3.834  -0.273 -0.0613 -1.1467 -0.9282
  524MOL0     C70670   3.989   3.955  -0.269 -0.1681  0.5698 -1.1422
  524MOL0     C70671   3.563   3.176   0.088  0.1554  0.7911  0.5844
  524MOL0     C70672   3.430   3.121   0.114  0.0945 -0.0435 -0.0997
  524MOL0     H70673   3.008   3.093   0.390  0.5492  2.4184 -0.5119
  524MOL0     H70674   2.781   3.010   0.392 -1.1715 -0.8505 -0.8503
  524MOL0     H70675   2.436   3.143   0.106 -4.5328 -1.9241  0.3964
  524MOL0     H70676   2.546   3.002   0.059 -0.7878  0.7584  1.5181
  524MOL0     H70677   2.322   3.018   0.261 -2.4279 -2.2275 -0.8611
  524MOL0     H70678   2.316   2.920   0.119 -0.4317 -0.3573 -0.4821
  524MOL0     H70679   2.514   2.874   0.338 -0.3054  0.4041  1.4202
  524MOL0     H70680   2.354   2.800   0.339  1.7675  0.7039  0.9071
  524MOL0     H70681   2.399   2.661   0.166 -0.8041  1.1652 -0.0068
  524MOL0     H70682   2.487   2.765   0.071 -3.7443 -0.1217 -0.4382
  524MOL0     H70683   2.625   2.644   0.313  0.1379 -1.5130 -0.1509
  524MOL0     H70684   2.617   2.553   0.176  1.7875 -1.1410  4.3490
  524MOL0     H70685   2.749   2.764   0.058 -0.3354  0.5218  0.0798
  524MOL0     H70686   2.718   2.843   0.212 -1.9207 -0.4032  1.4238
  524MOL0     H70687   2.863   2.708   0.334  1.1563 -2.7645  0.4176
  524MOL0     H70688   2.879   2.588   0.198  0.5439 -0.0077  0.6697
  524MOL0     H70689   3.048   2.783   0.269  2.0391 -2.7446 -0.9418
  524MOL0     H70690   2.933   2.875   0.178 -1.2523 -0.3181 -0.0889
  524MOL0     H70691   3.240   2.713   0.133  1.5011  0.3011 -0.2701
  524MOL0     H70692   3.395   2.642  -0.061  1.7801 -2.1195 -3.2187
  524MOL0     H70693   3.333   2.603  -0.227  2.0937  0.1432 -0.4028
  524MOL0     H70694   3.428   2.874  -0.121 -3.3285  3.5313 -1.8138
  524MOL0     H70695   3.321   2.858  -0.260 -1.3060 -2.6016  0.9920
  524MOL0     H70696   3.473   2.711  -0.377  2.2100  2.0004 -1.4047
  524MOL0     H70697   3.578   2.702  -0.229  0.1564  1.7465  2.5210
  524MOL0     H70698   3.532   2.935  -0.403 -1.0625 -2.6498 -0.5487
  524MOL0     H70699   3.670   2.820  -0.409  1.1206  0.0360  0.2746
  524MOL0     H70700   3.813   2.740  -0.280  0.7471 -2.6436  2.1475
  524MOL0     H70701   4.026   2.603  -0.077  1.5268 -1.0831  0.9403
  524MOL0     H70702   3.964   2.590  -0.248  3.0710  1.4657 -2.9675
  524MOL0     H70703   4.137   2.623  -0.215  0.1187  1.1344 -2.2845
  524MOL0     H70704   4.405   2.836   0.188 -2.4232 -3.6927 -1.6940
  524MOL0     H70705   4.653   2.869   0.213 -1.2091  1.0967  0.2470
  524MOL0     H70706   4.919   2.684  -0.055 -0.0211  0.8650 -3.9186
  524MOL0     H70707   4.908   2.835  -0.147  2.1897  2.5389  0.2786
  524MOL0     H70708   5.054   2.942   0.034  0.1260 -0.0680 -0.4075
  524MOL0     H70709   5.070   2.781   0.105  1.5463 -0.4423 -0.7130
  524MOL0     H70710   5.174   2.891  -0.161  3.0715 -0.0619 -0.1509
  524MOL0     H70711   5.153   2.718  -0.128  2.3482  0.9112 -2.2287
  524MOL0     H70712   5.320   2.910   0.025  0.8820 -0.4948  0.5140
  524MOL0     H70713   5.305   2.740   0.076 -2.4690 -0.4239 -0.2998
  524MOL0     H70714   5.383   2.831  -0.215 -2.4646 -2.8600 -1.2954
  524MOL0     H70715   5.382   2.667  -0.165 -1.1400 -0.8379  1.6385
  524MOL0     H70716   5.603   2.716  -0.156  0.4575 -4.1848  4.4911
  524MOL0     H70717   5.580   2.877  -0.055  2.3009  0.9922 -0.8077
  524MOL0     H70718   5.519   2.601   0.058  1.9564 -0.5483  3.0493
  524MOL0     H70719   5.520   2.758   0.137 -0.7548 -2.5339  1.8662
  524MOL0     H70720   5.736   2.574   0.068 -0.3837 -0.2449  0.6247
  524MOL0     H70721   5.714   2.689   0.204  0.6920  1.9385  0.1269
  524MOL0     H70722   4.708   2.784  -0.211 -1.5748 -2.1187 -0.7868
  524MOL0     H70723   4.477   2.757  -0.242  3.6531 -1.0682 -0.7322
  524MOL0     H70724   4.044   3.107  -0.061 -0.6527  1.2274 -2.2881
  524MOL0     H70725   3.802   3.123  -0.132 -1.2915 -0.7506 -0.2434
  524MOL0     H70726   2.663   3.269   0.087  3.0405  3.4221 -1.6199
  524MOL0     H70727   2.892   3.330   0.043  3.8934  2.2298  2.0939
  524MOL0     H70728   3.304   3.417   0.212 -0.7142  1.0069 -2.6490
  524MOL0     H70729   3.530   3.492   0.158 -0.7268  0.4479 -2.1162
  524MOL0     H70730   3.633   3.539  -0.025 -2.0476 -2.5363  1.5046
  524MOL0     H70731   3.741   3.547   0.115 -0.2384  1.8714  0.0530
  524MOL0     H70732   3.778   3.471  -0.189 -0.5631 -2.6898  1.0351
  524MOL0     H70733   3.911   3.456  -0.080 -0.0819 -0.7172 -0.3868
  524MOL0     H70734   3.956   3.677  -0.046  2.0785 -0.1539 -1.3257
  524MOL0     H70735   3.796   3.740  -0.097  0.1915  0.3291 -1.5703
  524MOL0     H70736   3.860   3.654  -0.332  2.4399 -2.4536  0.2083
  524MOL0     H70737   4.021   3.647  -0.281  0.3171  1.6547 -3.1618
  524MOL0     H70738   4.017   4.057  -0.288 -2.0092  1.2358 -0.4720
  524MOL0     H70739   3.635   3.101   0.054 -0.4284  0.9526 -1.1175
  524MOL0     H70740   3.401   3.018   0.095  0.5370 -0.2733  0.4415
  525MOL0     O70741   3.526   6.195   4.848 -0.4491  0.3029 -0.0610
  525MOL0     C70742   3.523   6.274   4.947  0.0127 -0.2870  0.7450
  525MOL0     O70743   3.422   6.289   5.030 -0.6950  0.3046 -0.1036
  525MOL0     C70744   3.294   6.269   4.994  0.4550  0.6377 -0.2711
  525MOL0     C70745   3.241   6.316   4.876 -0.6132  0.4457  0.6187
  525MOL0     C70746   3.105   6.294   4.848  1.2225 -0.0864 -0.2798
  525MOL0     C70747   3.015   6.255   4.942  0.1562 -0.4060  1.3532
  525MOL0     O70748   2.886   6.239   4.897  0.3568  0.4358 -0.3358
  525MOL0     C70749   2.774   6.257   4.992 -0.5814 -0.2001  0.3322
  525MOL0     C70750   2.720   6.124   5.039  0.1802 -0.9469 -0.4335
  525MOL0     C70751   2.613   6.077   4.948  0.0904 -0.1929 -0.2380
  525MOL0     C70752   2.468   6.121   4.987  0.2753 -0.0706  0.1148
  525MOL0     C70753   2.363   6.121   4.873 -0.1084 -0.2742  1.0938
  525MOL0     C70754   2.217   6.148   4.911 -0.1780  0.5632 -0.4474
  525MOL0     C70755   2.114   6.112   4.799 -0.1547 -0.5672 -0.0800
  525MOL0     C70756   2.088   5.965   4.785 -0.4675 -0.2036  0.2208
  525MOL0     N70757   1.950   5.926   4.776  0.0288  0.2524  0.0359
  525MOL0     C70758   1.853   5.932   4.883 -0.4086  0.9801  0.6341
  525MOL0     C70759   1.732   5.915   4.824  0.5508 -0.1140 -0.9698
  525MOL0     C70760   1.599   5.893   4.893 -0.2020 -0.4461  0.1600
  525MOL0     C70761   1.503   5.823   4.790  0.9062  0.0399 -1.2329
  525MOL0     C70762   1.357   5.813   4.842  0.2681 -0.2457  0.2235
  525MOL0     C70763   1.268   5.753   4.732  0.1376 -0.2477 -0.4672
  525MOL0     O70764   1.138   5.753   4.782 -0.2221  0.1899 -0.5748
  525MOL0     C70765   1.053   5.854   4.743  0.5966  0.3195  0.5382
  525MOL0     C70766   0.917   5.838   4.749  0.4751  0.3337 -1.0246
  525MOL0     C70767   0.821   5.925   4.705  0.1276 -0.2951  0.3108
  525MOL0     C70768   0.678   5.882   4.727 -1.5202  0.3945 -0.4715
  525MOL0     C70769   0.868   6.040   4.629  0.7679 -0.1396  0.5566
  525MOL0     C70770   0.778   6.130   4.558  0.3740  0.6401  0.0112
  525MOL0     O70771   0.838   6.235   4.496 -0.6662  0.8070  0.4547
  525MOL0     C70772   0.760   6.288   4.393 -0.3593  0.5312 -0.1906
  525MOL0     C70773   0.754   6.225   4.270  0.1284 -0.0867  0.0897
  525MOL0     C70774   0.668   6.264   4.163 -0.6462  0.4685 -0.0531
  525MOL0     C70775   0.605   6.387   4.185  0.2626 -1.1311 -0.9821
  525MOL0     O70776   0.508   6.441   4.096  0.1165  0.1034  0.0923
  525MOL0     C70777   0.545   6.432   3.957  0.2125  0.0554 -0.2704
  525MOL0     C70778   0.454   6.495   3.846  0.3086  0.2432 -0.4493
  525MOL0     C70779   0.420   6.636   3.901 -0.7648 -1.3470  0.0766
  525MOL0     C70780   0.550   6.716   3.938 -0.1889 -0.2736 -0.1725
  525MOL0     C70781   0.518   6.868   3.964  0.0160  0.1774  0.0812
  525MOL0     C70782   0.648   6.949   3.964 -0.2748 -0.6821  0.0379
  525MOL0     C70783   0.618   7.097   3.979 -0.3152  0.1154  0.9935
  525MOL0     C70784   0.609   7.166   3.836 -0.4953  0.2859 -0.1536
  525MOL0    Cl70785   0.611   7.337   3.870 -0.0987  0.2716  0.0432
  525MOL0     C70786   0.610   6.452   4.310  0.0297  0.5594 -0.9132
  525MOL0     C70787   0.688   6.398   4.416  0.2933  0.0390  0.1064
  525MOL0     O70788   0.656   6.124   4.585 -0.3569  0.2109 -0.2334
  525MOL0     C70789   1.006   6.060   4.629  0.1574  0.0746  0.8885
  525MOL0     C70790   1.096   5.967   4.676 -0.2079 -0.6275  0.3709
  525MOL0     N70791   1.764   5.884   4.693  0.6231 -0.5503 -0.0123
  525MOL0     N70792   1.889   5.894   4.660  0.9605  0.2138  0.4646
  525MOL0     C70793   3.067   6.201   5.062 -0.2336  0.0799  0.0561
  525MOL0     C70794   3.201   6.205   5.082 -0.5555  0.1691 -0.4880
  525MOL0     C70795   3.651   6.334   4.980  0.8442 -0.4318  0.8068
  525MOL0     C70796   3.765   6.328   4.895 -0.6982  1.0815  0.6548
  525MOL0     C70797   3.888   6.366   4.958  0.0247  0.3850 -0.1061
  525MOL0     C70798   3.894   6.433   5.087  0.4405  0.0947  0.2448
  525MOL0     O70799   4.009   6.488   5.125 -0.7779  0.1604 -0.5438
  525MOL0     C70800   4.011   6.630   5.135 -0.0676  0.7870 -0.0925
  525MOL0     C70801   4.131   6.698   5.063 -0.6785 -0.3064 -0.2601
  525MOL0     C70802   4.263   6.651   5.135  0.0527 -0.4706 -0.4300
  525MOL0     C70803   4.326   6.522   5.069  0.1280  0.5661  0.3647
  525MOL0     C70804   4.432   6.551   4.978 -0.2506  0.1032 -1.0399
  525MOL0     C70805   4.524   6.566   4.908  0.0755  0.5716 -0.2409
  525MOL0     C70806   3.775   6.454   5.151  0.3676 -0.7277 -0.2413
  525MOL0     C70807   3.662   6.395   5.109  0.7683 -0.0959  0.4153
  525MOL0     H70808   3.316   6.356   4.808  1.0886 -0.7561  1.6895
  525MOL0     H70809   3.072   6.317   4.747 -1.3606 -0.5479  0.4081
  525MOL0     H70810   2.806   6.310   5.083 -1.2058  1.4508 -0.3762
  525MOL0     H70811   2.698   6.313   4.937  1.9860  2.7414 -0.4927
  525MOL0     H70812   2.800   6.050   5.053  0.9348  0.0815  1.0276
  525MOL0     H70813   2.671   6.149   5.133 -0.7246 -2.0912 -0.5751
  525MOL0     H70814   2.625   6.103   4.842 -2.9800  0.3051 -0.5333
  525MOL0     H70815   2.619   5.968   4.959 -3.0308 -0.1836  3.5674
  525MOL0     H70816   2.432   6.064   5.073 -0.5789  2.7901  1.8073
  525MOL0     H70817   2.471   6.222   5.030 -1.9416 -0.6548  1.8164
  525MOL0     H70818   2.387   6.203   4.805 -4.3321  0.0861 -0.2053
  525MOL0     H70819   2.387   6.030   4.817  0.5859  0.8129 -0.4430
  525MOL0     H70820   2.189   6.081   4.992 -0.3112 -1.3980 -2.0162
  525MOL0     H70821   2.200   6.255   4.929 -2.6601  0.3458 -1.1247
  525MOL0     H70822   2.024   6.164   4.836  0.0242  0.8899 -1.5630
  525MOL0     H70823   2.134   6.160   4.703 -1.9248 -0.8080 -0.6199
  525MOL0     H70824   2.126   5.914   4.874  1.2765 -0.4370 -0.6227
  525MOL0     H70825   2.150   5.920   4.706  1.2289 -1.6752  2.2572
  525MOL0     H70826   1.875   5.945   4.988  0.2665  0.7105  0.5304
  525MOL0     H70827   1.607   5.813   4.967 -2.2483  0.2449  1.2008
  525MOL0     H70828   1.571   5.985   4.945  0.9124  0.2124 -0.3508
  525MOL0     H70829   1.539   5.722   4.769  0.3879  0.1448 -2.7921
  525MOL0     H70830   1.501   5.883   4.698 -0.7898  2.4071  0.2144
  525MOL0     H70831   1.312   5.909   4.869 -3.9008 -1.7596 -0.5890
  525MOL0     H70832   1.357   5.756   4.935 -3.9611 -0.1406  0.4715
  525MOL0     H70833   1.294   5.647   4.720 -0.7383 -0.3531 -1.5794
  525MOL0     H70834   1.292   5.789   4.631 -1.7779 -0.8735 -1.1900
  525MOL0     H70835   0.893   5.750   4.808 -0.3344  1.4463  0.3955
  525MOL0     H70836   0.676   5.795   4.794  0.6182  2.5296  2.6789
  525MOL0     H70837   0.621   5.968   4.763  0.5266  0.8862  1.9241
  525MOL0     H70838   0.643   5.859   4.626 -3.5796 -1.3083  0.5516
  525MOL0     H70839   0.816   6.139   4.247 -3.3331 -2.5195 -0.7993
  525MOL0     H70840   0.675   6.209   4.070  0.4430 -1.5475  1.1641
  525MOL0     H70841   0.644   6.473   3.936  0.8398 -1.0901  0.2755
  525MOL0     H70842   0.561   6.328   3.925  1.9014  0.0985  0.3053
  525MOL0     H70843   0.497   6.495   3.745  0.3882  2.1216 -0.4465
  525MOL0     H70844   0.361   6.438   3.849 -0.2161  1.1051  0.3034
  525MOL0     H70845   0.362   6.640   3.994  0.0816 -0.0153  0.5766
  525MOL0     H70846   0.368   6.687   3.819  1.1946 -0.0532 -0.4397
  525MOL0     H70847   0.592   6.671   4.028 -0.1469 -2.4784 -1.2187
  525MOL0     H70848   0.624   6.698   3.859  0.7084 -1.3799  0.8696
  525MOL0     H70849   0.442   6.874   4.043 -0.0335  1.5194 -0.0445
  525MOL0     H70850   0.465   6.911   3.878 -1.1796  3.4416  2.2385
  525MOL0     H70851   0.712   6.908   4.042  1.8482  0.3790 -1.0666
  525MOL0     H70852   0.692   6.925   3.867 -1.9499  0.4921 -1.0682
  525MOL0     H70853   0.705   7.138   4.031  2.7613 -0.0242 -3.5142
  525MOL0     H70854   0.532   7.116   4.044  1.2386 -0.5701  3.4092
  525MOL0     H70855   0.512   7.136   3.796 -0.1421 -0.4159 -0.5087
  525MOL0     H70856   0.691   7.144   3.766  1.5487  0.6055  2.0333
  525MOL0     H70857   0.550   6.539   4.336 -0.1581  0.2189 -0.1674
  525MOL0     H70858   0.707   6.446   4.512  0.0338  0.4989 -0.0681
  525MOL0     H70859   1.042   6.142   4.568 -2.6741  1.1047  0.4246
  525MOL0     H70860   1.202   5.990   4.672 -0.4835  0.5876 -2.1255
  525MOL0     H70861   3.011   6.147   5.137 -2.8757  1.6279 -0.6316
  525MOL0     H70862   3.244   6.157   5.169  3.9693  1.0249 -2.0060
  525MOL0     H70863   3.761   6.263   4.808  0.3283 -0.1512  1.4838
  525MOL0     H70864   3.981   6.350   4.904 -0.6394 -1.3074 -0.8089
  525MOL0     H70865   3.925   6.666   5.078 -0.0928 -1.2699 -1.4678
  525MOL0     H70866   4.000   6.650   5.242 -1.5318 -1.8756  0.3411
  525MOL0     H70867   4.123   6.807   5.063  1.6148 -0.0577 -1.7726
  525MOL0     H70868   4.120   6.668   4.958 -1.8975  0.7229 -0.4573
  525MOL0     H70869   4.242   6.638   5.241 -2.1414 -0.1483 -0.7794
  525MOL0     H70870   4.336   6.732   5.129 -1.4178  0.8409 -1.5416
  525MOL0     H70871   4.254   6.458   5.016 -1.1280  2.7124 -0.6795
  525MOL0     H70872   4.363   6.457   5.148 -0.3061  0.2470  0.3126
  525MOL0     H70873   4.617   6.594   4.862  0.8704  0.7715  1.3771
  525MOL0     H70874   3.785   6.524   5.233  0.3986  0.6520 -1.3847
  525MOL0     H70875   3.573   6.401   5.171 -0.3034 -1.4578 -0.9215
  526MOL0     O70876   5.133   4.896   5.562 -0.7445 -0.0454  0.2044
  526MOL0     C70877   5.124   4.807   5.483  0.3404 -0.6029  0.0040
  526MOL0     O70878   5.226   4.756   5.414  0.8008 -0.5760  0.8824
  526MOL0     C70879   5.352   4.774   5.442  0.6882  0.3820 -0.6046
  526MOL0     C70880   5.426   4.854   5.354 -0.1094  0.0329 -0.4071
  526MOL0     C70881   5.563   4.873   5.378 -0.0448 -0.2745 -0.8512
  526MOL0     C70882   5.626   4.789   5.471 -0.0467 -0.2011  0.0232
  526MOL0     O70883   5.761   4.787   5.506 -0.0344  0.4586 -0.9519
  526MOL0     C70884   5.858   4.823   5.405  0.7672  0.2882 -0.5425
  526MOL0     C70885   5.925   4.690   5.351  0.2799  0.7521  0.0160
  526MOL0     C70886   6.059   4.713   5.269 -0.1222 -0.2189  0.9562
  526MOL0     C70887   6.099   4.607   5.171  0.1923  0.5744  0.2405
  526MOL0     C70888   6.234   4.622   5.102 -0.6460  0.2252 -0.1560
  526MOL0     C70889   6.356   4.585   5.186  0.4017 -0.4252 -0.2181
  526MOL0     C70890   6.485   4.582   5.097 -0.8553 -0.3041 -0.6010
  526MOL0     C70891   6.513   4.430   5.055  0.6423 -0.4725  0.2340
  526MOL0     N70892   6.404   4.349   4.999  0.3214  0.2533  0.0697
  526MOL0     C70893   6.326   4.262   5.075  0.0592 -0.1511  0.0832
  526MOL0     C70894   6.228   4.212   4.990  0.3184 -0.1707 -1.4651
  526MOL0     C70895   6.112   4.122   5.019  0.0135 -0.8513  0.1621
  526MOL0     C70896   5.997   4.182   5.113 -0.1263  0.0663  1.2528
  526MOL0     C70897   5.905   4.291   5.041 -0.4218  0.3316 -0.1720
  526MOL0     C70898   5.796   4.340   5.135 -0.2028 -0.4063 -0.2247
  526MOL0     O70899   5.692   4.239   5.166 -0.1540 -0.2398 -0.3835
  526MOL0     C70900   5.612   4.276   5.265  0.3688  0.3682 -0.0262
  526MOL0     C70901   5.641   4.262   5.398 -0.2205  0.5350  0.5145
  526MOL0     C70902   5.542   4.265   5.496  0.7206 -0.4186  0.4113
  526MOL0     C70903   5.581   4.230   5.634 -0.5038 -0.5154 -0.2205
  526MOL0     C70904   5.414   4.310   5.461 -0.5195  0.5256  0.3128
  526MOL0     C70905   5.305   4.330   5.552 -0.1862 -0.2953 -0.0078
  526MOL0     O70906   5.177   4.312   5.492 -0.3118  0.1376 -0.5314
  526MOL0     C70907   5.063   4.358   5.542 -0.9169  0.8523 -0.0362
  526MOL0     C70908   5.051   4.473   5.619  0.2152  0.3540  0.3403
  526MOL0     C70909   4.935   4.506   5.687  0.3911 -0.2774 -0.7525
  526MOL0     C70910   4.817   4.438   5.664 -0.5811  1.2468  0.2487
  526MOL0     O70911   4.706   4.467   5.727  0.0280  0.1839 -0.0067
  526MOL0     C70912   4.587   4.475   5.653  0.9824  0.8344 -0.9128
  526MOL0     C70913   4.464   4.519   5.757 -0.1308  0.5583  1.0125
  526MOL0     C70914   4.320   4.495   5.698 -0.7949  0.8014  0.3686
  526MOL0     C70915   4.281   4.615   5.612  0.5847  1.1737 -0.0556
  526MOL0     C70916   4.138   4.591   5.565  0.7838 -0.5266  0.9393
  526MOL0     C70917   4.083   4.650   5.433 -0.2723  0.3238 -0.7097
  526MOL0     C70918   3.928   4.627   5.408 -1.1691 -0.9627  0.2819
  526MOL0     C70919   3.873   4.743   5.333 -1.0220  0.4363 -0.2593
  526MOL0    Cl70920   3.935   4.737   5.168 -0.4735  0.1672 -0.1863
  526MOL0     C70921   4.827   4.314   5.592  0.8327  0.0663  0.8988
  526MOL0     C70922   4.943   4.279   5.528 -0.5867 -1.1955 -0.9525
  526MOL0     O70923   5.322   4.367   5.667  0.1185  0.0285  0.2641
  526MOL0     C70924   5.392   4.337   5.325  0.8504 -0.1092 -0.5776
  526MOL0     C70925   5.484   4.315   5.234 -0.4587 -0.9768 -0.3752
  526MOL0     N70926   6.257   4.263   4.869 -0.2487  0.3185  0.0021
  526MOL0     N70927   6.354   4.353   4.877  0.3917  0.0900  0.1239
  526MOL0     C70928   5.552   4.687   5.539  0.2479 -0.0287 -0.5810
  526MOL0     C70929   5.410   4.688   5.536 -0.0898  0.4320 -0.8749
  526MOL0     C70930   4.990   4.761   5.444 -0.5121  0.2493 -0.0404
  526MOL0     C70931   4.874   4.796   5.516  0.4347  0.5088  0.4109
  526MOL0     C70932   4.750   4.747   5.488 -0.5262 -0.3165  0.9068
  526MOL0     C70933   4.730   4.663   5.381  0.1845 -0.3468  0.8030
  526MOL0     O70934   4.600   4.652   5.340  0.1008 -0.0869  0.0756
  526MOL0     C70935   4.587   4.670   5.203 -0.4406  0.1873 -0.0156
  526MOL0     C70936   4.495   4.792   5.180 -0.2096 -0.2458 -0.7151
  526MOL0     C70937   4.346   4.756   5.181  0.0866 -0.0266 -0.0023
  526MOL0     C70938   4.267   4.882   5.158  0.6475  0.5680 -0.7202
  526MOL0     C70939   4.238   4.960   5.283 -0.9026  0.8164  0.5981
  526MOL0     C70940   4.215   5.030   5.377 -0.3763  0.3047 -0.4493
  526MOL0     C70941   4.849   4.613   5.329 -0.3272  1.2558  0.8318
  526MOL0     C70942   4.973   4.665   5.348  0.5120  0.4955  0.6358
  526MOL0     H70943   5.370   4.906   5.278  1.3079 -0.2919 -1.7270
  526MOL0     H70944   5.620   4.936   5.310 -0.2080  0.1117 -0.6318
  526MOL0     H70945   5.808   4.871   5.320 -0.4700  1.3647  0.7412
  526MOL0     H70946   5.919   4.903   5.449 -1.6242 -0.0686  3.9388
  526MOL0     H70947   5.957   4.629   5.435  3.7640  1.7004 -0.4579
  526MOL0     H70948   5.853   4.634   5.290  0.4771 -0.1958  0.6435
  526MOL0     H70949   6.056   4.808   5.215  1.3579 -1.8810 -2.3804
  526MOL0     H70950   6.141   4.726   5.341 -0.0086  2.3602  0.4482
  526MOL0     H70951   6.099   4.510   5.221  2.1366  0.5739  0.3268
  526MOL0     H70952   6.023   4.612   5.093 -1.2198  0.0650  1.5523
  526MOL0     H70953   6.235   4.571   5.005  0.1310 -0.2255  0.0781
  526MOL0     H70954   6.236   4.728   5.077  1.3224 -0.5475 -4.1483
  526MOL0     H70955   6.385   4.670   5.249  2.8189 -0.2482 -1.4373
  526MOL0     H70956   6.334   4.505   5.257 -1.8150  4.0364  4.8355
  526MOL0     H70957   6.473   4.634   5.001  1.1870  1.7261  0.1508
  526MOL0     H70958   6.568   4.630   5.148  0.5741 -2.5215 -0.6660
  526MOL0     H70959   6.576   4.376   5.126 -0.7096  0.3957  2.1596
  526MOL0     H70960   6.587   4.445   4.975 -0.0318  0.2810 -0.2611
  526MOL0     H70961   6.332   4.251   5.183 -1.3665  0.3215  0.2239
  526MOL0     H70962   6.061   4.076   4.934  2.0469 -1.4046 -0.7918
  526MOL0     H70963   6.161   4.047   5.082 -1.8431 -0.9635  1.6069
  526MOL0     H70964   6.039   4.221   5.207 -1.2811  1.9018  1.0641
  526MOL0     H70965   5.925   4.105   5.141  0.4510 -1.1514 -0.4803
  526MOL0     H70966   5.866   4.244   4.950  2.6061 -1.4950 -0.6514
  526MOL0     H70967   5.968   4.373   5.004 -0.5953 -0.5640 -2.6804
  526MOL0     H70968   5.743   4.430   5.101 -0.5639  0.7795  3.1549
  526MOL0     H70969   5.852   4.365   5.226  0.3916 -0.6020 -0.5276
  526MOL0     H70970   5.740   4.226   5.423 -0.9093  0.7654  4.0756
  526MOL0     H70971   5.646   4.312   5.667  1.3254 -1.1953 -1.9566
  526MOL0     H70972   5.501   4.228   5.709  1.5371  2.3381  2.3020
  526MOL0     H70973   5.637   4.137   5.627  1.2754  0.4665  0.4039
  526MOL0     H70974   5.137   4.536   5.638 -1.1079  2.0136  1.1679
  526MOL0     H70975   4.938   4.589   5.757 -0.8124 -1.4563  0.7816
  526MOL0     H70976   4.595   4.554   5.578  1.3765  2.8958  1.1776
  526MOL0     H70977   4.565   4.377   5.611  1.4432  1.0928 -1.7760
  526MOL0     H70978   4.478   4.455   5.844  0.6234 -1.6230 -0.6421
  526MOL0     H70979   4.476   4.623   5.791 -2.2857  1.7611 -1.5522
  526MOL0     H70980   4.245   4.480   5.776 -2.1928  3.5890 -0.3231
  526MOL0     H70981   4.324   4.410   5.628  1.6008  1.6839 -0.6760
  526MOL0     H70982   4.285   4.707   5.672  0.9790  0.8717  0.3864
  526MOL0     H70983   4.336   4.626   5.518  0.5476 -0.6945 -0.3257
  526MOL0     H70984   4.079   4.625   5.650 -0.9778 -1.0514 -0.0242
  526MOL0     H70985   4.121   4.484   5.557 -2.0455 -0.0196 -1.8831
  526MOL0     H70986   4.111   4.756   5.434  2.2373 -0.2959  0.3934
  526MOL0     H70987   4.120   4.593   5.348 -2.8169 -0.8787 -1.1235
  526MOL0     H70988   3.870   4.615   5.499  0.4464 -1.4929  1.2801
  526MOL0     H70989   3.915   4.534   5.352 -2.3898  1.4477 -3.8905
  526MOL0     H70990   3.906   4.834   5.383  0.7792 -0.7360  0.7986
  526MOL0     H70991   3.765   4.725   5.332 -0.7045 -2.4865  2.2891
  526MOL0     H70992   4.747   4.242   5.580 -1.1331  2.3383 -0.6508
  526MOL0     H70993   4.933   4.188   5.470  4.3265 -2.3043 -0.4739
  526MOL0     H70994   5.303   4.376   5.277  1.1441  4.1407  1.8944
  526MOL0     H70995   5.461   4.332   5.130  0.6074 -1.9241 -0.7851
  526MOL0     H70996   5.620   4.616   5.585 -1.8755 -0.4555  2.1421
  526MOL0     H70997   5.350   4.619   5.594 -0.1088  2.2919  1.4547
  526MOL0     H70998   4.871   4.855   5.607 -1.7630 -0.2255  0.8753
  526MOL0     H70999   4.667   4.794   5.540 -0.8909  1.1849 -0.9017
  526MOL0     H71000   4.675   4.684   5.139 -1.7195  0.4096 -1.7862
  526MOL0     H71001   4.547   4.576   5.164  1.7986 -2.2064  2.8958
  526MOL0     H71002   4.519   4.841   5.086 -0.6128 -0.1654 -0.7774
  526MOL0     H71003   4.517   4.867   5.257 -0.7885  0.3560 -1.1331
  526MOL0     H71004   4.315   4.711   5.276 -2.2344 -1.6603 -1.4341
  526MOL0     H71005   4.332   4.685   5.099  0.5649 -0.2924  0.1480
  526MOL0     H71006   4.168   4.852   5.120  1.9200 -1.0220 -3.0511
  526MOL0     H71007   4.309   4.958   5.092 -3.4805  4.6032  0.7703
  526MOL0     H71008   4.198   5.087   5.466 -1.9953 -1.0139  0.1252
  526MOL0     H71009   4.847   4.537   5.252 -1.0839  0.7191  1.3667
  526MOL0     H71010   5.056   4.620   5.294  0.1025  3.4112 -2.8343
  527MOL0     O71011   7.659  10.635   7.207 -0.4881  0.4144  0.6415
  527MOL0     C71012   7.618  10.578   7.307  0.3585 -0.0189 -0.0661
  527MOL0     O71013   7.489  10.538   7.321  0.6739  1.0501 -0.1024
  527MOL0     C71014   7.402  10.574   7.229  0.1327 -0.0687 -0.0974
  527MOL0     C71015   7.308  10.669   7.264 -0.1040 -0.4083 -0.8878
  527MOL0     C71016   7.213  10.718   7.176  0.3650 -0.9540 -0.3146
  527MOL0     C71017   7.216  10.667   7.045  0.3308  0.2998 -0.3559
  527MOL0     O71018   7.117  10.713   6.972 -0.6209 -0.2920 -0.5292
  527MOL0     C71019   7.103  10.671   6.840  0.3645  1.3192  0.2687
  527MOL0     C71020   6.982  10.745   6.776  0.1026 -0.2875 -0.4834
  527MOL0     C71021   6.848  10.697   6.819 -0.2309  0.5747  0.2163
  527MOL0     C71022   6.747  10.745   6.716 -0.0721  0.8532  0.4641
  527MOL0     C71023   6.607  10.740   6.780 -0.4563 -0.5020  0.0373
  527MOL0     C71024   6.548  10.596   6.793  0.4034  0.1829  1.1859
  527MOL0     C71025   6.421  10.612   6.874  0.0580 -0.1761  1.3218
  527MOL0     C71026   6.387  10.484   6.945 -0.6327  0.4404 -0.0303
  527MOL0     N71027   6.269  10.483   7.036 -0.5690  0.9405  0.7559
  527MOL0     C71028   6.246  10.581   7.131 -0.3158  0.7412 -0.0904
  527MOL0     C71029   6.127  10.548   7.183  0.9441  0.1057  0.6525
  527MOL0     C71030   6.055  10.613   7.299  0.2222  0.9383  0.0582
  527MOL0     C71031   6.029  10.756   7.272 -0.8179 -0.0064 -0.1310
  527MOL0     C71032   5.951  10.832   7.382 -0.8407  0.6310 -0.5115
  527MOL0     C71033   5.818  10.768   7.410 -0.4372  0.5747  0.3221
  527MOL0     O71034   5.742  10.801   7.292  0.5288 -0.4884 -0.2412
  527MOL0     C71035   5.611  10.816   7.321 -0.3486  0.1199 -0.0923
  527MOL0     C71036   5.572  10.938   7.373 -0.5962  0.8016  0.2703
  527MOL0     C71037   5.445  10.971   7.400  0.3127 -0.7442  0.6752
  527MOL0     C71038   5.434  11.118   7.459  0.2318  0.6841 -0.7492
  527MOL0     C71039   5.342  10.880   7.388  0.0003 -0.1447  0.3085
  527MOL0     C71040   5.204  10.901   7.438 -0.1602  0.5084  0.5884
  527MOL0     O71041   5.114  10.806   7.403 -0.0146 -0.5641 -0.8839
  527MOL0     C71042   5.007  10.780   7.481 -0.8676  0.0955  0.0638
  527MOL0     C71043   5.006  10.724   7.610  0.3159  0.0381  0.1643
  527MOL0     C71044   4.888  10.688   7.676 -0.0944 -0.5276  0.4517
  527MOL0     C71045   4.762  10.720   7.624 -0.5112 -0.1220  0.5899
  527MOL0     O71046   4.658  10.678   7.691 -0.3974 -0.3749  0.1273
  527MOL0     C71047   4.542  10.750   7.657 -0.0094 -0.1070  0.5453
  527MOL0     C71048   4.427  10.725   7.747 -0.5569 -0.2568 -0.8765
  527MOL0     C71049   4.404  10.574   7.758 -0.0221 -0.1167 -1.1149
  527MOL0     C71050   4.262  10.546   7.815 -0.4684 -0.7497  0.1608
  527MOL0     C71051   4.260  10.392   7.840  0.5043  0.0277 -0.1094
  527MOL0     C71052   4.150  10.345   7.942 -0.6959  0.1888  0.0381
  527MOL0     C71053   4.131  10.202   7.927 -0.0851 -0.1236  0.2365
  527MOL0     C71054   4.047  10.150   8.036 -0.1246 -0.2397 -0.1383
  527MOL0    Cl71055   3.878  10.213   8.067  0.0135  0.1219  0.0746
  527MOL0     C71056   4.767  10.782   7.500  0.5785  0.5434  0.0499
  527MOL0     C71057   4.883  10.805   7.429 -0.5344 -0.3566 -0.1846
  527MOL0     O71058   5.179  10.986   7.521 -0.2819 -0.6078 -0.0056
  527MOL0     C71059   5.385  10.760   7.330 -0.1124  0.1170  0.3366
  527MOL0     C71060   5.515  10.721   7.292 -0.3752 -0.8542 -0.6227
  527MOL0     N71061   6.094  10.429   7.120 -0.2775 -0.0055  0.0595
  527MOL0     N71062   6.172  10.394   7.028  0.4942  0.0267  0.5009
  527MOL0     C71063   7.310  10.569   7.011  0.7244 -0.4964  0.2152
  527MOL0     C71064   7.412  10.525   7.095  0.9208 -0.3476 -0.0782
  527MOL0     C71065   7.718  10.545   7.410  0.6866  0.4834  0.1634
  527MOL0     C71066   7.856  10.552   7.378 -0.1315 -0.4349  0.0656
  527MOL0     C71067   7.955  10.540   7.476  0.4545  0.3165  0.0689
  527MOL0     C71068   7.911  10.508   7.606  0.1126 -0.0694  0.0436
  527MOL0     O71069   8.014  10.467   7.689  0.2228 -0.0750  0.1225
  527MOL0     C71070   7.985  10.478   7.836  1.1096 -0.8121  0.0360
  527MOL0     C71071   8.118  10.477   7.896 -0.4832  0.0370 -0.3551
  527MOL0     C71072   8.204  10.344   7.885 -0.0037 -0.1813  0.2997
  527MOL0     C71073   8.352  10.389   7.872 -0.7259 -0.0003 -0.1843
  527MOL0     C71074   8.407  10.441   7.991  0.4275  0.2647 -1.5524
  527MOL0     C71075   8.450  10.464   8.104 -0.4386 -0.1186 -0.6950
  527MOL0     C71076   7.774  10.501   7.643 -0.6513  0.4781 -0.2786
  527MOL0     C71077   7.683  10.522   7.542 -0.6978  0.0553 -1.1622
  527MOL0     H71078   7.316  10.730   7.353  0.9822 -0.3871 -0.9883
  527MOL0     H71079   7.143  10.791   7.214  0.4941 -2.0096  2.1401
  527MOL0     H71080   7.199  10.690   6.792  1.1468  0.8132  1.5865
  527MOL0     H71081   7.076  10.565   6.834 -1.2909  1.4836  3.0434
  527MOL0     H71082   6.991  10.850   6.806 -1.6969 -0.5610  1.2056
  527MOL0     H71083   6.978  10.739   6.667  2.1995  0.2775 -0.6539
  527MOL0     H71084   6.849  10.588   6.811 -2.4875  0.2433  3.1234
  527MOL0     H71085   6.823  10.729   6.920  1.2438  3.4389 -0.1977
  527MOL0     H71086   6.758  10.846   6.674  1.6484  0.3053 -0.5238
  527MOL0     H71087   6.749  10.675   6.632  0.3377  0.6449  0.6446
  527MOL0     H71088   6.616  10.794   6.874 -2.3443  1.3829 -0.7829
  527MOL0     H71089   6.533  10.797   6.723  1.4639 -0.9335 -3.1478
  527MOL0     H71090   6.531  10.544   6.699  2.0011  0.0997  0.9206
  527MOL0     H71091   6.619  10.535   6.849  0.7323 -1.0526 -0.5153
  527MOL0     H71092   6.436  10.689   6.949 -1.1005  2.3127 -0.8321
  527MOL0     H71093   6.342  10.637   6.802  0.0327 -2.9402  0.2406
  527MOL0     H71094   6.477  10.458   7.002 -0.7308  0.5605  0.1779
  527MOL0     H71095   6.372  10.397   6.880 -0.6569  0.8173 -0.5309
  527MOL0     H71096   6.321  10.651   7.166 -1.8838  1.5594  1.8190
  527MOL0     H71097   5.962  10.557   7.312  0.4707  0.4426 -0.2612
  527MOL0     H71098   6.112  10.586   7.388  0.9682 -4.4647 -1.7121
  527MOL0     H71099   5.984  10.766   7.173  1.5349 -1.9516 -1.5126
  527MOL0     H71100   6.127  10.803   7.261 -0.6159 -0.6509 -1.2335
  527MOL0     H71101   5.937  10.934   7.345 -0.1721  0.5953 -0.8867
  527MOL0     H71102   6.010  10.826   7.474  0.5832 -3.3924 -1.4628
  527MOL0     H71103   5.768  10.801   7.501 -0.3626 -0.3732  0.7279
  527MOL0     H71104   5.824  10.659   7.419  0.9135  0.7797  2.8343
  527MOL0     H71105   5.655  11.008   7.383  2.4357 -2.6076  1.3369
  527MOL0     H71106   5.505  11.180   7.402  0.8567  3.3512  2.6001
  527MOL0     H71107   5.335  11.164   7.456 -0.9430 -1.6840 -4.0506
  527MOL0     H71108   5.477  11.101   7.558 -0.0586  1.1066 -0.5496
  527MOL0     H71109   5.106  10.707   7.649  1.4303  3.3186 -0.9135
  527MOL0     H71110   4.883  10.624   7.763 -3.1998 -2.5328 -1.0012
  527MOL0     H71111   4.572  10.856   7.660  0.9858 -0.3124 -0.7898
  527MOL0     H71112   4.492  10.730   7.562 -3.1789 -0.3323  2.1366
  527MOL0     H71113   4.455  10.743   7.852 -1.9649 -0.4425 -0.4466
  527MOL0     H71114   4.343  10.790   7.720 -0.6974 -0.2100 -0.3553
  527MOL0     H71115   4.481  10.525   7.817 -3.2126 -1.1615  2.5587
  527MOL0     H71116   4.408  10.541   7.653  2.3953  2.6372 -2.0417
  527MOL0     H71117   4.245  10.595   7.911 -0.6873 -1.9814  0.7781
  527MOL0     H71118   4.178  10.573   7.750 -0.9240 -0.2332  0.9461
  527MOL0     H71119   4.352  10.350   7.881 -0.5687  0.3875  2.8959
  527MOL0     H71120   4.248  10.351   7.739  0.8584 -0.3498 -0.0031
  527MOL0     H71121   4.183  10.357   8.046 -0.5757 -0.4072  0.0684
  527MOL0     H71122   4.052  10.392   7.928 -0.3968  2.5772  4.0856
  527MOL0     H71123   4.232  10.159   7.936  0.0531  0.2636  0.6042
  527MOL0     H71124   4.082  10.177   7.832  0.2633 -2.4831  0.6305
  527MOL0     H71125   4.091  10.187   8.129  3.0080 -0.4204 -1.4333
  527MOL0     H71126   4.047  10.041   8.030 -3.2561 -0.8088  4.4279
  527MOL0     H71127   4.674  10.803   7.447  1.1152 -0.0856 -1.1759
  527MOL0     H71128   4.868  10.838   7.326  2.2072 -1.0622 -0.8886
  527MOL0     H71129   5.312  10.687   7.296  0.4430 -0.6476  0.7509
  527MOL0     H71130   5.523  10.620   7.253  0.8663 -0.6440 -0.9268
  527MOL0     H71131   7.307  10.527   6.910  1.6124 -1.9565  0.7500
  527MOL0     H71132   7.482  10.453   7.054 -1.4516 -0.8553 -3.7471
  527MOL0     H71133   7.893  10.591   7.284  1.2586  0.5555  0.9772
  527MOL0     H71134   8.059  10.543   7.447  1.3681 -0.3516  3.0022
  527MOL0     H71135   7.933  10.571   7.863 -0.7389 -2.2355  1.5691
  527MOL0     H71136   7.916  10.402   7.873 -2.8918  0.4432 -4.0198
  527MOL0     H71137   8.113  10.492   8.004 -1.4665  0.2344 -0.4193
  527MOL0     H71138   8.170  10.558   7.845  0.8484 -1.5280 -1.5808
  527MOL0     H71139   8.175  10.296   7.791  1.6422 -0.5768 -0.0405
  527MOL0     H71140   8.189  10.275   7.968  0.1595 -2.4720 -1.4747
  527MOL0     H71141   8.366  10.457   7.788 -3.3569  1.8021  0.6819
  527MOL0     H71142   8.419  10.303   7.862 -1.7655 -0.9212  0.4919
  527MOL0     H71143   8.493  10.482   8.201  0.6794  2.3026 -1.5558
  527MOL0     H71144   7.741  10.474   7.742 -1.0531  1.4418 -0.1409
  527MOL0     H71145   7.584  10.505   7.581  1.1647 -3.3711  2.7919
  528MOL0     O71146   7.554  10.542   6.711 -0.4385 -0.0962  0.3098
  528MOL0     C71147   7.548  10.433   6.756 -0.2938  0.4644 -0.3280
  528MOL0     O71148   7.441  10.352   6.751  0.1221 -0.2604 -0.1905
  528MOL0     C71149   7.323  10.382   6.685 -0.0733 -0.4100 -0.1697
  528MOL0     C71150   7.299  10.479   6.588  0.7374  0.4740  0.2261
  528MOL0     C71151   7.180  10.497   6.533  1.2249 -0.0624  0.7596
  528MOL0     C71152   7.066  10.429   6.580  0.0527 -0.2926  0.0705
  528MOL0     O71153   6.937  10.456   6.528 -0.2584  0.3123  0.2869
  528MOL0     C71154   6.922  10.447   6.385  0.6480  0.0838  0.7052
  528MOL0     C71155   6.768  10.445   6.367  0.1372 -0.0766 -0.9935
  528MOL0     C71156   6.728  10.434   6.217  0.0270  0.2629  0.2233
  528MOL0     C71157   6.765  10.292   6.169 -0.8846 -0.5837 -0.4167
  528MOL0     C71158   6.738  10.271   6.019  0.1297  0.2998 -0.3297
  528MOL0     C71159   6.677  10.130   5.975 -0.2000  0.0393 -0.0961
  528MOL0     C71160   6.540  10.103   6.043  0.1966  0.2548 -0.0190
  528MOL0     C71161   6.471   9.988   5.970 -0.0522  0.0676  0.5006
  528MOL0     N71162   6.329   9.951   6.002 -0.5460 -0.4005 -0.5391
  528MOL0     C71163   6.220  10.030   6.023  0.7527 -0.6990  0.1700
  528MOL0     C71164   6.114   9.951   6.064 -0.4303  0.3881  0.1700
  528MOL0     C71165   5.972   9.986   6.098  0.4144  0.0630 -0.3225
  528MOL0     C71166   5.975  10.106   6.195 -0.2715 -0.4157  0.1956
  528MOL0     C71167   5.992  10.244   6.129 -0.2859 -0.5067 -0.7118
  528MOL0     C71168   6.034  10.358   6.222  0.0352 -0.2200 -0.3931
  528MOL0     O71169   5.920  10.372   6.308  0.1991  0.5090  0.0006
  528MOL0     C71170   5.816  10.451   6.272  0.1956 -1.5017 -0.8198
  528MOL0     C71171   5.793  10.507   6.148  0.8678  0.4154  0.6783
  528MOL0     C71172   5.677  10.574   6.106 -0.3003 -0.2993 -1.1075
  528MOL0     C71173   5.682  10.638   5.972 -0.1829  0.3698  0.1239
  528MOL0     C71174   5.577  10.596   6.209 -0.7453 -0.1667 -0.4281
  528MOL0     C71175   5.461  10.679   6.181 -0.2178  0.3766  0.4296
  528MOL0     O71176   5.364  10.675   6.276 -0.4527 -0.1969  0.6697
  528MOL0     C71177   5.242  10.732   6.238  0.2081  0.4308  0.0444
  528MOL0     C71178   5.179  10.720   6.115  0.1536 -0.2732 -0.1291
  528MOL0     C71179   5.062  10.792   6.085  0.6285 -0.8367  0.4516
  528MOL0     C71180   5.003  10.867   6.187  0.7994 -0.1763  1.2441
  528MOL0     O71181   4.891  10.946   6.175 -0.3215  0.0359  0.6861
  528MOL0     C71182   4.867  11.006   6.047 -0.3170 -0.4993  0.2479
  528MOL0     C71183   4.770  11.124   6.075 -0.5858  0.4475 -0.8478
  528MOL0     C71184   4.633  11.067   6.057  0.7238 -1.0779  0.0021
  528MOL0     C71185   4.528  11.181   6.069  1.1838 -0.7140 -0.0411
  528MOL0     C71186   4.390  11.124   6.064 -0.6738  0.5712  1.2040
  528MOL0     C71187   4.356  11.044   5.934  0.4290  0.0147  0.1856
  528MOL0     C71188   4.221  10.988   5.938 -0.6416 -0.8438  0.6851
  528MOL0     C71189   4.104  11.090   5.917 -0.7983 -0.1720  0.7776
  528MOL0    Cl71190   3.945  11.010   5.885 -0.0653 -0.1811 -0.5023
  528MOL0     C71191   5.048  10.855   6.316  0.4658  0.1446  0.0600
  528MOL0     C71192   5.172  10.801   6.339 -0.0487  0.5096  0.3984
  528MOL0     O71193   5.453  10.746   6.077  0.2693 -0.7188  0.6026
  528MOL0     C71194   5.601  10.538   6.341 -0.3512 -0.2725 -0.0956
  528MOL0     C71195   5.720  10.467   6.365  0.3568  1.1439  0.5916
  528MOL0     N71196   6.170   9.825   6.079 -0.1066 -0.0833  0.2793
  528MOL0     N71197   6.287   9.825   6.034 -1.6125 -1.4498 -0.7400
  528MOL0     C71198   7.081  10.333   6.683 -0.9859  0.3148  0.0149
  528MOL0     C71199   7.216  10.309   6.733 -0.8704  0.1804 -0.4693
  528MOL0     C71200   7.662  10.361   6.818 -0.4453 -0.1633 -0.5025
  528MOL0     C71201   7.759  10.440   6.887  0.2112  0.5433  0.0976
  528MOL0     C71202   7.843  10.380   6.974  0.0775  0.0125  0.1435
  528MOL0     C71203   7.866  10.246   6.973 -0.2314 -0.5399  0.4868
  528MOL0     O71204   7.954  10.184   7.067 -0.3303 -0.2228  0.6003
  528MOL0     C71205   8.067  10.264   7.106 -0.7549  0.4222  0.3098
  528MOL0     C71206   8.172  10.171   7.161 -0.3116  0.1715  0.4878
  528MOL0     C71207   8.253  10.109   7.045  0.4394  0.1721 -0.7486
  528MOL0     C71208   8.389  10.054   7.086 -1.0136  0.7556 -0.1202
  528MOL0     C71209   8.488  10.156   7.101  0.7365 -0.6510 -0.2662
  528MOL0     C71210   8.560  10.256   7.116  0.8169 -0.1993  0.2520
  528MOL0     C71211   7.785  10.161   6.902 -0.1038 -0.3323  1.2589
  528MOL0     C71212   7.676  10.219   6.820  0.1397  0.0747 -0.3961
  528MOL0     H71213   7.375  10.544   6.546 -0.1453  0.6410 -1.1615
  528MOL0     H71214   7.168  10.583   6.468  2.0367  0.1204  0.8397
  528MOL0     H71215   6.962  10.524   6.319 -1.3047  1.1580  0.6949
  528MOL0     H71216   6.974  10.357   6.353 -0.9145 -0.9346  0.9164
  528MOL0     H71217   6.714  10.361   6.413 -3.5810  2.2591 -0.6498
  528MOL0     H71218   6.723  10.531   6.418 -1.1267  0.4444 -2.8972
  528MOL0     H71219   6.621  10.439   6.195 -0.5201 -4.2723  0.8935
  528MOL0     H71220   6.779  10.511   6.158 -1.2511  3.7262  3.1831
  528MOL0     H71221   6.870  10.267   6.186 -0.6590 -0.3455 -1.4022
  528MOL0     H71222   6.709  10.226   6.236  1.2383  0.1747  2.2723
  528MOL0     H71223   6.670  10.349   5.983 -0.8680 -1.2886 -2.1157
  528MOL0     H71224   6.835  10.282   5.970 -1.3464  3.1614 -3.0119
  528MOL0     H71225   6.667  10.122   5.866 -1.0653 -1.8910  0.0769
  528MOL0     H71226   6.747  10.057   6.016 -1.1165 -0.5317  0.5038
  528MOL0     H71227   6.539  10.087   6.151 -1.3177 -0.6271 -0.1280
  528MOL0     H71228   6.481  10.194   6.029 -0.1887 -0.2773 -2.2725
  528MOL0     H71229   6.530   9.904   6.008 -1.1860 -0.3042  1.5137
  528MOL0     H71230   6.481   9.999   5.862 -4.6641 -1.2589 -0.2639
  528MOL0     H71231   6.208  10.135   5.999  3.3005 -0.2307  0.5926
  528MOL0     H71232   5.921  10.007   6.003  0.5007 -0.4410 -0.4821
  528MOL0     H71233   5.919   9.905   6.149 -1.2990  1.5060  0.3497
  528MOL0     H71234   6.057  10.095   6.267  0.4745 -0.2989 -0.6255
  528MOL0     H71235   5.885  10.103   6.257 -0.6870  1.3479 -0.2912
  528MOL0     H71236   5.891  10.254   6.090 -0.7786 -0.3138  0.5602
  528MOL0     H71237   6.057  10.243   6.041 -0.6709 -0.4931 -0.9949
  528MOL0     H71238   6.057  10.453   6.172 -0.2795  1.5687  2.6017
  528MOL0     H71239   6.117  10.336   6.289  0.3639  2.7325  0.3461
  528MOL0     H71240   5.871  10.491   6.075  1.2256 -3.2905  1.6721
  528MOL0     H71241   5.598  10.608   5.908  2.6887 -0.3629 -3.7243
  528MOL0     H71242   5.693  10.745   5.992  3.6840 -0.3837  3.1832
  528MOL0     H71243   5.772  10.602   5.921 -0.2186 -3.7323  2.5402
  528MOL0     H71244   5.217  10.673   6.025 -0.5631  0.7120 -0.9719
  528MOL0     H71245   5.031  10.801   5.982  0.2235 -0.9411  0.5624
  528MOL0     H71246   4.962  11.048   6.015 -0.9222  0.5621 -0.2106
  528MOL0     H71247   4.827  10.934   5.974  1.3575 -3.1374  1.7465
  528MOL0     H71248   4.790  11.167   6.173  1.6422 -0.6276 -0.7507
  528MOL0     H71249   4.782  11.202   5.999 -0.6652  2.0851  0.7592
  528MOL0     H71250   4.610  10.986   6.126  1.0203  0.0822  1.5176
  528MOL0     H71251   4.623  11.019   5.959 -2.1968 -0.3422 -0.1521
  528MOL0     H71252   4.535  11.223   6.170 -0.7052 -0.0372 -0.1615
  528MOL0     H71253   4.548  11.262   5.998 -0.2063  0.1327  0.4923
  528MOL0     H71254   4.317  11.199   6.097 -4.8153 -3.2528  1.8419
  528MOL0     H71255   4.372  11.047   6.141 -0.7493 -0.4207  0.2264
  528MOL0     H71256   4.364  11.109   5.846 -0.6902 -1.4427 -1.0416
  528MOL0     H71257   4.432  10.970   5.910  0.5402  0.6533 -1.6381
  528MOL0     H71258   4.192  10.936   6.031 -2.8901 -3.7152 -1.4190
  528MOL0     H71259   4.213  10.906   5.866  2.7633  0.7133 -1.7423
  528MOL0     H71260   4.141  11.147   5.832  0.7948  0.0942  1.6202
  528MOL0     H71261   4.099  11.157   6.004  1.8454  0.0134  0.8497
  528MOL0     H71262   4.991  10.910   6.390  0.3684  1.7423 -1.1510
  528MOL0     H71263   5.194  10.805   6.445 -0.3300 -2.7135  0.7063
  528MOL0     H71264   5.528  10.559   6.419  0.3245  1.3426  0.1458
  528MOL0     H71265   5.743  10.416   6.458 -0.2122 -1.7800 -0.7453
  528MOL0     H71266   6.989  10.283   6.714 -2.1614  1.9904 -0.6495
  528MOL0     H71267   7.225  10.233   6.810 -4.9199 -0.1593 -0.0942
  528MOL0     H71268   7.748  10.547   6.899 -1.7566  0.6294 -1.8371
  528MOL0     H71269   7.901  10.448   7.036 -1.7879  1.5879  0.2539
  528MOL0     H71270   8.119  10.321   7.028 -0.4608  1.6285  1.3481
  528MOL0     H71271   8.041  10.338   7.182  0.6986 -1.4091  2.7486
  528MOL0     H71272   8.123  10.093   7.220 -0.9976 -0.1661 -0.5048
  528MOL0     H71273   8.239  10.224   7.229 -0.6716  1.3139 -0.0219
  528MOL0     H71274   8.252  10.184   6.965 -0.3503  2.1123  0.9957
  528MOL0     H71275   8.209  10.016   7.006  0.9619 -1.2002  1.7208
  528MOL0     H71276   8.431   9.986   7.012 -2.7146 -1.6915  1.0533
  528MOL0     H71277   8.387   9.992   7.176  1.1310  0.2913 -0.3478
  528MOL0     H71278   8.624  10.341   7.129 -0.6798  0.6296  2.8595
  528MOL0     H71279   7.797  10.054   6.902 -2.0587 -0.6674 -1.2574
  528MOL0     H71280   7.617  10.151   6.761 -2.3363  1.4011  0.4149
  529MOL0     O71281   0.402   6.648   0.837  0.2440 -0.0744 -0.0281
  529MOL0     C71282   0.338   6.588   0.921  1.0884  0.7421 -0.7025
  529MOL0     O71283   0.363   6.581   1.058 -0.1766 -0.0883 -0.3659
  529MOL0     C71284   0.472   6.641   1.116  0.4605 -0.1833  1.5405
  529MOL0     C71285   0.524   6.578   1.218 -0.7709 -0.6615 -0.0604
  529MOL0     C71286   0.628   6.648   1.294 -0.6012 -0.0016 -1.0546
  529MOL0     C71287   0.661   6.785   1.274  1.3604  0.7866 -0.4806
  529MOL0     O71288   0.724   6.850   1.368 -0.2928  0.4276  0.3611
  529MOL0     C71289   0.830   6.934   1.329 -0.6799 -0.5047 -0.1531
  529MOL0     C71290   0.966   6.876   1.305  0.1637  0.2848 -0.3323
  529MOL0     C71291   1.059   6.988   1.280 -0.2481 -0.2490  0.1051
  529MOL0     C71292   1.206   6.944   1.244  0.7496  0.0825 -1.1243
  529MOL0     C71293   1.283   6.895   1.371  1.1982 -0.3980 -0.2299
  529MOL0     C71294   1.407   6.831   1.329  0.1965 -0.0464  0.6899
  529MOL0     C71295   1.520   6.922   1.268 -0.5776 -0.3779  1.1508
  529MOL0     C71296   1.629   6.850   1.190 -0.0143  0.0830 -0.6717
  529MOL0     N71297   1.579   6.791   1.071 -0.0692 -0.4475  0.1325
  529MOL0     C71298   1.563   6.656   1.031 -0.1161 -0.3516  0.3258
  529MOL0     C71299   1.507   6.661   0.905 -0.5585 -0.0903  0.8678
  529MOL0     C71300   1.498   6.544   0.811  0.5715 -0.6555  0.3636
  529MOL0     C71301   1.574   6.557   0.683  0.1222  0.2108  1.0681
  529MOL0     C71302   1.594   6.419   0.607  0.5222  0.4348 -0.0225
  529MOL0     C71303   1.605   6.436   0.454  0.5071 -0.4813 -0.6406
  529MOL0     O71304   1.740   6.485   0.430  0.3018  0.2847 -0.3860
  529MOL0     C71305   1.782   6.552   0.321  0.0624  0.5755 -0.4037
  529MOL0     C71306   1.705   6.556   0.205 -0.4556  0.2848  0.0448
  529MOL0     C71307   1.765   6.611   0.084  0.3867 -0.1560  0.0432
  529MOL0     C71308   1.672   6.588  -0.030  0.4728  0.0222 -0.1306
  529MOL0     C71309   1.895   6.663   0.085  0.2673  0.6235  0.1058
  529MOL0     C71310   1.964   6.718  -0.029 -0.1976 -0.0414  0.0281
  529MOL0     O71311   2.028   6.836  -0.001  0.3789 -0.4820 -0.7013
  529MOL0     C71312   2.142   6.850  -0.071  0.2926  0.3740  0.0582
  529MOL0     C71313   2.240   6.752  -0.070 -0.3637 -0.0908 -0.1235
  529MOL0     C71314   2.351   6.774  -0.146  0.1882 -0.6109  0.5924
  529MOL0     C71315   2.368   6.891  -0.224 -0.4120  0.4304  0.0963
  529MOL0     O71316   2.474   6.911  -0.320  0.3457  0.7547  0.4534
  529MOL0     C71317   2.591   6.825  -0.302 -0.3203 -0.1461 -0.4240
  529MOL0     C71318   2.690   6.881  -0.405  0.2385 -0.2850 -0.7604
  529MOL0     C71319   2.784   6.991  -0.356 -0.0751  0.4889 -0.0084
  529MOL0     C71320   2.856   7.065  -0.471 -0.1908  0.0765  0.6487
  529MOL0     C71321   2.767   7.116  -0.588 -0.3938  0.8772  0.1277
  529MOL0     C71322   2.651   7.213  -0.545 -1.0034 -0.0082  0.1746
  529MOL0     C71323   2.708   7.347  -0.478  0.4343 -0.5125  0.6578
  529MOL0     C71324   2.610   7.466  -0.471  0.2281 -0.2684  0.1105
  529MOL0    Cl71325   2.482   7.420  -0.357  0.2951 -0.0129 -0.1430
  529MOL0     C71326   2.277   6.988  -0.213  0.6831  0.2748  0.4672
  529MOL0     C71327   2.157   6.968  -0.146  0.2066  0.1386 -0.0245
  529MOL0     O71328   1.980   6.648  -0.126  0.0415 -0.3353 -0.4580
  529MOL0     C71329   1.961   6.660   0.211  0.0306  0.1235  0.1129
  529MOL0     C71330   1.906   6.605   0.329  0.3144 -0.2344 -0.6047
  529MOL0     N71331   1.500   6.791   0.864 -0.4433  0.0332  0.0893
  529MOL0     N71332   1.529   6.868   0.966 -0.5712 -1.3400  0.7088
  529MOL0     C71333   0.578   6.848   1.179 -0.1017 -0.1987 -0.0806
  529MOL0     C71334   0.497   6.776   1.095  0.1081  1.2754  0.7577
  529MOL0     C71335   0.211   6.520   0.870 -0.0656 -0.0079  0.0689
  529MOL0     C71336   0.175   6.513   0.738  0.4597 -0.8530 -0.1369
  529MOL0     C71337   0.057   6.439   0.699 -0.0689 -0.5994 -0.6838
  529MOL0     C71338  -0.021   6.374   0.794  0.0148  0.8239 -0.5859
  529MOL0     O71339  -0.120   6.281   0.763 -0.2287  0.5858  0.0526
  529MOL0     C71340  -0.197   6.286   0.637 -0.9196 -0.6106  0.5991
  529MOL0     C71341  -0.310   6.185   0.623  0.3255  0.0548 -0.5001
  529MOL0     C71342  -0.419   6.199   0.734  0.1509  1.0637  0.0943
  529MOL0     C71343  -0.531   6.093   0.714 -1.4265 -0.3989  1.1673
  529MOL0     C71344  -0.604   6.111   0.594 -0.5903 -0.5521  0.5422
  529MOL0     C71345  -0.677   6.120   0.494 -0.6871  0.1238  0.2590
  529MOL0     C71346   0.023   6.372   0.931  0.0119 -0.5857  0.2836
  529MOL0     C71347   0.135   6.445   0.965  0.0307  0.0394 -0.3307
  529MOL0     H71348   0.505   6.472   1.236  1.1792 -0.9632  0.4442
  529MOL0     H71349   0.676   6.604   1.381 -0.3159  0.3769 -1.0173
  529MOL0     H71350   0.802   6.977   1.233 -1.5702  3.2030  1.5715
  529MOL0     H71351   0.834   7.018   1.399 -0.3867  0.2263 -1.0409
  529MOL0     H71352   1.006   6.813   1.385  0.9315  0.6153 -0.4467
  529MOL0     H71353   0.971   6.819   1.211  1.5737  1.4503 -1.0053
  529MOL0     H71354   1.017   7.055   1.205 -0.4600  1.3190  1.5817
  529MOL0     H71355   1.061   7.042   1.375  1.8389 -3.1021  1.8590
  529MOL0     H71356   1.197   6.863   1.171  0.8513  0.8101 -1.9621
  529MOL0     H71357   1.261   7.025   1.195 -0.9004  0.6913 -2.0540
  529MOL0     H71358   1.309   6.983   1.431 -1.3970  0.7080 -0.5847
  529MOL0     H71359   1.209   6.835   1.426 -0.3119  2.0668  0.6106
  529MOL0     H71360   1.447   6.777   1.415  1.0856  0.7773  0.8229
  529MOL0     H71361   1.376   6.757   1.255  0.7708  1.4138 -1.1146
  529MOL0     H71362   1.468   6.997   1.207  0.1979  0.1343  1.1084
  529MOL0     H71363   1.573   6.977   1.346  1.4279  0.1972 -0.5130
  529MOL0     H71364   1.679   6.781   1.258  3.2395  1.8280 -1.0588
  529MOL0     H71365   1.699   6.926   1.153 -1.7475  2.0431 -0.1436
  529MOL0     H71366   1.577   6.569   1.094 -4.3556 -1.7575 -0.3308
  529MOL0     H71367   1.545   6.461   0.865  2.0204 -0.8206 -1.0741
  529MOL0     H71368   1.393   6.526   0.789 -0.1617 -0.1290  3.0202
  529MOL0     H71369   1.667   6.611   0.704 -0.0699  0.7079  0.6497
  529MOL0     H71370   1.517   6.615   0.610 -2.0054  0.4532  2.8404
  529MOL0     H71371   1.499   6.365   0.619  0.0897  1.3397  0.7431
  529MOL0     H71372   1.669   6.352   0.648  1.5280  0.8594 -1.0962
  529MOL0     H71373   1.526   6.506   0.424 -0.0886 -1.3929 -1.2560
  529MOL0     H71374   1.598   6.338   0.406  6.0838 -0.9389 -1.2091
  529MOL0     H71375   1.604   6.514   0.203 -0.7394  0.7210  2.4916
  529MOL0     H71376   1.703   6.493  -0.074  1.0272  0.0471  0.1960
  529MOL0     H71377   1.566   6.578  -0.006  0.6604  2.7249  2.3814
  529MOL0     H71378   1.685   6.672  -0.098  0.7316  1.2472  1.3778
  529MOL0     H71379   2.223   6.667  -0.006  2.0742  0.3156  1.1717
  529MOL0     H71380   2.423   6.693  -0.153  2.1427  1.1682 -3.0308
  529MOL0     H71381   2.632   6.846  -0.202 -1.6591 -2.0969  0.6017
  529MOL0     H71382   2.571   6.718  -0.312 -2.7437  0.4327 -3.0101
  529MOL0     H71383   2.751   6.793  -0.430 -0.4907 -0.9606 -0.2152
  529MOL0     H71384   2.625   6.906  -0.489  0.8242  1.2310 -0.8021
  529MOL0     H71385   2.856   6.939  -0.292  0.0984 -0.4177 -0.9033
  529MOL0     H71386   2.736   7.068  -0.295  4.1195  2.6869  0.9116
  529MOL0     H71387   2.912   7.155  -0.443 -1.2379  2.4748 -3.8945
  529MOL0     H71388   2.928   6.997  -0.518  0.8143  1.8703 -0.5163
  529MOL0     H71389   2.733   7.032  -0.649  3.4492 -0.8871  0.1077
  529MOL0     H71390   2.836   7.168  -0.655  1.9601 -0.8312  1.0752
  529MOL0     H71391   2.609   7.242  -0.642  0.7127  1.0563 -0.3022
  529MOL0     H71392   2.584   7.154  -0.482 -2.6531  0.0405 -1.4524
  529MOL0     H71393   2.797   7.373  -0.537  0.9279 -1.2978  1.0428
  529MOL0     H71394   2.739   7.322  -0.377  1.2122 -4.1414 -0.3383
  529MOL0     H71395   2.571   7.480  -0.572 -1.7092  0.1599  0.8643
  529MOL0     H71396   2.654   7.563  -0.444  0.5689 -0.3273 -0.2263
  529MOL0     H71397   2.309   7.080  -0.262  0.8829  0.7156  1.3948
  529MOL0     H71398   2.084   7.047  -0.141  1.5266  1.4742 -1.0026
  529MOL0     H71399   2.057   6.709   0.210  0.3088 -0.3677 -2.1728
  529MOL0     H71400   1.964   6.589   0.420 -0.3803 -0.9372 -0.2752
  529MOL0     H71401   0.573   6.955   1.161 -0.5239 -0.6822 -3.4250
  529MOL0     H71402   0.441   6.836   1.023  4.2404  4.0245 -0.5367
  529MOL0     H71403   0.240   6.563   0.667  1.5116 -1.6634  0.2369
  529MOL0     H71404   0.019   6.445   0.597  0.9728  2.2605 -1.0018
  529MOL0     H71405  -0.235   6.388   0.624  2.8563  0.7842 -1.2328
  529MOL0     H71406  -0.127   6.272   0.554 -1.9437 -0.9458 -0.2178
  529MOL0     H71407  -0.270   6.084   0.628  0.1444 -0.0427 -0.9642
  529MOL0     H71408  -0.359   6.195   0.525  1.6300 -1.2023 -1.3236
  529MOL0     H71409  -0.470   6.296   0.740 -1.4117  0.3223 -0.7231
  529MOL0     H71410  -0.361   6.179   0.825 -0.2222  1.8724  0.5207
  529MOL0     H71411  -0.596   6.100   0.801 -4.7200  0.7362 -1.1610
  529MOL0     H71412  -0.492   5.991   0.712  1.3269  0.5703 -0.2625
  529MOL0     H71413  -0.747   6.121   0.413  0.0034  2.7042 -0.3822
  529MOL0     H71414  -0.032   6.305   0.996 -1.6650 -0.6777 -1.1668
  529MOL0     H71415   0.165   6.432   1.069  0.2652  2.2468 -0.0780
  530MOL0     O71416   3.545   8.781   5.289 -0.5659 -0.5396  0.5885
  530MOL0     C71417   3.571   8.837   5.183 -0.1243  0.1954 -1.0749
  530MOL0     O71418   3.478   8.915   5.112  0.1842  0.1538  0.4569
  530MOL0     C71419   3.348   8.898   5.145  1.0650 -1.2350  0.0712
  530MOL0     C71420   3.256   8.817   5.079  0.6214 -0.4476  1.1614
  530MOL0     C71421   3.119   8.810   5.107 -0.3324  0.0946 -0.5500
  530MOL0     C71422   3.074   8.893   5.210  0.3901  0.4037 -0.6183
  530MOL0     O71423   2.942   8.889   5.262  0.0275 -0.0371  0.2834
  530MOL0     C71424   2.849   8.960   5.175  0.0263  0.1255 -1.4074
  530MOL0     C71425   2.716   8.928   5.231 -0.5696 -0.7588  0.7725
  530MOL0     C71426   2.600   9.031   5.186 -0.4667  0.5795  0.7989
  530MOL0     C71427   2.506   9.066   5.297  0.2831 -0.9421  1.1596
  530MOL0     C71428   2.385   9.144   5.235 -0.3526  0.1275 -0.6648
  530MOL0     C71429   2.284   9.180   5.347 -0.9180  0.4033 -1.0329
  530MOL0     C71430   2.190   9.286   5.291 -0.0726  0.9623 -0.3044
  530MOL0     C71431   2.070   9.211   5.235  1.0030  0.0913 -0.6705
  530MOL0     N71432   1.951   9.301   5.200 -0.3577 -0.1799  0.3292
  530MOL0     C71433   1.968   9.377   5.088  0.1428  0.3497 -0.0229
  530MOL0     C71434   1.843   9.407   5.049 -0.4418 -0.6869  0.1542
  530MOL0     C71435   1.803   9.499   4.939 -0.6860  0.5469  0.7335
  530MOL0     C71436   1.651   9.548   4.957  0.5454 -0.1404  0.1990
  530MOL0     C71437   1.544   9.455   4.916  0.7676 -0.0247 -0.2904
  530MOL0     C71438   1.403   9.512   4.939  0.4591 -0.4576  0.2507
  530MOL0     O71439   1.389   9.637   4.862  0.4218  0.1142  0.3076
  530MOL0     C71440   1.277   9.716   4.869  0.3941 -0.0319 -0.8063
  530MOL0     C71441   1.174   9.687   4.958 -0.3156 -0.7305  0.0868
  530MOL0     C71442   1.047   9.751   4.941 -0.4269 -0.4374 -0.2185
  530MOL0     C71443   0.934   9.724   5.042 -0.4068 -0.7871  0.2108
  530MOL0     C71444   1.024   9.854   4.834 -0.5503  0.5112 -0.8154
  530MOL0     C71445   0.898   9.932   4.795  0.4956  0.3214  0.5673
  530MOL0     O71446   0.783   9.893   4.856  0.0914 -0.1613  0.1181
  530MOL0     C71447   0.660   9.944   4.846  0.5027 -0.1474 -0.0328
  530MOL0     C71448   0.563   9.844   4.855  0.4487 -0.3037  0.2577
  530MOL0     C71449   0.424   9.878   4.851 -0.1239  0.6306 -0.7062
  530MOL0     C71450   0.388  10.013   4.849 -0.5597 -0.0878  0.4185
  530MOL0     O71451   0.254  10.042   4.855  0.1862 -0.0804  0.1609
  530MOL0     C71452   0.219  10.062   4.991  0.4450  0.7530 -0.4395
  530MOL0     C71453   0.064  10.082   4.989  0.6451 -0.3407 -0.3122
  530MOL0     C71454   0.015  10.078   5.134  0.0653  0.5982  0.1019
  530MOL0     C71455  -0.137  10.103   5.140  0.2286 -0.2901  0.8821
  530MOL0     C71456  -0.226  10.012   5.048  0.1046 -0.3440 -0.2132
  530MOL0     C71457  -0.358   9.980   5.115  1.2026  0.6465 -0.0136
  530MOL0     C71458  -0.438   9.870   5.025  0.3312 -0.2454  0.1609
  530MOL0     C71459  -0.520   9.929   4.911  0.0041 -0.1657 -0.1827
  530MOL0    Cl71460  -0.606   9.801   4.831  0.2840 -0.3970  0.0695
  530MOL0     C71461   0.490  10.110   4.850 -0.6401  0.6642  1.3519
  530MOL0     C71462   0.624  10.081   4.837 -0.3089  0.2080 -0.2313
  530MOL0     O71463   0.899  10.024   4.718  0.3267  0.3669 -0.1939
  530MOL0     C71464   1.135   9.872   4.747 -1.0345 -0.2772 -0.0723
  530MOL0     C71465   1.257   9.807   4.767 -0.0150  0.9417 -0.3210
  530MOL0     N71466   1.751   9.355   5.146 -0.5872 -0.7298  0.0026
  530MOL0     N71467   1.820   9.291   5.237  0.5781 -0.1330  0.4431
  530MOL0     C71468   3.158   8.980   5.274 -0.0356 -1.0497  0.8405
  530MOL0     C71469   3.297   8.985   5.244 -0.4694 -0.0664  0.9788
  530MOL0     C71470   3.706   8.846   5.140  0.1635 -0.2383 -0.1713
  530MOL0     C71471   3.818   8.804   5.224 -0.0315 -0.5792  1.3035
  530MOL0     C71472   3.954   8.801   5.176  0.2481  0.2601 -0.5219
  530MOL0     C71473   3.984   8.853   5.045 -0.2269  0.8047 -0.6108
  530MOL0     O71474   4.105   8.844   4.978 -0.0315 -0.1553 -0.3375
  530MOL0     C71475   4.208   8.788   5.050  0.3243  0.0204 -0.1895
  530MOL0     C71476   4.320   8.748   4.954  0.6238 -0.1380  0.3231
  530MOL0     C71477   4.424   8.643   5.006 -0.0626 -0.2613  0.2032
  530MOL0     C71478   4.568   8.694   4.975 -1.2970  0.2180 -0.1552
  530MOL0     C71479   4.656   8.582   5.012  0.3782  0.5811  0.2769
  530MOL0     C71480   4.731   8.494   5.048  0.1644 -0.6302  0.4747
  530MOL0     C71481   3.864   8.888   4.969 -0.7250  0.3279 -0.0784
  530MOL0     C71482   3.735   8.892   5.015 -0.4044 -0.8305 -0.4271
  530MOL0     H71483   3.295   8.742   5.011  0.4228  0.4292  0.0451
  530MOL0     H71484   3.049   8.741   5.062 -0.7052 -0.3179  0.6475
  530MOL0     H71485   2.871   9.067   5.182 -1.4205  0.3286  3.4606
  530MOL0     H71486   2.851   8.931   5.069  1.3409  2.3403 -2.0687
  530MOL0     H71487   2.689   8.827   5.201 -2.5642  0.2649 -1.2139
  530MOL0     H71488   2.719   8.942   5.340 -1.6946 -2.1396  1.0093
  530MOL0     H71489   2.634   9.125   5.142 -2.6668  1.0915  0.0298
  530MOL0     H71490   2.554   8.965   5.111  3.4089 -2.3566  0.6774
  530MOL0     H71491   2.469   8.974   5.343 -4.8756  0.5929  0.7033
  530MOL0     H71492   2.542   9.132   5.376 -0.2891  2.3784 -1.1556
  530MOL0     H71493   2.421   9.234   5.185 -1.4148  0.7905 -0.2747
  530MOL0     H71494   2.345   9.078   5.157  2.1915 -4.2683  1.3669
  530MOL0     H71495   2.237   9.086   5.377 -1.1011  0.8948  0.2673
  530MOL0     H71496   2.336   9.228   5.430  1.5685 -0.2810 -2.1030
  530MOL0     H71497   2.167   9.359   5.369  0.0368  0.9854 -0.2935
  530MOL0     H71498   2.235   9.340   5.206 -0.7408  1.2958 -0.4562
  530MOL0     H71499   2.041   9.145   5.317  3.2407  1.9000  1.7578
  530MOL0     H71500   2.091   9.151   5.146  1.0913 -2.7826  1.1581
  530MOL0     H71501   2.062   9.411   5.045 -0.6597 -0.0856 -2.2869
  530MOL0     H71502   1.873   9.581   4.958  0.5900 -0.3206 -0.0437
  530MOL0     H71503   1.820   9.464   4.837 -0.0453  1.0584  0.6586
  530MOL0     H71504   1.634   9.637   4.897  3.5148 -1.6854 -3.3397
  530MOL0     H71505   1.630   9.574   5.061 -1.0080  0.5944 -0.2657
  530MOL0     H71506   1.553   9.356   4.961 -1.9287 -1.6445 -2.8950
  530MOL0     H71507   1.562   9.429   4.811 -0.3312  1.4006 -0.8587
  530MOL0     H71508   1.386   9.538   5.043  1.7327  2.6620 -0.2226
  530MOL0     H71509   1.338   9.429   4.908  2.7654 -1.5372 -2.0588
  530MOL0     H71510   1.179   9.606   5.030  0.9929  0.1844  1.0552
  530MOL0     H71511   0.912   9.807   5.110 -2.1782 -0.7675 -0.3479
  530MOL0     H71512   0.835   9.693   5.007 -0.7183 -0.1864  0.5497
  530MOL0     H71513   0.968   9.649   5.114  0.4231 -2.6918 -2.0464
  530MOL0     H71514   0.604   9.745   4.876 -2.0233 -1.2182  1.2241
  530MOL0     H71515   0.356   9.794   4.851 -1.5981  1.7516  0.5625
  530MOL0     H71516   0.234   9.973   5.053 -0.1826  0.4146 -0.7675
  530MOL0     H71517   0.266  10.149   5.038 -1.0698  0.5678  1.5068
  530MOL0     H71518   0.039  10.171   4.932  3.7053  0.2886 -0.8505
  530MOL0     H71519   0.021  10.002   4.928 -1.5880 -0.0258  0.7359
  530MOL0     H71520   0.059  10.163   5.186  1.6208 -0.8459  1.2424
  530MOL0     H71521   0.040   9.989   5.194  0.7190 -0.1214 -1.1934
  530MOL0     H71522  -0.165  10.093   5.245 -0.2577 -1.9448  0.6215
  530MOL0     H71523  -0.158  10.200   5.094 -0.3628 -1.1916 -0.8146
  530MOL0     H71524  -0.179   9.919   5.016 -2.9990 -1.5046 -1.8290
  530MOL0     H71525  -0.246  10.069   4.956 -1.7989  0.8712  0.8629
  530MOL0     H71526  -0.349   9.949   5.220 -0.7844  0.7524  0.2269
  530MOL0     H71527  -0.427  10.064   5.123 -0.1200 -0.5713  3.5488
  530MOL0     H71528  -0.495   9.804   5.090  0.3739  0.7097  1.1969
  530MOL0     H71529  -0.362   9.808   4.975 -0.2884 -1.7493  1.0236
  530MOL0     H71530  -0.453   9.980   4.841 -2.6218  0.5958 -2.3397
  530MOL0     H71531  -0.598   9.999   4.943  0.2981  0.2493 -0.3714
  530MOL0     H71532   0.459  10.212   4.830 -0.5359  0.5553  0.5945
  530MOL0     H71533   0.698  10.157   4.815  1.2621 -1.0268  0.5813
  530MOL0     H71534   1.123   9.953   4.676 -0.6675  1.1390  1.4039
  530MOL0     H71535   1.341   9.826   4.700  0.0753  0.0461 -0.4738
  530MOL0     H71536   3.121   9.046   5.352  2.2083 -0.1236  1.1938
  530MOL0     H71537   3.372   9.044   5.296  0.7036 -1.4225  0.8983
  530MOL0     H71538   3.803   8.787   5.330  1.1013  0.1404  1.5966
  530MOL0     H71539   4.029   8.758   5.240 -0.8229  0.0600  0.6340
  530MOL0     H71540   4.254   8.838   5.135 -1.4529  1.0558  0.2098
  530MOL0     H71541   4.176   8.690   5.088 -0.9327  0.8067  0.8606
  530MOL0     H71542   4.376   8.841   4.938 -2.4908  1.4943 -2.2035
  530MOL0     H71543   4.280   8.725   4.855  1.0433 -0.4443  0.2187
  530MOL0     H71544   4.407   8.547   4.955 -0.4105 -0.3048  0.4003
  530MOL0     H71545   4.414   8.626   5.113 -3.6785  0.5374  0.1117
  530MOL0     H71546   4.606   8.778   5.034  2.6055 -0.9366 -0.7371
  530MOL0     H71547   4.581   8.719   4.869 -1.7557  2.4404  0.2553
  530MOL0     H71548   4.804   8.420   5.075  1.1642  0.3435  0.5078
  530MOL0     H71549   3.886   8.942   4.878  1.4275  1.0716  0.8182
  530MOL0     H71550   3.660   8.938   4.951  1.2538  0.0326 -1.8343
  531MOL0     O71551   3.587   5.944   3.191  0.6250 -0.4763  0.2897
  531MOL0     C71552   3.478   5.988   3.244 -0.6036  0.2436 -0.5669
  531MOL0     O71553   3.482   6.072   3.352 -0.1088 -0.4434 -0.1387
  531MOL0     C71554   3.600   6.109   3.412 -0.7069  0.7489 -0.0467
  531MOL0     C71555   3.637   6.245   3.437  0.2663  0.3145  0.1842
  531MOL0     C71556   3.751   6.290   3.501  0.3556 -0.0424 -0.2331
  531MOL0     C71557   3.845   6.194   3.539  0.2736  0.2195 -0.6982
  531MOL0     O71558   3.967   6.218   3.598  0.1466 -0.9304 -0.2676
  531MOL0     C71559   3.961   6.300   3.721 -0.5536 -0.5458  0.5949
  531MOL0     C71560   4.042   6.423   3.687 -0.4606 -0.0066 -0.3809
  531MOL0     C71561   4.057   6.517   3.805  1.0787 -0.3228 -0.1461
  531MOL0     C71562   3.923   6.608   3.828  0.9071 -0.4730 -0.0224
  531MOL0     C71563   3.933   6.749   3.768 -0.0930 -1.4970 -0.2366
  531MOL0     C71564   3.815   6.848   3.815  0.1192  0.6261 -0.4466
  531MOL0     C71565   3.828   6.995   3.769 -0.4360  1.1569  0.4226
  531MOL0     C71566   3.741   7.088   3.842  0.7892  0.3549  0.5904
  531MOL0     N71567   3.610   7.121   3.780 -0.0964  0.5491 -0.7701
  531MOL0     C71568   3.548   7.244   3.799 -0.2371  0.4862 -0.3046
  531MOL0     C71569   3.440   7.242   3.719  0.2521  0.1034 -0.7266
  531MOL0     C71570   3.357   7.367   3.702 -0.3976 -0.2119  0.4143
  531MOL0     C71571   3.265   7.388   3.829  0.0609 -0.6584 -0.3337
  531MOL0     C71572   3.166   7.278   3.838  0.6235 -0.3546  0.3883
  531MOL0     C71573   3.060   7.282   3.949 -0.5858 -0.3979 -1.1087
  531MOL0     O71574   2.987   7.155   3.951  0.3258 -0.0201 -0.5782
  531MOL0     C71575   2.878   7.128   3.858  1.0082  0.6004  1.1316
  531MOL0     C71576   2.819   6.999   3.859  0.0505  0.1769 -0.6046
  531MOL0     C71577   2.703   6.971   3.787 -0.5857 -0.8923 -0.0973
  531MOL0     C71578   2.635   6.843   3.810 -0.0095  0.0672 -0.9634
  531MOL0     C71579   2.658   7.071   3.702  0.4419  0.4315 -0.1487
  531MOL0     C71580   2.551   7.046   3.601  1.0405  0.2513  1.0403
  531MOL0     O71581   2.515   6.921   3.566 -0.8411  0.5109  0.0498
  531MOL0     C71582   2.442   6.881   3.451  0.0783 -0.7066  0.0773
  531MOL0     C71583   2.390   6.748   3.439  1.4620  0.7972 -0.9438
  531MOL0     C71584   2.308   6.708   3.331 -0.6917  0.3592 -0.1640
  531MOL0     C71585   2.292   6.800   3.227  0.5967 -0.4690 -0.3998
  531MOL0     O71586   2.198   6.775   3.129 -0.5090 -0.4345 -0.4093
  531MOL0     C71587   2.225   6.821   2.999 -0.6430 -0.1463  0.3699
  531MOL0     C71588   2.374   6.788   2.958 -0.8158 -0.3833  0.3562
  531MOL0     C71589   2.432   6.908   2.878  0.1170  0.2846  0.8121
  531MOL0     C71590   2.531   6.996   2.953 -0.2220  0.5428 -0.2905
  531MOL0     C71591   2.644   6.925   3.030  0.3639 -0.1741 -0.4279
  531MOL0     C71592   2.782   6.954   2.969 -0.2436 -0.1933 -0.4996
  531MOL0     C71593   2.892   6.869   3.042  0.5651 -0.7315 -0.2603
  531MOL0     C71594   3.029   6.877   2.980  0.1028 -0.8914  0.1945
  531MOL0    Cl71595   3.156   6.801   3.087 -0.0838  0.2924 -0.1963
  531MOL0     C71596   2.348   6.931   3.235  0.3296 -0.0297 -0.4103
  531MOL0     C71597   2.426   6.964   3.342 -0.0035  0.2803 -0.3172
  531MOL0     O71598   2.494   7.145   3.555  0.3894 -0.6080  0.0586
  531MOL0     C71599   2.721   7.194   3.697 -0.3485  0.4063  0.1434
  531MOL0     C71600   2.827   7.229   3.774  0.3130 -0.1877 -0.3592
  531MOL0     N71601   3.444   7.120   3.657 -0.0422  0.2416  0.6375
  531MOL0     N71602   3.545   7.048   3.687  0.3010 -0.6202 -0.0117
  531MOL0     C71603   3.812   6.057   3.530 -0.0925 -0.4003  0.4042
  531MOL0     C71604   3.695   6.020   3.462  0.0655  0.8171 -0.5445
  531MOL0     C71605   3.352   5.960   3.180 -0.3308 -0.4043  0.3396
  531MOL0     C71606   3.236   6.030   3.225 -0.2192 -0.6784  0.7264
  531MOL0     C71607   3.113   5.999   3.166 -0.0951 -0.1708  0.4842
  531MOL0     C71608   3.105   5.904   3.067  0.6646 -0.4640  0.3523
  531MOL0     O71609   2.984   5.883   3.011  0.5219  0.6505 -0.5188
  531MOL0     C71610   2.978   5.802   2.894  1.0565  0.0646  0.6163
  531MOL0     C71611   2.846   5.822   2.813 -0.2308  0.5671  0.2598
  531MOL0     C71612   2.856   5.942   2.715 -0.8016  0.3642  0.0386
  531MOL0     C71613   2.721   5.987   2.649  0.5119  0.3424 -0.4439
  531MOL0     C71614   2.730   6.075   2.530 -0.0287 -0.6667 -0.6952
  531MOL0     C71615   2.727   6.148   2.433  0.3894 -0.0637  0.3050
  531MOL0     C71616   3.217   5.842   3.027 -0.6770 -0.2929  0.1126
  531MOL0     C71617   3.347   5.869   3.077  0.7666 -0.3395  0.1859
  531MOL0     H71618   3.573   6.329   3.412  0.3149  0.8195  1.6706
  531MOL0     H71619   3.780   6.393   3.520  3.6515 -1.0156  0.4988
  531MOL0     H71620   3.858   6.326   3.746 -0.4662 -0.0344  0.4442
  531MOL0     H71621   4.015   6.267   3.810 -4.0091 -0.2306  2.9903
  531MOL0     H71622   4.144   6.396   3.659  0.4546  1.6795  1.1086
  531MOL0     H71623   3.993   6.470   3.601 -2.1342  0.3414  0.7199
  531MOL0     H71624   4.084   6.466   3.898  0.3479  1.2409  0.9822
  531MOL0     H71625   4.144   6.581   3.785 -1.3889  3.1537 -0.7990
  531MOL0     H71626   3.830   6.563   3.790 -0.8140  3.4601 -0.9808
  531MOL0     H71627   3.902   6.627   3.934  0.5938  0.4901 -0.2447
  531MOL0     H71628   4.026   6.804   3.787 -1.6541  0.1842  3.8477
  531MOL0     H71629   3.919   6.746   3.660  1.2324  1.6743 -0.5970
  531MOL0     H71630   3.713   6.810   3.803  0.3073  0.2720 -0.9796
  531MOL0     H71631   3.839   6.850   3.922  0.9420 -1.0711 -0.5619
  531MOL0     H71632   3.934   7.021   3.778 -0.7273  2.5669  0.1172
  531MOL0     H71633   3.808   6.996   3.661  3.4813 -0.0162 -0.4603
  531MOL0     H71634   3.791   7.185   3.845 -0.9801  1.5037 -2.3966
  531MOL0     H71635   3.721   7.045   3.940  3.4759 -2.1967  0.1668
  531MOL0     H71636   3.582   7.327   3.860 -1.4074  3.0767 -2.9368
  531MOL0     H71637   3.416   7.457   3.680 -0.7493 -0.3661 -1.2905
  531MOL0     H71638   3.299   7.359   3.610 -0.0914  0.1254  0.1880
  531MOL0     H71639   3.218   7.486   3.825  1.1296  0.1283  3.0603
  531MOL0     H71640   3.331   7.387   3.916 -0.3749 -0.5140  0.0059
  531MOL0     H71641   3.220   7.185   3.860  1.5288  0.1673  0.4127
  531MOL0     H71642   3.114   7.277   3.742  0.5510  3.3312  0.2474
  531MOL0     H71643   3.002   7.375   3.958  0.7934  0.3892  0.0657
  531MOL0     H71644   3.120   7.283   4.040 -0.7703  0.6577 -0.9827
  531MOL0     H71645   2.854   6.927   3.931 -3.9366 -0.7687  0.6002
  531MOL0     H71646   2.529   6.865   3.825 -0.3398 -1.6546 -0.5273
  531MOL0     H71647   2.634   6.773   3.726  2.6285  0.7648 -1.6794
  531MOL0     H71648   2.670   6.799   3.904 -1.3663 -0.0323 -0.4771
  531MOL0     H71649   2.403   6.687   3.528 -1.1607  0.8240 -0.4474
  531MOL0     H71650   2.259   6.612   3.324 -3.6098  1.7400 -0.1063
  531MOL0     H71651   2.166   6.773   2.921 -1.4734  2.0682 -0.4605
  531MOL0     H71652   2.205   6.927   2.984  4.0776  0.7748 -1.4267
  531MOL0     H71653   2.439   6.756   3.040  2.1680  2.4646 -0.6643
  531MOL0     H71654   2.379   6.700   2.893  2.7243 -0.5438  0.6451
  531MOL0     H71655   2.354   6.974   2.839 -0.1806 -0.2759  0.4479
  531MOL0     H71656   2.482   6.876   2.786 -0.0481  4.3622 -0.9105
  531MOL0     H71657   2.573   7.069   2.883 -1.8929  1.0413 -0.8092
  531MOL0     H71658   2.471   7.047   3.029 -0.1940 -0.4923  0.4412
  531MOL0     H71659   2.635   6.817   3.040  0.1185 -0.1538 -0.4275
  531MOL0     H71660   2.649   6.954   3.136  0.9441  0.4896 -0.6229
  531MOL0     H71661   2.790   6.927   2.863 -2.2189 -0.0652 -0.7169
  531MOL0     H71662   2.818   7.057   2.979 -2.2416  0.5654 -0.6109
  531MOL0     H71663   2.863   6.764   3.034  0.2772 -0.6272 -0.6144
  531MOL0     H71664   2.891   6.896   3.148 -0.1366 -2.5162  0.2288
  531MOL0     H71665   3.060   6.981   2.975  3.9141 -1.7433  1.8446
  531MOL0     H71666   3.021   6.835   2.880  0.4310 -1.8433  0.5483
  531MOL0     H71667   2.333   7.009   3.161 -1.3765 -0.8004 -0.9119
  531MOL0     H71668   2.468   7.064   3.330 -0.6821  0.7177  0.7697
  531MOL0     H71669   2.679   7.275   3.640 -0.7689  1.3462  1.7191
  531MOL0     H71670   2.876   7.326   3.765  1.1777 -0.3849  1.5885
  531MOL0     H71671   3.879   5.979   3.565 -2.8032 -1.5820  3.4669
  531MOL0     H71672   3.673   5.914   3.451 -0.1786  1.0026 -2.0147
  531MOL0     H71673   3.233   6.098   3.310 -1.8513  1.6394 -1.0672
  531MOL0     H71674   3.022   6.053   3.190  0.1711  1.3741 -1.6576
  531MOL0     H71675   3.060   5.835   2.830  0.1282 -0.3198 -0.8399
  531MOL0     H71676   2.988   5.694   2.904 -0.6412 -0.3918 -1.7500
  531MOL0     H71677   2.763   5.827   2.884  1.9370 -0.9907  3.1140
  531MOL0     H71678   2.825   5.733   2.754  0.5565  1.2765 -1.1523
  531MOL0     H71679   2.917   5.896   2.636 -1.9324  1.6203 -1.6479
  531MOL0     H71680   2.917   6.021   2.762  1.3535 -1.5517  0.6648
  531MOL0     H71681   2.661   6.020   2.735  0.1116 -2.1900  0.3184
  531MOL0     H71682   2.666   5.904   2.604 -1.2234  2.1988 -2.0152
  531MOL0     H71683   2.721   6.214   2.349 -0.0927  0.9841  1.1316
  531MOL0     H71684   3.225   5.762   2.955  3.1958 -1.5813  1.7257
  531MOL0     H71685   3.428   5.810   3.036  0.2047 -0.4600 -0.7819
  532MOL0     O71686   5.859   9.156   0.818 -0.4628 -1.2875  0.1478
  532MOL0     C71687   5.951   9.178   0.729 -0.0502  0.1694  0.6954
  532MOL0     O71688   5.998   9.303   0.692  0.2305  0.1542  0.3775
  532MOL0     C71689   5.942   9.406   0.753  0.9318 -0.6057 -0.3698
  532MOL0     C71690   5.808   9.451   0.719 -0.5961 -0.0938  0.1103
  532MOL0     C71691   5.763   9.576   0.770  0.6912  0.0526  0.8880
  532MOL0     C71692   5.838   9.647   0.872 -0.2397 -0.2428  0.4588
  532MOL0     O71693   5.813   9.762   0.940  0.2336 -0.2144  0.3108
  532MOL0     C71694   5.678   9.787   0.958  1.0640 -0.2080  0.2004
  532MOL0     C71695   5.640   9.911   0.871  0.3945  0.0482 -0.0817
  532MOL0     C71696   5.524   9.985   0.935 -0.2919 -0.8084  0.8233
  532MOL0     C71697   5.437  10.067   0.833 -0.2509 -0.3139  0.2703
  532MOL0     C71698   5.313  10.130   0.903 -1.1668  0.1763  1.1996
  532MOL0     C71699   5.349  10.213   1.021  0.3604 -0.5971  1.1810
  532MOL0     C71700   5.224  10.281   1.085 -1.1342  0.9555 -0.3893
  532MOL0     C71701   5.284  10.377   1.201  0.7700  0.2263  0.6346
  532MOL0     N71702   5.183  10.435   1.298  0.2113  0.2524  0.2371
  532MOL0     C71703   5.114  10.556   1.275 -0.2281  0.9877 -0.0287
  532MOL0     C71704   5.012  10.558   1.357  0.3573 -0.4566  0.0647
  532MOL0     C71705   4.905  10.667   1.354 -0.8131 -1.2507 -0.5088
  532MOL0     C71706   4.844  10.712   1.485  0.1399 -0.0559  0.1713
  532MOL0     C71707   4.707  10.784   1.457  0.0195  0.6021 -0.1650
  532MOL0     C71708   4.669  10.859   1.581 -0.2661 -0.6743  0.1458
  532MOL0     O71709   4.617  10.770   1.680 -0.5327 -0.4887  0.2172
  532MOL0     C71710   4.488  10.716   1.677 -0.1537  0.0940  0.1816
  532MOL0     C71711   4.394  10.748   1.585 -0.3525  0.9100 -0.0271
  532MOL0     C71712   4.262  10.689   1.595 -0.8246 -0.4256  0.0753
  532MOL0     C71713   4.170  10.727   1.480  0.4089  0.0108 -0.0166
  532MOL0     C71714   4.233  10.603   1.703 -0.5557  0.8750 -0.6246
  532MOL0     C71715   4.108  10.530   1.721  1.0187  0.5189  0.4396
  532MOL0     O71716   4.108  10.404   1.782 -0.1414  0.2244 -0.2312
  532MOL0     C71717   3.994  10.334   1.792 -0.6690  0.1312  0.1207
  532MOL0     C71718   3.872  10.396   1.825 -0.6061 -0.5091 -1.0513
  532MOL0     C71719   3.756  10.324   1.831 -0.0933 -0.4417 -0.5454
  532MOL0     C71720   3.759  10.188   1.792  0.5348 -0.1009  1.1002
  532MOL0     O71721   3.639  10.123   1.783 -0.0731  0.2510 -0.1415
  532MOL0     C71722   3.633   9.984   1.830 -1.2908 -0.3842 -0.1034
  532MOL0     C71723   3.493   9.936   1.865  0.1418 -0.5320 -0.0866
  532MOL0     C71724   3.417  10.045   1.944  0.1881 -0.6684  0.6463
  532MOL0     C71725   3.265  10.019   1.953 -0.6016  0.5242  0.8621
  532MOL0     C71726   3.190  10.132   2.030 -0.0963  0.9803  0.5048
  532MOL0     C71727   3.056  10.077   2.071 -0.4586  0.2987 -0.3810
  532MOL0     C71728   3.056   9.981   2.190  0.3007 -0.3317 -0.4447
  532MOL0     C71729   2.944   9.870   2.207  0.3425  0.6766 -0.0330
  532MOL0    Cl71730   2.981   9.753   2.080  0.0551 -0.5675 -0.3517
  532MOL0     C71731   3.885  10.129   1.760 -0.4005  0.1316  0.6574
  532MOL0     C71732   4.004  10.200   1.761 -0.2986  0.4115  0.1588
  532MOL0     O71733   4.001  10.594   1.694  0.5023 -0.2385  0.7887
  532MOL0     C71734   4.338  10.569   1.794 -0.0349 -0.4772  0.5971
  532MOL0     C71735   4.463  10.628   1.781 -0.2000 -0.4574 -0.0919
  532MOL0     N71736   5.028  10.451   1.446  0.3206  0.1808 -0.1343
  532MOL0     N71737   5.131  10.380   1.410  0.1776 -0.1478  0.0347
  532MOL0     C71738   5.961   9.594   0.908  0.8272 -0.0933  0.7893
  532MOL0     C71739   6.016   9.478   0.842  0.2799 -1.6037 -0.1611
  532MOL0     C71740   6.015   9.058   0.653 -0.4580  0.1945  0.0779
  532MOL0     C71741   6.102   9.075   0.542 -0.1201  0.3487  0.5027
  532MOL0     C71742   6.164   8.961   0.488 -0.6892 -0.0924 -0.1958
  532MOL0     C71743   6.136   8.831   0.539 -0.4355  0.4631 -0.1000
  532MOL0     O71744   6.198   8.723   0.473  0.2862 -0.9808 -0.5874
  532MOL0     C71745   6.161   8.588   0.511 -0.3305  0.1456 -0.3241
  532MOL0     C71746   6.244   8.485   0.433  0.5467 -0.8331 -0.2733
  532MOL0     C71747   6.389   8.490   0.478  0.2212 -0.1942  0.3863
  532MOL0     C71748   6.485   8.457   0.363  0.1115 -0.1283 -0.3250
  532MOL0     C71749   6.631   8.466   0.397  0.9910 -0.0555 -0.0604
  532MOL0     C71750   6.745   8.468   0.440  0.3111 -0.2932  0.5788
  532MOL0     C71751   6.043   8.821   0.646  0.4968  0.3072 -1.0450
  532MOL0     C71752   5.985   8.931   0.702 -1.3315 -1.3927  0.2614
  532MOL0     H71753   5.755   9.384   0.652  0.0798  0.4592 -1.0186
  532MOL0     H71754   5.663   9.606   0.742  0.6792  0.6535  1.5312
  532MOL0     H71755   5.605   9.708   0.942 -2.8321  3.3773 -1.7214
  532MOL0     H71756   5.664   9.814   1.063 -2.6737  3.9870 -1.0554
  532MOL0     H71757   5.731   9.964   0.841  2.3526 -3.1459 -0.2966
  532MOL0     H71758   5.606   9.867   0.776 -1.9656  2.5903 -0.4982
  532MOL0     H71759   5.462   9.931   1.007 -0.5197  1.8560  2.7575
  532MOL0     H71760   5.560  10.054   1.011  2.7978 -1.9420  0.5465
  532MOL0     H71761   5.501  10.147   0.795 -1.2236  0.4320  0.1509
  532MOL0     H71762   5.420  10.014   0.739  2.7695  1.0445 -1.1751
  532MOL0     H71763   5.262  10.185   0.823  0.9873  1.1056  0.3922
  532MOL0     H71764   5.254  10.046   0.940 -1.2673  1.5566  4.4779
  532MOL0     H71765   5.388  10.148   1.100  0.9380 -1.8376 -0.0749
  532MOL0     H71766   5.419  10.290   0.986 -3.0893  1.7156 -1.2864
  532MOL0     H71767   5.170  10.340   1.011 -0.9596  1.4494 -0.1280
  532MOL0     H71768   5.156  10.208   1.129  3.1869 -2.9418  0.6000
  532MOL0     H71769   5.324  10.466   1.153 -2.1485  1.9135  1.0820
  532MOL0     H71770   5.353  10.319   1.263 -2.0993 -6.0350 -1.1227
  532MOL0     H71771   5.116  10.623   1.190  0.3588  2.5718  1.1802
  532MOL0     H71772   4.940  10.760   1.309  1.0393 -0.1953  2.7777
  532MOL0     H71773   4.827  10.621   1.293  1.0805 -3.2573 -1.5746
  532MOL0     H71774   4.913  10.775   1.542 -1.0771  2.3298 -0.8339
  532MOL0     H71775   4.823  10.623   1.545 -0.5824  1.9485  3.1648
  532MOL0     H71776   4.627  10.717   1.423 -0.9517  1.1820  0.9451
  532MOL0     H71777   4.720  10.859   1.378 -1.3614 -1.5029 -2.5377
  532MOL0     H71778   4.600  10.944   1.577 -2.2494 -2.1307  1.3412
  532MOL0     H71779   4.767  10.894   1.614 -1.6901  0.0230  4.1676
  532MOL0     H71780   4.429  10.817   1.509  1.2705  1.1833  0.9348
  532MOL0     H71781   4.188  10.683   1.382  0.1204  2.8685 -1.4698
  532MOL0     H71782   4.064  10.714   1.501  0.0692  0.6326 -1.2788
  532MOL0     H71783   4.181  10.836   1.470 -3.0331  0.3377 -1.6825
  532MOL0     H71784   3.866  10.498   1.861  2.9378  0.5951 -3.0888
  532MOL0     H71785   3.664  10.365   1.870 -0.1382  0.3102 -1.4187
  532MOL0     H71786   3.671   9.922   1.748 -1.0122  1.8364 -1.7732
  532MOL0     H71787   3.700   9.973   1.916  0.7073  0.8118 -1.4189
  532MOL0     H71788   3.437   9.906   1.776 -0.2052  0.6053 -0.2684
  532MOL0     H71789   3.503   9.854   1.936  2.0200 -0.4494 -0.2061
  532MOL0     H71790   3.433  10.143   1.898  1.7247 -1.8169 -1.3934
  532MOL0     H71791   3.444  10.049   2.049 -1.4447 -0.4285  1.0938
  532MOL0     H71792   3.225  10.007   1.851  1.3589  0.8363  0.0179
  532MOL0     H71793   3.259   9.925   2.009  1.0593  0.5840  1.1851
  532MOL0     H71794   3.182  10.219   1.964 -2.2839 -0.4649 -1.2683
  532MOL0     H71795   3.238  10.167   2.122 -2.1414  0.7874  1.7087
  532MOL0     H71796   3.005  10.163   2.117  1.0437 -0.6591  3.4178
  532MOL0     H71797   3.006  10.032   1.985  1.3725 -1.8678 -0.3956
  532MOL0     H71798   3.055  10.044   2.280 -1.9535 -0.1239 -0.5425
  532MOL0     H71799   3.153   9.933   2.204  1.5080  1.8671 -0.7374
  532MOL0     H71800   2.840   9.903   2.202  0.0101 -0.0119  1.7333
  532MOL0     H71801   2.957   9.829   2.307 -3.1651  0.8706  0.6300
  532MOL0     H71802   3.887  10.021   1.755 -0.0068  0.0076  2.6848
  532MOL0     H71803   4.103  10.155   1.750 -0.3905 -1.0557  3.7954
  532MOL0     H71804   4.323  10.493   1.870 -0.4914  1.1693  2.2184
  532MOL0     H71805   4.544  10.601   1.849  2.4887 -1.9885 -3.5513
  532MOL0     H71806   6.001   9.641   0.997 -2.7864  2.3837  1.3500
  532MOL0     H71807   6.116   9.444   0.868  1.1013 -0.7816 -2.0239
  532MOL0     H71808   6.122   9.176   0.508  2.2048 -0.1404  0.3067
  532MOL0     H71809   6.241   8.975   0.413  1.0778 -3.3199  0.8363
  532MOL0     H71810   6.167   8.568   0.618  0.7660 -1.8706 -0.7078
  532MOL0     H71811   6.058   8.577   0.476 -0.7318 -0.8601  1.0888
  532MOL0     H71812   6.224   8.490   0.326 -0.0208 -1.3927 -0.1978
  532MOL0     H71813   6.201   8.390   0.463 -0.9242 -0.6037 -1.5483
  532MOL0     H71814   6.405   8.409   0.549  2.8052 -0.5425 -0.4840
  532MOL0     H71815   6.408   8.591   0.515  0.4819 -1.4119  3.8705
  532MOL0     H71816   6.459   8.520   0.278  1.2211 -0.4067 -0.8952
  532MOL0     H71817   6.466   8.356   0.327 -1.5391  0.0702 -0.0946
  532MOL0     H71818   6.842   8.465   0.486  0.9752 -1.7062 -0.8482
  532MOL0     H71819   5.987   8.738   0.688 -1.6645  2.4792  0.6769
  532MOL0     H71820   5.927   8.922   0.794  0.5293 -0.7594  1.5563
  533MOL0     O71821   3.179   0.206   3.812 -0.3574 -0.5736 -0.3532
  533MOL0     C71822   3.080   0.209   3.741  0.6954  0.3980  0.0191
  533MOL0     O71823   3.060   0.294   3.634  1.0072  0.2678  0.4818
  533MOL0     C71824   3.157   0.386   3.609  0.1524 -0.3489 -0.1701
  533MOL0     C71825   3.202   0.480   3.705  0.4831 -0.5635  0.1551
  533MOL0     C71826   3.297   0.575   3.667  0.8034  0.1308 -0.2203
  533MOL0     C71827   3.353   0.581   3.541 -0.0488 -0.0809 -0.1331
  533MOL0     O71828   3.453   0.670   3.500 -0.0574 -0.2154  0.9313
  533MOL0     C71829   3.572   0.663   3.582 -0.4925  0.0442 -0.0642
  533MOL0     C71830   3.671   0.743   3.514 -0.3708  0.9649 -1.0963
  533MOL0     C71831   3.791   0.778   3.600 -1.2970 -0.0347 -0.2567
  533MOL0     C71832   3.890   0.841   3.500  0.9970  0.2453 -0.1628
  533MOL0     C71833   3.999   0.915   3.565  0.5040 -0.0244  0.2242
  533MOL0     C71834   4.104   0.823   3.634  0.3835 -0.2952  0.3081
  533MOL0     C71835   4.231   0.906   3.651 -0.2447  0.6956  0.0985
  533MOL0     C71836   4.324   0.841   3.754  0.2350 -0.8384 -0.4432
  533MOL0     N71837   4.443   0.907   3.786 -0.6134  0.5934 -0.6630
  533MOL0     C71838   4.446   0.997   3.891 -0.4789 -0.5185  0.1545
  533MOL0     C71839   4.569   1.051   3.868  0.6418  0.4332 -0.1032
  533MOL0     C71840   4.641   1.154   3.947  0.1400  0.3001 -0.2064
  533MOL0     C71841   4.659   1.110   4.093 -0.4073  0.2170 -0.1366
  533MOL0     C71842   4.741   0.983   4.116 -0.4622  0.0399  1.4981
  533MOL0     C71843   4.789   0.960   4.261 -0.4743 -0.2431  0.1080
  533MOL0     O71844   4.676   0.945   4.347  0.2617 -0.9264 -0.6204
  533MOL0     C71845   4.699   0.934   4.481  0.4134 -0.2418  0.2873
  533MOL0     C71846   4.596   0.922   4.562  0.0077  0.1060  0.8805
  533MOL0     C71847   4.604   0.895   4.700  0.1435 -0.7856  0.2145
  533MOL0     C71848   4.473   0.857   4.759 -0.0009  0.5558 -1.5031
  533MOL0     C71849   4.735   0.881   4.754 -0.6220  0.4153 -0.0861
  533MOL0     C71850   4.758   0.845   4.899 -0.0834 -0.2011 -0.3173
  533MOL0     O71851   4.891   0.852   4.944 -0.0930 -0.2444 -0.0166
  533MOL0     C71852   4.935   0.834   5.070 -0.1754 -0.1835  0.0124
  533MOL0     C71853   5.041   0.920   5.111  0.8840  0.1527 -0.0088
  533MOL0     C71854   5.094   0.906   5.239 -0.1532  0.4496 -0.6603
  533MOL0     C71855   5.042   0.818   5.332 -0.2952  0.2004 -0.5722
  533MOL0     O71856   5.096   0.807   5.452 -0.6398  0.6489 -0.6861
  533MOL0     C71857   5.145   0.678   5.483  0.0791  0.2236 -1.1985
  533MOL0     C71858   5.256   0.609   5.414  0.7583 -0.5376 -0.5350
  533MOL0     C71859   5.379   0.696   5.413 -0.3488  0.4351  0.2978
  533MOL0     C71860   5.493   0.626   5.328  0.2733 -0.2857 -0.8409
  533MOL0     C71861   5.607   0.729   5.315 -0.8132  0.1376  0.3477
  533MOL0     C71862   5.696   0.709   5.186 -0.2538 -0.7362 -0.4110
  533MOL0     C71863   5.628   0.764   5.053 -0.4322  0.1013 -0.4717
  533MOL0     C71864   5.601   0.919   5.057  0.1050 -0.0262 -0.0483
  533MOL0    Cl71865   5.444   0.958   5.132 -0.2849  0.3257  0.6607
  533MOL0     C71866   4.930   0.738   5.289 -0.3421 -0.2838 -0.7598
  533MOL0     C71867   4.878   0.744   5.163 -0.1918 -0.1036 -0.2315
  533MOL0     O71868   4.660   0.828   4.980 -0.1576 -0.4093 -0.0443
  533MOL0     C71869   4.843   0.916   4.672 -0.2395  0.8390  0.1993
  533MOL0     C71870   4.828   0.937   4.537 -0.9266 -0.2478 -0.7225
  533MOL0     N71871   4.632   0.996   3.753 -0.7019 -0.9880  0.9398
  533MOL0     N71872   4.558   0.900   3.721 -0.1766 -0.1026 -0.0893
  533MOL0     C71873   3.311   0.488   3.447  0.4211 -0.0998 -0.5178
  533MOL0     C71874   3.204   0.401   3.472  0.5515  0.6432 -0.5006
  533MOL0     C71875   2.979   0.108   3.764  0.2220 -0.1469 -0.3052
  533MOL0     C71876   2.873   0.093   3.675 -0.1462  1.0838 -0.5231
  533MOL0     C71877   2.778  -0.006   3.689  1.3129  0.5271 -0.3445
  533MOL0     C71878   2.783  -0.104   3.787 -0.1189 -0.1711 -0.0391
  533MOL0     O71879   2.675  -0.192   3.788  0.1516 -0.3850 -0.6410
  533MOL0     C71880   2.647  -0.279   3.901 -0.3321 -0.9921 -0.4041
  533MOL0     C71881   2.555  -0.397   3.846  0.2191 -0.3237 -0.5062
  533MOL0     C71882   2.441  -0.439   3.940 -0.5196  0.8568 -0.3022
  533MOL0     C71883   2.486  -0.493   4.083  0.2776  0.1989  0.6140
  533MOL0     C71884   2.548  -0.624   4.062  0.9825 -0.3248  0.1939
  533MOL0     C71885   2.606  -0.725   4.030  0.2946  1.0439 -1.7386
  533MOL0     C71886   2.894  -0.093   3.881  0.8280  0.5808  0.5652
  533MOL0     C71887   2.988   0.017   3.864  0.9306  0.2246 -1.1537
  533MOL0     H71888   3.171   0.492   3.808  0.2752 -2.1046  0.2922
  533MOL0     H71889   3.328   0.657   3.731 -2.4670  1.9432 -0.7301
  533MOL0     H71890   3.550   0.709   3.678 -0.9065 -0.3058  0.0106
  533MOL0     H71891   3.604   0.560   3.603 -1.3352 -0.2872 -0.3496
  533MOL0     H71892   3.700   0.692   3.422 -2.1199  0.0354 -1.1722
  533MOL0     H71893   3.631   0.839   3.479 -0.2257  1.2935 -0.3768
  533MOL0     H71894   3.769   0.848   3.681  0.4608 -0.4925  0.6612
  533MOL0     H71895   3.835   0.693   3.654  0.5616  2.5861  2.6830
  533MOL0     H71896   3.924   0.759   3.437 -1.1778  1.1162 -2.6401
  533MOL0     H71897   3.841   0.902   3.424  0.5037 -0.1231 -0.1508
  533MOL0     H71898   4.041   0.968   3.479  0.6833 -0.7039 -0.1090
  533MOL0     H71899   3.947   0.986   3.632  0.0101  0.8350 -1.0290
  533MOL0     H71900   4.061   0.787   3.728 -1.0437  1.4590  0.3732
  533MOL0     H71901   4.126   0.737   3.570 -0.2049 -1.2806  1.3928
  533MOL0     H71902   4.288   0.910   3.558  2.5093  0.3399  1.6840
  533MOL0     H71903   4.216   1.010   3.679  1.2364  0.1637  3.2576
  533MOL0     H71904   4.352   0.744   3.712 -1.4035 -1.0790 -1.0426
  533MOL0     H71905   4.270   0.834   3.849 -0.8968  2.2325 -0.7750
  533MOL0     H71906   4.376   1.027   3.968 -2.4754 -1.1554 -1.3338
  533MOL0     H71907   4.738   1.181   3.905 -0.0946  1.8840  0.1943
  533MOL0     H71908   4.589   1.250   3.934  2.0862  1.1113 -2.6026
  533MOL0     H71909   4.563   1.098   4.146  2.0162  0.2068  4.8184
  533MOL0     H71910   4.699   1.201   4.138 -0.8614  1.5468 -2.3057
  533MOL0     H71911   4.820   0.997   4.042 -2.0503  0.7095 -0.1514
  533MOL0     H71912   4.679   0.897   4.088  0.9845 -0.4587 -0.3724
  533MOL0     H71913   4.859   1.036   4.297  0.6982 -0.5009 -1.4685
  533MOL0     H71914   4.861   0.878   4.265  0.2866  0.1853 -2.6147
  533MOL0     H71915   4.500   0.933   4.513 -1.0009  0.8241  2.8803
  533MOL0     H71916   4.452   0.921   4.845  0.1706 -0.6081 -0.5681
  533MOL0     H71917   4.385   0.881   4.699 -0.3563  2.5580 -0.2635
  533MOL0     H71918   4.464   0.755   4.796 -2.5405  0.3830 -2.3842
  533MOL0     H71919   5.084   0.989   5.039  1.1864  1.7941  1.6725
  533MOL0     H71920   5.180   0.971   5.252  0.0638  0.2394 -1.0455
  533MOL0     H71921   5.178   0.699   5.586  0.2815  1.3287 -1.4698
  533MOL0     H71922   5.063   0.607   5.495  2.4414 -2.2023  3.3396
  533MOL0     H71923   5.279   0.516   5.467  1.6661  0.8638  1.6562
  533MOL0     H71924   5.229   0.590   5.310 -0.0465 -0.0735 -0.4192
  533MOL0     H71925   5.420   0.701   5.514 -2.1385 -1.2703  1.1847
  533MOL0     H71926   5.369   0.801   5.383 -1.0273  0.2157 -0.2733
  533MOL0     H71927   5.522   0.526   5.360 -1.1212  0.2552  2.6090
  533MOL0     H71928   5.442   0.609   5.233 -0.4517 -1.8288 -0.2179
  533MOL0     H71929   5.666   0.726   5.407  0.6005  2.6467 -0.3906
  533MOL0     H71930   5.573   0.833   5.306 -0.4681  0.0778 -3.5108
  533MOL0     H71931   5.786   0.771   5.196 -1.0212  0.7508 -2.1033
  533MOL0     H71932   5.731   0.607   5.170  1.8471 -0.2776  0.8782
  533MOL0     H71933   5.544   0.698   5.025 -0.7910  0.5413 -0.4432
  533MOL0     H71934   5.701   0.749   4.973  1.4540  1.6684  0.8903
  533MOL0     H71935   5.610   0.955   4.954 -2.0738  1.3069  0.1570
  533MOL0     H71936   5.682   0.971   5.108 -0.8105  2.4156 -0.9207
  533MOL0     H71937   4.889   0.661   5.354  0.4244  0.2842  0.4300
  533MOL0     H71938   4.805   0.667   5.141 -0.6393  0.1018  0.5097
  533MOL0     H71939   4.945   0.907   4.706 -0.0633  1.5439 -0.1218
  533MOL0     H71940   4.915   0.971   4.482 -0.4901  1.8974  1.1385
  533MOL0     H71941   3.362   0.486   3.351 -0.0052 -2.1823 -0.7555
  533MOL0     H71942   3.169   0.328   3.400  1.1053 -2.1208  1.8558
  533MOL0     H71943   2.858   0.148   3.582 -2.5325 -0.9328 -1.4468
  533MOL0     H71944   2.687  -0.003   3.629  1.7299 -0.8298 -1.0928
  533MOL0     H71945   2.742  -0.312   3.942  2.0514  1.4981 -3.3949
  533MOL0     H71946   2.591  -0.220   3.974 -0.4768  1.7913 -2.5544
  533MOL0     H71947   2.617  -0.483   3.819 -0.3854 -0.6378 -0.9100
  533MOL0     H71948   2.517  -0.356   3.751  1.0981 -0.3928 -0.9019
  533MOL0     H71949   2.384  -0.518   3.888 -0.1225  2.2081 -2.9407
  533MOL0     H71950   2.369  -0.357   3.948  0.9201  2.0924  0.3301
  533MOL0     H71951   2.402  -0.521   4.147 -1.2239  0.8590 -0.9824
  533MOL0     H71952   2.557  -0.433   4.141  1.0380 -1.7757  1.8463
  533MOL0     H71953   2.671  -0.810   4.018  0.5425  0.9999 -0.2350
  533MOL0     H71954   2.889  -0.165   3.962 -2.5095 -2.3488 -1.8847
  533MOL0     H71955   3.055   0.020   3.950 -0.9898 -2.7683  0.6270
  534MOL0     O71956   4.823   4.072   6.189  0.1544  0.4802 -0.9929
  534MOL0     C71957   4.834   4.079   6.066  0.2701  0.4639  0.2673
  534MOL0     O71958   4.729   4.117   5.988 -0.3971  0.1684  0.1069
  534MOL0     C71959   4.600   4.140   6.040  0.4900 -0.0060  0.7225
  534MOL0     C71960   4.522   4.041   6.116  0.2237  0.0152  0.1787
  534MOL0     C71961   4.408   4.087   6.181  0.3797  0.7335  0.7794
  534MOL0     C71962   4.364   4.218   6.170  0.4969 -0.8399 -0.4148
  534MOL0     O71963   4.255   4.255   6.247  0.5454 -1.1132  0.9145
  534MOL0     C71964   4.279   4.367   6.341  0.5346  0.4762  0.4087
  534MOL0     C71965   4.152   4.451   6.375 -0.4436  0.7293  1.0582
  534MOL0     C71966   4.031   4.362   6.411  0.1020 -0.6853  0.4565
  534MOL0     C71967   3.917   4.475   6.418 -0.0386  0.0213  0.2213
  534MOL0     C71968   3.772   4.404   6.409  0.3385 -0.2185 -0.3547
  534MOL0     C71969   3.652   4.493   6.468 -0.0928  0.0464 -0.2544
  534MOL0     C71970   3.525   4.428   6.428  1.0875  0.6067  0.6709
  534MOL0     C71971   3.396   4.482   6.482 -0.3655 -0.9333  0.6685
  534MOL0     N71972   3.285   4.405   6.442 -0.1569  0.0251  0.3704
  534MOL0     C71973   3.226   4.403   6.312  0.1955 -0.3753 -0.2829
  534MOL0     C71974   3.095   4.371   6.340  0.3692  0.1360 -0.1266
  534MOL0     C71975   2.981   4.362   6.239 -0.2546 -0.1591 -0.9364
  534MOL0     C71976   2.880   4.485   6.249  0.4239 -0.7091 -0.4260
  534MOL0     C71977   2.782   4.490   6.124  0.3020 -0.2450  0.3777
  534MOL0     C71978   2.678   4.604   6.151  0.6424  0.7489  0.5502
  534MOL0     O71979   2.572   4.587   6.051  0.2618  0.5093  0.6041
  534MOL0     C71980   2.474   4.681   6.038 -0.3607  0.3926 -0.0040
  534MOL0     C71981   2.369   4.657   5.934  0.6037  1.0903  0.8758
  534MOL0     C71982   2.251   4.730   5.935 -0.2729 -0.3799  0.4618
  534MOL0     C71983   2.154   4.695   5.824 -0.0362 -0.5345  0.4110
  534MOL0     C71984   2.224   4.820   6.033 -0.2297  0.4089 -0.1470
  534MOL0     C71985   2.091   4.888   6.029  1.1867  0.1828 -0.4584
  534MOL0     O71986   2.028   4.883   6.149  0.0249 -0.4273  0.1895
  534MOL0     C71987   1.921   4.967   6.169 -0.2522  0.5726 -0.1687
  534MOL0     C71988   1.942   5.106   6.178  0.4635 -0.2293  0.6392
  534MOL0     C71989   1.822   5.186   6.203  0.1525 -0.0113 -0.9319
  534MOL0     C71990   1.694   5.124   6.235 -0.8026 -0.2551 -0.0653
  534MOL0     O71991   1.573   5.193   6.253 -0.5761  0.5026 -1.3179
  534MOL0     C71992   1.573   5.328   6.296  0.3989  0.2232 -0.8059
  534MOL0     C71993   1.434   5.362   6.330  0.6058  0.0011 -0.8332
  534MOL0     C71994   1.326   5.343   6.218 -0.1281  0.0120  0.8974
  534MOL0     C71995   1.188   5.388   6.272  0.4575  0.0657 -0.6208
  534MOL0     C71996   1.076   5.383   6.164 -0.3772  0.0243 -1.1449
  534MOL0     C71997   0.934   5.442   6.209  0.7736 -0.0422  0.1264
  534MOL0     C71998   0.858   5.369   6.321  0.1660  0.3006 -0.4544
  534MOL0     C71999   0.837   5.222   6.301 -0.3029  0.0583 -0.1238
  534MOL0    Cl72000   0.695   5.169   6.393  0.6666  0.2992 -0.3492
  534MOL0     C72001   1.685   4.985   6.227 -0.6200  0.6912 -0.6469
  534MOL0     C72002   1.799   4.905   6.195 -0.4508 -0.3368 -1.0015
  534MOL0     O72003   2.046   4.951   5.927 -0.3142 -0.4444 -0.5671
  534MOL0     C72004   2.332   4.859   6.120 -0.1227 -0.3689 -0.1992
  534MOL0     C72005   2.455   4.793   6.119 -0.1442  0.2506  0.6909
  534MOL0     N72006   3.087   4.363   6.479  0.2345  0.2336  0.1457
  534MOL0     N72007   3.197   4.369   6.538 -0.6173 -0.2784 -0.0774
  534MOL0     C72008   4.433   4.313   6.091  0.1432 -0.7064 -0.7617
  534MOL0     C72009   4.551   4.268   6.032 -0.5959 -0.7001 -1.0537
  534MOL0     C72010   4.966   4.061   6.002  0.0106 -0.0803  0.3702
  534MOL0     C72011   5.066   3.985   6.072  1.1945  0.0162  0.0083
  534MOL0     C72012   5.182   3.947   6.004 -0.6526  0.4803 -0.2675
  534MOL0     C72013   5.216   4.012   5.878  0.4434  1.0253  0.7739
  534MOL0     O72014   5.341   3.972   5.834 -0.5509  0.4175  0.2777
  534MOL0     C72015   5.347   3.932   5.696  0.2812 -0.9900  0.0264
  534MOL0     C72016   5.478   3.865   5.670  0.1890  0.3565  0.8040
  534MOL0     C72017   5.468   3.720   5.703  1.0364  0.0732 -0.1471
  534MOL0     C72018   5.481   3.694   5.856 -0.3942  0.6758  0.0318
  534MOL0     C72019   5.535   3.558   5.880 -0.2551  0.0873  0.3132
  534MOL0     C72020   5.598   3.457   5.901 -0.0697  0.4275  0.8857
  534MOL0     C72021   5.131   4.091   5.813 -0.8403 -0.1855  0.2776
  534MOL0     C72022   5.005   4.119   5.873  0.8458  0.2470  0.1048
  534MOL0     H72023   4.550   3.936   6.114 -0.2220 -0.1066 -1.6518
  534MOL0     H72024   4.352   4.019   6.244  0.3150 -1.0730 -1.1082
  534MOL0     H72025   4.313   4.320   6.434 -1.6638 -2.0605  0.0616
  534MOL0     H72026   4.352   4.435   6.296  1.7543 -0.2232  1.2633
  534MOL0     H72027   4.165   4.509   6.466 -3.6511  2.4409  0.5757
  534MOL0     H72028   4.142   4.520   6.291 -2.9026  1.6797  2.0194
  534MOL0     H72029   4.020   4.296   6.325 -1.8827  2.0637 -1.6071
  534MOL0     H72030   4.047   4.302   6.501  2.7340 -0.6203  0.1206
  534MOL0     H72031   3.923   4.522   6.517 -0.5020  0.6684 -0.0560
  534MOL0     H72032   3.931   4.551   6.341 -1.1430 -0.3526 -0.3654
  534MOL0     H72033   3.746   4.386   6.305  0.1460  0.4005 -0.4184
  534MOL0     H72034   3.779   4.306   6.456  1.2715  0.0578  0.1004
  534MOL0     H72035   3.655   4.497   6.577  1.3941 -0.3279 -0.2598
  534MOL0     H72036   3.643   4.593   6.424 -2.9057 -0.4292 -0.8913
  534MOL0     H72037   3.521   4.408   6.321 -4.2818 -2.1518  1.0333
  534MOL0     H72038   3.529   4.325   6.465 -0.2769 -0.2749 -1.4528
  534MOL0     H72039   3.389   4.588   6.455  0.3897 -0.7186  1.2556
  534MOL0     H72040   3.403   4.494   6.591  0.5146  0.4424  0.4918
  534MOL0     H72041   3.267   4.456   6.227 -2.0690  3.1187  0.5817
  534MOL0     H72042   3.029   4.347   6.142  0.5457 -0.4765 -0.5086
  534MOL0     H72043   2.923   4.270   6.255 -0.7744  0.6424  2.9090
  534MOL0     H72044   2.924   4.585   6.252 -2.7439  0.7875  0.7989
  534MOL0     H72045   2.826   4.474   6.344  0.4936 -2.4271 -0.5540
  534MOL0     H72046   2.739   4.390   6.132  3.3606 -1.6559  0.4618
  534MOL0     H72047   2.841   4.515   6.035  1.0261  1.4597  1.2736
  534MOL0     H72048   2.715   4.706   6.141 -2.3573  1.8592 -0.1975
  534MOL0     H72049   2.625   4.588   6.246 -1.8212  0.8062 -0.7335
  534MOL0     H72050   2.381   4.580   5.859  0.1463  4.4851 -3.0192
  534MOL0     H72051   2.152   4.780   5.756 -0.4272  0.7352  1.9312
  534MOL0     H72052   2.173   4.604   5.768 -4.3649  0.1696 -2.6407
  534MOL0     H72053   2.053   4.682   5.864  0.4598 -4.0624  0.7933
  534MOL0     H72054   2.041   5.145   6.159 -0.7140  3.6770  1.4916
  534MOL0     H72055   1.829   5.294   6.210  1.7556 -0.1902  2.1218
  534MOL0     H72056   1.650   5.338   6.373 -0.3666 -3.1811  0.6191
  534MOL0     H72057   1.611   5.391   6.216  3.4274  3.8786  2.9959
  534MOL0     H72058   1.405   5.292   6.409  4.5467  0.2468  1.1237
  534MOL0     H72059   1.444   5.460   6.377  2.2931 -0.7831  0.5996
  534MOL0     H72060   1.324   5.234   6.205 -0.9356  0.0379  0.7177
  534MOL0     H72061   1.359   5.398   6.130 -0.7517 -1.1666 -0.0973
  534MOL0     H72062   1.161   5.324   6.356  2.5035  0.9429  0.7908
  534MOL0     H72063   1.207   5.488   6.313  2.7417 -1.0185  1.2033
  534MOL0     H72064   1.064   5.276   6.141 -0.0562 -0.2557 -0.0569
  534MOL0     H72065   1.108   5.440   6.077 -0.2070  1.5757 -0.1126
  534MOL0     H72066   0.945   5.547   6.236  0.0471  0.3330 -0.9713
  534MOL0     H72067   0.869   5.429   6.122  1.7376 -0.7880 -0.5053
  534MOL0     H72068   0.759   5.413   6.335 -0.5661 -1.8221  1.5702
  534MOL0     H72069   0.909   5.380   6.417  0.8629  2.4929 -1.0271
  534MOL0     H72070   0.914   5.159   6.346 -0.1961  2.0553  2.7364
  534MOL0     H72071   0.834   5.197   6.194  1.6881  0.2181 -0.2583
  534MOL0     H72072   1.594   4.941   6.265 -0.2040 -4.0231 -4.2908
  534MOL0     H72073   1.779   4.799   6.184 -0.3991 -0.5691  0.8517
  534MOL0     H72074   2.326   4.944   6.187 -0.6454  0.0354 -0.7506
  534MOL0     H72075   2.526   4.832   6.191 -1.0033  0.8026  1.2655
  534MOL0     H72076   4.393   4.414   6.084 -1.4246 -0.8268  3.5934
  534MOL0     H72077   4.610   4.340   5.976 -0.4961  0.4944  0.4990
  534MOL0     H72078   5.023   3.945   6.164  0.8604 -0.0082 -0.1557
  534MOL0     H72079   5.255   3.883   6.052  1.8050  2.3284 -1.3166
  534MOL0     H72080   5.266   3.860   5.677 -0.3693 -0.8339  1.9176
  534MOL0     H72081   5.340   4.019   5.630  0.1011 -1.5405 -0.6994
  534MOL0     H72082   5.546   3.913   5.740  0.6673 -1.5718  1.7398
  534MOL0     H72083   5.523   3.885   5.572 -1.5244  1.8042  0.2626
  534MOL0     H72084   5.545   3.661   5.653 -0.7337 -1.0439 -1.7151
  534MOL0     H72085   5.384   3.663   5.662  0.4100  1.2688 -0.5681
  534MOL0     H72086   5.386   3.702   5.909  0.6840  3.6902  1.7689
  534MOL0     H72087   5.548   3.759   5.913  1.8536 -1.0067 -0.5739
  534MOL0     H72088   5.638   3.360   5.924  1.2102  0.5649 -0.5760
  534MOL0     H72089   5.167   4.117   5.714 -0.5892 -0.7067  0.2294
  534MOL0     H72090   4.932   4.176   5.817  3.1312  0.8200 -2.5331
  535MOL0     O72091   0.982   0.561   8.066 -0.0833  0.6323 -0.1205
  535MOL0     C72092   0.919   0.506   7.981 -0.6401  0.6436 -0.1913
  535MOL0     O72093   0.968   0.413   7.898  0.1684 -0.6640 -0.1448
  535MOL0     C72094   1.096   0.379   7.916 -0.1325 -0.3955  0.4462
  535MOL0     C72095   1.190   0.455   7.849 -0.4810  0.2850 -0.6538
  535MOL0     C72096   1.327   0.431   7.866  0.0316  0.4124  0.5569
  535MOL0     C72097   1.375   0.334   7.965  0.6603  0.3493  0.3201
  535MOL0     O72098   1.500   0.306   8.000  0.4737 -0.3929 -0.2556
  535MOL0     C72099   1.594   0.375   7.916 -0.2294 -0.5478 -0.0998
  535MOL0     C72100   1.741   0.335   7.944 -0.5318 -0.0028  1.0714
  535MOL0     C72101   1.778   0.197   7.889  0.2386  0.6741 -0.0626
  535MOL0     C72102   1.935   0.177   7.902 -0.5301 -0.1457 -0.7210
  535MOL0     C72103   1.973   0.040   7.846 -0.0775 -0.8737 -1.0399
  535MOL0     C72104   2.113  -0.004   7.881 -0.9915 -0.6689  1.0387
  535MOL0     C72105   2.132  -0.140   7.808  0.0232  0.2152 -0.0550
  535MOL0     C72106   2.279  -0.157   7.800  0.3544  0.5742 -0.7482
  535MOL0     N72107   2.298  -0.296   7.749 -0.0530 -1.2977 -0.3749
  535MOL0     C72108   2.335  -0.334   7.621 -0.0176 -0.0356  0.2270
  535MOL0     C72109   2.351  -0.469   7.620 -0.4612  0.0406 -0.0626
  535MOL0     C72110   2.381  -0.553   7.503 -1.0299  0.5532 -0.2075
  535MOL0     C72111   2.532  -0.555   7.467 -0.5822 -0.6038 -0.2158
  535MOL0     C72112   2.537  -0.634   7.341  0.0681 -0.8373 -0.0634
  535MOL0     C72113   2.685  -0.651   7.294  0.3502 -0.6554  0.2228
  535MOL0     O72114   2.684  -0.709   7.158 -0.3262 -0.4824 -0.7307
  535MOL0     C72115   2.804  -0.728   7.096 -0.1275 -0.2540  0.0113
  535MOL0     C72116   2.929  -0.715   7.156 -0.8201 -0.3841 -0.2724
  535MOL0     C72117   3.054  -0.742   7.092  0.0843 -0.6596  0.2326
  535MOL0     C72118   3.174  -0.729   7.189  0.2126 -0.3600  0.2537
  535MOL0     C72119   3.053  -0.773   6.954  1.0204  0.3797  0.0321
  535MOL0     C72120   3.171  -0.788   6.871  0.1984  0.7556 -0.3358
  535MOL0     O72121   3.152  -0.843   6.745  0.1327  0.5019  0.2669
  535MOL0     C72122   3.259  -0.875   6.670 -0.1567 -0.3420 -0.6484
  535MOL0     C72123   3.363  -0.949   6.711  0.1782 -0.0484 -1.4459
  535MOL0     C72124   3.463  -0.996   6.627 -0.4640 -0.2819  0.3097
  535MOL0     C72125   3.468  -0.955   6.492 -0.2102 -1.2431 -0.6661
  535MOL0     O72126   3.575  -1.004   6.420  0.8628  0.3056  0.7537
  535MOL0     C72127   3.577  -0.975   6.275 -0.1391  0.0685 -0.5653
  535MOL0     C72128   3.725  -0.985   6.230 -0.5425  0.3126 -0.5385
  535MOL0     C72129   3.754  -1.137   6.214  0.4549  0.1587  0.1460
  535MOL0     C72130   3.905  -1.148   6.221 -0.1365 -0.0043 -0.0574
  535MOL0     C72131   3.960  -1.288   6.204 -0.8019  0.6919  0.3213
  535MOL0     C72132   4.115  -1.295   6.217 -0.2758 -0.3520 -0.0074
  535MOL0     C72133   4.191  -1.201   6.123 -0.8291  0.7824 -0.2321
  535MOL0     C72134   4.330  -1.244   6.094  0.6277  0.5913  0.5970
  535MOL0    Cl72135   4.400  -1.105   6.023  0.2656  0.1336  0.4584
  535MOL0     C72136   3.359  -0.877   6.445  0.5113 -0.4976  0.0749
  535MOL0     C72137   3.253  -0.830   6.532 -0.3123  0.1728  0.4192
  535MOL0     O72138   3.281  -0.755   6.919 -0.1916  0.4962  0.1816
  535MOL0     C72139   2.924  -0.766   6.890 -0.1795  0.7056  0.3757
  535MOL0     C72140   2.806  -0.749   6.961 -0.1029  0.0116  0.3082
  535MOL0     N72141   2.320  -0.508   7.749 -0.1831  0.0615 -0.8007
  535MOL0     N72142   2.277  -0.412   7.825 -0.8005  0.3758 -0.3674
  535MOL0     C72143   1.275   0.267   8.037 -0.6241  0.4852  0.2294
  535MOL0     C72144   1.137   0.282   8.017 -0.0396 -0.7518  0.2181
  535MOL0     C72145   0.779   0.534   7.957  1.0702  0.0909  0.8005
  535MOL0     C72146   0.707   0.634   8.034  0.2223  0.8535 -0.4722
  535MOL0     C72147   0.577   0.674   7.997 -0.1489 -0.1055 -0.3276
  535MOL0     C72148   0.508   0.596   7.904 -0.2551  0.2788  0.3305
  535MOL0     O72149   0.374   0.618   7.871 -1.0019  0.0357  0.4941
  535MOL0     C72150   0.290   0.510   7.934 -1.1514 -0.5039 -0.3162
  535MOL0     C72151   0.262   0.532   8.088  0.1939  0.0910 -0.9768
  535MOL0     C72152   0.217   0.679   8.119 -1.2192  0.3371 -0.5326
  535MOL0     C72153   0.150   0.688   8.261  0.1824  0.2397  0.4563
  535MOL0     C72154   0.018   0.619   8.271  0.2534  1.3487 -0.8710
  535MOL0     C72155  -0.097   0.565   8.281 -0.2156 -0.0963 -0.5701
  535MOL0     C72156   0.578   0.499   7.822  0.2450  0.6067  0.6524
  535MOL0     C72157   0.707   0.463   7.853 -0.1788  0.1486  0.6317
  535MOL0     H72158   1.147   0.525   7.778 -0.6217  0.6611 -0.2000
  535MOL0     H72159   1.375   0.515   7.818 -3.3384  2.8042  0.9405
  535MOL0     H72160   1.573   0.366   7.809 -2.7558 -0.1500  0.3068
  535MOL0     H72161   1.593   0.481   7.944  1.2533 -1.3680  3.7323
  535MOL0     H72162   1.811   0.406   7.897 -0.3479 -1.0129 -0.2423
  535MOL0     H72163   1.755   0.337   8.052 -0.5661 -2.7637  1.1941
  535MOL0     H72164   1.716   0.132   7.952 -1.0974  1.4815 -0.4965
  535MOL0     H72165   1.738   0.184   7.788  1.5471 -1.4615 -0.3892
  535MOL0     H72166   1.975   0.267   7.855 -2.0401  0.9988  0.0771
  535MOL0     H72167   1.962   0.186   8.008 -2.4325  0.5829 -0.2618
  535MOL0     H72168   1.906  -0.028   7.898 -1.6750  0.6342 -1.0500
  535MOL0     H72169   1.965   0.045   7.737 -0.4007  0.2659 -0.9806
  535MOL0     H72170   2.185   0.070   7.845 -1.5006 -0.1551  1.0513
  535MOL0     H72171   2.125  -0.017   7.988  0.5397 -1.8691  0.7536
  535MOL0     H72172   2.076  -0.225   7.848  1.0513 -0.7987 -0.7152
  535MOL0     H72173   2.102  -0.127   7.703 -2.7232 -1.8642  0.3445
  535MOL0     H72174   2.307  -0.155   7.906  0.3703  0.8753 -0.7564
  535MOL0     H72175   2.336  -0.079   7.748 -1.3293  3.2673  1.1886
  535MOL0     H72176   2.349  -0.272   7.533 -0.7763  0.6138  0.5550
  535MOL0     H72177   2.359  -0.655   7.536 -0.5580  0.1519 -1.0856
  535MOL0     H72178   2.315  -0.525   7.420 -4.2382 -0.0570  1.9618
  535MOL0     H72179   2.585  -0.617   7.541 -1.2153 -1.8463 -0.7789
  535MOL0     H72180   2.575  -0.455   7.460 -1.6442 -0.2586 -2.3833
  535MOL0     H72181   2.476  -0.583   7.265 -0.1325  0.1572  0.7474
  535MOL0     H72182   2.498  -0.736   7.349  1.1109 -1.1844  0.7112
  535MOL0     H72183   2.736  -0.718   7.364 -1.4917  0.5557  2.8910
  535MOL0     H72184   2.735  -0.554   7.301 -0.4596 -0.2482  0.4087
  535MOL0     H72185   2.927  -0.683   7.260 -0.5595 -1.5266  0.0915
  535MOL0     H72186   3.136  -0.748   7.290  0.9003 -2.0636  0.2290
  535MOL0     H72187   3.248  -0.806   7.165  0.2642 -0.7989  1.7291
  535MOL0     H72188   3.210  -0.626   7.189 -1.8426  0.4033 -0.9911
  535MOL0     H72189   3.362  -0.985   6.813 -0.9885 -2.3913 -2.1946
  535MOL0     H72190   3.540  -1.061   6.667  0.0160  0.4013  0.5245
  535MOL0     H72191   3.511  -1.045   6.223 -1.6604 -0.3378  1.7781
  535MOL0     H72192   3.554  -0.870   6.254  0.8264  0.1480 -1.2756
  535MOL0     H72193   3.760  -0.940   6.136 -2.4638  0.2082 -1.3452
  535MOL0     H72194   3.776  -0.933   6.312 -0.7453  0.5633 -0.5695
  535MOL0     H72195   3.718  -1.172   6.117  2.2852  0.1077 -0.5507
  535MOL0     H72196   3.715  -1.193   6.299  1.1243 -1.6129 -0.6725
  535MOL0     H72197   3.936  -1.100   6.128  0.5625 -1.5449 -0.6541
  535MOL0     H72198   3.942  -1.102   6.313 -1.6695 -0.8685  1.0455
  535MOL0     H72199   3.919  -1.333   6.113 -4.3602 -0.0332  2.1073
  535MOL0     H72200   3.918  -1.348   6.285  1.0250  0.2865  1.0315
  535MOL0     H72201   4.146  -1.269   6.319  1.5806  0.8144 -0.8185
  535MOL0     H72202   4.149  -1.398   6.203 -0.5452 -0.7852  2.1912
  535MOL0     H72203   4.191  -1.101   6.168  2.5738  0.3431  1.0426
  535MOL0     H72204   4.147  -1.195   6.023  2.7145 -1.6573 -2.1775
  535MOL0     H72205   4.322  -1.325   6.020 -3.1872  1.3766 -0.1133
  535MOL0     H72206   4.385  -1.276   6.183 -1.1340 -1.7282  0.9472
  535MOL0     H72207   3.340  -0.855   6.340  1.2496  1.7815  0.3828
  535MOL0     H72208   3.177  -0.760   6.498 -1.0613 -1.2482 -0.9457
  535MOL0     H72209   2.922  -0.774   6.782  2.0603  0.4733  0.3101
  535MOL0     H72210   2.719  -0.750   6.895  1.9553 -1.8580 -2.6426
  535MOL0     H72211   1.300   0.187   8.106 -0.2498  2.6322  2.7346
  535MOL0     H72212   1.061   0.219   8.061  0.7348 -3.5476 -2.1782
  535MOL0     H72213   0.769   0.680   8.111  0.0091 -2.3101  1.7689
  535MOL0     H72214   0.523   0.750   8.053  1.7889  0.7710  0.4431
  535MOL0     H72215   0.193   0.509   7.884 -2.5130  0.3100  2.1573
  535MOL0     H72216   0.339   0.413   7.929  0.9137  0.4389  0.5509
  535MOL0     H72217   0.354   0.502   8.137  0.4074  0.8642 -0.8981
  535MOL0     H72218   0.192   0.454   8.122  1.8563 -0.5308  1.1879
  535MOL0     H72219   0.148   0.713   8.042 -3.0682  1.9584  1.7437
  535MOL0     H72220   0.312   0.733   8.120 -0.0272 -1.6110  1.7241
  535MOL0     H72221   0.142   0.795   8.282 -0.5275  0.5484 -1.2215
  535MOL0     H72222   0.218   0.641   8.332  0.6532 -1.9566 -1.3556
  535MOL0     H72223  -0.190   0.514   8.266  0.5825 -1.4937 -1.0010
  535MOL0     H72224   0.519   0.454   7.743 -0.7501  1.7128  0.7466
  535MOL0     H72225   0.748   0.376   7.803  0.3361  0.4421  0.5363
  536MOL0     O72226   7.085  10.780  11.207 -0.5199  0.8316 -0.4421
  536MOL0     C72227   7.135  10.740  11.315 -0.6220  0.2687 -1.1466
  536MOL0     O72228   7.074  10.729  11.431  0.7011  0.7386 -0.8936
  536MOL0     C72229   6.942  10.756  11.441 -0.0877 -1.2741 -0.9143
  536MOL0     C72230   6.862  10.655  11.486 -0.2853  0.2964 -0.6898
  536MOL0     C72231   6.729  10.668  11.515  0.4260 -0.4477  0.0938
  536MOL0     C72232   6.683  10.798  11.506 -0.1374  0.0430  0.5118
  536MOL0     O72233   6.554  10.833  11.514 -0.2308  0.3562 -0.1140
  536MOL0     C72234   6.484  10.812  11.639  0.1609  0.2985  0.7072
  536MOL0     C72235   6.397  10.685  11.640 -0.3591 -0.1324  0.2654
  536MOL0     C72236   6.347  10.637  11.504  1.0474  0.1280  0.3760
  536MOL0     C72237   6.311  10.496  11.518 -0.6581  0.4058 -0.2322
  536MOL0     C72238   6.273  10.429  11.385 -0.2672 -0.1851  0.0572
  536MOL0     C72239   6.267  10.276  11.395  0.5556 -0.3295 -0.9311
  536MOL0     C72240   6.302  10.206  11.269  0.0453  0.3141  0.7329
  536MOL0     C72241   6.311  10.053  11.262 -0.2668 -0.9873 -0.9958
  536MOL0     N72242   6.190   9.989  11.312  0.0167 -0.0065  0.4532
  536MOL0     C72243   6.195   9.895  11.414  0.1042  0.1260 -0.3593
  536MOL0     C72244   6.066   9.855  11.426  0.5856 -0.0470 -0.1672
  536MOL0     C72245   6.029   9.732  11.501  0.0986 -0.4200  0.2765
  536MOL0     C72246   5.892   9.735  11.582  0.2798  0.1975 -0.2364
  536MOL0     C72247   5.771   9.761  11.485 -0.3353  0.2275  0.1834
  536MOL0     C72248   5.772   9.659  11.371 -0.1318  0.2169  0.4799
  536MOL0     O72249   5.636   9.637  11.323 -0.3618  0.0709 -0.4905
  536MOL0     C72250   5.587   9.750  11.260  0.6528 -0.3801  0.6052
  536MOL0     C72251   5.647   9.863  11.191 -0.1769 -0.3095  0.3078
  536MOL0     C72252   5.575   9.967  11.133  0.4633  0.7915  0.1600
  536MOL0     C72253   5.659  10.078  11.082 -0.5525 -0.2767  1.0316
  536MOL0     C72254   5.428   9.964  11.122 -0.4982 -0.1244 -1.0146
  536MOL0     C72255   5.346  10.071  11.055 -0.5069  0.5938 -0.7084
  536MOL0     O72256   5.209  10.051  11.072 -0.1295 -0.8233 -0.4218
  536MOL0     C72257   5.122  10.127  11.004  0.5868 -0.2031  0.1951
  536MOL0     C72258   5.050  10.079  10.901 -0.5676  0.6439 -0.2271
  536MOL0     C72259   4.958  10.152  10.829  0.5301 -0.3164 -0.3224
  536MOL0     C72260   4.927  10.276  10.881  0.0341  0.1629  0.3631
  536MOL0     O72261   4.821  10.356  10.827 -0.0341 -0.1660  0.3140
  536MOL0     C72262   4.792  10.358  10.690 -0.0259 -0.4715 -0.6528
  536MOL0     C72263   4.713  10.468  10.645  1.3535 -0.5335 -0.7797
  536MOL0     C72264   4.568  10.449  10.685 -0.2893  0.1157 -0.3640
  536MOL0     C72265   4.471  10.545  10.614  1.0954 -0.4061  0.8817
  536MOL0     C72266   4.314  10.531  10.631  0.0999  0.7294 -0.7227
  536MOL0     C72267   4.241  10.640  10.555  0.6129 -0.6351  0.6973
  536MOL0     C72268   4.084  10.628  10.555  0.7443 -0.2048 -0.4923
  536MOL0     C72269   4.008  10.756  10.543  0.7095 -0.2209 -0.2745
  536MOL0    Cl72270   3.841  10.705  10.528 -0.3434 -0.5134 -0.0318
  536MOL0     C72271   4.995  10.329  10.986  0.7600 -0.3573  0.0486
  536MOL0     C72272   5.100  10.260  11.045  0.0069  0.4910 -0.6718
  536MOL0     O72273   5.399  10.158  10.990  0.2064 -0.2057 -0.4249
  536MOL0     C72274   5.366   9.854  11.184  0.7901  0.9805  0.4133
  536MOL0     C72275   5.445   9.751  11.248 -0.1184  0.3442  0.4283
  536MOL0     N72276   5.988   9.919  11.320 -0.5699  0.8121  0.2618
  536MOL0     N72277   6.071   9.997  11.255  0.1825 -0.2516 -0.4178
  536MOL0     C72278   6.763  10.905  11.466  0.3827 -0.6183  0.2912
  536MOL0     C72279   6.896  10.892  11.439  0.3669 -0.8388 -0.4238
  536MOL0     C72280   7.279  10.717  11.319 -0.4244 -0.4095  0.0646
  536MOL0     C72281   7.349  10.709  11.196 -0.4934 -0.6492 -0.5000
  536MOL0     C72282   7.488  10.693  11.192 -0.0646  0.2457 -0.1358
  536MOL0     C72283   7.569  10.687  11.319  1.2691  0.4892 -0.3593
  536MOL0     O72284   7.705  10.678  11.328  0.4489  0.4288  0.1682
  536MOL0     C72285   7.783  10.693  11.206  0.3825 -0.3701  0.2522
  536MOL0     C72286   7.923  10.715  11.252  0.3161  0.3799  0.4437
  536MOL0     C72287   8.025  10.701  11.138 -0.2416 -0.0549 -0.5388
  536MOL0     C72288   8.167  10.677  11.200 -0.0930  1.2774  0.4989
  536MOL0     C72289   8.197  10.760  11.316 -0.0398  1.3071 -0.6137
  536MOL0     C72290   8.216  10.837  11.408  0.0659  0.6108 -0.3493
  536MOL0     C72291   7.496  10.707  11.442 -0.7628 -1.0089 -0.5457
  536MOL0     C72292   7.357  10.714  11.437 -0.1129  0.4582  0.0180
  536MOL0     H72293   6.910  10.558  11.498 -1.8018 -0.4147 -0.1218
  536MOL0     H72294   6.661  10.590  11.548 -0.2154  0.0243 -0.0838
  536MOL0     H72295   6.541  10.819  11.732 -0.4384 -1.6728  1.2716
  536MOL0     H72296   6.414  10.896  11.642 -1.7582 -1.2054  0.1304
  536MOL0     H72297   6.446  10.598  11.686  2.5411 -0.9827 -3.8594
  536MOL0     H72298   6.312  10.709  11.704  0.3025  0.0526  1.0943
  536MOL0     H72299   6.268  10.694  11.454 -0.0173 -1.9136 -0.3902
  536MOL0     H72300   6.434  10.630  11.438  3.2734 -0.5754  3.1785
  536MOL0     H72301   6.397  10.439  11.555 -0.3736  0.7716 -0.3153
  536MOL0     H72302   6.237  10.495  11.598 -0.0410  1.3704  0.3642
  536MOL0     H72303   6.177  10.471  11.354 -1.3414 -1.5759  1.3236
  536MOL0     H72304   6.348  10.460  11.311  2.9765 -0.3065  3.0358
  536MOL0     H72305   6.318  10.245  11.486 -1.3260  2.6770  1.3533
  536MOL0     H72306   6.165  10.244  11.422  0.1228 -0.5009 -2.5918
  536MOL0     H72307   6.225  10.230  11.196  1.0860 -0.8728 -0.8219
  536MOL0     H72308   6.391  10.258  11.233 -2.5419  5.2050  0.5692
  536MOL0     H72309   6.389  10.036  11.337 -0.1148 -0.3685 -1.0075
  536MOL0     H72310   6.350  10.033  11.162  1.6566  0.9204 -0.7171
  536MOL0     H72311   6.275   9.858  11.478  2.0575  0.6759 -2.3805
  536MOL0     H72312   6.032   9.644  11.435  1.5976 -1.0556  1.1347
  536MOL0     H72313   6.118   9.709  11.561  0.6286 -1.0651 -0.7095
  536MOL0     H72314   5.901   9.828  11.640  3.5091 -0.2775  0.1904
  536MOL0     H72315   5.874   9.657  11.657  1.1633  0.1402 -0.0696
  536MOL0     H72316   5.762   9.859  11.438 -1.3786 -0.3611 -0.8935
  536MOL0     H72317   5.683   9.750  11.549 -1.1870 -3.1417 -1.3502
  536MOL0     H72318   5.804   9.563  11.412  0.7793  1.1958  2.1882
  536MOL0     H72319   5.843   9.693  11.295  1.4380  2.7346  2.8398
  536MOL0     H72320   5.755   9.876  11.185 -0.4856  2.0462 -2.7363
  536MOL0     H72321   5.692  10.036  10.987 -0.2411 -0.4594  1.2206
  536MOL0     H72322   5.618  10.177  11.063  2.3081  0.6034 -1.3669
  536MOL0     H72323   5.749  10.091  11.142 -0.0712  0.3701  0.1961
  536MOL0     H72324   5.072   9.980  10.860 -4.5325 -0.4428 -0.0936
  536MOL0     H72325   4.906  10.102  10.749  2.7830 -0.4205 -1.8278
  536MOL0     H72326   4.888  10.371  10.638  0.2851 -1.7819 -0.4302
  536MOL0     H72327   4.751  10.261  10.660 -0.5621 -1.2682  2.3804
  536MOL0     H72328   4.754  10.563  10.683 -1.6288  1.2517 -1.6858
  536MOL0     H72329   4.730  10.477  10.537  1.1314 -1.7351 -0.9229
  536MOL0     H72330   4.553  10.439  10.793 -2.6476 -0.2370 -0.6817
  536MOL0     H72331   4.543  10.350  10.647 -1.4976 -0.4801  1.8294
  536MOL0     H72332   4.492  10.645  10.653 -3.7840  1.1244  0.3738
  536MOL0     H72333   4.489  10.543  10.507 -2.2516 -0.6174  0.1894
  536MOL0     H72334   4.277  10.529  10.734 -0.6167  6.2932 -0.5717
  536MOL0     H72335   4.293  10.434  10.586  0.4254 -0.7267  2.0479
  536MOL0     H72336   4.265  10.741  10.590 -1.4599  0.5835 -1.1419
  536MOL0     H72337   4.286  10.630  10.456 -0.3117 -1.9873  0.3873
  536MOL0     H72338   4.043  10.579  10.644 -0.7134 -1.3714 -1.7617
  536MOL0     H72339   4.043  10.560  10.479  1.6381 -1.1353 -0.1717
  536MOL0     H72340   4.045  10.807  10.454 -1.5371  3.5220  0.7078
  536MOL0     H72341   4.022  10.821  10.630 -0.4516  0.7868 -0.8027
  536MOL0     H72342   4.973  10.423  11.035 -2.0202 -0.5468 -0.6623
  536MOL0     H72343   5.168  10.306  11.116  0.0961 -0.2836 -0.2359
  536MOL0     H72344   5.259   9.841  11.196  1.1206  0.6878  4.4453
  536MOL0     H72345   5.383   9.672  11.289 -0.9711  1.4016  1.2351
  536MOL0     H72346   6.706  10.997  11.465 -0.1895 -0.9217  1.8262
  536MOL0     H72347   6.955  10.981  11.421  2.3101 -2.3622 -2.2127
  536MOL0     H72348   7.307  10.738  11.100 -0.8250  1.9013  0.3266
  536MOL0     H72349   7.534  10.678  11.095  2.0904  1.1925  0.6747
  536MOL0     H72350   7.776  10.595  11.158  0.1771 -0.7785  1.1129
  536MOL0     H72351   7.748  10.770  11.136 -1.0029 -0.1797  1.1203
  536MOL0     H72352   7.946  10.631  11.319 -0.1626  1.8963  2.6443
  536MOL0     H72353   7.931  10.810  11.306 -4.5176  1.3826 -0.0837
  536MOL0     H72354   8.034  10.792  11.078  0.7016  1.6455  2.0249
  536MOL0     H72355   8.018  10.611  11.076  1.7757 -0.2017 -0.6122
  536MOL0     H72356   8.243  10.699  11.125  0.7273 -2.3340  0.1047
  536MOL0     H72357   8.175  10.569  11.210  2.1208  1.2676 -0.8090
  536MOL0     H72358   8.229  10.909  11.485 -0.6298 -1.3008  1.6550
  536MOL0     H72359   7.540  10.700  11.541  1.8935 -0.5086 -1.6005
  536MOL0     H72360   7.311  10.709  11.535  0.2821  0.2782  0.1928
  537MOL0     O72361   4.354   7.136   2.434  0.8193  0.4469  0.4710
  537MOL0     C72362   4.338   7.086   2.316 -0.5243  0.1932 -1.3727
  537MOL0     O72363   4.230   7.014   2.267 -0.3096 -0.2633  0.1690
  537MOL0     C72364   4.141   6.953   2.357 -0.6055 -0.5976  0.0682
  537MOL0     C72365   4.097   6.999   2.486 -0.4589 -0.8384  0.3319
  537MOL0     C72366   4.016   6.923   2.565  0.0312  0.3588 -0.1670
  537MOL0     C72367   3.949   6.806   2.529 -0.5326 -0.1820 -0.0434
  537MOL0     O72368   3.832   6.751   2.589 -0.2585 -0.5574 -0.5563
  537MOL0     C72369   3.814   6.750   2.730  0.5195 -0.7950  0.0868
  537MOL0     C72370   3.927   6.676   2.804 -0.4018 -0.4597 -0.0025
  537MOL0     C72371   3.945   6.530   2.776  0.2341  0.0130  0.2042
  537MOL0     C72372   4.013   6.505   2.636  0.2471  0.4365 -0.4803
  537MOL0     C72373   4.036   6.353   2.618  0.3661  0.1140  0.6894
  537MOL0     C72374   4.117   6.271   2.728 -0.4293  0.3205 -0.4913
  537MOL0     C72375   4.223   6.173   2.668 -0.2309  1.0464  0.3225
  537MOL0     C72376   4.269   6.068   2.774  0.4415  0.4624 -0.3217
  537MOL0     N72377   4.173   5.976   2.843 -0.5307 -0.0732  0.0100
  537MOL0     C72378   4.096   6.007   2.953  0.6134 -0.4725 -0.1897
  537MOL0     C72379   4.035   5.892   2.982  0.3791 -0.6864  0.0557
  537MOL0     C72380   3.963   5.867   3.110 -0.3020  0.4709 -0.2710
  537MOL0     C72381   4.047   5.788   3.230  1.6212 -0.2114 -0.3319
  537MOL0     C72382   4.044   5.877   3.349  0.2719 -0.1777 -1.0780
  537MOL0     C72383   4.089   5.788   3.474 -0.0877 -0.2905 -0.3215
  537MOL0     O72384   4.083   5.867   3.592  0.1232 -0.2142  0.4997
  537MOL0     C72385   4.131   5.814   3.705  0.1508  0.1112  0.0034
  537MOL0     C72386   4.229   5.709   3.722 -0.0182  0.2094 -0.3125
  537MOL0     C72387   4.285   5.667   3.844  0.4049 -0.3683  0.0071
  537MOL0     C72388   4.410   5.564   3.832  0.7853  0.0259 -0.7654
  537MOL0     C72389   4.240   5.726   3.965  0.5956  1.0674 -0.1875
  537MOL0     C72390   4.306   5.694   4.098  0.0112  0.7314 -0.2784
  537MOL0     O72391   4.227   5.722   4.205  1.4477 -0.3627  0.1457
  537MOL0     C72392   4.284   5.725   4.331  0.0582  0.0094  0.2498
  537MOL0     C72393   4.364   5.828   4.382  0.4914  0.4493  0.1579
  537MOL0     C72394   4.420   5.843   4.509  0.9151  0.1783  0.0225
  537MOL0     C72395   4.365   5.748   4.602 -0.5202  0.7121 -0.2719
  537MOL0     O72396   4.401   5.727   4.733 -0.0045  0.3715 -0.1192
  537MOL0     C72397   4.496   5.810   4.786  0.7707 -0.0638  0.5994
  537MOL0     C72398   4.503   5.766   4.932 -0.1117  0.1734 -0.1543
  537MOL0     C72399   4.533   5.618   4.951  0.9163  0.2822  0.1981
  537MOL0     C72400   4.564   5.591   5.102  0.0008  0.0649 -0.6669
  537MOL0     C72401   4.439   5.597   5.190 -0.7188  0.1371 -0.0034
  537MOL0     C72402   4.316   5.521   5.139  0.1283 -0.5101  0.4551
  537MOL0     C72403   4.225   5.488   5.255 -0.1050 -1.0914  0.4006
  537MOL0     C72404   4.080   5.442   5.228  1.1943 -0.6643 -0.7477
  537MOL0    Cl72405   3.987   5.452   5.376  0.2798  0.0319 -0.2046
  537MOL0     C72406   4.283   5.643   4.560 -0.1616  0.4018  0.1018
  537MOL0     C72407   4.240   5.631   4.423 -0.1445 -0.1838 -0.4236
  537MOL0     O72408   4.423   5.659   4.103  0.0504  0.4382  0.0679
  537MOL0     C72409   4.128   5.819   3.955  0.0754 -0.5961  0.0081
  537MOL0     C72410   4.080   5.862   3.824  0.0253  0.0943  0.4064
  537MOL0     N72411   4.087   5.794   2.906  0.0081 -0.1878 -0.1748
  537MOL0     N72412   4.167   5.841   2.820  0.2401 -0.3987 -0.1153
  537MOL0     C72413   3.978   6.767   2.393 -0.5233 -0.6722  0.4137
  537MOL0     C72414   4.080   6.835   2.316  0.8769  0.2857  0.2116
  537MOL0     C72415   4.453   7.109   2.216  0.4415 -0.4778 -0.4141
  537MOL0     C72416   4.586   7.134   2.259 -0.5828 -0.7175 -0.2181
  537MOL0     C72417   4.686   7.142   2.158  0.0507  1.3674 -0.4606
  537MOL0     C72418   4.657   7.126   2.022 -0.2686 -0.3839 -0.3398
  537MOL0     O72419   4.742   7.141   1.916 -0.2840  0.2721  0.5018
  537MOL0     C72420   4.852   7.230   1.951  0.0147 -0.0923 -0.1762
  537MOL0     C72421   4.919   7.303   1.831  0.0710  0.0783 -0.3186
  537MOL0     C72422   4.950   7.206   1.711 -1.1194 -1.2912 -0.1963
  537MOL0     C72423   5.036   7.288   1.613  0.0475  0.2297  1.0654
  537MOL0     C72424   5.168   7.330   1.666 -0.3328  0.8182 -0.0023
  537MOL0     C72425   5.263   7.383   1.718 -0.6443  0.2133  0.4260
  537MOL0     C72426   4.522   7.099   1.990  0.8689 -0.8164  0.0248
  537MOL0     C72427   4.421   7.101   2.081  0.6303 -0.3485 -0.2160
  537MOL0     H72428   4.142   7.089   2.526  3.1736 -1.2544 -2.2805
  537MOL0     H72429   3.992   6.964   2.663  1.9761  2.7560 -0.5962
  537MOL0     H72430   3.806   6.853   2.766 -0.7489 -1.1367  0.8496
  537MOL0     H72431   3.712   6.715   2.749 -1.3953  3.2122 -1.6634
  537MOL0     H72432   4.011   6.743   2.782 -3.0948  2.2224 -3.4476
  537MOL0     H72433   3.912   6.679   2.912 -1.9078  1.4782 -0.2085
  537MOL0     H72434   4.017   6.497   2.851 -0.3298  0.6817  1.0638
  537MOL0     H72435   3.855   6.470   2.793  0.2937  0.0422  0.6389
  537MOL0     H72436   3.964   6.550   2.549  0.7681  3.2049  0.5510
  537MOL0     H72437   4.115   6.543   2.645  0.0701  0.5931  1.0995
  537MOL0     H72438   3.941   6.303   2.597  1.0157  0.0379 -2.7413
  537MOL0     H72439   4.092   6.330   2.526  0.5325 -0.7475  0.9997
  537MOL0     H72440   4.160   6.342   2.799  0.8763 -2.2180  1.4606
  537MOL0     H72441   4.043   6.224   2.794  1.3837 -0.5750  1.0340
  537MOL0     H72442   4.178   6.118   2.585  1.7804 -1.3138  0.6978
  537MOL0     H72443   4.303   6.239   2.635  1.7559 -1.0733  0.6335
  537MOL0     H72444   4.327   6.113   2.855 -1.6148  1.8825  0.4574
  537MOL0     H72445   4.335   6.009   2.710  0.0499  0.8312 -1.0737
  537MOL0     H72446   4.087   6.101   3.007 -1.7619 -0.1756 -0.9938
  537MOL0     H72447   3.914   5.959   3.142  1.2087  1.2214 -0.0237
  537MOL0     H72448   3.875   5.804   3.092  0.2006  0.2804 -2.2745
  537MOL0     H72449   4.152   5.777   3.203  0.8049  0.0646 -4.2601
  537MOL0     H72450   4.012   5.686   3.247  2.4127 -1.0073 -2.9436
  537MOL0     H72451   3.954   5.935   3.373  0.8826  1.4126 -2.4232
  537MOL0     H72452   4.110   5.963   3.337 -1.7819  1.9539  1.5252
  537MOL0     H72453   4.195   5.773   3.450  0.2542  2.3772 -0.7981
  537MOL0     H72454   4.033   5.694   3.476  1.6536 -1.4148 -1.4210
  537MOL0     H72455   4.281   5.665   3.638  2.7020  2.8254 -0.1610
  537MOL0     H72456   4.494   5.592   3.897 -2.0795  1.6230  2.5724
  537MOL0     H72457   4.373   5.468   3.869 -0.4252  0.5808 -0.4915
  537MOL0     H72458   4.428   5.532   3.729 -2.0949 -1.7662 -0.8402
  537MOL0     H72459   4.363   5.895   4.296  1.6481 -1.9962 -1.8802
  537MOL0     H72460   4.477   5.930   4.540 -1.2966  0.7601  2.9493
  537MOL0     H72461   4.600   5.801   4.752  0.7662  0.0751  0.5494
  537MOL0     H72462   4.472   5.914   4.761  0.3413  0.0920  1.6341
  537MOL0     H72463   4.572   5.834   4.982  3.7413 -2.9583 -0.6417
  537MOL0     H72464   4.401   5.773   4.972 -0.1286 -1.6882  0.2255
  537MOL0     H72465   4.622   5.594   4.893 -0.4233 -0.5500 -1.6044
  537MOL0     H72466   4.444   5.563   4.920 -1.1729  1.8951  2.8827
  537MOL0     H72467   4.612   5.494   5.119  1.6118  0.8410 -0.6306
  537MOL0     H72468   4.627   5.668   5.147 -2.9541  1.3335  1.7111
  537MOL0     H72469   4.424   5.706   5.197  1.6926  0.4405  1.6685
  537MOL0     H72470   4.467   5.561   5.290  0.2783  0.1810 -0.2597
  537MOL0     H72471   4.265   5.577   5.060 -1.5831 -0.0449  1.8265
  537MOL0     H72472   4.350   5.428   5.093  0.4723 -0.3120  0.3030
  537MOL0     H72473   4.210   5.585   5.304  0.7306 -1.5013  1.5246
  537MOL0     H72474   4.271   5.405   5.310  1.2325 -0.4938  0.2025
  537MOL0     H72475   4.080   5.337   5.195 -2.1652 -1.3766  1.0553
  537MOL0     H72476   4.020   5.504   5.160  0.9953  0.3968  0.3677
  537MOL0     H72477   4.259   5.564   4.629  0.5744  1.9377  2.2143
  537MOL0     H72478   4.179   5.545   4.398  1.6359 -1.6810  0.2097
  537MOL0     H72479   4.084   5.869   4.041 -1.4862  0.7399 -1.5068
  537MOL0     H72480   3.998   5.934   3.825 -1.1515 -1.2219  0.6636
  537MOL0     H72481   3.928   6.677   2.360 -3.0634  0.0594  1.9727
  537MOL0     H72482   4.090   6.805   2.212  1.9053  0.1860  0.3308
  537MOL0     H72483   4.609   7.164   2.360  0.6958 -2.7266  0.1433
  537MOL0     H72484   4.786   7.169   2.190  0.6219 -0.1661 -0.8799
  537MOL0     H72485   4.820   7.310   2.018  0.9893 -0.7404  1.1062
  537MOL0     H72486   4.920   7.165   2.007  1.1344  0.0456 -1.3125
  537MOL0     H72487   5.008   7.349   1.874  0.6091 -0.4916 -0.8227
  537MOL0     H72488   4.855   7.389   1.807 -0.5899 -0.2544  0.2264
  537MOL0     H72489   4.864   7.164   1.659 -0.6816 -1.6990 -0.6041
  537MOL0     H72490   5.008   7.117   1.740  3.3750  1.4684  0.3449
  537MOL0     H72491   4.969   7.373   1.599 -1.5598 -1.3640 -2.0073
  537MOL0     H72492   5.048   7.238   1.516  0.1047 -1.1736  1.7747
  537MOL0     H72493   5.355   7.434   1.741  0.2776 -0.7326 -1.0085
  537MOL0     H72494   4.504   7.071   1.887  0.0646 -1.1669  0.2514
  537MOL0     H72495   4.320   7.078   2.049  1.7814 -4.4523 -1.4947
  538MOL0     O72496   9.975   8.895   1.970  0.0517  0.9862  0.5169
  538MOL0     C72497  10.046   8.847   2.061 -0.2534 -0.0633 -1.1067
  538MOL0     O72498  10.000   8.774   2.170  0.0978  0.2419  0.3044
  538MOL0     C72499   9.859   8.771   2.177  0.3670  0.6470  0.5127
  538MOL0     C72500   9.795   8.863   2.251  0.8482  0.4457  1.2427
  538MOL0     C72501   9.660   8.841   2.273  0.2719 -0.2007  0.4966
  538MOL0     C72502   9.588   8.726   2.230 -0.5198  0.2406 -0.2014
  538MOL0     O72503   9.452   8.721   2.266 -0.0140 -0.6103  0.0068
  538MOL0     C72504   9.371   8.613   2.208  0.2928  0.1017 -0.0316
  538MOL0     C72505   9.323   8.642   2.071  0.1736 -0.5834  0.7708
  538MOL0     C72506   9.228   8.530   2.015  0.1141 -0.0304  0.0087
  538MOL0     C72507   9.076   8.540   2.064 -0.8045 -0.3846  0.2590
  538MOL0     C72508   9.000   8.407   2.050  0.1405 -0.0276  0.6280
  538MOL0     C72509   8.858   8.432   2.108  0.6993 -0.2286 -0.2667
  538MOL0     C72510   8.744   8.321   2.102 -0.4136  0.4483 -0.4930
  538MOL0     C72511   8.660   8.333   1.986  1.0934  0.3744 -0.6037
  538MOL0     N72512   8.544   8.251   1.995 -0.5439  0.0496  0.0283
  538MOL0     C72513   8.450   8.232   2.094 -0.8287 -0.1789  0.5385
  538MOL0     C72514   8.384   8.123   2.058  1.0514  0.6614 -0.6988
  538MOL0     C72515   8.288   8.054   2.155  0.0025  0.2003 -0.2021
  538MOL0     C72516   8.139   8.083   2.124 -0.5321  0.0688  0.0112
  538MOL0     C72517   8.060   7.995   2.031  0.1612  0.6991 -0.5205
  538MOL0     C72518   7.912   8.030   2.051  0.3300  0.0409 -0.2271
  538MOL0     O72519   7.835   7.942   1.970  0.0053  0.2784  0.3002
  538MOL0     C72520   7.698   7.965   1.971  0.6029  0.0825 -0.6212
  538MOL0     C72521   7.621   7.865   1.913  0.2061  0.4119  0.1361
  538MOL0     C72522   7.480   7.872   1.906  0.3036 -0.2294 -1.7799
  538MOL0     C72523   7.415   7.751   1.841  0.1242 -0.0871 -0.2625
  538MOL0     C72524   7.414   7.990   1.955  0.8870  0.2622 -0.0321
  538MOL0     C72525   7.267   8.017   1.953  0.3510  0.6107  0.0954
  538MOL0     O72526   7.189   7.918   1.920 -0.0013 -0.5559  0.4213
  538MOL0     C72527   7.059   7.944   1.865 -0.0136 -0.2758 -0.2585
  538MOL0     C72528   7.044   8.039   1.764  0.6019 -0.4119  0.5062
  538MOL0     C72529   6.920   8.078   1.723  0.0063  0.6294  0.0080
  538MOL0     C72530   6.815   8.009   1.784  0.5635  0.6377 -0.8584
  538MOL0     O72531   6.692   8.072   1.781 -0.7817 -0.2163 -0.2762
  538MOL0     C72532   6.604   8.001   1.692  1.4302  0.6037 -0.1412
  538MOL0     C72533   6.487   8.101   1.674 -0.2150  1.0677  0.1630
  538MOL0     C72534   6.368   8.048   1.592  0.6688  1.1744  0.4753
  538MOL0     C72535   6.254   7.965   1.655 -0.0344  0.1359 -0.1823
  538MOL0     C72536   6.306   7.865   1.759 -0.2954 -0.1453 -0.4274
  538MOL0     C72537   6.183   7.792   1.811 -0.4006 -0.4891  0.5031
  538MOL0     C72538   6.211   7.681   1.906  0.4937  0.4234 -0.7994
  538MOL0     C72539   6.096   7.582   1.908 -0.1565  1.0740 -0.3313
  538MOL0    Cl72540   5.973   7.679   2.003 -0.2455  0.7203 -0.0699
  538MOL0     C72541   6.823   7.908   1.876  0.6539 -0.5240  0.3828
  538MOL0     C72542   6.949   7.866   1.918  0.0956  0.5346  0.1812
  538MOL0     O72543   7.225   8.129   1.986  0.5308  0.7110 -0.7034
  538MOL0     C72544   7.500   8.074   2.020  0.0274 -0.4492  0.0242
  538MOL0     C72545   7.634   8.072   2.031  0.3679  0.4753  0.0539
  538MOL0     N72546   8.420   8.071   1.937 -0.4455  0.0677 -0.3088
  538MOL0     N72547   8.522   8.157   1.898  0.1356  0.6639  0.0089
  538MOL0     C72548   9.663   8.631   2.168  0.9910  0.3577  0.2772
  538MOL0     C72549   9.790   8.660   2.128  0.4909 -0.0392 -0.0080
  538MOL0     C72550  10.188   8.854   2.051 -0.2874  0.1077 -0.2755
  538MOL0     C72551  10.255   8.883   1.927 -1.0116  0.5933 -0.0895
  538MOL0     C72552  10.390   8.899   1.929 -0.0009 -0.1943  1.3442
  538MOL0     C72553  10.476   8.881   2.033 -0.3599 -0.1013 -0.4066
  538MOL0     O72554  10.612   8.915   2.015  0.0163 -0.8187  1.2741
  538MOL0     C72555  10.715   8.850   2.093  0.3971  0.4457 -0.9234
  538MOL0     C72556  10.850   8.895   2.050  0.4195 -0.0774 -0.2935
  538MOL0     C72557  10.970   8.813   2.113  0.0401 -0.6028  1.0827
  538MOL0     C72558  11.111   8.849   2.068 -1.0480 -0.4539 -0.8749
  538MOL0     C72559  11.205   8.738   2.077  0.1888  0.2146  0.7044
  538MOL0     C72560  11.269   8.636   2.077 -0.9794 -1.2960  0.8892
  538MOL0     C72561  10.420   8.837   2.157 -0.9449 -1.3975  0.1601
  538MOL0     C72562  10.277   8.817   2.158 -0.1033 -0.4576 -0.3988
  538MOL0     H72563   9.843   8.954   2.287  0.4013  0.1570  2.6431
  538MOL0     H72564   9.592   8.916   2.313  1.0150 -0.5651  2.5286
  538MOL0     H72565   9.418   8.514   2.211  1.1964  0.2989 -3.3953
  538MOL0     H72566   9.285   8.605   2.275  1.4572 -0.2310  1.4964
  538MOL0     H72567   9.269   8.736   2.060 -0.0550 -0.9496 -2.0387
  538MOL0     H72568   9.414   8.643   2.009 -0.4744  0.4564 -0.2053
  538MOL0     H72569   9.224   8.542   1.906  2.7363 -0.6214 -0.2098
  538MOL0     H72570   9.276   8.434   2.038  1.8564  0.9984  0.8033
  538MOL0     H72571   9.066   8.576   2.167  1.0729  1.8391 -0.2552
  538MOL0     H72572   9.027   8.621   2.009 -2.4101 -0.1956  1.8688
  538MOL0     H72573   8.993   8.369   1.948  1.6202 -1.0858  0.8675
  538MOL0     H72574   9.044   8.322   2.104  2.1449 -1.5729 -3.0677
  538MOL0     H72575   8.860   8.453   2.215 -1.7312 -0.8788 -0.0219
  538MOL0     H72576   8.817   8.508   2.041 -1.4797 -1.3406 -0.3020
  538MOL0     H72577   8.780   8.218   2.105  0.5552  0.7722 -0.7428
  538MOL0     H72578   8.681   8.324   2.192  2.0788 -0.8558  1.4317
  538MOL0     H72579   8.724   8.309   1.901  2.1618  2.1666 -0.3466
  538MOL0     H72580   8.616   8.433   1.974  0.5130  0.0918 -0.8730
  538MOL0     H72581   8.436   8.290   2.184  1.1247 -1.3784  1.7051
  538MOL0     H72582   8.322   7.951   2.157 -1.1033 -0.2408  3.1794
  538MOL0     H72583   8.302   8.093   2.256  1.5659  1.5494 -0.8994
  538MOL0     H72584   8.139   8.181   2.075  0.2232  0.0038 -0.1354
  538MOL0     H72585   8.087   8.099   2.218  1.5877  0.8830  1.0986
  538MOL0     H72586   8.094   7.892   2.045 -1.1611  0.3377  0.2101
  538MOL0     H72587   8.102   8.022   1.934  2.1304 -0.7508 -0.1244
  538MOL0     H72588   7.899   8.136   2.025 -1.3792  0.5416  2.3201
  538MOL0     H72589   7.875   8.008   2.151 -1.0588  2.3277 -0.1562
  538MOL0     H72590   7.670   7.781   1.864  1.6974  1.2442  0.1458
  538MOL0     H72591   7.450   7.654   1.879 -3.7552 -2.2608 -1.6167
  538MOL0     H72592   7.305   7.748   1.842 -0.0827  2.5424  3.3442
  538MOL0     H72593   7.433   7.755   1.734  1.3903  3.8719 -0.0587
  538MOL0     H72594   7.135   8.092   1.734  1.3515 -0.8545  1.9039
  538MOL0     H72595   6.893   8.154   1.650 -1.4011  0.4110  0.2740
  538MOL0     H72596   6.663   7.976   1.604 -1.1023  2.0527 -2.3858
  538MOL0     H72597   6.559   7.912   1.738  0.9606  0.9366  0.0465
  538MOL0     H72598   6.450   8.142   1.769 -0.3698  1.7343 -0.1771
  538MOL0     H72599   6.535   8.176   1.610  1.5599  1.5930  1.9736
  538MOL0     H72600   6.394   7.985   1.505 -3.7840  0.6803 -0.7395
  538MOL0     H72601   6.319   8.133   1.544  0.1437  0.4940 -0.2313
  538MOL0     H72602   6.183   8.028   1.709 -2.0951 -2.8039  0.8311
  538MOL0     H72603   6.201   7.919   1.571  1.5423 -3.2959  0.5083
  538MOL0     H72604   6.354   7.925   1.836  0.5475 -0.2164 -0.8870
  538MOL0     H72605   6.380   7.791   1.727 -1.2210 -1.0892 -0.4698
  538MOL0     H72606   6.117   7.868   1.853 -0.1602  0.5895 -1.0102
  538MOL0     H72607   6.137   7.750   1.721  1.2842 -1.4339  0.0297
  538MOL0     H72608   6.235   7.714   2.008 -1.1673  4.2142 -1.5034
  538MOL0     H72609   6.299   7.627   1.869  1.0511 -1.0274  2.2834
  538MOL0     H72610   6.118   7.490   1.963 -3.2764 -1.4255 -2.8560
  538MOL0     H72611   6.074   7.560   1.803 -1.1704 -0.8607  0.2356
  538MOL0     H72612   6.740   7.849   1.914  0.6603  0.7499  2.4942
  538MOL0     H72613   6.964   7.778   1.980 -0.1470 -0.4411 -1.0972
  538MOL0     H72614   7.470   8.167   2.068  3.9867  3.0993 -3.5837
  538MOL0     H72615   7.691   8.142   2.091  0.4636  1.2109 -0.8780
  538MOL0     H72616   9.624   8.532   2.144 -1.6234  0.5555  3.0817
  538MOL0     H72617   9.835   8.572   2.083 -1.3418 -1.2486  0.3922
  538MOL0     H72618  10.192   8.899   1.840 -0.4367 -1.8306 -1.0306
  538MOL0     H72619  10.427   8.954   1.843 -1.8099 -1.3349 -0.2611
  538MOL0     H72620  10.696   8.873   2.199 -1.7318  1.6063 -1.4941
  538MOL0     H72621  10.710   8.742   2.082  3.5588 -0.2041  2.1594
  538MOL0     H72622  10.870   9.002   2.065  1.0451 -0.0908 -0.9242
  538MOL0     H72623  10.854   8.874   1.943  0.7421 -1.1164 -0.0921
  538MOL0     H72624  10.946   8.710   2.085  0.1914 -0.0482 -1.3415
  538MOL0     H72625  10.961   8.826   2.221 -1.8995  1.4950  0.7480
  538MOL0     H72626  11.150   8.918   2.144  1.7924 -4.2706  1.5266
  538MOL0     H72627  11.113   8.891   1.967 -0.8118 -3.5805 -2.3033
  538MOL0     H72628  11.344   8.560   2.086  1.3698  0.9194  1.2913
  538MOL0     H72629  10.478   8.840   2.248 -2.0141  4.5519  1.0534
  538MOL0     H72630  10.236   8.787   2.254 -0.0754  0.0648 -0.2217
  539MOL0     O72631  10.908   0.425   5.821  0.5936  0.9434  0.1200
  539MOL0     C72632  10.924   0.322   5.888 -0.0761  0.5758 -0.2252
  539MOL0     O72633  10.841   0.269   5.980  0.0901 -0.3121  0.2475
  539MOL0     C72634  10.721   0.334   5.984  0.2920 -0.1399  1.2569
  539MOL0     C72635  10.701   0.410   6.095  0.5302  0.6050 -0.4218
  539MOL0     C72636  10.573   0.460   6.107 -0.2966  0.5143 -0.3932
  539MOL0     C72637  10.478   0.458   6.006  0.1937  0.7064 -0.3019
  539MOL0     O72638  10.349   0.519   5.997 -0.2962  0.6604 -0.8233
  539MOL0     C72639  10.311   0.611   6.105  0.2361  0.5445 -0.3069
  539MOL0     C72640  10.179   0.672   6.090  0.7134 -0.1804 -0.9828
  539MOL0     C72641  10.068   0.568   6.107 -0.6430  0.5707 -0.7443
  539MOL0     C72642  10.037   0.509   6.244  0.3964  1.1770  0.5402
  539MOL0     C72643   9.904   0.449   6.250 -0.8538  0.2274 -0.3287
  539MOL0     C72644   9.857   0.440   6.396  0.2531  0.5694 -0.2665
  539MOL0     C72645   9.753   0.333   6.424 -0.2822  0.0579  0.4055
  539MOL0     C72646   9.708   0.327   6.576 -0.3457 -0.2699 -0.2494
  539MOL0     N72647   9.565   0.295   6.559 -0.3190  0.3019 -0.4799
  539MOL0     C72648   9.458   0.367   6.510  0.5076  0.2525  0.8940
  539MOL0     C72649   9.364   0.283   6.469 -0.1344  0.3780 -0.7463
  539MOL0     C72650   9.224   0.320   6.423 -0.6731  0.0327  0.1140
  539MOL0     C72651   9.135   0.216   6.378 -0.0497  0.3903  0.5766
  539MOL0     C72652   8.997   0.283   6.376  0.1485  0.8318 -0.0990
  539MOL0     C72653   8.892   0.205   6.297 -0.4769  0.0728 -0.9370
  539MOL0     O72654   8.929   0.195   6.154  0.5302 -0.2033 -0.2503
  539MOL0     C72655   8.820   0.167   6.071  0.2860 -0.1231  0.7999
  539MOL0     C72656   8.675   0.168   6.103 -0.8325 -0.0767 -0.3740
  539MOL0     C72657   8.577   0.134   6.013 -0.5708 -0.5092  0.1239
  539MOL0     C72658   8.441   0.177   6.052 -0.3371 -0.2264 -0.2841
  539MOL0     C72659   8.616   0.088   5.889 -0.2818 -0.1905  0.0131
  539MOL0     C72660   8.517   0.055   5.785  0.9655  0.7365  0.1553
  539MOL0     O72661   8.575   0.019   5.662 -0.1758 -0.7680  0.0788
  539MOL0     C72662   8.503   0.036   5.544 -0.3912  0.5205  0.0041
  539MOL0     C72663   8.430   0.159   5.511 -0.6035 -0.1119  0.2776
  539MOL0     C72664   8.354   0.162   5.393 -0.9598 -0.5872 -0.5166
  539MOL0     C72665   8.327   0.044   5.307  0.2946 -1.1067 -0.5717
  539MOL0     O72666   8.233   0.026   5.211  0.1290  0.5497 -0.7906
  539MOL0     C72667   8.204   0.133   5.120  0.4481  0.2756 -0.4023
  539MOL0     C72668   8.052   0.135   5.109  0.5898  0.3320 -1.2324
  539MOL0     C72669   7.991   0.190   5.241 -1.2130  0.4057  0.5593
  539MOL0     C72670   7.976   0.337   5.233 -0.0942  1.0986  0.4636
  539MOL0     C72671   7.890   0.397   5.352  0.4161  0.0162 -0.5040
  539MOL0     C72672   7.909   0.542   5.378 -0.7072 -0.2218  1.1576
  539MOL0     C72673   7.821   0.591   5.495 -0.5711 -0.2685  0.7588
  539MOL0     C72674   7.818   0.736   5.542 -0.2799  0.4835  0.7236
  539MOL0    Cl72675   7.982   0.792   5.561 -0.1460  0.4461  0.0950
  539MOL0     C72676   8.393  -0.071   5.350 -0.4285 -1.0639  0.3701
  539MOL0     C72677   8.478  -0.082   5.456  0.5698 -0.2109 -0.1032
  539MOL0     O72678   8.396   0.051   5.811 -0.3641 -0.2341 -0.5996
  539MOL0     C72679   8.762   0.094   5.855  0.4126  0.5559  0.2591
  539MOL0     C72680   8.857   0.119   5.946 -0.0344 -0.2186 -0.7708
  539MOL0     N72681   9.407   0.153   6.484 -0.0963 -0.0634 -0.3714
  539MOL0     N72682   9.520   0.162   6.552  0.7781 -0.3635  0.7249
  539MOL0     C72683  10.501   0.381   5.895 -0.7387 -0.2202  1.5588
  539MOL0     C72684  10.618   0.311   5.891 -0.1403  0.5850 -0.5092
  539MOL0     C72685  11.049   0.249   5.872 -0.3713  0.4306  0.3195
  539MOL0     C72686  11.140   0.283   5.770  0.3603 -0.4427  0.1390
  539MOL0     C72687  11.260   0.207   5.765 -0.8797 -0.5892  0.2740
  539MOL0     C72688  11.297   0.107   5.855  0.0548 -1.1904 -0.3673
  539MOL0     O72689  11.409   0.021   5.866  0.6535 -0.4564  0.6341
  539MOL0     C72690  11.516   0.017   5.766 -0.1830  0.1763 -0.4929
  539MOL0     C72691  11.618   0.128   5.785  0.2155  0.2374  0.6505
  539MOL0     C72692  11.752   0.119   5.708  1.0747 -0.1161  0.3452
  539MOL0     C72693  11.805   0.251   5.653 -0.1422 -0.1626 -0.8168
  539MOL0     C72694  11.841   0.349   5.761  0.4491 -0.0259 -0.4361
  539MOL0     C72695  11.873   0.429   5.843 -0.4608 -0.7757  1.0328
  539MOL0     C72696  11.201   0.075   5.947  0.8342 -0.1196  0.9478
  539MOL0     C72697  11.080   0.143   5.954  0.4641  0.7617 -0.6771
  539MOL0     H72698  10.774   0.428   6.173 -1.6094  1.4004  1.5290
  539MOL0     H72699  10.555   0.529   6.189  1.3344  3.1272 -2.0976
  539MOL0     H72700  10.319   0.548   6.194  1.7599 -0.7097 -1.2946
  539MOL0     H72701  10.386   0.691   6.103  2.0658 -1.0678  0.6237
  539MOL0     H72702  10.167   0.754   6.161  0.6397 -0.5685 -0.5417
  539MOL0     H72703  10.177   0.719   5.991  1.1236  3.4135  0.5790
  539MOL0     H72704   9.984   0.630   6.074  0.6285  3.1322  0.5173
  539MOL0     H72705  10.083   0.489   6.034 -3.0858 -0.3309 -0.3527
  539MOL0     H72706  10.112   0.437   6.278 -0.3109  1.4915  2.9733
  539MOL0     H72707  10.040   0.588   6.320  0.8944  0.5304  1.2062
  539MOL0     H72708   9.828   0.511   6.201 -0.6919  1.5329  0.9895
  539MOL0     H72709   9.893   0.348   6.211 -0.8214  1.0657 -2.6796
  539MOL0     H72710   9.940   0.423   6.466 -0.3199 -1.9917 -0.1038
  539MOL0     H72711   9.812   0.529   6.439 -2.2000 -0.9013  0.4059
  539MOL0     H72712   9.674   0.344   6.350  1.7030  2.7174 -1.5503
  539MOL0     H72713   9.793   0.234   6.399  0.5224  0.3804  0.3778
  539MOL0     H72714   9.715   0.418   6.636 -2.2333 -1.6895  2.3378
  539MOL0     H72715   9.756   0.237   6.615 -0.1013 -0.4209 -0.8903
  539MOL0     H72716   9.441   0.474   6.503  2.1755  0.4880 -0.0794
  539MOL0     H72717   9.179   0.383   6.500 -2.1328  1.8820 -2.0898
  539MOL0     H72718   9.241   0.381   6.334 -0.8208  0.2235  0.2149
  539MOL0     H72719   9.133   0.134   6.450  0.4794  0.4167  0.6230
  539MOL0     H72720   9.166   0.185   6.277  1.6204 -0.2014  1.2375
  539MOL0     H72721   8.993   0.382   6.329 -2.4959  0.5565 -0.5936
  539MOL0     H72722   8.964   0.291   6.480  3.1359  3.3199  0.8016
  539MOL0     H72723   8.811   0.274   6.318  0.6298  1.8786 -2.3171
  539MOL0     H72724   8.868   0.105   6.334 -0.7955  0.5949  0.3223
  539MOL0     H72725   8.649   0.200   6.204  0.0139  0.0783 -0.1944
  539MOL0     H72726   8.397   0.240   5.974  1.6342  0.8795 -0.5915
  539MOL0     H72727   8.373   0.095   6.074  2.1913 -2.1855  0.7052
  539MOL0     H72728   8.437   0.248   6.135 -3.1063  0.4184 -0.8893
  539MOL0     H72729   8.434   0.247   5.574 -1.8902  0.2885 -0.1636
  539MOL0     H72730   8.282   0.241   5.374 -2.2612 -1.8317 -0.8893
  539MOL0     H72731   8.244   0.226   5.160 -1.1890  0.3771  1.1740
  539MOL0     H72732   8.248   0.103   5.025 -1.3200 -3.2182 -0.2869
  539MOL0     H72733   8.014   0.190   5.023 -2.9349 -0.0837 -0.1081
  539MOL0     H72734   8.020   0.031   5.114  1.9964 -0.1424  3.5576
  539MOL0     H72735   8.036   0.159   5.336  0.5897 -2.1820 -1.0234
  539MOL0     H72736   7.888   0.152   5.238 -0.7423 -0.8796 -2.1116
  539MOL0     H72737   8.070   0.392   5.221 -0.0741  0.7082 -1.5193
  539MOL0     H72738   7.913   0.366   5.148  1.1880  0.9254 -0.5635
  539MOL0     H72739   7.912   0.341   5.443 -1.6220  0.4136  0.2844
  539MOL0     H72740   7.784   0.379   5.332  0.0723  0.6877  0.6555
  539MOL0     H72741   8.015   0.566   5.392 -1.6479  3.8147  2.5631
  539MOL0     H72742   7.890   0.603   5.289  1.7517  0.8868  1.2964
  539MOL0     H72743   7.850   0.523   5.576  0.6349  1.3021  1.7262
  539MOL0     H72744   7.715   0.570   5.480 -1.3145  2.1443  2.1685
  539MOL0     H72745   7.758   0.773   5.625 -1.4181  1.9249 -0.6869
  539MOL0     H72746   7.778   0.784   5.452  0.5045 -1.5794 -0.8029
  539MOL0     H72747   8.375  -0.162   5.293  1.8532 -1.4139  0.0905
  539MOL0     H72748   8.531  -0.167   5.497  0.4486  0.8311  2.3892
  539MOL0     H72749   8.796   0.061   5.757 -0.7790 -1.3420  0.4535
  539MOL0     H72750   8.964   0.126   5.929  0.2264 -0.2663  0.7576
  539MOL0     H72751  10.431   0.382   5.812  1.0380 -0.2108 -0.0079
  539MOL0     H72752  10.631   0.238   5.812  1.1503 -0.3678  0.5413
  539MOL0     H72753  11.126   0.364   5.698  3.2761 -0.1663 -0.2418
  539MOL0     H72754  11.336   0.233   5.692 -2.7588  2.9688 -0.6511
  539MOL0     H72755  11.568  -0.079   5.774 -0.2944  0.1878  0.6570
  539MOL0     H72756  11.487   0.028   5.661  1.9706  2.9940 -0.9279
  539MOL0     H72757  11.639   0.140   5.892 -1.2407  0.9859  0.8798
  539MOL0     H72758  11.575   0.225   5.758  1.3402  0.8460  0.9659
  539MOL0     H72759  11.746   0.048   5.626  0.6921  0.0588  0.2183
  539MOL0     H72760  11.825   0.077   5.778  2.3053 -1.3361 -1.5988
  539MOL0     H72761  11.729   0.298   5.590  0.0395  0.6030 -0.4803
  539MOL0     H72762  11.895   0.231   5.594  0.5749 -0.9467  0.5171
  539MOL0     H72763  11.919   0.476   5.927  0.9128 -2.5346  1.3299
  539MOL0     H72764  11.206  -0.010   6.014 -1.6331 -2.6816 -1.8372
  539MOL0     H72765  11.003   0.102   6.019 -0.6924  0.1718 -2.3669
  540MOL0     O72766   8.910   7.345   8.974 -0.3701 -0.0471  0.1019
  540MOL0     C72767   9.034   7.346   8.952 -0.5208 -0.7723  0.0297
  540MOL0     O72768   9.107   7.300   8.846 -0.8626  0.1458  0.4438
  540MOL0     C72769   9.054   7.204   8.754  0.6919  0.6279  0.4689
  540MOL0     C72770   8.922   7.213   8.701 -0.3074  0.0659 -1.0134
  540MOL0     C72771   8.873   7.121   8.612  0.2302  0.3835  0.3626
  540MOL0     C72772   8.953   7.011   8.590 -0.6772 -0.2903 -0.3127
  540MOL0     O72773   8.919   6.904   8.512  0.4492  0.3816 -0.9830
  540MOL0     C72774   8.777   6.876   8.503  0.6698  0.1093  0.8614
  540MOL0     C72775   8.778   6.764   8.399  0.6125 -0.7875 -0.6596
  540MOL0     C72776   8.651   6.697   8.375 -0.2030  0.6307 -0.0965
  540MOL0     C72777   8.552   6.769   8.283 -0.4208 -0.0134  0.2063
  540MOL0     C72778   8.429   6.682   8.263 -0.0008  0.3017  0.1807
  540MOL0     C72779   8.366   6.704   8.128  0.5597 -0.0384  0.2378
  540MOL0     C72780   8.233   6.624   8.130  0.0644  0.8176 -0.4248
  540MOL0     C72781   8.168   6.657   7.990  0.2273  0.4064 -0.2609
  540MOL0     N72782   8.025   6.619   7.998 -0.1869  0.4720 -0.0599
  540MOL0     C72783   7.929   6.710   8.020 -0.7594 -0.2271  1.1609
  540MOL0     C72784   7.809   6.640   8.031  0.7878  0.5707  0.5466
  540MOL0     C72785   7.664   6.681   8.060  0.4863  0.1098  0.0337
  540MOL0     C72786   7.617   6.795   7.969 -0.4255 -0.7257 -0.3523
  540MOL0     C72787   7.512   6.892   8.017 -0.2528  1.0383  0.1809
  540MOL0     C72788   7.569   6.966   8.147  0.1283  0.0318 -0.5181
  540MOL0     O72789   7.536   6.898   8.269  0.0253  0.3215  0.6265
  540MOL0     C72790   7.418   6.929   8.339 -0.2687  0.9262  0.8710
  540MOL0     C72791   7.368   6.845   8.437 -0.2947 -0.8263 -0.1785
  540MOL0     C72792   7.254   6.858   8.509 -0.2465 -0.4454 -0.6273
  540MOL0     C72793   7.222   6.759   8.624  0.3856 -0.5250  0.3881
  540MOL0     C72794   7.179   6.982   8.478 -0.3316 -0.1106 -0.7233
  540MOL0     C72795   7.049   7.016   8.555 -0.7019 -0.0651  0.2147
  540MOL0     O72796   7.016   7.150   8.566  1.3100  0.8170 -0.0844
  540MOL0     C72797   6.892   7.174   8.615  0.0053  0.1367 -0.1868
  540MOL0     C72798   6.778   7.197   8.537 -0.3616  0.1732  0.0717
  540MOL0     C72799   6.653   7.220   8.603 -0.2725 -0.2081  0.0564
  540MOL0     C72800   6.645   7.209   8.740 -0.1410 -0.1811  0.7960
  540MOL0     O72801   6.527   7.224   8.804  0.3500  0.7819 -0.3037
  540MOL0     C72802   6.534   7.336   8.895  0.2651  0.1484  1.3672
  540MOL0     C72803   6.470   7.458   8.827 -0.3750 -0.0746  1.2687
  540MOL0     C72804   6.463   7.590   8.907 -0.4539  0.7707  0.8542
  540MOL0     C72805   6.601   7.664   8.957  0.3178 -0.0886  0.3396
  540MOL0     C72806   6.689   7.695   8.834  0.6171  0.0180  0.1828
  540MOL0     C72807   6.828   7.745   8.873 -0.0915 -0.3838  0.5166
  540MOL0     C72808   6.819   7.897   8.915 -0.0842  0.4288  0.2585
  540MOL0     C72809   6.952   7.965   8.924  0.6788  0.2295 -0.3943
  540MOL0    Cl72810   7.091   7.861   8.979 -0.3211 -0.1570 -0.0303
  540MOL0     C72811   6.760   7.182   8.812  0.2718 -0.1301  0.9044
  540MOL0     C72812   6.878   7.157   8.749 -1.2058  0.6684 -0.1100
  540MOL0     O72813   6.968   6.925   8.574 -0.5055  0.2636  0.2781
  540MOL0     C72814   7.229   7.069   8.387  0.2912  0.6214 -0.2843
  540MOL0     C72815   7.341   7.042   8.310  0.2525 -0.6234  0.6247
  540MOL0     N72816   7.840   6.510   8.003 -0.2245 -0.3129  0.4767
  540MOL0     N72817   7.972   6.493   7.999 -0.5150  0.2705  0.1092
  540MOL0     C72818   9.080   7.001   8.650 -0.0912 -0.1185  0.3434
  540MOL0     C72819   9.135   7.095   8.727  0.9005 -0.7031 -0.2716
  540MOL0     C72820   9.119   7.411   9.061 -0.1558 -0.2284  0.3205
  540MOL0     C72821   9.265   7.393   9.074  0.5600  0.0868 -0.7066
  540MOL0     C72822   9.328   7.451   9.189 -0.0693 -0.1706  0.0623
  540MOL0     C72823   9.259   7.529   9.283 -0.1040 -0.2026 -0.2535
  540MOL0     O72824   9.320   7.576   9.403  1.1100  0.2793 -0.4827
  540MOL0     C72825   9.417   7.486   9.460 -0.7201 -0.5038  0.3211
  540MOL0     C72826   9.371   7.349   9.498  0.6350 -0.1782 -0.6926
  540MOL0     C72827   9.257   7.350   9.601 -0.8963  0.2081  0.3311
  540MOL0     C72828   9.222   7.207   9.633  0.5699 -0.0590 -0.3540
  540MOL0     C72829   9.101   7.204   9.723  0.6003 -1.0600  1.1263
  540MOL0     C72830   9.000   7.201   9.790 -0.2367 -0.0038 -0.1905
  540MOL0     C72831   9.125   7.553   9.263 -0.6155 -1.0822  1.0108
  540MOL0     C72832   9.058   7.488   9.153  0.6134 -0.2869 -0.1597
  540MOL0     H72833   8.862   7.300   8.725 -2.7125 -1.4893 -1.0681
  540MOL0     H72834   8.779   7.135   8.560 -0.1696  0.5344  1.1199
  540MOL0     H72835   8.734   6.838   8.596 -2.1305  0.7287 -0.0728
  540MOL0     H72836   8.708   6.951   8.465  0.0936 -1.8052 -2.1806
  540MOL0     H72837   8.799   6.813   8.303  0.8152 -1.1822 -0.8188
  540MOL0     H72838   8.855   6.696   8.437  0.3481 -0.0561  1.2870
  540MOL0     H72839   8.663   6.595   8.338 -2.5945  0.5615 -0.8885
  540MOL0     H72840   8.591   6.688   8.467  0.6309  2.4811  0.6754
  540MOL0     H72841   8.530   6.869   8.318 -0.1485  0.2956 -0.4721
  540MOL0     H72842   8.594   6.779   8.182 -0.9719  0.3456  0.0114
  540MOL0     H72843   8.457   6.577   8.275 -1.8838 -0.3203 -0.5469
  540MOL0     H72844   8.364   6.715   8.345  3.8567  3.2266  2.4766
  540MOL0     H72845   8.355   6.812   8.120  1.1630 -0.0919 -3.5516
  540MOL0     H72846   8.430   6.693   8.040  0.1015  2.8612 -0.5536
  540MOL0     H72847   8.246   6.516   8.132 -3.4023  0.2713 -0.8747
  540MOL0     H72848   8.179   6.660   8.218  0.2863  1.9989 -0.7522
  540MOL0     H72849   8.222   6.620   7.903  0.9628  3.3009 -1.1318
  540MOL0     H72850   8.172   6.766   7.981 -0.0825  0.2694 -2.5763
  540MOL0     H72851   7.937   6.817   8.035  1.9100 -0.4785  2.1035
  540MOL0     H72852   7.608   6.590   8.036  4.8306 -1.9398 -3.8210
  540MOL0     H72853   7.657   6.702   8.167 -0.1093 -2.2592  0.5198
  540MOL0     H72854   7.604   6.755   7.868  0.6342 -4.7300  0.9378
  540MOL0     H72855   7.699   6.866   7.955 -0.2089 -0.9499 -0.2284
  540MOL0     H72856   7.430   6.823   8.042  1.6599 -1.6288 -0.5203
  540MOL0     H72857   7.469   6.952   7.936  1.3636 -2.8605 -4.0210
  540MOL0     H72858   7.531   7.069   8.143 -1.8616 -0.6161  0.4672
  540MOL0     H72859   7.678   6.957   8.155  0.1453 -1.4761 -1.9969
  540MOL0     H72860   7.441   6.769   8.463 -0.8915 -0.4168  3.0183
  540MOL0     H72861   7.313   6.701   8.644 -0.7069 -3.3146 -2.0559
  540MOL0     H72862   7.197   6.806   8.719  2.0240 -2.7396  2.0044
  540MOL0     H72863   7.159   6.681   8.581  1.2284  0.0658 -2.1063
  540MOL0     H72864   6.783   7.196   8.428 -1.6397  1.4324 -0.0256
  540MOL0     H72865   6.565   7.249   8.548  0.6240  0.5969 -1.0092
  540MOL0     H72866   6.480   7.312   8.987  1.5429 -2.3651  1.5624
  540MOL0     H72867   6.633   7.355   8.936  0.9193 -0.4152  0.1137
  540MOL0     H72868   6.528   7.474   8.736 -1.0011 -1.6796  0.5542
  540MOL0     H72869   6.367   7.434   8.797 -1.1909  3.3328  0.8990
  540MOL0     H72870   6.394   7.569   8.989 -2.0668  0.7876 -0.4418
  540MOL0     H72871   6.424   7.667   8.840  0.3515  0.5350  0.0997
  540MOL0     H72872   6.569   7.756   9.007  2.0074  0.7833 -0.1011
  540MOL0     H72873   6.654   7.602   9.031 -2.0340 -0.4735  1.7926
  540MOL0     H72874   6.641   7.774   8.775 -1.6130 -1.2236  0.2030
  540MOL0     H72875   6.692   7.598   8.782 -2.5121 -2.0707  3.4238
  540MOL0     H72876   6.869   7.676   8.947  2.2844  0.7186  0.3381
  540MOL0     H72877   6.891   7.742   8.784  2.1736  0.8069  1.9976
  540MOL0     H72878   6.756   7.894   9.005 -3.8293 -0.5957 -2.1563
  540MOL0     H72879   6.767   7.960   8.842 -0.6440 -0.1219  0.1689
  540MOL0     H72880   6.937   8.032   9.009  1.2591  0.6177 -0.5902
  540MOL0     H72881   6.993   8.026   8.843  0.2576 -0.6271 -1.2717
  540MOL0     H72882   6.756   7.171   8.920 -1.0073 -1.8261  0.7257
  540MOL0     H72883   6.965   7.125   8.806 -1.8238 -2.3558 -0.6889
  540MOL0     H72884   7.169   7.158   8.371 -0.4486  0.2592  0.3956
  540MOL0     H72885   7.365   7.116   8.234 -0.1450 -1.0028  0.1259
  540MOL0     H72886   9.146   6.917   8.631 -2.1996 -1.0301 -4.4757
  540MOL0     H72887   9.231   7.085   8.778 -0.3183 -1.9167  1.9512
  540MOL0     H72888   9.323   7.340   9.000 -0.1491  0.8890 -1.8795
  540MOL0     H72889   9.435   7.438   9.202 -0.2280 -0.9524  0.6510
  540MOL0     H72890   9.501   7.468   9.392 -2.4780  2.1711 -2.8519
  540MOL0     H72891   9.467   7.524   9.550 -0.4180 -0.3224  0.0772
  540MOL0     H72892   9.451   7.290   9.544 -0.8891 -2.4064 -0.7419
  540MOL0     H72893   9.346   7.300   9.404 -0.0965 -1.9297  0.3690
  540MOL0     H72894   9.173   7.399   9.553 -0.0123  0.8763 -0.5756
  540MOL0     H72895   9.273   7.401   9.696 -2.2598  1.0709  0.1112
  540MOL0     H72896   9.303   7.152   9.680  0.5714 -1.0826 -1.5247
  540MOL0     H72897   9.200   7.152   9.541 -0.8336  0.4688 -0.3673
  540MOL0     H72898   8.909   7.197   9.847  0.8685  0.5561  1.6893
  540MOL0     H72899   9.070   7.628   9.320  0.7472 -0.7552  1.9740
  540MOL0     H72900   8.951   7.507   9.145 -0.1472 -2.6695  2.6851
  541MOL0     O72901   4.817   4.546   4.972 -0.0526  0.0808 -0.5785
  541MOL0     C72902   4.819   4.451   4.903 -0.2223  0.3892  1.1357
  541MOL0     O72903   4.712   4.393   4.844  0.3969  0.4352  0.2185
  541MOL0     C72904   4.596   4.466   4.846 -1.1215  0.2706  0.2803
  541MOL0     C72905   4.476   4.398   4.873  0.7012 -0.6107 -0.5796
  541MOL0     C72906   4.360   4.464   4.855  1.3212  0.1845 -0.5294
  541MOL0     C72907   4.347   4.600   4.809  0.5343 -0.4892 -0.2659
  541MOL0     O72908   4.226   4.672   4.786  0.2098  0.8129 -0.4090
  541MOL0     C72909   4.122   4.640   4.879  0.0147  0.2660 -0.2815
  541MOL0     C72910   3.991   4.713   4.840  0.2089 -0.4129 -0.4375
  541MOL0     C72911   3.920   4.613   4.741 -0.1891 -0.2679 -0.1892
  541MOL0     C72912   3.771   4.661   4.719  1.0543 -0.3742  0.6911
  541MOL0     C72913   3.674   4.683   4.836  0.7146 -0.1700  0.1097
  541MOL0     C72914   3.633   4.551   4.903  0.3429  0.8368 -0.3913
  541MOL0     C72915   3.585   4.591   5.047  0.4483  0.6603  1.0412
  541MOL0     C72916   3.499   4.480   5.118 -0.6620  1.0003  0.4302
  541MOL0     N72917   3.390   4.417   5.035 -0.4277  0.3328  1.2436
  541MOL0     C72918   3.306   4.478   4.941  0.5141  0.3386  0.9407
  541MOL0     C72919   3.217   4.387   4.892 -1.1195  0.1824  0.5561
  541MOL0     C72920   3.110   4.422   4.789  0.3438 -0.1674  0.1161
  541MOL0     C72921   2.966   4.382   4.831 -0.1133 -0.7522  1.1293
  541MOL0     C72922   2.873   4.407   4.717  0.1871 -0.1544  0.0684
  541MOL0     C72923   2.852   4.546   4.666 -0.1751 -0.3616  0.2749
  541MOL0     O72924   2.851   4.646   4.767  0.6729 -0.8077  0.7371
  541MOL0     C72925   2.726   4.684   4.804 -0.7177 -0.7666 -1.0010
  541MOL0     C72926   2.705   4.819   4.832 -0.0850 -0.6611 -0.5054
  541MOL0     C72927   2.581   4.868   4.874 -0.5364 -0.9020  0.6390
  541MOL0     C72928   2.582   5.012   4.908  0.0178 -0.0671  0.0860
  541MOL0     C72929   2.467   4.787   4.888 -0.1173  0.0018 -1.3361
  541MOL0     C72930   2.327   4.842   4.918 -0.2984 -0.0782  0.3323
  541MOL0     O72931   2.233   4.754   4.952  0.9390  0.2413  0.6333
  541MOL0     C72932   2.099   4.789   4.948  0.0707  0.1504 -0.8525
  541MOL0     C72933   2.035   4.847   5.063 -1.5054 -0.1631 -0.1376
  541MOL0     C72934   1.907   4.901   5.060 -0.1684  0.3907 -0.2931
  541MOL0     C72935   1.840   4.910   4.934  0.1151  0.6203 -0.5492
  541MOL0     O72936   1.722   4.979   4.933 -0.3823 -0.8526 -0.7085
  541MOL0     C72937   1.589   4.923   4.940 -0.4848 -0.1463 -0.5089
  541MOL0     C72938   1.482   5.018   5.005  0.4308  0.2004  0.6568
  541MOL0     C72939   1.486   5.044   5.157 -0.2589 -0.0536  0.0627
  541MOL0     C72940   1.355   5.086   5.219  0.2090  0.4214  0.8037
  541MOL0     C72941   1.373   5.117   5.361  0.0423  0.6345 -0.2510
  541MOL0     C72942   1.251   5.175   5.430  0.7357  0.6090 -0.6416
  541MOL0     C72943   1.286   5.232   5.572 -0.5243  0.0961 -0.5147
  541MOL0     C72944   1.357   5.367   5.577  0.2844 -0.1205 -0.8906
  541MOL0    Cl72945   1.382   5.420   5.751 -0.0306 -0.1078 -0.4003
  541MOL0     C72946   1.891   4.833   4.821  0.6507 -0.1303  0.1060
  541MOL0     C72947   2.019   4.778   4.833 -0.2836  0.0225  0.3606
  541MOL0     O72948   2.296   4.960   4.902  0.6215 -0.3098  0.2904
  541MOL0     C72949   2.498   4.647   4.874 -0.3006 -0.1258  0.1291
  541MOL0     C72950   2.619   4.598   4.829 -0.3044  0.5099  0.5616
  541MOL0     N72951   3.232   4.271   4.967 -0.2924 -0.6096 -0.0928
  541MOL0     N72952   3.341   4.288   5.049  0.6360  0.4881  0.0701
  541MOL0     C72953   4.467   4.666   4.784 -0.5912  1.1525 -0.0579
  541MOL0     C72954   4.591   4.596   4.798  0.2689  0.0213 -0.3222
  541MOL0     C72955   4.955   4.391   4.884 -0.3136  0.1428 -0.2391
  541MOL0     C72956   5.075   4.458   4.922 -0.3312 -0.3127 -0.2895
  541MOL0     C72957   5.191   4.390   4.920  0.0652 -0.4008  0.4423
  541MOL0     C72958   5.200   4.252   4.879 -0.2602  0.8550  0.1336
  541MOL0     O72959   5.317   4.179   4.892 -0.2191  0.0343 -0.5229
  541MOL0     C72960   5.305   4.050   4.942  0.4806 -0.3723  0.7536
  541MOL0     C72961   5.445   3.988   4.974 -0.7179  0.1926 -1.2338
  541MOL0     C72962   5.541   3.970   4.859 -0.6523 -0.8781  0.3896
  541MOL0     C72963   5.662   4.070   4.866 -0.0376 -0.5123 -0.1842
  541MOL0     C72964   5.735   4.071   4.741 -0.5484 -0.9139 -0.6991
  541MOL0     C72965   5.804   4.055   4.640  0.3746 -0.6309  0.0218
  541MOL0     C72966   5.085   4.198   4.830 -0.1438 -0.3073 -0.3402
  541MOL0     C72967   4.959   4.261   4.833 -0.4350 -0.8037  0.6535
  541MOL0     H72968   4.469   4.291   4.888 -0.8560 -0.1323  3.2163
  541MOL0     H72969   4.270   4.406   4.869  0.3679  0.9532 -2.9634
  541MOL0     H72970   4.110   4.531   4.883  0.5554  0.1167 -1.9115
  541MOL0     H72971   4.162   4.674   4.975  2.5822 -0.2005 -1.1123
  541MOL0     H72972   3.915   4.726   4.918 -2.6726  0.9620 -3.2355
  541MOL0     H72973   4.010   4.813   4.799  0.1266  1.5595  3.7807
  541MOL0     H72974   3.971   4.606   4.644  2.3117 -0.5847  1.0644
  541MOL0     H72975   3.906   4.512   4.779  0.8045 -0.6811 -0.8868
  541MOL0     H72976   3.764   4.761   4.676 -0.3704  0.4148  2.5871
  541MOL0     H72977   3.732   4.593   4.643  1.6286  0.3191 -0.2413
  541MOL0     H72978   3.702   4.756   4.913  1.6173 -0.6052  0.2032
  541MOL0     H72979   3.587   4.728   4.788  0.4383  0.4626  1.1612
  541MOL0     H72980   3.550   4.512   4.844  2.5342  0.1964 -3.2479
  541MOL0     H72981   3.712   4.476   4.912  1.6231  2.3604  2.8409
  541MOL0     H72982   3.671   4.630   5.103  1.4658  0.5041 -0.3540
  541MOL0     H72983   3.517   4.675   5.033 -1.1728  0.0471  4.3083
  541MOL0     H72984   3.457   4.522   5.210  0.9043  1.3495  1.0114
  541MOL0     H72985   3.571   4.401   5.139  2.0802  3.1722 -0.2497
  541MOL0     H72986   3.301   4.582   4.912  1.0107  0.2402  0.4879
  541MOL0     H72987   3.108   4.525   4.752 -1.1318 -0.1237  0.2914
  541MOL0     H72988   3.133   4.356   4.705  0.3120  0.2326 -0.2113
  541MOL0     H72989   2.936   4.436   4.921  0.5067 -2.0024  2.1113
  541MOL0     H72990   2.960   4.279   4.867 -0.2376 -0.8402  0.8609
  541MOL0     H72991   2.775   4.368   4.744  0.2931 -3.0673 -3.1379
  541MOL0     H72992   2.904   4.351   4.629  2.9976  1.8336 -0.3376
  541MOL0     H72993   2.757   4.544   4.611 -1.2470 -0.1998  2.0229
  541MOL0     H72994   2.936   4.573   4.602 -1.5127  1.0400 -0.9824
  541MOL0     H72995   2.791   4.882   4.809 -0.5993  0.5573  0.7950
  541MOL0     H72996   2.558   5.081   4.826  1.6229 -0.6882 -0.9519
  541MOL0     H72997   2.509   5.041   4.984  0.1667  1.8349 -0.4219
  541MOL0     H72998   2.674   5.036   4.964 -0.7113  3.7143 -0.0352
  541MOL0     H72999   2.100   4.845   5.150 -1.8478 -3.1758  0.1418
  541MOL0     H73000   1.867   4.943   5.152  1.1375 -0.1273  0.5359
  541MOL0     H73001   1.557   4.901   4.838  1.4225 -1.4087 -0.8915
  541MOL0     H73002   1.590   4.818   4.972 -1.5373  0.5587  2.1054
  541MOL0     H73003   1.470   5.111   4.948 -0.3206 -1.6940 -2.5214
  541MOL0     H73004   1.391   4.957   5.001  1.3524 -1.2715  1.5244
  541MOL0     H73005   1.556   5.128   5.153 -0.3594 -0.0062 -1.3825
  541MOL0     H73006   1.522   4.957   5.213  0.1023  0.6204  0.8986
  541MOL0     H73007   1.312   5.170   5.163  0.2987  0.4273  0.7436
  541MOL0     H73008   1.276   5.011   5.210 -0.6147  1.2355  1.0689
  541MOL0     H73009   1.452   5.193   5.363  1.5849 -0.9273  0.5991
  541MOL0     H73010   1.398   5.028   5.420 -2.2422  0.7815  1.0397
  541MOL0     H73011   1.213   5.265   5.382 -0.6307 -0.0858 -0.9242
  541MOL0     H73012   1.169   5.102   5.439  3.2245 -2.4226 -0.5652
  541MOL0     H73013   1.354   5.166   5.627  2.9409  4.1965  0.7000
  541MOL0     H73014   1.196   5.241   5.632  0.8374  0.2410  1.5932
  541MOL0     H73015   1.294   5.435   5.518 -3.5116 -2.6628 -0.0669
  541MOL0     H73016   1.452   5.348   5.526  0.9829  1.5576 -0.3169
  541MOL0     H73017   1.832   4.835   4.730  0.0254  0.2665  0.5124
  541MOL0     H73018   2.061   4.727   4.746 -1.4233 -0.3786  0.0214
  541MOL0     H73019   2.420   4.576   4.899  2.2008 -1.5160  5.3883
  541MOL0     H73020   2.616   4.491   4.811 -2.9801  0.5224  0.6579
  541MOL0     H73021   4.475   4.769   4.753  2.5590  2.2401  3.5063
  541MOL0     H73022   4.683   4.653   4.784  1.6589 -1.9826  0.2547
  541MOL0     H73023   5.064   4.562   4.951  1.3483 -0.3001  0.4314
  541MOL0     H73024   5.285   4.441   4.941 -0.4046  1.1361 -0.9455
  541MOL0     H73025   5.255   4.057   5.039  0.1368 -1.2704  0.6519
  541MOL0     H73026   5.250   3.986   4.871 -0.0354  2.6597 -1.8047
  541MOL0     H73027   5.428   3.890   5.018  0.8255  0.0056 -1.0111
  541MOL0     H73028   5.497   4.044   5.052  2.3588 -0.9474 -2.3388
  541MOL0     H73029   5.486   3.982   4.766 -1.7581  1.9320  1.3077
  541MOL0     H73030   5.584   3.869   4.858  1.4176 -0.0586  1.1096
  541MOL0     H73031   5.739   4.043   4.940  1.0809 -0.6223 -1.3602
  541MOL0     H73032   5.626   4.170   4.893  3.2219  0.4286  1.2825
  541MOL0     H73033   5.864   4.046   4.551  0.1404  2.8074 -0.6067
  541MOL0     H73034   5.075   4.099   4.785 -1.0304  0.7253 -2.5417
  541MOL0     H73035   4.874   4.216   4.783 -0.8107  0.4161  0.1407
  542MOL0     O73036   9.457  11.248   5.384  0.0367 -0.3855 -0.4793
  542MOL0     C73037   9.357  11.217   5.447  0.0121  0.6551  1.2427
  542MOL0     O73038   9.255  11.296   5.479 -0.3945 -0.5160  0.8265
  542MOL0     C73039   9.267  11.427   5.417 -0.1194 -0.1364 -0.3950
  542MOL0     C73040   9.335  11.527   5.487  0.5165  0.3246 -0.7100
  542MOL0     C73041   9.347  11.657   5.432 -0.1818  0.4564 -0.1952
  542MOL0     C73042   9.269  11.693   5.325 -0.3599  0.5022 -0.4098
  542MOL0     O73043   9.275  11.827   5.293  0.2312 -0.1629 -0.5677
  542MOL0     C73044   9.161  11.883   5.231 -0.6202 -0.0274  0.8016
  542MOL0     C73045   9.188  12.040   5.213  1.0712  0.6229 -0.8590
  542MOL0     C73046   9.072  12.128   5.194 -0.5323 -0.0127  0.2719
  542MOL0     C73047   9.016  12.092   5.052 -0.7630  0.7770  0.1154
  542MOL0     C73048   8.898  12.174   5.001 -0.2237  0.1673  0.1928
  542MOL0     C73049   8.803  12.222   5.106 -0.2704  0.4113 -0.6481
  542MOL0     C73050   8.713  12.103   5.158 -0.1843  0.2260  1.4054
  542MOL0     C73051   8.595  12.155   5.240  0.4861 -0.3839  0.3919
  542MOL0     N73052   8.472  12.089   5.189 -0.3430 -0.1382 -0.3266
  542MOL0     C73053   8.385  12.145   5.098  0.1746  0.2450  0.3587
  542MOL0     C73054   8.276  12.069   5.107 -0.3830  1.2428  0.5678
  542MOL0     C73055   8.163  12.099   5.010 -0.3898  0.0372  0.6804
  542MOL0     C73056   8.072  12.206   5.075  0.5804 -0.3283 -0.6822
  542MOL0     C73057   8.002  12.292   4.967 -0.4594 -0.3707 -0.1379
  542MOL0     C73058   7.876  12.360   5.021 -0.9044 -0.1671  0.5907
  542MOL0     O73059   7.773  12.267   5.034  0.1857  0.2757 -0.7202
  542MOL0     C73060   7.647  12.309   5.022 -0.5534  0.6590 -0.0161
  542MOL0     C73061   7.610  12.440   5.014 -0.2537  0.1432  0.1536
  542MOL0     C73062   7.476  12.480   5.005  0.0249  0.6821 -0.0333
  542MOL0     C73063   7.450  12.628   4.959 -0.6448 -0.2370 -0.2453
  542MOL0     C73064   7.377  12.369   5.005  0.2583  0.2199 -0.2667
  542MOL0     C73065   7.228  12.399   5.009  0.9376  0.4044  0.2323
  542MOL0     O73066   7.134  12.294   4.995  0.2662  0.8648  0.5298
  542MOL0     C73067   7.008  12.311   5.017 -0.2129 -0.9814 -0.5955
  542MOL0     C73068   6.959  12.281   5.148  1.2796  0.0812  0.0192
  542MOL0     C73069   6.821  12.290   5.183 -0.6158  0.0368 -0.2722
  542MOL0     C73070   6.732  12.328   5.084 -0.6946  0.7442  0.5674
  542MOL0     O73071   6.605  12.326   5.119  0.8870  0.6803  0.8041
  542MOL0     C73072   6.550  12.388   5.233 -0.6563  0.0353  0.5789
  542MOL0     C73073   6.411  12.442   5.198 -0.8620 -0.8713  0.8888
  542MOL0     C73074   6.322  12.467   5.312  0.0111 -0.5882 -0.4085
  542MOL0     C73075   6.176  12.427   5.288 -0.0631 -0.4923 -0.2964
  542MOL0     C73076   6.092  12.478   5.412 -0.5315  0.9433 -0.8001
  542MOL0     C73077   5.945  12.491   5.393  0.0803 -0.0815  0.0306
  542MOL0     C73078   5.880  12.538   5.527  0.2915  0.6024 -0.9876
  542MOL0     C73079   5.724  12.546   5.526 -0.0431  0.2554  0.2747
  542MOL0    Cl73080   5.657  12.379   5.525 -0.0294 -0.3891  0.1804
  542MOL0     C73081   6.779  12.348   4.947  1.1774 -0.2179 -0.0227
  542MOL0     C73082   6.911  12.325   4.912 -0.9388  0.8133  0.2003
  542MOL0     O73083   7.193  12.517   5.027 -0.2747  0.2148  0.3124
  542MOL0     C73084   7.414  12.232   5.009  0.3715  0.3748  0.2127
  542MOL0     C73085   7.554  12.203   5.017  0.7579  0.0323 -0.3658
  542MOL0     N73086   8.297  11.965   5.196  0.3848 -0.4528  0.1440
  542MOL0     N73087   8.419  11.984   5.248  0.2626  0.1487 -0.4070
  542MOL0     C73088   9.205  11.581   5.253 -0.9824 -0.5734  0.9418
  542MOL0     C73089   9.211  11.452   5.287  0.2972  0.6469 -0.2094
  542MOL0     C73090   9.360  11.077   5.504  0.3294  1.0235 -0.1623
  542MOL0     C73091   9.483  11.006   5.501 -0.5332  0.0027  0.3425
  542MOL0     C73092   9.490  10.872   5.542 -0.5972 -0.3435  0.9393
  542MOL0     C73093   9.382  10.808   5.586  1.1094 -0.1067 -1.4036
  542MOL0     O73094   9.375  10.679   5.637 -0.5444  0.8759  0.1257
  542MOL0     C73095   9.503  10.620   5.670  0.0252 -1.1623  0.2232
  542MOL0     C73096   9.497  10.479   5.733  0.2595 -0.5298 -0.3904
  542MOL0     C73097   9.631  10.442   5.802  0.2881  0.3807  0.7764
  542MOL0     C73098   9.623  10.313   5.890 -0.2951  0.1852  0.1818
  542MOL0     C73099   9.521  10.320   5.999 -0.4274  0.5475  0.4242
  542MOL0     C73100   9.439  10.317   6.090  0.3615 -0.2133 -0.6201
  542MOL0     C73101   9.254  10.879   5.601 -0.3088  0.2244 -0.3405
  542MOL0     C73102   9.250  11.007   5.548  1.0083 -0.0460 -0.5478
  542MOL0     H73103   9.388  11.508   5.580 -2.4144  0.6284  1.1299
  542MOL0     H73104   9.413  11.722   5.489  0.7774 -3.4193  3.6577
  542MOL0     H73105   9.151  11.829   5.136  2.2150 -1.4090  1.1765
  542MOL0     H73106   9.066  11.863   5.281 -0.7295 -4.7076 -0.7884
  542MOL0     H73107   9.235  12.071   5.307  0.1132  1.5660 -0.6779
  542MOL0     H73108   9.265  12.055   5.137  1.1200  0.5268 -0.8287
  542MOL0     H73109   9.004  12.102   5.276  0.6915 -3.3294  0.4005
  542MOL0     H73110   9.111  12.227   5.216 -0.1086 -0.2240  0.4744
  542MOL0     H73111   9.099  12.102   4.982  0.0233 -2.1865  0.4899
  542MOL0     H73112   8.987  11.988   5.039  0.6743  0.3915 -0.1163
  542MOL0     H73113   8.926  12.258   4.936 -0.7816  0.4880  0.3603
  542MOL0     H73114   8.854  12.117   4.920  2.9020  1.3432 -2.5729
  542MOL0     H73115   8.851  12.269   5.193  1.7837 -0.5650 -1.1937
  542MOL0     H73116   8.748  12.309   5.068  0.9255  2.9786  2.9812
  542MOL0     H73117   8.673  12.045   5.075  1.7267  1.1868 -0.2906
  542MOL0     H73118   8.773  12.038   5.222 -1.8500 -2.5699  0.2979
  542MOL0     H73119   8.578  12.262   5.228  2.0380 -0.2134 -0.5372
  542MOL0     H73120   8.600  12.141   5.348 -3.3021  1.6432  1.0054
  542MOL0     H73121   8.388  12.237   5.040  4.2761  0.4910  0.6790
  542MOL0     H73122   8.213  12.146   4.925 -0.6621 -1.1985 -0.1996
  542MOL0     H73123   8.114  12.014   4.960  0.3868  0.8640 -1.5957
  542MOL0     H73124   8.125  12.256   5.156  2.6093 -0.8657 -1.6008
  542MOL0     H73125   7.986  12.161   5.125  2.4820 -1.5141  1.7113
  542MOL0     H73126   7.975  12.221   4.889  2.3341 -2.5563  0.7376
  542MOL0     H73127   8.070  12.367   4.926 -1.8275  0.1946 -1.4576
  542MOL0     H73128   7.850  12.436   4.947  0.8620 -0.1782 -0.0810
  542MOL0     H73129   7.906  12.404   5.117 -1.3622  1.9288 -0.1728
  542MOL0     H73130   7.670  12.527   5.038  2.2039 -1.0671 -1.2474
  542MOL0     H73131   7.419  12.634   4.855  1.6316  2.5146 -0.8689
  542MOL0     H73132   7.367  12.669   5.017 -3.2021  0.7850 -4.2197
  542MOL0     H73133   7.538  12.693   4.971 -1.1202  0.3097  0.3865
  542MOL0     H73134   7.024  12.267   5.234 -0.8444 -4.0778  1.2309
  542MOL0     H73135   6.789  12.279   5.286 -0.1807 -1.4898 -0.2710
  542MOL0     H73136   6.538  12.304   5.302 -1.5849 -0.8417 -0.5974
  542MOL0     H73137   6.609  12.472   5.269  0.0323 -0.7136  1.2394
  542MOL0     H73138   6.417  12.532   5.136 -0.4158 -0.3821  1.6175
  542MOL0     H73139   6.347  12.381   5.135 -1.2954 -1.6790  2.0706
  542MOL0     H73140   6.318  12.575   5.331 -2.1042 -0.5298 -0.8641
  542MOL0     H73141   6.354  12.413   5.401 -0.6262  1.7309  1.3334
  542MOL0     H73142   6.140  12.464   5.192 -1.4805  1.9972  1.0822
  542MOL0     H73143   6.165  12.319   5.286  1.8992 -0.7280 -0.9692
  542MOL0     H73144   6.126  12.578   5.440  1.7490  0.6382 -2.1923
  542MOL0     H73145   6.118  12.406   5.490  1.6339 -0.2792 -2.5334
  542MOL0     H73146   5.933  12.559   5.308  5.4364 -1.0069 -1.8485
  542MOL0     H73147   5.906  12.394   5.361  3.4754 -1.5957  0.0464
  542MOL0     H73148   5.916  12.639   5.550 -0.5249  0.6985 -0.0651
  542MOL0     H73149   5.925  12.481   5.608  0.4323  1.4612 -0.4478
  542MOL0     H73150   5.692  12.604   5.439 -1.5290  1.5937  1.6747
  542MOL0     H73151   5.696  12.598   5.617 -1.8716 -1.0246  0.4793
  542MOL0     H73152   6.716  12.356   4.859 -0.4859  1.8013  1.2852
  542MOL0     H73153   6.940  12.310   4.808  3.6989  1.5779  1.1817
  542MOL0     H73154   7.348  12.147   5.020 -0.0913  0.4859 -1.5140
  542MOL0     H73155   7.588  12.100   5.024  0.7640 -0.1138 -2.0066
  542MOL0     H73156   9.156  11.598   5.158  2.8231  1.9745 -0.7965
  542MOL0     H73157   9.159  11.375   5.231 -1.2410  3.5335 -3.1333
  542MOL0     H73158   9.581  11.052   5.491  0.5088 -1.8675  1.3409
  542MOL0     H73159   9.584  10.818   5.539 -1.7895 -2.5400  0.9320
  542MOL0     H73160   9.555  10.602   5.575 -0.8060 -1.3185 -0.2136
  542MOL0     H73161   9.557  10.693   5.731 -1.3871 -2.0735  2.6745
  542MOL0     H73162   9.474  10.401   5.660 -0.2290 -2.7301  1.9529
  542MOL0     H73163   9.426  10.474   5.816  0.4037 -3.2645 -0.3417
  542MOL0     H73164   9.648  10.532   5.862 -1.2694  2.0539 -1.1583
  542MOL0     H73165   9.710  10.426   5.728 -0.4681  0.2057  0.0009
  542MOL0     H73166   9.723  10.289   5.927  0.1986  1.6141 -0.1617
  542MOL0     H73167   9.591  10.219   5.844  1.6603 -1.3851  1.8613
  542MOL0     H73168   9.383  10.322   6.181  0.5523 -0.0197 -0.5133
  542MOL0     H73169   9.173  10.823   5.646 -0.4862 -0.1493 -1.1050
  542MOL0     H73170   9.156  11.061   5.561 -0.3389 -2.7120  1.7742
  543MOL0     O73171   6.662   6.009   0.478  1.0864 -0.1772  0.2705
  543MOL0     C73172   6.762   6.012   0.412 -0.0566  0.7451  0.6365
  543MOL0     O73173   6.761   6.001   0.271 -0.2422  0.0233  0.1385
  543MOL0     C73174   6.658   5.962   0.197 -0.0935  0.0910  0.3710
  543MOL0     C73175   6.571   5.856   0.225  0.0211 -0.5440 -0.2992
  543MOL0     C73176   6.465   5.821   0.140  0.5932 -0.7108  0.6323
  543MOL0     C73177   6.445   5.902   0.024  0.0324  0.9647  0.1093
  543MOL0     O73178   6.326   5.887  -0.039  0.1254 -0.2443 -0.1068
  543MOL0     C73179   6.262   6.011  -0.080  0.0572 -0.1907  0.6420
  543MOL0     C73180   6.099   6.007  -0.075 -0.5059  0.5544 -0.6070
  543MOL0     C73181   6.025   5.931  -0.184 -0.3279  0.6332  0.6004
  543MOL0     C73182   5.882   5.924  -0.144  0.6082  0.1498  0.1649
  543MOL0     C73183   5.815   5.842  -0.247  0.3876 -0.1188 -0.3162
  543MOL0     C73184   5.670   5.817  -0.204  0.9254 -0.0386  0.0480
  543MOL0     C73185   5.583   5.789  -0.310  0.3763  0.4595 -0.3558
  543MOL0     C73186   5.426   5.785  -0.265  0.0691  0.6656 -0.1473
  543MOL0     N73187   5.331   5.744  -0.372  0.1728  0.2660  0.0031
  543MOL0     C73188   5.327   5.779  -0.504  0.2027 -0.0119  0.0293
  543MOL0     C73189   5.217   5.722  -0.551 -0.1756  1.0026  0.5000
  543MOL0     C73190   5.166   5.721  -0.691  0.1847 -0.7769  0.8183
  543MOL0     C73191   5.172   5.588  -0.772  0.7671 -0.2933  0.1609
  543MOL0     C73192   5.097   5.472  -0.710 -0.4422  0.1858  0.9373
  543MOL0     C73193   5.078   5.354  -0.798 -0.1479 -0.3927  0.4679
  543MOL0     O73194   4.992   5.385  -0.909 -0.1513 -0.3815 -0.2665
  543MOL0     C73195   4.923   5.286  -0.970  0.1028 -0.9388 -0.1152
  543MOL0     C73196   4.816   5.321  -1.049  0.9267 -0.8529  1.3381
  543MOL0     C73197   4.736   5.223  -1.104  0.5936  0.4459 -0.7158
  543MOL0     C73198   4.606   5.265  -1.168 -0.3272 -0.6880 -0.2558
  543MOL0     C73199   4.771   5.084  -1.097 -0.0875 -0.0678  0.1948
  543MOL0     C73200   4.694   4.972  -1.161 -0.0774 -0.5273 -0.5287
  543MOL0     O73201   4.661   4.855  -1.088 -1.4206  0.2297  0.1438
  543MOL0     C73202   4.544   4.819  -1.132  0.0908  0.2498  0.1017
  543MOL0     C73203   4.531   4.707  -1.207 -0.2823 -0.8019 -0.7175
  543MOL0     C73204   4.407   4.649  -1.236  0.6915 -0.6580  0.1276
  543MOL0     C73205   4.283   4.714  -1.194 -0.0190 -0.5186  0.0974
  543MOL0     O73206   4.155   4.671  -1.222 -0.2597 -0.4640 -0.5207
  543MOL0     C73207   4.148   4.560  -1.311  0.2273 -0.3204 -0.3113
  543MOL0     C73208   4.002   4.560  -1.376 -0.1789 -0.6171 -0.1381
  543MOL0     C73209   3.885   4.561  -1.276  0.0306  0.8451  1.0941
  543MOL0     C73210   3.743   4.518  -1.342 -0.2902  0.2903 -0.8414
  543MOL0     C73211   3.628   4.490  -1.245  0.6401 -0.4098 -0.7204
  543MOL0     C73212   3.497   4.450  -1.305  0.1940 -0.3824  0.0111
  543MOL0     C73213   3.401   4.396  -1.204  0.5972  0.0639 -0.0878
  543MOL0     C73214   3.266   4.379  -1.258 -0.8627 -1.1860 -0.2091
  543MOL0    Cl73215   3.162   4.388  -1.117 -0.4871 -0.3004 -0.1019
  543MOL0     C73216   4.297   4.831  -1.119  0.1418 -0.0833  0.1512
  543MOL0     C73217   4.428   4.875  -1.086  0.5030  0.4997  0.0035
  543MOL0     O73218   4.672   4.990  -1.276 -0.6225 -0.0484  0.4122
  543MOL0     C73219   4.881   5.050  -1.016  1.0168  0.3091  1.1554
  543MOL0     C73220   4.950   5.151  -0.949 -0.0420 -0.2245 -0.3262
  543MOL0     N73221   5.162   5.640  -0.458  0.1406  0.0359 -0.1107
  543MOL0     N73222   5.222   5.661  -0.345  0.7791  0.5321 -0.1144
  543MOL0     C73223   6.537   6.001  -0.015 -0.4778 -0.5490 -0.1416
  543MOL0     C73224   6.645   6.031   0.068 -0.7986  0.8718  0.5248
  543MOL0     C73225   6.886   6.069   0.468  0.1941  0.4407 -0.2460
  543MOL0     C73226   6.992   6.121   0.389  0.6414 -0.2917 -0.3546
  543MOL0     C73227   7.100   6.183   0.443  0.3224 -0.8824 -0.1528
  543MOL0     C73228   7.121   6.189   0.579 -0.0521 -0.0926  0.7412
  543MOL0     O73229   7.238   6.237   0.633 -0.3820 -0.0471  0.3799
  543MOL0     C73230   7.313   6.143   0.711 -0.3889  0.0243 -0.4219
  543MOL0     C73231   7.461   6.143   0.670 -0.1655 -0.2503  0.6565
  543MOL0     C73232   7.517   6.287   0.654  0.7196  0.0999 -1.1259
  543MOL0     C73233   7.671   6.307   0.666  0.8166  0.5870  0.3060
  543MOL0     C73234   7.733   6.217   0.565 -0.5417 -1.3689 -0.0873
  543MOL0     C73235   7.797   6.141   0.497 -1.3221  0.3255  0.3162
  543MOL0     C73236   7.030   6.118   0.653 -0.1476 -0.7161 -0.8646
  543MOL0     C73237   6.908   6.067   0.604 -0.4183  1.2032  0.3486
  543MOL0     H73238   6.577   5.806   0.321  0.2337  1.4868  0.7984
  543MOL0     H73239   6.399   5.738   0.160  0.6711 -0.7071  0.9062
  543MOL0     H73240   6.291   6.094  -0.014  3.4993  0.2514 -1.2034
  543MOL0     H73241   6.304   6.033  -0.179 -1.8978 -0.3243 -0.2534
  543MOL0     H73242   6.078   5.971   0.026  0.5234  2.8266  0.4664
  543MOL0     H73243   6.062   6.109  -0.063 -2.8164 -0.2132 -0.6356
  543MOL0     H73244   6.047   5.982  -0.277 -2.7818 -2.4645 -1.9061
  543MOL0     H73245   6.067   5.830  -0.191  0.2744  1.0213 -2.4913
  543MOL0     H73246   5.880   5.866  -0.052 -3.2060  0.3002  0.3479
  543MOL0     H73247   5.832   6.020  -0.131  0.6345  0.6743 -2.8821
  543MOL0     H73248   5.816   5.888  -0.347 -0.0518 -2.1074 -1.2952
  543MOL0     H73249   5.857   5.743  -0.266 -2.8470 -1.5521 -0.5910
  543MOL0     H73250   5.662   5.737  -0.130  0.3121 -0.2218 -0.2100
  543MOL0     H73251   5.629   5.905  -0.152 -1.4911 -2.2663  2.2303
  543MOL0     H73252   5.597   5.858  -0.394 -3.3689  0.6271 -1.0179
  543MOL0     H73253   5.619   5.693  -0.347  2.9992  1.6523 -1.1074
  543MOL0     H73254   5.400   5.881  -0.222 -1.6800 -0.9444  2.6543
  543MOL0     H73255   5.405   5.716  -0.183  3.0837 -0.4888 -0.1969
  543MOL0     H73256   5.390   5.853  -0.554  0.8080 -2.0764 -2.4698
  543MOL0     H73257   5.060   5.748  -0.682  0.0406 -1.0140 -0.0650
  543MOL0     H73258   5.201   5.805  -0.751  3.9619 -1.8397  1.2772
  543MOL0     H73259   5.272   5.559  -0.803  1.1558  0.6749  0.4743
  543MOL0     H73260   5.108   5.612  -0.858  1.7499 -0.0315 -0.5105
  543MOL0     H73261   4.993   5.501  -0.690 -0.7331 -0.5929  0.5891
  543MOL0     H73262   5.142   5.445  -0.614 -1.6732 -3.0888  0.7113
  543MOL0     H73263   5.037   5.272  -0.738 -0.4053  1.2156  2.5803
  543MOL0     H73264   5.171   5.325  -0.848 -2.2910 -1.7290 -3.1763
  543MOL0     H73265   4.789   5.422  -1.078 -0.9020 -1.6702 -0.0018
  543MOL0     H73266   4.539   5.183  -1.195  0.2919 -0.9917 -0.9119
  543MOL0     H73267   4.554   5.328  -1.096 -0.2577 -2.3877  1.3663
  543MOL0     H73268   4.630   5.320  -1.259  0.5134  0.9324  0.8976
  543MOL0     H73269   4.620   4.651  -1.236 -1.4233 -1.2202 -3.8337
  543MOL0     H73270   4.394   4.560  -1.297  0.3357  0.7996 -2.0413
  543MOL0     H73271   4.219   4.574  -1.392 -1.1266 -0.6837 -1.6101
  543MOL0     H73272   4.167   4.469  -1.253 -1.6433 -0.5021  0.0837
  543MOL0     H73273   4.001   4.650  -1.439  1.2688 -1.5714 -1.6170
  543MOL0     H73274   3.995   4.471  -1.439 -1.6689 -1.2087  0.8240
  543MOL0     H73275   3.882   4.661  -1.232  5.9415  2.5047 -1.2524
  543MOL0     H73276   3.905   4.483  -1.202  2.0122  1.4721  1.2870
  543MOL0     H73277   3.722   4.595  -1.418  0.7774  2.0058  0.5377
  543MOL0     H73278   3.752   4.426  -1.400  0.0028 -1.7759  2.2636
  543MOL0     H73279   3.598   4.581  -1.192  0.3437  0.9565 -3.0640
  543MOL0     H73280   3.664   4.420  -1.169 -0.3022 -1.0486 -0.8622
  543MOL0     H73281   3.443   4.534  -1.350 -1.6194 -1.7595 -0.5364
  543MOL0     H73282   3.526   4.368  -1.371 -2.2609 -1.3380  0.0232
  543MOL0     H73283   3.407   4.460  -1.116  0.8740 -2.5062  1.9053
  543MOL0     H73284   3.438   4.297  -1.177 -0.4244 -0.1615  0.5485
  543MOL0     H73285   3.251   4.286  -1.314 -0.3955 -1.6712  0.4657
  543MOL0     H73286   3.248   4.471  -1.314 -0.0410  0.2160  1.7488
  543MOL0     H73287   4.212   4.885  -1.079  1.0119  2.5867 -1.2911
  543MOL0     H73288   4.424   4.963  -1.023 -1.6372  0.1512  0.4520
  543MOL0     H73289   4.895   4.943  -1.003 -0.7567  0.2635  3.2291
  543MOL0     H73290   5.038   5.124  -0.892 -0.4873 -3.3770 -0.9330
  543MOL0     H73291   6.535   6.053  -0.110  1.9368 -1.1841 -0.5860
  543MOL0     H73292   6.715   6.109   0.041  1.0256 -1.4550 -1.9983
  543MOL0     H73293   6.972   6.140   0.284 -0.0758  2.0314  0.1506
  543MOL0     H73294   7.168   6.251   0.394 -0.0386  0.4563  1.1073
  543MOL0     H73295   7.307   6.160   0.819 -1.6634 -4.9874  0.5685
  543MOL0     H73296   7.272   6.042   0.700  1.3309 -1.0319  1.9051
  543MOL0     H73297   7.471   6.099   0.570  2.5548 -0.8042  1.1096
  543MOL0     H73298   7.525   6.081   0.733  0.2162  0.1697  0.6843
  543MOL0     H73299   7.470   6.351   0.729 -2.4902 -2.6159 -0.6098
  543MOL0     H73300   7.480   6.318   0.556  0.1395 -0.9105 -1.2328
  543MOL0     H73301   7.702   6.297   0.770  0.1311  1.6896  0.6366
  543MOL0     H73302   7.692   6.412   0.641 -2.7361  0.7103 -3.1287
  543MOL0     H73303   7.850   6.077   0.428 -2.2353 -1.2123  0.9802
  543MOL0     H73304   7.044   6.112   0.760  0.9764  0.4951 -0.9250
  543MOL0     H73305   6.834   6.024   0.671  1.4770 -1.4204  0.8839
  544MOL0     O73306   2.772   7.717   8.458  0.0365  0.4206  0.7688
  544MOL0     C73307   2.717   7.610   8.419 -0.9635  0.2974 -0.4411
  544MOL0     O73308   2.781   7.497   8.379 -0.0777  0.1130  0.0473
  544MOL0     C73309   2.914   7.503   8.358 -1.0760  0.6941 -0.9534
  544MOL0     C73310   3.003   7.607   8.338 -0.0512 -0.3328  0.1669
  544MOL0     C73311   3.138   7.589   8.312  0.3481  0.2058 -0.5317
  544MOL0     C73312   3.207   7.461   8.318  0.0190  0.5676 -0.1975
  544MOL0     O73313   3.348   7.452   8.300  0.2464 -0.3608 -0.4336
  544MOL0     C73314   3.408   7.326   8.336  0.6332 -0.1848 -0.7143
  544MOL0     C73315   3.549   7.311   8.286  1.0371  0.8307 -0.2491
  544MOL0     C73316   3.656   7.375   8.385  0.1824  0.3245  0.0091
  544MOL0     C73317   3.796   7.319   8.354 -0.7382  0.2209 -0.1376
  544MOL0     C73318   3.816   7.176   8.411 -0.7190  0.2500 -0.8379
  544MOL0     C73319   3.969   7.144   8.406  0.7390 -0.4473 -0.1630
  544MOL0     C73320   4.013   7.017   8.460 -0.2933  0.0775  0.7323
  544MOL0     C73321   3.980   6.987   8.607  0.4462  0.7279 -0.3586
  544MOL0     N73322   4.038   7.092   8.685 -0.4717 -0.2469  0.1483
  544MOL0     C73323   3.971   7.141   8.790 -0.5219 -0.4264  0.1947
  544MOL0     C73324   4.056   7.221   8.862  0.7273 -0.8942  0.2612
  544MOL0     C73325   4.029   7.283   8.997 -0.0326 -0.3267  0.0376
  544MOL0     C73326   3.902   7.367   9.009  0.3657  0.1571  0.4991
  544MOL0     C73327   3.895   7.490   9.107 -0.1098 -0.2147  1.0225
  544MOL0     C73328   3.755   7.544   9.104  0.3089 -0.5073  0.3409
  544MOL0     O73329   3.676   7.479   9.190 -0.2514  0.8252  0.5602
  544MOL0     C73330   3.541   7.500   9.184 -0.0851 -0.5057  0.2170
  544MOL0     C73331   3.460   7.411   9.247 -0.6181  0.5208  1.1908
  544MOL0     C73332   3.323   7.427   9.239 -0.3343  0.4303 -0.2761
  544MOL0     C73333   3.236   7.324   9.310 -0.1605 -0.6203 -0.4060
  544MOL0     C73334   3.262   7.543   9.174 -0.6549  0.7151  1.0909
  544MOL0     C73335   3.116   7.572   9.187 -0.5226  0.5244  0.7184
  544MOL0     O73336   3.081   7.709   9.202 -0.4603 -0.2854  0.3485
  544MOL0     C73337   2.964   7.744   9.262 -0.8247 -1.0767  0.3370
  544MOL0     C73338   2.928   7.699   9.385  0.3295  0.0003  0.6965
  544MOL0     C73339   2.821   7.750   9.451  0.2630 -0.1716  0.2355
  544MOL0     C73340   2.761   7.861   9.388 -0.9895  0.3749 -0.0678
  544MOL0     O73341   2.661   7.917   9.462 -0.0228 -0.6835  0.1530
  544MOL0     C73342   2.588   8.028   9.418 -0.2057 -0.2542 -0.5622
  544MOL0     C73343   2.463   8.061   9.508 -0.2133  0.4444  0.3487
  544MOL0     C73344   2.368   7.940   9.541  0.6076  0.1936 -0.2827
  544MOL0     C73345   2.253   7.974   9.634  0.2034  0.6978  0.6351
  544MOL0     C73346   2.193   7.837   9.687  0.6817  0.0000  0.4325
  544MOL0     C73347   2.079   7.868   9.783  0.9039 -0.9652  0.3570
  544MOL0     C73348   2.016   7.736   9.848  0.7138  0.4802  0.6724
  544MOL0     C73349   1.896   7.765   9.947  0.1102  0.0742  0.4038
  544MOL0    Cl73350   1.798   7.910   9.898  0.0475  0.3330  0.4477
  544MOL0     C73351   2.791   7.906   9.261 -0.7267 -0.0217  0.1146
  544MOL0     C73352   2.896   7.842   9.197 -0.1019 -0.1068  0.8196
  544MOL0     O73353   3.036   7.482   9.191  0.7225  0.2899 -0.2996
  544MOL0     C73354   3.347   7.631   9.114  0.7990  0.3317  0.2551
  544MOL0     C73355   3.479   7.606   9.110 -0.1236  0.1538 -0.9986
  544MOL0     N73356   4.175   7.217   8.796  0.2632  0.1160  0.4889
  544MOL0     N73357   4.168   7.138   8.696  0.9422  0.6519  0.6147
  544MOL0     C73358   3.113   7.354   8.345 -0.1246  0.5791  0.3276
  544MOL0     C73359   2.973   7.371   8.364  0.8991 -1.1993  1.2339
  544MOL0     C73360   2.566   7.598   8.433 -0.0451 -0.0723 -0.8390
  544MOL0     C73361   2.488   7.538   8.337  0.2012 -0.0274 -0.1726
  544MOL0     C73362   2.347   7.551   8.344 -0.8912  0.4302  0.8966
  544MOL0     C73363   2.283   7.600   8.461 -0.1573 -0.7944 -0.1233
  544MOL0     O73364   2.150   7.571   8.502 -0.5259  0.2541 -0.0609
  544MOL0     C73365   2.058   7.546   8.390 -0.2089 -0.4445  0.3466
  544MOL0     C73366   2.033   7.394   8.394 -0.3302  0.0385  0.3875
  544MOL0     C73367   1.905   7.364   8.465  0.3258 -1.3128  0.2141
  544MOL0     C73368   1.870   7.215   8.477  0.1670  0.6181  1.2007
  544MOL0     C73369   1.880   7.140   8.351 -0.5426  0.3242 -0.1803
  544MOL0     C73370   1.883   7.073   8.256  0.3819  0.7401  0.8397
  544MOL0     C73371   2.359   7.656   8.559 -0.2405 -0.3965 -1.0784
  544MOL0     C73372   2.500   7.655   8.543  0.1426  0.5879 -0.1887
  544MOL0     H73373   2.966   7.708   8.353  1.5006  0.2914  0.0445
  544MOL0     H73374   3.207   7.671   8.293 -0.4401  0.6987 -1.3143
  544MOL0     H73375   3.396   7.294   8.440 -1.2845  1.5428 -0.3440
  544MOL0     H73376   3.352   7.252   8.277 -1.1528 -0.3161  1.0125
  544MOL0     H73377   3.562   7.202   8.288  0.7995  0.8004  1.6886
  544MOL0     H73378   3.560   7.357   8.187 -1.3876 -0.4174 -1.1996
  544MOL0     H73379   3.665   7.483   8.385 -1.1663  0.4774  1.6106
  544MOL0     H73380   3.637   7.343   8.488 -0.6337  0.7923  0.0106
  544MOL0     H73381   3.804   7.319   8.245  2.0981 -4.2531 -0.1917
  544MOL0     H73382   3.881   7.381   8.382  0.3317  0.0530 -2.7650
  544MOL0     H73383   3.773   7.162   8.510 -4.0636  3.6703 -1.5890
  544MOL0     H73384   3.776   7.096   8.347  0.8557 -2.4016  1.2815
  544MOL0     H73385   3.999   7.145   8.300  3.3434 -2.9642  0.4302
  544MOL0     H73386   4.026   7.228   8.447  0.6525 -1.2295  1.5998
  544MOL0     H73387   3.966   6.937   8.402 -1.4302  2.1291 -1.3360
  544MOL0     H73388   4.121   7.020   8.444 -0.3108  2.4642  0.7051
  544MOL0     H73389   4.017   6.888   8.637  0.0597  0.9511  0.9314
  544MOL0     H73390   3.872   6.988   8.624  0.7147 -1.2190  2.1182
  544MOL0     H73391   3.873   7.106   8.820 -0.1208 -1.0826  0.7694
  544MOL0     H73392   4.031   7.219   9.086  3.5940  1.2155  1.2420
  544MOL0     H73393   4.114   7.352   8.993 -0.1523 -0.2175 -3.1610
  544MOL0     H73394   3.812   7.305   9.019  0.8388 -0.4004  1.4799
  544MOL0     H73395   3.903   7.412   8.909  0.9285  0.0322  0.4442
  544MOL0     H73396   3.961   7.576   9.095  1.6652 -1.5541  0.6940
  544MOL0     H73397   3.919   7.447   9.205  1.3159 -0.6192  0.5180
  544MOL0     H73398   3.700   7.541   9.009  2.6209 -2.0264 -1.0520
  544MOL0     H73399   3.755   7.652   9.122 -1.5106 -0.7525  2.2955
  544MOL0     H73400   3.501   7.332   9.308  2.3769 -0.8970 -2.2808
  544MOL0     H73401   3.169   7.372   9.381  2.2915  1.7941  0.4814
  544MOL0     H73402   3.171   7.272   9.239  0.3073  1.1503 -2.2400
  544MOL0     H73403   3.291   7.256   9.375  0.5373 -0.8701 -1.2395
  544MOL0     H73404   2.983   7.615   9.428 -0.7677 -1.2589 -0.2583
  544MOL0     H73405   2.791   7.705   9.545  2.8468 -2.5527  0.0584
  544MOL0     H73406   2.657   8.112   9.410  1.0428 -1.2891 -1.0469
  544MOL0     H73407   2.555   8.009   9.316  2.4061 -0.6526 -1.4020
  544MOL0     H73408   2.485   8.115   9.601 -0.7335  0.9820  0.1678
  544MOL0     H73409   2.413   8.139   9.450 -1.0918 -0.4815 -0.1521
  544MOL0     H73410   2.433   7.861   9.581 -0.6059 -1.1681 -0.8993
  544MOL0     H73411   2.321   7.906   9.448 -4.0029  2.6807  0.8475
  544MOL0     H73412   2.305   8.030   9.712  1.1215  1.3345 -0.4049
  544MOL0     H73413   2.184   8.042   9.584 -3.2804 -1.3313  2.2557
  544MOL0     H73414   2.269   7.772   9.732 -0.4589 -2.6581 -1.2117
  544MOL0     H73415   2.167   7.780   9.597  3.9028 -0.1006 -0.5759
  544MOL0     H73416   2.108   7.943   9.856  2.1307  1.4510 -2.4033
  544MOL0     H73417   2.001   7.916   9.723 -0.9759 -5.0915 -0.9182
  544MOL0     H73418   2.105   7.695   9.895  1.2891 -1.1555 -1.6570
  544MOL0     H73419   1.987   7.670   9.767  1.0781  1.8983 -0.6669
  544MOL0     H73420   1.936   7.798  10.043  0.7551  0.5104 -0.0055
  544MOL0     H73421   1.827   7.680   9.952  1.3158 -1.1114 -1.5389
  544MOL0     H73422   2.757   7.993   9.207  0.9663 -0.3361 -1.5764
  544MOL0     H73423   2.928   7.867   9.096  1.3621 -1.8584  0.7918
  544MOL0     H73424   3.303   7.709   9.053 -3.2352 -1.2744  0.8383
  544MOL0     H73425   3.539   7.686   9.067  1.9725  0.6749  2.5329
  544MOL0     H73426   3.164   7.259   8.356  2.8248  2.0877  0.6910
  544MOL0     H73427   2.908   7.285   8.369  1.3819 -1.5357  1.9670
  544MOL0     H73428   2.523   7.484   8.249 -1.0999  0.3838 -0.9679
  544MOL0     H73429   2.285   7.500   8.271  0.6125  1.0414 -0.8793
  544MOL0     H73430   1.971   7.602   8.425 -0.1460 -0.5394  0.6624
  544MOL0     H73431   2.082   7.579   8.289 -3.7936 -1.7800 -1.0903
  544MOL0     H73432   2.121   7.333   8.418 -0.0529 -0.7759 -2.3437
  544MOL0     H73433   2.021   7.359   8.291  0.4324 -1.4080  0.7566
  544MOL0     H73434   1.830   7.423   8.412 -0.0250  0.0596  2.1523
  544MOL0     H73435   1.919   7.404   8.566  1.2204  0.3536 -0.5186
  544MOL0     H73436   1.766   7.213   8.510 -0.8545 -0.8926 -1.7261
  544MOL0     H73437   1.937   7.170   8.551 -0.3998  0.9833  1.9418
  544MOL0     H73438   1.906   7.018   8.167 -2.4169  1.3342 -0.3587
  544MOL0     H73439   2.305   7.703   8.640 -0.7980 -3.2209  0.3245
  544MOL0     H73440   2.563   7.698   8.620  0.3553  0.4924 -0.3124
  545MOL0     O73441   6.035   5.936   1.246 -1.0256 -0.2268 -0.2039
  545MOL0     C73442   5.956   5.923   1.152 -0.1026 -1.1874  0.1922
  545MOL0     O73443   5.972   5.958   1.013 -0.0881 -0.4884 -0.0867
  545MOL0     C73444   6.093   5.995   0.966 -0.5446  0.3523 -0.1587
  545MOL0     C73445   6.171   6.098   1.028  1.1921  0.3174 -0.3958
  545MOL0     C73446   6.294   6.140   0.967  0.0487  0.5902 -0.0853
  545MOL0     C73447   6.343   6.073   0.859 -0.1014 -0.7178 -0.3529
  545MOL0     O73448   6.474   6.091   0.821 -0.4246 -0.1431  0.2634
  545MOL0     C73449   6.515   6.231   0.788 -0.0603  0.3094 -0.5257
  545MOL0     C73450   6.653   6.267   0.837 -0.1615 -1.3815 -0.4630
  545MOL0     C73451   6.671   6.247   0.989 -0.0084 -1.0039  0.9014
  545MOL0     C73452   6.811   6.252   1.044 -0.2010 -0.1687 -0.1635
  545MOL0     C73453   6.886   6.386   1.018  0.3409  0.3543  0.5725
  545MOL0     C73454   7.030   6.376   1.070 -0.2008  0.2002 -0.4729
  545MOL0     C73455   7.111   6.501   1.058  0.6689  0.4432 -1.2884
  545MOL0     C73456   7.164   6.532   0.921 -0.1066 -0.6064 -0.5543
  545MOL0     N73457   7.056   6.575   0.829  0.8133  0.6604 -0.0330
  545MOL0     C73458   7.007   6.518   0.719 -0.6506  1.1027  1.0046
  545MOL0     C73459   6.944   6.607   0.648 -0.0642 -0.6375 -0.5039
  545MOL0     C73460   6.871   6.583   0.514 -0.1737  0.2354 -0.2111
  545MOL0     C73461   6.767   6.472   0.538 -0.5935  0.4351  0.1005
  545MOL0     C73462   6.672   6.454   0.413 -0.0993  0.0012 -0.1022
  545MOL0     C73463   6.581   6.331   0.427  0.0411  0.2406 -0.3245
  545MOL0     O73464   6.523   6.311   0.295  0.2878 -0.2646 -0.2509
  545MOL0     C73465   6.391   6.265   0.300  0.2498 -0.3013 -0.1525
  545MOL0     C73466   6.362   6.137   0.344  0.2053  0.4783  0.2670
  545MOL0     C73467   6.235   6.075   0.335 -0.6980  0.5163 -0.2330
  545MOL0     C73468   6.234   5.935   0.381 -0.2578  0.7393  0.4545
  545MOL0     C73469   6.123   6.153   0.295 -0.5716 -0.1892  0.0848
  545MOL0     C73470   5.984   6.094   0.292 -0.2968  0.8495  0.4060
  545MOL0     O73471   5.901   6.149   0.197  0.4663  0.5056 -0.5419
  545MOL0     C73472   5.783   6.089   0.168 -0.4871 -0.0339 -0.9935
  545MOL0     C73473   5.696   6.179   0.095 -0.5306  0.1775  0.5629
  545MOL0     C73474   5.571   6.132   0.059 -0.1024  0.0255 -0.2583
  545MOL0     C73475   5.529   6.006   0.094  0.0806  0.0363  0.4559
  545MOL0     O73476   5.402   5.990   0.045 -0.6443 -0.0876 -0.2507
  545MOL0     C73477   5.334   5.862   0.071  0.1871  0.3020  0.8741
  545MOL0     C73478   5.198   5.846   0.007  0.5946 -0.0049 -0.0163
  545MOL0     C73479   5.092   5.931   0.075 -0.2603  0.0127  0.9904
  545MOL0     C73480   4.955   5.869   0.070 -0.3192 -0.2001  0.1047
  545MOL0     C73481   4.850   5.961   0.120  0.6256  0.2494  0.2675
  545MOL0     C73482   4.857   6.100   0.062  0.8422  0.2413 -0.6754
  545MOL0     C73483   4.736   6.178   0.102 -0.4517 -0.0513  0.3267
  545MOL0     C73484   4.757   6.327   0.069  0.2234  0.6956  0.5036
  545MOL0    Cl73485   4.892   6.400   0.158 -0.4384 -0.3406  0.0368
  545MOL0     C73486   5.606   5.917   0.169 -0.6048 -0.3333 -0.8788
  545MOL0     C73487   5.733   5.960   0.202  0.1118 -0.3147  0.1767
  545MOL0     O73488   5.961   6.003   0.375  0.3519 -0.4615 -0.3706
  545MOL0     C73489   6.158   6.287   0.242  0.7010 -0.8745  0.6145
  545MOL0     C73490   6.286   6.337   0.230  0.3300  0.5066 -0.3518
  545MOL0     N73491   6.965   6.726   0.711 -1.4870 -0.1850 -0.6216
  545MOL0     N73492   7.034   6.710   0.818 -0.0214  0.0519 -0.7698
  545MOL0     C73493   6.272   5.966   0.807  0.4194  0.6683 -0.0902
  545MOL0     C73494   6.139   5.934   0.851 -0.2930 -0.4503  0.2235
  545MOL0     C73495   5.827   5.877   1.194  0.3364 -0.2712 -0.2046
  545MOL0     C73496   5.819   5.767   1.289  0.1089  0.0279  0.2566
  545MOL0     C73497   5.695   5.715   1.324  0.0856 -0.2889  0.0028
  545MOL0     C73498   5.575   5.765   1.259  0.6729  0.7741  0.2660
  545MOL0     O73499   5.450   5.723   1.292  0.1956 -0.2488  0.2727
  545MOL0     C73500   5.336   5.804   1.271  1.1740 -0.0899 -1.0204
  545MOL0     C73501   5.240   5.777   1.392  0.0698  0.4048 -0.2329
  545MOL0     C73502   5.110   5.849   1.369  0.0525  0.5859 -0.5858
  545MOL0     C73503   5.031   5.815   1.494  1.3554 -0.4700  0.2102
  545MOL0     C73504   4.910   5.893   1.491  0.0337  0.1403 -0.0778
  545MOL0     C73505   4.832   5.972   1.517  0.3959 -0.4238 -0.9747
  545MOL0     C73506   5.593   5.869   1.163  0.6912 -0.3378  0.0172
  545MOL0     C73507   5.716   5.933   1.137  0.5547  0.2934  0.0951
  545MOL0     H73508   6.120   6.160   1.102 -1.4017  0.1879 -1.9503
  545MOL0     H73509   6.350   6.228   0.999  1.0820  0.5143 -1.5700
  545MOL0     H73510   6.520   6.240   0.679  1.3592 -0.0824 -0.5069
  545MOL0     H73511   6.446   6.309   0.822  2.5977  2.7262 -0.3267
  545MOL0     H73512   6.727   6.217   0.774  0.7036  1.0026 -1.4330
  545MOL0     H73513   6.659   6.375   0.819 -2.1284 -1.3754 -1.3387
  545MOL0     H73514   6.621   6.328   1.042  4.5646  1.5484  1.8319
  545MOL0     H73515   6.619   6.158   1.025 -2.0130  0.1088  0.9066
  545MOL0     H73516   6.809   6.238   1.152  3.4831 -0.3607  0.0088
  545MOL0     H73517   6.880   6.177   1.004 -0.3658  0.5311 -1.8876
  545MOL0     H73518   6.888   6.395   0.909  0.9948 -0.6994  0.4794
  545MOL0     H73519   6.831   6.473   1.054  1.3419  0.2599  2.4599
  545MOL0     H73520   7.015   6.356   1.177  1.4712 -0.8116 -0.3885
  545MOL0     H73521   7.084   6.289   1.032 -0.5665 -1.8379  3.1598
  545MOL0     H73522   7.059   6.584   1.107 -2.2816 -0.2624 -2.9989
  545MOL0     H73523   7.202   6.490   1.118  1.8233  2.1567 -2.6229
  545MOL0     H73524   7.225   6.450   0.883  0.2425  0.1840 -1.7612
  545MOL0     H73525   7.231   6.616   0.941 -0.7889 -0.5446  1.6782
  545MOL0     H73526   7.002   6.412   0.693 -0.2627  0.9756  1.4431
  545MOL0     H73527   6.834   6.680   0.480 -0.1874  0.1188 -0.5272
  545MOL0     H73528   6.932   6.549   0.430  2.5644  1.0708  1.3074
  545MOL0     H73529   6.714   6.494   0.631 -1.7604  3.0630 -1.0946
  545MOL0     H73530   6.832   6.384   0.547 -2.8422 -1.2740  0.4181
  545MOL0     H73531   6.734   6.445   0.323  1.0275  0.5377  0.6040
  545MOL0     H73532   6.602   6.537   0.402 -2.5505 -1.9555 -0.0967
  545MOL0     H73533   6.509   6.353   0.506 -1.2555  0.8604 -1.6126
  545MOL0     H73534   6.636   6.240   0.450  1.3933  1.4106  1.2874
  545MOL0     H73535   6.451   6.091   0.385  0.6246  1.6085  0.6626
  545MOL0     H73536   6.338   5.902   0.390 -0.9429 -1.3385  1.4252
  545MOL0     H73537   6.187   5.912   0.477 -2.3201  0.6897 -0.5080
  545MOL0     H73538   6.190   5.870   0.304 -5.1453  0.9253  2.7105
  545MOL0     H73539   5.725   6.280   0.068 -1.6903  0.3704 -0.0270
  545MOL0     H73540   5.501   6.205   0.020 -1.1079 -0.7635  0.0243
  545MOL0     H73541   5.396   5.774   0.049  2.4238  1.2930  2.7916
  545MOL0     H73542   5.325   5.850   0.179 -1.9571 -0.7083  0.6324
  545MOL0     H73543   5.204   5.881  -0.096 -1.1004 -2.7797 -1.1788
  545MOL0     H73544   5.159   5.744   0.005 -2.2165  0.9232 -3.4060
  545MOL0     H73545   5.108   6.023   0.017  1.7413  0.3973  2.0731
  545MOL0     H73546   5.106   5.946   0.182 -0.9774  2.5311  0.8043
  545MOL0     H73547   4.948   5.865  -0.039  3.7396  1.3855 -0.4133
  545MOL0     H73548   4.945   5.773   0.120 -2.1497 -1.0714 -1.8024
  545MOL0     H73549   4.848   5.977   0.228  0.6019 -0.3904  0.3636
  545MOL0     H73550   4.753   5.922   0.089  0.3569  1.1015  0.0060
  545MOL0     H73551   4.953   6.148   0.081  0.7618  0.0589  0.2716
  545MOL0     H73552   4.861   6.085  -0.046  4.5028  1.8957 -0.9084
  545MOL0     H73553   4.708   6.170   0.207 -0.2054 -1.8145  0.2805
  545MOL0     H73554   4.646   6.140   0.053 -1.6428 -1.9079  3.6620
  545MOL0     H73555   4.664   6.375   0.101 -1.8019  0.2143 -3.8354
  545MOL0     H73556   4.762   6.347  -0.039 -1.3673 -1.4717 -0.0464
  545MOL0     H73557   5.577   5.816   0.196 -0.9415  0.5159  2.3512
  545MOL0     H73558   5.809   5.905   0.257  1.0670 -0.4761 -1.2373
  545MOL0     H73559   6.078   6.347   0.201  0.8357 -1.4699 -0.5635
  545MOL0     H73560   6.294   6.431   0.175  0.7154  0.9528  0.4435
  545MOL0     H73561   6.310   5.900   0.729 -3.3796 -0.0549 -1.5504
  545MOL0     H73562   6.083   5.853   0.807 -0.6441 -1.3586  2.2566
  545MOL0     H73563   5.909   5.729   1.336 -0.2489 -1.6991 -0.3993
  545MOL0     H73564   5.701   5.644   1.406 -3.8871  0.2313  0.9534
  545MOL0     H73565   5.369   5.908   1.281  1.6819 -0.4119  0.8038
  545MOL0     H73566   5.302   5.771   1.172  3.4980 -0.0634 -1.8890
  545MOL0     H73567   5.286   5.788   1.491 -2.1695 -0.2329  0.9319
  545MOL0     H73568   5.208   5.673   1.386  1.8602 -0.4260  2.5703
  545MOL0     H73569   5.055   5.817   1.280 -1.2853 -2.6933  1.2517
  545MOL0     H73570   5.140   5.953   1.356  1.2002 -0.0671 -4.4000
  545MOL0     H73571   5.088   5.830   1.586  3.6108 -2.3960 -0.7554
  545MOL0     H73572   4.999   5.710   1.493  2.2893 -0.8737  3.2758
  545MOL0     H73573   4.752   6.035   1.551  0.9136 -0.5577  0.5481
  545MOL0     H73574   5.509   5.906   1.104  1.4693 -2.4026 -2.5401
  545MOL0     H73575   5.715   6.018   1.069 -2.6804  0.2514 -0.0420
  546MOL0     O73576   9.942   9.147   7.288  0.6178  0.0435 -0.0375
  546MOL0     C73577   9.909   9.262   7.303  0.0851 -0.3879  0.6705
  546MOL0     O73578   9.778   9.313   7.318 -0.4478 -0.1109  0.5482
  546MOL0     C73579   9.658   9.245   7.315  1.0197 -0.7390 -0.0724
  546MOL0     C73580   9.647   9.117   7.372 -0.7871 -0.0460  0.1386
  546MOL0     C73581   9.524   9.054   7.368  0.9416  0.3008 -0.5241
  546MOL0     C73582   9.405   9.119   7.330  0.3178 -0.2054 -0.7029
  546MOL0     O73583   9.298   9.041   7.336 -0.5093  0.5356 -0.4488
  546MOL0     C73584   9.160   9.084   7.302 -0.3197  0.6444  0.0650
  546MOL0     C73585   9.078   9.089   7.420 -0.9917 -0.0425 -0.2909
  546MOL0     C73586   8.924   9.097   7.404 -0.5228 -0.4441  1.0161
  546MOL0     C73587   8.881   9.217   7.317 -0.9072  0.6218 -0.5231
  546MOL0     C73588   8.746   9.201   7.258 -0.1008 -0.4255  0.2324
  546MOL0     C73589   8.636   9.191   7.370 -0.4740  0.7850  0.2699
  546MOL0     C73590   8.488   9.228   7.315 -0.2148 -0.0754  0.3447
  546MOL0     C73591   8.441   9.132   7.210  0.7803  0.1288  0.4167
  546MOL0     N73592   8.298   9.155   7.175  0.4896  0.4951 -0.9219
  546MOL0     C73593   8.259   9.259   7.099  0.3677  0.1252 -0.4580
  546MOL0     C73594   8.124   9.254   7.106 -0.4055 -0.4398  0.0733
  546MOL0     C73595   8.024   9.350   7.058 -0.1911  0.4149  0.7462
  546MOL0     C73596   7.985   9.324   6.908 -1.3154  0.1999 -0.5191
  546MOL0     C73597   7.860   9.403   6.874 -0.5337  0.1772 -0.4939
  546MOL0     C73598   7.846   9.389   6.726  0.1230 -0.2204 -0.3541
  546MOL0     O73599   7.836   9.253   6.675 -0.0841  0.3109 -0.5589
  546MOL0     C73600   7.714   9.184   6.700 -0.5314  0.4037  1.1226
  546MOL0     C73601   7.594   9.239   6.739  1.0945  0.2692 -0.8142
  546MOL0     C73602   7.472   9.162   6.756 -0.1702  0.3704 -0.1803
  546MOL0     C73603   7.349   9.249   6.799  0.2895  0.2301  0.5287
  546MOL0     C73604   7.476   9.019   6.716  0.4123 -1.4972  0.6955
  546MOL0     C73605   7.363   8.926   6.729 -0.8978 -0.1817  0.6140
  546MOL0     O73606   7.391   8.791   6.686 -0.1527 -0.0370  0.3315
  546MOL0     C73607   7.285   8.710   6.663 -0.1842 -0.7181 -0.5502
  546MOL0     C73608   7.294   8.573   6.705 -0.9679  0.0022  0.2125
  546MOL0     C73609   7.190   8.488   6.702 -0.0066  1.6997 -0.3616
  546MOL0     C73610   7.058   8.526   6.669  0.5475  0.5597 -0.2498
  546MOL0     O73611   6.959   8.422   6.679 -0.0074  0.4751 -0.3521
  546MOL0     C73612   6.826   8.447   6.627  0.8318 -0.4915 -0.3049
  546MOL0     C73613   6.711   8.353   6.676  0.1987  0.2279 -0.1260
  546MOL0     C73614   6.694   8.337   6.831 -0.5388 -0.3109  1.1365
  546MOL0     C73615   6.597   8.224   6.861 -1.2153 -0.6004  0.3676
  546MOL0     C73616   6.589   8.184   7.013 -0.3957 -0.2539 -0.0040
  546MOL0     C73617   6.531   8.043   7.020  0.0721  0.3643 -0.9395
  546MOL0     C73618   6.536   7.995   7.163 -0.3638 -0.0891 -0.5440
  546MOL0     C73619   6.484   7.853   7.191  1.5004 -0.5768 -0.1532
  546MOL0    Cl73620   6.316   7.841   7.163  0.7128 -0.2602 -0.1727
  546MOL0     C73621   7.040   8.656   6.626 -0.3840 -0.3935 -0.1071
  546MOL0     C73622   7.147   8.750   6.624  0.4029  0.6637  0.0557
  546MOL0     O73623   7.259   8.964   6.774  0.4863  0.2505 -0.4912
  546MOL0     C73624   7.607   8.961   6.681 -0.5647  0.0069  0.1113
  546MOL0     C73625   7.721   9.049   6.670  0.5738 -0.0081 -0.1829
  546MOL0     N73626   8.097   9.143   7.191  0.4097  0.1534 -0.2325
  546MOL0     N73627   8.198   9.080   7.227  0.0100  0.0152  0.1248
  546MOL0     C73628   9.413   9.256   7.295  0.4540 -0.5699 -0.3136
  546MOL0     C73629   9.541   9.316   7.277  0.4071 -0.4915  0.1058
  546MOL0     C73630  10.018   9.359   7.307 -0.0165  0.1032  0.5723
  546MOL0     C73631  10.148   9.314   7.284 -0.1959 -0.2133 -0.5303
  546MOL0     C73632  10.255   9.402   7.305 -0.8598 -0.6680 -0.3688
  546MOL0     C73633  10.231   9.536   7.334 -0.1107 -0.3115 -0.7372
  546MOL0     O73634  10.341   9.615   7.353  0.2879 -0.4981 -1.2238
  546MOL0     C73635  10.323   9.753   7.410 -0.3487  0.7027 -0.0916
  546MOL0     C73636  10.458   9.812   7.454  0.0555 -0.2591  0.0896
  546MOL0     C73637  10.565   9.825   7.339 -0.0799  0.1366 -0.4704
  546MOL0     C73638  10.509   9.849   7.197  0.4137  0.1987  0.1618
  546MOL0     C73639  10.428   9.968   7.181 -1.2219  0.5419 -0.0451
  546MOL0     C73640  10.365  10.063   7.158 -0.3731 -0.4064  0.0843
  546MOL0     C73641  10.096   9.580   7.342 -0.4486 -0.2523 -0.0827
  546MOL0     C73642   9.992   9.494   7.336 -0.3250 -0.0109 -0.0386
  546MOL0     H73643   9.738   9.069   7.407 -0.8841  2.4037  4.3261
  546MOL0     H73644   9.528   8.947   7.390  0.5039  0.5133  0.6577
  546MOL0     H73645   9.152   9.179   7.249  0.9154  0.8929  0.2819
  546MOL0     H73646   9.132   9.000   7.237 -1.8495  0.6171  0.7173
  546MOL0     H73647   9.084   8.989   7.465 -2.9102  0.3128  0.8806
  546MOL0     H73648   9.122   9.166   7.484  1.2400 -0.4991 -1.1668
  546MOL0     H73649   8.902   9.004   7.350 -0.5404 -1.0621  2.0564
  546MOL0     H73650   8.866   9.088   7.496 -3.7456 -2.3348 -0.9825
  546MOL0     H73651   8.878   9.310   7.374  1.4947  0.1824  0.4434
  546MOL0     H73652   8.954   9.238   7.238  0.5466 -1.6714  0.1076
  546MOL0     H73653   8.720   9.283   7.191  2.0546  0.4606  0.3802
  546MOL0     H73654   8.748   9.105   7.205 -0.8559 -1.2586  1.6667
  546MOL0     H73655   8.633   9.087   7.401  1.6019  0.2060 -1.1935
  546MOL0     H73656   8.672   9.251   7.454  2.6393 -0.6160  0.0794
  546MOL0     H73657   8.418   9.212   7.397  1.7194 -2.1007  1.7065
  546MOL0     H73658   8.486   9.329   7.273 -2.0151 -0.0872  0.3292
  546MOL0     H73659   8.457   9.030   7.247  1.6202  0.7306  1.7959
  546MOL0     H73660   8.507   9.153   7.126  1.0379 -1.2385  0.2605
  546MOL0     H73661   8.329   9.327   7.052  2.4002 -1.4641  0.1444
  546MOL0     H73662   7.932   9.338   7.115 -0.2408  1.3325  0.8704
  546MOL0     H73663   8.052   9.456   7.057  0.4966  0.3026 -2.6667
  546MOL0     H73664   7.977   9.216   6.893  1.5877 -0.2332  0.5620
  546MOL0     H73665   8.066   9.368   6.849  1.1558 -3.4240 -0.1411
  546MOL0     H73666   7.861   9.508   6.907 -0.4857 -0.4859  1.8112
  546MOL0     H73667   7.782   9.345   6.925  1.5675 -3.6214 -1.2931
  546MOL0     H73668   7.928   9.446   6.679 -0.9092  0.2242 -1.6767
  546MOL0     H73669   7.758   9.446   6.694  0.9562  1.1324 -0.3272
  546MOL0     H73670   7.597   9.340   6.780  1.0946 -0.3679  0.8481
  546MOL0     H73671   7.388   9.345   6.833  3.2649  0.0969 -2.0475
  546MOL0     H73672   7.268   9.248   6.724  0.9177  0.7664 -0.1779
  546MOL0     H73673   7.306   9.207   6.890 -1.3461  0.3271 -0.1516
  546MOL0     H73674   7.393   8.534   6.726 -0.6237 -0.3854 -1.8566
  546MOL0     H73675   7.203   8.389   6.746 -3.4179  1.6343  0.8147
  546MOL0     H73676   6.792   8.546   6.658 -0.4811 -1.5421  1.8224
  546MOL0     H73677   6.838   8.449   6.518  1.1226 -0.5457 -0.2755
  546MOL0     H73678   6.617   8.387   6.632  0.0113 -0.1824 -0.0499
  546MOL0     H73679   6.722   8.255   6.628 -0.0779 -1.7310  3.4351
  546MOL0     H73680   6.658   8.436   6.863 -2.4766  0.0022 -1.5631
  546MOL0     H73681   6.790   8.310   6.875 -0.1504  0.2431  0.6492
  546MOL0     H73682   6.496   8.246   6.827 -2.1464 -3.8091  0.7782
  546MOL0     H73683   6.624   8.143   6.792  2.4252  1.6883 -1.2521
  546MOL0     H73684   6.520   8.246   7.070 -0.9943 -0.6903 -0.2439
  546MOL0     H73685   6.693   8.192   7.046 -0.8518  2.9143  1.0082
  546MOL0     H73686   6.429   8.027   6.985 -0.5900 -2.7667  1.9154
  546MOL0     H73687   6.599   7.976   6.968 -0.1321 -1.4390  1.0033
  546MOL0     H73688   6.481   8.071   7.221  1.7657 -0.7422  2.5598
  546MOL0     H73689   6.639   8.009   7.196 -0.1756  0.2250 -1.2347
  546MOL0     H73690   6.507   7.826   7.294  3.1624  3.1843  0.6304
  546MOL0     H73691   6.533   7.778   7.128  3.3137 -0.2181  0.7570
  546MOL0     H73692   6.944   8.683   6.583 -1.5692 -0.9510  2.0631
  546MOL0     H73693   7.140   8.850   6.583  3.4116  1.2892  0.8079
  546MOL0     H73694   7.625   8.859   6.650  3.7969  0.1670  1.4866
  546MOL0     H73695   7.817   9.007   6.641  0.5655  1.3068 -2.3588
  546MOL0     H73696   9.326   9.315   7.268 -0.7743 -1.3388  1.7171
  546MOL0     H73697   9.559   9.412   7.231  1.0330  0.9869  3.1746
  546MOL0     H73698  10.171   9.209   7.266  0.3701 -0.0352 -0.8670
  546MOL0     H73699  10.359   9.374   7.293 -0.9918 -0.7709 -1.3215
  546MOL0     H73700  10.289   9.824   7.334 -0.5618 -0.5955 -1.2339
  546MOL0     H73701  10.250   9.761   7.492 -1.0238  1.1266 -0.7160
  546MOL0     H73702  10.505   9.752   7.532 -0.8290  0.6104  1.3250
  546MOL0     H73703  10.440   9.911   7.497  3.4898 -0.8863  3.5499
  546MOL0     H73704  10.619   9.730   7.339 -0.6167 -0.1700 -0.8577
  546MOL0     H73705  10.642   9.900   7.361  0.9345 -1.4190  1.7148
  546MOL0     H73706  10.447   9.768   7.157  1.4730 -0.2017 -0.6987
  546MOL0     H73707  10.585   9.858   7.119 -0.4483 -0.5955 -0.7900
  546MOL0     H73708  10.305  10.151   7.151  0.4240  0.4185  2.4594
  546MOL0     H73709  10.070   9.686   7.341  1.6289  0.2906 -0.4624
  546MOL0     H73710   9.887   9.521   7.324 -0.3907 -0.3986 -0.3909
  547MOL0     O73711   6.609   1.375   1.663 -0.1004  0.0085 -0.1767
  547MOL0     C73712   6.675   1.325   1.569  0.7186  0.8453  0.1730
  547MOL0     O73713   6.786   1.386   1.502  0.1564 -0.2273 -0.1434
  547MOL0     C73714   6.793   1.528   1.524  0.3746 -0.2475  0.2479
  547MOL0     C73715   6.911   1.572   1.570 -0.5955 -0.8828 -0.1311
  547MOL0     C73716   6.924   1.709   1.588  0.0434 -0.3185  0.2534
  547MOL0     C73717   6.822   1.799   1.555  0.2390 -0.2697  0.3791
  547MOL0     O73718   6.843   1.938   1.568 -0.4049 -1.1407 -0.4071
  547MOL0     C73719   6.775   2.015   1.474 -0.7730 -0.0610  0.0811
  547MOL0     C73720   6.846   2.152   1.459 -0.1679 -0.5226  0.4964
  547MOL0     C73721   6.765   2.251   1.373  0.1412 -0.7776 -0.8156
  547MOL0     C73722   6.617   2.253   1.410  0.7302 -1.2886  0.6460
  547MOL0     C73723   6.551   2.372   1.329 -0.0680  0.3232  0.8767
  547MOL0     C73724   6.456   2.319   1.221 -0.7797  0.1784 -0.3737
  547MOL0     C73725   6.398   2.429   1.138  0.3557 -0.1153  0.4491
  547MOL0     C73726   6.275   2.361   1.068 -0.0247 -0.0473 -0.7592
  547MOL0     N73727   6.215   2.422   0.956 -0.5356 -0.1974  0.3411
  547MOL0     C73728   6.101   2.376   0.897 -0.7839 -0.0582  0.5014
  547MOL0     C73729   6.063   2.472   0.806  0.6802 -0.2215 -0.9889
  547MOL0     C73730   5.946   2.470   0.723 -0.1878  0.5839  0.3674
  547MOL0     C73731   5.899   2.604   0.664 -0.4737  0.6304 -0.4339
  547MOL0     C73732   5.788   2.595   0.559  0.0056 -0.7679  1.2823
  547MOL0     C73733   5.692   2.708   0.561  0.4272 -1.0342 -0.2778
  547MOL0     O73734   5.576   2.689   0.474  0.1809  0.0411  0.1786
  547MOL0     C73735   5.461   2.762   0.506  0.7947 -0.2202  0.7561
  547MOL0     C73736   5.447   2.860   0.605 -0.3625 -0.0206  0.4974
  547MOL0     C73737   5.324   2.912   0.630  0.0470 -0.4636 -0.9783
  547MOL0     C73738   5.325   3.001   0.756  0.5400 -0.5522 -0.9866
  547MOL0     C73739   5.201   2.883   0.557 -0.9440 -0.7041  0.8073
  547MOL0     C73740   5.065   2.924   0.581  0.1364  0.5586 -0.0493
  547MOL0     O73741   4.994   2.948   0.465  0.4923 -0.1595  0.5569
  547MOL0     C73742   4.861   2.950   0.480  0.4280 -0.3163 -0.5604
  547MOL0     C73743   4.785   2.836   0.510 -0.1083  0.1021  0.7358
  547MOL0     C73744   4.649   2.848   0.541 -0.2412  0.1325  1.0149
  547MOL0     C73745   4.571   2.959   0.512  0.1471  0.1220 -1.2918
  547MOL0     O73746   4.439   2.969   0.554  0.0720 -0.0549 -1.0468
  547MOL0     C73747   4.350   3.066   0.498 -0.5380 -0.1972  0.5732
  547MOL0     C73748   4.198   3.037   0.492  1.3876  0.8705  0.0369
  547MOL0     C73749   4.168   2.908   0.421 -0.1171  0.0594  0.5551
  547MOL0     C73750   4.027   2.927   0.363  0.3399  0.0742  0.2151
  547MOL0     C73751   3.984   2.818   0.266  0.4783 -0.1246 -0.3300
  547MOL0     C73752   3.838   2.838   0.234  0.6227 -0.2122  0.0264
  547MOL0     C73753   3.778   2.721   0.172  0.2655 -0.0628  0.1270
  547MOL0     C73754   3.617   2.727   0.189  0.1602  0.1531 -0.3453
  547MOL0    Cl73755   3.541   2.579   0.121 -0.0467  0.3016  0.0195
  547MOL0     C73756   4.647   3.070   0.469 -0.1624 -0.2423  1.1829
  547MOL0     C73757   4.786   3.065   0.455 -0.5006  0.0230 -0.1346
  547MOL0     O73758   5.013   2.896   0.688  0.3147  0.0269 -0.4487
  547MOL0     C73759   5.218   2.791   0.451 -0.0521  0.5116 -0.2343
  547MOL0     C73760   5.345   2.739   0.435  0.0687 -1.1335 -0.1036
  547MOL0     N73761   6.149   2.571   0.817  0.3673  0.2973  0.0434
  547MOL0     N73762   6.238   2.548   0.908  0.3353  0.3189 -0.5739
  547MOL0     C73763   6.701   1.742   1.496 -0.2149 -0.1622  0.2886
  547MOL0     C73764   6.681   1.610   1.488 -0.7754  0.5483  0.3217
  547MOL0     C73765   6.652   1.177   1.541 -0.1389 -0.6459  0.4193
  547MOL0     C73766   6.747   1.101   1.477  0.4107  0.4854  0.6885
  547MOL0     C73767   6.714   0.962   1.444 -0.5765  0.0724 -0.5142
  547MOL0     C73768   6.589   0.903   1.463 -0.2243 -0.3254 -0.8360
  547MOL0     O73769   6.559   0.787   1.410 -0.2649 -0.0133  0.1756
  547MOL0     C73770   6.522   0.676   1.501 -1.2004 -0.9729  0.1014
  547MOL0     C73771   6.410   0.599   1.440  0.7439  0.2584 -0.3762
  547MOL0     C73772   6.276   0.673   1.433  0.0119  0.3499  0.6317
  547MOL0     C73773   6.210   0.678   1.577 -0.2365 -1.1442  0.5230
  547MOL0     C73774   6.106   0.578   1.583  0.6001  0.0704 -0.5708
  547MOL0     C73775   6.026   0.484   1.597  0.2652 -0.4169  0.2774
  547MOL0     C73776   6.497   0.978   1.531  0.6199  0.1232  0.2348
  547MOL0     C73777   6.532   1.112   1.570  0.3767  0.5302  0.2957
  547MOL0     H73778   6.994   1.508   1.597 -0.3893 -0.4261  0.3388
  547MOL0     H73779   7.015   1.759   1.620 -1.0612  3.1113 -1.4739
  547MOL0     H73780   6.771   1.961   1.378 -2.1695  1.3462 -0.6923
  547MOL0     H73781   6.675   2.032   1.516 -1.1723 -0.6358 -0.6145
  547MOL0     H73782   6.864   2.192   1.559  1.9698 -3.1833  1.3017
  547MOL0     H73783   6.943   2.130   1.413  1.3787 -0.2621  3.4223
  547MOL0     H73784   6.807   2.352   1.380  2.6690 -1.6715 -1.8754
  547MOL0     H73785   6.780   2.223   1.268  0.4284  0.9955 -1.2873
  547MOL0     H73786   6.584   2.154   1.377  0.4031 -0.0902 -3.1074
  547MOL0     H73787   6.601   2.281   1.515  1.1040  2.6993 -0.1878
  547MOL0     H73788   6.496   2.440   1.394  2.0666  0.3094  2.8550
  547MOL0     H73789   6.624   2.439   1.282 -0.0754 -1.5554 -2.0800
  547MOL0     H73790   6.507   2.240   1.164  0.7464  1.1086 -0.3553
  547MOL0     H73791   6.373   2.266   1.269  0.4635 -0.7000  0.9202
  547MOL0     H73792   6.360   2.509   1.202  1.2861  0.6055  0.1170
  547MOL0     H73793   6.477   2.471   1.074  0.0933 -0.6506 -0.2413
  547MOL0     H73794   6.199   2.342   1.145  1.7796  0.3768  1.2171
  547MOL0     H73795   6.304   2.261   1.033 -4.4429 -1.2693 -1.5876
  547MOL0     H73796   6.041   2.289   0.923 -1.7319 -0.4596 -2.5745
  547MOL0     H73797   5.956   2.394   0.644 -2.3730 -2.0249  2.3870
  547MOL0     H73798   5.869   2.425   0.787  0.7621  1.2516  2.0373
  547MOL0     H73799   5.977   2.653   0.604 -1.6760  0.3923 -2.2512
  547MOL0     H73800   5.873   2.669   0.748  1.1496 -0.5255  1.0353
  547MOL0     H73801   5.732   2.501   0.571  0.5060 -1.1176  0.9378
  547MOL0     H73802   5.825   2.589   0.456  1.2286 -1.4939  1.7475
  547MOL0     H73803   5.725   2.812   0.559 -0.3330 -0.7922 -0.6570
  547MOL0     H73804   5.647   2.707   0.661  0.2343  1.4642 -0.2838
  547MOL0     H73805   5.527   2.885   0.674  1.8224  2.6799 -2.6945
  547MOL0     H73806   5.334   2.937   0.844  0.2058 -0.9034 -1.2069
  547MOL0     H73807   5.402   3.079   0.763 -2.2107  2.3561 -0.4172
  547MOL0     H73808   5.228   3.052   0.763  1.9309  2.1913  0.0642
  547MOL0     H73809   4.838   2.742   0.527 -0.8538 -0.0833  2.2257
  547MOL0     H73810   4.606   2.760   0.587  0.1857 -0.2367  0.7131
  547MOL0     H73811   4.365   3.158   0.555  1.4061  0.0616 -0.2617
  547MOL0     H73812   4.384   3.087   0.396  3.5693  1.8848  2.1406
  547MOL0     H73813   4.154   3.040   0.592 -1.8339 -1.5948 -1.1556
  547MOL0     H73814   4.161   3.117   0.426  1.2659 -0.9921 -2.2601
  547MOL0     H73815   4.168   2.829   0.497  3.9431 -0.5203  0.1810
  547MOL0     H73816   4.237   2.879   0.341  1.4394 -1.3655  2.3000
  547MOL0     H73817   3.954   2.911   0.443 -0.4588 -1.8438 -0.8287
  547MOL0     H73818   4.012   3.030   0.331 -1.3973 -0.5700 -1.1987
  547MOL0     H73819   3.978   2.729   0.330  0.2580  0.5121  0.5637
  547MOL0     H73820   4.057   2.811   0.185  2.5946 -3.6391  1.5966
  547MOL0     H73821   3.784   2.868   0.324  2.8081  3.5033  0.2799
  547MOL0     H73822   3.819   2.917   0.161  0.6527 -0.7989 -0.6372
  547MOL0     H73823   3.805   2.627   0.222  2.5261  1.0481  1.1547
  547MOL0     H73824   3.807   2.718   0.067  1.5286 -0.6883  0.4724
  547MOL0     H73825   3.580   2.807   0.123  1.7827  1.9241  0.7754
  547MOL0     H73826   3.597   2.739   0.295  0.4956  2.7800 -0.5192
  547MOL0     H73827   4.602   3.165   0.442  0.3903 -0.4903 -0.6978
  547MOL0     H73828   4.824   3.161   0.422 -1.0267  0.4813  0.5519
  547MOL0     H73829   5.135   2.745   0.398 -0.8118 -0.4691  1.7061
  547MOL0     H73830   5.344   2.653   0.369 -2.1004 -0.4483 -1.0611
  547MOL0     H73831   6.624   1.809   1.459  0.0737  0.0842  0.1338
  547MOL0     H73832   6.591   1.572   1.441 -0.3110  0.1418 -0.2620
  547MOL0     H73833   6.845   1.133   1.441 -0.8197  2.9558 -0.6699
  547MOL0     H73834   6.797   0.904   1.406  1.1833  0.0185  3.0003
  547MOL0     H73835   6.616   0.622   1.519  1.4207  3.3092  0.7878
  547MOL0     H73836   6.487   0.707   1.600  1.5888  0.3044  0.7900
  547MOL0     H73837   6.404   0.502   1.491  0.3373  1.1473  1.3408
  547MOL0     H73838   6.440   0.570   1.339 -1.6818 -1.4110 -0.7285
  547MOL0     H73839   6.208   0.621   1.364  1.0288 -3.1825  2.0775
  547MOL0     H73840   6.288   0.773   1.390  1.6511 -0.0993 -0.0330
  547MOL0     H73841   6.170   0.772   1.617 -1.9539 -1.5558 -0.1619
  547MOL0     H73842   6.279   0.643   1.655 -1.4558 -1.6079  1.4170
  547MOL0     H73843   5.949   0.410   1.605  0.0324 -0.5591 -2.3944
  547MOL0     H73844   6.402   0.933   1.561  0.6141 -1.4900 -1.9364
  547MOL0     H73845   6.455   1.176   1.611 -0.3918 -0.9338  1.2105
  548MOL0     O73846   9.042   9.436   0.980 -0.0783  0.4404  0.7596
  548MOL0     C73847   9.088   9.388   1.083 -0.3764 -0.9364 -0.3519
  548MOL0     O73848   9.224   9.370   1.105  0.2657  0.2893 -0.0822
  548MOL0     C73849   9.315   9.454   1.035  0.1465  0.7116 -0.0819
  548MOL0     C73850   9.381   9.392   0.929 -0.1493  0.4059  0.2602
  548MOL0     C73851   9.478   9.459   0.855  0.4925 -0.3443  0.5222
  548MOL0     C73852   9.517   9.589   0.886 -1.1977 -0.0494 -1.2617
  548MOL0     O73853   9.627   9.647   0.831 -0.0783 -0.2780 -0.3291
  548MOL0     C73854   9.625   9.666   0.697 -0.2570 -0.2184 -0.8006
  548MOL0     C73855   9.763   9.697   0.639  0.4620 -1.3536  0.0350
  548MOL0     C73856   9.792   9.847   0.671 -0.3518 -0.3688 -0.5761
  548MOL0     C73857   9.928   9.870   0.622 -0.1306 -0.0953 -0.1961
  548MOL0     C73858   9.969  10.019   0.644  0.1399 -0.5363 -0.6076
  548MOL0     C73859  10.092  10.045   0.557 -0.1498  0.0769 -0.6377
  548MOL0     C73860  10.106  10.183   0.501 -0.2512  0.0948 -0.0338
  548MOL0     C73861  10.238  10.196   0.423  0.8799  0.0947 -0.5006
  548MOL0     N73862  10.256  10.114   0.311  0.1663  0.1684 -0.3330
  548MOL0     C73863  10.150  10.085   0.221  0.4257  0.1688  0.0972
  548MOL0     C73864  10.208  10.010   0.114  0.0432  0.7407  0.7138
  548MOL0     C73865  10.165   9.950  -0.014 -0.1434  0.0387 -0.2211
  548MOL0     C73866  10.240  10.014  -0.131  0.7474  0.0467  0.6965
  548MOL0     C73867  10.204   9.957  -0.269  0.4795 -0.3791 -0.7233
  548MOL0     C73868  10.057   9.969  -0.291 -0.3647  0.3169 -0.7166
  548MOL0     O73869   9.992   9.849  -0.246  0.4086 -0.1592  0.3566
  548MOL0     C73870   9.854   9.848  -0.234 -0.7836 -1.1354 -0.4432
  548MOL0     C73871   9.761   9.949  -0.262 -0.0319  0.0722  0.2857
  548MOL0     C73872   9.621   9.930  -0.241  1.1138 -0.8833 -0.3324
  548MOL0     C73873   9.535  10.050  -0.277 -0.5404 -0.7843  0.3745
  548MOL0     C73874   9.569   9.812  -0.182 -0.0239 -0.0065  0.4762
  548MOL0     C73875   9.424   9.788  -0.164  1.3652  0.4262  0.1001
  548MOL0     O73876   9.335   9.875  -0.220 -0.4756  0.0236  0.3992
  548MOL0     C73877   9.200   9.871  -0.173 -0.5211 -0.1630  0.2893
  548MOL0     C73878   9.170   9.861  -0.030  0.0935 -0.4489  0.4891
  548MOL0     C73879   9.034   9.877   0.006  0.5369 -1.0148  0.6199
  548MOL0     C73880   8.938   9.913  -0.093  0.9563 -0.3728 -0.3424
  548MOL0     O73881   8.809   9.927  -0.048 -0.1404 -0.0992 -0.4871
  548MOL0     C73882   8.740  10.038  -0.091 -0.1964  0.0443 -0.0866
  548MOL0     C73883   8.608  10.044  -0.013 -0.8077 -0.3672 -0.1557
  548MOL0     C73884   8.617  10.113   0.114 -0.5320  0.3491  0.8567
  548MOL0     C73885   8.475  10.096   0.187  0.2342  0.4379 -0.0963
  548MOL0     C73886   8.482  10.153   0.325  0.3609 -1.1323  0.1726
  548MOL0     C73887   8.344  10.146   0.387 -0.5075  0.1867 -0.0880
  548MOL0     C73888   8.309  10.253   0.492 -0.1952  0.2237  0.2826
  548MOL0     C73889   8.425  10.251   0.594  0.5028  0.2029  0.4198
  548MOL0    Cl73890   8.399  10.369   0.726 -0.4921 -0.4178  0.1896
  548MOL0     C73891   8.978   9.938  -0.226 -0.2421  1.0919  0.4057
  548MOL0     C73892   9.106   9.904  -0.269  0.2088 -0.3303 -0.0302
  548MOL0     O73893   9.390   9.693  -0.092 -0.2716 -0.3641  0.2080
  548MOL0     C73894   9.665   9.714  -0.157  0.4344  0.3376  0.2386
  548MOL0     C73895   9.804   9.732  -0.180  0.2102 -0.1577 -0.5418
  548MOL0     N73896  10.341   9.988   0.160  0.0371 -0.1832  0.4676
  548MOL0     N73897  10.368  10.053   0.267  0.2148 -0.4289  0.0254
  548MOL0     C73898   9.459   9.650   0.997  0.4702 -0.7631 -0.3262
  548MOL0     C73899   9.360   9.580   1.070  0.8274  0.6462 -0.4100
  548MOL0     C73900   8.993   9.357   1.195  0.0193 -0.0492 -0.0829
  548MOL0     C73901   9.038   9.303   1.318 -0.8381 -1.5006  0.3783
  548MOL0     C73902   8.948   9.273   1.422  0.0055 -0.3834  0.7053
  548MOL0     C73903   8.814   9.300   1.397  1.0902 -0.6985  0.7780
  548MOL0     O73904   8.741   9.281   1.509 -0.0068 -0.4336  0.9311
  548MOL0     C73905   8.648   9.386   1.525 -0.3796  0.8221 -0.0541
  548MOL0     C73906   8.569   9.359   1.649  0.6818 -0.5822 -0.2525
  548MOL0     C73907   8.664   9.351   1.772  0.4272  0.0663 -0.0997
  548MOL0     C73908   8.620   9.285   1.899  0.2933  0.4476 -0.3709
  548MOL0     C73909   8.534   9.167   1.868 -0.3636  0.3852  0.0046
  548MOL0     C73910   8.464   9.076   1.830 -0.2956  0.5567 -1.0927
  548MOL0     C73911   8.771   9.333   1.262  0.1319 -0.6784 -0.1794
  548MOL0     C73912   8.859   9.366   1.165  0.3014 -0.7150  0.1174
  548MOL0     H73913   9.362   9.286   0.912  0.2514  0.4760 -0.7150
  548MOL0     H73914   9.552   9.412   0.790 -0.7717 -1.1884 -0.3477
  548MOL0     H73915   9.610   9.570   0.646  2.4120 -1.3309  0.3090
  548MOL0     H73916   9.546   9.735   0.666 -0.6940 -2.1046 -4.3928
  548MOL0     H73917   9.837   9.625   0.674  0.1601 -2.6710 -1.8674
  548MOL0     H73918   9.752   9.679   0.531  1.0059  0.7376 -0.4067
  548MOL0     H73919   9.722   9.901   0.607 -1.7408 -1.2604  0.1355
  548MOL0     H73920   9.757   9.881   0.768 -0.0006  0.5172 -0.7537
  548MOL0     H73921   9.987   9.825   0.702 -2.0925  0.4482  1.6426
  548MOL0     H73922   9.954   9.816   0.531  1.3241 -1.6056  1.0524
  548MOL0     H73923   9.885  10.086   0.622  0.6873  1.4015  2.5558
  548MOL0     H73924   9.990  10.042   0.749  0.5359  1.4555 -1.0767
  548MOL0     H73925  10.186  10.017   0.606  0.0254  0.8838 -0.4964
  548MOL0     H73926  10.081   9.978   0.471 -0.7249 -2.9559  1.6268
  548MOL0     H73927  10.019  10.200   0.438 -0.0970 -1.8066 -0.8086
  548MOL0     H73928  10.113  10.251   0.587 -1.3361 -2.1391  1.9497
  548MOL0     H73929  10.322  10.183   0.493  0.8822  1.4522 -0.2319
  548MOL0     H73930  10.236  10.300   0.388  0.6646 -0.2413 -1.5151
  548MOL0     H73931  10.046  10.114   0.230  0.3687 -0.3814  1.5629
  548MOL0     H73932  10.192   9.844  -0.008 -0.8919 -0.4522 -3.6566
  548MOL0     H73933  10.057   9.964  -0.021  0.0746  2.2904  0.3452
  548MOL0     H73934  10.348  10.001  -0.114  0.6595 -1.7649  0.1088
  548MOL0     H73935  10.216  10.120  -0.143 -2.1133 -0.5663  0.4115
  548MOL0     H73936  10.221   9.852  -0.296 -0.6755 -0.5054 -1.0137
  548MOL0     H73937  10.252  10.019  -0.345  0.6127  0.7451  0.2610
  548MOL0     H73938  10.032   9.982  -0.397 -2.6608 -1.1888 -0.4279
  548MOL0     H73939  10.022  10.058  -0.236  0.4515 -1.0349  2.2080
  548MOL0     H73940   9.789  10.046  -0.303 -1.3866  0.3371 -0.0658
  548MOL0     H73941   9.458  10.077  -0.204  0.4166 -1.4341  1.6716
  548MOL0     H73942   9.599  10.137  -0.292 -1.4368 -0.7359 -5.3456
  548MOL0     H73943   9.489  10.032  -0.375  1.5818  1.0024 -1.0467
  548MOL0     H73944   9.250   9.850   0.043 -1.9376  3.8301  3.8292
  548MOL0     H73945   9.012   9.860   0.111  0.6707  0.5493  0.9137
  548MOL0     H73946   8.796  10.129  -0.069  1.9060 -0.9566 -0.9922
  548MOL0     H73947   8.714  10.039  -0.197  0.7675  3.9051 -0.4112
  548MOL0     H73948   8.532  10.096  -0.072  0.2428  2.6650  0.9820
  548MOL0     H73949   8.579   9.942   0.013  0.0647 -0.8447 -0.9571
  548MOL0     H73950   8.630  10.220   0.096 -0.8313 -0.0641 -2.2370
  548MOL0     H73951   8.693  10.062   0.175  1.0091 -1.0305 -2.0398
  548MOL0     H73952   8.402  10.153   0.128  1.5197  4.0051  1.4613
  548MOL0     H73953   8.451   9.990   0.188 -1.1654  0.6194 -2.9426
  548MOL0     H73954   8.510  10.258   0.315 -1.2030 -0.3557  2.7653
  548MOL0     H73955   8.566  10.109   0.380  1.2273 -3.1217 -2.5321
  548MOL0     H73956   8.279  10.157   0.300 -0.8133  3.9670  0.4537
  548MOL0     H73957   8.329  10.045   0.428  1.8244 -0.3370 -0.3252
  548MOL0     H73958   8.211  10.226   0.533 -0.5105 -2.2738 -1.8395
  548MOL0     H73959   8.302  10.351   0.444  1.3587 -0.4122 -1.3805
  548MOL0     H73960   8.514  10.276   0.536  0.2226 -2.3632 -1.2949
  548MOL0     H73961   8.428  10.154   0.645 -1.2986  0.9389  2.0703
  548MOL0     H73962   8.908   9.971  -0.302  0.3640  0.5269 -0.4160
  548MOL0     H73963   9.136   9.912  -0.373  0.9561 -0.3840  0.1697
  548MOL0     H73964   9.629   9.619  -0.118 -2.4103  0.2165 -2.3633
  548MOL0     H73965   9.870   9.649  -0.157 -1.4498 -1.9192 -1.7334
  548MOL0     H73966   9.498   9.744   1.035  0.0246 -1.1974  1.2462
  548MOL0     H73967   9.315   9.627   1.157 -0.3394 -3.2715  1.3423
  548MOL0     H73968   9.143   9.277   1.316 -0.1893  0.7385 -3.2403
  548MOL0     H73969   8.974   9.239   1.522 -0.3966  0.1448  0.9918
  548MOL0     H73970   8.695   9.484   1.534  1.6438 -0.2146  1.3400
  548MOL0     H73971   8.572   9.381   1.446 -2.1932  1.0188  1.6059
  548MOL0     H73972   8.513   9.265   1.645  0.3562 -0.5979  2.5159
  548MOL0     H73973   8.502   9.444   1.666  0.9185 -0.6875  1.3623
  548MOL0     H73974   8.668   9.453   1.810 -0.0371 -0.7573  2.3193
  548MOL0     H73975   8.765   9.326   1.738  1.1713  0.5097  1.7002
  548MOL0     H73976   8.561   9.362   1.950 -0.7838  0.7805 -2.0649
  548MOL0     H73977   8.701   9.257   1.967  0.1583  1.7405  0.3625
  548MOL0     H73978   8.411   8.997   1.780  0.4017  0.2164 -1.3080
  548MOL0     H73979   8.667   9.351   1.238  0.6672  1.1918 -1.2253
  548MOL0     H73980   8.815   9.383   1.068 -0.5187  1.6620  0.8476
  549MOL0     O73981   0.028   5.311   8.063  0.9569  0.4267  0.2154
  549MOL0     C73982  -0.033   5.389   8.133 -0.4302 -0.1765  0.3130
  549MOL0     O73983   0.025   5.455   8.248 -0.7031 -0.8102  0.4438
  549MOL0     C73984   0.159   5.434   8.266 -0.1961  0.3969 -0.6458
  549MOL0     C73985   0.252   5.503   8.190  1.0204  0.3926 -0.1035
  549MOL0     C73986   0.388   5.489   8.214 -0.7277  0.3301  0.0920
  549MOL0     C73987   0.441   5.399   8.314 -0.5623 -0.8927 -1.4805
  549MOL0     O73988   0.575   5.386   8.358 -0.4261  0.2384 -0.6085
  549MOL0     C73989   0.671   5.449   8.271 -0.3299  0.4845  0.4362
  549MOL0     C73990   0.820   5.412   8.305 -0.3503 -0.6576  0.2815
  549MOL0     C73991   0.904   5.469   8.182 -0.2636  0.1936 -0.0621
  549MOL0     C73992   1.053   5.433   8.171 -0.6945  0.2644  0.2945
  549MOL0     C73993   1.144   5.506   8.273  0.5694 -0.7077  0.5326
  549MOL0     C73994   1.295   5.496   8.238  0.0721  0.2085  0.4352
  549MOL0     C73995   1.369   5.597   8.327 -0.0333 -0.1719  0.1397
  549MOL0     C73996   1.499   5.663   8.256 -1.4048  0.6742  0.2883
  549MOL0     N73997   1.606   5.564   8.232 -0.1976  0.9536  0.3106
  549MOL0     C73998   1.720   5.563   8.299 -0.0397  0.2237  0.1007
  549MOL0     C73999   1.801   5.467   8.247 -0.6485  0.8731 -0.2378
  549MOL0     C74000   1.938   5.426   8.293 -0.0997 -0.0815  0.1906
  549MOL0     C74001   2.044   5.531   8.250  0.2484 -0.7772  0.2644
  549MOL0     C74002   2.193   5.502   8.279  0.8672  1.0814 -0.9536
  549MOL0     C74003   2.247   5.391   8.193 -0.3216 -0.0436 -0.4442
  549MOL0     O74004   2.390   5.402   8.179 -0.4439  0.9090 -0.4656
  549MOL0     C74005   2.464   5.356   8.280 -0.7084  0.6164 -0.8013
  549MOL0     C74006   2.418   5.295   8.406 -0.6960 -0.6632  1.5224
  549MOL0     C74007   2.503   5.248   8.503 -0.5177  0.1360 -0.2220
  549MOL0     C74008   2.451   5.203   8.640 -0.1268  0.1831 -0.2446
  549MOL0     C74009   2.647   5.263   8.486  0.0790  0.0515  0.0535
  549MOL0     C74010   2.749   5.207   8.579 -0.3302 -0.9440  0.4063
  549MOL0     O74011   2.852   5.293   8.603 -0.4885  0.2733  0.5143
  549MOL0     C74012   2.966   5.252   8.674  0.7059  0.4474 -0.2210
  549MOL0     C74013   3.027   5.332   8.773 -0.3094  0.4066  0.6676
  549MOL0     C74014   3.143   5.288   8.841 -0.3934  0.6764  0.5358
  549MOL0     C74015   3.205   5.166   8.810  0.3584 -0.1525  0.3029
  549MOL0     O74016   3.326   5.123   8.867 -0.5396  0.0571  0.2488
  549MOL0     C74017   3.399   5.006   8.828 -0.5670  0.3255  0.1338
  549MOL0     C74018   3.543   5.019   8.885 -0.6292  0.1977  0.0985
  549MOL0     C74019   3.644   4.908   8.847 -0.4192 -0.1733  0.0132
  549MOL0     C74020   3.775   4.926   8.932  1.1352  0.0371  0.4108
  549MOL0     C74021   3.856   5.041   8.879 -0.6708  0.1534  0.3216
  549MOL0     C74022   3.887   5.042   8.729  0.4673  0.3093  0.7133
  549MOL0     C74023   4.008   5.123   8.690  0.5555 -0.4146 -0.0921
  549MOL0     C74024   4.143   5.043   8.671 -0.2908 -0.1008  0.3090
  549MOL0    Cl74025   4.200   5.011   8.832  0.1474  0.3005 -0.2123
  549MOL0     C74026   3.145   5.093   8.707  0.4314 -0.1186  0.3452
  549MOL0     C74027   3.025   5.126   8.641 -0.6659 -0.0684 -0.3745
  549MOL0     O74028   2.736   5.096   8.628  0.0434  0.1851  0.2373
  549MOL0     C74029   2.693   5.312   8.364  0.9505  0.0359  0.0215
  549MOL0     C74030   2.604   5.364   8.265 -0.6910 -0.1170 -1.3177
  549MOL0     N74031   1.716   5.390   8.164 -0.0589  0.2783  0.7228
  549MOL0     N74032   1.603   5.450   8.153 -1.2094 -0.0909 -0.5961
  549MOL0     C74033   0.342   5.321   8.379  0.0206  0.2918 -0.2427
  549MOL0     C74034   0.205   5.343   8.363  0.4642 -0.8964 -0.1427
  549MOL0     C74035  -0.177   5.373   8.113 -0.0682  0.0972 -0.2957
  549MOL0     C74036  -0.248   5.280   8.030 -0.4273 -0.1629  0.5026
  549MOL0     C74037  -0.385   5.263   8.028 -0.0145 -0.3305 -0.8587
  549MOL0     C74038  -0.460   5.356   8.096 -0.1956  0.1190 -0.4406
  549MOL0     O74039  -0.597   5.356   8.081  0.6825 -0.2443  0.6273
  549MOL0     C74040  -0.688   5.348   8.191  0.3168 -0.1528  0.2392
  549MOL0     C74041  -0.761   5.215   8.179 -0.8709  0.2277 -0.2949
  549MOL0     C74042  -0.677   5.091   8.191  0.1077  0.2164  0.6894
  549MOL0     C74043  -0.623   5.065   8.330 -0.1819  0.1296  0.8500
  549MOL0     C74044  -0.719   5.084   8.440  0.6136  0.9440  0.4684
  549MOL0     C74045  -0.786   5.089   8.538  0.7246 -0.0688 -0.4443
  549MOL0     C74046  -0.405   5.451   8.176  0.3163  0.8982 -0.3525
  549MOL0     C74047  -0.265   5.456   8.186 -0.9419 -0.5484 -0.3496
  549MOL0     H74048   0.210   5.572   8.117 -1.4327 -1.2547 -0.3738
  549MOL0     H74049   0.457   5.553   8.159 -1.3043 -0.9485 -2.2894
  549MOL0     H74050   0.662   5.414   8.168  1.1926 -1.4599  0.9040
  549MOL0     H74051   0.663   5.559   8.274  0.4546  0.7708 -3.3851
  549MOL0     H74052   0.829   5.469   8.398 -1.4619 -0.4653  0.2818
  549MOL0     H74053   0.845   5.308   8.325 -0.8686 -0.9024 -0.3246
  549MOL0     H74054   0.853   5.441   8.090 -3.5505  1.6632  1.1306
  549MOL0     H74055   0.896   5.578   8.185 -3.1158  0.0519  0.1303
  549MOL0     H74056   1.076   5.326   8.175  2.2004  0.6272 -2.4292
  549MOL0     H74057   1.078   5.455   8.067  1.1431  1.4494  0.9372
  549MOL0     H74058   1.105   5.609   8.269  1.5240 -0.3756 -1.6377
  549MOL0     H74059   1.113   5.467   8.371 -2.7208 -0.3047 -0.2218
  549MOL0     H74060   1.330   5.394   8.260 -2.4075 -0.4269  1.8555
  549MOL0     H74061   1.309   5.516   8.132 -0.7679 -0.8254  0.1021
  549MOL0     H74062   1.309   5.687   8.340  0.1900  0.1333 -0.8367
  549MOL0     H74063   1.387   5.548   8.423 -4.4584  1.1942  1.8783
  549MOL0     H74064   1.546   5.737   8.321  3.6864 -0.6068 -1.4279
  549MOL0     H74065   1.482   5.704   8.156  1.1258 -2.2063 -1.5038
  549MOL0     H74066   1.742   5.628   8.383  1.0607  0.9807 -0.7386
  549MOL0     H74067   1.942   5.425   8.402  1.6862  0.0528  0.1505
  549MOL0     H74068   1.952   5.328   8.246 -3.0661  0.7947 -2.9811
  549MOL0     H74069   2.019   5.619   8.310 -2.6308 -2.3187  1.5493
  549MOL0     H74070   2.032   5.553   8.144 -0.7682  0.9416  0.7064
  549MOL0     H74071   2.202   5.478   8.385 -2.5192 -1.3029 -1.0473
  549MOL0     H74072   2.251   5.592   8.253  0.9764  0.6566 -2.2734
  549MOL0     H74073   2.204   5.416   8.096 -3.0480  0.9167  0.8995
  549MOL0     H74074   2.204   5.303   8.241  0.0141 -0.4041 -0.8032
  549MOL0     H74075   2.313   5.281   8.429 -1.2448 -2.4069 -1.5899
  549MOL0     H74076   2.509   5.251   8.720  0.7741 -0.6202 -0.3956
  549MOL0     H74077   2.346   5.223   8.662  0.1082  0.2930  0.8372
  549MOL0     H74078   2.464   5.094   8.636 -0.1338  0.1214  1.0869
  549MOL0     H74079   2.998   5.434   8.798  0.8120  0.2218  2.9150
  549MOL0     H74080   3.199   5.345   8.914  1.7309 -0.8618  0.1943
  549MOL0     H74081   3.349   4.918   8.870 -0.4118 -0.3038 -0.9572
  549MOL0     H74082   3.410   4.994   8.720  1.4202  1.1723  0.2015
  549MOL0     H74083   3.579   5.113   8.841  0.3648  0.2225  0.9274
  549MOL0     H74084   3.541   5.036   8.993  0.6802  2.8326 -0.2093
  549MOL0     H74085   3.644   4.904   8.738 -2.5158 -3.3168  0.0113
  549MOL0     H74086   3.612   4.812   8.889 -1.3686  1.3749  3.0749
  549MOL0     H74087   3.755   4.931   9.040  0.3871  2.1063  0.2288
  549MOL0     H74088   3.813   4.828   8.903 -3.8528 -1.9846 -0.3255
  549MOL0     H74089   3.950   5.032   8.934 -2.2228 -0.1201  3.1192
  549MOL0     H74090   3.824   5.137   8.921 -0.0981  0.6338 -0.3035
  549MOL0     H74091   3.911   4.944   8.687  1.9637  0.7301  0.5533
  549MOL0     H74092   3.804   5.093   8.678  0.8405 -0.3662 -0.6131
  549MOL0     H74093   4.015   5.200   8.767  0.0252 -0.8123  0.3668
  549MOL0     H74094   3.988   5.173   8.595 -5.5155 -0.3058  0.8668
  549MOL0     H74095   4.225   5.097   8.623 -0.1247 -0.5076  0.1366
  549MOL0     H74096   4.121   4.956   8.609 -2.3796  0.0689  0.7221
  549MOL0     H74097   3.193   5.005   8.666  0.1529  0.1845 -0.6478
  549MOL0     H74098   2.998   5.056   8.562 -0.3280 -1.4803  0.7355
  549MOL0     H74099   2.798   5.328   8.340  0.9118  2.1012  0.9983
  549MOL0     H74100   2.641   5.415   8.177  2.3390 -1.4746 -0.9494
  549MOL0     H74101   0.377   5.248   8.452 -0.0463 -2.2662 -2.6103
  549MOL0     H74102   0.131   5.288   8.422  1.1944  0.0727  1.7665
  549MOL0     H74103  -0.188   5.210   7.972  0.1070 -0.3315  1.2489
  549MOL0     H74104  -0.436   5.190   7.965  1.5581  0.0334 -2.6120
  549MOL0     H74105  -0.631   5.357   8.284 -0.8519  1.8276  0.8265
  549MOL0     H74106  -0.765   5.426   8.191 -0.5471 -0.8269 -3.2710
  549MOL0     H74107  -0.811   5.210   8.082 -1.2395  1.7829 -0.2147
  549MOL0     H74108  -0.846   5.213   8.248 -1.8649  1.2084 -1.4258
  549MOL0     H74109  -0.594   5.090   8.120  0.4816 -0.3560  1.1316
  549MOL0     H74110  -0.731   5.001   8.161 -0.8783  1.1280 -0.3651
  549MOL0     H74111  -0.544   5.138   8.348 -0.2431  0.2272  0.7166
  549MOL0     H74112  -0.590   4.961   8.341 -1.8831 -0.1875  4.7932
  549MOL0     H74113  -0.844   5.110   8.625  0.4941 -1.0433 -0.3503
  549MOL0     H74114  -0.464   5.520   8.237 -1.1126 -0.0425 -0.6183
  549MOL0     H74115  -0.223   5.542   8.238 -0.5519 -0.0692 -1.4308
  550MOL0     O74116   4.377   4.562   7.849  0.4612  0.2778 -0.2355
  550MOL0     C74117   4.418   4.676   7.827  0.7538  0.2564 -0.4233
  550MOL0     O74118   4.343   4.782   7.815 -0.0866  0.3227 -0.2681
  550MOL0     C74119   4.212   4.779   7.859 -0.3995  0.5712  1.1054
  550MOL0     C74120   4.113   4.692   7.801 -0.9192  0.1966 -0.5915
  550MOL0     C74121   3.983   4.709   7.836 -0.5712  0.3275 -0.4096
  550MOL0     C74122   3.945   4.809   7.928  0.0610  0.0066  0.3775
  550MOL0     O74123   3.816   4.805   7.960  0.4454  0.3929 -0.3138
  550MOL0     C74124   3.778   4.901   8.066  0.5876 -0.0887 -0.3541
  550MOL0     C74125   3.622   4.926   8.078  0.1895  1.0364 -0.1309
  550MOL0     C74126   3.559   4.807   8.127  0.0201  0.7289  0.1602
  550MOL0     C74127   3.406   4.819   8.152 -0.7630 -0.2814  0.0879
  550MOL0     C74128   3.345   4.682   8.138  0.3562  0.0881  0.6170
  550MOL0     C74129   3.191   4.697   8.121 -0.7549 -0.1290 -0.1855
  550MOL0     C74130   3.134   4.556   8.115  0.4914  0.0712 -0.1571
  550MOL0     C74131   2.991   4.560   8.056 -0.2132  0.0221 -0.3071
  550MOL0     N74132   2.894   4.651   8.121  0.1271 -0.3346 -1.0838
  550MOL0     C74133   2.855   4.772   8.070 -0.3577  0.0841 -0.1503
  550MOL0     C74134   2.728   4.789   8.112 -0.0136  0.2516  0.0882
  550MOL0     C74135   2.629   4.878   8.043 -0.3104  0.0742 -0.0401
  550MOL0     C74136   2.552   4.949   8.158 -0.1196 -0.4190  0.0791
  550MOL0     C74137   2.431   5.031   8.114 -0.1894 -0.0992  0.3038
  550MOL0     C74138   2.327   4.937   8.045 -0.5419  0.0090 -0.2593
  550MOL0     O74139   2.195   5.004   8.040  0.2602 -0.8575  0.1663
  550MOL0     C74140   2.177   5.107   7.951 -0.6681  0.1157  0.2701
  550MOL0     C74141   2.051   5.167   7.942 -0.6948  0.7245 -0.7059
  550MOL0     C74142   2.016   5.273   7.853  0.8984 -0.3726 -0.5881
  550MOL0     C74143   1.871   5.317   7.851 -0.5040 -0.5272 -0.1225
  550MOL0     C74144   2.110   5.330   7.764 -0.0230  0.2937  0.6988
  550MOL0     C74145   2.099   5.448   7.680  0.2289  0.6512 -0.1898
  550MOL0     O74146   2.186   5.453   7.579  0.4143  0.1584  0.8565
  550MOL0     C74147   2.171   5.549   7.481 -1.0639 -0.4379  0.0365
  550MOL0     C74148   2.067   5.557   7.389  0.4212 -0.9860 -0.6570
  550MOL0     C74149   2.065   5.651   7.282 -0.0845 -0.0998  0.4723
  550MOL0     C74150   2.168   5.745   7.291 -0.3068  0.3180  0.8045
  550MOL0     O74151   2.159   5.844   7.198  0.3234 -0.5813 -0.4546
  550MOL0     C74152   2.214   5.821   7.067 -0.9317  0.7896  0.0974
  550MOL0     C74153   2.373   5.804   7.073  0.2967 -0.3351  0.3224
  550MOL0     C74154   2.422   5.658   7.098 -0.7220  0.0744  0.1191
  550MOL0     C74155   2.513   5.625   6.974  0.5937  0.1128  0.1183
  550MOL0     C74156   2.425   5.608   6.843  0.1005  0.5604  0.3998
  550MOL0     C74157   2.509   5.558   6.723  0.3994 -0.2797  0.6075
  550MOL0     C74158   2.595   5.668   6.669 -0.2403  0.7013  0.3891
  550MOL0     C74159   2.664   5.629   6.529  0.2037 -0.3247 -0.4619
  550MOL0    Cl74160   2.553   5.560   6.418  0.3188  0.0529  0.1696
  550MOL0     C74161   2.263   5.749   7.388 -0.1995 -0.3747  0.1188
  550MOL0     C74162   2.270   5.643   7.479  0.3990  0.3343 -0.8256
  550MOL0     O74163   2.010   5.534   7.699  0.6587  0.5125 -0.2752
  550MOL0     C74164   2.244   5.267   7.774  0.3041  0.9726  0.5936
  550MOL0     C74165   2.272   5.157   7.855  0.1443  0.8916 -0.6707
  550MOL0     N74166   2.702   4.699   8.215 -0.4528 -0.0003  0.4730
  550MOL0     N74167   2.803   4.617   8.210 -0.0969 -0.0974 -0.4873
  550MOL0     C74168   4.046   4.887   7.990  0.3363  0.4404  0.5029
  550MOL0     C74169   4.175   4.867   7.956  0.3833  0.3982 -0.0410
  550MOL0     C74170   4.559   4.697   7.789  0.8220 -0.4015  0.5567
  550MOL0     C74171   4.655   4.592   7.803 -0.5091  0.3917 -0.2733
  550MOL0     C74172   4.794   4.604   7.783  0.0827  0.1131 -1.2385
  550MOL0     C74173   4.837   4.731   7.749 -0.5090  0.3779 -0.4435
  550MOL0     O74174   4.969   4.758   7.726 -0.4605 -0.3258  0.3940
  550MOL0     C74175   5.067   4.662   7.728  0.1175  0.7315 -0.1451
  550MOL0     C74176   5.198   4.744   7.743 -0.8295  0.2092 -0.7035
  550MOL0     C74177   5.230   4.836   7.617 -0.3771  0.5648 -0.0195
  550MOL0     C74178   5.380   4.822   7.574  0.4726  0.0828 -0.8041
  550MOL0     C74179   5.412   4.913   7.463 -0.6667  0.2857 -0.3871
  550MOL0     C74180   5.456   4.980   7.374  0.0157  0.3483 -0.0508
  550MOL0     C74181   4.749   4.838   7.726 -0.1050  0.2101  0.3530
  550MOL0     C74182   4.614   4.818   7.739  0.6364 -0.6676 -0.6111
  550MOL0     H74183   4.145   4.623   7.724 -1.0655  0.1854 -0.6438
  550MOL0     H74184   3.908   4.639   7.800 -1.7886  0.5031  1.5762
  550MOL0     H74185   3.808   4.850   8.158 -0.7234 -2.6058 -1.1974
  550MOL0     H74186   3.814   5.003   8.055 -2.0659  0.9061 -0.4974
  550MOL0     H74187   3.600   5.007   8.148 -0.2935 -0.1211  1.0899
  550MOL0     H74188   3.589   4.951   7.977  1.6853  1.9555 -0.4230
  550MOL0     H74189   3.576   4.744   8.039  2.0487  1.9752 -0.4095
  550MOL0     H74190   3.608   4.765   8.215 -0.7080  0.1896  0.3152
  550MOL0     H74191   3.394   4.862   8.252  0.4906 -1.6765  0.8753
  550MOL0     H74192   3.367   4.883   8.073 -0.7032 -1.6259 -1.0673
  550MOL0     H74193   3.383   4.633   8.047  1.1044 -1.6090  1.7796
  550MOL0     H74194   3.361   4.612   8.221  0.5360 -1.6064 -0.7677
  550MOL0     H74195   3.142   4.744   8.207 -0.9598 -2.9780  1.3812
  550MOL0     H74196   3.172   4.755   8.030 -1.5187 -1.1320 -0.6848
  550MOL0     H74197   3.192   4.483   8.058  0.0647 -0.7168  0.4001
  550MOL0     H74198   3.131   4.519   8.218 -3.0713 -2.5871 -1.0187
  550MOL0     H74199   2.948   4.460   8.049 -0.8218  0.2039  0.6720
  550MOL0     H74200   2.993   4.594   7.952  0.8530 -2.3745 -1.1529
  550MOL0     H74201   2.907   4.808   7.982  0.0218 -2.1915 -0.9319
  550MOL0     H74202   2.676   4.947   7.973 -3.8813  2.4859 -0.3412
  550MOL0     H74203   2.561   4.813   7.987  0.6152  0.0217 -1.1197
  550MOL0     H74204   2.625   5.001   8.221 -0.2857  1.7206 -1.3936
  550MOL0     H74205   2.509   4.877   8.228 -0.5966  0.6458  0.9206
  550MOL0     H74206   2.458   5.117   8.051 -1.4866  1.0472  1.2331
  550MOL0     H74207   2.384   5.076   8.202 -2.3018  0.1385 -0.8822
  550MOL0     H74208   2.321   4.840   8.097  4.7678 -1.1988 -1.3178
  550MOL0     H74209   2.357   4.910   7.943  1.2816  0.8138  0.0270
  550MOL0     H74210   1.982   5.134   8.020 -0.2970  3.6231  1.0264
  550MOL0     H74211   1.795   5.240   7.872 -0.9115 -0.7851 -2.3034
  550MOL0     H74212   1.857   5.392   7.930 -0.2651 -2.4189  1.8380
  550MOL0     H74213   1.835   5.345   7.752 -0.6140  0.8403  0.2733
  550MOL0     H74214   1.990   5.482   7.403 -0.7899  0.4655  0.9167
  550MOL0     H74215   1.986   5.637   7.209 -0.6835  2.7847  0.4588
  550MOL0     H74216   2.157   5.746   7.011 -3.1367  1.8267  0.8549
  550MOL0     H74217   2.190   5.909   7.007 -0.5928  0.5931 -0.3331
  550MOL0     H74218   2.418   5.835   6.978 -0.1742 -1.4071 -0.2614
  550MOL0     H74219   2.411   5.866   7.155 -1.2705 -1.7381  2.1933
  550MOL0     H74220   2.336   5.590   7.101  0.0280 -0.9131 -0.1896
  550MOL0     H74221   2.476   5.645   7.192  1.0245  0.3257 -0.8051
  550MOL0     H74222   2.582   5.709   6.962 -2.1511  2.7924  1.7471
  550MOL0     H74223   2.577   5.536   6.978  2.9648  1.5314 -2.4818
  550MOL0     H74224   2.381   5.702   6.809  2.2285  2.4495  2.4513
  550MOL0     H74225   2.347   5.534   6.862  2.1603 -1.7537  0.2865
  550MOL0     H74226   2.559   5.465   6.750 -1.4239 -0.8108  2.4095
  550MOL0     H74227   2.438   5.532   6.644  1.6462  0.6649 -0.8959
  550MOL0     H74228   2.666   5.675   6.753 -0.0384 -1.7967  0.5019
  550MOL0     H74229   2.542   5.763   6.657 -2.7597 -0.6556  0.2021
  550MOL0     H74230   2.747   5.558   6.534  0.7095  0.2120 -1.2053
  550MOL0     H74231   2.709   5.712   6.476  0.8951 -0.5905 -0.2994
  550MOL0     H74232   2.343   5.821   7.371 -0.6250 -0.4483 -2.5897
  550MOL0     H74233   2.353   5.630   7.547 -1.8238  0.3749  2.0759
  550MOL0     H74234   2.326   5.296   7.708  1.3036 -4.4896 -1.0509
  550MOL0     H74235   2.359   5.094   7.836 -0.1481 -0.3793  1.8512
  550MOL0     H74236   4.032   4.961   8.068 -0.0889 -0.3025  1.1438
  550MOL0     H74237   4.266   4.909   7.998  1.8748  0.1593 -2.7721
  550MOL0     H74238   4.627   4.494   7.841  1.7184 -0.3160 -0.2924
  550MOL0     H74239   4.860   4.521   7.805 -1.0907 -0.5908 -0.2330
  550MOL0     H74240   5.058   4.579   7.799  1.6155 -0.4309 -1.2685
  550MOL0     H74241   5.061   4.615   7.630 -0.2742  1.5082 -0.4996
  550MOL0     H74242   5.278   4.671   7.759 -0.0387  1.0388 -0.7710
  550MOL0     H74243   5.189   4.819   7.823 -1.8230  0.8814 -1.4173
  550MOL0     H74244   5.211   4.943   7.632  1.2786  0.6324  2.0631
  550MOL0     H74245   5.178   4.800   7.528  0.0481 -0.3783  0.0982
  550MOL0     H74246   5.397   4.723   7.531 -1.0966 -1.8285  2.5727
  550MOL0     H74247   5.445   4.834   7.662 -0.2429  0.7547 -0.3528
  550MOL0     H74248   5.502   5.040   7.299 -0.1685  1.7440  0.9200
  550MOL0     H74249   4.785   4.936   7.696 -0.5906  0.7940  1.5846
  550MOL0     H74250   4.543   4.896   7.715  1.7218 -0.3771 -3.3615
  551MOL0     O74251   7.269   4.741   1.681 -0.0418 -0.0148 -0.0581
  551MOL0     C74252   7.226   4.630   1.688 -0.6990  0.0310 -0.8740
  551MOL0     O74253   7.310   4.514   1.679 -0.3423 -0.3336  0.4496
  551MOL0     C74254   7.444   4.527   1.661  0.4260 -0.4078  0.3674
  551MOL0     C74255   7.526   4.445   1.741  0.1447  0.2192  0.0809
  551MOL0     C74256   7.671   4.449   1.716  0.1743 -0.2462 -0.5403
  551MOL0     C74257   7.715   4.509   1.597 -0.0064 -0.2186 -0.1209
  551MOL0     O74258   7.849   4.500   1.579 -0.1271 -1.1611 -1.0008
  551MOL0     C74259   7.913   4.616   1.515  0.2155  0.8499  0.2633
  551MOL0     C74260   8.042   4.650   1.586 -0.2823  0.3542 -0.9928
  551MOL0     C74261   8.126   4.531   1.646 -0.0789  0.1324  0.0910
  551MOL0     C74262   8.069   4.461   1.774  0.7727  0.1449 -0.1487
  551MOL0     C74263   8.182   4.372   1.824  1.1449 -0.3783 -0.4231
  551MOL0     C74264   8.136   4.305   1.957 -0.5455 -0.8718  0.8292
  551MOL0     C74265   8.240   4.192   1.991 -0.2262  1.3545  0.0046
  551MOL0     C74266   8.228   4.062   1.908  0.2590  0.0962 -0.0357
  551MOL0     N74267   8.344   3.970   1.916 -0.1502 -0.4104 -0.4428
  551MOL0     C74268   8.333   3.840   1.919  0.1480 -0.2019  0.1437
  551MOL0     C74269   8.456   3.798   1.968 -0.4262  0.5678  0.0965
  551MOL0     C74270   8.513   3.655   1.999  0.2107 -0.2403  1.1262
  551MOL0     C74271   8.517   3.634   2.145  0.1586 -0.4540 -0.2862
  551MOL0     C74272   8.389   3.590   2.212  0.4723 -0.8561  0.0938
  551MOL0     C74273   8.406   3.576   2.368  0.5171 -0.9541 -0.0207
  551MOL0     O74274   8.285   3.548   2.441 -0.1311  0.6448  0.3163
  551MOL0     C74275   8.210   3.436   2.421 -0.3771 -0.0481 -0.4045
  551MOL0     C74276   8.255   3.323   2.355 -0.1595 -0.6594 -0.1589
  551MOL0     C74277   8.180   3.203   2.328  0.4708  0.0066  0.5989
  551MOL0     C74278   8.248   3.083   2.256  0.1176 -1.0817  0.6263
  551MOL0     C74279   8.042   3.213   2.368 -0.4810 -0.4764  0.4468
  551MOL0     C74280   7.942   3.106   2.352 -0.3614  0.5904 -0.5856
  551MOL0     O74281   7.807   3.137   2.352 -0.3150 -0.3113 -0.0851
  551MOL0     C74282   7.722   3.038   2.321  0.3880 -0.1006  1.2822
  551MOL0     C74283   7.662   3.041   2.193 -0.0156  0.7029  0.1621
  551MOL0     C74284   7.573   2.944   2.156 -0.7360 -0.6722  0.2367
  551MOL0     C74285   7.555   2.829   2.231 -0.8866  0.6669 -0.0839
  551MOL0     O74286   7.470   2.729   2.184  0.1765  0.4985 -0.8736
  551MOL0     C74287   7.391   2.748   2.069  0.0096  0.2595  0.2111
  551MOL0     C74288   7.254   2.827   2.100 -0.5002 -0.1941 -0.2705
  551MOL0     C74289   7.199   2.890   1.973 -0.5213 -0.7232 -0.4177
  551MOL0     C74290   7.084   2.980   2.005  0.8077  0.0582  0.8163
  551MOL0     C74291   7.048   3.046   1.867  0.2309 -0.5057 -0.0197
  551MOL0     C74292   6.901   3.092   1.876 -0.1451 -0.5998  0.5341
  551MOL0     C74293   6.843   3.172   1.749 -0.7912 -0.4884  0.0976
  551MOL0     C74294   6.808   3.065   1.642  0.7466  0.0816 -0.4069
  551MOL0    Cl74295   6.674   2.967   1.716 -0.1342  0.1220  0.1213
  551MOL0     C74296   7.610   2.821   2.357 -0.4599  0.2925 -0.4554
  551MOL0     C74297   7.696   2.928   2.400  0.1742  0.5654 -0.9316
  551MOL0     O74298   7.985   2.992   2.339  0.2737  0.2038 -0.1083
  551MOL0     C74299   8.004   3.330   2.435  0.6317  0.1022 -0.0176
  551MOL0     C74300   8.084   3.438   2.462  0.0637 -0.6602  0.8687
  551MOL0     N74301   8.543   3.893   1.973 -0.6910  0.0930 -0.5567
  551MOL0     N74302   8.478   4.003   1.945  0.1154  0.6768 -0.5537
  551MOL0     C74303   7.628   4.597   1.527 -0.0680 -0.8195  0.1232
  551MOL0     C74304   7.490   4.611   1.558 -0.4531  0.6586 -0.2027
  551MOL0     C74305   7.074   4.615   1.697 -0.1768  0.4226 -0.6995
  551MOL0     C74306   7.007   4.489   1.685  0.6594 -0.5823 -0.1345
  551MOL0     C74307   6.869   4.475   1.688  0.4195  0.9042 -0.2454
  551MOL0     C74308   6.780   4.576   1.711 -0.5178  0.2934 -0.1177
  551MOL0     O74309   6.654   4.542   1.739 -0.1196  1.1398  0.3608
  551MOL0     C74310   6.561   4.649   1.744 -0.2379 -0.1272  0.0451
  551MOL0     C74311   6.420   4.590   1.752  0.4731 -0.1098  0.4051
  551MOL0     C74312   6.383   4.506   1.871 -0.0048  0.5805 -0.3726
  551MOL0     C74313   6.237   4.464   1.878 -0.0329 -0.3332 -0.1445
  551MOL0     C74314   6.158   4.559   1.962  0.2315 -1.1438 -0.3434
  551MOL0     C74315   6.083   4.639   2.022  0.3546  0.6053 -0.1452
  551MOL0     C74316   6.847   4.701   1.712  0.5599  1.1241 -0.2566
  551MOL0     C74317   6.990   4.723   1.705 -0.6972  0.2923 -0.3669
  551MOL0     H74318   7.481   4.386   1.820 -2.1721 -1.6323 -2.4131
  551MOL0     H74319   7.743   4.397   1.779 -1.4404  0.3557  1.9658
  551MOL0     H74320   7.933   4.584   1.412  0.7078  1.6414  0.1032
  551MOL0     H74321   7.850   4.705   1.520 -0.8709  0.1282 -0.2081
  551MOL0     H74322   8.096   4.714   1.516 -1.1419 -0.3193 -2.3151
  551MOL0     H74323   8.023   4.715   1.672  1.2526  2.0400 -1.8757
  551MOL0     H74324   8.159   4.465   1.565  0.1546 -0.2360  0.4800
  551MOL0     H74325   8.224   4.570   1.676  1.6514 -0.7289 -3.8038
  551MOL0     H74326   8.046   4.535   1.852  2.5097  1.6381 -0.9758
  551MOL0     H74327   7.981   4.400   1.756  1.5762 -1.2007  0.2899
  551MOL0     H74328   8.201   4.298   1.746  2.5237 -0.1598 -0.3206
  551MOL0     H74329   8.263   4.446   1.830  0.0748  0.6789  3.2977
  551MOL0     H74330   8.145   4.376   2.040  0.0387  1.5644 -1.1946
  551MOL0     H74331   8.031   4.273   1.956 -0.8409  0.0031  1.6667
  551MOL0     H74332   8.334   4.244   1.973  0.1071  1.6564  2.3846
  551MOL0     H74333   8.242   4.155   2.094  2.2605  0.6855 -0.2199
  551MOL0     H74334   8.222   4.085   1.801 -0.6989 -3.1777 -0.8186
  551MOL0     H74335   8.144   4.010   1.955  0.8983 -1.3788 -0.4754
  551MOL0     H74336   8.247   3.776   1.901  0.1113  0.0941 -0.8121
  551MOL0     H74337   8.463   3.574   1.945  0.1645 -0.2877  1.2405
  551MOL0     H74338   8.617   3.647   1.965 -0.1584 -0.7751  0.0941
  551MOL0     H74339   8.553   3.720   2.203  0.2361 -1.8652  1.8735
  551MOL0     H74340   8.588   3.560   2.183 -1.0729  0.4226  4.2582
  551MOL0     H74341   8.366   3.491   2.172 -0.4467 -0.3001 -0.8240
  551MOL0     H74342   8.314   3.664   2.183 -0.5090 -1.5931  0.7204
  551MOL0     H74343   8.452   3.665   2.412 -2.0018 -0.1407  1.1366
  551MOL0     H74344   8.482   3.500   2.391  2.0952  0.6019  0.0844
  551MOL0     H74345   8.363   3.318   2.346  0.1017 -2.9920  2.5390
  551MOL0     H74346   8.353   3.110   2.241 -0.4423  1.4335  0.7598
  551MOL0     H74347   8.246   2.993   2.318  0.3941 -1.0412  0.6939
  551MOL0     H74348   8.205   3.072   2.156  4.4322  0.8975 -1.6929
  551MOL0     H74349   7.687   3.121   2.124 -2.3968  0.5328 -0.9925
  551MOL0     H74350   7.528   2.952   2.058 -0.0996  0.1502  0.0012
  551MOL0     H74351   7.442   2.776   1.976 -1.0460 -1.0712 -0.8150
  551MOL0     H74352   7.366   2.643   2.051  1.0598 -0.2100  1.3510
  551MOL0     H74353   7.183   2.763   2.153 -0.0932 -1.1453 -0.8522
  551MOL0     H74354   7.279   2.906   2.171 -1.5054  0.9169 -1.1127
  551MOL0     H74355   7.180   2.797   1.919 -2.2702 -1.7548  1.8228
  551MOL0     H74356   7.278   2.940   1.917 -0.4175 -3.1626 -2.6534
  551MOL0     H74357   6.998   2.920   2.034  0.0739  1.0475  0.7544
  551MOL0     H74358   7.092   3.051   2.088 -0.1562 -0.4172  1.3324
  551MOL0     H74359   7.058   2.971   1.788 -0.6364 -1.1204  0.4294
  551MOL0     H74360   7.110   3.125   1.824  1.4576 -1.5950 -0.3155
  551MOL0     H74361   6.833   3.009   1.900  0.4824 -1.1860  0.3328
  551MOL0     H74362   6.891   3.166   1.956  1.9637 -0.3973  0.6656
  551MOL0     H74363   6.929   3.222   1.703 -0.0149 -3.5445 -2.0585
  551MOL0     H74364   6.759   3.241   1.764 -2.3289 -1.1836 -3.9549
  551MOL0     H74365   6.887   2.991   1.625 -1.0284 -2.1438  0.3939
  551MOL0     H74366   6.774   3.105   1.546 -1.0053  1.5310  0.7418
  551MOL0     H74367   7.592   2.725   2.405 -0.6919  0.0846 -0.9465
  551MOL0     H74368   7.735   2.929   2.501 -0.6342 -0.1257 -0.6113
  551MOL0     H74369   7.903   3.349   2.467  1.3896  3.8154  0.6185
  551MOL0     H74370   8.036   3.519   2.516 -0.1081 -1.0043  1.2391
  551MOL0     H74371   7.666   4.662   1.449 -0.9046 -1.3427 -0.7423
  551MOL0     H74372   7.422   4.670   1.498 -1.2631 -1.9119 -1.9902
  551MOL0     H74373   7.063   4.397   1.697 -1.2778 -1.7353  0.5018
  551MOL0     H74374   6.838   4.371   1.693  3.3929 -0.0527  0.7125
  551MOL0     H74375   6.563   4.700   1.840 -2.0751 -1.8613  1.0844
  551MOL0     H74376   6.572   4.717   1.660  1.5230 -2.2948 -1.6139
  551MOL0     H74377   6.394   4.536   1.660 -1.1673  3.0892 -1.1603
  551MOL0     H74378   6.360   4.681   1.751  0.1599 -0.3131  0.1849
  551MOL0     H74379   6.410   4.556   1.964  2.3083  0.5244 -0.9345
  551MOL0     H74380   6.436   4.410   1.862  0.5284  1.0161 -2.4812
  551MOL0     H74381   6.223   4.364   1.920 -1.7736  0.3889  1.1078
  551MOL0     H74382   6.202   4.458   1.775 -1.5681 -3.9079  0.4279
  551MOL0     H74383   6.021   4.706   2.077 -0.6209  0.0303 -0.5153
  551MOL0     H74384   6.790   4.791   1.731  0.1244  0.6801  0.6156
  551MOL0     H74385   7.024   4.825   1.719  2.9405 -0.9563  1.1036
  552MOL0     O74386   9.199   3.269   5.268  0.5216  0.4140 -0.2646
  552MOL0     C74387   9.077   3.287   5.275 -0.1940  0.0982  0.2026
  552MOL0     O74388   9.005   3.405   5.275  0.0471 -0.5207  0.6448
  552MOL0     C74389   9.074   3.523   5.244  0.0245  0.7961 -0.0307
  552MOL0     C74390   9.117   3.548   5.113 -0.3849  0.4935 -0.2292
  552MOL0     C74391   9.165   3.680   5.074  0.6419  1.1033  1.2687
  552MOL0     C74392   9.175   3.781   5.169 -0.1803 -1.2196  0.8256
  552MOL0     O74393   9.207   3.903   5.114  0.0497  0.0151 -0.0684
  552MOL0     C74394   9.158   4.015   5.186 -0.0504  0.0270  0.0860
  552MOL0     C74395   9.154   4.136   5.087 -0.2527 -0.1825 -0.0429
  552MOL0     C74396   9.296   4.181   5.050 -0.3817  0.1743  0.5674
  552MOL0     C74397   9.282   4.287   4.935 -0.3299  0.1832  0.5697
  552MOL0     C74398   9.254   4.238   4.795 -0.0842  0.3453  0.3541
  552MOL0     C74399   9.237   4.351   4.695  0.4805  0.0053  0.5011
  552MOL0     C74400   9.211   4.291   4.557 -1.0242  0.3046  0.3118
  552MOL0     C74401   9.339   4.225   4.505  0.1028 -0.2884  0.5465
  552MOL0     N74402   9.340   4.208   4.357  0.1533 -0.7977  0.7496
  552MOL0     C74403   9.358   4.317   4.268 -0.1286  0.2305 -1.2698
  552MOL0     C74404   9.309   4.281   4.143 -0.1775  0.2151 -0.6278
  552MOL0     C74405   9.287   4.344   4.003  0.5179  0.1793 -1.1429
  552MOL0     C74406   9.409   4.447   3.990 -1.2042 -0.5954 -0.9014
  552MOL0     C74407   9.376   4.587   4.026 -0.2901 -0.5992  0.6294
  552MOL0     C74408   9.469   4.693   3.962  0.2641  0.2273 -0.1139
  552MOL0     O74409   9.428   4.708   3.821  1.1191 -0.0656 -0.5329
  552MOL0     C74410   9.518   4.777   3.741 -0.3492 -0.9290 -1.2330
  552MOL0     C74411   9.536   4.914   3.757  0.8049 -0.2047  0.6674
  552MOL0     C74412   9.607   4.995   3.662 -0.3094 -0.5648 -0.7850
  552MOL0     C74413   9.614   5.138   3.702  0.1230 -0.9237  0.3221
  552MOL0     C74414   9.663   4.935   3.546 -0.1271 -0.1032 -0.8239
  552MOL0     C74415   9.740   4.998   3.444  1.0225  0.3154  0.6145
  552MOL0     O74416   9.800   4.922   3.344  0.2842  0.3590 -0.0979
  552MOL0     C74417   9.857   4.977   3.242 -0.7057 -0.8868  0.5844
  552MOL0     C74418   9.832   5.105   3.177 -0.6420  0.2626 -0.2489
  552MOL0     C74419   9.899   5.140   3.063 -0.4744  0.3112 -0.7071
  552MOL0     C74420   9.992   5.049   3.006  0.0705 -0.8785 -0.1443
  552MOL0     O74421  10.056   5.077   2.884  1.0308  0.2626 -0.4401
  552MOL0     C74422  10.041   5.204   2.821  0.0445 -0.0648 -0.7289
  552MOL0     C74423  10.152   5.209   2.720 -0.2033  0.0132 -0.1040
  552MOL0     C74424  10.130   5.314   2.619  0.0437  0.1540 -0.0268
  552MOL0     C74425  10.193   5.298   2.478 -0.0211  0.2183  0.9055
  552MOL0     C74426  10.196   5.432   2.410  0.3194  1.0650  0.3301
  552MOL0     C74427  10.298   5.533   2.472  0.1500  0.9544  0.3971
  552MOL0     C74428  10.291   5.654   2.391  0.2700  0.4663  0.2019
  552MOL0     C74429  10.342   5.646   2.245  0.5835  1.3147 -0.5540
  552MOL0    Cl74430  10.353   5.807   2.184  0.2123  0.4467  0.1538
  552MOL0     C74431  10.023   4.926   3.067  0.1072  0.4608  1.2656
  552MOL0     C74432   9.949   4.893   3.179  0.4887 -0.4544 -0.6132
  552MOL0     O74433   9.754   5.119   3.457  1.0487 -0.1805 -0.8239
  552MOL0     C74434   9.646   4.793   3.539  0.4936 -0.6546  0.0018
  552MOL0     C74435   9.573   4.719   3.631  0.0041  0.0440  0.2845
  552MOL0     N74436   9.280   4.146   4.162 -0.0359 -0.0824  0.2364
  552MOL0     N74437   9.279   4.114   4.284  0.0392 -0.1906 -0.3790
  552MOL0     C74438   9.123   3.753   5.295  0.1469  0.9457 -1.3946
  552MOL0     C74439   9.073   3.625   5.338 -0.3044  0.1184  0.4627
  552MOL0     C74440   8.991   3.169   5.305 -0.4903  1.0762  0.3997
  552MOL0     C74441   8.858   3.169   5.338 -1.2577  0.9108  0.0943
  552MOL0     C74442   8.798   3.043   5.370  0.3714  0.0086 -0.4483
  552MOL0     C74443   8.865   2.915   5.374  1.0489 -0.3824  0.4637
  552MOL0     O74444   8.823   2.796   5.418  0.0246 -0.3830 -0.1455
  552MOL0     C74445   8.677   2.780   5.407 -0.6142 -0.1546 -0.5453
  552MOL0     C74446   8.631   2.653   5.457  0.3735 -0.1927 -0.0385
  552MOL0     C74447   8.477   2.629   5.451 -0.9436 -0.0802 -0.0435
  552MOL0     C74448   8.437   2.503   5.527 -0.2723 -0.0679 -0.6164
  552MOL0     C74449   8.450   2.501   5.671  0.2807 -0.3275  0.6625
  552MOL0     C74450   8.481   2.504   5.785 -0.6201  0.9862 -0.6251
  552MOL0     C74451   8.997   2.914   5.334  0.4385 -0.1564  0.5513
  552MOL0     C74452   9.058   3.041   5.301  0.2295  0.4726 -0.0063
  552MOL0     H74453   9.093   3.484   5.029 -2.6714 -1.9315  2.0869
  552MOL0     H74454   9.196   3.690   4.970 -1.8826  1.9985  0.5476
  552MOL0     H74455   9.064   4.007   5.240  1.2735 -0.9130  2.3733
  552MOL0     H74456   9.223   4.031   5.272 -1.1833 -0.1104  0.9801
  552MOL0     H74457   9.094   4.115   4.998  2.0517 -0.5104 -1.6077
  552MOL0     H74458   9.108   4.223   5.133 -1.6013 -1.5143  1.2580
  552MOL0     H74459   9.350   4.236   5.127  1.1247  0.2210 -0.4986
  552MOL0     H74460   9.353   4.096   5.012 -0.5052  0.1253  0.4911
  552MOL0     H74461   9.213   4.365   4.968  1.1893  2.7986 -1.9676
  552MOL0     H74462   9.380   4.334   4.924  0.9227 -1.7198  2.5416
  552MOL0     H74463   9.342   4.178   4.770 -0.7351  0.1229 -1.5946
  552MOL0     H74464   9.167   4.173   4.801  0.6813 -0.5598  3.9617
  552MOL0     H74465   9.157   4.424   4.717  0.4084 -0.0905  0.5641
  552MOL0     H74466   9.333   4.403   4.699  4.0266 -5.8172  1.0175
  552MOL0     H74467   9.120   4.230   4.551 -2.2708  1.8233  2.3987
  552MOL0     H74468   9.196   4.378   4.493 -0.9540 -1.8201 -2.8306
  552MOL0     H74469   9.359   4.124   4.541  0.3877 -0.5401 -0.3090
  552MOL0     H74470   9.426   4.281   4.541  1.1080 -0.1141 -1.9582
  552MOL0     H74471   9.424   4.399   4.296 -0.6599  0.9183 -1.9579
  552MOL0     H74472   9.294   4.267   3.926  0.0722  1.3160 -2.3566
  552MOL0     H74473   9.187   4.389   4.000 -0.6218 -1.8449  1.8190
  552MOL0     H74474   9.435   4.443   3.884  0.7921 -4.5253 -0.4852
  552MOL0     H74475   9.496   4.424   4.052  0.4837  2.3571 -2.0148
  552MOL0     H74476   9.388   4.602   4.134  2.8377 -0.9799  0.4219
  552MOL0     H74477   9.273   4.616   4.002  0.7895  3.9508  0.7337
  552MOL0     H74478   9.574   4.665   3.967  0.6477  1.8472  2.5670
  552MOL0     H74479   9.445   4.790   4.008 -2.9009 -0.9498  1.0407
  552MOL0     H74480   9.484   4.967   3.837 -3.4232 -2.4668 -0.3155
  552MOL0     H74481   9.533   5.179   3.762  0.1482  0.5070 -0.5758
  552MOL0     H74482   9.716   5.155   3.739 -0.2544  1.9040  0.2465
  552MOL0     H74483   9.587   5.189   3.609 -2.7191  0.3164  1.7139
  552MOL0     H74484   9.756   5.177   3.204  1.3855  1.7391  1.9720
  552MOL0     H74485   9.882   5.238   3.019 -0.9459  0.9730  0.8823
  552MOL0     H74486   9.946   5.212   2.768  0.2402  0.1213 -1.0570
  552MOL0     H74487  10.059   5.292   2.883 -1.1116  0.9938 -1.8338
  552MOL0     H74488  10.247   5.227   2.773 -0.1211  2.5805 -0.9632
  552MOL0     H74489  10.140   5.117   2.663  0.7507  0.8328 -1.6947
  552MOL0     H74490  10.163   5.408   2.663 -1.1035  0.1329  0.9274
  552MOL0     H74491  10.023   5.326   2.597  0.3183  3.4665 -0.0256
  552MOL0     H74492  10.301   5.281   2.492  0.5241 -0.0582 -2.7080
  552MOL0     H74493  10.132   5.227   2.421  0.1108 -0.1590  1.2257
  552MOL0     H74494  10.095   5.473   2.402  0.0331  0.2905 -0.1700
  552MOL0     H74495  10.222   5.418   2.305 -2.0378  4.3346 -0.8537
  552MOL0     H74496  10.267   5.554   2.575 -0.7334  0.4717  0.2359
  552MOL0     H74497  10.404   5.507   2.468  0.2219  1.3033  0.0111
  552MOL0     H74498  10.350   5.734   2.437  0.0828  1.4757 -1.2298
  552MOL0     H74499  10.186   5.682   2.403 -0.4526 -2.4820  1.6892
  552MOL0     H74500  10.269   5.603   2.176  0.7855  1.1213 -0.6480
  552MOL0     H74501  10.436   5.590   2.244 -1.0843 -1.7213 -0.2148
  552MOL0     H74502  10.106   4.872   3.023  0.1614  0.5457  1.2638
  552MOL0     H74503   9.965   4.800   3.233  4.9822  0.4053 -0.0408
  552MOL0     H74504   9.680   4.737   3.453  0.6880  3.5849 -3.0113
  552MOL0     H74505   9.547   4.619   3.599 -0.8736 -0.0840  1.3422
  552MOL0     H74506   9.115   3.832   5.369 -3.8851 -2.0916  1.9532
  552MOL0     H74507   9.035   3.608   5.438  0.4347  0.8308  0.8811
  552MOL0     H74508   8.814   3.264   5.364 -3.6309 -0.2395  0.6085
  552MOL0     H74509   8.696   3.051   5.408  0.1912 -0.8108 -0.7316
  552MOL0     H74510   8.626   2.862   5.459  2.2084  0.8564  0.8426
  552MOL0     H74511   8.652   2.793   5.301 -1.4875  1.5362 -0.1700
  552MOL0     H74512   8.664   2.642   5.560  1.7369  1.0811 -0.3033
  552MOL0     H74513   8.681   2.581   5.392  1.1354 -0.0468  0.3782
  552MOL0     H74514   8.444   2.616   5.348  0.3289 -0.4104 -0.4224
  552MOL0     H74515   8.424   2.707   5.506 -2.4075 -0.2763 -1.1262
  552MOL0     H74516   8.490   2.414   5.489 -1.5700  0.1306 -3.1250
  552MOL0     H74517   8.332   2.482   5.504  0.0885 -2.6748 -0.1895
  552MOL0     H74518   8.506   2.492   5.889 -1.9863 -0.3566 -0.4105
  552MOL0     H74519   9.061   2.827   5.323 -0.8845 -1.1281  0.2810
  552MOL0     H74520   9.163   3.039   5.271  0.2612 -1.8109  0.0240
  553MOL0     O74521   3.679   2.424   6.559 -0.2013  0.0936 -0.1607
  553MOL0     C74522   3.769   2.420   6.478  0.5325 -0.2268 -1.2522
  553MOL0     O74523   3.771   2.452   6.344 -0.1875 -0.2353 -0.4530
  553MOL0     C74524   3.652   2.470   6.279  0.7994 -0.0670 -0.4314
  553MOL0     C74525   3.526   2.514   6.329 -0.7066 -0.0453 -0.4302
  553MOL0     C74526   3.417   2.520   6.252 -0.1492  0.1912  0.3069
  553MOL0     C74527   3.426   2.499   6.112 -0.1665 -0.0830 -0.0571
  553MOL0     O74528   3.301   2.502   6.054  0.0941  0.6008  0.4561
  553MOL0     C74529   3.292   2.478   5.914  0.1378  0.6390 -0.4891
  553MOL0     C74530   3.147   2.445   5.873 -0.7318 -0.5083  0.8186
  553MOL0     C74531   3.045   2.552   5.885 -0.6296 -0.6032  0.0048
  553MOL0     C74532   2.969   2.554   6.022 -0.5225  0.4362 -0.1861
  553MOL0     C74533   2.851   2.655   6.011  0.0754 -0.1344 -0.2138
  553MOL0     C74534   2.880   2.803   6.011  0.3737  0.5221  0.2088
  553MOL0     C74535   2.750   2.888   6.016 -0.3192 -0.0109  0.2224
  553MOL0     C74536   2.787   3.041   6.017  0.3809 -0.1615  0.0841
  553MOL0     N74537   2.796   3.103   5.883  0.3610 -0.4056  0.9929
  553MOL0     C74538   2.910   3.129   5.811  0.7387  0.6445 -0.2967
  553MOL0     C74539   2.871   3.218   5.718 -0.6504  0.9467 -0.3454
  553MOL0     C74540   2.957   3.264   5.608 -0.8726 -0.2538 -0.1517
  553MOL0     C74541   2.941   3.174   5.487  0.7072  0.9360 -0.8912
  553MOL0     C74542   3.025   3.221   5.363 -0.7384  0.4452 -0.3483
  553MOL0     C74543   3.172   3.203   5.378  1.0172 -0.3835 -0.3249
  553MOL0     O74544   3.246   3.280   5.477 -0.7752  0.0256  0.1866
  553MOL0     C74545   3.381   3.239   5.481 -0.5740 -0.7667 -0.6929
  553MOL0     C74546   3.446   3.142   5.396 -0.4006 -0.0264 -0.2048
  553MOL0     C74547   3.581   3.121   5.395  0.0104 -0.2405 -0.4171
  553MOL0     C74548   3.639   3.012   5.301 -0.1554 -0.1215  0.2951
  553MOL0     C74549   3.663   3.207   5.488 -0.1162 -0.7600  0.6413
  553MOL0     C74550   3.811   3.196   5.489 -0.4788  0.7442  0.3188
  553MOL0     O74551   3.881   3.250   5.595  0.4553  0.1155  0.2070
  553MOL0     C74552   4.018   3.250   5.617 -0.2339  0.0687  0.3482
  553MOL0     C74553   4.082   3.228   5.739  0.7155 -1.1101 -0.3441
  553MOL0     C74554   4.222   3.230   5.757 -0.3026 -0.2532  0.1376
  553MOL0     C74555   4.314   3.270   5.652  0.8225 -0.1429 -0.9869
  553MOL0     O74556   4.447   3.276   5.680 -0.3579  0.5703  0.3877
  553MOL0     C74557   4.539   3.256   5.576  0.1738  0.5705  0.6965
  553MOL0     C74558   4.672   3.219   5.631 -0.5766 -0.4307  0.4190
  553MOL0     C74559   4.659   3.096   5.727 -0.4937  0.4084 -0.5722
  553MOL0     C74560   4.791   3.030   5.759 -0.5465 -0.0526 -0.5358
  553MOL0     C74561   4.786   2.892   5.820 -0.0849  0.2453 -0.1168
  553MOL0     C74562   4.749   2.902   5.967 -0.9007 -0.5965  0.8157
  553MOL0     C74563   4.706   2.771   6.033  0.5976  0.3675  0.0947
  553MOL0     C74564   4.820   2.672   6.039 -0.1537  0.5121 -0.0436
  553MOL0    Cl74565   4.788   2.542   6.142  0.2836 -0.3506  0.0087
  553MOL0     C74566   4.246   3.298   5.531  0.3396 -0.3338 -0.3236
  553MOL0     C74567   4.103   3.298   5.513 -0.0510  0.0476  0.5438
  553MOL0     O74568   3.870   3.152   5.392  0.7015  0.4691  0.3324
  553MOL0     C74569   3.603   3.305   5.566  0.3918  0.3587 -0.1628
  553MOL0     C74570   3.461   3.312   5.563  0.4849 -0.9324 -0.5110
  553MOL0     N74571   2.740   3.245   5.738  0.4760  0.2815  0.1551
  553MOL0     N74572   2.690   3.175   5.830 -0.4639  0.6104 -0.6742
  553MOL0     C74573   3.545   2.473   6.055  0.4051  0.7040  0.3618
  553MOL0     C74574   3.659   2.455   6.140  1.0488  0.2242 -0.2278
  553MOL0     C74575   3.904   2.404   6.551  0.1056  0.0375  0.4760
  553MOL0     C74576   4.025   2.377   6.479  0.1353 -0.1263 -0.5986
  553MOL0     C74577   4.148   2.332   6.538  0.4858  0.7108  0.3745
  553MOL0     C74578   4.151   2.334   6.678 -0.4899 -0.0229 -0.7753
  553MOL0     O74579   4.269   2.314   6.755 -0.7148  0.3363  0.2754
  553MOL0     C74580   4.387   2.346   6.692 -0.2341  0.6067  0.3181
  553MOL0     C74581   4.488   2.379   6.796  1.1105 -1.1860  0.1432
  553MOL0     C74582   4.464   2.533   6.851 -0.5419 -0.4476  0.3521
  553MOL0     C74583   4.342   2.545   6.943 -0.1739 -0.4439 -0.6982
  553MOL0     C74584   4.361   2.662   7.027 -0.5249 -0.8291  0.1586
  553MOL0     C74585   4.372   2.760   7.097 -0.5871  0.5300 -0.3489
  553MOL0     C74586   4.034   2.358   6.750  0.3632 -0.5332 -0.1912
  553MOL0     C74587   3.910   2.395   6.695 -0.1999 -0.1678 -0.0335
  553MOL0     H74588   3.510   2.535   6.434  1.5164  0.8436 -0.2194
  553MOL0     H74589   3.319   2.545   6.292 -0.0553  2.4130 -0.7278
  553MOL0     H74590   3.305   2.576   5.867 -3.3058  0.0478 -3.0541
  553MOL0     H74591   3.354   2.398   5.873 -1.1540 -0.1744 -0.9052
  553MOL0     H74592   3.152   2.410   5.770  1.1898  0.5070  0.5239
  553MOL0     H74593   3.101   2.365   5.933  1.3060 -3.8518 -1.6868
  553MOL0     H74594   3.097   2.642   5.850 -1.4086 -1.8398 -5.2217
  553MOL0     H74595   2.976   2.539   5.801  2.4369 -1.6694 -2.5789
  553MOL0     H74596   2.927   2.455   6.045 -0.5923  0.4847 -0.1030
  553MOL0     H74597   3.040   2.587   6.099  0.1598  1.0292 -1.0489
  553MOL0     H74598   2.794   2.638   5.920 -1.1396  1.2230  0.2619
  553MOL0     H74599   2.781   2.637   6.092 -3.0081 -0.8581 -2.8482
  553MOL0     H74600   2.932   2.824   6.105 -2.4234 -0.1957  2.0531
  553MOL0     H74601   2.933   2.831   5.919 -0.0368  1.1287  0.1525
  553MOL0     H74602   2.709   2.862   5.918  0.6743 -0.4546 -0.0852
  553MOL0     H74603   2.685   2.864   6.100 -0.6921  0.7446  0.1597
  553MOL0     H74604   2.881   3.058   6.069 -0.3932  2.6166  0.7604
  553MOL0     H74605   2.705   3.080   6.078 -0.1058 -2.3874  0.9326
  553MOL0     H74606   3.008   3.082   5.821 -0.2055 -1.4788 -0.5177
  553MOL0     H74607   2.940   3.368   5.580 -1.5364 -1.0051 -2.9748
  553MOL0     H74608   3.059   3.256   5.645  0.2144 -0.3219 -2.8755
  553MOL0     H74609   2.835   3.178   5.460  1.1445  0.2076 -2.9069
  553MOL0     H74610   2.958   3.078   5.536  2.3020  2.6402  2.2104
  553MOL0     H74611   3.006   3.323   5.329  1.8455  1.2870  0.4607
  553MOL0     H74612   2.997   3.156   5.280  0.4127 -0.5543  0.0124
  553MOL0     H74613   3.214   3.218   5.278  1.5840  1.7890  0.1836
  553MOL0     H74614   3.195   3.099   5.405  1.9107 -0.2219 -0.4284
  553MOL0     H74615   3.397   3.074   5.327 -1.2841 -0.6566  1.0128
  553MOL0     H74616   3.706   3.065   5.233 -0.8110  1.4490  0.8074
  553MOL0     H74617   3.690   2.937   5.363  0.3071  0.8809  1.1682
  553MOL0     H74618   3.561   2.957   5.249 -0.9229 -1.4303  2.6663
  553MOL0     H74619   4.021   3.213   5.827  1.2287 -1.4753 -0.0508
  553MOL0     H74620   4.268   3.200   5.851  0.2941  0.6366  0.1403
  553MOL0     H74621   4.508   3.180   5.502  1.1150  1.3792 -0.5770
  553MOL0     H74622   4.541   3.353   5.525  1.0386  1.0932  1.6886
  553MOL0     H74623   4.729   3.187   5.543  0.8644 -0.8050  1.4422
  553MOL0     H74624   4.718   3.310   5.669  0.6388 -1.3755  1.3065
  553MOL0     H74625   4.607   3.016   5.675 -0.8395  0.5326 -0.4230
  553MOL0     H74626   4.600   3.122   5.815 -2.2474 -0.4855 -1.4537
  553MOL0     H74627   4.847   3.015   5.666  1.0233 -1.1648  0.5224
  553MOL0     H74628   4.863   3.095   5.810  0.1762 -1.4683  0.3268
  553MOL0     H74629   4.873   2.831   5.795  1.3366  2.7003 -1.5796
  553MOL0     H74630   4.705   2.832   5.776  0.2769 -2.0596  2.1251
  553MOL0     H74631   4.839   2.950   6.008 -0.5944  0.5072 -1.0112
  553MOL0     H74632   4.666   2.972   5.969  1.2081  2.2965 -2.0476
  553MOL0     H74633   4.621   2.729   5.979  1.4652  0.1407 -1.1290
  553MOL0     H74634   4.677   2.791   6.137  1.4583  0.0090  0.4105
  553MOL0     H74635   4.909   2.726   6.071 -1.1564  0.9199  2.2691
  553MOL0     H74636   4.848   2.636   5.940 -4.4919 -0.4598 -1.1688
  553MOL0     H74637   4.311   3.337   5.453  0.8947  1.2022  0.8561
  553MOL0     H74638   4.063   3.333   5.419 -2.2053 -2.3606  0.4626
  553MOL0     H74639   3.651   3.366   5.642 -0.0598 -1.1827  1.4384
  553MOL0     H74640   3.417   3.392   5.621  0.4435  0.0897 -1.8797
  553MOL0     H74641   3.554   2.470   5.947  0.9841 -0.1705  0.4241
  553MOL0     H74642   3.751   2.424   6.093  1.3395  0.0051  0.4789
  553MOL0     H74643   4.015   2.383   6.371  1.1911  1.6819 -0.6337
  553MOL0     H74644   4.224   2.317   6.461 -0.9777  3.3879 -1.7477
  553MOL0     H74645   4.426   2.268   6.626  0.6129 -0.4105  1.9488
  553MOL0     H74646   4.369   2.437   6.634  0.3432  1.4273  1.3805
  553MOL0     H74647   4.589   2.374   6.755  1.4484  1.9940  0.3266
  553MOL0     H74648   4.479   2.303   6.875 -0.9381 -1.1154  0.0330
  553MOL0     H74649   4.447   2.591   6.760 -2.2039 -1.8586 -0.2894
  553MOL0     H74650   4.561   2.566   6.891 -0.1722 -0.1741 -0.7196
  553MOL0     H74651   4.332   2.457   7.008  2.5810 -1.1274 -1.0728
  553MOL0     H74652   4.245   2.547   6.893 -0.6834 -0.7530  0.2507
  553MOL0     H74653   4.375   2.840   7.169  1.9330  0.3544 -0.1528
  553MOL0     H74654   4.036   2.369   6.858  2.7470 -0.1267 -0.2040
  553MOL0     H74655   3.825   2.402   6.763 -0.2776  0.3402 -0.1779
  554MOL0     O74656   5.036   7.295   2.191 -0.1998  0.7403  0.0346
  554MOL0     C74657   5.117   7.238   2.260 -0.0833  1.1487 -0.4241
  554MOL0     O74658   5.107   7.197   2.388  0.0343  0.1424  0.2048
  554MOL0     C74659   4.977   7.194   2.447 -1.0975 -0.0440 -0.2915
  554MOL0     C74660   4.921   7.075   2.481 -0.3256  0.3936 -0.4358
  554MOL0     C74661   4.800   7.063   2.555  0.0732  0.1231  0.3187
  554MOL0     C74662   4.721   7.183   2.582  0.0825 -0.1720  0.1193
  554MOL0     O74663   4.598   7.181   2.652  0.2609 -0.1984 -0.3135
  554MOL0     C74664   4.512   7.295   2.666 -0.4369 -1.0268  0.1153
  554MOL0     C74665   4.552   7.366   2.800  0.1877 -0.4363 -0.1070
  554MOL0     C74666   4.448   7.476   2.823 -0.5911 -0.2019 -0.1508
  554MOL0     C74667   4.486   7.612   2.754 -0.4220 -1.5572  0.4785
  554MOL0     C74668   4.530   7.723   2.853 -0.1506  0.4303  0.6078
  554MOL0     C74669   4.542   7.858   2.793  0.1403  0.1811  0.5529
  554MOL0     C74670   4.570   7.964   2.900  0.4017  0.2779 -0.1478
  554MOL0     C74671   4.704   7.967   2.959  0.4927  0.2334 -0.9493
  554MOL0     N74672   4.737   8.083   3.050 -0.8113  0.7079  0.0610
  554MOL0     C74673   4.683   8.123   3.171  0.5006  0.3153  0.1506
  554MOL0     C74674   4.747   8.236   3.203  0.5464  0.4670  0.4417
  554MOL0     C74675   4.740   8.317   3.323  0.2228 -0.1462  0.0799
  554MOL0     C74676   4.614   8.409   3.329 -0.0079 -0.9932  0.1985
  554MOL0     C74677   4.492   8.330   3.384 -0.4893 -1.3473 -0.7184
  554MOL0     C74678   4.366   8.416   3.382 -0.7151 -0.0493  0.1848
  554MOL0     O74679   4.348   8.491   3.261 -0.7357  0.3770  0.5668
  554MOL0     C74680   4.221   8.537   3.235 -0.1129 -0.7488  0.8723
  554MOL0     C74681   4.207   8.580   3.107 -0.1757 -0.3047 -0.4698
  554MOL0     C74682   4.085   8.631   3.057 -0.1432  0.1606  0.6084
  554MOL0     C74683   4.076   8.653   2.906  0.5245 -0.5469  0.6918
  554MOL0     C74684   3.979   8.636   3.150 -0.0119  0.1674  0.6525
  554MOL0     C74685   3.852   8.703   3.111 -0.4888  0.8257  0.4251
  554MOL0     O74686   3.735   8.643   3.164  0.0900  0.1027  0.6680
  554MOL0     C74687   3.616   8.693   3.149 -0.0779  0.4302  0.8676
  554MOL0     C74688   3.539   8.648   3.044  0.1661  0.4309  0.2183
  554MOL0     C74689   3.411   8.685   3.019  0.8797  0.2103  0.0801
  554MOL0     C74690   3.358   8.781   3.102  0.2133 -0.4803 -1.1308
  554MOL0     O74691   3.224   8.828   3.115 -0.1115  0.0430  0.0606
  554MOL0     C74692   3.128   8.748   3.041  0.4343 -0.1607  0.0277
  554MOL0     C74693   2.995   8.818   3.047 -0.4139 -0.1266 -0.1645
  554MOL0     C74694   2.941   8.843   3.189 -0.2534  0.9974  0.0366
  554MOL0     C74695   2.820   8.932   3.173 -0.1252 -0.3903 -0.3455
  554MOL0     C74696   2.743   8.932   3.313 -0.5896  0.5571  0.9142
  554MOL0     C74697   2.775   9.069   3.385 -0.2137  0.5389  0.1995
  554MOL0     C74698   2.665   9.093   3.489  0.2412  0.4694  0.5335
  554MOL0     C74699   2.688   9.231   3.568 -0.0152  0.0694 -0.8591
  554MOL0    Cl74700   2.858   9.253   3.615  0.3234  0.2076  0.3418
  554MOL0     C74701   3.440   8.834   3.200 -0.0766  0.2926 -0.4583
  554MOL0     C74702   3.565   8.792   3.225  0.4446 -0.0553 -0.8155
  554MOL0     O74703   3.851   8.807   3.043 -0.2354 -0.0371 -0.0046
  554MOL0     C74704   3.995   8.595   3.285 -0.2410  0.6743 -0.0348
  554MOL0     C74705   4.119   8.552   3.325 -0.3283 -0.0334 -0.5418
  554MOL0     N74706   4.832   8.267   3.103 -0.4870 -1.0394  0.0531
  554MOL0     N74707   4.839   8.169   3.017 -0.6892  0.4316 -0.2989
  554MOL0     C74708   4.778   7.307   2.543  0.5815  0.1852  0.2175
  554MOL0     C74709   4.899   7.306   2.484 -0.2531 -0.5304 -0.4359
  554MOL0     C74710   5.249   7.212   2.200 -0.1433 -0.4302 -0.4708
  554MOL0     C74711   5.271   7.240   2.063  0.2541 -0.1489 -0.0767
  554MOL0     C74712   5.403   7.218   2.000  0.3311 -0.2547  1.0647
  554MOL0     C74713   5.508   7.190   2.082  0.1108 -0.4334 -0.3165
  554MOL0     O74714   5.630   7.178   2.023 -0.3421 -0.0666  0.1516
  554MOL0     C74715   5.751   7.113   2.075  0.1201  0.6409  0.6511
  554MOL0     C74716   5.744   6.961   2.050 -0.7201  0.4108  0.2359
  554MOL0     C74717   5.735   6.925   1.907  0.0924 -0.1867  0.1798
  554MOL0     C74718   5.816   6.796   1.874 -0.0216  0.5493  0.0917
  554MOL0     C74719   5.949   6.839   1.834  0.1887  0.0548 -0.5726
  554MOL0     C74720   6.064   6.863   1.801  0.2391  0.1769 -0.1364
  554MOL0     C74721   5.485   7.174   2.219  0.8888 -0.0387  0.1064
  554MOL0     C74722   5.359   7.159   2.281 -0.1776 -0.4627 -0.1199
  554MOL0     H74723   4.976   6.982   2.468 -1.6576 -0.7248  1.4069
  554MOL0     H74724   4.758   6.970   2.590 -1.3544  1.2949  1.8699
  554MOL0     H74725   4.514   7.360   2.578 -1.9566 -1.4710 -0.2925
  554MOL0     H74726   4.406   7.266   2.662 -0.6724 -0.0579 -1.0771
  554MOL0     H74727   4.555   7.304   2.890  0.3146 -0.4643 -0.1314
  554MOL0     H74728   4.649   7.411   2.782 -1.1560  2.6546 -0.2115
  554MOL0     H74729   4.346   7.443   2.800 -0.5165  0.1294 -0.9901
  554MOL0     H74730   4.449   7.488   2.932  1.7165 -2.4101  0.1777
  554MOL0     H74731   4.558   7.611   2.672  0.9487  1.0539  1.5563
  554MOL0     H74732   4.398   7.656   2.707  2.4018  0.2488 -3.6983
  554MOL0     H74733   4.455   7.727   2.932 -0.3419  1.5474  0.3826
  554MOL0     H74734   4.631   7.691   2.882  0.5986  0.4741 -1.7337
  554MOL0     H74735   4.624   7.868   2.721  1.0756 -1.2451  1.3507
  554MOL0     H74736   4.451   7.882   2.739  0.4288 -1.2228 -0.5956
  554MOL0     H74737   4.537   8.059   2.856 -1.2778  1.0782  2.5349
  554MOL0     H74738   4.495   7.967   2.981 -3.0225 -0.3447 -3.0427
  554MOL0     H74739   4.763   7.958   2.867 -3.0207  2.0376 -3.5953
  554MOL0     H74740   4.719   7.877   3.021 -0.2319 -0.1147 -1.2746
  554MOL0     H74741   4.606   8.089   3.240 -2.7570  2.0249 -2.3832
  554MOL0     H74742   4.758   8.259   3.413  1.5995  1.5742  0.9785
  554MOL0     H74743   4.830   8.379   3.326  0.1945  0.0652 -1.9459
  554MOL0     H74744   4.606   8.440   3.225  3.6389 -2.0532 -0.5535
  554MOL0     H74745   4.610   8.498   3.393 -2.9665  1.7024 -3.2787
  554MOL0     H74746   4.517   8.295   3.485 -0.6889  0.3404 -0.0530
  554MOL0     H74747   4.484   8.244   3.316 -0.4282 -1.0113 -1.1532
  554MOL0     H74748   4.374   8.480   3.470  1.2469  1.7938 -1.2313
  554MOL0     H74749   4.277   8.352   3.383 -1.7275  1.1712 -2.4436
  554MOL0     H74750   4.294   8.566   3.043 -0.3362  4.0162 -1.9528
  554MOL0     H74751   3.985   8.618   2.857 -1.4578  3.5324  1.0689
  554MOL0     H74752   4.079   8.755   2.869 -0.9861 -0.7439 -0.0464
  554MOL0     H74753   4.162   8.609   2.855 -1.5867 -0.2267 -3.5517
  554MOL0     H74754   3.577   8.568   2.981  0.6735  0.5187  0.4117
  554MOL0     H74755   3.354   8.619   2.956 -1.1495 -2.2601  4.1424
  554MOL0     H74756   3.165   8.728   2.940 -1.9707  2.1812 -1.4318
  554MOL0     H74757   3.127   8.651   3.091 -0.5067  0.1732  0.6740
  554MOL0     H74758   3.008   8.903   2.980 -3.0965 -1.1518 -2.1836
  554MOL0     H74759   2.923   8.752   2.998 -1.2320  2.0356 -2.0508
  554MOL0     H74760   3.013   8.899   3.251 -1.7368  1.6609  1.2317
  554MOL0     H74761   2.942   8.744   3.235  2.5870 -0.2101 -2.2889
  554MOL0     H74762   2.862   9.028   3.143  0.7213 -0.0009  1.8493
  554MOL0     H74763   2.748   8.884   3.106  0.8164 -1.0939 -0.8735
  554MOL0     H74764   2.748   8.839   3.369 -5.4974 -1.9632 -2.1159
  554MOL0     H74765   2.636   8.937   3.288 -0.3786  0.4418 -0.0425
  554MOL0     H74766   2.877   9.085   3.421  0.2781  0.6646 -1.1942
  554MOL0     H74767   2.765   9.153   3.316 -1.6963  1.6793  1.7024
  554MOL0     H74768   2.657   9.009   3.559 -0.9929 -0.6557 -0.8956
  554MOL0     H74769   2.567   9.111   3.443 -1.3991 -0.1175  3.5360
  554MOL0     H74770   2.626   9.239   3.658  2.9518  2.8856  1.1901
  554MOL0     H74771   2.659   9.316   3.506 -1.6102 -0.5621 -1.0343
  554MOL0     H74772   3.396   8.913   3.260  0.5157  0.3434 -0.0946
  554MOL0     H74773   3.615   8.834   3.311 -2.7144 -0.4920  1.4328
  554MOL0     H74774   3.916   8.596   3.359 -0.4980 -1.5241 -0.2268
  554MOL0     H74775   4.132   8.509   3.424 -1.7133  0.2986 -0.2004
  554MOL0     H74776   4.732   7.404   2.563 -1.3353  0.4263 -4.0453
  554MOL0     H74777   4.931   7.409   2.471 -1.3931  0.4129  3.0234
  554MOL0     H74778   5.187   7.288   2.015  0.3263  0.7574  0.6703
  554MOL0     H74779   5.410   7.229   1.892 -2.5688  0.4065  0.8388
  554MOL0     H74780   5.837   7.159   2.024 -0.9856  0.4333 -1.5195
  554MOL0     H74781   5.765   7.132   2.181  1.8006  2.4431  0.1688
  554MOL0     H74782   5.661   6.917   2.106 -0.0127 -0.0310  0.9702
  554MOL0     H74783   5.835   6.911   2.086 -0.2728  0.5052 -0.7438
  554MOL0     H74784   5.774   7.011   1.851  2.8177 -0.5560  1.3430
  554MOL0     H74785   5.629   6.903   1.892 -0.0290 -1.3786  2.4544
  554MOL0     H74786   5.767   6.748   1.789 -0.4194 -0.8734  1.0870
  554MOL0     H74787   5.843   6.727   1.955  0.8037  0.0489 -0.5856
  554MOL0     H74788   6.166   6.877   1.771  0.5503  2.7754  1.7937
  554MOL0     H74789   5.568   7.147   2.283  2.0185  3.1098  0.0891
  554MOL0     H74790   5.358   7.137   2.387  3.6745 -3.2678 -0.4867
  555MOL0     O74791   8.768   9.238   0.524  0.3450  0.5374 -0.5512
  555MOL0     C74792   8.831   9.327   0.577 -0.1413 -0.4348  0.5426
  555MOL0     O74793   8.800   9.391   0.696 -0.0079 -0.0716  0.3812
  555MOL0     C74794   8.692   9.366   0.776 -0.2773 -0.2960 -0.3056
  555MOL0     C74795   8.661   9.461   0.874 -0.2769 -0.0828 -0.8604
  555MOL0     C74796   8.563   9.444   0.968  0.1240  0.1621 -0.1008
  555MOL0     C74797   8.484   9.323   0.969  0.2615  0.1067 -0.3479
  555MOL0     O74798   8.390   9.299   1.065  0.4527  0.8953 -0.0109
  555MOL0     C74799   8.335   9.407   1.139  0.6548 -0.6977 -0.4569
  555MOL0     C74800   8.227   9.341   1.226  0.3114 -0.1897 -0.5615
  555MOL0     C74801   8.175   9.433   1.336  0.8074  0.2871 -0.2261
  555MOL0     C74802   8.060   9.375   1.422 -0.2859  1.0886  0.1144
  555MOL0     C74803   8.082   9.404   1.575  0.0802  0.0850  0.1942
  555MOL0     C74804   8.073   9.559   1.615  0.0941  0.2356 -0.2768
  555MOL0     C74805   8.131   9.586   1.759  0.9604 -0.0767 -0.4731
  555MOL0     C74806   8.140   9.738   1.782 -0.0115 -0.7093 -0.4520
  555MOL0     N74807   8.189   9.781   1.915 -0.5409  0.4097  0.7619
  555MOL0     C74808   8.285   9.710   1.983  0.5915  0.4288 -0.3921
  555MOL0     C74809   8.288   9.757   2.109 -0.1113 -0.2462 -0.8015
  555MOL0     C74810   8.385   9.718   2.210 -0.3529  1.1600 -0.2279
  555MOL0     C74811   8.323   9.696   2.341  0.0759 -0.1526 -0.4132
  555MOL0     C74812   8.436   9.673   2.444  0.1811  0.8527 -0.6388
  555MOL0     C74813   8.387   9.680   2.589 -0.5090 -0.2511  0.4943
  555MOL0     O74814   8.468   9.593   2.671  0.5235 -0.1652  0.8704
  555MOL0     C74815   8.432   9.603   2.809 -0.2224 -0.2008  0.8866
  555MOL0     C74816   8.361   9.708   2.860 -0.0405 -0.1209  0.7657
  555MOL0     C74817   8.328   9.705   2.994 -0.2223  0.3791 -0.3105
  555MOL0     C74818   8.257   9.824   3.052  0.1064 -0.7132 -0.3293
  555MOL0     C74819   8.359   9.594   3.085  1.4230 -0.5169  0.2063
  555MOL0     C74820   8.322   9.577   3.236  0.7106 -0.2211 -0.2075
  555MOL0     O74821   8.244   9.667   3.290 -0.2810 -0.1458 -0.0446
  555MOL0     C74822   8.210   9.655   3.420  0.2524 -0.8099 -0.4336
  555MOL0     C74823   8.113   9.568   3.466  1.5727 -0.6962  0.3838
  555MOL0     C74824   8.048   9.587   3.588  0.5040 -0.3559 -1.0667
  555MOL0     C74825   8.099   9.683   3.682  0.2105  0.4780  0.2191
  555MOL0     O74826   8.028   9.691   3.803 -0.3157  0.4660  0.3824
  555MOL0     C74827   8.060   9.801   3.892 -0.0925  0.2070 -0.6177
  555MOL0     C74828   7.967   9.792   4.014  0.2210  0.7271  0.1336
  555MOL0     C74829   7.928   9.926   4.077  1.0856  0.3831 -0.8532
  555MOL0     C74830   7.865   9.888   4.215 -0.0059  0.4871  0.4161
  555MOL0     C74831   7.800  10.010   4.281  0.4202 -0.1626 -0.6339
  555MOL0     C74832   7.663  10.045   4.230  0.0606  0.5936  0.3539
  555MOL0     C74833   7.672  10.170   4.139  0.8679 -0.0768  0.8802
  555MOL0     C74834   7.539  10.162   4.047 -1.7103  0.5048  0.2484
  555MOL0    Cl74835   7.413  10.208   4.160  0.2338  0.0570 -0.0126
  555MOL0     C74836   8.199   9.767   3.633  0.0435  0.1798  0.7922
  555MOL0     C74837   8.255   9.758   3.503  0.2846 -0.0112  0.2313
  555MOL0     O74838   8.354   9.471   3.290 -0.3415  0.3015 -0.2469
  555MOL0     C74839   8.441   9.492   3.030  0.5200 -0.7778  1.0417
  555MOL0     C74840   8.470   9.498   2.889  0.2130 -0.0903  0.3463
  555MOL0     N74841   8.200   9.862   2.111  0.0287  0.5212  0.3023
  555MOL0     N74842   8.146   9.884   1.991 -0.3128  0.2767  0.0730
  555MOL0     C74843   8.506   9.225   0.874  0.0488 -0.2290 -0.2176
  555MOL0     C74844   8.609   9.248   0.779  0.0195 -0.3479  0.3928
  555MOL0     C74845   8.962   9.381   0.514  0.3174 -0.5622 -0.1342
  555MOL0     C74846   9.052   9.480   0.570 -0.3055  0.1554 -0.8663
  555MOL0     C74847   9.168   9.530   0.502 -0.6524 -0.0275  0.6511
  555MOL0     C74848   9.186   9.489   0.367  0.4123  0.9508  0.0664
  555MOL0     O74849   9.309   9.526   0.311 -0.2481  0.1935 -0.4682
  555MOL0     C74850   9.357   9.486   0.185 -0.2040 -0.4449  0.5830
  555MOL0     C74851   9.436   9.358   0.202 -0.1404  0.0799  0.6657
  555MOL0     C74852   9.516   9.317   0.077 -0.4255  0.1187  0.2590
  555MOL0     C74853   9.656   9.372   0.080  0.2511 -0.0078  0.4082
  555MOL0     C74854   9.748   9.298  -0.001  1.4089 -0.1032  0.2462
  555MOL0     C74855   9.812   9.237  -0.089 -0.0259 -0.4144 -1.0655
  555MOL0     C74856   9.102   9.391   0.311  0.1599 -0.4869 -0.0321
  555MOL0     C74857   8.992   9.345   0.377  0.3618  0.0855  0.0902
  555MOL0     H74858   8.707   9.558   0.860  0.1039 -0.0119  0.6298
  555MOL0     H74859   8.544   9.532   1.028  1.0162  0.4394 -0.2031
  555MOL0     H74860   8.411   9.459   1.197  2.4040 -1.6685 -1.7716
  555MOL0     H74861   8.280   9.475   1.073 -0.0345 -2.1830 -1.4730
  555MOL0     H74862   8.142   9.297   1.173 -1.1138  0.4958  1.0716
  555MOL0     H74863   8.284   9.271   1.287 -0.6508 -1.1051 -0.6925
  555MOL0     H74864   8.256   9.457   1.405 -0.2342  2.5599  0.3394
  555MOL0     H74865   8.137   9.527   1.294  1.0059  1.2913  1.7044
  555MOL0     H74866   7.959   9.403   1.391 -0.1086  2.6483  0.8664
  555MOL0     H74867   8.068   9.266   1.416 -1.1654  0.9464  1.0395
  555MOL0     H74868   8.005   9.354   1.634  0.3003 -0.6349 -0.1143
  555MOL0     H74869   8.178   9.378   1.620 -0.2326  0.0205  0.8335
  555MOL0     H74870   8.127   9.621   1.542 -1.0616 -1.9517 -3.2188
  555MOL0     H74871   7.971   9.595   1.600  0.9131  2.4199 -0.9900
  555MOL0     H74872   8.057   9.547   1.830 -0.0069  1.1223 -0.7862
  555MOL0     H74873   8.227   9.538   1.778  1.2956  0.2171 -1.3805
  555MOL0     H74874   8.038   9.774   1.762  0.7254  0.8132 -1.6838
  555MOL0     H74875   8.200   9.794   1.710 -0.7097 -0.0952 -0.5750
  555MOL0     H74876   8.347   9.629   1.950  1.2845  0.8240 -0.0840
  555MOL0     H74877   8.434   9.622   2.191  2.6353  2.2035  1.5353
  555MOL0     H74878   8.471   9.785   2.212  1.8728 -1.4936  1.0655
  555MOL0     H74879   8.258   9.608   2.337 -1.3703  0.9226 -1.4138
  555MOL0     H74880   8.256   9.776   2.374  1.2801  0.3071  1.0404
  555MOL0     H74881   8.510   9.753   2.437  2.2315 -0.9858 -0.9790
  555MOL0     H74882   8.489   9.579   2.426  1.4651  1.0721  1.6906
  555MOL0     H74883   8.283   9.645   2.581 -0.4475 -0.0051 -2.5050
  555MOL0     H74884   8.385   9.784   2.623 -0.7852 -0.7393  1.9999
  555MOL0     H74885   8.306   9.789   2.814 -1.3199 -0.6486  1.3276
  555MOL0     H74886   8.151   9.814   3.077  0.3409  0.9133  1.6161
  555MOL0     H74887   8.311   9.852   3.143 -1.2168 -1.9917  0.9128
  555MOL0     H74888   8.265   9.919   2.998 -0.8563 -0.3336  0.1566
  555MOL0     H74889   8.074   9.496   3.395  1.3117  1.4426 -1.7822
  555MOL0     H74890   7.964   9.523   3.614 -1.7982  1.7185 -2.8992
  555MOL0     H74891   8.168   9.795   3.910 -0.1559 -3.0062 -0.7884
  555MOL0     H74892   8.043   9.896   3.841  1.8147  0.3482 -1.0483
  555MOL0     H74893   7.879   9.740   3.976  0.9017  0.9455 -1.8525
  555MOL0     H74894   8.025   9.732   4.085  2.6797 -1.4048 -3.3920
  555MOL0     H74895   7.864   9.982   4.008  0.4095 -0.4361 -0.8971
  555MOL0     H74896   8.018   9.984   4.098  1.6716 -0.1236 -1.8686
  555MOL0     H74897   7.787   9.811   4.212  0.5219 -0.0406 -2.0295
  555MOL0     H74898   7.939   9.841   4.281 -0.0391  1.1351  0.9281
  555MOL0     H74899   7.863  10.099   4.271 -1.7909  1.4231 -1.3025
  555MOL0     H74900   7.780   9.993   4.388  3.6979  2.7195  0.6157
  555MOL0     H74901   7.620   9.959   4.178  0.9009  0.2524  0.2005
  555MOL0     H74902   7.597  10.066   4.314  1.8077  1.2770  1.6237
  555MOL0     H74903   7.762  10.170   4.077 -0.3442 -0.1628 -0.9425
  555MOL0     H74904   7.672  10.268   4.188 -1.7937  1.3112 -1.6173
  555MOL0     H74905   7.525  10.062   4.004  2.3954 -0.7207  1.3482
  555MOL0     H74906   7.548  10.228   3.961  3.7272  2.2744  1.7795
  555MOL0     H74907   8.230   9.851   3.694 -2.2683  2.2220 -0.6669
  555MOL0     H74908   8.319   9.840   3.471 -1.3780  1.2225 -0.0959
  555MOL0     H74909   8.472   9.401   3.079 -2.0084 -3.6439 -2.1972
  555MOL0     H74910   8.523   9.422   2.833  1.7924  1.7174 -0.7297
  555MOL0     H74911   8.456   9.129   0.881  1.6671 -1.0144  1.6126
  555MOL0     H74912   8.637   9.158   0.725 -1.0908 -0.9689  0.8292
  555MOL0     H74913   9.041   9.519   0.671 -0.0922 -3.2145  0.5880
  555MOL0     H74914   9.243   9.589   0.554  1.2205 -2.7368  1.1973
  555MOL0     H74915   9.284   9.477   0.104  1.0276 -0.5030 -0.5522
  555MOL0     H74916   9.421   9.566   0.147 -0.7026 -0.0771  0.5148
  555MOL0     H74917   9.364   9.280   0.227 -2.6031  2.1797  0.5989
  555MOL0     H74918   9.496   9.364   0.293 -0.9194  0.2860  1.1677
  555MOL0     H74919   9.459   9.363  -0.005  0.2614  0.9917  0.2597
  555MOL0     H74920   9.533   9.209   0.065  0.0095 -0.2629  3.3984
  555MOL0     H74921   9.692   9.373   0.184 -1.0138 -0.9849  0.8934
  555MOL0     H74922   9.665   9.478   0.055 -1.5493 -0.7845 -4.7561
  555MOL0     H74923   9.884   9.195  -0.156 -0.9004  1.2370 -3.1477
  555MOL0     H74924   9.115   9.348   0.212 -2.0007 -1.0918 -0.0981
  555MOL0     H74925   8.934   9.279   0.312  3.5072  0.0572 -2.9889
  556MOL0     O74926   4.317   2.494   6.189 -0.4063 -0.8945 -0.6834
  556MOL0     C74927   4.369   2.382   6.171 -0.0459 -0.3164  0.1221
  556MOL0     O74928   4.329   2.295   6.067 -0.3107 -0.8692 -0.4226
  556MOL0     C74929   4.222   2.326   5.984 -0.9089  0.0780 -0.8814
  556MOL0     C74930   4.108   2.384   6.032 -0.3869  0.4043  0.4022
  556MOL0     C74931   4.006   2.425   5.945  0.0811  0.4820  0.3026
  556MOL0     C74932   4.020   2.411   5.809 -1.0447  0.1666  0.1300
  556MOL0     O74933   3.917   2.440   5.729  0.6971 -0.0084 -0.3131
  556MOL0     C74934   3.847   2.328   5.669  0.0478 -1.3577 -0.4015
  556MOL0     C74935   3.740   2.388   5.584 -0.3407  0.0412  1.5373
  556MOL0     C74936   3.611   2.411   5.666 -0.6122 -0.7393  0.2754
  556MOL0     C74937   3.492   2.424   5.574  0.1655 -0.2534  0.0998
  556MOL0     C74938   3.464   2.560   5.518 -0.2840 -0.8387  0.1431
  556MOL0     C74939   3.391   2.664   5.603 -0.7199 -1.5354 -0.1846
  556MOL0     C74940   3.373   2.798   5.536  0.2504 -0.6935 -0.0501
  556MOL0     C74941   3.277   2.895   5.596  0.3135  0.2603 -0.2519
  556MOL0     N74942   3.132   2.856   5.595  0.3397 -0.4477  0.0441
  556MOL0     C74943   3.048   2.847   5.481 -0.1736 -0.3430  0.3610
  556MOL0     C74944   2.925   2.817   5.529 -0.1601 -0.6898  0.3376
  556MOL0     C74945   2.808   2.771   5.432 -0.3000 -1.3943 -0.4670
  556MOL0     C74946   2.696   2.882   5.413  1.0080 -0.2751  0.2975
  556MOL0     C74947   2.629   2.942   5.545 -0.5210  0.9000  0.2140
  556MOL0     C74948   2.526   3.037   5.504  0.1170 -0.3550 -0.6869
  556MOL0     O74949   2.402   2.967   5.514  0.5932  0.4817  0.2374
  556MOL0     C74950   2.341   2.956   5.635 -1.4703  0.2601 -0.3610
  556MOL0     C74951   2.235   2.871   5.642 -0.6794 -0.2555 -0.1506
  556MOL0     C74952   2.181   2.816   5.763 -0.6129 -0.9502 -0.5752
  556MOL0     C74953   2.071   2.719   5.735 -0.2225  0.7922  0.4431
  556MOL0     C74954   2.240   2.850   5.886  1.3406  0.1364  0.2800
  556MOL0     C74955   2.198   2.790   6.020  0.5350 -0.4943  0.1325
  556MOL0     O74956   2.252   2.854   6.132  0.2072  0.6354  0.2313
  556MOL0     C74957   2.197   2.821   6.252  0.3384  0.4129 -0.3141
  556MOL0     C74958   2.077   2.867   6.307 -0.1172 -0.4784  0.1973
  556MOL0     C74959   2.035   2.835   6.436  1.2162  0.6976 -0.1117
  556MOL0     C74960   2.108   2.746   6.518 -0.0126 -0.0088  0.9193
  556MOL0     O74961   2.056   2.685   6.634  0.0475 -0.3158  0.1087
  556MOL0     C74962   1.937   2.740   6.695 -0.3452  0.0234 -0.3015
  556MOL0     C74963   1.964   2.876   6.751 -0.5380  0.0598 -0.4845
  556MOL0     C74964   1.863   2.914   6.856 -0.4070  0.7796 -0.4035
  556MOL0     C74965   1.908   3.039   6.931 -0.0874 -0.4752  0.3749
  556MOL0     C74966   1.837   3.072   7.061  0.7031  0.2515 -0.2256
  556MOL0     C74967   1.702   3.144   7.048  0.6480 -0.2811  0.7295
  556MOL0     C74968   1.676   3.235   7.164  1.0807 -0.4992 -0.5584
  556MOL0     C74969   1.548   3.325   7.135 -1.2485 -1.5360  0.1742
  556MOL0    Cl74970   1.399   3.246   7.128 -0.0550 -0.1377 -0.1364
  556MOL0     C74971   2.216   2.682   6.462 -0.0481  0.1011 -0.1992
  556MOL0     C74972   2.257   2.716   6.329  0.3422 -0.0076  0.6391
  556MOL0     O74973   2.121   2.697   6.021  0.1447 -0.4018  0.3560
  556MOL0     C74974   2.338   2.946   5.873  0.3530  0.1145  0.6052
  556MOL0     C74975   2.396   2.992   5.762 -0.6800  0.3354 -0.7105
  556MOL0     N74976   2.934   2.808   5.667  0.0673 -0.0322  0.4483
  556MOL0     N74977   3.049   2.838   5.701 -0.5048  0.1234 -0.3749
  556MOL0     C74978   4.130   2.343   5.758 -0.2900  0.9786  0.4609
  556MOL0     C74979   4.226   2.299   5.850 -0.5175  0.0477 -0.4379
  556MOL0     C74980   4.473   2.345   6.261 -0.3932  0.4833  0.6144
  556MOL0     C74981   4.547   2.225   6.225  0.2233  0.0011  0.0996
  556MOL0     C74982   4.658   2.188   6.297 -0.0115 -0.2871  0.1291
  556MOL0     C74983   4.703   2.271   6.406  0.5733 -0.8169  0.2770
  556MOL0     O74984   4.812   2.250   6.480 -0.1955  0.1209 -0.6051
  556MOL0     C74985   4.922   2.182   6.409  0.1658  0.2897 -0.2345
  556MOL0     C74986   5.019   2.135   6.502 -0.3722  0.4266 -0.0115
  556MOL0     C74987   5.079   2.239   6.587  0.3330  0.2155 -0.5548
  556MOL0     C74988   5.225   2.193   6.613  0.8690 -0.6252 -0.2087
  556MOL0     C74989   5.240   2.065   6.685 -0.8398  0.3753 -0.1834
  556MOL0     C74990   5.243   1.964   6.757  0.1188 -0.2234 -0.5046
  556MOL0     C74991   4.633   2.389   6.434 -0.2267  0.0071  0.0418
  556MOL0     C74992   4.519   2.423   6.369 -0.0605 -0.0993  0.5443
  556MOL0     H74993   4.096   2.388   6.140 -2.2350 -2.6732  0.4510
  556MOL0     H74994   3.938   2.496   5.991  1.3450  0.3911  2.4504
  556MOL0     H74995   3.912   2.254   5.621 -0.6002 -2.3664  0.2244
  556MOL0     H74996   3.797   2.267   5.745 -3.4930 -1.3115 -2.4349
  556MOL0     H74997   3.778   2.480   5.539 -1.0561 -0.0641  0.6832
  556MOL0     H74998   3.724   2.320   5.499 -1.4928  1.5467  0.5004
  556MOL0     H74999   3.592   2.330   5.737  0.5960 -0.0183  1.4965
  556MOL0     H75000   3.632   2.501   5.725  0.4418 -0.0025 -1.1639
  556MOL0     H75001   3.498   2.355   5.489 -0.1904 -1.2338  0.8621
  556MOL0     H75002   3.402   2.408   5.634 -0.7847 -0.0094 -1.2143
  556MOL0     H75003   3.560   2.603   5.488 -0.1581 -0.8955  0.4695
  556MOL0     H75004   3.405   2.544   5.427 -0.5521  0.0712  0.1449
  556MOL0     H75005   3.294   2.622   5.630 -2.0774  2.1199  1.1767
  556MOL0     H75006   3.443   2.701   5.693 -2.2647  2.2990 -0.6808
  556MOL0     H75007   3.463   2.861   5.529  0.2494 -0.5341  1.1456
  556MOL0     H75008   3.337   2.778   5.435  0.2573 -1.0978  0.0243
  556MOL0     H75009   3.283   2.994   5.551  3.4593 -0.7752 -2.4426
  556MOL0     H75010   3.308   2.916   5.699  1.5159 -2.6190  0.0853
  556MOL0     H75011   3.080   2.837   5.378 -1.5496 -0.9572 -0.0334
  556MOL0     H75012   2.865   2.760   5.340  4.0825  1.0962  1.6231
  556MOL0     H75013   2.775   2.669   5.454  0.8228 -1.8370 -0.7667
  556MOL0     H75014   2.617   2.847   5.346  1.3783 -2.0987  0.7577
  556MOL0     H75015   2.749   2.953   5.350 -0.7208 -1.4708 -2.7362
  556MOL0     H75016   2.715   2.995   5.586 -2.3478  2.2622  2.5688
  556MOL0     H75017   2.602   2.873   5.627 -0.5423  1.6696  0.8700
  556MOL0     H75018   2.537   3.083   5.405 -0.1266  2.7956  0.6361
  556MOL0     H75019   2.536   3.118   5.576  1.4256  1.6775 -2.9829
  556MOL0     H75020   2.191   2.844   5.546  0.6120 -2.2180 -0.2405
  556MOL0     H75021   2.108   2.626   5.778  1.0519  0.3729 -1.4238
  556MOL0     H75022   1.982   2.750   5.791 -1.3426  0.4798 -1.0894
  556MOL0     H75023   2.045   2.717   5.629 -0.2568 -0.8137  0.4536
  556MOL0     H75024   2.014   2.929   6.243 -0.4116 -3.2929 -2.5073
  556MOL0     H75025   1.949   2.890   6.473 -0.6610  0.7361 -3.9994
  556MOL0     H75026   1.855   2.754   6.623  0.2038  2.6085 -0.5186
  556MOL0     H75027   1.909   2.674   6.778 -1.2998  4.3476  3.1661
  556MOL0     H75028   2.062   2.866   6.797 -0.5181 -1.8219 -0.8829
  556MOL0     H75029   1.976   2.949   6.670 -0.4672 -0.8731 -1.3359
  556MOL0     H75030   1.858   2.829   6.925  2.0216  0.9589  0.0531
  556MOL0     H75031   1.762   2.919   6.813 -0.7714 -3.9041 -0.5457
  556MOL0     H75032   2.012   3.017   6.955  0.0296 -1.2395 -0.7440
  556MOL0     H75033   1.906   3.126   6.865 -0.2211  0.6390  1.7995
  556MOL0     H75034   1.900   3.144   7.113  0.2944  0.0395  0.5827
  556MOL0     H75035   1.834   2.985   7.128  0.5699 -1.0077 -1.8268
  556MOL0     H75036   1.704   3.208   6.959 -0.1151 -0.3094  0.6893
  556MOL0     H75037   1.626   3.066   7.038 -1.1646  1.6909 -3.8424
  556MOL0     H75038   1.764   3.297   7.185  2.2009 -2.4154  0.6801
  556MOL0     H75039   1.652   3.170   7.249  0.3779 -0.1262 -0.4595
  556MOL0     H75040   1.564   3.376   7.040 -1.3361  0.2309  1.0642
  556MOL0     H75041   1.542   3.403   7.212 -3.6005 -2.1938  0.7160
  556MOL0     H75042   2.267   2.617   6.533 -0.6883  0.6197  0.7506
  556MOL0     H75043   2.337   2.662   6.280 -2.4963 -3.3725 -0.7261
  556MOL0     H75044   2.385   2.985   5.962  0.0722 -1.5165  1.5076
  556MOL0     H75045   2.468   3.071   5.778 -2.5100  1.7396  1.1158
  556MOL0     H75046   4.135   2.313   5.654 -4.3912 -3.0668  1.1315
  556MOL0     H75047   4.319   2.255   5.816  0.9295  2.6748 -0.1081
  556MOL0     H75048   4.525   2.174   6.131 -0.0896 -0.0488  0.1999
  556MOL0     H75049   4.714   2.101   6.265  0.7678  0.5291 -0.7786
  556MOL0     H75050   4.886   2.097   6.350 -0.7070  1.6051 -1.6915
  556MOL0     H75051   4.972   2.254   6.344  2.3690 -0.5855  0.3853
  556MOL0     H75052   5.097   2.096   6.436 -1.7249  2.5073 -3.0701
  556MOL0     H75053   4.972   2.058   6.563  1.6604 -2.3154 -1.6634
  556MOL0     H75054   5.025   2.251   6.682 -3.3741  2.9945 -2.6977
  556MOL0     H75055   5.083   2.333   6.532 -1.5470 -0.6564 -2.2981
  556MOL0     H75056   5.276   2.270   6.673 -1.3584  0.9732 -0.2208
  556MOL0     H75057   5.277   2.183   6.518  0.4328 -0.3952 -0.4752
  556MOL0     H75058   5.260   1.877   6.818  2.5543 -0.8658 -1.9465
  556MOL0     H75059   4.676   2.461   6.502 -2.0078  1.4901 -0.3265
  556MOL0     H75060   4.468   2.517   6.391  0.8689  0.0730  2.1618
  557MOL0     O75061   2.028   9.141   7.472  0.8724 -0.4052  0.6332
  557MOL0     C75062   2.132   9.154   7.404  0.2183  0.4370  0.0755
  557MOL0     O75063   2.251   9.180   7.465  0.2299  0.3870  0.0611
  557MOL0     C75064   2.247   9.220   7.598  0.7355  0.4219  0.3439
  557MOL0     C75065   2.215   9.119   7.691 -0.6292 -0.0877  0.1646
  557MOL0     C75066   2.186   9.150   7.825 -0.0070 -0.0635 -0.0824
  557MOL0     C75067   2.210   9.282   7.867 -0.4505  0.0785 -0.1790
  557MOL0     O75068   2.182   9.307   7.997  0.0130  0.5261 -0.7459
  557MOL0     C75069   2.157   9.448   8.048  0.3942  1.1756 -0.8393
  557MOL0     C75070   2.201   9.465   8.197 -0.5751 -0.1459  0.3166
  557MOL0     C75071   2.141   9.358   8.290 -0.0893 -0.4991  0.6388
  557MOL0     C75072   2.205   9.371   8.429  0.3804  0.1715 -0.0745
  557MOL0     C75073   2.108   9.431   8.527 -0.2694 -1.0044  0.3783
  557MOL0     C75074   2.178   9.455   8.658  0.4064 -0.0957 -0.7365
  557MOL0     C75075   2.087   9.523   8.765 -0.8117  0.1514 -0.3021
  557MOL0     C75076   2.154   9.557   8.898  0.0923  0.0459  0.1830
  557MOL0     N75077   2.075   9.642   8.989  0.1820  0.2211  0.4870
  557MOL0     C75078   2.045   9.777   8.964 -0.5819  0.4687  0.5339
  557MOL0     C75079   1.984   9.818   9.083 -0.5212  0.1858  0.4282
  557MOL0     C75080   1.946   9.967   9.110  0.1088 -0.2641 -0.4547
  557MOL0     C75081   1.812   9.975   9.195  0.4158 -0.1955 -0.2599
  557MOL0     C75082   1.755  10.121   9.230 -0.4432  0.0807  0.2262
  557MOL0     C75083   1.642  10.126   9.336  0.1906 -0.2431  0.3317
  557MOL0     O75084   1.517  10.093   9.279 -0.2720 -0.3463 -0.2001
  557MOL0     C75085   1.411  10.094   9.362 -0.2480 -0.6065  0.2809
  557MOL0     C75086   1.292  10.060   9.296 -0.1976  0.3405  0.0824
  557MOL0     C75087   1.170  10.050   9.346 -0.7074 -0.5477 -0.5405
  557MOL0     C75088   1.056  10.010   9.259 -0.0182 -0.5581  0.2879
  557MOL0     C75089   1.163  10.065   9.495  0.9606 -0.0506 -0.1100
  557MOL0     C75090   1.034  10.056   9.585  1.8043 -0.2449 -0.8589
  557MOL0     O75091   1.028  10.111   9.709 -0.8160 -0.4135 -0.8074
  557MOL0     C75092   0.915  10.106   9.785  0.1427  0.2405 -0.4408
  557MOL0     C75093   0.834   9.990   9.809 -0.3804  0.5128 -0.5870
  557MOL0     C75094   0.734   9.998   9.910 -0.7139 -0.7732  0.3401
  557MOL0     C75095   0.710  10.111   9.996 -0.4649  0.6082  0.6589
  557MOL0     O75096   0.625  10.121  10.104 -0.0654 -0.0840 -0.1779
  557MOL0     C75097   0.537  10.007  10.121  0.2182 -0.2105 -0.1997
  557MOL0     C75098   0.409  10.027  10.039  0.0860 -0.3543  0.2061
  557MOL0     C75099   0.297   9.920  10.058  1.6079  0.3171 -0.3228
  557MOL0     C75100   0.173   9.955   9.979  0.1428  0.1243 -0.6334
  557MOL0     C75101   0.065   9.852   9.964  0.1678  0.0840 -0.5945
  557MOL0     C75102  -0.079   9.901   9.939  0.0406  0.7440  0.2809
  557MOL0     C75103  -0.139   9.960  10.060  0.3359 -0.0843  0.0718
  557MOL0     C75104  -0.291  10.012  10.040 -0.5578  0.6050  0.6481
  557MOL0    Cl75105  -0.359  10.088  10.179 -0.1840 -0.0359 -0.2273
  557MOL0     C75106   0.795  10.223   9.962 -0.0439  1.4401 -0.2220
  557MOL0     C75107   0.893  10.220   9.862 -0.6922  0.5251 -0.8835
  557MOL0     O75108   0.946   9.981   9.540 -0.3912 -0.2547  0.1812
  557MOL0     C75109   1.270  10.111   9.564 -0.7305 -0.2338  0.0103
  557MOL0     C75110   1.389  10.124   9.503 -0.0361  1.0328  0.5679
  557MOL0     N75111   1.973   9.705   9.171 -0.1619 -0.6980 -0.3451
  557MOL0     N75112   2.029   9.603   9.114  0.0635 -0.0069  0.7100
  557MOL0     C75113   2.251   9.379   7.775 -0.8832 -0.1736 -0.1020
  557MOL0     C75114   2.259   9.352   7.639 -0.0083  0.3359  0.1007
  557MOL0     C75115   2.123   9.135   7.257 -0.1801  0.3996  0.2873
  557MOL0     C75116   1.999   9.109   7.190 -0.4139  0.0545  0.7448
  557MOL0     C75117   1.985   9.120   7.050  0.0765 -1.2020  0.3956
  557MOL0     C75118   2.103   9.129   6.977  0.1129 -0.3113 -0.0579
  557MOL0     O75119   2.113   9.123   6.839  0.5147  0.8154  0.7815
  557MOL0     C75120   2.002   9.092   6.757  1.3298  0.3122 -0.5199
  557MOL0     C75121   1.949   8.940   6.765  0.3649 -1.1472  0.1172
  557MOL0     C75122   2.057   8.846   6.735  0.4221 -0.3702  1.0946
  557MOL0     C75123   2.014   8.707   6.774 -0.0614 -0.4106  0.3743
  557MOL0     C75124   2.112   8.604   6.760  0.0083 -0.5181  0.4768
  557MOL0     C75125   2.187   8.511   6.754 -0.4946  0.0627  0.1228
  557MOL0     C75126   2.228   9.150   7.037 -0.1715  0.8140 -0.5617
  557MOL0     C75127   2.240   9.165   7.173  0.0317  0.0590 -1.3451
  557MOL0     H75128   2.202   9.020   7.648 -1.3496 -0.2617  0.7677
  557MOL0     H75129   2.164   9.073   7.899  0.5518 -1.0994 -0.9606
  557MOL0     H75130   2.218   9.523   7.996 -0.4195  1.3954 -1.4991
  557MOL0     H75131   2.051   9.474   8.044  0.1971  1.4409  2.7917
  557MOL0     H75132   2.311   9.462   8.192 -0.6320 -2.9014 -1.4641
  557MOL0     H75133   2.174   9.556   8.250  0.1412 -1.0660  2.3814
  557MOL0     H75134   2.036   9.382   8.306 -0.4525 -0.7456 -1.1080
  557MOL0     H75135   2.151   9.262   8.238 -2.0165 -0.0515 -0.6604
  557MOL0     H75136   2.245   9.282   8.479 -0.2627  1.0353  2.1015
  557MOL0     H75137   2.296   9.432   8.428  1.3748 -1.2565 -0.3851
  557MOL0     H75138   2.082   9.529   8.486  2.2820 -0.5568 -0.3367
  557MOL0     H75139   2.019   9.371   8.547 -3.7094  2.7058 -2.1572
  557MOL0     H75140   2.217   9.360   8.695  2.4248  0.4305 -1.3881
  557MOL0     H75141   2.259   9.526   8.640  0.9254 -0.6439 -0.5971
  557MOL0     H75142   2.064   9.622   8.725 -0.4207 -0.0679 -1.0915
  557MOL0     H75143   1.988   9.476   8.773  0.1236 -2.0699 -0.9682
  557MOL0     H75144   2.253   9.602   8.889  0.6049 -0.4913  2.4485
  557MOL0     H75145   2.169   9.463   8.953 -2.6438  1.1685  3.1819
  557MOL0     H75146   2.072   9.843   8.882  1.8205  3.2626  3.2806
  557MOL0     H75147   2.025  10.012   9.171  0.6879  1.8485 -2.5796
  557MOL0     H75148   1.935  10.026   9.018 -1.6142  0.0577 -0.0725
  557MOL0     H75149   1.810   9.914   9.286 -1.7563  1.9736  1.2890
  557MOL0     H75150   1.733   9.933   9.132 -0.5372  2.0072 -0.6344
  557MOL0     H75151   1.715  10.185   9.151  0.5451  1.2431  0.6382
  557MOL0     H75152   1.840  10.182   9.260  1.8630 -2.6392 -0.3184
  557MOL0     H75153   1.637  10.229   9.371  1.3529 -1.2957  4.0942
  557MOL0     H75154   1.661  10.052   9.415  0.8012 -1.6250 -1.0474
  557MOL0     H75155   1.303  10.047   9.189  0.8615  2.2174 -0.0781
  557MOL0     H75156   1.075  10.039   9.156 -1.1279 -0.8834 -0.0213
  557MOL0     H75157   1.029   9.904   9.267  0.4547 -0.6213  1.2949
  557MOL0     H75158   0.966  10.053   9.304  0.9902 -1.5831  3.6496
  557MOL0     H75159   0.843   9.902   9.747 -0.6874  1.2695 -1.7229
  557MOL0     H75160   0.672   9.909   9.913  1.5380 -2.4634 -0.1455
  557MOL0     H75161   0.592   9.914  10.103  5.0935  2.1620  0.8793
  557MOL0     H75162   0.494  10.005  10.222 -1.2313 -1.8859 -0.7996
  557MOL0     H75163   0.363  10.126  10.051 -0.1607 -0.4880  0.3684
  557MOL0     H75164   0.448  10.022   9.937  0.8759  1.1122  0.4003
  557MOL0     H75165   0.274   9.918  10.165  1.3157  1.6628 -0.3385
  557MOL0     H75166   0.336   9.821  10.033  1.6052  0.2879 -0.2111
  557MOL0     H75167   0.113  10.033  10.027 -1.3723  0.5167 -3.0357
  557MOL0     H75168   0.203   9.989   9.880  0.0673 -4.2625 -2.3663
  557MOL0     H75169   0.067   9.780  10.046  0.5222  0.2349 -0.4708
  557MOL0     H75170   0.105   9.796   9.878 -1.3759  1.2921 -2.1887
  557MOL0     H75171  -0.074   9.974   9.858  0.7130  1.4876  0.9814
  557MOL0     H75172  -0.148   9.819   9.915  0.8869 -0.1606  0.8656
  557MOL0     H75173  -0.078  10.050  10.074  1.0997 -0.0499 -2.7443
  557MOL0     H75174  -0.125   9.887  10.141  1.0915 -2.5536 -2.1358
  557MOL0     H75175  -0.350   9.924  10.014 -0.9781  0.5873  1.6248
  557MOL0     H75176  -0.302  10.075   9.951 -1.6322  0.6800  0.8232
  557MOL0     H75177   0.791  10.309  10.029  2.3987  0.7889  0.8730
  557MOL0     H75178   0.959  10.307   9.863  1.5003 -0.9171  3.4537
  557MOL0     H75179   1.270  10.140   9.669 -0.4491 -3.2033  0.9080
  557MOL0     H75180   1.476  10.149   9.564  0.4913 -2.0359  1.2329
  557MOL0     H75181   2.289   9.477   7.801 -0.4552  0.1171 -1.7016
  557MOL0     H75182   2.280   9.431   7.567 -4.3854  2.3589  0.6957
  557MOL0     H75183   1.904   9.096   7.241 -1.0770  0.6405 -0.3135
  557MOL0     H75184   1.890   9.119   6.996  0.9108 -1.8513 -1.1132
  557MOL0     H75185   1.916   9.155   6.780 -0.2545 -2.3008  1.2752
  557MOL0     H75186   2.022   9.105   6.650 -0.4767 -1.4025 -1.1262
  557MOL0     H75187   1.866   8.923   6.696 -1.1852  0.3356  1.5140
  557MOL0     H75188   1.912   8.930   6.867  0.5596  0.3031  0.3567
  557MOL0     H75189   2.147   8.886   6.783  0.0581  1.3387  0.4354
  557MOL0     H75190   2.071   8.843   6.627  0.3256  0.8181  1.0331
  557MOL0     H75191   1.929   8.692   6.707  0.3169  2.9488 -1.0482
  557MOL0     H75192   1.977   8.702   6.877 -1.2557 -1.8151 -0.0889
  557MOL0     H75193   2.247   8.422   6.747 -2.4813 -1.2700 -1.1353
  557MOL0     H75194   2.307   9.153   6.963  2.7569 -1.7523  2.1861
  557MOL0     H75195   2.328   9.182   7.234 -1.2029 -0.3602  0.6569
  558MOL0     O75196   5.435   2.993   9.479 -0.1837 -0.1632  0.4806
  558MOL0     C75197   5.429   3.101   9.542 -0.1886  0.1822  0.4656
  558MOL0     O75198   5.321   3.146   9.622  0.6105  0.5826  0.6055
  558MOL0     C75199   5.216   3.059   9.621  0.4699 -0.1241 -0.2913
  558MOL0     C75200   5.174   2.991   9.737  0.0286 -0.5433 -0.7554
  558MOL0     C75201   5.065   2.900   9.745  0.3769 -0.4033 -0.3160
  558MOL0     C75202   4.979   2.868   9.639 -0.0763 -0.3948 -0.0432
  558MOL0     O75203   4.869   2.779   9.649 -0.2785 -0.1519  0.2330
  558MOL0     C75204   4.751   2.816   9.577  0.4140 -0.6130 -0.4127
  558MOL0     C75205   4.686   2.913   9.669 -0.5292 -0.0450 -0.2671
  558MOL0     C75206   4.542   2.929   9.648  0.2942 -0.0024 -0.2678
  558MOL0     C75207   4.473   2.996   9.764 -0.2466 -0.9419 -0.1935
  558MOL0     C75208   4.330   3.026   9.725 -0.3013 -0.1830 -0.6420
  558MOL0     C75209   4.313   3.144   9.628 -0.6727 -0.0407 -0.3301
  558MOL0     C75210   4.171   3.181   9.607 -0.2796 -0.0669  0.8120
  558MOL0     C75211   4.106   3.092   9.495 -0.2685 -0.1876  0.1088
  558MOL0     N75212   3.971   3.119   9.457 -0.2320  0.3609  0.1105
  558MOL0     C75213   3.909   3.242   9.445 -0.0807 -0.1557 -0.5273
  558MOL0     C75214   3.800   3.207   9.374  0.8394  0.0299 -0.4530
  558MOL0     C75215   3.686   3.304   9.348  0.0141 -0.0717 -0.2296
  558MOL0     C75216   3.555   3.296   9.441  0.7098 -0.7493  0.3771
  558MOL0     C75217   3.463   3.186   9.399  0.7978 -0.8022  0.2918
  558MOL0     C75218   3.323   3.205   9.455  0.4001 -0.4364 -0.3135
  558MOL0     O75219   3.240   3.098   9.405  0.7076 -0.0736 -0.1636
  558MOL0     C75220   3.102   3.103   9.424  0.0736 -0.3712  0.8709
  558MOL0     C75221   3.040   2.979   9.441  0.6318  0.6160 -0.2634
  558MOL0     C75222   2.903   2.963   9.466  0.1792 -0.0064 -0.2193
  558MOL0     C75223   2.860   2.813   9.478  0.4535  0.3248  0.5450
  558MOL0     C75224   2.820   3.078   9.471 -0.4005 -0.3371  0.3316
  558MOL0     C75225   2.683   3.078   9.497  0.7231 -0.6331  0.2055
  558MOL0     O75226   2.627   3.194   9.554 -0.5285  0.3932  0.0291
  558MOL0     C75227   2.488   3.217   9.557 -0.2570  0.6491 -0.3366
  558MOL0     C75228   2.453   3.313   9.646 -0.0912  0.1241 -0.2559
  558MOL0     C75229   2.316   3.337   9.668  0.7802  0.2849 -0.0716
  558MOL0     C75230   2.215   3.269   9.599  1.1473  0.9369 -0.2600
  558MOL0     O75231   2.088   3.310   9.622 -0.2010 -0.2243  0.3624
  558MOL0     C75232   2.019   3.395   9.522  0.0850  0.2557  0.4672
  558MOL0     C75233   2.043   3.540   9.540  0.1217 -0.3284 -0.2073
  558MOL0     C75234   2.181   3.583   9.481 -0.2650 -1.4466 -0.3454
  558MOL0     C75235   2.202   3.724   9.535  0.3980  0.6837 -0.2894
  558MOL0     C75236   2.294   3.806   9.449  1.3066  0.2473  0.3153
  558MOL0     C75237   2.239   3.881   9.336  0.2895 -0.0311 -0.0099
  558MOL0     C75238   2.138   3.814   9.238 -0.2585  0.1080 -1.1309
  558MOL0     C75239   2.115   3.899   9.115 -0.2741  0.8342 -0.1842
  558MOL0    Cl75240   2.255   3.894   8.999  0.2500 -0.1081 -0.0844
  558MOL0     C75241   2.251   3.176   9.509 -0.4926  0.2754  0.0944
  558MOL0     C75242   2.389   3.153   9.478  0.3769  0.1686 -0.4781
  558MOL0     O75243   2.627   2.975   9.466  0.5522  0.1823 -0.4837
  558MOL0     C75244   2.882   3.201   9.445 -1.1167  0.2702  0.0551
  558MOL0     C75245   3.023   3.215   9.430  0.2852 -0.7569 -0.2246
  558MOL0     N75246   3.788   3.078   9.357 -0.1458  0.1186  0.0044
  558MOL0     N75247   3.890   3.021   9.405  0.7209 -0.2432  0.7572
  558MOL0     C75248   5.037   2.923   9.515  0.1778  0.0587 -0.6440
  558MOL0     C75249   5.143   3.016   9.511 -0.0278 -0.3451 -0.3341
  558MOL0     C75250   5.553   3.185   9.528 -0.1063 -0.0666 -0.3947
  558MOL0     C75251   5.580   3.292   9.617  0.5323 -0.7379 -1.0210
  558MOL0     C75252   5.695   3.364   9.621  0.4419 -1.0618  0.1704
  558MOL0     C75253   5.799   3.337   9.527 -0.1502 -0.8157  0.8656
  558MOL0     O75254   5.914   3.415   9.537  0.4905  0.5496 -0.4990
  558MOL0     C75255   6.012   3.408   9.432  0.0546 -0.1726 -0.1111
  558MOL0     C75256   6.148   3.346   9.477  0.4825  0.8165  0.7016
  558MOL0     C75257   6.235   3.444   9.544 -0.3655  0.4093 -0.9818
  558MOL0     C75258   6.214   3.424   9.693  0.3656  0.0530 -0.2742
  558MOL0     C75259   6.273   3.545   9.756  0.4285  0.6099  0.7550
  558MOL0     C75260   6.308   3.656   9.799  0.1257 -0.2673  0.6112
  558MOL0     C75261   5.778   3.232   9.436  1.7339  0.7365 -0.2666
  558MOL0     C75262   5.655   3.151   9.439 -0.2190  0.1121  0.2043
  558MOL0     H75263   5.222   3.005   9.834  0.6559  1.4295 -1.3089
  558MOL0     H75264   5.037   2.855   9.840 -1.9480  1.7137  0.1194
  558MOL0     H75265   4.766   2.860   9.478 -2.4683  0.7531 -0.3644
  558MOL0     H75266   4.689   2.727   9.559 -0.8629  0.3658 -1.0580
  558MOL0     H75267   4.706   2.876   9.770  1.9329  2.8989  0.4642
  558MOL0     H75268   4.742   3.007   9.659  1.6170 -0.9822  1.8943
  558MOL0     H75269   4.536   2.989   9.557  2.4811  0.9906  0.1826
  558MOL0     H75270   4.494   2.830   9.641 -4.2492  1.9626 -0.1983
  558MOL0     H75271   4.467   2.926   9.847 -0.4502 -2.2764 -1.2896
  558MOL0     H75272   4.524   3.089   9.788 -2.4181  0.2099  0.2474
  558MOL0     H75273   4.294   2.933   9.680  1.7097 -1.8585  0.9822
  558MOL0     H75274   4.270   3.043   9.815  1.4265  2.3962  0.1455
  558MOL0     H75275   4.363   3.230   9.672 -0.5875 -0.4782  0.4388
  558MOL0     H75276   4.368   3.114   9.538 -0.5544  1.6125 -0.8399
  558MOL0     H75277   4.116   3.170   9.701 -1.7559 -1.6289 -0.1729
  558MOL0     H75278   4.173   3.286   9.575  0.6230 -0.0836  0.7990
  558MOL0     H75279   4.107   2.986   9.524 -3.6285  0.0301  1.4472
  558MOL0     H75280   4.160   3.105   9.401  1.8193 -0.1998  1.2535
  558MOL0     H75281   3.939   3.343   9.471  1.7656 -0.6394 -0.6547
  558MOL0     H75282   3.727   3.405   9.359 -0.1154 -0.1567  1.3342
  558MOL0     H75283   3.653   3.296   9.244  0.6692  0.1839 -0.4599
  558MOL0     H75284   3.503   3.392   9.437 -0.0130 -1.0776  1.4960
  558MOL0     H75285   3.577   3.289   9.548 -1.8336  1.1350  1.1240
  558MOL0     H75286   3.501   3.089   9.433  1.2931  0.0837  2.3992
  558MOL0     H75287   3.458   3.184   9.290  0.3438  0.6147  0.2679
  558MOL0     H75288   3.292   3.303   9.416  1.0927 -0.8317 -1.9553
  558MOL0     H75289   3.325   3.206   9.564 -4.3075  1.0860 -0.0195
  558MOL0     H75290   3.100   2.889   9.431 -0.5492 -0.0874 -1.3057
  558MOL0     H75291   2.944   2.761   9.526  0.6159  1.8576  2.0390
  558MOL0     H75292   2.775   2.786   9.542 -0.1663  1.5466  0.2560
  558MOL0     H75293   2.845   2.774   9.377 -0.0477 -1.7010  1.3358
  558MOL0     H75294   2.533   3.361   9.700 -0.9165  1.2851 -0.0367
  558MOL0     H75295   2.285   3.412   9.739 -0.7833 -0.4092 -0.0019
  558MOL0     H75296   2.056   3.360   9.426  1.7482 -0.2543  1.2634
  558MOL0     H75297   1.910   3.388   9.533 -0.6321  3.7479 -2.3562
  558MOL0     H75298   1.966   3.598   9.488 -1.0188 -2.2516 -0.7699
  558MOL0     H75299   2.038   3.557   9.648 -1.4425 -1.3532 -0.0785
  558MOL0     H75300   2.167   3.581   9.372 -1.8007 -0.0884 -0.2060
  558MOL0     H75301   2.257   3.506   9.498 -1.8662 -2.6768  1.6906
  558MOL0     H75302   2.103   3.769   9.535 -1.2504 -2.6555 -0.6130
  558MOL0     H75303   2.239   3.721   9.637  0.1319  1.7543 -0.1553
  558MOL0     H75304   2.370   3.745   9.400  0.9528  1.0757 -1.3290
  558MOL0     H75305   2.336   3.887   9.510 -0.8545  1.3397  0.4480
  558MOL0     H75306   2.192   3.975   9.365  1.3302  0.1038  1.3500
  558MOL0     H75307   2.324   3.907   9.273 -0.5523 -0.4674 -1.3577
  558MOL0     H75308   2.043   3.798   9.290 -0.1714 -2.8432 -1.7175
  558MOL0     H75309   2.182   3.716   9.217 -2.1807 -1.5495  1.9054
  558MOL0     H75310   2.080   3.999   9.139 -1.4363  1.4764 -3.8792
  558MOL0     H75311   2.041   3.845   9.055  1.4895  1.7635 -3.4564
  558MOL0     H75312   2.166   3.133   9.457 -0.8532 -0.0036  0.9029
  558MOL0     H75313   2.411   3.082   9.399 -1.9708 -4.1170  2.3396
  558MOL0     H75314   2.824   3.291   9.430  0.7604  1.8724  1.7505
  558MOL0     H75315   3.051   3.320   9.434 -1.2432 -0.3537  3.1787
  558MOL0     H75316   4.995   2.908   9.416 -2.2298  2.9273 -0.2184
  558MOL0     H75317   5.165   3.068   9.417 -0.3083 -0.3181 -0.3866
  558MOL0     H75318   5.495   3.323   9.676 -1.5727 -0.9483 -3.7564
  558MOL0     H75319   5.707   3.441   9.696 -0.4957 -2.0462  1.3611
  558MOL0     H75320   5.983   3.361   9.338  1.8271 -1.3306 -0.1268
  558MOL0     H75321   6.032   3.511   9.403  1.9449 -0.5036 -0.1115
  558MOL0     H75322   6.203   3.303   9.393 -2.7636  0.7840 -1.6060
  558MOL0     H75323   6.116   3.255   9.529 -0.0231  0.8299  0.4198
  558MOL0     H75324   6.207   3.546   9.515 -0.5316  0.2546 -1.3708
  558MOL0     H75325   6.341   3.430   9.524  0.3951  0.1436  2.4870
  558MOL0     H75326   6.260   3.330   9.726  1.5140  1.9780  4.3478
  558MOL0     H75327   6.106   3.419   9.710  0.4138 -1.4747 -0.2280
  558MOL0     H75328   6.330   3.757   9.826  0.2428 -0.4319  1.1489
  558MOL0     H75329   5.860   3.204   9.370  1.1287 -1.7228 -0.0707
  558MOL0     H75330   5.652   3.062   9.378 -1.7572  0.9750 -1.0546
  559MOL0     O75331  11.402   9.213   2.293  0.3068 -0.6771  0.2324
  559MOL0     C75332  11.422   9.253   2.408 -0.0416 -0.1308  0.3139
  559MOL0     O75333  11.341   9.208   2.513  0.2881  0.2389  0.2455
  559MOL0     C75334  11.258   9.096   2.505  0.5586 -0.6098  0.2902
  559MOL0     C75335  11.158   9.095   2.586 -0.9155  0.8821 -1.1755
  559MOL0     C75336  11.072   8.985   2.597 -0.2554  0.0360 -0.2203
  559MOL0     C75337  11.097   8.872   2.519 -0.2533 -0.1572  0.5715
  559MOL0     O75338  11.027   8.753   2.524 -0.4119  0.0841  0.2990
  559MOL0     C75339  10.925   8.744   2.611  0.0821 -0.0124 -0.3813
  559MOL0     C75340  10.796   8.793   2.548  0.2245  0.4401 -0.6323
  559MOL0     C75341  10.686   8.770   2.642 -0.4721 -0.7215 -0.0074
  559MOL0     C75342  10.557   8.808   2.571  0.8794  0.6022 -0.1759
  559MOL0     C75343  10.443   8.784   2.658  0.3066 -0.2567 -0.0960
  559MOL0     C75344  10.304   8.837   2.601 -0.2011 -0.0826 -0.1343
  559MOL0     C75345  10.193   8.806   2.708 -0.8014  0.4282  0.0902
  559MOL0     C75346  10.198   8.888   2.841  0.3756  0.3669 -0.5167
  559MOL0     N75347  10.067   8.869   2.916 -0.0341  0.2967 -0.3071
  559MOL0     C75348   9.958   8.948   2.902 -0.0892 -0.7908  0.2567
  559MOL0     C75349   9.859   8.870   2.944  0.4063  0.2487 -0.2198
  559MOL0     C75350   9.716   8.906   2.925 -0.4222  0.4873  0.9462
  559MOL0     C75351   9.623   8.898   3.043 -0.4425 -0.2671  0.1484
  559MOL0     C75352   9.476   8.867   2.998  0.5175 -0.9230 -0.0877
  559MOL0     C75353   9.403   8.995   2.958 -0.2194  0.2547  0.7096
  559MOL0     O75354   9.274   8.945   2.925 -0.0107  0.8037 -0.6477
  559MOL0     C75355   9.169   8.946   3.015 -0.0971 -0.3260 -0.3850
  559MOL0     C75356   9.184   8.987   3.152 -0.0262  0.1002 -0.1296
  559MOL0     C75357   9.080   8.972   3.242  0.0023 -0.8452 -0.2998
  559MOL0     C75358   9.103   9.015   3.387 -0.0822  0.1833  0.1669
  559MOL0     C75359   8.955   8.917   3.197 -0.4841  0.5662 -0.4813
  559MOL0     C75360   8.842   8.906   3.285 -0.1473  0.4140  0.1060
  559MOL0     O75361   8.851   8.854   3.415 -0.3693  0.5911 -0.5427
  559MOL0     C75362   8.730   8.844   3.482  0.5669 -0.1407 -0.0118
  559MOL0     C75363   8.682   8.721   3.521  0.2205  0.9571 -0.5455
  559MOL0     C75364   8.577   8.704   3.611  0.1290 -0.2499 -0.1238
  559MOL0     C75365   8.521   8.816   3.676  0.4100  0.5260 -0.3702
  559MOL0     O75366   8.413   8.818   3.765 -0.0803  0.4918  0.4708
  559MOL0     C75367   8.332   8.694   3.767 -0.7709 -0.4629  0.7903
  559MOL0     C75368   8.203   8.726   3.847 -0.2333  0.8212 -0.2553
  559MOL0     C75369   8.220   8.739   3.994 -0.2099  0.5187 -0.7307
  559MOL0     C75370   8.092   8.739   4.075  0.1269 -0.9831  0.3206
  559MOL0     C75371   8.023   8.879   4.087 -0.6336  0.4125 -0.5278
  559MOL0     C75372   7.889   8.864   4.169 -0.3224  0.4492  0.5143
  559MOL0     C75373   7.902   8.813   4.315  0.7915 -0.4659 -0.5180
  559MOL0     C75374   7.766   8.851   4.384 -0.2813  1.3199 -0.7505
  559MOL0    Cl75375   7.637   8.731   4.359 -0.1766  0.4807  0.0890
  559MOL0     C75376   8.554   8.943   3.624 -0.5162 -0.4804  0.6333
  559MOL0     C75377   8.656   8.953   3.526  0.0328 -0.4897  0.0738
  559MOL0     O75378   8.739   8.943   3.234  0.5254  0.2429 -0.1833
  559MOL0     C75379   8.940   8.879   3.061  0.0873  0.3791  0.0582
  559MOL0     C75380   9.040   8.903   2.967 -1.3001  0.5933  0.6707
  559MOL0     N75381   9.899   8.745   2.974 -0.4703  0.1707 -0.0724
  559MOL0     N75382  10.021   8.746   2.958  0.2742  0.1155 -0.2730
  559MOL0     C75383  11.195   8.884   2.422  0.1703 -0.1331  0.2706
  559MOL0     C75384  11.280   8.992   2.420  0.0896  0.3042  0.2490
  559MOL0     C75385  11.543   9.342   2.427  0.7136  0.7132 -0.1141
  559MOL0     C75386  11.650   9.348   2.345 -1.0373 -0.8612  0.3554
  559MOL0     C75387  11.762   9.414   2.401  0.4937  0.5748  0.1680
  559MOL0     C75388  11.764   9.474   2.527 -0.4255  0.2815 -0.6023
  559MOL0     O75389  11.883   9.538   2.568  0.8269 -0.2743 -0.1735
  559MOL0     C75390  11.924   9.521   2.700  0.1283 -0.9273 -0.8480
  559MOL0     C75391  11.993   9.388   2.712  0.0597  0.3972  0.1805
  559MOL0     C75392  12.113   9.373   2.615 -0.4537  0.6215  0.1155
  559MOL0     C75393  12.235   9.473   2.615 -0.0910  0.5580 -0.6404
  559MOL0     C75394  12.273   9.502   2.758  0.7425 -0.0422  0.0709
  559MOL0     C75395  12.295   9.536   2.872 -0.7026  0.7552 -0.4431
  559MOL0     C75396  11.649   9.472   2.604  0.6769 -0.9386 -0.2836
  559MOL0     C75397  11.541   9.403   2.556 -0.2622 -0.8177  0.5924
  559MOL0     H75398  11.142   9.172   2.661  0.7033  0.6095 -0.5148
  559MOL0     H75399  10.992   9.005   2.667  0.9246  2.1703  0.5955
  559MOL0     H75400  10.922   8.637   2.635  4.7243  0.3831  3.4796
  559MOL0     H75401  10.942   8.799   2.704  0.3773  0.4617 -0.7139
  559MOL0     H75402  10.810   8.900   2.530 -2.4434  0.7507 -1.1591
  559MOL0     H75403  10.789   8.760   2.444 -0.3548  1.6326 -0.9875
  559MOL0     H75404  10.687   8.669   2.684 -2.3244 -1.2949 -1.2027
  559MOL0     H75405  10.697   8.842   2.723 -0.7666  0.8522 -1.3140
  559MOL0     H75406  10.553   8.914   2.545  3.2599  0.5400 -0.9983
  559MOL0     H75407  10.536   8.739   2.489  2.1826 -0.7898  0.6177
  559MOL0     H75408  10.421   8.680   2.684 -1.1507  0.2683  0.9551
  559MOL0     H75409  10.446   8.831   2.757 -0.4440 -2.2995  0.9609
  559MOL0     H75410  10.317   8.944   2.583  0.0876 -0.0821  0.0641
  559MOL0     H75411  10.274   8.797   2.504  1.2172  0.1815 -0.7010
  559MOL0     H75412  10.094   8.817   2.664 -1.8135  2.1180  2.6089
  559MOL0     H75413  10.181   8.698   2.723 -1.4650  0.4132 -0.5157
  559MOL0     H75414  10.214   8.996   2.831  0.8050  0.4365  0.7518
  559MOL0     H75415  10.288   8.856   2.894  1.7298  0.4386 -2.6523
  559MOL0     H75416   9.957   9.052   2.871 -1.8129 -0.7269  0.4563
  559MOL0     H75417   9.698   8.996   2.866 -1.0489  0.8128  1.6325
  559MOL0     H75418   9.687   8.826   2.856  0.8886  2.1762 -1.7550
  559MOL0     H75419   9.614   8.994   3.094 -2.6349 -0.1213 -0.4112
  559MOL0     H75420   9.656   8.811   3.102  0.1186  1.4610  2.5313
  559MOL0     H75421   9.432   8.822   3.087  2.0227  2.9390  2.9408
  559MOL0     H75422   9.464   8.798   2.914 -1.4905  1.9434 -2.3847
  559MOL0     H75423   9.439   9.034   2.862 -0.5968 -1.5731 -0.2298
  559MOL0     H75424   9.411   9.077   3.029  2.7036 -0.1182  0.8965
  559MOL0     H75425   9.278   9.036   3.176 -0.4060 -0.6095  3.3304
  559MOL0     H75426   9.131   8.930   3.449  1.0602  0.7809  0.5059
  559MOL0     H75427   9.182   9.090   3.395 -0.0188  0.1476 -0.1136
  559MOL0     H75428   9.011   9.049   3.434  0.2772 -0.9296  1.7453
  559MOL0     H75429   8.722   8.626   3.488  1.9984  2.0655 -1.8303
  559MOL0     H75430   8.536   8.604   3.622 -1.0656 -0.0006 -1.8897
  559MOL0     H75431   8.292   8.679   3.666  2.1380 -1.4418 -0.3360
  559MOL0     H75432   8.384   8.604   3.800 -2.3028 -1.1058  1.5133
  559MOL0     H75433   8.162   8.817   3.802  1.3282  0.8862 -1.6580
  559MOL0     H75434   8.147   8.634   3.828 -1.9760  1.5286  1.2059
  559MOL0     H75435   8.266   8.834   4.023  0.0448 -0.1729  1.3236
  559MOL0     H75436   8.277   8.654   4.032 -1.4577  0.3355  0.8152
  559MOL0     H75437   8.014   8.674   4.035  1.5486 -0.6531 -3.5024
  559MOL0     H75438   8.124   8.710   4.175  1.3382  0.1193  0.2806
  559MOL0     H75439   8.021   8.929   3.989 -0.1131  0.2870 -0.6062
  559MOL0     H75440   8.090   8.947   4.141  1.8068 -1.6018 -0.8267
  559MOL0     H75441   7.850   8.966   4.164  0.9023  0.9700  1.2051
  559MOL0     H75442   7.816   8.804   4.114  1.9872 -2.7477  0.6296
  559MOL0     H75443   7.977   8.876   4.364  0.3047 -0.1076 -0.2077
  559MOL0     H75444   7.932   8.709   4.327 -0.0696 -0.4022  4.0970
  559MOL0     H75445   7.741   8.956   4.365 -3.9986  0.3649 -1.9674
  559MOL0     H75446   7.779   8.841   4.492  0.6421 -0.2812 -0.9815
  559MOL0     H75447   8.504   9.035   3.651  1.3969  1.6058 -2.3144
  559MOL0     H75448   8.680   9.055   3.495 -0.2212  0.1319  1.8221
  559MOL0     H75449   8.842   8.842   3.035  1.3608 -1.4240 -2.6226
  559MOL0     H75450   9.038   8.868   2.865  4.2537  1.7206 -0.1305
  559MOL0     H75451  11.224   8.811   2.347  2.3206  1.7329 -0.8225
  559MOL0     H75452  11.360   8.984   2.347 -1.6009 -1.3170 -1.5513
  559MOL0     H75453  11.652   9.317   2.241  1.7934  1.4474 -0.4168
  559MOL0     H75454  11.844   9.429   2.331 -0.8192  0.6064 -1.3981
  559MOL0     H75455  11.990   9.604   2.729  0.3651 -1.0889 -0.9152
  559MOL0     H75456  11.830   9.526   2.755 -0.5102  3.4841 -2.0053
  559MOL0     H75457  11.916   9.312   2.699  1.8767 -1.2569 -1.5783
  559MOL0     H75458  12.021   9.354   2.812 -1.3156  0.7363  0.6972
  559MOL0     H75459  12.080   9.369   2.511  1.3417  0.5014 -0.4869
  559MOL0     H75460  12.161   9.277   2.632 -1.4429 -0.3889 -2.3269
  559MOL0     H75461  12.203   9.564   2.563 -1.6683  1.2576  1.4087
  559MOL0     H75462  12.321   9.433   2.560  0.8025  0.5094  0.7634
  559MOL0     H75463  12.294   9.585   2.967  1.0835  2.4030 -1.1946
  559MOL0     H75464  11.638   9.533   2.693 -5.0017  0.5938 -1.6232
  559MOL0     H75465  11.457   9.398   2.625 -0.5829  1.2980  0.4074
  560MOL0     O75466   6.387   6.436  11.096  0.6296 -0.5228 -0.1439
  560MOL0     C75467   6.415   6.406  11.213  0.2466  0.4541  0.3480
  560MOL0     O75468   6.322   6.370  11.309  0.2043 -0.2749  0.3329
  560MOL0     C75469   6.188   6.373  11.281 -0.4981 -0.0295 -0.3350
  560MOL0     C75470   6.125   6.314  11.168 -0.2669  0.2849  0.8009
  560MOL0     C75471   5.994   6.325  11.146  0.6717  0.7513 -0.1353
  560MOL0     C75472   5.915   6.395  11.229  1.4222  0.1545 -0.2584
  560MOL0     O75473   5.776   6.416  11.208 -0.2202 -0.0194 -0.5317
  560MOL0     C75474   5.698   6.322  11.131  0.2539 -0.2924 -0.5642
  560MOL0     C75475   5.551   6.341  11.153 -0.6731 -0.5179  0.5341
  560MOL0     C75476   5.475   6.215  11.107  0.0285 -0.1509  0.1602
  560MOL0     C75477   5.335   6.208  11.159 -0.4724  0.0601 -0.8505
  560MOL0     C75478   5.221   6.133  11.070  0.5721 -0.0421 -0.7819
  560MOL0     C75479   5.083   6.150  11.136 -0.0823 -0.2436  1.0510
  560MOL0     C75480   4.967   6.050  11.094  1.4828 -0.2047 -0.1065
  560MOL0     C75481   4.936   6.065  10.951  0.2793  0.7042 -0.5376
  560MOL0     N75482   4.818   5.975  10.913 -0.6433  0.6056 -0.2571
  560MOL0     C75483   4.834   5.840  10.918 -0.2987  0.5249  0.6134
  560MOL0     C75484   4.712   5.794  10.885  0.4163 -0.5851  0.2758
  560MOL0     C75485   4.681   5.652  10.880  0.4015  0.2413 -0.1537
  560MOL0     C75486   4.686   5.588  10.742 -1.2604 -0.4384  1.3422
  560MOL0     C75487   4.651   5.438  10.752  0.5450 -0.6108  0.3283
  560MOL0     C75488   4.558   5.391  10.633 -0.0173  0.1356  0.4030
  560MOL0     O75489   4.428   5.437  10.661 -0.1756  1.1182 -0.3193
  560MOL0     C75490   4.324   5.373  10.596  0.6135  0.6330 -0.1369
  560MOL0     C75491   4.270   5.420  10.470  0.3702  0.4353 -0.2954
  560MOL0     C75492   4.181   5.345  10.394 -0.3591  0.2913 -0.9050
  560MOL0     C75493   4.156   5.395  10.255  0.3476  0.7842 -0.1884
  560MOL0     C75494   4.139   5.221  10.458  0.6751 -0.5047  0.7041
  560MOL0     C75495   4.029   5.138  10.406  0.0397  0.7322 -0.5836
  560MOL0     O75496   4.015   5.018  10.462  0.2696  0.3326 -0.5480
  560MOL0     C75497   3.889   4.947  10.460 -0.4657 -0.4541 -0.6566
  560MOL0     C75498   3.775   5.002  10.497  1.4228 -0.2919 -0.3207
  560MOL0     C75499   3.663   4.928  10.514 -0.0721 -0.1286 -0.1766
  560MOL0     C75500   3.663   4.785  10.496  0.0823 -0.1524 -1.1238
  560MOL0     O75501   3.546   4.723  10.524 -0.2108  0.5875  0.2609
  560MOL0     C75502   3.576   4.599  10.607  0.2065  0.1272  0.4065
  560MOL0     C75503   3.448   4.518  10.631 -0.5167  0.6081 -0.9675
  560MOL0     C75504   3.341   4.589  10.719  1.1658 -0.0887 -0.1239
  560MOL0     C75505   3.213   4.645  10.645 -0.2179  0.0157  0.0177
  560MOL0     C75506   3.105   4.708  10.735  0.0443  0.6330 -0.1979
  560MOL0     C75507   2.999   4.609  10.790  0.3470  0.7082 -0.5692
  560MOL0     C75508   2.904   4.669  10.898 -0.0928 -0.0629 -0.1263
  560MOL0     C75509   2.844   4.811  10.871  0.1000 -0.0840  0.7893
  560MOL0    Cl75510   2.735   4.831  11.008  0.3790  0.0045  0.3915
  560MOL0     C75511   3.783   4.728  10.461  0.0988  0.0475  0.7007
  560MOL0     C75512   3.895   4.806  10.438 -0.4656 -0.4445 -0.0986
  560MOL0     O75513   3.959   5.189  10.325  0.0950 -0.1055  0.6953
  560MOL0     C75514   4.185   5.185  10.583  0.1852 -0.1799 -0.9764
  560MOL0     C75515   4.271   5.257  10.657  0.2119 -0.1369  0.8629
  560MOL0     N75516   4.634   5.904  10.851 -0.0040  0.3673 -0.4428
  560MOL0     N75517   4.694   6.015  10.873 -0.5444  0.5005 -1.6478
  560MOL0     C75518   5.967   6.463  11.332  0.3657  0.2141 -0.8730
  560MOL0     C75519   6.106   6.449  11.358 -0.0648  0.2020 -0.8490
  560MOL0     C75520   6.554   6.432  11.251  0.4538  0.6118 -0.5917
  560MOL0     C75521   6.654   6.496  11.170 -0.1827 -0.3016  0.5091
  560MOL0     C75522   6.783   6.525  11.222  0.8142 -0.1299  0.5562
  560MOL0     C75523   6.818   6.498  11.354 -0.1463 -0.7029 -0.5492
  560MOL0     O75524   6.944   6.536  11.405 -0.9338 -0.3174 -0.1726
  560MOL0     C75525   6.987   6.521  11.542 -0.4569  0.4383  0.2761
  560MOL0     C75526   7.069   6.649  11.575  0.2508 -0.7955 -0.7520
  560MOL0     C75527   7.207   6.660  11.495  0.7923  0.0333 -0.5292
  560MOL0     C75528   7.309   6.555  11.550 -0.1730  0.7105  0.3436
  560MOL0     C75529   7.313   6.548  11.698 -0.1567  0.5969  0.0932
  560MOL0     C75530   7.329   6.534  11.818 -0.2301 -0.4241  0.1933
  560MOL0     C75531   6.725   6.428  11.424 -0.4314 -0.0762 -0.5066
  560MOL0     C75532   6.592   6.400  11.381  0.3950  0.2654  0.0760
  560MOL0     H75533   6.188   6.257  11.100 -1.7464 -0.9562  0.3891
  560MOL0     H75534   5.954   6.274  11.059 -1.3269  1.3466  0.3867
  560MOL0     H75535   5.736   6.341  11.030 -0.7281  3.5420 -0.3770
  560MOL0     H75536   5.735   6.228  11.172  1.5066  1.0456  1.5450
  560MOL0     H75537   5.551   6.351  11.262  3.3657 -3.0414  1.0086
  560MOL0     H75538   5.529   6.434  11.101  0.9445  0.1250  0.9369
  560MOL0     H75539   5.480   6.206  10.998 -0.9046  3.1256 -0.2693
  560MOL0     H75540   5.523   6.125  11.146  1.4132  0.2266 -0.6269
  560MOL0     H75541   5.341   6.172  11.261 -1.5707  1.5070 -0.2349
  560MOL0     H75542   5.299   6.312  11.161 -0.3895  0.0879  1.9938
  560MOL0     H75543   5.221   6.176  10.970  0.7969 -0.2235 -0.8592
  560MOL0     H75544   5.237   6.026  11.063 -2.1213 -0.7552  1.9006
  560MOL0     H75545   5.100   6.151  11.244 -1.0313  3.9782  1.3393
  560MOL0     H75546   5.053   6.255  11.131 -1.4021 -0.5998  0.9798
  560MOL0     H75547   4.989   5.946  11.117 -0.9148 -0.8525 -0.4922
  560MOL0     H75548   4.873   6.072  11.145  1.5402  0.2762 -0.1957
  560MOL0     H75549   5.021   6.024  10.895  1.8173  1.0839  1.4322
  560MOL0     H75550   4.917   6.168  10.920 -3.0514  0.7233  1.1906
  560MOL0     H75551   4.910   5.771  10.954  1.3037  1.4622 -0.8205
  560MOL0     H75552   4.747   5.608  10.956  0.0886 -0.4878 -0.3000
  560MOL0     H75553   4.581   5.632  10.920  1.9098 -1.7114  3.0840
  560MOL0     H75554   4.779   5.613  10.691 -2.3974 -3.4657 -2.7150
  560MOL0     H75555   4.612   5.631  10.675 -1.3222  0.4654  1.9700
  560MOL0     H75556   4.600   5.429  10.848 -0.3737 -0.9364 -0.1823
  560MOL0     H75557   4.743   5.380  10.763 -0.1347 -1.6629  0.5785
  560MOL0     H75558   4.549   5.283  10.623 -3.5334  0.2512  1.0270
  560MOL0     H75559   4.590   5.434  10.538 -0.7221 -2.7734 -1.2715
  560MOL0     H75560   4.317   5.505  10.423  0.9781 -2.1319 -4.9970
  560MOL0     H75561   4.168   5.313  10.184 -0.8268  0.0378  0.4428
  560MOL0     H75562   4.051   5.428  10.246 -0.3481 -0.7326  1.8271
  560MOL0     H75563   4.226   5.469  10.217  1.9421  0.0002  1.1240
  560MOL0     H75564   3.771   5.098  10.547 -0.9472 -1.5809  2.2282
  560MOL0     H75565   3.577   4.974  10.562  0.6424  1.5064 -0.4075
  560MOL0     H75566   3.655   4.539  10.561  0.4649  0.3960  0.4949
  560MOL0     H75567   3.606   4.629  10.708  1.3481 -1.0507  0.4480
  560MOL0     H75568   3.413   4.465  10.542 -1.7410  1.3669 -0.9572
  560MOL0     H75569   3.483   4.434  10.691 -0.9802  0.7403 -0.5099
  560MOL0     H75570   3.378   4.676  10.774 -1.6105  3.2670 -3.1078
  560MOL0     H75571   3.299   4.529  10.800  0.1136  1.4863  0.5473
  560MOL0     H75572   3.246   4.731  10.586 -2.6520  2.0671  1.4144
  560MOL0     H75573   3.167   4.582  10.569 -0.5190  0.5024 -0.2114
  560MOL0     H75574   3.070   4.801  10.690  3.4571  1.5129 -1.2618
  560MOL0     H75575   3.152   4.756  10.821 -1.6272 -0.2635  1.2908
  560MOL0     H75576   2.936   4.580  10.705  0.0666 -1.8074  0.3861
  560MOL0     H75577   3.049   4.519  10.827  2.6020  2.1245  0.0182
  560MOL0     H75578   2.961   4.668  10.991  0.0122 -1.0953 -0.1926
  560MOL0     H75579   2.818   4.603  10.914 -1.6261  1.7019 -0.6914
  560MOL0     H75580   2.783   4.815  10.781  2.9855 -0.6262 -1.3244
  560MOL0     H75581   2.924   4.884  10.859 -1.7809  1.9710 -0.0097
  560MOL0     H75582   3.797   4.622  10.446  1.5901  0.2309  0.6875
  560MOL0     H75583   3.993   4.767  10.412  1.5975  2.0795  3.1569
  560MOL0     H75584   4.128   5.109  10.636 -2.1945  1.3706 -1.1491
  560MOL0     H75585   4.309   5.222  10.752  1.2268  0.2345  0.6121
  560MOL0     H75586   5.903   6.527  11.392  0.4673 -1.1615  0.7596
  560MOL0     H75587   6.145   6.511  11.438 -0.6672 -0.7031  0.1755
  560MOL0     H75588   6.639   6.530  11.068 -0.0508  0.6500  0.8043
  560MOL0     H75589   6.853   6.574  11.155 -3.1781  2.1227 -2.3832
  560MOL0     H75590   6.911   6.512  11.620 -0.4517 -2.3850  0.0635
  560MOL0     H75591   7.053   6.433  11.552 -0.4576  0.6874  3.9960
  560MOL0     H75592   7.089   6.658  11.682 -2.2675 -0.3555 -0.2734
  560MOL0     H75593   7.017   6.745  11.564  2.6840  0.7326  0.0862
  560MOL0     H75594   7.265   6.749  11.519  1.1359 -0.5681  1.0189
  560MOL0     H75595   7.191   6.645  11.388  1.2609 -2.7343 -0.3071
  560MOL0     H75596   7.408   6.590  11.520 -0.7270  2.5221  0.4655
  560MOL0     H75597   7.292   6.458  11.502  1.0331  1.7219 -2.3493
  560MOL0     H75598   7.342   6.518  11.923  1.4873 -2.8990 -0.3229
  560MOL0     H75599   6.743   6.411  11.530  3.0181  1.0258 -0.7885
  560MOL0     H75600   6.524   6.369  11.460  2.6651  1.3546  2.6438
  561MOL0     O75601   8.957   4.464   6.858  0.1587  0.1817 -0.7315
  561MOL0     C75602   8.896   4.378   6.799  1.6091 -0.7173  0.8377
  561MOL0     O75603   8.931   4.253   6.761  0.0201  0.0841 -0.0461
  561MOL0     C75604   9.060   4.199   6.782  0.8062  0.1591  0.1892
  561MOL0     C75605   9.170   4.272   6.800 -0.0333 -0.1380 -0.3753
  561MOL0     C75606   9.290   4.208   6.830  0.1594  0.3438 -0.5655
  561MOL0     C75607   9.310   4.073   6.822 -0.1804  0.4547 -0.0210
  561MOL0     O75608   9.422   4.004   6.851 -0.4782 -0.6479  0.1641
  561MOL0     C75609   9.543   4.052   6.781  0.7129 -0.9884 -0.3524
  561MOL0     C75610   9.663   4.022   6.883 -0.4677 -0.0964 -0.2703
  561MOL0     C75611   9.801   4.071   6.844  1.2418  0.3255 -0.0686
  561MOL0     C75612   9.916   4.035   6.940  0.1868  1.0228 -0.7333
  561MOL0     C75613  10.057   4.068   6.879 -0.8855  1.0059 -0.8100
  561MOL0     C75614  10.166   4.009   6.966 -0.2063  0.2309  0.0326
  561MOL0     C75615  10.295   4.036   6.882 -0.3706 -0.4321 -0.6005
  561MOL0     C75616  10.418   3.984   6.956 -0.6690  0.1099 -0.8747
  561MOL0     N75617  10.547   4.022   6.890 -0.0206  0.8199  0.6770
  561MOL0     C75618  10.623   4.134   6.921  0.8540  1.1434  0.1264
  561MOL0     C75619  10.739   4.111   6.856  0.5608  0.1296  0.9827
  561MOL0     C75620  10.876   4.170   6.874  0.2002  0.1821 -0.2888
  561MOL0     C75621  10.858   4.317   6.852  0.0178  0.0269  0.2026
  561MOL0     C75622  10.974   4.401   6.901 -0.0105  0.4588 -0.2040
  561MOL0     C75623  10.946   4.547   6.865 -0.4583  0.0177  0.0732
  561MOL0     O75624  10.860   4.603   6.972  0.0906  0.1117 -0.9478
  561MOL0     C75625  10.752   4.678   6.939 -0.5339  1.0530 -0.2683
  561MOL0     C75626  10.704   4.779   7.019 -0.2451  0.2421 -0.7930
  561MOL0     C75627  10.590   4.855   6.996  0.3245  0.2529  0.2170
  561MOL0     C75628  10.555   4.969   7.092 -0.1370  0.4752 -0.9106
  561MOL0     C75629  10.512   4.816   6.876  0.1895 -0.3170  1.0988
  561MOL0     C75630  10.388   4.881   6.837  0.6648 -0.1270  0.5751
  561MOL0     O75631  10.378   5.007   6.877  0.1484  0.4189 -0.3907
  561MOL0     C75632  10.269   5.080   6.852  0.2680  1.0853  0.1985
  561MOL0     C75633  10.277   5.145   6.732  0.8857 -0.7310 -0.2369
  561MOL0     C75634  10.176   5.240   6.694  0.0549  0.3900  0.2493
  561MOL0     C75635  10.069   5.267   6.782  0.1496 -0.2487  0.3398
  561MOL0     O75636   9.969   5.355   6.754 -0.0602  0.7109 -0.3743
  561MOL0     C75637   9.987   5.439   6.638 -0.5747  0.6207 -0.2345
  561MOL0     C75638   9.867   5.519   6.635 -0.0552 -0.0719  0.2061
  561MOL0     C75639   9.865   5.633   6.537 -1.0283 -0.5003  0.3708
  561MOL0     C75640   9.938   5.749   6.599 -0.6334 -0.2427  0.3313
  561MOL0     C75641   9.919   5.881   6.523  0.0603  0.0321 -0.9362
  561MOL0     C75642   9.780   5.944   6.546 -0.8276 -0.5778  0.7382
  561MOL0     C75643   9.756   5.999   6.687 -0.5321  0.7724 -0.0296
  561MOL0     C75644   9.603   6.028   6.713 -0.4616 -0.6137  0.5022
  561MOL0    Cl75645   9.514   5.884   6.679  0.0306  0.1133  0.1842
  561MOL0     C75646  10.061   5.209   6.904 -0.7501  0.4972  0.4009
  561MOL0     C75647  10.159   5.115   6.938 -1.1339  0.6335  0.2706
  561MOL0     O75648  10.306   4.818   6.768  0.3167  0.4704  0.1761
  561MOL0     C75649  10.550   4.707   6.802  0.3658 -0.0141  0.4918
  561MOL0     C75650  10.670   4.634   6.830  0.5821 -0.3720 -0.3137
  561MOL0     N75651  10.731   3.996   6.780 -0.4746  0.7942 -0.3589
  561MOL0     N75652  10.614   3.944   6.800  0.1795 -0.1290 -0.1143
  561MOL0     C75653   9.198   3.998   6.794 -0.2791  0.0646 -1.0327
  561MOL0     C75654   9.076   4.058   6.771  0.2051  0.5179 -0.1409
  561MOL0     C75655   8.757   4.418   6.745 -0.2551 -0.0246  0.4114
  561MOL0     C75656   8.689   4.536   6.787  0.6143  0.0459  0.2553
  561MOL0     C75657   8.567   4.568   6.725 -0.1459 -0.8345 -0.2202
  561MOL0     C75658   8.509   4.494   6.629  0.1697 -0.3002  0.0547
  561MOL0     O75659   8.386   4.536   6.588  0.6532  0.0395  0.3914
  561MOL0     C75660   8.292   4.458   6.518 -0.5547 -0.3404  0.1242
  561MOL0     C75661   8.229   4.336   6.590 -0.3233  0.0203 -0.0231
  561MOL0     C75662   8.187   4.373   6.735 -0.1927 -0.9420  0.0920
  561MOL0     C75663   8.130   4.243   6.791  0.1781 -0.4567 -0.3593
  561MOL0     C75664   8.105   4.234   6.935 -0.0208  0.4497 -0.9445
  561MOL0     C75665   8.077   4.215   7.050 -0.3994 -1.1091 -0.0782
  561MOL0     C75666   8.571   4.379   6.580  0.4183  0.5676 -0.4006
  561MOL0     C75667   8.694   4.343   6.641  0.8416 -0.4317  0.3481
  561MOL0     H75668   9.170   4.381   6.802 -0.3549 -0.0118 -3.5023
  561MOL0     H75669   9.374   4.265   6.869 -0.1976 -0.6854  1.9309
  561MOL0     H75670   9.562   3.993   6.690 -1.7171  0.2824 -1.7681
  561MOL0     H75671   9.538   4.157   6.752 -3.7559 -0.3884  1.7967
  561MOL0     H75672   9.636   4.072   6.976 -2.2300  0.9353 -1.2863
  561MOL0     H75673   9.666   3.914   6.901 -2.6029 -0.4928 -1.7989
  561MOL0     H75674   9.813   4.034   6.742  2.9797  1.0790 -0.1680
  561MOL0     H75675   9.798   4.176   6.815  2.0979  0.1938 -0.6827
  561MOL0     H75676   9.896   4.098   7.026 -0.7443  2.7020 -2.1087
  561MOL0     H75677   9.904   3.932   6.973  2.1765  0.9096 -0.2124
  561MOL0     H75678  10.068   4.033   6.776  2.6814 -2.8794  0.6089
  561MOL0     H75679  10.066   4.177   6.873 -2.0327  1.0474 -3.1348
  561MOL0     H75680  10.169   4.053   7.066  1.3791 -0.6678  0.4049
  561MOL0     H75681  10.156   3.901   6.978  1.5749  0.1289  0.7216
  561MOL0     H75682  10.286   3.986   6.785 -1.2655  0.6225 -1.0821
  561MOL0     H75683  10.309   4.143   6.863  0.7782 -0.0574  1.9020
  561MOL0     H75684  10.417   3.875   6.966 -2.7651  0.3082  2.7348
  561MOL0     H75685  10.414   4.027   7.057  3.1236 -1.0370 -0.0910
  561MOL0     H75686  10.604   4.207   6.999 -1.0801 -2.0917  3.0180
  561MOL0     H75687  10.929   4.135   6.963 -1.3126 -2.9508 -0.4790
  561MOL0     H75688  10.924   4.132   6.783 -0.1851 -0.3432 -0.2728
  561MOL0     H75689  10.764   4.348   6.899 -1.0700 -1.7545 -0.6739
  561MOL0     H75690  10.842   4.336   6.745  0.0796  1.8681  0.4841
  561MOL0     H75691  11.072   4.373   6.861  2.5756 -0.8894  5.9587
  561MOL0     H75692  10.986   4.390   7.009 -2.1155  0.0016  0.0320
  561MOL0     H75693  10.902   4.548   6.765  0.2397  1.0137 -0.2399
  561MOL0     H75694  11.045   4.593   6.854 -0.1502  0.2912  3.1241
  561MOL0     H75695  10.760   4.805   7.108 -1.4844 -3.7210  1.3946
  561MOL0     H75696  10.594   5.063   7.052  0.4631 -0.2506 -2.0970
  561MOL0     H75697  10.449   4.992   7.097 -0.3636 -0.4637 -1.2061
  561MOL0     H75698  10.587   4.951   7.195 -2.4302 -1.1027 -0.4139
  561MOL0     H75699  10.349   5.108   6.660 -0.7856 -3.1936 -0.7643
  561MOL0     H75700  10.174   5.287   6.596  2.4361  0.9305  0.4027
  561MOL0     H75701  10.079   5.498   6.641  0.8955 -1.5270 -0.0943
  561MOL0     H75702   9.988   5.385   6.543 -0.4783  0.6544 -0.2524
  561MOL0     H75703   9.787   5.455   6.598 -1.4191  1.7227 -0.0792
  561MOL0     H75704   9.830   5.561   6.729  1.3471 -0.7159  1.0795
  561MOL0     H75705   9.767   5.673   6.510 -1.1263  0.6664  2.2888
  561MOL0     H75706   9.910   5.603   6.441  0.5241  2.6081  0.0034
  561MOL0     H75707   9.915   5.768   6.704  1.6929 -1.3024  1.0925
  561MOL0     H75708  10.044   5.727   6.606 -0.9174 -1.5461  0.8094
  561MOL0     H75709   9.949   5.867   6.418  1.4034 -0.8973 -0.4542
  561MOL0     H75710   9.986   5.957   6.565  0.5412 -0.4150 -0.8755
  561MOL0     H75711   9.764   6.029   6.480  0.8455 -0.6218  0.2307
  561MOL0     H75712   9.704   5.868   6.524 -0.9515 -0.4912  0.8715
  561MOL0     H75713   9.826   6.082   6.695  2.0852 -0.7730 -4.1009
  561MOL0     H75714   9.791   5.927   6.762 -1.3705 -1.3319 -1.5509
  561MOL0     H75715   9.576   6.111   6.647 -0.4831 -0.8157  0.2554
  561MOL0     H75716   9.599   6.054   6.819  0.0865  0.9434  0.1593
  561MOL0     H75717   9.980   5.235   6.971  0.5125 -1.0646  2.6832
  561MOL0     H75718  10.169   5.077   7.039 -0.0103 -1.4181 -0.5436
  561MOL0     H75719  10.497   4.670   6.715 -0.9360 -0.3187  1.3809
  561MOL0     H75720  10.685   4.535   6.788 -0.9380 -0.5776 -0.4364
  561MOL0     H75721   9.207   3.891   6.779  1.3278  0.0401 -0.1693
  561MOL0     H75722   8.984   4.001   6.765 -0.7147  1.9548 -0.0673
  561MOL0     H75723   8.732   4.593   6.868  0.1920 -1.1682  1.3589
  561MOL0     H75724   8.515   4.652   6.769  0.4244 -0.0392 -1.0449
  561MOL0     H75725   8.211   4.525   6.488 -1.9990 -2.3220 -0.6228
  561MOL0     H75726   8.338   4.430   6.422  2.7452 -0.4170  1.6007
  561MOL0     H75727   8.299   4.252   6.598  0.8814  0.8913 -1.0973
  561MOL0     H75728   8.146   4.303   6.527  0.4788 -0.8549 -0.6446
  561MOL0     H75729   8.118   4.457   6.744  1.5884  0.5622  0.1571
  561MOL0     H75730   8.277   4.399   6.791  0.2650  0.0961 -1.0928
  561MOL0     H75731   8.203   4.169   6.758  2.4606  0.4870  2.1796
  561MOL0     H75732   8.030   4.230   6.749 -0.9025  2.3839  1.0788
  561MOL0     H75733   8.056   4.200   7.154  1.1014  2.0545  0.8103
  561MOL0     H75734   8.508   4.324   6.510 -0.3874  0.4109  0.4372
  561MOL0     H75735   8.752   4.256   6.614  1.1037 -0.2061  0.1914
  562MOL0     O75736  10.990   9.397   2.939 -1.2587  0.5285 -0.1072
  562MOL0     C75737  10.979   9.360   2.824 -0.1157  0.5441 -0.9769
  562MOL0     O75738  10.887   9.260   2.778  0.5386  0.3590  0.5933
  562MOL0     C75739  10.769   9.221   2.840 -0.9566  0.6523 -0.1105
  562MOL0     C75740  10.722   9.266   2.963  0.8301 -0.0706  0.3440
  562MOL0     C75741  10.600   9.223   3.020 -1.6823  0.9049 -0.1331
  562MOL0     C75742  10.517   9.133   2.950  0.1804 -0.5311 -0.2083
  562MOL0     O75743  10.404   9.084   3.006 -0.0401  0.8312 -0.3313
  562MOL0     C75744  10.418   9.020   3.133  0.9850 -0.5196 -0.7374
  562MOL0     C75745  10.315   9.070   3.240  0.4849  0.2228  0.0626
  562MOL0     C75746  10.175   9.075   3.170  0.5566 -0.4180  0.3136
  562MOL0     C75747  10.085   9.156   3.263 -0.0656 -0.0137 -0.1037
  562MOL0     C75748   9.939   9.143   3.214 -0.4698  0.4436  0.2702
  562MOL0     C75749   9.847   9.255   3.265  0.5163 -0.3216  0.7119
  562MOL0     C75750   9.795   9.220   3.402  0.3091  0.5007 -0.5797
  562MOL0     C75751   9.686   9.328   3.457 -0.3242  1.1703  0.1812
  562MOL0     N75752   9.574   9.356   3.371  0.3360  0.7330  0.5428
  562MOL0     C75753   9.490   9.471   3.385 -0.4092  1.0580 -0.0952
  562MOL0     C75754   9.382   9.438   3.307 -0.3395 -0.1713 -0.1300
  562MOL0     C75755   9.260   9.526   3.274  0.5551  0.3483 -0.6372
  562MOL0     C75756   9.286   9.572   3.124  0.1283 -0.0554 -0.2487
  562MOL0     C75757   9.317   9.718   3.113  0.5127  0.4907  0.8818
  562MOL0     C75758   9.198   9.796   3.161 -0.0007  0.0526  0.4947
  562MOL0     O75759   9.230   9.932   3.147 -0.0234 -0.5411 -0.2267
  562MOL0     C75760   9.154  10.026   3.212 -1.2223 -0.6618  0.0853
  562MOL0     C75761   9.174  10.161   3.171  0.7799 -0.4845  0.2300
  562MOL0     C75762   9.101  10.273   3.228 -0.3801  0.4759 -0.4710
  562MOL0     C75763   9.115  10.410   3.159  0.3106 -0.0057  0.0463
  562MOL0     C75764   9.011  10.251   3.330  0.3192  0.5022 -0.0381
  562MOL0     C75765   8.935  10.353   3.398 -1.1218 -0.6414  0.2134
  562MOL0     O75766   8.892  10.453   3.325  0.1110 -0.0140  0.1913
  562MOL0     C75767   8.804  10.546   3.372 -0.0103 -0.5668 -0.3610
  562MOL0     C75768   8.689  10.511   3.444  0.7829 -0.1530  0.4384
  562MOL0     C75769   8.604  10.619   3.488 -1.1560 -0.2884  0.2407
  562MOL0     C75770   8.633  10.753   3.448 -0.4849  0.1786 -1.0381
  562MOL0     O75771   8.549  10.847   3.502 -1.2450  0.6838 -0.4300
  562MOL0     C75772   8.554  10.979   3.455 -0.1838  0.0180  0.0752
  562MOL0     C75773   8.420  11.057   3.486 -0.0740 -0.1634  0.3689
  562MOL0     C75774   8.403  11.067   3.636  0.0448 -0.2628  0.6922
  562MOL0     C75775   8.287  11.173   3.661  0.4870 -0.1814 -0.2021
  562MOL0     C75776   8.316  11.276   3.773  0.3029  0.4233 -0.5924
  562MOL0     C75777   8.298  11.205   3.907 -0.9653 -0.3171 -1.4299
  562MOL0     C75778   8.366  11.287   4.016 -0.8122  0.6396  0.0075
  562MOL0     C75779   8.302  11.422   4.046 -0.1269  1.1332  0.6251
  562MOL0    Cl75780   8.125  11.398   4.055 -0.2850 -0.3870  0.2442
  562MOL0     C75781   8.740  10.779   3.365 -0.5630 -0.0967 -0.2360
  562MOL0     C75782   8.826  10.679   3.331 -1.2270  0.3867 -0.0887
  562MOL0     O75783   8.932  10.355   3.519  0.2596 -0.4130 -0.0186
  562MOL0     C75784   8.995  10.119   3.368 -0.6524  0.3453 -0.8746
  562MOL0     C75785   9.060  10.006   3.314  0.3017  0.0731  0.3638
  562MOL0     N75786   9.399   9.308   3.263 -0.3998  0.2808  1.2231
  562MOL0     N75787   9.514   9.268   3.293 -0.3278 -0.6058 -0.4691
  562MOL0     C75788  10.561   9.101   2.818  0.2307 -0.2207 -0.3546
  562MOL0     C75789  10.685   9.133   2.768 -0.4015 -0.4120 -0.3682
  562MOL0     C75790  11.063   9.425   2.720  0.4141 -0.0203  0.0908
  562MOL0     C75791  11.029   9.395   2.587  0.6600 -0.2653 -0.0553
  562MOL0     C75792  11.107   9.455   2.492  1.4909 -0.8186 -0.5850
  562MOL0     C75793  11.203   9.551   2.520  0.9161  0.3154  0.3165
  562MOL0     O75794  11.284   9.605   2.425  0.1356 -0.1701  0.4088
  562MOL0     C75795  11.286   9.551   2.291  0.1864 -0.8250 -0.2784
  562MOL0     C75796  11.367   9.632   2.198 -0.1113 -0.3818  0.3346
  562MOL0     C75797  11.361   9.576   2.061 -0.9655 -0.1798  0.0550
  562MOL0     C75798  11.470   9.654   1.984 -0.5358  0.3623 -0.5895
  562MOL0     C75799  11.433   9.795   1.959 -0.1319  0.0860 -0.1037
  562MOL0     C75800  11.383   9.907   1.935  0.2324 -0.0090 -1.2763
  562MOL0     C75801  11.230   9.593   2.645 -1.0194 -0.1282 -0.2728
  562MOL0     C75802  11.159   9.525   2.745  0.5133  0.2927 -1.1414
  562MOL0     H75803  10.775   9.346   3.015  1.8295  0.6145 -1.6132
  562MOL0     H75804  10.578   9.266   3.118  1.9302  2.4105  0.1703
  562MOL0     H75805  10.385   8.918   3.112  1.7750 -0.9568  0.0579
  562MOL0     H75806  10.521   9.009   3.168  0.0999 -3.4510  1.3520
  562MOL0     H75807  10.314   9.013   3.333  3.4723  1.5170  1.0186
  562MOL0     H75808  10.348   9.171   3.267  0.7413  0.6112 -1.6131
  562MOL0     H75809  10.175   9.115   3.068 -0.9984 -1.3272 -0.0739
  562MOL0     H75810  10.145   8.970   3.165  1.1828 -0.5682 -0.7530
  562MOL0     H75811  10.103   9.121   3.365  1.8605 -1.5241 -0.8780
  562MOL0     H75812  10.121   9.259   3.257  1.5257 -0.4371  1.4301
  562MOL0     H75813   9.939   9.152   3.105  2.5171 -0.9790  0.0488
  562MOL0     H75814   9.899   9.042   3.225 -1.1762  0.8708  1.9911
  562MOL0     H75815   9.903   9.349   3.266  0.0515 -0.0421  0.4896
  562MOL0     H75816   9.763   9.266   3.195  1.1264 -1.7229 -0.2982
  562MOL0     H75817   9.754   9.119   3.401  4.5900 -1.4202 -0.0644
  562MOL0     H75818   9.878   9.215   3.473 -2.5561  1.0802  3.1330
  562MOL0     H75819   9.733   9.420   3.495 -1.3595  1.5303  0.6483
  562MOL0     H75820   9.632   9.296   3.547 -2.6244  0.7838 -1.2735
  562MOL0     H75821   9.509   9.564   3.437  0.6384 -0.0558  1.6333
  562MOL0     H75822   9.172   9.463   3.287  0.4699  0.1308 -2.0279
  562MOL0     H75823   9.262   9.606   3.348  2.1372  1.9002 -2.2579
  562MOL0     H75824   9.187   9.568   3.076 -0.8742  2.1138  1.4791
  562MOL0     H75825   9.359   9.505   3.076  1.7956  0.8933  0.8803
  562MOL0     H75826   9.328   9.738   3.006  0.7960 -0.3074  0.7512
  562MOL0     H75827   9.409   9.746   3.163  1.1239 -2.2898  1.4900
  562MOL0     H75828   9.182   9.777   3.268  2.7282  1.5288  1.2745
  562MOL0     H75829   9.107   9.775   3.104  0.2080 -0.4657  0.3484
  562MOL0     H75830   9.247  10.187   3.095  0.9951 -2.3308 -0.2445
  562MOL0     H75831   9.219  10.406   3.124  0.1634 -1.9357 -0.3146
  562MOL0     H75832   9.036  10.427   3.085 -0.6801  2.9031  1.6377
  562MOL0     H75833   9.117  10.492   3.231 -1.0521 -0.8293  1.0636
  562MOL0     H75834   8.660  10.408   3.462  0.1327  0.0088  0.3497
  562MOL0     H75835   8.523  10.598   3.558  0.5956 -4.1852  1.3927
  562MOL0     H75836   8.632  11.039   3.504  1.7695 -1.9442 -0.4988
  562MOL0     H75837   8.569  10.984   3.347  1.3785  1.4438  0.3134
  562MOL0     H75838   8.440  11.158   3.450  0.9539 -0.3938  0.2881
  562MOL0     H75839   8.324  11.034   3.438 -0.6577 -0.2412  1.5426
  562MOL0     H75840   8.499  11.093   3.683 -1.6586  0.6641  3.9315
  562MOL0     H75841   8.377  10.968   3.676  0.6412 -1.2230 -1.1939
  562MOL0     H75842   8.257  11.233   3.575  2.7921  1.8327  0.3053
  562MOL0     H75843   8.196  11.125   3.699  0.0363  0.7810 -0.0313
  562MOL0     H75844   8.251  11.364   3.773 -1.2850 -0.7131 -0.2019
  562MOL0     H75845   8.417  11.316   3.757  1.2051 -1.4233  0.1328
  562MOL0     H75846   8.193  11.182   3.926 -0.8173 -1.0932 -1.5138
  562MOL0     H75847   8.348  11.108   3.912  0.0267  0.2294 -0.3739
  562MOL0     H75848   8.474  11.298   3.997 -0.3178 -3.8050 -0.8880
  562MOL0     H75849   8.360  11.223   4.105  1.3818 -0.2961 -0.4357
  562MOL0     H75850   8.319  11.496   3.967 -2.2810  0.7775 -0.2516
  562MOL0     H75851   8.334  11.458   4.145  1.1851 -1.6015  1.2935
  562MOL0     H75852   8.764  10.884   3.351 -0.8024  0.1985  1.3761
  562MOL0     H75853   8.905  10.700   3.260 -2.9313  1.3335 -1.7715
  562MOL0     H75854   8.934  10.095   3.455  1.1468 -1.2631  0.0046
  562MOL0     H75855   9.040   9.907   3.355  0.2572 -0.8264 -1.7140
  562MOL0     H75856  10.509   9.034   2.751 -1.1899 -1.1449  1.5635
  562MOL0     H75857  10.721   9.089   2.676  0.8286 -0.4526  0.1115
  562MOL0     H75858  10.956   9.319   2.561 -1.1168 -0.1697  3.9086
  562MOL0     H75859  11.098   9.419   2.390 -0.7869  4.0123 -2.3930
  562MOL0     H75860  11.330   9.451   2.298 -0.3470 -1.0980 -0.7401
  562MOL0     H75861  11.187   9.546   2.244 -1.2861  3.7853  1.7426
  562MOL0     H75862  11.470   9.629   2.235  0.8308  0.8387 -1.9289
  562MOL0     H75863  11.337   9.737   2.196 -0.7222 -0.5579  0.0843
  562MOL0     H75864  11.264   9.585   2.011  0.0370 -0.3234 -2.0231
  562MOL0     H75865  11.389   9.471   2.064  0.3911  0.1221 -0.8683
  562MOL0     H75866  11.504   9.596   1.898  1.5521  0.5565  0.0452
  562MOL0     H75867  11.562   9.664   2.042 -0.0419  2.9841 -1.6701
  562MOL0     H75868  11.332   9.999   1.916 -0.9702 -0.5939 -0.9947
  562MOL0     H75869  11.306   9.668   2.663  0.9427 -1.8254 -0.9858
  562MOL0     H75870  11.189   9.543   2.848 -1.0877  2.8064 -1.0406
  563MOL0     O75871   6.402   9.348   5.746 -0.4813  0.0533 -0.0435
  563MOL0     C75872   6.361   9.434   5.667 -0.3459 -0.4043 -0.3494
  563MOL0     O75873   6.419   9.558   5.657 -0.4357  0.3216 -0.3862
  563MOL0     C75874   6.516   9.607   5.743  0.0588 -0.1340 -0.2146
  563MOL0     C75875   6.513   9.592   5.883 -0.5701  0.0497 -0.0398
  563MOL0     C75876   6.617   9.660   5.962  0.5528 -0.0395  0.5939
  563MOL0     C75877   6.727   9.726   5.910 -0.4075 -0.1700  0.3958
  563MOL0     O75878   6.818   9.766   6.004  0.3829 -0.7050 -0.5086
  563MOL0     C75879   6.952   9.802   5.966  0.1905 -0.6596 -0.7635
  563MOL0     C75880   7.039   9.679   5.992 -0.1362  0.3621  0.0176
  563MOL0     C75881   7.185   9.701   5.979 -0.0160  0.9315 -0.4918
  563MOL0     C75882   7.248   9.796   6.078 -0.2041  0.4717  0.0347
  563MOL0     C75883   7.392   9.819   6.045 -0.1057 -0.1320 -0.2361
  563MOL0     C75884   7.452   9.943   6.109  0.4719  0.3468 -0.4981
  563MOL0     C75885   7.598   9.965   6.073 -0.0620  0.0649  0.8529
  563MOL0     C75886   7.696   9.892   6.169 -0.5926 -0.4079 -1.2821
  563MOL0     N75887   7.824   9.866   6.105 -0.2495 -0.1921 -0.1679
  563MOL0     C75888   7.930   9.958   6.113  0.5571 -0.6185 -0.7265
  563MOL0     C75889   8.027   9.903   6.041  0.0101 -0.1450  1.2990
  563MOL0     C75890   8.158   9.964   5.998 -0.2635 -0.9870  0.1079
  563MOL0     C75891   8.277   9.878   6.012  0.2740  0.4397  0.7187
  563MOL0     C75892   8.316   9.838   6.155 -0.3349  0.4558  0.2979
  563MOL0     C75893   8.405   9.721   6.145 -0.4453  0.0868  0.3717
  563MOL0     O75894   8.366   9.632   6.254  0.3379  0.4096  0.1701
  563MOL0     C75895   8.459   9.608   6.347  0.2125  0.2555 -0.5201
  563MOL0     C75896   8.526   9.711   6.423 -0.4058  0.5460 -0.9213
  563MOL0     C75897   8.624   9.673   6.523  0.1090 -0.2025  0.3605
  563MOL0     C75898   8.681   9.794   6.592  0.3886  0.5870 -0.1693
  563MOL0     C75899   8.657   9.544   6.550 -0.4711 -0.1343 -0.5039
  563MOL0     C75900   8.748   9.500   6.671 -0.0974  0.2571  0.4686
  563MOL0     O75901   8.753   9.361   6.681 -0.7975 -0.6098  0.1003
  563MOL0     C75902   8.852   9.292   6.743 -0.7717  0.8488 -0.5776
  563MOL0     C75903   8.966   9.246   6.672  0.6762 -0.2987  0.4358
  563MOL0     C75904   9.071   9.176   6.733 -0.2768  0.1242  0.0906
  563MOL0     C75905   9.063   9.136   6.865  0.4745 -0.2762  0.3300
  563MOL0     O75906   9.160   9.056   6.923  0.0428 -0.3044  0.2648
  563MOL0     C75907   9.298   9.083   6.898 -0.7322  0.2768 -0.0340
  563MOL0     C75908   9.384   8.985   6.986  0.8983 -1.0124 -0.0746
  563MOL0     C75909   9.532   9.016   6.951 -0.8783 -1.8284  0.5137
  563MOL0     C75910   9.635   8.943   7.038 -0.4125  0.3308 -0.4806
  563MOL0     C75911   9.786   8.960   6.996 -0.0677  0.2501 -0.3985
  563MOL0     C75912   9.817   8.929   6.848  0.4119 -0.2290  0.1377
  563MOL0     C75913   9.758   8.790   6.819  0.1205  0.1648  0.1755
  563MOL0     C75914   9.838   8.717   6.717  0.8692  0.7575  0.1465
  563MOL0    Cl75915   9.828   8.807   6.576  0.0906  0.2963 -0.0627
  563MOL0     C75916   8.940   9.169   6.931 -0.3691 -1.1109 -0.3470
  563MOL0     C75917   8.849   9.260   6.882  0.0328  0.2840  0.1072
  563MOL0     O75918   8.818   9.579   6.728 -0.0636  0.0200 -0.0962
  563MOL0     C75919   8.614   9.448   6.466  0.2007 -0.3805  0.2754
  563MOL0     C75920   8.515   9.480   6.368  1.4380  0.8501 -0.0565
  563MOL0     N75921   7.988   9.779   5.993 -0.1851 -0.2303 -0.3662
  563MOL0     N75922   7.856   9.771   6.013  0.1142  0.4312 -0.6808
  563MOL0     C75923   6.742   9.735   5.770 -0.5867 -0.1331  0.2229
  563MOL0     C75924   6.632   9.678   5.692  0.3363 -0.6820 -0.3294
  563MOL0     C75925   6.223   9.409   5.611  0.2187 -0.4936 -1.1121
  563MOL0     C75926   6.134   9.313   5.678 -0.0177  0.0846  0.9849
  563MOL0     C75927   6.017   9.271   5.613  0.2774 -0.5271  0.8968
  563MOL0     C75928   5.981   9.330   5.495 -0.1660 -1.0447  0.2520
  563MOL0     O75929   5.866   9.296   5.433  0.5823 -0.2539  0.7813
  563MOL0     C75930   5.842   9.160   5.410 -0.8409 -0.2160 -0.0656
  563MOL0     C75931   5.708   9.143   5.346  0.1999 -0.0270  0.7768
  563MOL0     C75932   5.684   8.996   5.326  0.0182 -0.3541  0.3415
  563MOL0     C75933   5.553   8.975   5.237 -0.1403 -0.0265 -1.5488
  563MOL0     C75934   5.439   8.891   5.291  0.1313  1.3099  0.5677
  563MOL0     C75935   5.343   8.831   5.341 -0.0781 -0.1215  0.2156
  563MOL0     C75936   6.059   9.439   5.443  0.4281 -0.1016  0.3248
  563MOL0     C75937   6.185   9.481   5.498 -1.0534  0.5232 -0.3525
  563MOL0     H75938   6.420   9.557   5.928 -0.0974 -4.6738 -2.0898
  563MOL0     H75939   6.612   9.664   6.071  1.0495  1.7022  0.5792
  563MOL0     H75940   6.968   9.830   5.862 -0.2017  0.7681 -0.4717
  563MOL0     H75941   6.988   9.880   6.035 -1.2552 -2.2626  1.9479
  563MOL0     H75942   7.011   9.643   6.091 -1.8219  0.0394 -0.5393
  563MOL0     H75943   7.011   9.601   5.920  1.1997  2.1120 -2.5398
  563MOL0     H75944   7.235   9.604   5.993 -2.9513 -0.7804 -0.9287
  563MOL0     H75945   7.214   9.749   5.885  1.5293  0.9735 -0.0241
  563MOL0     H75946   7.207   9.897   6.070 -1.0530  0.0032 -2.7692
  563MOL0     H75947   7.236   9.761   6.181  3.6665 -3.3434 -0.5066
  563MOL0     H75948   7.456   9.738   6.082  0.8823  0.6775 -0.1337
  563MOL0     H75949   7.419   9.826   5.939 -0.9247  1.1761 -0.3825
  563MOL0     H75950   7.403  10.036   6.077  0.1920 -0.9128 -4.2041
  563MOL0     H75951   7.440   9.930   6.217  1.9655 -1.9585 -0.5395
  563MOL0     H75952   7.604   9.916   5.975 -0.5023 -1.2424  1.4649
  563MOL0     H75953   7.629  10.069   6.060  3.5771 -1.1788 -2.2999
  563MOL0     H75954   7.654   9.796   6.202  0.3587 -0.1079  0.9111
  563MOL0     H75955   7.711   9.951   6.259  3.7919  3.0698 -3.8868
  563MOL0     H75956   7.926  10.056   6.159  0.1204  0.3262 -2.6504
  563MOL0     H75957   8.159   9.994   5.892 -1.1627  0.6119  0.5202
  563MOL0     H75958   8.181  10.052   6.059  2.3640 -0.3584 -1.6353
  563MOL0     H75959   8.364   9.930   5.972  0.8037 -2.7283 -2.7541
  563MOL0     H75960   8.257   9.795   5.945  1.1039  1.1629 -0.4596
  563MOL0     H75961   8.223   9.815   6.208 -1.9827  0.7688 -2.2690
  563MOL0     H75962   8.381   9.917   6.194 -1.4386  2.2356 -1.3072
  563MOL0     H75963   8.511   9.743   6.159 -0.4849  0.3992  0.1887
  563MOL0     H75964   8.388   9.669   6.050  2.2641 -1.8919  0.8559
  563MOL0     H75965   8.504   9.812   6.392 -1.9436 -0.0026 -1.7048
  563MOL0     H75966   8.624   9.880   6.556 -0.4491  0.0570 -0.1431
  563MOL0     H75967   8.670   9.774   6.699 -0.0961 -0.8850 -0.4671
  563MOL0     H75968   8.787   9.814   6.576  0.5071 -0.4386 -0.8021
  563MOL0     H75969   8.976   9.271   6.567  2.8265  1.2647  0.9494
  563MOL0     H75970   9.155   9.142   6.674 -1.1873 -0.7454 -0.7434
  563MOL0     H75971   9.326   9.054   6.796 -1.4746 -0.6502  0.0190
  563MOL0     H75972   9.333   9.185   6.918  0.5693 -0.4053  1.3155
  563MOL0     H75973   9.348   8.986   7.089 -1.9867 -1.1061 -0.9867
  563MOL0     H75974   9.358   8.886   6.948  1.2452 -1.6526  1.2958
  563MOL0     H75975   9.550   9.124   6.964  4.0969 -2.0215 -2.2830
  563MOL0     H75976   9.538   8.996   6.843  0.3628 -5.0797  1.0783
  563MOL0     H75977   9.632   8.974   7.143  2.1087  0.6743 -0.4508
  563MOL0     H75978   9.612   8.836   7.041 -3.0838  0.7951 -1.4995
  563MOL0     H75979   9.848   8.895   7.058 -2.9205 -1.2061  1.1085
  563MOL0     H75980   9.808   9.064   7.023 -1.8743  1.0307 -1.6973
  563MOL0     H75981   9.774   8.999   6.776  4.2904  0.4508 -1.7753
  563MOL0     H75982   9.923   8.937   6.822  0.0681  2.8936 -0.6269
  563MOL0     H75983   9.649   8.793   6.810 -0.2024 -1.8146  2.3185
  563MOL0     H75984   9.777   8.734   6.911  1.5765  2.9134  1.6948
  563MOL0     H75985   9.796   8.620   6.687  2.4307  0.9621 -3.1246
  563MOL0     H75986   9.943   8.707   6.746  1.1087  0.5587 -0.7430
  563MOL0     H75987   8.931   9.134   7.033 -3.5858  3.7439  1.3919
  563MOL0     H75988   8.773   9.295   6.951  0.3320 -0.5112  0.8529
  563MOL0     H75989   8.634   9.341   6.471 -4.2956 -1.4162 -0.2497
  563MOL0     H75990   8.477   9.398   6.308 -0.0576  2.0778 -0.8444
  563MOL0     H75991   6.826   9.771   5.711 -0.4817 -3.5632 -2.0142
  563MOL0     H75992   6.623   9.687   5.584 -3.8129  0.1997 -0.0911
  563MOL0     H75993   6.170   9.270   5.771 -0.3806  0.6841  1.4065
  563MOL0     H75994   5.942   9.202   5.652 -0.5171  1.3467  2.9138
  563MOL0     H75995   5.914   9.131   5.333 -1.0553 -1.8904  0.3310
  563MOL0     H75996   5.843   9.089   5.493  1.6781 -1.1622 -0.7929
  563MOL0     H75997   5.701   9.199   5.253 -0.0077 -0.1608  0.7112
  563MOL0     H75998   5.636   9.184   5.417  1.3909  0.1443  1.9399
  563MOL0     H75999   5.665   8.960   5.428  1.4754 -2.8873 -0.1954
  563MOL0     H76000   5.772   8.942   5.290  1.1752  0.3570  1.9775
  563MOL0     H76001   5.583   8.927   5.143  1.1270 -0.0435 -1.1608
  563MOL0     H76002   5.515   9.074   5.211 -3.5626 -0.2627  1.7114
  563MOL0     H76003   5.261   8.770   5.374 -1.0197  1.7101  1.4106
  563MOL0     H76004   6.027   9.498   5.358 -0.6477  0.3757  1.0418
  563MOL0     H76005   6.254   9.555   5.460 -2.8164  1.8076 -1.2331
  564MOL0     O76006   8.981   8.536   7.349 -0.3250 -0.4282  0.4575
  564MOL0     C76007   9.040   8.613   7.426 -0.0665  0.0776  0.6345
  564MOL0     O76008   8.975   8.715   7.485 -0.6372 -1.5133 -0.1168
  564MOL0     C76009   8.837   8.707   7.482 -0.5863 -0.1051  0.4221
  564MOL0     C76010   8.771   8.698   7.604  0.1282 -0.0974  0.0321
  564MOL0     C76011   8.635   8.735   7.609 -0.0898 -0.6682  0.0548
  564MOL0     C76012   8.568   8.773   7.492  0.3174 -0.5202  0.6015
  564MOL0     O76013   8.444   8.817   7.485 -0.5300 -0.2468  0.0903
  564MOL0     C76014   8.391   8.903   7.588  0.9974  0.4923  0.5971
  564MOL0     C76015   8.245   8.845   7.615 -0.0068  0.2354  0.2041
  564MOL0     C76016   8.156   8.852   7.495 -0.2472  0.3404 -1.0902
  564MOL0     C76017   8.021   8.791   7.525 -0.3818  0.3780 -0.7223
  564MOL0     C76018   7.933   8.793   7.395 -0.5453 -0.3396 -0.9737
  564MOL0     C76019   7.791   8.745   7.418  0.7900  1.5276 -0.0662
  564MOL0     C76020   7.781   8.590   7.430 -0.0719  0.3934 -0.5123
  564MOL0     C76021   7.784   8.520   7.299 -0.6085 -0.0779  0.2291
  564MOL0     N76022   7.729   8.387   7.299  0.3479 -0.1180 -0.8607
  564MOL0     C76023   7.606   8.351   7.261  0.0805 -0.2864  0.0269
  564MOL0     C76024   7.612   8.221   7.284  0.6417  0.6790  0.4436
  564MOL0     C76025   7.497   8.131   7.254  0.1839 -0.0454 -0.7314
  564MOL0     C76026   7.377   8.147   7.350 -0.7940  0.4490  0.4297
  564MOL0     C76027   7.289   8.014   7.340  0.0431  0.3408  0.1584
  564MOL0     C76028   7.236   7.999   7.200  1.1485  0.4027 -0.7324
  564MOL0     O76029   7.148   7.884   7.203  0.0497  0.4765 -0.4363
  564MOL0     C76030   7.061   7.867   7.100 -0.4254 -0.6329 -0.2627
  564MOL0     C76031   7.044   7.946   6.982  0.4719 -0.4816 -1.1417
  564MOL0     C76032   6.946   7.930   6.887 -0.5869 -0.1438 -0.5811
  564MOL0     C76033   6.929   8.030   6.769  1.0829 -0.5524 -0.6541
  564MOL0     C76034   6.867   7.814   6.898  0.2849 -0.1573 -0.2756
  564MOL0     C76035   6.784   7.768   6.776 -0.2023  0.4241 -0.4334
  564MOL0     O76036   6.828   7.659   6.701 -0.0864  0.5589  0.3120
  564MOL0     C76037   6.748   7.634   6.598  0.2474 -0.2517 -1.1124
  564MOL0     C76038   6.633   7.552   6.630 -0.3077 -0.7940  0.0277
  564MOL0     C76039   6.552   7.527   6.524 -0.5283  0.2940  1.0852
  564MOL0     C76040   6.576   7.565   6.393 -0.7177 -0.3986 -0.2601
  564MOL0     O76041   6.496   7.526   6.293  0.1894  0.1441  0.3032
  564MOL0     C76042   6.565   7.472   6.175 -0.5866 -0.1697 -0.0338
  564MOL0     C76043   6.465   7.411   6.077 -0.5515  0.4557 -0.3544
  564MOL0     C76044   6.529   7.284   6.013 -0.3011  0.0489  0.3232
  564MOL0     C76045   6.417   7.198   5.944  0.5130 -0.3769  0.4744
  564MOL0     C76046   6.466   7.075   5.857 -0.9328  1.5252  1.0421
  564MOL0     C76047   6.337   7.017   5.787 -0.2203  0.0968  0.0453
  564MOL0     C76048   6.364   6.879   5.754 -0.5372  0.3265 -0.4626
  564MOL0     C76049   6.245   6.805   5.680 -0.4174 -0.6807  0.4082
  564MOL0    Cl76050   6.180   6.906   5.533  0.1325  0.1292 -0.1649
  564MOL0     C76051   6.699   7.636   6.365 -0.1129 -1.4447  0.3075
  564MOL0     C76052   6.792   7.673   6.470  0.9331  0.7899 -0.2255
  564MOL0     O76053   6.682   7.835   6.750  0.2061 -0.0051  0.0635
  564MOL0     C76054   6.880   7.734   7.016  0.5622  0.1322  0.7545
  564MOL0     C76055   6.980   7.758   7.114  0.1050  0.1320 -0.2365
  564MOL0     N76056   7.732   8.180   7.339  0.9918  0.0035  0.1424
  564MOL0     N76057   7.805   8.286   7.336 -0.5778 -0.0541  0.0414
  564MOL0     C76058   8.629   8.777   7.371 -0.0807  0.1781 -0.3851
  564MOL0     C76059   8.765   8.737   7.359  0.5597 -0.5440 -0.2342
  564MOL0     C76060   9.181   8.603   7.445  0.8109 -0.6196 -0.2333
  564MOL0     C76061   9.262   8.701   7.512  0.6272 -0.6921 -0.4315
  564MOL0     C76062   9.401   8.678   7.546  0.5131 -0.0064 -0.9829
  564MOL0     C76063   9.458   8.557   7.509 -0.5516  0.2449  0.1869
  564MOL0     O76064   9.590   8.527   7.538  0.2731 -0.2359 -0.2182
  564MOL0     C76065   9.673   8.602   7.455  0.8209 -0.2753 -0.6157
  564MOL0     C76066   9.802   8.620   7.532 -0.6796 -0.5868  0.7874
  564MOL0     C76067   9.861   8.488   7.592  0.5225 -1.1690  0.5370
  564MOL0     C76068  10.003   8.513   7.610  0.3019 -0.4888  1.0748
  564MOL0     C76069  10.077   8.406   7.684  0.7698  0.0518  0.0171
  564MOL0     C76070  10.128   8.316   7.746  0.2747  0.5828 -0.0361
  564MOL0     C76071   9.389   8.453   7.451 -0.0853  0.0327  0.4761
  564MOL0     C76072   9.251   8.477   7.412 -0.4608 -0.0600  0.2143
  564MOL0     H76073   8.824   8.677   7.696 -1.9478 -1.2253  1.0477
  564MOL0     H76074   8.575   8.726   7.700 -3.1101  0.9446 -1.6102
  564MOL0     H76075   8.461   8.912   7.671  0.9660 -0.0874  0.6947
  564MOL0     H76076   8.374   9.002   7.545 -1.7066  0.2665  0.9432
  564MOL0     H76077   8.254   8.741   7.649  1.4820  0.1385 -0.4151
  564MOL0     H76078   8.202   8.901   7.698 -0.7003  1.3086 -0.8575
  564MOL0     H76079   8.134   8.957   7.475  2.8182  1.6073  1.2889
  564MOL0     H76080   8.196   8.811   7.402 -0.5669  2.0297 -2.0000
  564MOL0     H76081   8.039   8.691   7.564  1.1308  1.0289  0.3709
  564MOL0     H76082   7.976   8.847   7.608 -0.3133 -1.1660  0.4101
  564MOL0     H76083   7.931   8.899   7.365  2.9124  0.6607  1.6472
  564MOL0     H76084   7.981   8.741   7.312 -1.7752  0.8874 -2.5195
  564MOL0     H76085   7.756   8.784   7.514 -0.4207  0.4875 -0.0506
  564MOL0     H76086   7.723   8.787   7.342  1.2347  2.2874 -0.0535
  564MOL0     H76087   7.863   8.567   7.498 -1.9744 -2.0229  1.1213
  564MOL0     H76088   7.689   8.560   7.481 -1.1704  1.4781 -1.7715
  564MOL0     H76089   7.890   8.524   7.274 -0.2767 -0.1745  1.5510
  564MOL0     H76090   7.728   8.578   7.225  0.3680 -2.1852 -2.3295
  564MOL0     H76091   7.516   8.401   7.228 -1.2949 -1.3333  2.0103
  564MOL0     H76092   7.463   8.164   7.155  0.5814  3.2101  0.1025
  564MOL0     H76093   7.515   8.024   7.259 -4.0287 -0.9118 -0.0304
  564MOL0     H76094   7.314   8.234   7.330 -1.7293  0.9735  4.6663
  564MOL0     H76095   7.411   8.175   7.450 -0.3247  2.3957 -0.2357
  564MOL0     H76096   7.207   8.028   7.410  0.3319  0.0692  0.5566
  564MOL0     H76097   7.349   7.928   7.373  1.8166  1.4634 -0.0325
  564MOL0     H76098   7.321   7.982   7.134  2.3662 -1.1605  1.1254
  564MOL0     H76099   7.188   8.089   7.160  0.0434  0.4603  0.6158
  564MOL0     H76100   7.102   8.037   6.967  0.6073 -0.5402 -0.9785
  564MOL0     H76101   6.964   7.980   6.678 -0.3118 -2.9083 -0.0087
  564MOL0     H76102   6.821   8.048   6.760  0.1776 -2.0136  4.0217
  564MOL0     H76103   6.976   8.128   6.773 -1.9770  1.1032 -1.9165
  564MOL0     H76104   6.612   7.521   6.732  0.5141 -3.3259 -0.4820
  564MOL0     H76105   6.457   7.475   6.530  1.3834 -4.2876 -2.4117
  564MOL0     H76106   6.618   7.548   6.116  1.4217 -0.9775  0.6495
  564MOL0     H76107   6.626   7.385   6.200  0.8728 -0.3300 -3.5128
  564MOL0     H76108   6.372   7.389   6.129  0.8718  1.2983  2.7778
  564MOL0     H76109   6.452   7.484   5.995 -0.4259 -0.6563 -1.3947
  564MOL0     H76110   6.590   7.228   6.085 -1.6771 -0.7772  0.8913
  564MOL0     H76111   6.600   7.319   5.938 -1.6210  1.3619 -0.3551
  564MOL0     H76112   6.358   7.168   6.032  0.8773  2.0263  1.6235
  564MOL0     H76113   6.360   7.265   5.879  4.0744  1.2070 -1.2742
  564MOL0     H76114   6.507   7.008   5.933 -2.5875  0.5687  1.1574
  564MOL0     H76115   6.547   7.107   5.791 -1.2547  0.2103 -0.0479
  564MOL0     H76116   6.248   6.999   5.847 -2.2733 -1.6957 -3.2369
  564MOL0     H76117   6.327   7.088   5.704  2.2136  0.3057 -0.1390
  564MOL0     H76118   6.379   6.821   5.846 -0.9936 -0.3289 -0.7898
  564MOL0     H76119   6.460   6.873   5.702 -0.1560  2.0672 -0.0030
  564MOL0     H76120   6.168   6.783   5.754 -0.2887 -0.2164  0.6801
  564MOL0     H76121   6.276   6.707   5.642  3.6131 -0.4244  2.4950
  564MOL0     H76122   6.729   7.670   6.267  1.5131 -2.3257  0.4633
  564MOL0     H76123   6.883   7.731   6.465  1.1035  1.6660  5.8245
  564MOL0     H76124   6.825   7.643   7.039  0.2820  0.4395  1.3228
  564MOL0     H76125   6.973   7.703   7.207  0.0312 -0.9627 -0.8686
  564MOL0     H76126   8.574   8.828   7.292  1.7326  1.4527 -0.8893
  564MOL0     H76127   8.819   8.743   7.266 -0.0748 -2.5062 -0.7846
  564MOL0     H76128   9.221   8.798   7.535  1.8022 -0.1930 -0.3791
  564MOL0     H76129   9.454   8.761   7.592  0.8545  0.5648 -2.3259
  564MOL0     H76130   9.696   8.550   7.361  1.3928  0.7520 -1.0538
  564MOL0     H76131   9.635   8.700   7.428 -2.0553 -0.5226  2.0384
  564MOL0     H76132   9.784   8.689   7.615  0.8230 -0.1944  0.8268
  564MOL0     H76133   9.870   8.665   7.458 -0.8743  1.3591  1.7355
  564MOL0     H76134   9.837   8.405   7.524 -0.9078  0.8382 -1.5435
  564MOL0     H76135   9.799   8.478   7.681 -4.8058  4.1629 -1.9164
  564MOL0     H76136  10.012   8.606   7.668  0.5815 -0.1553  0.5113
  564MOL0     H76137  10.051   8.547   7.517 -0.9989 -0.3756  0.4194
  564MOL0     H76138  10.184   8.239   7.795 -0.8494 -0.1380  0.1556
  564MOL0     H76139   9.446   8.367   7.416  2.9979  1.5669  1.3953
  564MOL0     H76140   9.192   8.406   7.355 -0.6234  1.8604 -2.1462
  565MOL0     O76141   3.119   4.946   7.849  1.1284 -0.1094  0.2826
  565MOL0     C76142   3.145   4.936   7.731  0.2011 -1.1704  0.2258
  565MOL0     O76143   3.058   4.908   7.633  0.2545  0.5772  0.1739
  565MOL0     C76144   2.928   4.873   7.661  0.0161  0.2214  0.8925
  565MOL0     C76145   2.897   4.758   7.734 -0.1992 -1.1945  0.2474
  565MOL0     C76146   2.754   4.728   7.758  0.8929  0.0112 -0.1543
  565MOL0     C76147   2.661   4.799   7.684  0.1837 -0.0611 -0.4004
  565MOL0     O76148   2.526   4.777   7.712 -0.6027 -0.3043  0.1179
  565MOL0     C76149   2.462   4.654   7.687 -0.8887 -0.3008  0.8533
  565MOL0     C76150   2.317   4.649   7.713 -1.0095 -0.8439  0.7946
  565MOL0     C76151   2.234   4.778   7.672 -1.1539 -0.2507  0.1998
  565MOL0     C76152   2.078   4.757   7.685  0.1946  0.2068 -0.2869
  565MOL0     C76153   1.998   4.887   7.649 -0.6359 -0.2256  0.2488
  565MOL0     C76154   1.846   4.875   7.668  0.9863 -0.2478 -0.6094
  565MOL0     C76155   1.785   4.770   7.569  0.2598 -1.1940  0.9586
  565MOL0     C76156   1.678   4.687   7.634  1.5335  0.1161 -0.6728
  565MOL0     N76157   1.689   4.541   7.595  0.5350  0.1502 -0.6853
  565MOL0     C76158   1.675   4.491   7.474 -0.0422 -0.5686  0.5429
  565MOL0     C76159   1.683   4.357   7.489  0.0060 -0.2333  0.9019
  565MOL0     C76160   1.678   4.264   7.375  0.2729  0.0139  0.8408
  565MOL0     C76161   1.564   4.162   7.402  0.8061 -0.1318  0.2942
  565MOL0     C76162   1.526   4.082   7.281  0.2392  0.1350  0.9854
  565MOL0     C76163   1.402   3.982   7.292 -0.2892 -0.2757  0.2585
  565MOL0     O76164   1.431   3.880   7.387 -0.3067 -0.1663  0.3223
  565MOL0     C76165   1.331   3.791   7.434 -0.5367 -1.2416 -0.3390
  565MOL0     C76166   1.350   3.705   7.547  0.1447  0.3655 -0.2371
  565MOL0     C76167   1.247   3.615   7.586  0.5093  0.0797 -0.4941
  565MOL0     C76168   1.250   3.553   7.726  0.2168 -0.8613  0.1946
  565MOL0     C76169   1.132   3.609   7.504 -0.5081 -0.0577  0.3121
  565MOL0     C76170   1.021   3.529   7.552 -0.0030 -0.3922  0.4658
  565MOL0     O76171   0.904   3.600   7.565  0.0847  0.2178  0.2267
  565MOL0     C76172   0.788   3.550   7.624 -0.1396 -0.0792  0.1981
  565MOL0     C76173   0.773   3.470   7.739 -0.3723  0.1617  0.5865
  565MOL0     C76174   0.643   3.409   7.761 -0.4752  0.7510 -0.1094
  565MOL0     C76175   0.535   3.430   7.675  0.4265 -0.2146 -0.2141
  565MOL0     O76176   0.410   3.363   7.686 -0.1526  0.5161  0.5852
  565MOL0     C76177   0.409   3.236   7.757  0.1456  0.2338 -0.5271
  565MOL0     C76178   0.286   3.162   7.719 -0.4368  0.5589 -0.3675
  565MOL0     C76179   0.288   3.017   7.785 -0.0025 -0.1730 -0.3124
  565MOL0     C76180   0.146   2.952   7.786 -0.2694  0.8245  0.1108
  565MOL0     C76181   0.119   2.830   7.872  0.1705 -0.0700  0.8357
  565MOL0     C76182  -0.036   2.816   7.901 -0.9605  0.4843  0.0824
  565MOL0     C76183  -0.088   2.762   7.767  0.1011 -0.8498  0.3372
  565MOL0     C76184  -0.238   2.750   7.778  0.4118 -0.3662 -0.1044
  565MOL0    Cl76185  -0.313   2.902   7.828  0.0965  0.4217  0.0124
  565MOL0     C76186   0.554   3.525   7.573  0.1791  0.4283  0.9709
  565MOL0     C76187   0.674   3.584   7.555  0.0710  0.7133  0.6902
  565MOL0     O76188   1.034   3.409   7.581  0.4119 -0.4434 -0.3013
  565MOL0     C76189   1.113   3.685   7.380 -0.1184 -0.8979 -0.4125
  565MOL0     C76190   1.213   3.781   7.348 -1.0927  0.7269 -0.6887
  565MOL0     N76191   1.692   4.328   7.625  0.1782 -0.2225  0.3600
  565MOL0     N76192   1.698   4.440   7.686  0.6576  0.5020 -0.1505
  565MOL0     C76193   2.693   4.900   7.601 -1.0490 -0.2057  0.2182
  565MOL0     C76194   2.827   4.943   7.591  0.4860 -0.2524 -0.1030
  565MOL0     C76195   3.290   4.949   7.694  0.9480 -0.7541  0.1573
  565MOL0     C76196   3.377   5.009   7.787  0.5049  0.0317  0.0812
  565MOL0     C76197   3.507   5.038   7.746 -0.3598  0.2842  0.5800
  565MOL0     C76198   3.556   5.000   7.618  0.4389 -0.3030  0.4368
  565MOL0     O76199   3.693   5.014   7.593 -0.1024 -0.3545  0.0431
  565MOL0     C76200   3.725   5.008   7.454 -0.3295  0.4153 -0.4939
  565MOL0     C76201   3.880   5.034   7.464 -0.7576 -0.4298  0.2636
  565MOL0     C76202   3.952   5.037   7.330  0.5107 -0.4824  0.4606
  565MOL0     C76203   4.099   5.100   7.338  0.0617 -0.2052 -0.6869
  565MOL0     C76204   4.200   5.004   7.315 -0.3054  0.0951  0.5210
  565MOL0     C76205   4.291   4.921   7.304 -0.0086  0.1931  0.0400
  565MOL0     C76206   3.461   4.963   7.517  0.4088 -0.1982 -0.0888
  565MOL0     C76207   3.329   4.928   7.563  0.0933 -0.5930 -0.5115
  565MOL0     H76208   2.971   4.705   7.793  2.0340  0.7322 -0.6293
  565MOL0     H76209   2.734   4.654   7.835 -0.0988  0.4724  0.0474
  565MOL0     H76210   2.472   4.642   7.578 -1.7688  1.2811  0.5756
  565MOL0     H76211   2.518   4.582   7.747 -0.9825  0.7165  2.1945
  565MOL0     H76212   2.276   4.557   7.671  0.1947 -0.8281 -0.4869
  565MOL0     H76213   2.296   4.640   7.820 -2.3203 -0.5568  0.5856
  565MOL0     H76214   2.272   4.860   7.735  2.1819 -1.6542  0.2393
  565MOL0     H76215   2.260   4.807   7.570  0.7893  1.0122  0.9891
  565MOL0     H76216   2.056   4.675   7.616  0.6190 -1.3386  1.3455
  565MOL0     H76217   2.051   4.729   7.787 -2.3549  1.0288 -0.6508
  565MOL0     H76218   2.044   4.960   7.716 -0.2391 -0.6707  0.4638
  565MOL0     H76219   2.023   4.917   7.547 -0.3623 -0.1873  0.3280
  565MOL0     H76220   1.833   4.866   7.777  0.1558 -0.0024 -0.6837
  565MOL0     H76221   1.801   4.972   7.646 -1.3133 -1.1660 -0.2499
  565MOL0     H76222   1.746   4.811   7.476 -0.1212  0.8047  1.9576
  565MOL0     H76223   1.866   4.701   7.543 -0.0673 -3.2736  4.7115
  565MOL0     H76224   1.587   4.718   7.581  1.8333  1.2812 -0.5350
  565MOL0     H76225   1.668   4.704   7.742  1.6934  0.9321 -0.7743
  565MOL0     H76226   1.659   4.538   7.378  2.0086 -2.6098 -0.9310
  565MOL0     H76227   1.649   4.314   7.282  3.0042 -1.4246 -0.9168
  565MOL0     H76228   1.770   4.208   7.357 -1.1494 -2.3094  0.2612
  565MOL0     H76229   1.472   4.217   7.421  0.6378  1.1181 -3.3648
  565MOL0     H76230   1.588   4.093   7.483 -3.7749 -2.0885  0.2799
  565MOL0     H76231   1.605   4.015   7.246 -0.8479 -0.2766 -0.8009
  565MOL0     H76232   1.502   4.147   7.196 -0.4563 -2.8216 -1.2191
  565MOL0     H76233   1.384   3.936   7.195 -1.2473  0.3277  0.1365
  565MOL0     H76234   1.313   4.040   7.319  0.5142  0.8438  0.5716
  565MOL0     H76235   1.439   3.709   7.608 -0.0784 -0.1244  0.1341
  565MOL0     H76236   1.354   3.542   7.756  0.3876 -3.6727 -1.1198
  565MOL0     H76237   1.186   3.610   7.794  0.4841 -1.0040  0.5630
  565MOL0     H76238   1.213   3.449   7.725  1.6215 -1.3759  0.2845
  565MOL0     H76239   0.847   3.444   7.814  0.6442  2.5425  0.5027
  565MOL0     H76240   0.620   3.364   7.857  1.9529  1.0697  0.6680
  565MOL0     H76241   0.497   3.173   7.744  1.0260  1.3703 -0.2909
  565MOL0     H76242   0.399   3.257   7.864  1.1557  0.5985 -0.4912
  565MOL0     H76243   0.196   3.216   7.749 -3.4255 -2.2007 -3.5036
  565MOL0     H76244   0.279   3.158   7.610 -2.6942  1.0887 -0.2716
  565MOL0     H76245   0.318   3.044   7.887  0.5166  2.3704 -1.0722
  565MOL0     H76246   0.364   2.951   7.741  4.5946  2.6182  2.5128
  565MOL0     H76247   0.069   3.021   7.822 -2.4839 -1.7947  0.7516
  565MOL0     H76248   0.115   2.918   7.686 -3.5330  0.0101  1.2860
  565MOL0     H76249   0.175   2.838   7.966 -0.4348 -0.2661  1.2239
  565MOL0     H76250   0.150   2.744   7.812  0.9884  2.0066 -1.9172
  565MOL0     H76251  -0.053   2.746   7.983 -0.3934 -0.3373 -0.4809
  565MOL0     H76252  -0.080   2.906   7.944 -2.2366 -0.6496  1.2561
  565MOL0     H76253  -0.039   2.668   7.742  0.9302 -0.6989  1.3213
  565MOL0     H76254  -0.063   2.834   7.688  3.1950  1.8712  3.4553
  565MOL0     H76255  -0.253   2.674   7.855  1.1119  0.8188  1.2542
  565MOL0     H76256  -0.277   2.702   7.688  1.4847 -2.8943  0.6982
  565MOL0     H76257   0.467   3.560   7.518  0.8191  1.6484  0.7108
  565MOL0     H76258   0.670   3.658   7.476  0.8020  0.7002  0.6372
  565MOL0     H76259   1.026   3.680   7.316 -0.0584  1.9273 -0.8769
  565MOL0     H76260   1.204   3.831   7.252  2.1735 -0.8506 -1.9595
  565MOL0     H76261   2.615   4.945   7.540 -3.1306 -2.1713  1.2574
  565MOL0     H76262   2.847   5.035   7.537  2.0160 -0.3908  0.1831
  565MOL0     H76263   3.361   5.041   7.889  1.9273  1.5025 -0.1118
  565MOL0     H76264   3.590   5.070   7.809  0.5676 -0.6945 -0.0968
  565MOL0     H76265   3.699   4.911   7.411  1.4188  0.1901 -1.1290
  565MOL0     H76266   3.673   5.093   7.409 -1.5597 -0.0337  0.0274
  565MOL0     H76267   3.933   4.973   7.538  1.1298  1.8704  0.9067
  565MOL0     H76268   3.899   5.138   7.492 -0.3625 -0.0263 -1.3919
  565MOL0     H76269   3.890   5.096   7.262  0.5642  2.3252  2.7029
  565MOL0     H76270   3.957   4.929   7.308 -2.1102 -0.7635  0.9106
  565MOL0     H76271   4.119   5.140   7.438 -0.5033 -2.5811  0.4509
  565MOL0     H76272   4.101   5.186   7.271  0.7923  0.3100 -0.0201
  565MOL0     H76273   4.366   4.846   7.287 -1.0857 -1.6097  2.6272
  565MOL0     H76274   3.483   4.942   7.412  1.5710 -0.5775  0.2240
  565MOL0     H76275   3.255   4.889   7.494 -1.4841  0.1601  0.6880
  566MOL0     O76276   2.021   1.800   3.006 -0.4212  0.3231 -0.2693
  566MOL0     C76277   2.070   1.815   3.116 -0.6864  0.4199 -0.3359
  566MOL0     O76278   2.007   1.794   3.236 -0.6571  0.2264 -0.2805
  566MOL0     C76279   1.870   1.784   3.231 -0.1886  0.7127  0.9368
  566MOL0     C76280   1.803   1.881   3.294  0.4642 -0.0137 -0.3351
  566MOL0     C76281   1.667   1.892   3.302  0.2305  0.3435 -0.5872
  566MOL0     C76282   1.587   1.791   3.256  0.1590 -0.6889 -0.4998
  566MOL0     O76283   1.447   1.807   3.259  0.0265 -0.4537  0.2153
  566MOL0     C76284   1.374   1.698   3.201 -0.2750  0.2253  0.4906
  566MOL0     C76285   1.230   1.751   3.213  0.4802 -0.3023 -0.2072
  566MOL0     C76286   1.115   1.653   3.180 -0.0485  1.0252  0.4058
  566MOL0     C76287   0.986   1.730   3.208  0.9748  0.3200  0.5688
  566MOL0     C76288   0.867   1.640   3.211  0.2015  0.0784 -0.1559
  566MOL0     C76289   0.752   1.722   3.272  0.3980  0.7119 -0.0587
  566MOL0     C76290   0.622   1.635   3.296 -0.7348  0.3598  0.2877
  566MOL0     C76291   0.516   1.726   3.354  1.2387 -0.1826 -0.0138
  566MOL0     N76292   0.379   1.662   3.365 -0.5875 -0.1983 -0.1407
  566MOL0     C76293   0.287   1.678   3.260  0.0819 -0.4491 -0.0323
  566MOL0     C76294   0.170   1.647   3.326 -0.3299 -0.3192 -0.2771
  566MOL0     C76295   0.028   1.663   3.272 -0.0502  0.0754 -0.5053
  566MOL0     C76296   0.014   1.791   3.173  0.6497  0.1316 -0.3942
  566MOL0     C76297  -0.130   1.789   3.123  0.0623 -1.0675  0.7175
  566MOL0     C76298  -0.158   1.924   3.069  0.1453  0.3817  0.2096
  566MOL0     O76299  -0.291   1.916   3.024 -0.5778  0.5776  0.0972
  566MOL0     C76300  -0.332   2.004   2.925 -0.8586  0.1932  0.5576
  566MOL0     C76301  -0.259   2.101   2.867 -0.6644  0.0042  0.4499
  566MOL0     C76302  -0.310   2.197   2.782  1.3079  0.0991 -0.7401
  566MOL0     C76303  -0.199   2.288   2.734  0.8922 -0.4514  0.0938
  566MOL0     C76304  -0.440   2.185   2.724 -0.0981 -0.0268  0.2687
  566MOL0     C76305  -0.499   2.278   2.619  0.1521 -0.0682 -0.6475
  566MOL0     O76306  -0.431   2.280   2.504  0.5486  0.1743  0.4391
  566MOL0     C76307  -0.504   2.340   2.403  0.1092 -0.1950 -0.2867
  566MOL0     C76308  -0.485   2.475   2.372 -0.3609  0.3310 -0.8355
  566MOL0     C76309  -0.558   2.540   2.276  0.3288 -0.2180 -0.3686
  566MOL0     C76310  -0.668   2.476   2.218 -0.6815 -0.0541  0.0391
  566MOL0     O76311  -0.744   2.548   2.124  0.3423  0.5519  0.0295
  566MOL0     C76312  -0.887   2.517   2.118 -0.1462 -1.0193 -0.0838
  566MOL0     C76313  -0.968   2.639   2.070 -0.1645 -0.6707 -0.1079
  566MOL0     C76314  -1.118   2.633   2.122 -0.8336  0.5026  0.9435
  566MOL0     C76315  -1.158   2.666   2.270  0.8162 -0.9164 -0.8692
  566MOL0     C76316  -1.310   2.690   2.294 -0.8475  0.5082  0.4472
  566MOL0     C76317  -1.339   2.727   2.437  0.2126 -0.1451 -0.3688
  566MOL0     C76318  -1.484   2.780   2.457 -0.3089 -0.4542  0.2067
  566MOL0     C76319  -1.605   2.690   2.419  0.1120 -0.8779 -0.7156
  566MOL0    Cl76320  -1.765   2.772   2.440  0.0385  0.1183  0.0036
  566MOL0     C76321  -0.699   2.347   2.250 -0.5850  0.2768 -0.2088
  566MOL0     C76322  -0.611   2.278   2.337 -0.5635  0.4495  0.6095
  566MOL0     O76323  -0.588   2.356   2.651 -0.2868 -0.2621 -0.4145
  566MOL0     C76324  -0.507   2.071   2.765  0.0117  0.2607 -0.2890
  566MOL0     C76325  -0.457   1.989   2.870 -0.3135  0.3607 -0.2575
  566MOL0     N76326   0.200   1.617   3.459 -1.1328 -0.0334 -0.0619
  566MOL0     N76327   0.325   1.628   3.481  0.3791  0.4351 -0.7395
  566MOL0     C76328   1.656   1.675   3.200 -1.1275  0.1061 -0.6838
  566MOL0     C76329   1.794   1.675   3.180 -0.2881  0.7466 -0.1424
  566MOL0     C76330   2.216   1.849   3.116 -0.4650 -0.4274  0.1501
  566MOL0     C76331   2.263   1.941   3.213  0.3056  0.8336  0.2642
  566MOL0     C76332   2.396   1.993   3.200 -0.1570 -1.1956  0.7712
  566MOL0     C76333   2.485   1.947   3.098 -0.4571  0.8004  0.0738
  566MOL0     O76334   2.619   1.973   3.086  0.1928 -0.7162 -0.7553
  566MOL0     C76335   2.672   2.093   3.146  1.1726  0.2619  0.0255
  566MOL0     C76336   2.814   2.090   3.159 -0.1855 -0.0543  0.3208
  566MOL0     C76337   2.866   2.193   3.257 -0.6632 -0.0080  0.1959
  566MOL0     C76338   3.015   2.235   3.229  0.2069 -0.1086  0.2234
  566MOL0     C76339   3.015   2.299   3.096 -1.0843  0.3227 -0.4193
  566MOL0     C76340   3.034   2.347   2.990  0.1010  0.1759  0.5191
  566MOL0     C76341   2.440   1.851   3.011 -0.3921  0.1613 -0.1935
  566MOL0     C76342   2.312   1.802   3.018 -0.4329 -0.1047 -0.1983
  566MOL0     H76343   1.855   1.943   3.366 -0.5781 -0.3963  0.7843
  566MOL0     H76344   1.621   1.978   3.350  2.0035  1.8344 -1.4352
  566MOL0     H76345   1.387   1.694   3.093 -2.8638  3.0656 -0.0856
  566MOL0     H76346   1.389   1.599   3.246 -1.3358 -1.3362 -2.3619
  566MOL0     H76347   1.218   1.778   3.318 -2.0879 -3.5075  0.4780
  566MOL0     H76348   1.206   1.836   3.149  0.0855 -2.4144 -3.0450
  566MOL0     H76349   1.126   1.619   3.076  0.2283  0.2418  0.6877
  566MOL0     H76350   1.126   1.563   3.240 -0.7467 -0.6814 -1.8664
  566MOL0     H76351   0.983   1.774   3.308  0.4445 -0.2409  0.8055
  566MOL0     H76352   0.968   1.805   3.130 -0.1158  0.7165  1.1785
  566MOL0     H76353   0.842   1.610   3.109  0.0853 -1.4399  0.2955
  566MOL0     H76354   0.904   1.555   3.268 -0.8371 -2.6108 -3.2175
  566MOL0     H76355   0.778   1.764   3.370  0.9434  2.4278 -0.9171
  566MOL0     H76356   0.734   1.806   3.205 -0.2370 -0.4285 -1.3924
  566MOL0     H76357   0.579   1.586   3.208 -1.9325  0.9896  0.4977
  566MOL0     H76358   0.635   1.559   3.374  0.9007  0.1426 -0.1595
  566MOL0     H76359   0.513   1.817   3.293  1.0440 -1.2212 -1.6232
  566MOL0     H76360   0.547   1.755   3.455 -0.4146  1.3737  0.0855
  566MOL0     H76361   0.305   1.718   3.161 -1.1244 -1.7973 -0.8212
  566MOL0     H76362   0.012   1.574   3.210  3.8592  0.6598 -2.6973
  566MOL0     H76363  -0.038   1.673   3.359 -0.1266 -1.6645 -0.3363
  566MOL0     H76364   0.087   1.791   3.091 -0.0258  1.1011 -1.0110
  566MOL0     H76365   0.029   1.881   3.234 -0.3754 -1.0165  1.6802
  566MOL0     H76366  -0.206   1.764   3.198 -3.6129 -1.3222 -2.7350
  566MOL0     H76367  -0.138   1.724   3.035 -0.3687  0.4841 -0.4337
  566MOL0     H76368  -0.094   1.948   2.983  1.7750  2.9656  1.9773
  566MOL0     H76369  -0.149   2.012   3.134 -1.3511  0.3896  0.4505
  566MOL0     H76370  -0.162   2.120   2.913 -0.3083  1.4221 -0.8140
  566MOL0     H76371  -0.166   2.355   2.814  3.3560  0.1782 -1.3409
  566MOL0     H76372  -0.110   2.230   2.711 -0.3991 -2.3174 -0.4548
  566MOL0     H76373  -0.225   2.351   2.648 -3.2312 -0.0773  1.3738
  566MOL0     H76374  -0.423   2.524   2.446  0.6355 -1.6517 -0.3023
  566MOL0     H76375  -0.537   2.645   2.256  2.3612 -0.9015 -2.2105
  566MOL0     H76376  -0.910   2.427   2.060  0.2213  0.0805 -2.0254
  566MOL0     H76377  -0.920   2.497   2.220  2.3211 -1.5571  0.6665
  566MOL0     H76378  -0.914   2.722   2.116  0.3214 -0.5292 -0.9116
  566MOL0     H76379  -0.962   2.645   1.961  1.2258  0.9959  0.0168
  566MOL0     H76380  -1.154   2.533   2.099  0.0254  0.6084 -1.0930
  566MOL0     H76381  -1.176   2.702   2.059 -0.0649 -0.5973 -1.0587
  566MOL0     H76382  -1.122   2.586   2.336  0.2552 -0.1327  0.4487
  566MOL0     H76383  -1.106   2.757   2.300  0.1228 -0.0996 -2.1033
  566MOL0     H76384  -1.374   2.603   2.275 -2.2678  1.7969 -1.0876
  566MOL0     H76385  -1.350   2.771   2.231 -3.0961 -2.3068 -2.1025
  566MOL0     H76386  -1.308   2.651   2.510  0.9182  0.3032 -0.1866
  566MOL0     H76387  -1.288   2.823   2.451  2.0182 -0.4690 -3.7444
  566MOL0     H76388  -1.486   2.879   2.412  4.8701 -0.6955 -1.2741
  566MOL0     H76389  -1.499   2.815   2.560  2.2501 -0.7206  0.7433
  566MOL0     H76390  -1.595   2.596   2.475 -1.8157  0.9454  3.0530
  566MOL0     H76391  -1.597   2.667   2.312  1.5906  2.8581 -1.5446
  566MOL0     H76392  -0.777   2.287   2.205  0.3050 -1.4589  0.5029
  566MOL0     H76393  -0.637   2.179   2.373  1.2080  0.3575  1.7475
  566MOL0     H76394  -0.607   2.071   2.721  0.0387  0.3683 -0.3509
  566MOL0     H76395  -0.513   1.899   2.892 -0.7255  0.0420 -2.4009
  566MOL0     H76396   1.598   1.594   3.156 -2.3094  1.0736 -0.9671
  566MOL0     H76397   1.849   1.596   3.131  1.7706  2.4245 -0.7236
  566MOL0     H76398   2.200   1.975   3.295 -0.5494  3.3456 -1.3204
  566MOL0     H76399   2.418   2.071   3.273 -1.9485  2.2854 -2.0436
  566MOL0     H76400   2.651   2.175   3.076  2.5329  0.6995  0.1103
  566MOL0     H76401   2.617   2.124   3.235  0.6489  1.0700 -0.5665
  566MOL0     H76402   2.847   2.116   3.058 -0.0000  0.1345  0.4282
  566MOL0     H76403   2.860   1.994   3.185 -0.5796 -1.0032 -2.1651
  566MOL0     H76404   2.856   2.155   3.360 -3.2786  0.2412  0.1059
  566MOL0     H76405   2.804   2.284   3.259 -0.3974  0.2539 -1.7290
  566MOL0     H76406   3.085   2.151   3.238  0.7200  0.3744  0.7806
  566MOL0     H76407   3.056   2.305   3.302  2.1791  1.2206 -2.0420
  566MOL0     H76408   3.049   2.392   2.894 -1.1752  2.8803  1.4648
  566MOL0     H76409   2.503   1.819   2.928  0.8723 -0.0556  0.8189
  566MOL0     H76410   2.285   1.728   2.943  0.4956  0.8349 -1.5032
  567MOL0     O76411   7.317   2.103   2.473  0.7689 -0.1513  0.1642
  567MOL0     C76412   7.394   2.025   2.425 -0.1428  0.3835  0.1802
  567MOL0     O76413   7.360   1.929   2.332 -0.2792 -0.6151  0.3128
  567MOL0     C76414   7.241   1.902   2.277  0.2666 -0.4812 -0.2301
  567MOL0     C76415   7.116   1.939   2.326  0.2963  0.5565  0.2608
  567MOL0     C76416   6.996   1.918   2.253 -1.1739 -0.4069  0.0593
  567MOL0     C76417   6.997   1.852   2.128  0.9536 -0.0895 -0.6641
  567MOL0     O76418   6.878   1.799   2.069 -0.5462  0.2346 -0.7447
  567MOL0     C76419   6.830   1.862   1.947 -0.5417  0.2641 -0.7968
  567MOL0     C76420   6.777   2.001   1.979 -0.4350 -0.7939  0.0520
  567MOL0     C76421   6.726   2.076   1.852 -0.4069  0.5510  0.2735
  567MOL0     C76422   6.646   2.210   1.890 -0.6800 -0.0140  0.0833
  567MOL0     C76423   6.567   2.279   1.781 -0.1763 -0.5045 -0.4816
  567MOL0     C76424   6.446   2.345   1.837  0.5568  0.3353  0.1803
  567MOL0     C76425   6.360   2.428   1.736 -0.5566  0.1807 -0.3177
  567MOL0     C76426   6.268   2.533   1.796 -0.3765 -0.3032 -0.4609
  567MOL0     N76427   6.150   2.533   1.705  0.5090 -0.3582 -0.0231
  567MOL0     C76428   6.127   2.632   1.617 -0.1678 -1.1237 -0.1726
  567MOL0     C76429   5.998   2.643   1.597 -0.2098 -0.2183 -0.2354
  567MOL0     C76430   5.927   2.754   1.527 -0.6966 -0.0134 -0.5197
  567MOL0     C76431   5.807   2.701   1.456 -0.5842 -0.6706 -0.0133
  567MOL0     C76432   5.737   2.832   1.402  0.6733  0.0147  0.0017
  567MOL0     C76433   5.607   2.802   1.319  0.5042 -0.2973  0.1436
  567MOL0     O76434   5.526   2.724   1.407  0.1389 -0.1782 -0.3884
  567MOL0     C76435   5.401   2.676   1.372 -0.3320  0.2279 -0.8511
  567MOL0     C76436   5.334   2.696   1.255 -0.7757  0.1258 -0.1406
  567MOL0     C76437   5.204   2.640   1.224  0.2446 -0.0138 -0.1832
  567MOL0     C76438   5.139   2.649   1.085 -0.0945 -0.0721  0.1611
  567MOL0     C76439   5.139   2.577   1.336  1.0255 -0.5071 -0.4406
  567MOL0     C76440   5.004   2.538   1.330 -0.5672  0.3207 -0.5234
  567MOL0     O76441   4.961   2.429   1.413  0.4696 -0.7393 -0.3670
  567MOL0     C76442   4.821   2.411   1.427 -0.1347 -0.7011  0.7219
  567MOL0     C76443   4.740   2.363   1.318  0.1769  0.0423  0.4464
  567MOL0     C76444   4.603   2.327   1.349 -0.3991 -0.0768  1.5542
  567MOL0     C76445   4.552   2.364   1.476  0.2220 -0.0722  0.2174
  567MOL0     O76446   4.421   2.341   1.521  0.1488  0.0611  0.8150
  567MOL0     C76447   4.328   2.286   1.429  0.3459 -0.1794 -0.4233
  567MOL0     C76448   4.187   2.325   1.479 -0.7891  0.6655  0.2071
  567MOL0     C76449   4.164   2.245   1.607 -0.4971  0.2739 -0.1561
  567MOL0     C76450   4.136   2.093   1.580  1.0222  0.0961  0.6974
  567MOL0     C76451   4.141   2.005   1.707  0.8117  0.0940  0.1543
  567MOL0     C76452   4.015   2.026   1.793  0.4269 -0.4589 -0.0819
  567MOL0     C76453   3.979   1.923   1.900 -0.3032  1.1965  0.1410
  567MOL0     C76454   4.094   1.833   1.946 -0.7663 -0.1315  0.3121
  567MOL0    Cl76455   4.029   1.684   2.023  0.1720 -0.0932  0.5598
  567MOL0     C76456   4.639   2.416   1.574 -0.2407  0.4753  0.0485
  567MOL0     C76457   4.768   2.438   1.552  0.1854  1.0277 -0.0892
  567MOL0     O76458   4.928   2.613   1.269  0.1029 -0.2570  0.5173
  567MOL0     C76459   5.209   2.554   1.457  0.1187 -0.4967 -0.0975
  567MOL0     C76460   5.338   2.599   1.475 -0.1365  0.0389 -0.2783
  567MOL0     N76461   5.934   2.547   1.664 -0.3772  0.0019  0.2884
  567MOL0     N76462   6.025   2.483   1.735  0.2549  0.6386 -0.2835
  567MOL0     C76463   7.120   1.830   2.073 -0.3385  0.4605 -0.3150
  567MOL0     C76464   7.246   1.843   2.149  0.7873 -0.3418 -0.8700
  567MOL0     C76465   7.537   2.037   2.471 -0.4018 -0.6529 -0.6493
  567MOL0     C76466   7.634   1.966   2.396 -1.5369 -0.4513 -0.0910
  567MOL0     C76467   7.766   1.987   2.420 -0.3892 -0.6196  0.2030
  567MOL0     C76468   7.807   2.087   2.517  0.5468 -0.0253 -0.2301
  567MOL0     O76469   7.939   2.107   2.543  0.0918 -0.3389 -0.3614
  567MOL0     C76470   7.974   2.201   2.646  0.6944 -0.5344 -0.4966
  567MOL0     C76471   8.123   2.187   2.674 -0.5227  0.2301  1.5358
  567MOL0     C76472   8.205   2.207   2.539 -0.1120 -0.4337  0.7446
  567MOL0     C76473   8.343   2.272   2.554 -0.1863 -0.9261  0.1747
  567MOL0     C76474   8.418   2.295   2.431  0.2324  0.4066 -0.2021
  567MOL0     C76475   8.494   2.296   2.335 -0.1773 -0.7275 -0.0229
  567MOL0     C76476   7.711   2.151   2.594  0.1484  0.3544  0.2277
  567MOL0     C76477   7.575   2.119   2.572 -0.1668  0.3183 -0.7920
  567MOL0     H76478   7.114   1.978   2.427 -0.7892 -2.0910  1.3791
  567MOL0     H76479   6.910   1.959   2.307 -0.0048 -1.8837  3.3422
  567MOL0     H76480   6.916   1.878   1.882  0.3264 -1.5968 -0.1802
  567MOL0     H76481   6.747   1.802   1.910 -0.7735 -1.2600  1.8819
  567MOL0     H76482   6.697   1.986   2.052 -1.4798 -0.7451 -1.0574
  567MOL0     H76483   6.860   2.045   2.035  0.3331 -3.1160  0.8747
  567MOL0     H76484   6.808   2.109   1.788  1.3245  0.4618  2.3483
  567MOL0     H76485   6.658   2.009   1.798  0.2391  0.1624 -0.0668
  567MOL0     H76486   6.576   2.208   1.974  0.8911  1.2627  1.5285
  567MOL0     H76487   6.727   2.275   1.924 -2.0187  1.5683  0.3609
  567MOL0     H76488   6.637   2.346   1.729 -2.2243  1.9530 -0.2417
  567MOL0     H76489   6.539   2.209   1.701 -0.6074  0.7098 -1.4217
  567MOL0     H76490   6.380   2.268   1.876  0.7368 -0.2125 -0.5759
  567MOL0     H76491   6.472   2.406   1.925 -1.6282 -1.0811  1.9135
  567MOL0     H76492   6.433   2.492   1.685 -2.2636  1.9978 -0.5931
  567MOL0     H76493   6.309   2.362   1.665  0.2500 -0.4142 -0.3720
  567MOL0     H76494   6.308   2.635   1.796 -3.9286  1.2799 -1.9386
  567MOL0     H76495   6.224   2.511   1.893 -0.2984  0.2103 -0.3057
  567MOL0     H76496   6.199   2.703   1.577  1.7362 -2.7766  0.1058
  567MOL0     H76497   5.891   2.826   1.601  0.2145  0.8468 -0.8914
  567MOL0     H76498   5.992   2.815   1.463  0.1475 -0.6258 -0.2641
  567MOL0     H76499   5.744   2.635   1.516 -0.8205 -0.9588 -0.5763
  567MOL0     H76500   5.831   2.647   1.364 -4.3744 -3.5030  0.4352
  567MOL0     H76501   5.805   2.900   1.349 -0.9643  1.1611 -0.6971
  567MOL0     H76502   5.697   2.896   1.481 -1.3267  2.5830 -2.8593
  567MOL0     H76503   5.627   2.757   1.221 -1.2118  0.8456 -0.7839
  567MOL0     H76504   5.553   2.897   1.305 -0.6577 -1.0332 -0.5547
  567MOL0     H76505   5.373   2.742   1.165 -3.7928  0.0738 -1.6106
  567MOL0     H76506   5.057   2.722   1.083 -0.9185 -0.9302  1.2426
  567MOL0     H76507   5.214   2.688   1.016 -0.7800 -0.5011 -0.8520
  567MOL0     H76508   5.102   2.554   1.046  0.9261 -0.7713  0.8701
  567MOL0     H76509   4.786   2.337   1.223 -1.9297  2.5276 -1.3855
  567MOL0     H76510   4.544   2.285   1.269  1.3966 -1.4473  0.8725
  567MOL0     H76511   4.340   2.325   1.327 -2.9184 -0.5423 -1.0503
  567MOL0     H76512   4.344   2.181   1.402 -2.4794 -0.2812 -2.1641
  567MOL0     H76513   4.168   2.429   1.505 -1.2647  0.9621 -1.2526
  567MOL0     H76514   4.114   2.294   1.404  1.0148 -3.1636 -0.2415
  567MOL0     H76515   4.076   2.292   1.653 -0.0031 -1.3777  2.7143
  567MOL0     H76516   4.239   2.262   1.685 -1.9691  0.8434  1.2097
  567MOL0     H76517   4.039   2.080   1.531  1.6957 -1.4873 -0.2959
  567MOL0     H76518   4.208   2.039   1.518  1.0785 -0.2954  1.1044
  567MOL0     H76519   4.235   2.025   1.757  0.4600 -2.0595  1.8564
  567MOL0     H76520   4.142   1.899   1.677  0.0653  0.8819 -3.0213
  567MOL0     H76521   4.021   2.110   1.863 -1.6435 -0.3670  0.0590
  567MOL0     H76522   3.924   2.045   1.736  1.2118  3.0210 -0.4101
  567MOL0     H76523   3.904   1.854   1.860  0.8095 -0.5026  0.8777
  567MOL0     H76524   3.940   1.981   1.984 -0.8642  1.6208 -0.3982
  567MOL0     H76525   4.164   1.874   2.018 -1.3159 -0.0428  0.8004
  567MOL0     H76526   4.148   1.785   1.864 -3.4370  0.5547 -2.0227
  567MOL0     H76527   4.605   2.446   1.673  0.1113 -0.8313  0.5906
  567MOL0     H76528   4.828   2.474   1.636  0.9015  0.4436 -0.3440
  567MOL0     H76529   5.162   2.506   1.542  0.3494 -2.5217 -1.0711
  567MOL0     H76530   5.390   2.589   1.570 -1.9874 -0.2261  0.7434
  567MOL0     H76531   7.132   1.775   1.980  2.2478  0.1511  0.1151
  567MOL0     H76532   7.344   1.818   2.108  0.7769 -0.3535 -0.8875
  567MOL0     H76533   7.601   1.909   2.310  0.9580 -1.7837 -0.2331
  567MOL0     H76534   7.842   1.940   2.358 -2.7200 -0.7471 -2.7970
  567MOL0     H76535   7.937   2.301   2.621 -1.8842 -1.3905 -0.4329
  567MOL0     H76536   7.925   2.176   2.740  1.7127 -0.3543  0.0935
  567MOL0     H76537   8.146   2.084   2.702  3.2888  0.4207 -0.2974
  567MOL0     H76538   8.158   2.269   2.738 -3.4284  3.5430 -0.6957
  567MOL0     H76539   8.146   2.257   2.461  1.6764  0.0181 -0.3947
  567MOL0     H76540   8.214   2.105   2.500 -0.1935  0.2492 -1.2149
  567MOL0     H76541   8.394   2.188   2.602  0.7139  0.2534  1.3371
  567MOL0     H76542   8.330   2.366   2.608 -1.5615 -1.6552  1.1763
  567MOL0     H76543   8.556   2.321   2.252 -2.5110  3.6439 -0.7695
  567MOL0     H76544   7.733   2.233   2.662  0.1077  0.9557 -0.4717
  567MOL0     H76545   7.498   2.160   2.637 -1.3522  1.2842 -2.7151
  568MOL0     O76546   9.717   9.949   4.444 -0.4396  0.2293  0.0354
  568MOL0     C76547   9.839   9.965   4.458  0.8018 -0.5043 -0.4460
  568MOL0     O76548   9.934   9.873   4.448  0.9641  0.4258  0.1007
  568MOL0     C76549   9.918   9.734   4.433  0.6635 -0.0326 -0.6363
  568MOL0     C76550   9.799   9.666   4.463  0.5632 -0.0256 -0.1311
  568MOL0     C76551   9.802   9.529   4.464 -0.1446  0.0032 -0.6039
  568MOL0     C76552   9.921   9.458   4.439 -0.7231  0.8654 -0.8011
  568MOL0     O76553   9.932   9.316   4.465  0.0855  0.0506 -0.4729
  568MOL0     C76554   9.817   9.238   4.437 -0.1107 -0.3007  0.1019
  568MOL0     C76555   9.845   9.089   4.468  0.3706 -0.3480  0.3479
  568MOL0     C76556   9.723   8.995   4.453 -0.6004  0.2513  0.0542
  568MOL0     C76557   9.631   9.024   4.321  0.1351 -0.3688 -0.4340
  568MOL0     C76558   9.501   8.948   4.297  0.3666  0.1201 -0.6369
  568MOL0     C76559   9.399   8.942   4.414  0.2071  1.0991  0.7047
  568MOL0     C76560   9.351   9.071   4.473 -0.0981  0.4287  0.0690
  568MOL0     C76561   9.249   9.064   4.586 -0.3468  0.5282  0.1483
  568MOL0     N76562   9.261   8.962   4.686  0.1224  0.0440  0.3085
  568MOL0     C76563   9.368   8.943   4.769 -0.2137 -0.2812 -0.1058
  568MOL0     C76564   9.320   8.861   4.866 -0.3068  0.2242  1.3582
  568MOL0     C76565   9.389   8.801   4.983  1.1588  0.3356  0.9191
  568MOL0     C76566   9.514   8.877   5.030 -1.1244  0.3241 -0.0213
  568MOL0     C76567   9.598   8.803   5.131 -0.8454 -0.2246  0.2060
  568MOL0     C76568   9.627   8.655   5.110  0.5629  0.6904 -0.0451
  568MOL0     O76569   9.716   8.617   5.222 -0.0161  0.6093 -0.7348
  568MOL0     C76570   9.771   8.486   5.237 -0.0574  0.1677 -0.7015
  568MOL0     C76571   9.758   8.398   5.135 -0.1063  0.0281 -0.6273
  568MOL0     C76572   9.799   8.268   5.154  0.1429  0.1158 -0.2327
  568MOL0     C76573   9.771   8.174   5.034 -0.6415 -0.2206 -0.4893
  568MOL0     C76574   9.861   8.230   5.274 -0.4846  0.0663 -0.5530
  568MOL0     C76575   9.924   8.099   5.295  0.0095 -1.0154 -1.0148
  568MOL0     O76576  10.022   8.099   5.396 -0.0716 -0.3869  1.2579
  568MOL0     C76577  10.071   7.974   5.432 -0.6601 -0.4339  0.6123
  568MOL0     C76578  10.111   7.882   5.337  0.0848 -0.3499 -0.3293
  568MOL0     C76579  10.184   7.762   5.373 -0.4104  1.0931  0.1743
  568MOL0     C76580  10.222   7.744   5.505 -0.5194  0.6943  0.2588
  568MOL0     O76581  10.294   7.644   5.552 -1.1930  0.3592  0.8794
  568MOL0     C76582  10.362   7.560   5.459  0.6318 -0.4482  0.2719
  568MOL0     C76583  10.436   7.453   5.523 -0.9855 -0.2465 -0.3060
  568MOL0     C76584  10.582   7.472   5.553  0.5465  0.4284  0.4092
  568MOL0     C76585  10.660   7.394   5.446 -0.4471 -0.3931 -0.0020
  568MOL0     C76586  10.804   7.423   5.467  0.1537  0.0877  0.3924
  568MOL0     C76587  10.889   7.358   5.355  0.6355 -0.5445 -0.0035
  568MOL0     C76588  11.035   7.379   5.380  0.1570  0.2100  1.3635
  568MOL0     C76589  11.116   7.291   5.293  0.4859  0.4756 -0.3102
  568MOL0    Cl76590  11.097   7.308   5.116 -0.0533 -0.6594 -0.0398
  568MOL0     C76591  10.173   7.839   5.602 -0.4980 -0.6152 -0.2814
  568MOL0     C76592  10.094   7.948   5.563  0.2047 -0.1186  0.1117
  568MOL0     O76593   9.878   7.999   5.243  0.2691  0.1712 -0.4180
  568MOL0     C76594   9.874   8.325   5.380 -0.5025 -0.5276  0.2720
  568MOL0     C76595   9.834   8.456   5.362 -0.4458 -0.6621  0.1285
  568MOL0     N76596   9.186   8.837   4.852  0.5984 -0.7728  1.6458
  568MOL0     N76597   9.156   8.892   4.738  0.1422  0.0173 -0.2635
  568MOL0     C76598  10.039   9.527   4.410  0.0236  0.2678  0.3090
  568MOL0     C76599  10.036   9.665   4.408 -0.1096  0.0677 -0.0735
  568MOL0     C76600   9.884  10.102   4.489 -0.0283 -0.0529 -0.0234
  568MOL0     C76601   9.801  10.187   4.560  0.8396 -0.3488 -0.8532
  568MOL0     C76602   9.839  10.324   4.568  0.1661 -1.0926 -0.0482
  568MOL0     C76603   9.951  10.378   4.514 -0.1000 -0.1440  0.0103
  568MOL0     O76604   9.976  10.516   4.518  0.0050 -1.0069  0.8162
  568MOL0     C76605  10.088  10.563   4.431 -0.8271  0.3165 -0.4520
  568MOL0     C76606  10.065  10.716   4.417 -1.1228 -0.2422 -0.5062
  568MOL0     C76607  10.194  10.763   4.337  0.3908 -0.2401 -0.1683
  568MOL0     C76608  10.179  10.914   4.294 -1.1383  0.5885 -0.2959
  568MOL0     C76609  10.303  10.974   4.243  0.4266  0.1305 -0.0506
  568MOL0     C76610  10.413  11.010   4.215 -0.6580  0.5954  0.8282
  568MOL0     C76611  10.040  10.288   4.457  0.1668 -0.8585  0.2573
  568MOL0     C76612  10.007  10.150   4.433  1.3216  0.8007 -0.0733
  568MOL0     H76613   9.703   9.710   4.488  1.2330  1.3298  0.1661
  568MOL0     H76614   9.709   9.477   4.486 -1.4569  2.1621 -0.7501
  568MOL0     H76615   9.726   9.270   4.488 -0.6072  3.6139 -2.7953
  568MOL0     H76616   9.793   9.249   4.331  0.7436 -0.7704 -0.1505
  568MOL0     H76617   9.929   9.053   4.408  1.6669  3.0349 -0.0698
  568MOL0     H76618   9.883   9.080   4.570  0.8517  2.6866  0.5264
  568MOL0     H76619   9.758   8.892   4.443 -1.2472  0.2600 -3.5088
  568MOL0     H76620   9.651   9.003   4.535 -2.0098 -1.6995 -0.9338
  568MOL0     H76621   9.590   9.125   4.331 -2.8815 -1.3747 -1.3900
  568MOL0     H76622   9.691   9.011   4.230  0.7985 -0.2721 -0.0129
  568MOL0     H76623   9.439   9.001   4.224 -3.0373 -0.5443  1.5817
  568MOL0     H76624   9.520   8.847   4.261  1.8773  1.4126 -3.8977
  568MOL0     H76625   9.312   8.882   4.384  0.4380  0.9113  0.3954
  568MOL0     H76626   9.441   8.892   4.501 -4.4791  1.6492  3.6391
  568MOL0     H76627   9.439   9.121   4.515  0.9115 -0.3983 -0.9870
  568MOL0     H76628   9.307   9.125   4.389  1.7423 -4.0199 -4.2871
  568MOL0     H76629   9.148   9.052   4.547 -1.5742 -0.6446  3.3150
  568MOL0     H76630   9.251   9.159   4.641 -0.2192  0.3021  0.5417
  568MOL0     H76631   9.470   8.979   4.766 -0.4247  0.2566 -0.8213
  568MOL0     H76632   9.315   8.770   5.057 -0.2887 -1.9286 -1.3565
  568MOL0     H76633   9.427   8.705   4.947  0.7700 -0.3409  2.2227
  568MOL0     H76634   9.476   8.957   5.094  0.3597  0.1239  1.1686
  568MOL0     H76635   9.572   8.912   4.944 -0.4641 -2.5345 -0.8503
  568MOL0     H76636   9.561   8.814   5.234  0.4782  0.6071  0.6133
  568MOL0     H76637   9.698   8.844   5.142 -0.2031 -1.5186 -0.6360
  568MOL0     H76638   9.662   8.630   5.010  2.0665 -0.5417  0.7507
  568MOL0     H76639   9.535   8.599   5.130  0.2986  1.1578  0.0800
  568MOL0     H76640   9.715   8.414   5.037  2.3830 -1.2134 -2.0202
  568MOL0     H76641   9.665   8.167   5.004 -0.4806 -1.7140 -0.7822
  568MOL0     H76642   9.809   8.216   4.941  2.3619 -0.4072  0.5546
  568MOL0     H76643   9.807   8.072   5.044  0.1134  0.0848 -0.0170
  568MOL0     H76644  10.113   7.915   5.233  1.8491 -0.3750 -0.3306
  568MOL0     H76645  10.225   7.697   5.296 -2.0618 -1.5964  1.4394
  568MOL0     H76646  10.282   7.524   5.393 -0.6180  1.7492  0.4802
  568MOL0     H76647  10.431   7.615   5.395  1.0825 -3.3990 -2.0207
  568MOL0     H76648  10.388   7.431   5.619 -0.4549  1.3907  0.3596
  568MOL0     H76649  10.425   7.359   5.468 -0.1352  0.1400 -1.1608
  568MOL0     H76650  10.598   7.421   5.648 -0.4877 -1.7580 -0.5382
  568MOL0     H76651  10.604   7.578   5.570  0.8301  0.0061  3.0127
  568MOL0     H76652  10.644   7.285   5.449  2.8926 -0.9926  0.0041
  568MOL0     H76653  10.626   7.431   5.349 -3.0373 -1.0886  0.5348
  568MOL0     H76654  10.833   7.388   5.567 -0.5112 -1.4477  0.0768
  568MOL0     H76655  10.822   7.530   5.457  0.3945  0.0694  0.5973
  568MOL0     H76656  10.872   7.250   5.347  0.0054 -0.4638  0.1905
  568MOL0     H76657  10.857   7.399   5.258  1.9025 -2.5587 -1.3551
  568MOL0     H76658  11.061   7.354   5.483  2.7720 -3.8544 -0.0432
  568MOL0     H76659  11.066   7.478   5.348  0.7064 -0.8784 -1.7936
  568MOL0     H76660  11.098   7.186   5.321  0.3315 -0.3199 -3.0599
  568MOL0     H76661  11.221   7.312   5.315 -0.1817  0.8924  2.9062
  568MOL0     H76662  10.208   7.833   5.705  0.5191  0.1950 -0.5673
  568MOL0     H76663  10.081   8.023   5.639 -1.1628 -0.6410  0.4173
  568MOL0     H76664   9.915   8.312   5.480  1.1655  2.1449  0.0397
  568MOL0     H76665   9.849   8.535   5.435 -1.1741 -1.9746  1.7768
  568MOL0     H76666  10.128   9.466   4.399 -0.7242 -0.9996  1.0258
  568MOL0     H76667  10.131   9.716   4.396 -0.7897  1.1572 -0.9741
  568MOL0     H76668   9.706  10.146   4.592  0.3785 -0.5997 -2.4552
  568MOL0     H76669   9.777  10.395   4.621  0.3128 -1.0549  0.0724
  568MOL0     H76670  10.178  10.533   4.485 -1.1507  2.6646  1.5799
  568MOL0     H76671  10.087  10.509   4.336 -0.3806  2.7006 -1.9024
  568MOL0     H76672  10.070  10.770   4.512  1.2832 -1.9364  0.4395
  568MOL0     H76673   9.974  10.733   4.358 -1.2446 -1.3149 -0.6602
  568MOL0     H76674  10.203  10.699   4.250 -2.1833 -2.6143  1.1556
  568MOL0     H76675  10.292  10.749   4.386  1.3790  0.5900 -1.8249
  568MOL0     H76676  10.119  10.976   4.362 -1.1338  1.8768 -1.4390
  568MOL0     H76677  10.115  10.917   4.206 -0.3494 -1.2627 -0.9614
  568MOL0     H76678  10.510  11.048   4.191 -0.7411  0.6261  0.5325
  568MOL0     H76679  10.135  10.319   4.417 -0.1968 -0.2511 -0.1358
  568MOL0     H76680  10.077  10.081   4.387 -0.4595 -0.3264 -1.2080
  569MOL0     O76681   8.939   2.538   6.358 -0.0567  0.1220  0.8215
  569MOL0     C76682   8.832   2.483   6.327 -0.0249 -0.8806  0.5165
  569MOL0     O76683   8.748   2.527   6.225 -0.0858 -0.5831  0.5747
  569MOL0     C76684   8.769   2.643   6.156 -1.2056  0.2545  0.2863
  569MOL0     C76685   8.826   2.625   6.032  0.1443  0.2701  0.3142
  569MOL0     C76686   8.835   2.732   5.940  1.2957  0.1991  0.7688
  569MOL0     C76687   8.784   2.854   5.980  0.2861 -0.8179  0.0267
  569MOL0     O76688   8.791   2.954   5.884  1.3834 -0.2710  0.4381
  569MOL0     C76689   8.727   3.091   5.921  0.1926 -0.9133 -0.5983
  569MOL0     C76690   8.735   3.169   5.787 -0.1185 -0.4189  0.2517
  569MOL0     C76691   8.874   3.236   5.768 -0.4389 -0.2282  0.3529
  569MOL0     C76692   8.997   3.145   5.755  0.3984 -0.8869  0.8336
  569MOL0     C76693   9.127   3.213   5.712 -0.5522 -0.6763  0.5916
  569MOL0     C76694   9.178   3.331   5.801 -0.4161 -0.1395 -0.6645
  569MOL0     C76695   9.304   3.405   5.752  0.1418  0.6089  0.3517
  569MOL0     C76696   9.296   3.445   5.611 -0.1922  0.5183  0.6770
  569MOL0     N76697   9.403   3.527   5.554  0.0622  0.0161  0.8436
  569MOL0     C76698   9.414   3.660   5.575  0.2398  0.5592 -0.1215
  569MOL0     C76699   9.507   3.702   5.490  0.8087  0.0257  0.0323
  569MOL0     C76700   9.571   3.843   5.464 -0.2342  1.1315 -0.5531
  569MOL0     C76701   9.470   3.952   5.451 -0.0648 -0.4028 -0.5477
  569MOL0     C76702   9.445   4.025   5.585  0.2646 -0.0595  0.0675
  569MOL0     C76703   9.302   4.074   5.598 -0.8197  1.0003  0.1638
  569MOL0     O76704   9.198   3.970   5.594 -0.6535 -0.0185 -0.2851
  569MOL0     C76705   9.166   3.890   5.714 -0.7456  0.3661  1.0879
  569MOL0     C76706   9.063   3.802   5.690 -0.7308 -0.1890 -0.4627
  569MOL0     C76707   9.014   3.714   5.788 -0.8515 -1.4069 -0.8562
  569MOL0     C76708   8.898   3.618   5.750 -0.6045 -0.0455 -1.0071
  569MOL0     C76709   9.086   3.705   5.910 -0.2373 -0.6457  0.0938
  569MOL0     C76710   9.048   3.610   6.025  0.2065 -0.7287 -0.2883
  569MOL0     O76711   8.922   3.562   6.036  0.1884 -0.9921  0.1088
  569MOL0     C76712   8.900   3.455   6.116  0.1572 -0.4435  0.8071
  569MOL0     C76713   8.775   3.450   6.173 -0.6265 -0.3318 -0.1862
  569MOL0     C76714   8.750   3.344   6.262  0.3403 -0.3145 -0.2292
  569MOL0     C76715   8.850   3.247   6.282  0.3232 -0.8163 -0.4280
  569MOL0     O76716   8.835   3.143   6.369 -0.3835 -0.7263 -0.1417
  569MOL0     C76717   8.732   3.145   6.465  0.5701 -0.6876  0.3293
  569MOL0     C76718   8.761   3.045   6.583  0.8005  0.6166  0.0445
  569MOL0     C76719   8.751   2.903   6.542  0.3097  0.3592  0.4303
  569MOL0     C76720   8.768   2.810   6.658 -0.4913 -0.8176 -1.4020
  569MOL0     C76721   8.879   2.839   6.760 -0.1043 -0.8389 -0.2390
  569MOL0     C76722   8.855   2.736   6.874 -0.6080 -0.5825  0.0866
  569MOL0     C76723   8.956   2.751   6.996 -0.0360 -0.6651  0.8582
  569MOL0     C76724   8.937   2.876   7.069  0.3775  0.0232  0.5031
  569MOL0    Cl76725   8.812   2.836   7.187  0.3045 -0.1972 -0.0801
  569MOL0     C76726   8.966   3.250   6.213  0.5914  0.3542 -0.3281
  569MOL0     C76727   8.992   3.353   6.131  0.0871  0.0555  0.0320
  569MOL0     O76728   9.130   3.600   6.114  0.1619 -0.6340 -0.7273
  569MOL0     C76729   9.207   3.785   5.920 -0.0194  0.0551  0.9231
  569MOL0     C76730   9.236   3.891   5.837 -0.1049 -0.8933  0.9906
  569MOL0     N76731   9.535   3.593   5.417 -0.5346  0.2245  0.6918
  569MOL0     N76732   9.473   3.488   5.448 -0.0515 -0.0052 -0.0479
  569MOL0     C76733   8.747   2.874   6.113 -0.8068 -0.3485 -0.7033
  569MOL0     C76734   8.724   2.768   6.197  0.1989  0.3582  0.6174
  569MOL0     C76735   8.801   2.354   6.400  0.2044 -0.0704  0.5169
  569MOL0     C76736   8.674   2.304   6.416 -0.1526  0.2167 -0.3412
  569MOL0     C76737   8.656   2.193   6.499  0.2919 -0.2589 -0.5571
  569MOL0     C76738   8.763   2.113   6.545  1.0356 -1.1179 -0.5343
  569MOL0     O76739   8.760   2.007   6.629  0.4080  0.0893 -0.1519
  569MOL0     C76740   8.626   1.934   6.646 -0.5314 -0.0650  0.5716
  569MOL0     C76741   8.634   1.854   6.772  1.0525  0.5128 -0.0775
  569MOL0     C76742   8.730   1.741   6.753 -0.2462 -0.5698 -0.2771
  569MOL0     C76743   8.724   1.650   6.871  0.0459 -0.3211  0.0287
  569MOL0     C76744   8.601   1.573   6.890  0.2943 -0.5725  0.5025
  569MOL0     C76745   8.487   1.540   6.903 -0.6938  0.0636 -0.3811
  569MOL0     C76746   8.894   2.147   6.522 -0.5170  1.2493 -0.3845
  569MOL0     C76747   8.914   2.267   6.451 -0.5775  0.0555  0.3140
  569MOL0     H76748   8.854   2.526   5.996 -3.3021 -0.4439 -0.8189
  569MOL0     H76749   8.861   2.710   5.837 -2.8627 -0.4113 -0.3014
  569MOL0     H76750   8.621   3.084   5.949 -1.2673  1.2428 -4.6627
  569MOL0     H76751   8.790   3.145   5.991 -0.0536  2.0647 -2.5038
  569MOL0     H76752   8.711   3.103   5.703  1.0032 -2.5357  1.5188
  569MOL0     H76753   8.685   3.266   5.794 -1.4061 -0.8633 -1.7387
  569MOL0     H76754   8.859   3.284   5.670 -1.3875 -0.7863  0.2143
  569MOL0     H76755   8.878   3.310   5.849 -2.0128 -1.6663  1.8023
  569MOL0     H76756   9.024   3.099   5.850  1.0884  2.6078  2.4796
  569MOL0     H76757   8.967   3.063   5.688  0.1139  0.5955 -0.9512
  569MOL0     H76758   9.199   3.131   5.711 -0.4839 -0.7238  3.3181
  569MOL0     H76759   9.120   3.260   5.613  1.5521  1.9615  1.5703
  569MOL0     H76760   9.094   3.399   5.822  0.6614  0.8506  0.5683
  569MOL0     H76761   9.200   3.300   5.903 -1.7283  0.9223 -0.0204
  569MOL0     H76762   9.311   3.486   5.825  1.2455 -0.4168  1.4363
  569MOL0     H76763   9.390   3.339   5.770 -0.1146  0.5094  1.2314
  569MOL0     H76764   9.197   3.483   5.582 -0.2086  0.2496  0.3705
  569MOL0     H76765   9.287   3.351   5.557 -2.1863  1.8635 -1.5180
  569MOL0     H76766   9.362   3.719   5.649 -1.3458 -1.2333  0.2712
  569MOL0     H76767   9.634   3.866   5.551 -0.5060 -0.3307  0.0621
  569MOL0     H76768   9.638   3.824   5.380  2.0944 -2.5465  1.8312
  569MOL0     H76769   9.377   3.902   5.422  0.2980 -0.3221 -1.9492
  569MOL0     H76770   9.495   4.022   5.371 -2.2605  0.1268 -0.8490
  569MOL0     H76771   9.516   4.108   5.593 -0.8646  0.9407 -0.0095
  569MOL0     H76772   9.465   3.956   5.668 -0.6979 -0.6552 -0.1755
  569MOL0     H76773   9.286   4.141   5.513 -1.0186 -0.5750 -1.0827
  569MOL0     H76774   9.303   4.131   5.692  0.5836 -2.5889  2.5072
  569MOL0     H76775   9.011   3.814   5.596 -0.0575 -0.0062 -0.8160
  569MOL0     H76776   8.808   3.626   5.813 -1.2345 -0.2803 -1.8487
  569MOL0     H76777   8.861   3.652   5.653 -1.7738  0.8686 -0.2754
  569MOL0     H76778   8.919   3.512   5.736  0.1325  0.3025 -2.7763
  569MOL0     H76779   8.705   3.531   6.157 -4.1834 -3.0422  0.3471
  569MOL0     H76780   8.657   3.331   6.316 -1.1021  1.0486 -2.2438
  569MOL0     H76781   8.722   3.239   6.520 -1.7215 -1.1878  0.8656
  569MOL0     H76782   8.636   3.131   6.415  1.7125  0.5313 -2.4303
  569MOL0     H76783   8.866   3.057   6.612  0.6954 -3.0511  2.6138
  569MOL0     H76784   8.700   3.071   6.670  1.1478  3.7251 -0.5229
  569MOL0     H76785   8.813   2.887   6.453 -0.2072 -2.0176  0.4438
  569MOL0     H76786   8.654   2.883   6.498 -0.1898 -0.1884  1.7196
  569MOL0     H76787   8.674   2.813   6.715  1.1579 -4.4382  1.9693
  569MOL0     H76788   8.776   2.707   6.624 -2.0876 -1.2839 -0.4996
  569MOL0     H76789   8.884   2.939   6.805  2.8847 -1.4242  0.9903
  569MOL0     H76790   8.983   2.826   6.727  0.3523  0.6728  0.5074
  569MOL0     H76791   8.752   2.733   6.909 -1.2069 -1.3412 -1.6089
  569MOL0     H76792   8.864   2.633   6.838  0.5404 -0.9014  1.2089
  569MOL0     H76793   9.051   2.746   6.942 -0.1843 -4.2814  0.6702
  569MOL0     H76794   8.947   2.669   7.068 -2.6156 -1.1747  0.0520
  569MOL0     H76795   8.923   2.959   6.998  1.3046 -1.8948 -2.0717
  569MOL0     H76796   9.028   2.900   7.125 -0.0881  1.2298  0.7951
  569MOL0     H76797   9.044   3.175   6.224  1.3067  1.2788  1.2771
  569MOL0     H76798   9.093   3.353   6.091  1.4635 -0.0517  3.2234
  569MOL0     H76799   9.266   3.793   6.010  4.0927  1.7197 -1.6395
  569MOL0     H76800   9.325   3.951   5.846 -3.1172  4.6497 -1.1189
  569MOL0     H76801   8.709   2.971   6.143  3.6813  0.3551  4.1047
  569MOL0     H76802   8.671   2.772   6.292 -1.2915 -3.8542  0.2092
  569MOL0     H76803   8.591   2.354   6.367  0.2204  1.4361  0.2406
  569MOL0     H76804   8.554   2.163   6.522  0.2890 -2.4281 -3.0303
  569MOL0     H76805   8.551   2.011   6.668  1.5663  1.8540  1.4277
  569MOL0     H76806   8.591   1.872   6.563 -1.2394  1.4479 -0.3215
  569MOL0     H76807   8.536   1.808   6.788  0.0884  1.8828 -1.6134
  569MOL0     H76808   8.657   1.909   6.864 -3.0709 -1.7135  2.5999
  569MOL0     H76809   8.831   1.781   6.748 -0.6701  0.8658  1.5618
  569MOL0     H76810   8.711   1.676   6.667  1.0219 -2.6981  0.9589
  569MOL0     H76811   8.739   1.710   6.961 -2.8869 -0.1727  0.4886
  569MOL0     H76812   8.804   1.576   6.857 -2.0462 -2.5200 -0.9421
  569MOL0     H76813   8.387   1.503   6.914 -1.3628  1.1189 -2.4256
  569MOL0     H76814   8.977   2.088   6.560 -1.9909  0.0911  1.1955
  569MOL0     H76815   9.016   2.300   6.432 -0.9041 -0.1416 -2.0626
  570MOL0     O76816   5.226   0.010   6.242 -0.0839 -0.1563 -0.7231
  570MOL0     C76817   5.120  -0.028   6.196 -0.2284 -0.2594  0.0497
  570MOL0     O76818   5.109  -0.108   6.087  0.9536 -0.2743  0.5550
  570MOL0     C76819   5.225  -0.153   6.035 -0.8718  0.6718  0.1128
  570MOL0     C76820   5.253  -0.294   6.040 -0.2456 -0.5778 -0.6073
  570MOL0     C76821   5.363  -0.343   5.972  0.5411  0.0512 -0.0359
  570MOL0     C76822   5.441  -0.266   5.886 -0.6917 -0.5646  0.6188
  570MOL0     O76823   5.547  -0.303   5.803 -0.2002 -0.2857  0.7617
  570MOL0     C76824   5.550  -0.448   5.771  0.3298  0.1955 -0.7685
  570MOL0     C76825   5.651  -0.497   5.672  0.1595 -0.3112  0.4826
  570MOL0     C76826   5.786  -0.418   5.687 -0.2709  0.0641  0.5421
  570MOL0     C76827   5.839  -0.451   5.829  0.3733 -0.3671  0.5588
  570MOL0     C76828   5.969  -0.382   5.844 -0.1495 -0.5864 -0.4385
  570MOL0     C76829   6.017  -0.373   5.990 -0.2031 -0.4154 -0.6571
  570MOL0     C76830   6.070  -0.508   6.044 -0.0836 -0.1474  0.4520
  570MOL0     C76831   6.164  -0.479   6.158  0.2518  1.0562 -0.5910
  570MOL0     N76832   6.191  -0.597   6.238 -0.1942 -0.1045 -0.7849
  570MOL0     C76833   6.091  -0.639   6.327  0.2346  0.8785  1.2547
  570MOL0     C76834   6.156  -0.716   6.410  0.0734 -0.1902 -0.5429
  570MOL0     C76835   6.103  -0.790   6.525  0.1824 -0.6421  0.0420
  570MOL0     C76836   5.969  -0.735   6.589 -0.1801 -0.0839 -0.2036
  570MOL0     C76837   5.915  -0.825   6.705 -0.6872 -0.4507  0.0314
  570MOL0     C76838   5.993  -0.806   6.842 -0.1833  0.0512  0.6311
  570MOL0     O76839   6.013  -0.669   6.875  0.0002 -0.1674 -0.7962
  570MOL0     C76840   5.901  -0.599   6.917  0.5995 -0.8005  0.4417
  570MOL0     C76841   5.905  -0.450   6.905 -0.0878 -0.2260  0.2515
  570MOL0     C76842   5.794  -0.371   6.953  0.2215  0.3559  0.3907
  570MOL0     C76843   5.816  -0.232   6.923  0.3874 -0.2097  0.0649
  570MOL0     C76844   5.674  -0.433   6.988  1.7084  0.3377 -0.6442
  570MOL0     C76845   5.550  -0.348   7.019  0.3576 -0.2812 -0.5843
  570MOL0     O76846   5.439  -0.423   7.040 -0.1602  0.4438 -0.2398
  570MOL0     C76847   5.314  -0.385   7.070  0.4872  0.2613 -0.6246
  570MOL0     C76848   5.223  -0.489   7.086  0.2583 -0.5243  0.2644
  570MOL0     C76849   5.091  -0.467   7.127 -0.6126 -0.6838 -0.5912
  570MOL0     C76850   5.047  -0.335   7.151  0.1445 -0.0987 -0.7936
  570MOL0     O76851   4.926  -0.319   7.218 -0.0738  0.8903 -0.3328
  570MOL0     C76852   4.859  -0.202   7.199 -0.2412  0.1171 -0.1337
  570MOL0     C76853   4.723  -0.224   7.262  0.2167 -0.0154 -0.2544
  570MOL0     C76854   4.719  -0.191   7.410  0.6443  0.4195 -0.1514
  570MOL0     C76855   4.594  -0.247   7.486  0.0567  0.5980  0.2185
  570MOL0     C76856   4.559  -0.166   7.610  0.0732  0.0829  0.2827
  570MOL0     C76857   4.441  -0.236   7.683 -0.0332  0.9268  0.9522
  570MOL0     C76858   4.426  -0.171   7.825  0.7014  0.6937 -0.3896
  570MOL0     C76859   4.348  -0.047   7.818 -0.3555 -0.3563  0.4734
  570MOL0    Cl76860   4.183  -0.088   7.756  0.2924  0.0111 -0.3417
  570MOL0     C76861   5.141  -0.230   7.140 -0.3546 -0.5604  0.8196
  570MOL0     C76862   5.267  -0.254   7.094 -0.6081  1.1223  0.0021
  570MOL0     O76863   5.556  -0.224   7.032  0.1011 -0.3338 -0.0793
  570MOL0     C76864   5.665  -0.570   7.000 -0.5008 -0.6682 -0.1208
  570MOL0     C76865   5.777  -0.647   6.975  0.0747 -0.4974  0.1929
  570MOL0     N76866   6.299  -0.708   6.385 -0.4929 -1.0378  0.2742
  570MOL0     N76867   6.311  -0.646   6.267  0.3725  0.8662 -0.0287
  570MOL0     C76868   5.412  -0.126   5.875  0.2296 -0.3050 -0.0914
  570MOL0     C76869   5.306  -0.072   5.947  0.2488  0.2922  0.0796
  570MOL0     C76870   5.009   0.030   6.266 -0.0946  1.2628  0.1471
  570MOL0     C76871   5.026   0.123   6.370 -0.7554  0.2713 -0.3384
  570MOL0     C76872   4.911   0.177   6.440 -0.4030  0.1044  0.3808
  570MOL0     C76873   4.789   0.150   6.397  0.2640 -0.3240 -0.6694
  570MOL0     O76874   4.673   0.203   6.454 -0.3359 -0.1739  0.5581
  570MOL0     C76875   4.679   0.256   6.585  0.6584  0.5312 -0.8192
  570MOL0     C76876   4.538   0.230   6.642  0.1332  0.2396 -0.7902
  570MOL0     C76877   4.418   0.267   6.549  0.7255  0.3817 -0.4137
  570MOL0     C76878   4.427   0.401   6.492  0.3138 -0.8217  0.1440
  570MOL0     C76879   4.331   0.428   6.385 -0.0870  0.5120 -0.1993
  570MOL0     C76880   4.244   0.441   6.297 -1.3323 -0.4796 -1.0930
  570MOL0     C76881   4.773   0.075   6.289  0.4600  0.4695  0.1527
  570MOL0     C76882   4.877   0.018   6.225 -0.2406  0.2584  0.6482
  570MOL0     H76883   5.193  -0.355   6.106 -1.2468  0.7988 -0.1963
  570MOL0     H76884   5.372  -0.451   5.978  1.6392  0.1421  0.1088
  570MOL0     H76885   5.569  -0.508   5.861 -2.2411  0.6482  0.1860
  570MOL0     H76886   5.450  -0.470   5.732  0.8228 -1.1810 -1.2851
  570MOL0     H76887   5.680  -0.602   5.673  5.1013  0.8234  0.0270
  570MOL0     H76888   5.612  -0.479   5.571 -3.1272 -0.6736  1.5556
  570MOL0     H76889   5.860  -0.442   5.610 -0.7356  0.1926  0.0514
  570MOL0     H76890   5.763  -0.312   5.675 -2.8952 -0.6181 -1.4874
  570MOL0     H76891   5.764  -0.411   5.897 -0.0764  0.9739 -0.6639
  570MOL0     H76892   5.859  -0.558   5.840 -1.0223 -0.6831  0.1984
  570MOL0     H76893   6.051  -0.424   5.785  0.9103  2.5008 -1.3646
  570MOL0     H76894   5.957  -0.278   5.812 -0.1145 -0.6841 -0.7684
  570MOL0     H76895   6.102  -0.305   6.005  0.3729 -1.3573  0.5282
  570MOL0     H76896   5.939  -0.335   6.056  1.5409  2.0702  0.1153
  570MOL0     H76897   5.986  -0.571   6.075 -2.1664  1.0303 -2.3381
  570MOL0     H76898   6.128  -0.568   5.974  1.6731 -0.7748  2.3507
  570MOL0     H76899   6.102  -0.415   6.221  0.3435 -0.4134  1.0552
  570MOL0     H76900   6.251  -0.429   6.116  1.0128 -0.4296 -0.8055
  570MOL0     H76901   5.988  -0.607   6.319 -0.4375 -1.6199 -2.2596
  570MOL0     H76902   6.086  -0.897   6.510  1.6637 -0.9880  0.5981
  570MOL0     H76903   6.179  -0.791   6.604 -0.2615 -1.9004  0.4811
  570MOL0     H76904   5.890  -0.746   6.515 -0.8155 -1.7048  0.6861
  570MOL0     H76905   5.983  -0.629   6.614 -0.2747  0.4017 -2.0274
  570MOL0     H76906   5.922  -0.932   6.684 -0.3407 -1.0093  2.5936
  570MOL0     H76907   5.814  -0.797   6.736 -0.1684 -2.7314  4.6470
  570MOL0     H76908   6.092  -0.848   6.821 -0.6948 -1.0656  0.3951
  570MOL0     H76909   5.958  -0.863   6.929 -0.3597  0.4625  0.8312
  570MOL0     H76910   5.998  -0.401   6.878  0.1695 -0.1367  1.2460
  570MOL0     H76911   5.807  -0.172   7.014  0.0539  1.5108 -1.0517
  570MOL0     H76912   5.917  -0.207   6.890 -0.1364 -0.8714 -2.2758
  570MOL0     H76913   5.738  -0.193   6.857 -1.1946 -0.6220  1.6342
  570MOL0     H76914   5.250  -0.592   7.063  0.6302 -0.4304  0.2723
  570MOL0     H76915   5.025  -0.553   7.134  0.8358 -1.8798 -1.0680
  570MOL0     H76916   4.915  -0.124   7.251 -1.3928  0.3166  0.8559
  570MOL0     H76917   4.839  -0.169   7.096 -0.0568 -0.9556 -0.5236
  570MOL0     H76918   4.651  -0.157   7.215 -0.1050 -0.0903  0.1364
  570MOL0     H76919   4.689  -0.327   7.252  1.8061 -0.6192  0.3015
  570MOL0     H76920   4.715  -0.082   7.425  0.0550  0.5713 -1.2668
  570MOL0     H76921   4.809  -0.233   7.456 -0.3264 -0.8654  0.5975
  570MOL0     H76922   4.499  -0.246   7.432 -1.4978  1.4060  2.7857
  570MOL0     H76923   4.619  -0.349   7.515  2.4676 -0.0809 -3.5110
  570MOL0     H76924   4.521  -0.066   7.588  0.1214  0.0985  0.2691
  570MOL0     H76925   4.642  -0.142   7.676  0.2864 -0.3900  0.1886
  570MOL0     H76926   4.348  -0.236   7.626 -0.6915 -2.0916  1.8259
  570MOL0     H76927   4.468  -0.341   7.697  0.3728  1.0615  1.1966
  570MOL0     H76928   4.522  -0.162   7.876  1.7620 -0.5318 -2.0598
  570MOL0     H76929   4.376  -0.240   7.895 -1.2132  2.3747  0.0182
  570MOL0     H76930   4.414   0.029   7.774  3.0230 -3.0671  0.4355
  570MOL0     H76931   4.324  -0.021   7.922 -0.6497 -1.2715  0.6370
  570MOL0     H76932   5.100  -0.129   7.139  1.6362  0.3598 -1.9285
  570MOL0     H76933   5.338  -0.171   7.092 -1.0667  1.5095 -1.5626
  570MOL0     H76934   5.585  -0.625   7.048  1.0740 -1.0127  2.2973
  570MOL0     H76935   5.761  -0.754   6.984 -0.3261 -0.3584  1.2663
  570MOL0     H76936   5.469  -0.062   5.807 -0.5833  0.5570  0.0264
  570MOL0     H76937   5.291   0.035   5.951 -5.3218 -0.1998  0.1024
  570MOL0     H76938   5.127   0.158   6.392 -1.6657  2.3200  0.8375
  570MOL0     H76939   4.927   0.256   6.512  2.0053  0.8676 -0.8907
  570MOL0     H76940   4.747   0.198   6.648 -0.4896 -1.8248 -1.6224
  570MOL0     H76941   4.699   0.363   6.588 -1.7622  1.0939 -2.3865
  570MOL0     H76942   4.514   0.283   6.735 -2.7414 -3.6869  0.9565
  570MOL0     H76943   4.520   0.124   6.660  0.8213 -0.1573 -2.2790
  570MOL0     H76944   4.326   0.243   6.604  1.2402 -2.4172 -0.5909
  570MOL0     H76945   4.414   0.194   6.468 -5.1701 -0.6642  0.3515
  570MOL0     H76946   4.524   0.408   6.444  0.3610 -0.5192  0.2814
  570MOL0     H76947   4.426   0.479   6.569 -1.0746 -0.2586 -0.4135
  570MOL0     H76948   4.165   0.471   6.231 -0.8297  4.2678  0.1014
  570MOL0     H76949   4.679   0.038   6.250  1.0278 -0.5079 -0.3038
  570MOL0     H76950   4.863  -0.019   6.124  0.8310 -1.0436  0.9450
  571MOL0     O76951   4.561   2.858   2.804  0.5446 -0.1227 -0.4086
  571MOL0     C76952   4.557   2.769   2.894  0.4479 -0.3802  0.2709
  571MOL0     O76953   4.653   2.753   2.982 -0.5119 -0.0772 -0.5553
  571MOL0     C76954   4.753   2.843   2.997  0.1067  0.9447  0.5395
  571MOL0     C76955   4.763   2.889   3.128 -0.5774  0.2371 -0.6566
  571MOL0     C76956   4.864   2.978   3.158 -0.4319 -0.4084 -0.4085
  571MOL0     C76957   4.969   3.010   3.058 -0.8354  1.1622 -1.2294
  571MOL0     O76958   5.080   3.082   3.083  0.1742  0.2793  0.0827
  571MOL0     C76959   5.114   3.117   3.220  0.5595 -0.4356 -0.5713
  571MOL0     C76960   5.238   3.214   3.214  1.4119 -0.0730  0.4162
  571MOL0     C76961   5.368   3.137   3.181  0.5365  0.0250  0.7230
  571MOL0     C76962   5.482   3.236   3.233 -0.3337  0.3399  0.4285
  571MOL0     C76963   5.618   3.156   3.243  1.1219  0.2234  0.0358
  571MOL0     C76964   5.663   3.084   3.115  1.0665  1.2744  0.1072
  571MOL0     C76965   5.813   3.052   3.128 -0.3579  1.2502  0.6536
  571MOL0     C76966   5.899   3.180   3.123  1.1352  0.5088  0.2127
  571MOL0     N76967   6.027   3.157   3.065  0.7232  0.5696  0.3300
  571MOL0     C76968   6.055   3.174   2.931 -0.9060 -0.3632 -0.0639
  571MOL0     C76969   6.180   3.133   2.911 -0.2982 -0.5548  0.6538
  571MOL0     C76970   6.266   3.149   2.793  0.1723  0.3975 -0.0486
  571MOL0     C76971   6.185   3.179   2.663  0.2102 -0.6800  0.2996
  571MOL0     C76972   6.173   3.326   2.644  0.2672  0.1824 -0.0337
  571MOL0     C76973   6.187   3.345   2.496  0.4403 -0.2104  0.4713
  571MOL0     O76974   6.139   3.473   2.463 -0.1254 -0.1670  0.0429
  571MOL0     C76975   6.005   3.489   2.418 -0.0453  0.5492 -0.2575
  571MOL0     C76976   5.969   3.623   2.380 -0.2870 -0.1841 -0.5069
  571MOL0     C76977   5.837   3.637   2.330 -0.4887 -0.3812 -0.0960
  571MOL0     C76978   5.799   3.775   2.288 -0.2799  0.2988 -0.2316
  571MOL0     C76979   5.735   3.537   2.336  0.2762 -0.1282 -0.4517
  571MOL0     C76980   5.596   3.547   2.310  0.2654 -0.6583  0.0563
  571MOL0     O76981   5.530   3.432   2.286 -0.0968  0.2005 -0.4327
  571MOL0     C76982   5.400   3.458   2.250  0.3293  0.4427 -0.3303
  571MOL0     C76983   5.284   3.458   2.337  0.5395  0.1291  0.2254
  571MOL0     C76984   5.159   3.465   2.275 -0.8550 -0.3143 -0.0101
  571MOL0     C76985   5.147   3.482   2.139 -0.6517  0.6776 -0.3663
  571MOL0     O76986   5.022   3.471   2.091  0.0688 -0.1376  0.0720
  571MOL0     C76987   4.991   3.530   1.966 -0.3832 -1.3109  0.1590
  571MOL0     C76988   4.839   3.539   1.942 -0.8434  0.0657 -0.3505
  571MOL0     C76989   4.770   3.394   1.938  0.6881  0.5782  0.2357
  571MOL0     C76990   4.713   3.352   2.072  0.5644  0.5324 -0.4367
  571MOL0     C76991   4.653   3.209   2.080  0.0203 -0.8488 -0.4630
  571MOL0     C76992   4.551   3.182   1.976 -0.4799  0.3987  0.2812
  571MOL0     C76993   4.469   3.056   1.984  0.3069  1.1492 -0.3995
  571MOL0     C76994   4.367   3.051   1.872 -0.3102  0.0846 -0.0111
  571MOL0    Cl76995   4.218   2.955   1.917  0.3217 -0.0428  0.2131
  571MOL0     C76996   5.256   3.500   2.056 -1.2407  0.1870  0.6616
  571MOL0     C76997   5.384   3.493   2.117  0.4704  1.1101  0.6972
  571MOL0     O76998   5.548   3.660   2.312  0.2964 -0.0691  0.3870
  571MOL0     C76999   5.781   3.413   2.391 -0.6850  0.4451 -0.1499
  571MOL0     C77000   5.914   3.387   2.427  0.2956 -0.2307 -0.7953
  571MOL0     N77001   6.227   3.079   3.031 -0.1465  0.2914 -0.3416
  571MOL0     N77002   6.134   3.087   3.126 -0.9873 -0.1480  0.4123
  571MOL0     C77003   4.956   2.963   2.931 -0.2403  0.4669  0.5666
  571MOL0     C77004   4.840   2.886   2.896 -0.8628  0.0675 -0.1874
  571MOL0     C77005   4.428   2.704   2.918  0.2177  0.1097 -1.0954
  571MOL0     C77006   4.433   2.593   3.000  0.0311  0.3932 -0.1454
  571MOL0     C77007   4.315   2.515   3.020  0.7224  0.1899  0.4186
  571MOL0     C77008   4.187   2.555   2.972 -1.1140  0.2307  0.8159
  571MOL0     O77009   4.075   2.473   2.970  0.4907  0.5047  0.2111
  571MOL0     C77010   4.085   2.336   2.932 -0.5759 -0.1352 -0.6976
  571MOL0     C77011   3.951   2.265   2.954  0.0129 -0.2795 -0.1638
  571MOL0     C77012   3.868   2.254   2.830  0.2427  0.7263  0.6085
  571MOL0     C77013   3.827   2.394   2.780  0.1169 -0.5944 -0.7501
  571MOL0     C77014   3.744   2.486   2.865 -0.7104  0.3652 -0.1489
  571MOL0     C77015   3.674   2.557   2.930  0.6205  0.5606  0.3601
  571MOL0     C77016   4.186   2.670   2.899  0.1616 -0.0902  0.3362
  571MOL0     C77017   4.301   2.742   2.867 -0.4816  0.3112 -0.2892
  571MOL0     H77018   4.696   2.858   3.207 -0.2792  1.1956 -0.0045
  571MOL0     H77019   4.881   3.013   3.259 -2.8480  0.2394 -0.1726
  571MOL0     H77020   5.034   3.174   3.268 -0.0128  1.7095 -3.7928
  571MOL0     H77021   5.126   3.026   3.280  0.2858  0.3260  0.6891
  571MOL0     H77022   5.213   3.280   3.131 -2.3264 -2.3982 -0.5329
  571MOL0     H77023   5.248   3.263   3.312 -1.7168  1.6993 -0.0213
  571MOL0     H77024   5.377   3.045   3.240  0.5203  2.6736  5.3153
  571MOL0     H77025   5.378   3.133   3.072  0.5205 -2.8398  0.7472
  571MOL0     H77026   5.503   3.316   3.161 -0.6521 -0.0329 -0.0835
  571MOL0     H77027   5.451   3.287   3.325  0.9550  3.4984 -0.7467
  571MOL0     H77028   5.695   3.226   3.277  0.3029  1.1660 -0.0027
  571MOL0     H77029   5.617   3.084   3.325  0.9551 -0.3794 -0.4798
  571MOL0     H77030   5.610   2.989   3.108  0.9055  1.2574  1.3038
  571MOL0     H77031   5.635   3.137   3.023  1.0505  2.0701  0.5546
  571MOL0     H77032   5.832   2.990   3.216 -0.4329 -2.1157 -1.5134
  571MOL0     H77033   5.846   2.989   3.044 -2.6193 -2.8636  2.5188
  571MOL0     H77034   5.925   3.207   3.226 -0.9706  1.3046  0.5785
  571MOL0     H77035   5.839   3.264   3.085  0.2023 -0.4140 -0.3999
  571MOL0     H77036   5.999   3.217   2.848  1.9342 -0.4709 -2.2031
  571MOL0     H77037   6.352   3.213   2.815 -0.2466  0.5786  1.1319
  571MOL0     H77038   6.316   3.052   2.781 -2.2845 -0.8543 -0.9193
  571MOL0     H77039   6.088   3.131   2.653  0.3032 -1.0900  1.2400
  571MOL0     H77040   6.249   3.144   2.582  1.4037  2.9520 -0.5221
  571MOL0     H77041   6.253   3.382   2.694  0.6370  0.3388 -0.7878
  571MOL0     H77042   6.073   3.355   2.677  0.2424  0.0817 -0.0207
  571MOL0     H77043   6.148   3.268   2.428  3.2572 -0.1093 -1.4238
  571MOL0     H77044   6.290   3.334   2.462  0.1370  1.3998 -1.1595
  571MOL0     H77045   6.044   3.697   2.408 -0.4072 -0.4523  0.5429
  571MOL0     H77046   5.727   3.787   2.207 -2.6344  2.4544  1.9926
  571MOL0     H77047   5.763   3.829   2.376 -1.4495  0.0123 -0.5131
  571MOL0     H77048   5.892   3.826   2.260 -0.2153  0.5279  0.3719
  571MOL0     H77049   5.294   3.460   2.446 -1.0122  0.4207  0.3783
  571MOL0     H77050   5.065   3.458   2.329  0.2544  1.3859  2.3058
  571MOL0     H77051   5.029   3.632   1.972 -0.6171 -1.3014  2.1618
  571MOL0     H77052   5.031   3.466   1.887 -1.6232 -1.8831 -0.0322
  571MOL0     H77053   4.793   3.607   2.014 -0.2423 -0.4944  0.5918
  571MOL0     H77054   4.825   3.596   1.850  1.2430  0.6462 -0.3595
  571MOL0     H77055   4.846   3.328   1.896 -1.1364 -0.2462 -2.0594
  571MOL0     H77056   4.692   3.395   1.860 -0.8150 -3.3742  1.4655
  571MOL0     H77057   4.798   3.354   2.141  0.6611 -2.0287 -0.3892
  571MOL0     H77058   4.640   3.431   2.090  2.7562  2.7393 -0.6607
  571MOL0     H77059   4.607   3.200   2.178  1.3992 -0.6767  0.2324
  571MOL0     H77060   4.735   3.138   2.065  1.9712  1.0086  0.7220
  571MOL0     H77061   4.479   3.263   1.964 -1.5091 -0.2808  1.5945
  571MOL0     H77062   4.611   3.165   1.886  0.3003  1.1783  0.6505
  571MOL0     H77063   4.419   3.058   2.081  3.8550  1.1689  1.6431
  571MOL0     H77064   4.536   2.969   1.975  1.2223  2.0241 -2.7867
  571MOL0     H77065   4.405   2.996   1.785 -0.6849 -0.9342  0.4612
  571MOL0     H77066   4.344   3.155   1.848  1.5323 -0.0056 -2.6086
  571MOL0     H77067   5.261   3.525   1.951  1.6227  2.1266  1.1585
  571MOL0     H77068   5.475   3.507   2.060 -0.2501 -1.5850 -1.3123
  571MOL0     H77069   5.711   3.331   2.406 -0.0973 -0.2367 -1.0212
  571MOL0     H77070   5.931   3.298   2.486  0.8279  0.4064  0.0332
  571MOL0     H77071   5.020   2.986   2.846  0.0137 -0.0173  0.6179
  571MOL0     H77072   4.825   2.854   2.794  3.4516 -0.2511 -0.9293
  571MOL0     H77073   4.528   2.563   3.043 -0.3209 -1.5145 -0.6035
  571MOL0     H77074   4.332   2.421   3.072  4.5543  0.5943  0.1240
  571MOL0     H77075   4.124   2.336   2.830  0.0223  2.1378 -0.5280
  571MOL0     H77076   4.164   2.288   2.992  0.2840  2.2687  0.2382
  571MOL0     H77077   3.893   2.305   3.037 -1.8347 -3.8376  0.4522
  571MOL0     H77078   3.966   2.161   2.984  0.8665 -1.1986 -3.3700
  571MOL0     H77079   3.780   2.198   2.862  1.4467 -1.2680  0.5693
  571MOL0     H77080   3.910   2.196   2.748  0.4080 -1.6390  2.2527
  571MOL0     H77081   3.751   2.384   2.702 -0.5640 -1.6711  0.0228
  571MOL0     H77082   3.920   2.439   2.744  1.5070 -2.6060  0.1508
  571MOL0     H77083   3.611   2.627   2.981 -2.1061 -0.8295 -0.8654
  571MOL0     H77084   4.090   2.689   2.851  0.5834 -2.1286 -1.4743
  571MOL0     H77085   4.304   2.818   2.789  2.0669  0.4360 -0.1602
  572MOL0     O77086   2.111   5.594   2.259  0.4705  0.4079  0.0564
  572MOL0     C77087   2.215   5.585   2.192  1.3836  0.9476 -0.0225
  572MOL0     O77088   2.340   5.618   2.231 -0.1837  0.1144 -0.1784
  572MOL0     C77089   2.357   5.647   2.364  1.1256  0.4377 -0.2355
  572MOL0     C77090   2.293   5.766   2.409  1.2059  0.1574  0.0679
  572MOL0     C77091   2.321   5.815   2.538 -0.4744 -0.2527  0.3419
  572MOL0     C77092   2.411   5.745   2.621 -0.6775  0.8471 -0.3619
  572MOL0     O77093   2.439   5.776   2.753  0.6863 -0.2406  0.0411
  572MOL0     C77094   2.389   5.898   2.804 -0.5374 -0.4897 -0.0317
  572MOL0     C77095   2.382   5.897   2.956  0.4174 -0.4661 -0.3589
  572MOL0     C77096   2.521   5.923   3.019 -1.0432  0.4271 -0.2671
  572MOL0     C77097   2.522   5.954   3.171 -0.3374 -0.2398  0.5737
  572MOL0     C77098   2.666   5.991   3.197 -0.2109  0.1354  0.2399
  572MOL0     C77099   2.692   6.072   3.327  1.3022 -0.1135 -0.6424
  572MOL0     C77100   2.692   5.986   3.457 -0.5559 -0.1046 -0.3843
  572MOL0     C77101   2.759   6.061   3.581  0.1890 -1.0228  0.2017
  572MOL0     N77102   2.688   6.180   3.617  0.9236 -0.0357 -0.1117
  572MOL0     C77103   2.576   6.188   3.693 -0.5515 -0.3669 -0.9437
  572MOL0     C77104   2.553   6.318   3.705  0.5297  0.2421  1.1558
  572MOL0     C77105   2.434   6.388   3.785 -0.4937 -0.6799  0.8988
  572MOL0     C77106   2.498   6.471   3.889 -0.6135  0.1584 -0.1196
  572MOL0     C77107   2.401   6.504   4.000  0.1725  0.3486 -0.3822
  572MOL0     C77108   2.280   6.593   3.970  0.5269 -0.1410 -1.3273
  572MOL0     O77109   2.198   6.553   3.862  0.3215  0.0071 -0.9294
  572MOL0     C77110   2.064   6.587   3.854  0.1134  0.1775 -0.4495
  572MOL0     C77111   1.974   6.585   3.963 -0.8442 -0.8147 -0.1697
  572MOL0     C77112   1.843   6.631   3.946  0.4388  0.1070 -0.2576
  572MOL0     C77113   1.757   6.626   4.068 -0.7951  0.5619 -0.2728
  572MOL0     C77114   1.805   6.678   3.815  0.2779  0.7865 -0.3868
  572MOL0     C77115   1.678   6.733   3.772 -0.2513 -0.1504 -0.1637
  572MOL0     O77116   1.630   6.816   3.871 -0.1887  0.6720  0.1317
  572MOL0     C77117   1.518   6.895   3.847  0.6591 -1.2875 -0.5919
  572MOL0     C77118   1.507   7.000   3.944 -0.1615 -0.8401  0.2463
  572MOL0     C77119   1.397   7.082   3.942  0.1095 -0.2964  0.3018
  572MOL0     C77120   1.293   7.066   3.846  0.1856  0.1652  0.5569
  572MOL0     O77121   1.175   7.131   3.848 -0.0970  0.3855  0.0400
  572MOL0     C77122   1.127   7.176   3.971  0.4017 -1.2237 -0.6685
  572MOL0     C77123   0.982   7.224   3.949  0.3938  0.6179  0.6968
  572MOL0     C77124   0.964   7.377   3.924  0.2675 -0.2454  0.6766
  572MOL0     C77125   1.052   7.430   3.812 -0.3808  0.5670  1.0103
  572MOL0     C77126   1.037   7.574   3.769 -0.0145 -0.2313 -0.5587
  572MOL0     C77127   1.095   7.600   3.626 -0.1015  0.7580  0.2056
  572MOL0     C77128   1.133   7.747   3.596  0.4826  0.0644  0.1729
  572MOL0     C77129   1.013   7.832   3.554 -0.2093  0.1323  0.1482
  572MOL0    Cl77130   0.989   7.832   3.379  0.0129 -0.0277 -0.1616
  572MOL0     C77131   1.306   6.958   3.763  0.6210 -0.4055  0.8294
  572MOL0     C77132   1.417   6.870   3.758  1.0888  0.0587  0.3530
  572MOL0     O77133   1.637   6.712   3.650 -0.0050  0.4341 -0.0503
  572MOL0     C77134   1.886   6.656   3.707  0.5977 -0.8600 -0.4734
  572MOL0     C77135   2.014   6.612   3.727  0.1775 -0.4269  0.6870
  572MOL0     N77136   2.635   6.390   3.620  0.5622 -0.0048  0.1846
  572MOL0     N77137   2.711   6.307   3.554 -0.0572  0.9772 -0.3769
  572MOL0     C77138   2.470   5.621   2.581  0.3533  0.4753  0.6755
  572MOL0     C77139   2.441   5.578   2.447 -0.6556  0.1425 -0.1704
  572MOL0     C77140   2.179   5.550   2.048 -0.4912 -0.1116 -0.0862
  572MOL0     C77141   2.275   5.546   1.955  0.2139  0.4796  0.1727
  572MOL0     C77142   2.246   5.492   1.830 -0.3342 -0.3636  0.0633
  572MOL0     C77143   2.109   5.468   1.791 -0.4160 -0.0701  0.9183
  572MOL0     O77144   2.079   5.429   1.661  0.0559  0.1907  0.5001
  572MOL0     C77145   2.160   5.485   1.561  0.0246  0.9193 -0.0517
  572MOL0     C77146   2.085   5.461   1.430  1.1022 -0.1763  0.8561
  572MOL0     C77147   1.956   5.547   1.414  0.4222  0.2928 -0.4316
  572MOL0     C77148   1.867   5.496   1.302 -0.6754  0.3224  0.7927
  572MOL0     C77149   1.925   5.506   1.162  0.3405 -0.7772 -0.1854
  572MOL0     C77150   1.958   5.527   1.048  0.0637  0.5559  0.6819
  572MOL0     C77151   2.013   5.479   1.891  0.2487  0.3809 -0.2276
  572MOL0     C77152   2.046   5.511   2.019  0.6822  0.5221  0.0917
  572MOL0     H77153   2.230   5.823   2.341  2.5434  0.8718 -0.6281
  572MOL0     H77154   2.295   5.920   2.544  0.6251  0.1679 -1.4501
  572MOL0     H77155   2.457   5.974   2.764  0.1499 -1.4639 -0.7740
  572MOL0     H77156   2.291   5.926   2.765 -0.0707  1.5641  0.1124
  572MOL0     H77157   2.308   5.976   2.967  0.5991 -0.2081 -0.9698
  572MOL0     H77158   2.340   5.803   2.995 -0.9038 -0.3106 -1.3590
  572MOL0     H77159   2.591   5.840   3.009  0.3257  1.3270  1.3038
  572MOL0     H77160   2.570   6.003   2.962  2.4287 -0.9525  0.5340
  572MOL0     H77161   2.455   6.039   3.187  0.3293  0.9191 -2.1113
  572MOL0     H77162   2.494   5.870   3.235  1.0335 -0.4639  0.9045
  572MOL0     H77163   2.722   5.898   3.213 -0.3798  0.0910  0.5694
  572MOL0     H77164   2.704   6.041   3.108 -1.3495 -2.6609 -1.9788
  572MOL0     H77165   2.789   6.122   3.315  0.1765  3.2747  2.3992
  572MOL0     H77166   2.620   6.155   3.332  0.0306 -1.2633  1.2508
  572MOL0     H77167   2.591   5.954   3.486 -0.7677 -0.3554 -1.3789
  572MOL0     H77168   2.759   5.904   3.433 -0.1599 -0.0555  0.4946
  572MOL0     H77169   2.858   6.092   3.544 -1.4499  1.3057 -2.7104
  572MOL0     H77170   2.760   5.990   3.664 -1.1917  0.6229  1.7215
  572MOL0     H77171   2.525   6.105   3.741  0.5170 -2.6890 -3.5561
  572MOL0     H77172   2.371   6.445   3.716 -0.8379 -2.8201 -0.6514
  572MOL0     H77173   2.379   6.308   3.834 -0.0614 -0.4107  1.8480
  572MOL0     H77174   2.530   6.566   3.843 -3.2618  1.7890  1.1278
  572MOL0     H77175   2.577   6.410   3.932  1.0230  0.5567 -2.3659
  572MOL0     H77176   2.465   6.535   4.083  0.7440  1.1377 -1.0947
  572MOL0     H77177   2.365   6.410   4.042  0.1372 -0.6047 -2.4111
  572MOL0     H77178   2.323   6.687   3.933  1.9406 -0.0160  0.5256
  572MOL0     H77179   2.224   6.610   4.062 -0.0538 -1.5241 -1.4141
  572MOL0     H77180   2.007   6.556   4.062  1.8260  1.1316 -0.3852
  572MOL0     H77181   1.770   6.711   4.136 -1.2567 -0.9195  1.8002
  572MOL0     H77182   1.649   6.619   4.051 -1.1293  1.9710  1.0727
  572MOL0     H77183   1.785   6.540   4.130 -2.2326  1.1186  1.2160
  572MOL0     H77184   1.575   7.006   4.028 -0.0420  0.2356  0.0863
  572MOL0     H77185   1.397   7.152   4.025  1.2419  1.8145 -1.3712
  572MOL0     H77186   1.122   7.095   4.044  0.4039 -0.7173 -0.0933
  572MOL0     H77187   1.179   7.265   4.008 -1.2984 -1.0542  1.5400
  572MOL0     H77188   0.934   7.165   3.870  1.3771  1.5221 -0.6244
  572MOL0     H77189   0.933   7.208   4.046  1.6156  3.1993  1.8404
  572MOL0     H77190   0.982   7.430   4.018  1.0368  1.3726 -0.3437
  572MOL0     H77191   0.862   7.404   3.896  0.0170 -2.1384 -0.4136
  572MOL0     H77192   1.154   7.421   3.850 -0.8139 -4.0333  1.6661
  572MOL0     H77193   1.029   7.361   3.730 -2.4183  0.1501  1.8738
  572MOL0     H77194   1.107   7.634   3.828 -1.8069  3.1454 -1.6095
  572MOL0     H77195   0.933   7.605   3.783  0.0762 -0.6256  1.3346
  572MOL0     H77196   1.182   7.537   3.606 -2.5536 -2.3150 -1.6501
  572MOL0     H77197   1.025   7.565   3.551  0.5343  0.3472 -0.2090
  572MOL0     H77198   1.208   7.749   3.517 -1.7137 -3.1889 -2.3201
  572MOL0     H77199   1.172   7.791   3.688  2.0783 -2.9101  1.0553
  572MOL0     H77200   1.036   7.935   3.585 -2.5920  0.6350  0.5091
  572MOL0     H77201   0.932   7.785   3.611  0.0055  0.2652  0.5697
  572MOL0     H77202   1.221   6.947   3.696  2.2071 -2.1675 -0.9977
  572MOL0     H77203   1.411   6.781   3.697  0.0991 -0.5649  1.3231
  572MOL0     H77204   1.857   6.687   3.607 -3.7384 -1.7936  0.3025
  572MOL0     H77205   2.093   6.620   3.652 -0.5252  0.0214 -0.0169
  572MOL0     H77206   2.522   5.565   2.658  0.1108 -0.6367  0.0570
  572MOL0     H77207   2.491   5.489   2.410  1.3680  1.2259 -0.2092
  572MOL0     H77208   2.371   5.589   1.980  0.8465 -1.4526  1.3134
  572MOL0     H77209   2.324   5.489   1.754 -1.0606  0.4148 -0.7319
  572MOL0     H77210   2.173   5.591   1.585 -0.4658  1.2359 -1.1334
  572MOL0     H77211   2.261   5.443   1.551  0.6498  0.7262  4.8068
  572MOL0     H77212   2.059   5.355   1.422 -1.5312  0.5357 -1.9410
  572MOL0     H77213   2.157   5.476   1.348  0.0246 -0.8034 -0.2439
  572MOL0     H77214   1.977   5.649   1.382 -0.7373  0.4929 -0.5991
  572MOL0     H77215   1.907   5.557   1.511  1.4070  2.1240 -0.0937
  572MOL0     H77216   1.774   5.553   1.297  0.8326  2.8791 -0.1122
  572MOL0     H77217   1.841   5.393   1.328  1.5274 -0.2239  1.0556
  572MOL0     H77218   1.996   5.556   0.953  1.3354 -2.1118  0.2859
  572MOL0     H77219   1.911   5.452   1.865  0.4363  0.2476 -0.8460
  572MOL0     H77220   1.963   5.506   2.089  1.5857  1.3952  1.2787
  573MOL0     O77221   2.787   3.861   4.050  0.1988  0.2976 -0.1202
  573MOL0     C77222   2.736   3.917   3.958  0.0111 -0.5429  0.4553
  573MOL0     O77223   2.795   3.988   3.854  0.1016 -0.6856  0.3840
  573MOL0     C77224   2.922   4.016   3.843  0.0254  0.0883  0.3988
  573MOL0     C77225   3.018   4.021   3.946  0.1887 -0.5663 -0.3189
  573MOL0     C77226   3.154   4.044   3.923 -0.6751 -0.5871  0.0400
  573MOL0     C77227   3.205   4.048   3.790  0.3817 -0.8856  0.7895
  573MOL0     O77228   3.338   4.069   3.784  0.2138  0.8695  0.7166
  573MOL0     C77229   3.390   4.103   3.663 -0.2395 -0.6203 -0.0620
  573MOL0     C77230   3.540   4.124   3.693  0.3304 -0.2081  0.3304
  573MOL0     C77231   3.607   4.180   3.565 -0.1184 -0.3865 -0.4289
  573MOL0     C77232   3.746   4.215   3.601 -0.0397 -0.2242 -0.3929
  573MOL0     C77233   3.829   4.270   3.474 -0.4500  0.4668 -0.8358
  573MOL0     C77234   3.876   4.161   3.375  0.6041  0.0069  0.0637
  573MOL0     C77235   3.959   4.212   3.261  0.6783 -0.3855 -0.9568
  573MOL0     C77236   3.977   4.093   3.164 -0.1184 -0.5568 -0.7964
  573MOL0     N77237   4.091   4.117   3.078  0.9344 -0.0939  0.0843
  573MOL0     C77238   4.210   4.056   3.094 -0.9187  0.2477  0.5766
  573MOL0     C77239   4.288   4.110   2.991 -0.2990  0.5256 -0.9321
  573MOL0     C77240   4.428   4.051   2.966 -0.3956  0.1463 -0.2952
  573MOL0     C77241   4.531   4.128   3.045 -1.0237 -0.6713 -0.5727
  573MOL0     C77242   4.536   4.279   3.042 -0.2279 -0.1918 -0.0930
  573MOL0     C77243   4.653   4.347   3.127  0.4309  0.6651  0.2696
  573MOL0     O77244   4.619   4.474   3.163 -0.3508 -0.3145  0.3639
  573MOL0     C77245   4.707   4.556   3.237  0.0375 -0.0415  1.1709
  573MOL0     C77246   4.671   4.687   3.251 -0.1854  0.3505  0.4176
  573MOL0     C77247   4.772   4.779   3.306 -0.8083  0.2156 -0.2136
  573MOL0     C77248   4.726   4.927   3.308 -0.0172  0.8289  0.3842
  573MOL0     C77249   4.899   4.733   3.356 -0.2043 -0.4646  0.1965
  573MOL0     C77250   5.004   4.820   3.419  0.6667 -0.1316  0.6519
  573MOL0     O77251   5.123   4.754   3.431 -0.2270 -0.8955  0.1074
  573MOL0     C77252   5.232   4.812   3.494 -0.0542 -0.2936 -0.1619
  573MOL0     C77253   5.257   4.946   3.514  0.4638  0.1495 -0.9109
  573MOL0     C77254   5.373   4.998   3.572  0.5917 -0.2740 -0.5517
  573MOL0     C77255   5.475   4.914   3.619  0.4493  0.0085 -0.2255
  573MOL0     O77256   5.593   4.954   3.689 -0.2689 -0.0108  0.4464
  573MOL0     C77257   5.650   5.081   3.669  0.0912 -0.3973 -0.4833
  573MOL0     C77258   5.789   5.089   3.717  0.4234 -0.2792  1.4053
  573MOL0     C77259   5.778   5.104   3.873 -1.1297 -0.2213  0.4849
  573MOL0     C77260   5.920   5.090   3.938 -0.2330 -0.3408  0.4521
  573MOL0     C77261   5.912   5.112   4.086  0.2803 -0.4449  0.3880
  573MOL0     C77262   6.037   5.078   4.153  0.9272  0.0136 -0.4011
  573MOL0     C77263   6.129   5.199   4.149 -0.2975  0.2000 -1.1309
  573MOL0     C77264   6.270   5.143   4.189 -0.0801 -0.4249  0.8629
  573MOL0    Cl77265   6.256   5.043   4.341 -0.1881 -0.2594  0.6391
  573MOL0     C77266   5.449   4.782   3.606 -0.4469  0.2941  0.9332
  573MOL0     C77267   5.328   4.725   3.551 -0.3396  0.0265 -0.1033
  573MOL0     O77268   4.977   4.929   3.458  0.3617 -0.2122  0.0513
  573MOL0     C77269   4.926   4.599   3.340  0.9119  0.9627  0.2844
  573MOL0     C77270   4.830   4.510   3.273 -0.2065 -0.1493 -0.8395
  573MOL0     N77271   4.216   4.208   2.928  0.0402 -0.3598  0.7803
  573MOL0     N77272   4.096   4.201   2.971  0.5346  0.1705 -0.6229
  573MOL0     C77273   3.108   4.054   3.685 -0.2247  1.4376 -0.2697
  573MOL0     C77274   2.968   4.031   3.711 -0.3848 -0.4289 -0.5935
  573MOL0     C77275   2.589   3.925   3.957 -0.5181  0.4163 -0.8425
  573MOL0     C77276   2.519   3.976   3.855  0.6612 -1.1387 -0.2667
  573MOL0     C77277   2.379   3.992   3.854  0.6711  0.4003 -0.5315
  573MOL0     C77278   2.305   3.950   3.967 -0.1361  0.2505 -0.4146
  573MOL0     O77279   2.175   3.966   3.983  0.4335  0.4315 -0.2396
  573MOL0     C77280   2.104   4.037   3.883  0.0595  0.7343  0.2203
  573MOL0     C77281   1.951   4.035   3.921 -0.6749  0.1281  0.4001
  573MOL0     C77282   1.851   4.032   3.800 -0.1564 -0.1978 -0.5561
  573MOL0     C77283   1.866   4.140   3.700  0.1728  0.1428  0.1435
  573MOL0     C77284   1.739   4.158   3.626 -0.3100  0.0339  0.0840
  573MOL0     C77285   1.631   4.170   3.566  1.0278  0.4261 -1.4118
  573MOL0     C77286   2.377   3.895   4.072  0.3457 -0.1110  0.6470
  573MOL0     C77287   2.516   3.883   4.070  0.0217  0.7177  0.1613
  573MOL0     H77288   2.980   4.020   4.048 -0.2299 -1.9533 -0.4673
  573MOL0     H77289   3.235   4.062   3.993 -0.3433  1.4139 -0.8036
  573MOL0     H77290   3.383   4.027   3.584  0.8491  1.5097 -2.3749
  573MOL0     H77291   3.348   4.201   3.636  1.3512  0.5825  1.5313
  573MOL0     H77292   3.541   4.201   3.771  1.3030  2.0221 -1.7356
  573MOL0     H77293   3.595   4.036   3.729 -0.6756 -0.3290  1.6631
  573MOL0     H77294   3.607   4.117   3.476  0.5093  0.6873 -1.2183
  573MOL0     H77295   3.560   4.270   3.523 -0.2660 -2.0457 -4.1647
  573MOL0     H77296   3.744   4.294   3.677 -0.1518  0.9648 -1.6084
  573MOL0     H77297   3.790   4.122   3.640  0.5559  0.3969  0.4494
  573MOL0     H77298   3.758   4.327   3.414  0.2139  0.3386 -1.7772
  573MOL0     H77299   3.915   4.328   3.509 -0.7202 -0.3280  1.2668
  573MOL0     H77300   3.928   4.081   3.427  0.3899  0.3473  0.8090
  573MOL0     H77301   3.791   4.122   3.317  1.2677 -0.9902 -0.2766
  573MOL0     H77302   3.900   4.295   3.222  0.4498 -0.2622 -0.3719
  573MOL0     H77303   4.054   4.242   3.304  0.9410 -0.8762 -1.1856
  573MOL0     H77304   3.882   4.085   3.110  0.3326 -2.2886 -1.3874
  573MOL0     H77305   3.989   4.001   3.222  0.0095  0.5825  1.0801
  573MOL0     H77306   4.240   3.970   3.151  0.7332  0.8103  0.5982
  573MOL0     H77307   4.427   3.944   2.987  1.8694  0.2887  0.7714
  573MOL0     H77308   4.437   4.061   2.858 -1.1450 -0.1186 -0.3866
  573MOL0     H77309   4.627   4.092   3.007 -0.1580 -0.2580  1.1343
  573MOL0     H77310   4.526   4.105   3.152 -2.7828  0.6515 -0.3289
  573MOL0     H77311   4.445   4.313   3.093 -1.4739 -3.6161  0.2272
  573MOL0     H77312   4.526   4.312   2.939 -0.5071 -1.1728 -0.3866
  573MOL0     H77313   4.742   4.343   3.063 -0.8539 -0.7612 -1.5123
  573MOL0     H77314   4.664   4.290   3.219  0.3729  2.0834  1.1849
  573MOL0     H77315   4.573   4.721   3.220 -0.7159 -0.5492  1.0427
  573MOL0     H77316   4.656   4.948   3.226 -0.3781 -0.7304  0.2622
  573MOL0     H77317   4.677   4.941   3.405  0.3641 -0.0718  0.7202
  573MOL0     H77318   4.814   4.990   3.295  2.3011 -2.4378 -1.0939
  573MOL0     H77319   5.182   5.021   3.489 -1.1519 -0.1411  2.5048
  573MOL0     H77320   5.371   5.102   3.604  0.0851 -1.1197  2.5632
  573MOL0     H77321   5.637   5.124   3.569 -1.9186  0.7791  0.2101
  573MOL0     H77322   5.593   5.155   3.727  1.0496 -0.4882  0.6053
  573MOL0     H77323   5.846   4.999   3.690 -2.0974 -1.8579  1.0099
  573MOL0     H77324   5.835   5.176   3.670 -1.2394  0.1665  0.5137
  573MOL0     H77325   5.719   5.021   3.913 -1.5489  0.7992  2.0968
  573MOL0     H77326   5.738   5.204   3.892  1.9898  2.5245 -5.0133
  573MOL0     H77327   5.941   4.984   3.922 -0.7189 -0.2454 -1.0437
  573MOL0     H77328   5.996   5.153   3.890 -0.8435 -0.5942 -0.8841
  573MOL0     H77329   5.833   5.050   4.130 -0.9997 -0.2432 -1.4990
  573MOL0     H77330   5.868   5.210   4.108 -2.1422 -1.9812  3.0490
  573MOL0     H77331   6.008   5.059   4.257 -0.0410 -2.3123 -1.0463
  573MOL0     H77332   6.081   4.988   4.109  0.4608 -1.1220  1.3667
  573MOL0     H77333   6.098   5.270   4.226  2.9000 -1.1670  1.6437
  573MOL0     H77334   6.130   5.251   4.053 -0.1981  0.4786 -0.9773
  573MOL0     H77335   6.351   5.214   4.207  2.2162 -2.0204 -2.1186
  573MOL0     H77336   6.308   5.091   4.101  1.5648  0.3836  1.0602
  573MOL0     H77337   5.514   4.704   3.644  0.8875  0.7986 -0.2134
  573MOL0     H77338   5.306   4.622   3.527 -0.5683  1.0245 -5.2234
  573MOL0     H77339   5.022   4.553   3.362 -0.0619 -2.1846 -1.3992
  573MOL0     H77340   4.859   4.407   3.254  0.6191  0.1561 -1.2569
  573MOL0     H77341   3.139   4.074   3.583  1.4601 -0.7034 -0.2355
  573MOL0     H77342   2.910   4.030   3.619 -1.4579 -1.6530  0.0707
  573MOL0     H77343   2.567   4.013   3.765  1.2775 -0.1751  0.4479
  573MOL0     H77344   2.327   4.036   3.770 -1.9299  0.9391  1.2742
  573MOL0     H77345   2.132   4.143   3.872 -1.5925  1.2781  0.8821
  573MOL0     H77346   2.102   3.985   3.787  0.6976  2.8616 -1.0221
  573MOL0     H77347   1.936   4.129   3.976  1.8290 -0.7834  2.8895
  573MOL0     H77348   1.926   3.945   3.979 -2.4573 -0.6100 -1.4107
  573MOL0     H77349   1.764   4.067   3.856  1.9461  1.9087  1.6500
  573MOL0     H77350   1.830   3.929   3.768 -1.9594 -0.3674  1.0394
  573MOL0     H77351   1.942   4.115   3.626 -2.5384 -1.1026 -2.4206
  573MOL0     H77352   1.898   4.236   3.742 -1.2425  0.8773 -0.3924
  573MOL0     H77353   1.531   4.186   3.530 -1.0523 -3.1572  1.9433
  573MOL0     H77354   2.328   3.864   4.163 -0.7482 -0.6644 -0.1033
  573MOL0     H77355   2.570   3.839   4.153  2.0363 -1.3537 -2.0758
  574MOL0     O77356   1.346   7.876   1.580 -0.2222 -0.0613  0.6654
  574MOL0     C77357   1.375   7.931   1.477  0.1101 -0.3437  0.9986
  574MOL0     O77358   1.308   7.906   1.357 -0.3832  0.8624  0.7484
  574MOL0     C77359   1.214   7.799   1.328  0.2895 -0.2705 -0.7155
  574MOL0     C77360   1.164   7.800   1.198 -0.6379 -0.2008 -0.2792
  574MOL0     C77361   1.080   7.711   1.145 -0.3180 -0.2043  0.4083
  574MOL0     C77362   1.020   7.604   1.225 -1.1918 -0.6814 -0.0909
  574MOL0     O77363   0.919   7.523   1.176  0.3175 -0.1224  0.3839
  574MOL0     C77364   0.795   7.524   1.240 -0.2967  0.5118 -0.0024
  574MOL0     C77365   0.715   7.396   1.230 -0.3129 -0.2904  0.5349
  574MOL0     C77366   0.622   7.361   1.348 -0.2477  0.3806 -0.6829
  574MOL0     C77367   0.554   7.226   1.316 -0.0514 -0.3656  0.0231
  574MOL0     C77368   0.473   7.185   1.443 -0.6045 -0.1711 -0.3740
  574MOL0     C77369   0.380   7.059   1.425 -0.4833 -0.6014  0.0731
  574MOL0     C77370   0.308   7.003   1.545 -0.1694 -0.2617 -0.3182
  574MOL0     C77371   0.184   7.091   1.564  0.4568  0.3753  0.6965
  574MOL0     N77372   0.082   7.020   1.644  0.3445 -0.8384  0.4057
  574MOL0     C77373  -0.046   6.998   1.598  0.1636  0.2783 -0.3136
  574MOL0     C77374  -0.109   6.928   1.689 -0.4031 -0.1352  0.2107
  574MOL0     C77375  -0.251   6.893   1.672  0.7000  0.1289  0.1985
  574MOL0     C77376  -0.275   6.782   1.564 -0.3553 -0.1493  0.8351
  574MOL0     C77377  -0.214   6.645   1.582 -0.7909 -0.4201 -0.3030
  574MOL0     C77378  -0.259   6.545   1.471  0.0537  0.4489  0.2608
  574MOL0     O77379  -0.401   6.520   1.494 -0.6171  0.7537 -0.5365
  574MOL0     C77380  -0.475   6.424   1.434 -1.0737 -1.1411 -0.6615
  574MOL0     C77381  -0.430   6.347   1.331 -0.3545  0.0906 -0.0639
  574MOL0     C77382  -0.510   6.243   1.277  0.3248 -0.1052 -0.2920
  574MOL0     C77383  -0.456   6.164   1.171  0.5604  0.2980  0.3917
  574MOL0     C77384  -0.640   6.227   1.326  0.1207 -0.3923  0.0821
  574MOL0     C77385  -0.744   6.133   1.272  0.3820  0.1213 -0.7699
  574MOL0     O77386  -0.857   6.106   1.348  0.5176 -0.6508  0.0723
  574MOL0     C77387  -0.932   5.999   1.311  1.1625 -0.1294  1.3164
  574MOL0     C77388  -1.061   6.027   1.254 -0.2352 -0.2656  0.1029
  574MOL0     C77389  -1.144   5.919   1.217 -0.1143 -1.1300  0.2433
  574MOL0     C77390  -1.103   5.784   1.237 -0.4983 -0.5255 -0.0632
  574MOL0     O77391  -1.185   5.675   1.216  0.5294 -0.2888 -0.7588
  574MOL0     C77392  -1.334   5.697   1.177  0.4760  0.4893 -0.1951
  574MOL0     C77393  -1.410   5.566   1.222  0.1449 -0.9131  0.7647
  574MOL0     C77394  -1.556   5.547   1.176  0.2035  0.2711 -0.1141
  574MOL0     C77395  -1.631   5.437   1.254  0.4773  0.0151 -0.0812
  574MOL0     C77396  -1.772   5.421   1.211  0.1898 -0.2732  0.5282
  574MOL0     C77397  -1.838   5.331   1.325 -1.2293 -0.9488  0.7217
  574MOL0     C77398  -1.973   5.277   1.284  0.2124  0.3761 -0.4729
  574MOL0     C77399  -2.076   5.379   1.235  0.4461 -0.1300  0.0896
  574MOL0    Cl77400  -2.232   5.317   1.260  0.2754 -0.3433  0.5757
  574MOL0     C77401  -0.975   5.760   1.298  0.1771 -0.6729  0.3411
  574MOL0     C77402  -0.895   5.870   1.332 -0.8978 -0.4996 -0.7670
  574MOL0     O77403  -0.729   6.083   1.164 -0.2869  0.7414  0.3205
  574MOL0     C77404  -0.682   6.312   1.435 -0.1811  0.4609 -0.4046
  574MOL0     C77405  -0.602   6.405   1.491  0.5823 -0.2078 -0.2251
  574MOL0     N77406  -0.023   6.924   1.802  0.5493 -0.6009 -0.4494
  574MOL0     N77407   0.101   6.971   1.770  0.6361  0.3762 -0.1084
  574MOL0     C77408   1.061   7.614   1.357 -0.1324  0.3083 -0.1114
  574MOL0     C77409   1.150   7.704   1.407 -0.0215  0.1427 -0.2002
  574MOL0     C77410   1.466   8.056   1.475  0.0453 -0.0053  0.0237
  574MOL0     C77411   1.552   8.086   1.581  0.6396 -0.2911 -0.1182
  574MOL0     C77412   1.628   8.200   1.573 -0.2497  0.1014 -0.1541
  574MOL0     C77413   1.620   8.289   1.454 -0.3193 -0.2656 -1.6905
  574MOL0     O77414   1.696   8.403   1.438 -0.0106  0.4025 -0.4215
  574MOL0     C77415   1.817   8.418   1.524  0.2743  1.0270  0.3950
  574MOL0     C77416   1.926   8.338   1.465 -0.1748 -0.2488 -0.8627
  574MOL0     C77417   1.980   8.396   1.330  0.0886 -0.8753  0.4374
  574MOL0     C77418   2.094   8.323   1.264  0.2127  0.7117 -0.5926
  574MOL0     C77419   2.104   8.343   1.120  0.2744 -0.1510 -0.3777
  574MOL0     C77420   2.103   8.353   0.997  0.2228 -0.4301 -0.6202
  574MOL0     C77421   1.538   8.251   1.360  0.8702 -0.5591 -0.0404
  574MOL0     C77422   1.463   8.140   1.369  0.4586 -0.0925  0.5856
  574MOL0     H77423   1.204   7.868   1.123  2.9967 -2.8646 -1.0656
  574MOL0     H77424   1.046   7.712   1.042 -1.6486 -3.0410  0.7135
  574MOL0     H77425   0.812   7.547   1.346  1.6254 -0.5477 -0.0286
  574MOL0     H77426   0.741   7.608   1.195 -0.4710 -0.8391 -2.4527
  574MOL0     H77427   0.654   7.408   1.141  2.6742  5.0114 -1.2437
  574MOL0     H77428   0.795   7.323   1.213 -0.3406  0.1474 -1.7220
  574MOL0     H77429   0.677   7.356   1.442 -2.7609 -2.0111  0.8280
  574MOL0     H77430   0.550   7.440   1.375  1.7644  1.6133  1.4815
  574MOL0     H77431   0.489   7.226   1.228 -0.9570  0.7511  0.6565
  574MOL0     H77432   0.623   7.143   1.300 -2.4045 -2.3016 -0.7334
  574MOL0     H77433   0.526   7.172   1.537  0.0029  1.5612 -0.4535
  574MOL0     H77434   0.399   7.265   1.453 -3.0483 -2.4883  1.9167
  574MOL0     H77435   0.307   7.079   1.345 -0.8428 -0.3861  0.4542
  574MOL0     H77436   0.451   6.980   1.398  0.1374 -0.0386  0.0317
  574MOL0     H77437   0.277   6.900   1.527  1.8189 -1.1082  0.7662
  574MOL0     H77438   0.382   7.014   1.625 -0.3914 -0.1120 -0.1332
  574MOL0     H77439   0.142   7.120   1.467  1.6958  0.8196  0.2718
  574MOL0     H77440   0.211   7.187   1.610 -2.0289  1.0969  0.8476
  574MOL0     H77441  -0.086   7.038   1.505  1.7607  3.0350  0.0647
  574MOL0     H77442  -0.282   6.863   1.773 -1.8314 -0.5998 -0.7016
  574MOL0     H77443  -0.315   6.978   1.645  2.0668  0.3142 -2.9486
  574MOL0     H77444  -0.232   6.815   1.468  3.0438 -2.6057  1.3313
  574MOL0     H77445  -0.384   6.785   1.557 -0.3749 -0.4195  1.0650
  574MOL0     H77446  -0.255   6.601   1.674 -2.0231  1.8356  0.2985
  574MOL0     H77447  -0.106   6.658   1.589 -0.9868  1.1433  0.0080
  574MOL0     H77448  -0.197   6.456   1.490 -0.9440  0.3526  3.7283
  574MOL0     H77449  -0.238   6.579   1.369  0.5560 -2.4135 -0.7018
  574MOL0     H77450  -0.323   6.353   1.311 -0.2735 -3.4154 -1.1924
  574MOL0     H77451  -0.353   6.179   1.137  0.9897  0.4866  1.7169
  574MOL0     H77452  -0.457   6.062   1.211  0.4132  0.8860  1.9799
  574MOL0     H77453  -0.521   6.182   1.085 -1.3342  0.4989  1.7988
  574MOL0     H77454  -1.100   6.128   1.259  0.3920 -0.0767  1.8151
  574MOL0     H77455  -1.247   5.944   1.190  0.7984  1.5477 -1.1285
  574MOL0     H77456  -1.385   5.777   1.231  0.0972 -0.1923  0.4842
  574MOL0     H77457  -1.335   5.717   1.069 -1.4925 -0.9966 -0.5173
  574MOL0     H77458  -1.345   5.482   1.192 -0.0778 -1.1420  0.9203
  574MOL0     H77459  -1.407   5.585   1.330  1.3720  1.6447  0.3611
  574MOL0     H77460  -1.564   5.524   1.069 -0.7263 -2.9141  0.5401
  574MOL0     H77461  -1.604   5.644   1.193 -0.4188 -0.3114  1.5690
  574MOL0     H77462  -1.577   5.343   1.240  1.1324  0.7291 -2.7819
  574MOL0     H77463  -1.641   5.470   1.358 -1.4478  0.6522 -0.4257
  574MOL0     H77464  -1.787   5.377   1.112 -1.5707  1.5107 -0.0536
  574MOL0     H77465  -1.813   5.521   1.200  1.0549 -0.1018 -1.8768
  574MOL0     H77466  -1.781   5.240   1.346 -0.1206 -0.5758 -0.5999
  574MOL0     H77467  -1.846   5.398   1.411 -3.2012  1.8215 -1.4250
  574MOL0     H77468  -2.013   5.226   1.372 -0.6918  0.6984 -0.6779
  574MOL0     H77469  -1.958   5.196   1.212 -0.6573  0.7090 -1.0574
  574MOL0     H77470  -2.064   5.392   1.127 -6.0816  0.1542 -1.0089
  574MOL0     H77471  -2.072   5.477   1.283  1.5598 -0.3539  0.4855
  574MOL0     H77472  -0.958   5.653   1.300  1.1636 -0.6070 -1.6293
  574MOL0     H77473  -0.799   5.849   1.378 -0.8694  0.5001 -0.3482
  574MOL0     H77474  -0.785   6.298   1.463 -0.2834  0.7433 -0.6297
  574MOL0     H77475  -0.644   6.467   1.570  0.2898  0.0875 -0.6072
  574MOL0     H77476   1.009   7.551   1.429 -1.7365  3.5443  1.7885
  574MOL0     H77477   1.173   7.701   1.513  1.7667 -2.3671 -0.5827
  574MOL0     H77478   1.546   8.015   1.663 -1.0115  0.5863  0.5776
  574MOL0     H77479   1.690   8.213   1.662 -1.7010 -2.1264  1.2608
  574MOL0     H77480   1.854   8.520   1.514  0.7458  0.9209  1.0501
  574MOL0     H77481   1.797   8.400   1.630  0.6188  1.1292  0.4763
  574MOL0     H77482   1.887   8.239   1.443 -1.5337 -0.1268  0.7749
  574MOL0     H77483   2.001   8.330   1.544 -0.1430  0.4904 -0.8061
  574MOL0     H77484   2.015   8.494   1.363 -0.4347 -0.6330  0.2899
  574MOL0     H77485   1.902   8.405   1.254 -0.1602 -0.6864  0.7134
  574MOL0     H77486   2.075   8.217   1.284  2.8769  0.0461 -1.2012
  574MOL0     H77487   2.192   8.330   1.312 -0.0489 -0.3587  0.1473
  574MOL0     H77488   2.111   8.359   0.891 -0.4875 -0.7421 -0.6947
  574MOL0     H77489   1.526   8.313   1.272 -2.0283 -1.9693 -0.7819
  574MOL0     H77490   1.416   8.116   1.274  3.6086  4.1734 -2.4249
  575MOL0     O77491   0.868   7.520   8.818  0.5329  0.1331 -0.3253
  575MOL0     C77492   0.940   7.617   8.820 -0.3111 -0.1171  0.6427
  575MOL0     O77493   0.898   7.748   8.839  0.1413  0.1124 -0.1212
  575MOL0     C77494   0.773   7.781   8.868  0.7710  0.8466 -0.6938
  575MOL0     C77495   0.758   7.874   8.970  0.1772  0.9239 -0.0952
  575MOL0     C77496   0.633   7.918   9.008 -0.6061 -0.2471 -0.4212
  575MOL0     C77497   0.525   7.857   8.952 -0.1699 -0.4239 -0.2391
  575MOL0     O77498   0.411   7.927   8.993  0.3576  0.1105  0.4746
  575MOL0     C77499   0.314   7.954   8.892  0.3392  0.0114  0.2780
  575MOL0     C77500   0.195   8.030   8.942 -0.6620  0.6408  0.2829
  575MOL0     C77501   0.090   8.048   8.836 -0.4372  0.2505 -0.2448
  575MOL0     C77502  -0.040   8.117   8.899 -0.1685  0.6683  0.3650
  575MOL0     C77503  -0.161   8.096   8.809 -0.0363  0.2922  0.3521
  575MOL0     C77504  -0.263   8.216   8.824 -0.3769 -0.7143  0.4669
  575MOL0     C77505  -0.411   8.186   8.770 -0.2350 -0.9187 -0.4190
  575MOL0     C77506  -0.485   8.109   8.868 -0.3484 -0.2758  0.0461
  575MOL0     N77507  -0.631   8.104   8.824  1.0023  0.2275  0.1721
  575MOL0     C77508  -0.713   8.210   8.786  0.1159  0.2292  0.0019
  575MOL0     C77509  -0.821   8.151   8.725  1.0723 -0.1812  0.6795
  575MOL0     C77510  -0.932   8.209   8.636 -0.8735  0.4524 -0.2965
  575MOL0     C77511  -0.928   8.182   8.482 -0.3044  0.6035  0.9031
  575MOL0     C77512  -0.788   8.180   8.424 -0.2052  0.4890 -0.1558
  575MOL0     C77513  -0.714   8.309   8.432 -0.2096 -0.0406  0.5278
  575MOL0     O77514  -0.577   8.293   8.373  0.8915 -0.2431 -0.1778
  575MOL0     C77515  -0.471   8.359   8.437  0.7661  1.0262  0.1911
  575MOL0     C77516  -0.477   8.448   8.546  0.5455  1.5294 -0.3475
  575MOL0     C77517  -0.367   8.507   8.605 -0.8500  0.1303  0.3766
  575MOL0     C77518  -0.388   8.581   8.731  0.0431 -0.1336  0.4793
  575MOL0     C77519  -0.240   8.481   8.547  0.5628  0.2513 -0.7375
  575MOL0     C77520  -0.110   8.545   8.593 -0.3633  0.1503  0.8550
  575MOL0     O77521  -0.117   8.675   8.637 -0.4486  0.6445  0.1009
  575MOL0     C77522  -0.001   8.746   8.633  0.3671 -0.6299  0.0827
  575MOL0     C77523   0.079   8.777   8.748  0.9061  1.1959 -0.3301
  575MOL0     C77524   0.199   8.841   8.747 -0.0226 -0.8410  0.2317
  575MOL0     C77525   0.256   8.887   8.625  0.1274  0.4236 -0.5002
  575MOL0     O77526   0.372   8.961   8.640 -0.2683 -0.0456  0.3132
  575MOL0     C77527   0.411   9.012   8.515  0.0146 -0.5986  0.5169
  575MOL0     C77528   0.545   9.101   8.535  0.6889  0.5174 -0.4577
  575MOL0     C77529   0.535   9.210   8.640 -0.1221  0.1168  0.5750
  575MOL0     C77530   0.655   9.300   8.644  0.2989  0.2918 -0.7716
  575MOL0     C77531   0.623   9.445   8.690 -0.4425  0.4961  0.3623
  575MOL0     C77532   0.744   9.545   8.685  0.4448  0.1304 -0.2650
  575MOL0     C77533   0.760   9.601   8.540  0.9148 -1.1253  0.4980
  575MOL0     C77534   0.859   9.716   8.532  0.3436  0.2731 -0.0399
  575MOL0    Cl77535   0.873   9.786   8.369 -0.2754 -0.4341 -0.0329
  575MOL0     C77536   0.185   8.856   8.512 -0.2166 -0.6774  0.4155
  575MOL0     C77537   0.058   8.789   8.515  0.2229  0.2642 -0.7256
  575MOL0     O77538  -0.011   8.472   8.597 -0.3477 -0.6376 -0.0331
  575MOL0     C77539  -0.230   8.396   8.452  0.7271 -0.2511  0.2474
  575MOL0     C77540  -0.347   8.330   8.391 -0.8488  0.3434  0.4231
  575MOL0     N77541  -0.812   8.013   8.749  0.0198 -1.1490  0.0675
  575MOL0     N77542  -0.698   7.988   8.798  0.3227  0.8584  0.3615
  575MOL0     C77543   0.539   7.773   8.841  0.1198  0.5571  0.6980
  575MOL0     C77544   0.662   7.728   8.801 -0.8692 -0.2163  0.5736
  575MOL0     C77545   1.080   7.589   8.813  0.8109  1.0213 -0.2648
  575MOL0     C77546   1.178   7.685   8.847  0.1777 -0.2908 -0.4563
  575MOL0     C77547   1.320   7.667   8.838  0.4379 -0.1534 -0.9302
  575MOL0     C77548   1.360   7.543   8.794 -0.1415  0.5131  0.8418
  575MOL0     O77549   1.491   7.507   8.769  0.6996 -0.3385  0.3488
  575MOL0     C77550   1.590   7.594   8.818  0.5516 -0.8990 -0.3714
  575MOL0     C77551   1.730   7.531   8.804  0.1277 -0.3923 -0.1950
  575MOL0     C77552   1.844   7.643   8.833  0.4715 -0.9117  0.2194
  575MOL0     C77553   1.980   7.590   8.830 -0.0385  0.4359 -0.1889
  575MOL0     C77554   2.074   7.707   8.837  0.3605 -1.0799 -0.9683
  575MOL0     C77555   2.122   7.822   8.842  1.0023  0.2456  0.1773
  575MOL0     C77556   1.268   7.448   8.742 -1.2423  1.1696 -0.1280
  575MOL0     C77557   1.136   7.468   8.749  0.8610  0.1679  0.1445
  575MOL0     H77558   0.848   7.922   9.008  0.3773  1.0638 -0.7265
  575MOL0     H77559   0.610   8.000   9.076  0.7142 -0.6681  0.5806
  575MOL0     H77560   0.354   8.016   8.811 -0.8182 -1.8454 -1.8358
  575MOL0     H77561   0.258   7.869   8.852  1.6532 -1.1423  0.8268
  575MOL0     H77562   0.159   7.972   9.028  3.3340 -2.1876  0.3425
  575MOL0     H77563   0.221   8.126   8.986  1.6774 -0.4314  1.4104
  575MOL0     H77564   0.132   8.118   8.763  1.2040  0.3613  0.7670
  575MOL0     H77565   0.078   7.953   8.783  1.4108  0.7152 -1.6155
  575MOL0     H77566  -0.069   8.070   8.993 -0.7928 -0.5497 -0.4048
  575MOL0     H77567  -0.024   8.224   8.913  1.1975  0.5329  0.0581
  575MOL0     H77568  -0.132   8.085   8.704  3.3386  1.8108  0.9923
  575MOL0     H77569  -0.201   7.999   8.840 -1.2286  0.1238 -1.5204
  575MOL0     H77570  -0.273   8.244   8.929 -0.1340 -1.9217  0.8292
  575MOL0     H77571  -0.220   8.299   8.767 -1.6399 -0.2000  0.2245
  575MOL0     H77572  -0.457   8.286   8.772 -1.5742 -1.4102  3.7926
  575MOL0     H77573  -0.408   8.142   8.670 -4.3375 -3.1517  0.2467
  575MOL0     H77574  -0.482   8.152   8.969  0.2685  1.8124 -0.8114
  575MOL0     H77575  -0.449   8.006   8.881  0.8703 -0.1474 -1.9417
  575MOL0     H77576  -0.684   8.314   8.777  4.1063 -0.4309  2.6643
  575MOL0     H77577  -1.031   8.182   8.672 -1.2926  1.1764 -0.8912
  575MOL0     H77578  -0.940   8.317   8.649 -0.5982  0.2850  1.5942
  575MOL0     H77579  -0.996   8.245   8.423  0.0905  1.4798  1.3600
  575MOL0     H77580  -0.971   8.082   8.468 -1.1408  1.1387 -0.5546
  575MOL0     H77581  -0.788   8.140   8.322  1.3472  0.6217 -0.2279
  575MOL0     H77582  -0.731   8.116   8.493  1.4449  0.9756 -1.0104
  575MOL0     H77583  -0.704   8.340   8.537  1.1878 -0.4105  0.5276
  575MOL0     H77584  -0.766   8.390   8.380 -0.1924  0.5311  1.3725
  575MOL0     H77585  -0.574   8.464   8.591 -1.3066 -1.6981 -2.7647
  575MOL0     H77586  -0.497   8.583   8.738 -0.2486  3.3993 -1.9539
  575MOL0     H77587  -0.334   8.539   8.816  1.5961  1.1543  0.1897
  575MOL0     H77588  -0.351   8.684   8.722 -0.6564  0.1226  0.5226
  575MOL0     H77589   0.058   8.747   8.850  2.3871  4.1534  0.9568
  575MOL0     H77590   0.240   8.868   8.844 -0.8850  0.6377  0.2091
  575MOL0     H77591   0.430   8.938   8.437 -2.2801  0.3003 -0.9924
  575MOL0     H77592   0.331   9.079   8.481 -0.3721 -0.9695  0.6865
  575MOL0     H77593   0.612   9.027   8.578 -1.6852 -1.0680  0.7298
  575MOL0     H77594   0.588   9.135   8.440  1.9489 -0.5382 -0.2908
  575MOL0     H77595   0.519   9.173   8.742  2.2366  1.7071  1.6111
  575MOL0     H77596   0.447   9.262   8.602  0.9952 -0.4419 -3.1686
  575MOL0     H77597   0.728   9.258   8.714 -2.9719  1.7221  3.9012
  575MOL0     H77598   0.690   9.309   8.540 -0.2237  4.2759 -0.7251
  575MOL0     H77599   0.594   9.449   8.795 -2.9706  3.1539 -0.2997
  575MOL0     H77600   0.535   9.480   8.634  0.5676  0.0599 -1.6053
  575MOL0     H77601   0.722   9.623   8.758  2.3424 -2.1635  2.9870
  575MOL0     H77602   0.839   9.499   8.716 -0.4287  0.1267  2.6824
  575MOL0     H77603   0.659   9.628   8.510 -0.0312 -2.7500  2.0273
  575MOL0     H77604   0.788   9.524   8.467  0.3041 -0.3780 -0.5594
  575MOL0     H77605   0.957   9.687   8.570 -0.6885 -2.0532  1.0534
  575MOL0     H77606   0.821   9.803   8.587 -1.5442 -2.4419  3.2954
  575MOL0     H77607   0.217   8.881   8.411  3.5343  0.3728  1.7068
  575MOL0     H77608   0.021   8.752   8.421 -1.5244 -1.1094  0.4313
  575MOL0     H77609  -0.133   8.370   8.412  0.8517  1.3566 -0.5778
  575MOL0     H77610  -0.340   8.247   8.322  2.5848  0.7909  0.0475
  575MOL0     H77611   0.449   7.739   8.791 -2.6455  4.7324  2.2932
  575MOL0     H77612   0.677   7.661   8.717  0.9624  1.5345 -0.5809
  575MOL0     H77613   1.142   7.774   8.898 -3.7265 -1.9999  0.1480
  575MOL0     H77614   1.387   7.736   8.887 -0.3011 -2.4721  4.0102
  575MOL0     H77615   1.591   7.688   8.762  4.7003 -0.6531 -0.1853
  575MOL0     H77616   1.565   7.624   8.920 -2.7105  3.5877 -2.1588
  575MOL0     H77617   1.742   7.491   8.703 -1.0128  3.0927 -1.8584
  575MOL0     H77618   1.723   7.449   8.877 -2.9660 -0.1774 -0.0838
  575MOL0     H77619   1.842   7.689   8.932 -0.9366 -0.4935  0.0260
  575MOL0     H77620   1.835   7.726   8.762  3.2197 -0.3783  0.3896
  575MOL0     H77621   2.004   7.533   8.740 -2.7823  1.1541 -1.4689
  575MOL0     H77622   1.998   7.530   8.920  2.3665 -1.0701 -1.5535
  575MOL0     H77623   2.143   7.926   8.854 -0.5486  0.3106  3.4072
  575MOL0     H77624   1.307   7.350   8.718 -3.4798 -0.4398  2.3034
  575MOL0     H77625   1.069   7.384   8.735  0.2588  0.7704 -0.6909
  576MOL0     O77626   9.017   5.630   3.668 -0.2275  0.0957 -0.7807
  576MOL0     C77627   9.041   5.628   3.547  0.0453  0.0820  0.7471
  576MOL0     O77628   8.946   5.620   3.448 -0.7433 -0.1356 -0.5138
  576MOL0     C77629   8.809   5.610   3.484 -0.6607  1.1542 -0.3399
  576MOL0     C77630   8.748   5.485   3.487 -0.0827  0.4351 -0.9271
  576MOL0     C77631   8.620   5.466   3.544 -0.5907  0.1169 -0.9209
  576MOL0     C77632   8.544   5.575   3.580  0.3385 -0.1646  0.0778
  576MOL0     O77633   8.419   5.549   3.631 -0.2511 -0.1999 -0.0927
  576MOL0     C77634   8.333   5.665   3.635  0.7361 -0.7435 -0.1096
  576MOL0     C77635   8.187   5.616   3.654 -0.3516 -0.0675  0.1993
  576MOL0     C77636   8.128   5.560   3.524 -0.4905 -0.6303 -0.4289
  576MOL0     C77637   7.987   5.508   3.558 -0.0943  0.7506  0.5080
  576MOL0     C77638   7.906   5.462   3.442 -0.1626 -0.0775  0.6983
  576MOL0     C77639   7.791   5.372   3.484  0.3975 -0.4477  0.5216
  576MOL0     C77640   7.829   5.223   3.519  0.4826  0.1808 -0.8052
  576MOL0     C77641   7.760   5.188   3.656  0.7558  0.0899 -0.3299
  576MOL0     N77642   7.822   5.233   3.775 -0.3285 -0.6163 -0.1397
  576MOL0     C77643   7.811   5.366   3.825  0.3894 -0.1510 -0.0227
  576MOL0     C77644   7.868   5.367   3.947  0.7116 -1.6514 -0.3373
  576MOL0     C77645   7.859   5.478   4.044  0.6444  1.2277  0.2265
  576MOL0     C77646   7.973   5.578   4.030 -0.7880 -0.3233 -0.6669
  576MOL0     C77647   7.981   5.688   4.139  0.1041  0.5580 -1.3321
  576MOL0     C77648   8.086   5.794   4.123 -0.9131 -0.3937  0.1125
  576MOL0     O77649   8.048   5.889   4.022 -0.1333  0.3632 -0.5096
  576MOL0     C77650   8.093   6.016   4.042 -0.3224 -0.9395  0.0653
  576MOL0     C77651   8.017   6.118   3.980  0.9922  0.5430 -0.0826
  576MOL0     C77652   8.063   6.249   3.988  1.2390  0.5860 -0.4307
  576MOL0     C77653   7.967   6.350   3.944  0.0116  0.3072 -0.0042
  576MOL0     C77654   8.184   6.281   4.057  0.3077  0.2233  0.8822
  576MOL0     C77655   8.240   6.414   4.076  0.1936 -0.5468  0.8187
  576MOL0     O77656   8.377   6.422   4.109  0.8047 -0.1381 -0.0778
  576MOL0     C77657   8.413   6.544   4.166  0.2302 -0.8696 -0.2147
  576MOL0     C77658   8.452   6.650   4.081 -0.8801 -0.3415 -0.2573
  576MOL0     C77659   8.481   6.776   4.139  0.0779  0.6031  0.6586
  576MOL0     C77660   8.478   6.787   4.282 -0.1289  0.1204 -0.0299
  576MOL0     O77661   8.529   6.911   4.320 -0.5070 -0.1120 -0.1035
  576MOL0     C77662   8.555   6.930   4.460 -0.8060  0.9463 -0.2279
  576MOL0     C77663   8.636   7.062   4.475  0.8086 -0.1522  0.0812
  576MOL0     C77664   8.574   7.152   4.589 -0.2331 -0.9499  0.1418
  576MOL0     C77665   8.653   7.289   4.592 -0.0630  0.1196 -0.1582
  576MOL0     C77666   8.622   7.364   4.729 -0.1371  1.3858 -0.1484
  576MOL0     C77667   8.663   7.514   4.736 -0.5288 -0.3775 -0.4374
  576MOL0     C77668   8.814   7.524   4.705 -0.2911 -0.1296  0.9129
  576MOL0     C77669   8.902   7.467   4.820 -0.4226 -0.5540  0.1734
  576MOL0    Cl77670   9.070   7.502   4.780  0.0154 -0.3483 -0.1316
  576MOL0     C77671   8.439   6.682   4.366  1.0645 -0.4448 -0.7384
  576MOL0     C77672   8.403   6.559   4.306  0.4736  0.8256  0.7725
  576MOL0     O77673   8.164   6.515   4.071  0.4634  0.2428 -0.1833
  576MOL0     C77674   8.255   6.175   4.115 -0.3224 -0.3086 -0.5442
  576MOL0     C77675   8.208   6.048   4.114 -0.0472  0.1760 -0.4750
  576MOL0     N77676   7.915   5.236   3.967  1.1270  0.1893 -0.0366
  576MOL0     N77677   7.888   5.160   3.868 -0.4481 -0.7610  0.5170
  576MOL0     C77678   8.605   5.701   3.582  0.4251 -1.4184  0.1562
  576MOL0     C77679   8.740   5.717   3.541 -0.0553 -0.3783 -0.1699
  576MOL0     C77680   9.179   5.632   3.491 -0.0262  0.8408 -0.4505
  576MOL0     C77681   9.215   5.608   3.361  0.8830  0.5062  0.7504
  576MOL0     C77682   9.346   5.620   3.315  0.1758  1.3948  0.1362
  576MOL0     C77683   9.445   5.644   3.399  1.0188  0.3970 -0.2986
  576MOL0     O77684   9.565   5.626   3.345  0.4276  0.3049  0.1689
  576MOL0     C77685   9.662   5.558   3.424 -0.6690  0.1459 -1.0524
  576MOL0     C77686   9.708   5.437   3.352  0.3414 -0.0863  0.0108
  576MOL0     C77687   9.737   5.454   3.199  0.7344  0.3142  0.0124
  576MOL0     C77688   9.625   5.419   3.097  0.3060 -0.3130 -0.4302
  576MOL0     C77689   9.677   5.427   2.961  0.1590  0.4312  0.2295
  576MOL0     C77690   9.711   5.441   2.847  0.2934  0.3371  0.7318
  576MOL0     C77691   9.417   5.681   3.529  0.5764  0.0762  0.2908
  576MOL0     C77692   9.284   5.663   3.575 -0.6074 -0.9014  0.0045
  576MOL0     H77693   8.807   5.403   3.447 -0.0731  0.2678 -0.5732
  576MOL0     H77694   8.599   5.360   3.558  1.1885  0.0684  2.2763
  576MOL0     H77695   8.374   5.728   3.714 -2.0533  0.7562  0.2710
  576MOL0     H77696   8.353   5.722   3.543  3.0485 -1.4200 -0.0976
  576MOL0     H77697   8.182   5.552   3.742  2.4710  0.9162  1.1870
  576MOL0     H77698   8.123   5.703   3.675 -2.3807 -1.3031 -0.5056
  576MOL0     H77699   8.126   5.636   3.445 -0.8911 -2.4290 -2.2193
  576MOL0     H77700   8.193   5.482   3.485  0.5864 -1.2192  2.3263
  576MOL0     H77701   8.005   5.433   3.635 -0.9032  1.5636  1.5206
  576MOL0     H77702   7.931   5.593   3.598  0.6646  1.5845 -0.1497
  576MOL0     H77703   7.868   5.545   3.382 -0.0821 -1.1259 -0.8723
  576MOL0     H77704   7.958   5.401   3.367 -1.3366 -1.5941  1.0483
  576MOL0     H77705   7.744   5.428   3.566 -0.4913  1.6660 -1.3152
  576MOL0     H77706   7.714   5.364   3.407 -1.6685 -0.6593  2.4840
  576MOL0     H77707   7.801   5.158   3.436 -0.3788 -1.5766  0.7928
  576MOL0     H77708   7.934   5.200   3.539 -0.0574 -2.8197 -0.9789
  576MOL0     H77709   7.760   5.079   3.657 -1.5291  0.0378 -0.4363
  576MOL0     H77710   7.653   5.212   3.658 -0.8226 -5.5298 -0.6607
  576MOL0     H77711   7.749   5.448   3.788 -0.1918 -0.1685  0.8846
  576MOL0     H77712   7.756   5.515   4.038  0.0162 -0.6375 -2.2758
  576MOL0     H77713   7.872   5.436   4.144 -0.1709 -0.3213 -0.2874
  576MOL0     H77714   7.963   5.636   3.937 -0.5261 -1.4144 -1.4031
  576MOL0     H77715   8.065   5.518   4.022 -1.3647 -1.0967 -1.8870
  576MOL0     H77716   8.009   5.637   4.231  0.2557 -1.8268 -2.5891
  576MOL0     H77717   7.883   5.733   4.157  0.5933  1.2620 -0.3529
  576MOL0     H77718   8.178   5.747   4.086 -0.2708  1.1331 -0.3142
  576MOL0     H77719   8.104   5.838   4.221 -0.9130  0.8919 -0.4396
  576MOL0     H77720   7.931   6.082   3.925  1.8446  1.1550 -1.8725
  576MOL0     H77721   8.014   6.432   3.889 -0.3370  1.6024  1.5545
  576MOL0     H77722   7.891   6.309   3.876 -1.0311  1.0051  0.7083
  576MOL0     H77723   7.932   6.401   4.034  1.0711 -0.1479  0.6793
  576MOL0     H77724   8.445   6.638   3.974 -0.1366  0.5896 -0.4148
  576MOL0     H77725   8.517   6.849   4.067 -0.3745 -0.8936 -1.1687
  576MOL0     H77726   8.455   6.935   4.505 -0.5033 -1.1089  0.7545
  576MOL0     H77727   8.601   6.844   4.509  0.1291  2.2973  1.3755
  576MOL0     H77728   8.737   7.047   4.517  0.7741 -1.8771 -0.3664
  576MOL0     H77729   8.641   7.115   4.380 -1.3214  1.2104  0.6767
  576MOL0     H77730   8.584   7.103   4.686 -2.6640 -0.4136  0.7274
  576MOL0     H77731   8.467   7.170   4.574 -0.9132 -2.7553  2.2751
  576MOL0     H77732   8.759   7.269   4.577 -0.1107  2.4853 -7.3837
  576MOL0     H77733   8.639   7.355   4.506  0.5450 -0.4870 -0.7388
  576MOL0     H77734   8.674   7.310   4.809 -0.1435 -0.1498 -1.1312
  576MOL0     H77735   8.516   7.351   4.751  0.0781 -2.4648 -0.6417
  576MOL0     H77736   8.605   7.570   4.662 -0.6300  1.4281  0.9381
  576MOL0     H77737   8.643   7.563   4.832  0.8253  1.9287 -1.2579
  576MOL0     H77738   8.854   7.625   4.698 -1.6933  0.4621  1.0949
  576MOL0     H77739   8.833   7.472   4.611 -0.1059 -2.8455  2.3500
  576MOL0     H77740   8.883   7.361   4.833 -0.0991 -0.8082 -1.2459
  576MOL0     H77741   8.880   7.518   4.914 -0.3561  0.0008 -0.1058
  576MOL0     H77742   8.432   6.693   4.474  2.6319 -1.9910 -0.4364
  576MOL0     H77743   8.356   6.474   4.355 -0.9263  0.3935 -1.2270
  576MOL0     H77744   8.330   6.206   4.186 -0.7346  0.2203 -0.3261
  576MOL0     H77745   8.254   5.978   4.182 -1.6831  0.7968  1.3821
  576MOL0     H77746   8.560   5.791   3.622 -1.6654 -1.0620 -2.6786
  576MOL0     H77747   8.799   5.808   3.543 -0.3128 -0.2147  1.8994
  576MOL0     H77748   9.143   5.581   3.284  2.1656 -1.5969  0.1973
  576MOL0     H77749   9.372   5.591   3.214 -1.3110 -2.3463  0.6550
  576MOL0     H77750   9.751   5.621   3.430 -0.8558  0.6299 -2.8068
  576MOL0     H77751   9.621   5.537   3.523 -1.5851  1.2720 -1.1793
  576MOL0     H77752   9.639   5.353   3.361 -2.3833  1.9619 -0.2626
  576MOL0     H77753   9.810   5.420   3.388  1.6676  2.1503 -2.3740
  576MOL0     H77754   9.826   5.402   3.163  0.3630  0.1083 -0.6191
  576MOL0     H77755   9.757   5.561   3.187 -2.2872  0.9564 -0.0156
  576MOL0     H77756   9.539   5.487   3.103  1.6694  1.6350 -1.8099
  576MOL0     H77757   9.582   5.321   3.118 -0.2825  0.3593  1.8469
  576MOL0     H77758   9.749   5.467   2.750  2.9271 -1.7361  1.0721
  576MOL0     H77759   9.496   5.704   3.599 -1.1140 -1.5517  2.9436
  576MOL0     H77760   9.261   5.666   3.681 -1.4902 -2.0585 -0.1289
  577MOL0     O77761   3.211   4.773   5.066  0.4152 -0.6383  0.1127
  577MOL0     C77762   3.171   4.851   5.158  0.1939  0.2573  0.0733
  577MOL0     O77763   3.247   4.949   5.217 -0.7433  0.0818  0.6543
  577MOL0     C77764   3.382   4.947   5.179 -0.5391  0.2335  0.0596
  577MOL0     C77765   3.427   4.949   5.048  0.1188 -0.6280 -0.2841
  577MOL0     C77766   3.553   4.968   5.014 -0.1194  0.5967 -0.9730
  577MOL0     C77767   3.647   4.991   5.112 -0.1134 -0.1321 -0.2200
  577MOL0     O77768   3.783   5.005   5.094 -0.2555 -0.2042  0.0347
  577MOL0     C77769   3.839   5.034   4.965  0.2908  0.0086 -0.5648
  577MOL0     C77770   3.986   5.047   4.988 -0.1467  0.1524 -0.0877
  577MOL0     C77771   4.049   5.149   4.895 -0.4084 -0.5070  0.5597
  577MOL0     C77772   4.201   5.165   4.919 -0.3918  0.0459  0.5625
  577MOL0     C77773   4.280   5.242   4.806 -0.3384  0.2753 -0.3870
  577MOL0     C77774   4.427   5.201   4.801 -1.0137 -0.7650 -0.2912
  577MOL0     C77775   4.521   5.268   4.683 -0.7447  0.1581 -0.5444
  577MOL0     C77776   4.671   5.213   4.681 -0.1289  0.6882 -0.1268
  577MOL0     N77777   4.765   5.282   4.582  0.5629  0.7744  0.3072
  577MOL0     C77778   4.788   5.235   4.453  0.0134 -0.3980  0.2164
  577MOL0     C77779   4.867   5.325   4.397  0.2237  0.5455  0.2640
  577MOL0     C77780   4.940   5.312   4.272 -0.3204 -0.1106 -0.6333
  577MOL0     C77781   4.842   5.272   4.160  0.2426 -0.2611 -0.3272
  577MOL0     C77782   4.746   5.376   4.113 -0.3743  0.6560 -0.4353
  577MOL0     C77783   4.602   5.344   4.163  0.1117  0.3950 -0.3811
  577MOL0     O77784   4.561   5.222   4.104  0.2100 -0.5889  0.3941
  577MOL0     C77785   4.422   5.204   4.105  0.5166  0.1738  0.1403
  577MOL0     C77786   4.370   5.091   4.053 -1.4015 -0.2909 -0.0370
  577MOL0     C77787   4.233   5.062   4.051 -0.5738 -0.1746 -0.4790
  577MOL0     C77788   4.192   4.925   4.006  0.2873  0.1749 -0.6502
  577MOL0     C77789   4.145   5.166   4.090 -0.8540  0.3914 -0.8125
  577MOL0     C77790   4.002   5.150   4.079  0.6133  0.0177  0.2388
  577MOL0     O77791   3.943   5.096   3.964  0.5846 -0.3183 -0.3677
  577MOL0     C77792   3.820   5.029   3.964  0.0068  0.1247 -0.3152
  577MOL0     C77793   3.769   4.951   4.066  0.5207  1.3169  0.0659
  577MOL0     C77794   3.654   4.883   4.045  1.0933  0.2472  0.2375
  577MOL0     C77795   3.580   4.911   3.925  0.5975 -0.0979  0.9080
  577MOL0     O77796   3.453   4.863   3.902  0.3337  0.4447 -0.2724
  577MOL0     C77797   3.440   4.759   3.802 -0.3942  0.0752 -0.6131
  577MOL0     C77798   3.439   4.619   3.863  0.0302  0.7004  0.0898
  577MOL0     C77799   3.302   4.592   3.938 -0.0282 -0.0603 -0.6144
  577MOL0     C77800   3.317   4.459   4.025  0.2402 -0.2848  0.9971
  577MOL0     C77801   3.186   4.374   4.033 -0.3152  0.0448 -0.1904
  577MOL0     C77802   3.080   4.455   4.115  0.0473 -0.7009 -0.3172
  577MOL0     C77803   2.934   4.392   4.114 -0.3690  0.1625 -1.0214
  577MOL0     C77804   2.844   4.445   4.223 -0.3159 -0.3565 -0.0325
  577MOL0    Cl77805   2.862   4.406   4.390  0.0424 -0.5191 -0.1887
  577MOL0     C77806   3.628   4.988   3.829 -0.3516 -0.3438 -0.4151
  577MOL0     C77807   3.746   5.044   3.851  0.0397  0.0135  0.2788
  577MOL0     O77808   3.936   5.202   4.171  0.4269  0.6010 -0.3121
  577MOL0     C77809   4.193   5.265   4.168  1.0883 -0.5832 -0.3501
  577MOL0     C77810   4.328   5.283   4.176 -0.1725 -1.2074  0.1927
  577MOL0     N77811   4.904   5.416   4.496 -0.2400 -0.0825  0.4555
  577MOL0     N77812   4.843   5.385   4.605  0.8552 -0.2848  0.2626
  577MOL0     C77813   3.607   4.987   5.245 -0.2715  0.0795 -0.0089
  577MOL0     C77814   3.476   4.963   5.280  0.0369  0.6334  0.7515
  577MOL0     C77815   3.029   4.825   5.200 -0.7771 -0.1874  0.0908
  577MOL0     C77816   2.973   4.876   5.318 -0.5306 -0.5840 -0.2403
  577MOL0     C77817   2.843   4.838   5.361  0.0149  0.3094 -0.0406
  577MOL0     C77818   2.759   4.770   5.274  0.6019 -0.1888  0.7602
  577MOL0     O77819   2.628   4.750   5.315  0.0431 -0.0013 -0.3157
  577MOL0     C77820   2.529   4.746   5.212 -0.1996  0.4188 -0.7225
  577MOL0     C77821   2.410   4.662   5.266  0.2555 -0.1493  0.0685
  577MOL0     C77822   2.337   4.732   5.386  0.0027  0.0595 -0.2701
  577MOL0     C77823   2.216   4.661   5.447 -0.0221  0.8727 -0.8681
  577MOL0     C77824   2.121   4.614   5.348 -0.4335  0.6607 -0.3339
  577MOL0     C77825   2.057   4.569   5.260  0.4081 -0.6482  0.4307
  577MOL0     C77826   2.819   4.707   5.164 -0.5617  0.0802  0.5219
  577MOL0     C77827   2.943   4.742   5.122 -0.6525 -0.9131  1.0607
  577MOL0     H77828   3.362   4.930   4.963 -2.3399 -0.2927  1.4054
  577MOL0     H77829   3.570   4.964   4.907 -2.4325 -1.6105 -1.3500
  577MOL0     H77830   3.819   4.958   4.889 -0.5321 -1.7069  1.2828
  577MOL0     H77831   3.808   5.132   4.928  1.7753  0.4738 -0.6261
  577MOL0     H77832   4.004   5.074   5.093  0.4292  1.6658 -0.5450
  577MOL0     H77833   4.036   4.954   4.960  1.9890  0.9229  0.9389
  577MOL0     H77834   4.035   5.123   4.790 -0.7462  4.2044 -0.7627
  577MOL0     H77835   3.989   5.239   4.911  0.8222  0.2154  1.2788
  577MOL0     H77836   4.221   5.216   5.013  0.2105  0.5879  0.1468
  577MOL0     H77837   4.234   5.061   4.918 -3.4992 -1.0636 -1.2474
  577MOL0     H77838   4.231   5.223   4.710 -2.5147  1.6452  0.3628
  577MOL0     H77839   4.262   5.346   4.837 -2.0243 -0.3875  1.0776
  577MOL0     H77840   4.467   5.223   4.901 -1.1396 -1.0654 -0.1734
  577MOL0     H77841   4.438   5.092   4.796  1.0062 -0.5967 -0.3026
  577MOL0     H77842   4.469   5.244   4.591 -2.1738 -1.6759  0.6749
  577MOL0     H77843   4.523   5.377   4.695  2.0484  0.3202 -1.7215
  577MOL0     H77844   4.660   5.108   4.651 -0.2772  0.4792  0.6392
  577MOL0     H77845   4.720   5.218   4.779 -0.7262 -3.2789  0.5516
  577MOL0     H77846   4.760   5.145   4.398  1.0816 -0.6653  0.0987
  577MOL0     H77847   4.979   5.411   4.249 -2.1146  0.4625 -1.3603
  577MOL0     H77848   5.022   5.240   4.274  0.0817  0.3569  0.8722
  577MOL0     H77849   4.796   5.180   4.196  1.5140 -0.5484  0.6114
  577MOL0     H77850   4.897   5.247   4.069  1.1795 -1.5189  0.5562
  577MOL0     H77851   4.741   5.357   4.005  1.0219  0.4094 -0.4705
  577MOL0     H77852   4.782   5.477   4.134 -2.7016  1.3124  0.7249
  577MOL0     H77853   4.536   5.427   4.136  0.3306  0.9762  0.7702
  577MOL0     H77854   4.610   5.344   4.273 -1.0204  0.8731 -0.2842
  577MOL0     H77855   4.442   5.025   4.004 -0.3843  2.6389 -2.9034
  577MOL0     H77856   4.121   4.879   4.074 -0.9777 -2.3347 -3.4261
  577MOL0     H77857   4.159   4.934   3.902 -1.7726 -0.9598 -0.1357
  577MOL0     H77858   4.275   4.856   4.024  0.6969  1.4440  3.1528
  577MOL0     H77859   3.831   4.919   4.150 -1.7380 -0.6361  1.1230
  577MOL0     H77860   3.617   4.820   4.125 -4.7303  0.2191 -1.9359
  577MOL0     H77861   3.346   4.772   3.747 -1.0459  0.6596  0.5859
  577MOL0     H77862   3.526   4.760   3.735  0.9823  1.2227  1.1048
  577MOL0     H77863   3.446   4.553   3.776  3.9115 -1.0778  1.4981
  577MOL0     H77864   3.523   4.601   3.930 -1.4589  1.8319  2.3789
  577MOL0     H77865   3.217   4.592   3.869 -0.4977  1.7981 -0.0917
  577MOL0     H77866   3.285   4.664   4.018  3.0729 -0.6422  0.6948
  577MOL0     H77867   3.382   4.396   3.965  0.0091  0.5980 -0.2252
  577MOL0     H77868   3.354   4.488   4.124  0.0930 -0.2132  1.0312
  577MOL0     H77869   3.211   4.285   4.092  1.9914  2.4922  2.8982
  577MOL0     H77870   3.148   4.348   3.934 -0.0663 -1.1764  0.0233
  577MOL0     H77871   3.111   4.465   4.219 -2.0802 -0.0052  0.3039
  577MOL0     H77872   3.055   4.549   4.065  0.3192 -0.3800  0.1472
  577MOL0     H77873   2.941   4.284   4.133 -1.0405  0.3972  0.7216
  577MOL0     H77874   2.890   4.426   4.020 -2.6824 -0.0238 -0.0700
  577MOL0     H77875   2.743   4.409   4.202 -0.4213  1.9420 -4.7753
  577MOL0     H77876   2.843   4.553   4.207 -1.1017 -0.6487 -2.1364
  577MOL0     H77877   3.578   5.004   3.735  0.1232  0.4967 -0.5403
  577MOL0     H77878   3.791   5.093   3.766 -1.7439  2.3374  0.5770
  577MOL0     H77879   4.140   5.334   4.233 -0.2867 -0.3213 -1.6795
  577MOL0     H77880   4.359   5.364   4.242 -0.2963 -0.5263 -0.5602
  577MOL0     H77881   3.689   5.004   5.315 -0.7626  1.1654  0.3116
  577MOL0     H77882   3.430   4.963   5.378  0.4223  0.4769  0.9305
  577MOL0     H77883   3.035   4.935   5.386 -3.5508 -0.0396  2.3004
  577MOL0     H77884   2.794   4.867   5.454  0.4359  1.3540 -0.1363
  577MOL0     H77885   2.485   4.843   5.186 -0.8569 -0.3665 -2.7607
  577MOL0     H77886   2.552   4.691   5.120  1.3034 -1.5519  0.7292
  577MOL0     H77887   2.440   4.566   5.308  3.3398 -0.4876 -2.5343
  577MOL0     H77888   2.336   4.638   5.188 -1.6156 -1.2957  2.0684
  577MOL0     H77889   2.291   4.826   5.355  1.8527  1.1491  0.1569
  577MOL0     H77890   2.405   4.766   5.465 -2.3404  0.6826  1.6011
  577MOL0     H77891   2.170   4.736   5.513  3.6534  1.9266  0.7595
  577MOL0     H77892   2.247   4.596   5.529  0.3064  0.7292 -1.1068
  577MOL0     H77893   1.996   4.526   5.183 -0.1544 -1.3741  1.2566
  577MOL0     H77894   2.763   4.640   5.099  0.3687  0.0746 -0.2913
  577MOL0     H77895   2.977   4.699   5.028 -2.9380  0.9155 -0.7207
  578MOL0     O77896   1.084   9.431   6.998 -0.0075 -0.4170 -0.1191
  578MOL0     C77897   1.130   9.522   6.937  0.9754 -0.8297  0.4383
  578MOL0     O77898   1.173   9.641   6.990 -0.8604 -0.0806 -0.1288
  578MOL0     C77899   1.145   9.670   7.119 -0.2832  0.2485  0.3072
  578MOL0     C77900   1.047   9.763   7.141 -0.4014 -0.9301  0.1721
  578MOL0     C77901   1.004   9.793   7.270 -0.2207 -0.8833 -0.3772
  578MOL0     C77902   1.065   9.731   7.375  0.2393 -0.2391  0.7787
  578MOL0     O77903   1.041   9.775   7.502 -0.2050  1.0337 -0.2300
  578MOL0     C77904   0.949   9.688   7.582 -1.1743 -0.5019  0.4487
  578MOL0     C77905   0.926   9.761   7.707  1.1252  0.1144  0.6653
  578MOL0     C77906   0.816   9.684   7.789 -0.1847 -0.3913  0.1612
  578MOL0     C77907   0.736   9.791   7.879  0.0030 -1.4627 -0.1638
  578MOL0     C77908   0.621   9.736   7.969  0.9181 -0.0102  0.0459
  578MOL0     C77909   0.639   9.618   8.059  0.1783 -0.0588  1.2774
  578MOL0     C77910   0.543   9.597   8.175 -0.7516 -0.5184 -0.0864
  578MOL0     C77911   0.560   9.468   8.247  0.3969  0.4468 -0.0377
  578MOL0     N77912   0.437   9.446   8.324  0.0994  0.3460 -0.7490
  578MOL0     C77913   0.382   9.539   8.407 -0.0658 -0.3045 -0.6093
  578MOL0     C77914   0.293   9.471   8.479  0.0931  0.3682 -0.4275
  578MOL0     C77915   0.184   9.525   8.575 -0.8337  0.0872 -0.8305
  578MOL0     C77916   0.058   9.576   8.501 -0.8441 -0.5185 -0.3797
  578MOL0     C77917  -0.028   9.460   8.468 -0.2110  0.1703  0.0962
  578MOL0     C77918  -0.180   9.494   8.452 -0.5240  0.2553 -0.0764
  578MOL0     O77919  -0.256   9.383   8.482 -0.5627 -0.1131  0.3132
  578MOL0     C77920  -0.392   9.394   8.497  0.2834 -0.1626  0.2675
  578MOL0     C77921  -0.465   9.275   8.512  0.7629  0.4121  0.3120
  578MOL0     C77922  -0.606   9.271   8.549  0.3429 -0.7963 -0.1068
  578MOL0     C77923  -0.661   9.140   8.593  0.2743  0.7006  0.1656
  578MOL0     C77924  -0.673   9.398   8.573 -0.9877  0.5850  0.2313
  578MOL0     C77925  -0.823   9.414   8.617 -0.1519 -0.1964  0.3271
  578MOL0     O77926  -0.850   9.544   8.663  0.2345  0.1955 -0.1426
  578MOL0     C77927  -0.980   9.569   8.704 -0.4827  0.3334 -0.2988
  578MOL0     C77928  -1.094   9.588   8.621  1.0434  1.0091  0.2467
  578MOL0     C77929  -1.226   9.598   8.678 -0.4431  0.3353  0.3562
  578MOL0     C77930  -1.238   9.603   8.816  0.5169  1.1659  0.1091
  578MOL0     O77931  -1.371   9.614   8.845 -0.0426 -0.2139  0.6270
  578MOL0     C77932  -1.416   9.549   8.964  0.1166  0.3017 -0.2071
  578MOL0     C77933  -1.556   9.591   8.996 -1.2313 -1.1354 -1.1104
  578MOL0     C77934  -1.563   9.726   9.080 -0.1055 -0.8115  0.2280
  578MOL0     C77935  -1.710   9.767   9.115  0.7054  0.4058  0.3104
  578MOL0     C77936  -1.710   9.904   9.181 -0.2328 -0.4576 -0.2756
  578MOL0     C77937  -1.848   9.958   9.226 -1.2044  0.3209 -0.1710
  578MOL0     C77938  -1.951   9.981   9.116 -0.5446  0.9600 -0.3118
  578MOL0     C77939  -2.097  10.025   9.165  0.1683 -0.6594  1.0675
  578MOL0    Cl77940  -2.157   9.940   9.308 -0.2237 -0.3011  0.6658
  578MOL0     C77941  -1.128   9.589   8.903  0.1578 -0.5116 -0.4531
  578MOL0     C77942  -0.994   9.575   8.844  0.2734  0.0723 -0.3906
  578MOL0     O77943  -0.901   9.324   8.582  0.7466 -0.1078 -0.1383
  578MOL0     C77944  -0.594   9.513   8.556 -0.3766 -0.3735 -0.2197
  578MOL0     C77945  -0.458   9.510   8.523 -0.1321  0.0877 -0.1548
  578MOL0     N77946   0.293   9.344   8.432  0.0518 -0.0439 -0.5578
  578MOL0     N77947   0.366   9.333   8.328 -0.4899  0.1080  0.1132
  578MOL0     C77948   1.161   9.632   7.350 -0.9875  0.4960 -0.5395
  578MOL0     C77949   1.204   9.595   7.221  0.1320  0.2498  0.2139
  578MOL0     C77950   1.134   9.499   6.792  0.2366  0.3487 -0.0732
  578MOL0     C77951   1.149   9.603   6.699 -0.3421 -0.5764  0.1271
  578MOL0     C77952   1.147   9.585   6.557 -0.2249 -0.0319 -0.6736
  578MOL0     C77953   1.151   9.456   6.505  0.0329 -0.4135  0.0065
  578MOL0     O77954   1.166   9.427   6.373  0.6248 -0.1171 -0.2701
  578MOL0     C77955   1.117   9.304   6.322 -0.1739  0.2284  0.6493
  578MOL0     C77956   1.165   9.299   6.179 -0.4539  1.1807  1.0778
  578MOL0     C77957   1.316   9.342   6.161  0.0975 -0.1295 -0.1585
  578MOL0     C77958   1.378   9.312   6.023  0.4168 -0.1424  0.1013
  578MOL0     C77959   1.383   9.168   5.989 -0.1967  0.6968 -0.5279
  578MOL0     C77960   1.406   9.065   5.932 -0.5074  1.2019 -0.5665
  578MOL0     C77961   1.136   9.346   6.603 -0.2204 -0.7843  0.2152
  578MOL0     C77962   1.128   9.378   6.741 -0.8018  0.5341  0.4258
  578MOL0     H77963   1.008   9.809   7.051  0.8699 -2.2313 -1.0952
  578MOL0     H77964   0.935   9.871   7.299  0.3029 -0.8812  0.9142
  578MOL0     H77965   0.858   9.661   7.528 -1.1206 -0.5818  0.3980
  578MOL0     H77966   0.987   9.590   7.609 -0.7842 -0.1943  1.0486
  578MOL0     H77967   1.013   9.773   7.773  0.5594 -2.0696  1.9279
  578MOL0     H77968   0.881   9.857   7.682  1.8222  0.2599 -0.0542
  578MOL0     H77969   0.751   9.632   7.717  0.9179 -1.4579 -0.0933
  578MOL0     H77970   0.868   9.605   7.844 -0.0414 -1.7976 -1.8810
  578MOL0     H77971   0.806   9.838   7.948 -1.7357 -0.2152  0.8121
  578MOL0     H77972   0.704   9.872   7.813  0.7143  0.9560  2.2909
  578MOL0     H77973   0.580   9.825   8.017 -1.2283 -0.0686 -1.5319
  578MOL0     H77974   0.537   9.722   7.901  1.1354  3.6415 -1.1973
  578MOL0     H77975   0.636   9.529   7.996  0.7579 -0.2472  1.5107
  578MOL0     H77976   0.738   9.631   8.103  0.4734  0.5816  0.4493
  578MOL0     H77977   0.565   9.663   8.260 -0.2529  0.2882 -0.8217
  578MOL0     H77978   0.441   9.590   8.137 -1.3441 -2.7201  1.7134
  578MOL0     H77979   0.648   9.462   8.313  2.5114  0.7216 -2.6460
  578MOL0     H77980   0.564   9.384   8.178 -2.0910  0.2905 -0.0845
  578MOL0     H77981   0.382   9.647   8.403 -0.4245 -0.2795 -0.0567
  578MOL0     H77982   0.173   9.457   8.660  2.7145  0.3776  0.0252
  578MOL0     H77983   0.230   9.618   8.610  0.4669 -0.6140 -0.6149
  578MOL0     H77984   0.081   9.641   8.416 -1.6830 -0.7219 -0.7777
  578MOL0     H77985   0.008   9.653   8.561  0.8279  1.1203 -0.9869
  578MOL0     H77986  -0.027   9.401   8.560  1.2373  2.2635  1.4994
  578MOL0     H77987   0.017   9.416   8.379  1.9218  1.7552  0.3235
  578MOL0     H77988  -0.205   9.531   8.352  0.7561  1.7721  0.1158
  578MOL0     H77989  -0.196   9.568   8.531  1.9961 -1.2931  2.0624
  578MOL0     H77990  -0.422   9.177   8.496  0.6732  0.2249  1.1553
  578MOL0     H77991  -0.692   9.129   8.697  1.4164 -1.9931  0.3074
  578MOL0     H77992  -0.745   9.103   8.534 -1.2191  3.0181  0.7388
  578MOL0     H77993  -0.587   9.060   8.575  2.0463  2.3261 -0.0950
  578MOL0     H77994  -1.076   9.579   8.515 -2.3170  3.3720 -0.7022
  578MOL0     H77995  -1.313   9.603   8.614 -1.1099  2.1969  1.3456
  578MOL0     H77996  -1.417   9.441   8.949 -0.1718  0.1828  0.6299
  578MOL0     H77997  -1.352   9.582   9.046  0.0371 -0.5113  0.1882
  578MOL0     H77998  -1.614   9.605   8.904 -1.1392  1.4145 -0.8536
  578MOL0     H77999  -1.605   9.507   9.046 -2.2928 -1.0112 -1.9209
  578MOL0     H78000  -1.519   9.805   9.018  1.6824 -0.2884  2.0295
  578MOL0     H78001  -1.500   9.716   9.169 -0.9220  1.4234  1.1446
  578MOL0     H78002  -1.778   9.770   9.029 -0.1984  0.7275  1.0198
  578MOL0     H78003  -1.748   9.700   9.193  2.7356  0.1441  1.1293
  578MOL0     H78004  -1.659   9.972   9.111  0.9029  0.1216  1.0547
  578MOL0     H78005  -1.653   9.895   9.274  1.8867 -3.2772 -1.6913
  578MOL0     H78006  -1.889   9.891   9.303 -1.3915  0.7048  0.0691
  578MOL0     H78007  -1.836  10.049   9.285 -1.0695  0.2634 -0.1083
  578MOL0     H78008  -1.962   9.888   9.060  2.8748  0.8445 -0.9701
  578MOL0     H78009  -1.914  10.056   9.046 -1.4526  1.2943 -0.4501
  578MOL0     H78010  -2.161  10.021   9.077  0.2522 -0.7933  1.0126
  578MOL0     H78011  -2.079  10.126   9.204  0.4623  0.5858 -2.0529
  578MOL0     H78012  -1.140   9.599   9.010  0.7039  0.1530 -0.4441
  578MOL0     H78013  -0.916   9.553   8.916 -3.1502 -3.6710  2.6017
  578MOL0     H78014  -0.622   9.616   8.573  2.9251  0.6205 -0.0679
  578MOL0     H78015  -0.405   9.604   8.514  1.8412 -0.9192  0.5200
  578MOL0     H78016   1.214   9.596   7.438 -1.4009 -1.2124 -0.9479
  578MOL0     H78017   1.279   9.517   7.209  0.7772  0.5130  2.2171
  578MOL0     H78018   1.154   9.707   6.729 -1.5260  0.1198 -1.9031
  578MOL0     H78019   1.143   9.677   6.499  0.0335 -0.5530 -1.5280
  578MOL0     H78020   1.151   9.221   6.384 -1.9088 -2.0029 -1.2388
  578MOL0     H78021   1.008   9.311   6.326 -0.2207 -0.1106  0.0369
  578MOL0     H78022   1.102   9.362   6.116  1.5681  1.0129 -1.2874
  578MOL0     H78023   1.162   9.196   6.143 -4.2417  1.1974  1.0121
  578MOL0     H78024   1.380   9.298   6.239 -0.4310  0.3045  0.5308
  578MOL0     H78025   1.315   9.450   6.174  0.7250 -0.0260 -0.8911
  578MOL0     H78026   1.475   9.363   6.013  2.4078 -3.8452 -1.4342
  578MOL0     H78027   1.312   9.369   5.957  0.5076  0.5889  0.6244
  578MOL0     H78028   1.420   8.974   5.879 -2.3583  0.7489 -0.3653
  578MOL0     H78029   1.115   9.240   6.586 -1.2693 -1.7621  5.8387
  578MOL0     H78030   1.120   9.297   6.813  0.1648 -2.9062 -3.0101
  579MOL0     O78031  11.062  11.181   6.008  0.0579 -0.0091  0.3286
  579MOL0     C78032  11.064  11.132   5.894  0.4576 -0.2461 -0.3328
  579MOL0     O78033  10.954  11.106   5.815 -0.1627 -0.6651  0.0196
  579MOL0     C78034  10.831  11.162   5.836  0.4065 -0.2052  0.4937
  579MOL0     C78035  10.801  11.278   5.921  0.0400 -1.2800 -0.0229
  579MOL0     C78036  10.675  11.331   5.936  0.9601 -0.8946 -0.2376
  579MOL0     C78037  10.564  11.280   5.869  0.2659  0.6603 -0.8146
  579MOL0     O78038  10.432  11.318   5.868 -0.4975  0.3458 -1.3462
  579MOL0     C78039  10.393  11.426   5.964 -0.4567 -0.1876 -0.3192
  579MOL0     C78040  10.249  11.462   5.937  0.5448  0.4202 -0.3820
  579MOL0     C78041  10.152  11.359   5.992 -0.0198 -0.4105  0.2637
  579MOL0     C78042  10.001  11.407   5.981  0.2959 -0.7241 -0.5060
  579MOL0     C78043   9.957  11.373   5.842 -0.1267  0.0029  0.2975
  579MOL0     C78044   9.847  11.465   5.786 -0.4397  0.5074 -0.1235
  579MOL0     C78045   9.806  11.415   5.647 -0.0031  0.6010 -0.1779
  579MOL0     C78046   9.677  11.474   5.594 -0.0249 -0.0085  0.0402
  579MOL0     N78047   9.655  11.621   5.599  0.6021  0.0130 -0.6832
  579MOL0     C78048   9.751  11.714   5.546  0.2690  0.6223  0.1184
  579MOL0     C78049   9.737  11.821   5.632  0.7014 -0.5487  0.5655
  579MOL0     C78050   9.799  11.949   5.606 -0.4969 -0.0031 -0.1710
  579MOL0     C78051   9.953  11.921   5.586 -0.0625 -0.6495 -0.1438
  579MOL0     C78052  10.006  11.870   5.719  0.2449  0.0175  0.5446
  579MOL0     C78053  10.156  11.831   5.709  0.2249  0.3341  0.3652
  579MOL0     O78054  10.160  11.711   5.625 -0.4032  0.6247  0.0216
  579MOL0     C78055  10.284  11.677   5.578 -0.8551  0.2973 -0.0295
  579MOL0     C78056  10.382  11.760   5.537  0.3270  0.3560 -0.7838
  579MOL0     C78057  10.510  11.712   5.505 -0.1690 -0.2752 -1.6294
  579MOL0     C78058  10.612  11.808   5.459 -0.7959  0.6489  0.5062
  579MOL0     C78059  10.537  11.574   5.515  0.2632  0.7725  0.2804
  579MOL0     C78060  10.672  11.517   5.497  0.8387 -0.4478  0.4593
  579MOL0     O78061  10.766  11.564   5.584  0.1286  0.1793 -0.2788
  579MOL0     C78062  10.897  11.542   5.554 -0.8605  0.2474  0.2277
  579MOL0     C78063  10.962  11.619   5.455  0.5036 -0.0218 -0.1117
  579MOL0     C78064  11.085  11.569   5.408 -0.6471 -0.4349  0.9181
  579MOL0     C78065  11.151  11.467   5.472 -0.2839  0.5362  0.6149
  579MOL0     O78066  11.270  11.429   5.424 -0.0789 -0.1690 -0.1016
  579MOL0     C78067  11.280  11.289   5.389  0.3883 -0.1659  0.4048
  579MOL0     C78068  11.252  11.267   5.243  0.0071 -0.2409 -0.0206
  579MOL0     C78069  11.345  11.331   5.139 -0.0037  0.1578  0.4754
  579MOL0     C78070  11.295  11.462   5.082  0.0943 -0.6155 -0.2622
  579MOL0     C78071  11.396  11.513   4.971  0.3076  0.4938  0.2806
  579MOL0     C78072  11.379  11.661   4.941 -0.8694 -0.3511 -0.4446
  579MOL0     C78073  11.253  11.702   4.856  0.0877  0.8714  0.1232
  579MOL0     C78074  11.121  11.707   4.935  0.0020 -0.4372 -0.2437
  579MOL0    Cl78075  11.123  11.806   5.097  0.3489  0.1136  0.0528
  579MOL0     C78076  11.082  11.393   5.576 -0.3056  0.0982 -0.4691
  579MOL0     C78077  10.953  11.440   5.622 -0.1088 -0.1265  0.1046
  579MOL0     O78078  10.686  11.440   5.401 -0.0392 -0.6730 -0.0192
  579MOL0     C78079  10.430  11.486   5.542  0.1361  0.0230  0.5647
  579MOL0     C78080  10.306  11.541   5.571  0.8925  0.1626  0.0413
  579MOL0     N78081   9.641  11.795   5.722  1.2813  0.0385 -0.5675
  579MOL0     N78082   9.593  11.680   5.702  0.6857  0.2777 -0.0556
  579MOL0     C78083  10.599  11.175   5.777  0.1558  0.4159  1.4366
  579MOL0     C78084  10.725  11.108   5.767  0.3193 -0.2159 -0.0042
  579MOL0     C78085  11.197  11.104   5.843  0.9156  0.5152 -0.0673
  579MOL0     C78086  11.209  11.068   5.700  0.2738  0.3696 -0.3047
  579MOL0     C78087  11.340  11.056   5.649 -0.2713 -0.2838  0.2671
  579MOL0     C78088  11.455  11.043   5.734 -0.2205 -0.6319  0.2045
  579MOL0     O78089  11.576  11.006   5.673  0.3120 -0.0657  0.7708
  579MOL0     C78090  11.690  11.040   5.758  0.0540  0.0976 -0.4302
  579MOL0     C78091  11.824  11.013   5.689 -0.5446 -0.9724  0.5516
  579MOL0     C78092  11.854  10.876   5.654  0.1519  1.0245  0.1091
  579MOL0     C78093  11.995  10.865   5.597  0.7133 -0.1336  0.4626
  579MOL0     C78094  12.022  10.735   5.537  0.6499 -0.8126 -0.3732
  579MOL0     C78095  12.054  10.630   5.476  0.0130  0.7381  0.6112
  579MOL0     C78096  11.431  11.046   5.873 -0.4260 -0.2622  0.1498
  579MOL0     C78097  11.310  11.100   5.925  0.1067  1.1513  0.9062
  579MOL0     H78098  10.888  11.321   5.971  0.0580 -0.9946 -0.3005
  579MOL0     H78099  10.662  11.419   5.998 -2.3057 -1.6669  0.4024
  579MOL0     H78100  10.391  11.390   6.067 -1.5027  0.5965 -0.0407
  579MOL0     H78101  10.461  11.511   5.951 -0.1522 -0.4032 -0.1435
  579MOL0     H78102  10.230  11.557   5.988 -0.3156  0.0839 -0.0713
  579MOL0     H78103  10.232  11.470   5.829 -1.2769 -2.8877 -0.4749
  579MOL0     H78104  10.170  11.265   5.939 -0.1041 -0.0713 -0.3763
  579MOL0     H78105  10.169  11.331   6.096 -1.0730  2.6098  1.3373
  579MOL0     H78106   9.934  11.355   6.051  1.2833  0.2883  1.2666
  579MOL0     H78107  10.006  11.509   6.019 -0.6771  0.4439 -3.2820
  579MOL0     H78108  10.043  11.387   5.775  1.7911  1.9386  2.9428
  579MOL0     H78109   9.916  11.272   5.847 -0.8811  0.2792 -0.1741
  579MOL0     H78110   9.761  11.471   5.853 -0.4962 -5.0199  0.7159
  579MOL0     H78111   9.890  11.565   5.776  1.5598 -0.3171 -0.3102
  579MOL0     H78112   9.887  11.437   5.577  2.8018 -1.3143  2.2521
  579MOL0     H78113   9.792  11.308   5.661  3.0835 -0.0545 -1.2281
  579MOL0     H78114   9.586  11.432   5.637 -1.2450  0.7793 -1.6561
  579MOL0     H78115   9.663  11.440   5.491 -1.2472  0.6890 -0.0562
  579MOL0     H78116   9.821  11.692   5.467 -2.5709 -1.2367 -2.1084
  579MOL0     H78117   9.752  11.994   5.518  1.4209  0.5999 -0.9369
  579MOL0     H78118   9.785  12.012   5.694 -0.2581 -1.9671  1.3576
  579MOL0     H78119  10.014  12.011   5.570  0.1993 -0.7214  0.4143
  579MOL0     H78120   9.969  11.852   5.503 -1.1060 -2.8169  1.3768
  579MOL0     H78121   9.953  11.778   5.746  1.2175 -1.9465 -3.3373
  579MOL0     H78122  10.001  11.950   5.793  1.2968  0.0139  0.6407
  579MOL0     H78123  10.201  11.808   5.806 -2.9095 -2.0569  1.4247
  579MOL0     H78124  10.220  11.911   5.671 -1.6919  0.2487 -3.5471
  579MOL0     H78125  10.362  11.866   5.553  2.5881  0.4736  2.1973
  579MOL0     H78126  10.678  11.847   5.537  1.8760 -0.0186 -1.2643
  579MOL0     H78127  10.680  11.755   5.390  2.9365 -0.0494  4.2682
  579MOL0     H78128  10.562  11.890   5.408  0.0948  0.7258 -0.2783
  579MOL0     H78129  10.904  11.697   5.407 -3.0422 -1.2690  1.7946
  579MOL0     H78130  11.130  11.609   5.318  1.5715 -0.6202  1.8771
  579MOL0     H78131  11.382  11.262   5.418  1.1067  1.1073 -0.7822
  579MOL0     H78132  11.209  11.225   5.442  0.5696 -0.3933  0.3752
  579MOL0     H78133  11.254  11.158   5.228 -0.4638  0.0086 -2.3772
  579MOL0     H78134  11.148  11.279   5.212  1.0123  2.5825 -2.8627
  579MOL0     H78135  11.349  11.266   5.051 -3.2714  2.7554 -1.8560
  579MOL0     H78136  11.443  11.348   5.185  0.4200  0.1678 -0.4054
  579MOL0     H78137  11.197  11.442   5.039 -0.1773 -0.0152  0.0650
  579MOL0     H78138  11.278  11.539   5.158  3.2004  1.0046 -0.9965
  579MOL0     H78139  11.369  11.449   4.887  4.1628 -1.8428  0.6078
  579MOL0     H78140  11.499  11.494   4.999  0.2855  3.0988  2.5776
  579MOL0     H78141  11.381  11.715   5.035  0.2067  0.5796 -0.9831
  579MOL0     H78142  11.471  11.695   4.893 -1.5986  2.1557 -0.2179
  579MOL0     H78143  11.252  11.627   4.777  0.5615  0.1169  0.8113
  579MOL0     H78144  11.281  11.798   4.814 -1.3647  1.6201  0.7954
  579MOL0     H78145  11.094  11.606   4.964  0.5509 -0.4173  0.3676
  579MOL0     H78146  11.051  11.751   4.864  0.4532  0.7083 -0.0066
  579MOL0     H78147  11.131  11.310   5.626 -1.8769  0.5324  1.9633
  579MOL0     H78148  10.897  11.384   5.697  2.3076  0.6844  2.6844
  579MOL0     H78149  10.443  11.378   5.543  1.1336  0.1362  0.6038
  579MOL0     H78150  10.231  11.471   5.606  0.3564  1.6810  2.1672
  579MOL0     H78151  10.516  11.146   5.713  0.2551 -1.7606  2.2208
  579MOL0     H78152  10.738  11.015   5.712 -0.7332 -0.0720 -0.5133
  579MOL0     H78153  11.118  11.063   5.641 -0.3512  1.3980  0.5485
  579MOL0     H78154  11.361  11.031   5.546  2.0000 -1.8393  1.0395
  579MOL0     H78155  11.684  11.145   5.785  0.1279  0.1328 -0.5512
  579MOL0     H78156  11.680  10.992   5.856  2.5577  0.6007  0.1373
  579MOL0     H78157  11.891  11.045   5.769 -1.8366 -0.4874  1.4850
  579MOL0     H78158  11.825  11.080   5.603  0.3570 -0.1510  1.1838
  579MOL0     H78159  11.781  10.840   5.581 -0.4078  1.2011  0.5802
  579MOL0     H78160  11.852  10.810   5.741  1.2345  1.4712  0.4946
  579MOL0     H78161  12.066  10.875   5.680  1.7098 -2.4158 -0.0394
  579MOL0     H78162  12.022  10.944   5.527  0.0645 -1.1615 -0.9788
  579MOL0     H78163  12.083  10.545   5.418 -2.2131  0.8152 -0.7351
  579MOL0     H78164  11.512  11.037   5.945  0.4715  0.8601 -0.6769
  579MOL0     H78165  11.294  11.114   6.031 -2.7758  1.9625  0.4573
  580MOL0     O78166   3.259   0.884  11.345  0.3950 -0.4963  0.8609
  580MOL0     C78167   3.198   0.934  11.246 -0.0260  0.1410 -0.1770
  580MOL0     O78168   3.090   0.887  11.190  0.3052  0.6549 -0.5068
  580MOL0     C78169   3.043   0.762  11.234  0.7249 -0.9330 -0.1852
  580MOL0     C78170   2.932   0.755  11.308  0.0736  0.4707 -0.4110
  580MOL0     C78171   2.897   0.634  11.361 -0.3063  0.2727 -0.0214
  580MOL0     C78172   2.978   0.521  11.341  0.3224 -0.3918 -0.1828
  580MOL0     O78173   2.954   0.393  11.387  0.2592  0.1610  0.5334
  580MOL0     C78174   2.843   0.358  11.475 -0.6947 -0.7745  0.1473
  580MOL0     C78175   2.871   0.393  11.621 -0.1269  0.5989 -0.3091
  580MOL0     C78176   2.998   0.334  11.679 -0.4219 -0.6148 -1.1395
  580MOL0     C78177   2.970   0.216  11.764  0.5204  0.7993  0.3626
  580MOL0     C78178   3.099   0.158  11.830  0.5623 -0.6756  0.2109
  580MOL0     C78179   3.162   0.255  11.929  0.0934 -0.0065 -0.5551
  580MOL0     C78180   3.223   0.192  12.057 -0.1275 -0.0942 -0.3130
  580MOL0     C78181   3.117   0.135  12.144 -0.5837 -0.3993 -0.2098
  580MOL0     N78182   3.030   0.247  12.196 -0.4022 -0.8051 -0.2954
  580MOL0     C78183   3.071   0.353  12.276 -0.3939  0.4294  0.2142
  580MOL0     C78184   2.963   0.440  12.273  0.1045  0.6672 -0.3951
  580MOL0     C78185   2.969   0.574  12.337 -0.3136 -0.3573  0.6400
  580MOL0     C78186   2.971   0.573  12.490  0.4125 -0.1946  0.3932
  580MOL0     C78187   2.908   0.701  12.549 -0.0902 -0.7755 -0.0933
  580MOL0     C78188   2.929   0.702  12.694  0.4791 -0.9512 -0.0106
  580MOL0     O78189   2.922   0.829  12.737  0.2093 -0.0592 -0.0200
  580MOL0     C78190   2.941   0.851  12.874 -0.1266  0.0364 -0.3644
  580MOL0     C78191   2.952   0.745  12.968  0.3622 -0.2501 -0.0549
  580MOL0     C78192   2.946   0.771  13.100 -1.1334 -0.0228  0.2132
  580MOL0     C78193   2.955   0.654  13.189  0.4556 -0.6070  0.7585
  580MOL0     C78194   2.936   0.907  13.147  0.0281  0.8763  0.6372
  580MOL0     C78195   2.917   0.939  13.295  0.9704  0.1487 -0.0140
  580MOL0     O78196   2.908   0.841  13.390 -0.6503  0.2651  1.2824
  580MOL0     C78197   2.857   0.861  13.510 -0.0826  0.6501 -0.5281
  580MOL0     C78198   2.882   0.761  13.596  0.2111  0.2203 -1.3750
  580MOL0     C78199   2.830   0.770  13.727 -0.3758  0.2375  0.4446
  580MOL0     C78200   2.747   0.874  13.771  0.0107 -0.0057  0.8401
  580MOL0     O78201   2.696   0.859  13.893  0.5425  0.0210  0.2348
  580MOL0     C78202   2.580   0.945  13.939  0.1803  0.3635 -0.1907
  580MOL0     C78203   2.563   0.957  14.090  0.0623 -0.4557 -0.0077
  580MOL0     C78204   2.522   0.820  14.146  0.5326  0.2977 -0.1666
  580MOL0     C78205   2.512   0.814  14.304 -0.3447 -0.3322  0.0272
  580MOL0     C78206   2.529   0.673  14.365  0.1273  0.5136 -0.5073
  580MOL0     C78207   2.678   0.623  14.366  1.8143 -0.5296  0.1691
  580MOL0     C78208   2.678   0.500  14.454  0.9733  0.4160 -0.4199
  580MOL0     C78209   2.817   0.443  14.466  0.3376  0.4894  0.3577
  580MOL0    Cl78210   2.874   0.412  14.300  0.1788  0.2041  0.6933
  580MOL0     C78211   2.718   0.976  13.680 -0.0055 -0.4014 -0.6370
  580MOL0     C78212   2.768   0.967  13.548 -0.2192  0.3451 -0.4891
  580MOL0     O78213   2.908   1.059  13.322 -0.3062 -0.7765  1.0198
  580MOL0     C78214   2.945   1.006  13.048 -0.1973 -0.1608  0.4271
  580MOL0     C78215   2.954   0.972  12.915 -0.1765  0.3176  0.4099
  580MOL0     N78216   2.862   0.378  12.202  0.8953  0.0374  1.0552
  580MOL0     N78217   2.905   0.266  12.147  0.2703 -0.2559  0.5454
  580MOL0     C78218   3.089   0.529  11.261 -0.0552 -0.9132  0.5335
  580MOL0     C78219   3.121   0.653  11.223 -0.2178  0.3610  0.5575
  580MOL0     C78220   3.255   1.051  11.174 -0.2293 -0.3031 -0.5001
  580MOL0     C78221   3.182   1.139  11.093 -0.3279  1.1096  0.6901
  580MOL0     C78222   3.237   1.260  11.048 -0.3971 -0.5767 -0.0205
  580MOL0     C78223   3.374   1.295  11.068  0.5904  0.1770  0.2440
  580MOL0     O78224   3.436   1.408  11.031  0.0516 -0.8792  0.5122
  580MOL0     C78225   3.554   1.467  11.090 -0.9242  1.0496 -0.3059
  580MOL0     C78226   3.549   1.487  11.244 -0.3080 -0.0074  0.7106
  580MOL0     C78227   3.449   1.590  11.284  0.0604  0.8133  0.1747
  580MOL0     C78228   3.476   1.746  11.249 -0.0032  0.5606 -0.7205
  580MOL0     C78229   3.602   1.775  11.322  0.7026  0.1830 -0.2532
  580MOL0     C78230   3.700   1.789  11.389  0.2953 -1.0309  0.4521
  580MOL0     C78231   3.443   1.194  11.147  0.5811 -0.8887 -0.2406
  580MOL0     C78232   3.393   1.080  11.199  0.4295  0.4775 -0.3165
  580MOL0     H78233   2.881   0.845  11.340  0.3996 -0.5323  3.3890
  580MOL0     H78234   2.810   0.638  11.427  0.5489  0.9174  1.1007
  580MOL0     H78235   2.756   0.414  11.438 -0.6567 -2.2423 -2.4252
  580MOL0     H78236   2.831   0.251  11.457  3.1037 -0.9862 -2.5939
  580MOL0     H78237   2.872   0.503  11.626  2.1163  0.7855 -2.7410
  580MOL0     H78238   2.783   0.360  11.677  0.7499  2.1975  2.1769
  580MOL0     H78239   3.071   0.298  11.606 -1.2030 -1.5412 -1.4866
  580MOL0     H78240   3.046   0.416  11.734 -0.0130 -1.1273 -0.7270
  580MOL0     H78241   2.899   0.247  11.841  0.1871 -0.6229  0.6614
  580MOL0     H78242   2.922   0.139  11.704  1.2435  0.6430 -0.0263
  580MOL0     H78243   3.074   0.063  11.877 -3.0287 -1.3733 -2.6477
  580MOL0     H78244   3.173   0.132  11.754  0.7398 -2.2557  0.8913
  580MOL0     H78245   3.242   0.313  11.881  1.6670  0.1146  2.0283
  580MOL0     H78246   3.086   0.324  11.967  3.1717  2.0400  2.4136
  580MOL0     H78247   3.292   0.111  12.034 -0.0441 -0.0785 -0.1139
  580MOL0     H78248   3.280   0.263  12.117 -1.0417 -0.2675  0.7917
  580MOL0     H78249   3.164   0.073  12.221  0.6005 -0.6998 -1.1382
  580MOL0     H78250   3.052   0.068  12.087 -1.3868  0.5255 -0.4098
  580MOL0     H78251   3.167   0.377  12.321 -1.4068  0.6674  2.3768
  580MOL0     H78252   3.055   0.627  12.295 -1.4383  0.4353 -0.7542
  580MOL0     H78253   2.876   0.625  12.311  1.2341  2.0803 -0.5029
  580MOL0     H78254   3.073   0.557  12.527  1.6312 -0.1173 -2.6442
  580MOL0     H78255   2.904   0.489  12.509  0.0085  0.1708  0.5749
  580MOL0     H78256   2.805   0.716  12.516 -0.6253  3.4087  2.7022
  580MOL0     H78257   2.948   0.795  12.509  1.6047 -1.4383 -0.0721
  580MOL0     H78258   3.028   0.661  12.716  0.5676 -2.5197 -2.8220
  580MOL0     H78259   2.855   0.647  12.752  0.7059 -1.3906 -0.1339
  580MOL0     H78260   2.964   0.641  12.936 -1.5652 -1.5001  2.8558
  580MOL0     H78261   3.046   0.655  13.251  1.0614  1.9097 -0.0425
  580MOL0     H78262   2.869   0.658  13.256  0.4155  2.6042  0.6656
  580MOL0     H78263   2.950   0.561  13.131 -2.1836  0.8160 -1.4845
  580MOL0     H78264   2.954   0.684  13.568 -0.9418 -1.4732  0.0978
  580MOL0     H78265   2.850   0.691  13.798 -1.6032  0.9029  1.5677
  580MOL0     H78266   2.580   1.047  13.899  0.4807  0.6670  0.5640
  580MOL0     H78267   2.493   0.887  13.908  0.0778  0.0452  0.6500
  580MOL0     H78268   2.657   0.990  14.136 -0.9669 -0.6653  2.3945
  580MOL0     H78269   2.479   1.026  14.096 -1.0292 -1.7326  0.0254
  580MOL0     H78270   2.585   0.739  14.107 -1.0562 -0.8370 -0.4561
  580MOL0     H78271   2.423   0.795  14.108  0.8083 -1.7055  0.3588
  580MOL0     H78272   2.593   0.880  14.337 -1.5058  2.1185 -1.6442
  580MOL0     H78273   2.411   0.841  14.337 -0.3722 -1.7373  1.1917
  580MOL0     H78274   2.469   0.609  14.299 -0.0836 -2.2831  2.1820
  580MOL0     H78275   2.474   0.658  14.458 -0.8196 -0.1972 -1.1659
  580MOL0     H78276   2.706   0.601  14.263 -0.7251 -2.1139 -0.2724
  580MOL0     H78277   2.734   0.705  14.412  0.1874  0.8845 -0.2783
  580MOL0     H78278   2.602   0.432  14.415 -1.6322  1.8472  1.8079
  580MOL0     H78279   2.652   0.528  14.556  0.6423  0.6144 -0.5552
  580MOL0     H78280   2.817   0.352  14.527 -1.9150 -0.1944 -0.5452
  580MOL0     H78281   2.892   0.512  14.505  0.5065  0.5631 -0.0880
  580MOL0     H78282   2.674   1.069  13.713 -1.8375 -0.9241 -1.4564
  580MOL0     H78283   2.748   1.050  13.481 -1.2140  0.1872 -0.4051
  580MOL0     H78284   2.938   1.111  13.074 -0.9523  0.4596 -1.9879
  580MOL0     H78285   2.964   1.049  12.839 -0.3574  2.7462  2.7116
  580MOL0     H78286   3.148   0.439  11.242  0.0101 -1.1902  1.9487
  580MOL0     H78287   3.212   0.661  11.165 -0.8897 -1.1509 -0.8219
  580MOL0     H78288   3.082   1.110  11.061 -0.0844  1.4216 -0.3793
  580MOL0     H78289   3.189   1.337  10.989  0.4298 -0.4692 -0.5667
  580MOL0     H78290   3.647   1.416  11.066 -0.6525  1.6139 -0.4640
  580MOL0     H78291   3.566   1.567  11.047  1.7714  0.9696  0.1082
  580MOL0     H78292   3.650   1.504  11.281 -0.4653 -1.1743  1.7642
  580MOL0     H78293   3.514   1.398  11.299  5.0124 -1.4642  2.2994
  580MOL0     H78294   3.424   1.572  11.389  0.4158 -0.2087  0.0924
  580MOL0     H78295   3.357   1.557  11.234 -1.2837  2.5654  1.3704
  580MOL0     H78296   3.388   1.793  11.293 -1.9134 -2.5166 -0.9482
  580MOL0     H78297   3.478   1.773  11.143 -1.6339  1.7449 -0.4796
  580MOL0     H78298   3.783   1.800  11.455  0.8575  0.4004 -0.4484
  580MOL0     H78299   3.551   1.202  11.154  0.6047 -0.8650 -0.6117
  580MOL0     H78300   3.451   1.005  11.251  1.3437  1.5946  0.3348
  581MOL0     O78301   5.732   6.229   8.635 -0.4463  0.4535  0.2097
  581MOL0     C78302   5.707   6.343   8.608 -0.5829 -0.7195  0.7267
  581MOL0     O78303   5.592   6.405   8.647  0.0055 -0.7104 -0.4250
  581MOL0     C78304   5.478   6.344   8.697 -0.5160 -0.2475  0.0653
  581MOL0     C78305   5.460   6.220   8.771  0.9925 -1.1223 -0.1801
  581MOL0     C78306   5.335   6.194   8.816 -1.1991 -0.5102 -0.4675
  581MOL0     C78307   5.222   6.272   8.785 -0.1939  0.6940 -0.0283
  581MOL0     O78308   5.086   6.233   8.813 -0.3961 -0.3744  0.2935
  581MOL0     C78309   5.066   6.139   8.917  0.9003  0.3252 -0.7087
  581MOL0     C78310   4.919   6.091   8.891  0.4842  0.6946  0.1902
  581MOL0     C78311   4.870   6.008   9.011 -0.2901 -0.1916 -1.6586
  581MOL0     C78312   4.742   5.937   8.978 -0.0860 -0.7387 -0.0807
  581MOL0     C78313   4.620   6.031   8.947 -0.2660 -0.0561  0.0490
  581MOL0     C78314   4.500   5.959   8.883  0.2128 -1.2929  0.1206
  581MOL0     C78315   4.384   6.055   8.863  1.0289 -0.1189 -0.2655
  581MOL0     C78316   4.262   6.003   8.786  1.0717  0.9674 -0.3060
  581MOL0     N78317   4.281   5.987   8.645  0.3568 -0.0150 -0.3166
  581MOL0     C78318   4.334   5.879   8.583 -0.0056  0.3189 -0.6882
  581MOL0     C78319   4.303   5.904   8.454  1.0417  0.4502  0.4997
  581MOL0     C78320   4.341   5.811   8.347 -0.7304 -0.1808 -0.3127
  581MOL0     C78321   4.231   5.792   8.247 -0.1882  0.7690 -0.0171
  581MOL0     C78322   4.256   5.659   8.170 -0.5337  0.4421 -0.2320
  581MOL0     C78323   4.161   5.659   8.048  0.4302  0.4640 -0.0191
  581MOL0     O78324   4.025   5.674   8.081  0.2749 -0.8977  0.0080
  581MOL0     C78325   3.962   5.769   8.007 -0.3101  0.0928  0.8872
  581MOL0     C78326   3.949   5.755   7.864  1.2267  0.9194  0.2489
  581MOL0     C78327   3.869   5.843   7.795  0.0055  0.1278 -0.0806
  581MOL0     C78328   3.863   5.805   7.645 -0.9744  0.0345 -0.0476
  581MOL0     C78329   3.800   5.958   7.851 -0.0184 -0.7235 -0.3514
  581MOL0     C78330   3.694   6.053   7.788 -0.3952 -0.1047 -0.1551
  581MOL0     O78331   3.651   6.161   7.860 -0.6432  0.4411 -0.8553
  581MOL0     C78332   3.554   6.251   7.815  0.3161  0.2875 -0.6145
  581MOL0     C78333   3.443   6.219   7.727 -0.1787  0.0659 -0.0930
  581MOL0     C78334   3.362   6.316   7.673 -0.3190  0.3643 -0.4022
  581MOL0     C78335   3.381   6.450   7.707 -0.0046 -0.1380 -0.0215
  581MOL0     O78336   3.302   6.544   7.641  0.0453  0.1267 -0.2726
  581MOL0     C78337   3.280   6.516   7.501 -0.2826 -0.1882 -0.3796
  581MOL0     C78338   3.127   6.545   7.471 -0.4178  0.6705 -0.0830
  581MOL0     C78339   3.063   6.406   7.473  0.4993  1.2738 -0.1825
  581MOL0     C78340   2.906   6.407   7.462  0.4156 -0.6705 -1.4238
  581MOL0     C78341   2.841   6.468   7.335 -0.5785  0.7976 -0.1017
  581MOL0     C78342   2.693   6.454   7.331  0.1047  0.7220  0.6095
  581MOL0     C78343   2.619   6.564   7.251  0.4103  0.9432 -0.1821
  581MOL0     C78344   2.584   6.531   7.104  0.0805 -0.0172  0.6712
  581MOL0    Cl78345   2.519   6.687   7.046 -0.2485  0.1571 -0.0506
  581MOL0     C78346   3.478   6.486   7.804  1.2905 -0.8984 -0.0551
  581MOL0     C78347   3.553   6.385   7.862 -1.0431 -0.2413  0.0793
  581MOL0     O78348   3.661   6.027   7.672  0.8785 -0.3624 -0.2781
  581MOL0     C78349   3.826   5.975   7.990 -0.5140 -0.1551  0.3302
  581MOL0     C78350   3.906   5.891   8.065 -0.2610  0.0618 -0.2283
  581MOL0     N78351   4.239   6.024   8.438  0.1213 -0.1144 -1.2744
  581MOL0     N78352   4.228   6.076   8.558  0.2678 -0.4179  0.1672
  581MOL0     C78353   5.242   6.388   8.706 -0.5811  0.0219 -0.8166
  581MOL0     C78354   5.368   6.425   8.668  0.4811  0.0001  0.1709
  581MOL0     C78355   5.812   6.416   8.531  0.3336 -0.3047  0.3368
  581MOL0     C78356   5.763   6.535   8.460 -0.1677  0.2934  0.4423
  581MOL0     C78357   5.856   6.597   8.373  0.0206 -0.7284  0.7165
  581MOL0     C78358   5.989   6.556   8.354  0.2931 -0.1570 -0.1982
  581MOL0     O78359   6.066   6.612   8.261  0.2865 -0.2483 -0.3481
  581MOL0     C78360   6.081   6.762   8.271 -0.2659 -0.2154  0.1921
  581MOL0     C78361   6.231   6.799   8.266  0.4714 -0.1329 -0.1558
  581MOL0     C78362   6.304   6.740   8.145 -0.4775 -0.4704  0.7237
  581MOL0     C78363   6.301   6.821   8.015 -0.3512 -0.1328 -0.5738
  581MOL0     C78364   6.334   6.745   7.893  0.0980 -0.6704  0.0762
  581MOL0     C78365   6.347   6.685   7.786  0.1422 -0.0591 -0.1548
  581MOL0     C78366   6.028   6.448   8.427 -0.3772  0.2358  0.0164
  581MOL0     C78367   5.945   6.378   8.521 -0.0596  0.6697  0.7198
  581MOL0     H78368   5.545   6.155   8.790  1.3251 -0.5740  0.2507
  581MOL0     H78369   5.315   6.098   8.862 -1.2223  0.1236  0.8897
  581MOL0     H78370   5.128   6.048   8.911 -0.8476 -0.9370 -0.1962
  581MOL0     H78371   5.083   6.193   9.010  1.5761  1.7741 -1.6466
  581MOL0     H78372   4.859   6.182   8.879  1.4060  1.1658 -1.1283
  581MOL0     H78373   4.911   6.028   8.802 -0.7423 -0.1017  0.8338
  581MOL0     H78374   4.943   5.930   9.034  2.0745  2.2668 -0.2349
  581MOL0     H78375   4.852   6.060   9.106 -2.0609 -2.8326 -0.4264
  581MOL0     H78376   4.762   5.869   8.895  1.7441 -0.5811  0.1918
  581MOL0     H78377   4.715   5.866   9.057 -3.2644 -0.0069 -0.3685
  581MOL0     H78378   4.593   6.084   9.039  1.7111  2.6247 -0.7709
  581MOL0     H78379   4.654   6.101   8.869  1.8650 -2.3340 -1.2109
  581MOL0     H78380   4.549   5.915   8.795  5.2526  1.7866  1.0183
  581MOL0     H78381   4.465   5.873   8.940 -0.0060 -2.1256 -1.2148
  581MOL0     H78382   4.353   6.097   8.959 -1.1884  3.0684 -2.1792
  581MOL0     H78383   4.432   6.142   8.816 -0.6359  0.5295 -0.8456
  581MOL0     H78384   4.179   6.070   8.811 -0.9927 -0.8674 -1.8648
  581MOL0     H78385   4.231   5.907   8.830  4.3599 -0.0296  0.1138
  581MOL0     H78386   4.385   5.789   8.619 -1.8266 -1.2454 -1.8259
  581MOL0     H78387   4.435   5.842   8.300 -0.3022 -0.0128  0.6360
  581MOL0     H78388   4.370   5.713   8.389  0.5476  0.3936  0.2040
  581MOL0     H78389   4.228   5.875   8.175 -3.8513  0.0415 -0.9210
  581MOL0     H78390   4.136   5.790   8.301  0.7242  2.4130  1.8009
  581MOL0     H78391   4.242   5.570   8.231  0.6102 -0.0210 -0.6208
  581MOL0     H78392   4.358   5.666   8.131 -0.7935  2.2497 -0.6834
  581MOL0     H78393   4.174   5.570   7.987  1.3268 -0.1965  1.1146
  581MOL0     H78394   4.192   5.740   7.982  0.7583  0.6828  0.3992
  581MOL0     H78395   3.995   5.679   7.802 -0.5950 -2.2601  2.5019
  581MOL0     H78396   3.775   5.751   7.611  0.1674 -1.4565 -0.7717
  581MOL0     H78397   3.857   5.891   7.578 -1.8480 -0.0555 -0.0938
  581MOL0     H78398   3.952   5.754   7.607 -0.3920  0.3519  0.8505
  581MOL0     H78399   3.427   6.120   7.685 -1.8103  0.1375  0.2702
  581MOL0     H78400   3.281   6.271   7.617 -1.5805 -0.7750  2.1419
  581MOL0     H78401   3.339   6.590   7.445 -1.3757  0.1534 -1.1183
  581MOL0     H78402   3.301   6.415   7.466  0.7449 -0.8815  2.0260
  581MOL0     H78403   3.081   6.612   7.544  0.8045 -0.0637  1.4397
  581MOL0     H78404   3.125   6.581   7.368  0.2729  0.4288 -0.1911
  581MOL0     H78405   3.089   6.365   7.570 -0.9922 -1.2784 -0.7793
  581MOL0     H78406   3.100   6.339   7.395 -0.9210 -0.6404  0.7114
  581MOL0     H78407   2.874   6.302   7.469 -3.8903  0.5632  2.4133
  581MOL0     H78408   2.863   6.458   7.549  2.5239 -2.1124  0.5908
  581MOL0     H78409   2.882   6.425   7.243  3.2064  3.2430  0.2274
  581MOL0     H78410   2.871   6.573   7.337  2.6204  0.0249  2.5551
  581MOL0     H78411   2.669   6.356   7.289  0.8794  1.1046 -0.7702
  581MOL0     H78412   2.661   6.456   7.436 -1.1599  1.0703  0.2326
  581MOL0     H78413   2.672   6.659   7.251  1.1426  0.6400  2.4994
  581MOL0     H78414   2.525   6.592   7.300  0.8944  2.8089 -0.2597
  581MOL0     H78415   2.509   6.452   7.094  0.4809 -0.3919  0.6020
  581MOL0     H78416   2.676   6.506   7.051  1.3447  2.1744  1.7007
  581MOL0     H78417   3.496   6.585   7.845 -0.8343 -0.5083  0.0245
  581MOL0     H78418   3.612   6.410   7.950  0.0417  3.4337 -1.4694
  581MOL0     H78419   3.784   6.064   8.035  0.7169  1.0510 -0.8333
  581MOL0     H78420   3.921   5.917   8.169  0.2049 -0.9639 -0.0326
  581MOL0     H78421   5.164   6.454   8.670 -1.3747 -0.4900 -0.0787
  581MOL0     H78422   5.382   6.520   8.617  0.5700  0.2500  0.6445
  581MOL0     H78423   5.659   6.565   8.458  0.0171  0.9060 -0.9755
  581MOL0     H78424   5.818   6.668   8.300  0.2683 -1.8194 -0.5188
  581MOL0     H78425   6.027   6.811   8.189  3.5047  0.7544 -1.9324
  581MOL0     H78426   6.029   6.797   8.360  0.0399  2.4105 -0.5721
  581MOL0     H78427   6.273   6.760   8.360  2.8211  4.0094  0.7771
  581MOL0     H78428   6.262   6.901   8.292 -1.9788  0.4138  0.9414
  581MOL0     H78429   6.275   6.638   8.121 -1.8104  0.7579 -4.0319
  581MOL0     H78430   6.412   6.736   8.163 -0.0887  0.0989 -1.2294
  581MOL0     H78431   6.359   6.913   8.018 -0.8604  0.2385 -1.5672
  581MOL0     H78432   6.195   6.844   7.999 -0.2264  1.8573  1.0606
  581MOL0     H78433   6.353   6.636   7.691  1.2887  0.9798 -0.6276
  581MOL0     H78434   6.130   6.417   8.406  0.6105  1.9827  1.8947
  581MOL0     H78435   5.985   6.288   8.567 -1.3078  0.1087  0.7443
  582MOL0     O78436   2.875  11.145   7.258 -0.0692 -0.6443 -0.8615
  582MOL0     C78437   2.948  11.244   7.264 -0.2601 -0.2293  0.7164
  582MOL0     O78438   2.918  11.369   7.322  0.0924  0.4988  0.3375
  582MOL0     C78439   2.784  11.404   7.345 -0.9083 -0.2702 -0.5536
  582MOL0     C78440   2.707  11.311   7.420 -0.2758 -0.7884 -1.0422
  582MOL0     C78441   2.580  11.363   7.457 -0.6547 -0.3973  0.6411
  582MOL0     C78442   2.529  11.492   7.418  0.2287 -0.8493 -0.3549
  582MOL0     O78443   2.410  11.526   7.480 -0.0070 -0.3764  0.3411
  582MOL0     C78444   2.351  11.650   7.454  0.2483 -1.0342 -0.7290
  582MOL0     C78445   2.215  11.656   7.514 -0.0873  0.8648  0.0552
  582MOL0     C78446   2.100  11.724   7.439 -0.1634 -0.0869  0.7433
  582MOL0     C78447   1.979  11.696   7.532 -0.1928 -0.3452 -0.1015
  582MOL0     C78448   1.851  11.745   7.478  0.8896  0.3704  0.5704
  582MOL0     C78449   1.835  11.892   7.480  1.0355 -0.2729  0.5784
  582MOL0     C78450   1.820  11.943   7.625 -0.5198 -0.1464  0.4222
  582MOL0     C78451   1.790  12.090   7.647  0.4116  0.9279 -0.3936
  582MOL0     N78452   1.647  12.116   7.646  0.3255  0.3222  0.5981
  582MOL0     C78453   1.586  12.211   7.570  0.3933  0.2633  0.3925
  582MOL0     C78454   1.471  12.227   7.636  0.7842 -0.8651  0.4323
  582MOL0     C78455   1.345  12.306   7.600 -0.6128  0.7030 -0.3851
  582MOL0     C78456   1.272  12.227   7.484  0.1457  0.1496  1.0410
  582MOL0     C78457   1.316  12.280   7.345  0.1592  0.3029  0.6617
  582MOL0     C78458   1.256  12.211   7.227  0.4538  0.0093  0.6497
  582MOL0     O78459   1.119  12.211   7.247  0.0758  1.1670  0.2195
  582MOL0     C78460   1.040  12.118   7.178 -0.1613 -0.1584 -0.5223
  582MOL0     C78461   1.089  12.032   7.078  0.4966 -0.3496  0.1684
  582MOL0     C78462   1.013  11.929   7.025 -0.0637  0.7561  1.0216
  582MOL0     C78463   1.082  11.854   6.913 -0.7452  0.6191 -0.4275
  582MOL0     C78464   0.872  11.918   7.054 -0.0951  0.2144 -0.2166
  582MOL0     C78465   0.771  11.824   7.001 -0.3498  0.1170  0.7521
  582MOL0     O78466   0.643  11.839   7.032 -0.1797 -0.2020 -0.3302
  582MOL0     C78467   0.556  11.734   7.001  0.0788 -0.3770 -0.2403
  582MOL0     C78468   0.493  11.674   7.112  0.2547 -0.5953  0.6035
  582MOL0     C78469   0.409  11.566   7.090  0.7643  0.5355 -0.5203
  582MOL0     C78470   0.386  11.517   6.959  0.6665  0.2029 -0.1112
  582MOL0     O78471   0.305  11.413   6.931  0.5142  0.2817  0.2487
  582MOL0     C78472   0.298  11.342   6.805  0.3274 -0.0467 -0.6447
  582MOL0     C78473   0.229  11.205   6.822 -0.3085 -0.4059 -0.0491
  582MOL0     C78474   0.088  11.214   6.886 -0.0508  0.2817 -0.0660
  582MOL0     C78475  -0.005  11.105   6.856  0.1498 -0.2573 -0.6025
  582MOL0     C78476  -0.154  11.146   6.880  0.0554  0.3885  0.3481
  582MOL0     C78477  -0.246  11.014   6.851  0.0803 -0.2446  0.2257
  582MOL0     C78478  -0.228  10.973   6.706  0.3751 -0.7299 -0.2417
  582MOL0     C78479  -0.335  10.875   6.654 -0.2063 -0.4509 -0.4940
  582MOL0    Cl78480  -0.263  10.722   6.591  0.0725  0.0150 -0.0823
  582MOL0     C78481   0.443  11.582   6.852 -0.2372  0.7545 -0.3865
  582MOL0     C78482   0.530  11.691   6.869 -1.0439  0.1892 -0.3429
  582MOL0     O78483   0.820  11.749   6.920  0.5909  0.0029 -0.1023
  582MOL0     C78484   0.821  12.010   7.155  1.1453 -0.0653  0.4528
  582MOL0     C78485   0.904  12.108   7.211 -0.5921 -0.2243  0.2418
  582MOL0     N78486   1.466  12.155   7.755 -0.0384 -0.1273  0.1511
  582MOL0     N78487   1.564  12.077   7.752  0.1204 -0.9479  0.6571
  582MOL0     C78488   2.614  11.580   7.338  0.5344 -0.1607  0.4583
  582MOL0     C78489   2.732  11.530   7.299  0.1639 -0.1534 -1.0709
  582MOL0     C78490   3.084  11.213   7.220  0.0203 -0.8914  0.4057
  582MOL0     C78491   3.180  11.321   7.231  0.8638 -0.2580  0.0115
  582MOL0     C78492   3.315  11.302   7.190 -0.0009 -0.5027  0.2698
  582MOL0     C78493   3.364  11.189   7.136  0.1479 -0.4403 -0.1611
  582MOL0     O78494   3.500  11.171   7.104  0.6023  0.0545 -0.2377
  582MOL0     C78495   3.544  11.066   7.018  0.1563  0.7801  0.8026
  582MOL0     C78496   3.695  11.076   7.019  0.1610 -0.3205  0.0413
  582MOL0     C78497   3.752  11.194   6.950  0.5429  0.5338 -0.7790
  582MOL0     C78498   3.758  11.175   6.802  0.1804 -0.2332  0.1731
  582MOL0     C78499   3.834  11.284   6.750  0.2701 -1.1607 -0.2053
  582MOL0     C78500   3.895  11.381   6.703 -0.0427  1.0123  0.2661
  582MOL0     C78501   3.263  11.094   7.113 -0.1588 -0.2752 -0.0715
  582MOL0     C78502   3.129  11.098   7.154  0.4590  0.0189  0.4911
  582MOL0     H78503   2.733  11.215   7.464  2.3165 -0.3179 -1.3979
  582MOL0     H78504   2.533  11.291   7.523  0.1496 -1.7854 -0.2468
  582MOL0     H78505   2.411  11.729   7.500 -1.3224 -0.7800  1.0128
  582MOL0     H78506   2.329  11.685   7.353 -2.4507  3.3518  1.1288
  582MOL0     H78507   2.192  11.553   7.542 -2.4843  1.4762  0.5111
  582MOL0     H78508   2.236  11.717   7.602  1.1855 -1.2573  1.2983
  582MOL0     H78509   2.121  11.831   7.430  1.2546 -0.1143  2.7719
  582MOL0     H78510   2.077  11.688   7.339 -1.5737 -0.3734  1.1495
  582MOL0     H78511   1.964  11.589   7.549 -0.9492 -0.1203  0.7446
  582MOL0     H78512   1.990  11.747   7.628 -2.0032  2.1612 -1.1070
  582MOL0     H78513   1.834  11.693   7.383  0.7132  1.0740  0.2114
  582MOL0     H78514   1.772  11.708   7.544 -0.6933 -0.6325 -1.7631
  582MOL0     H78515   1.920  11.947   7.436  3.0588 -3.9217 -0.5310
  582MOL0     H78516   1.742  11.923   7.432 -0.2709 -0.1298  3.0721
  582MOL0     H78517   1.749  11.879   7.679 -1.3903 -0.9624 -1.5731
  582MOL0     H78518   1.920  11.929   7.667 -0.6897 -0.4160  0.7399
  582MOL0     H78519   1.843  12.162   7.584 -1.9803  0.7491 -2.7812
  582MOL0     H78520   1.826  12.113   7.748 -2.2561  0.1530  0.8061
  582MOL0     H78521   1.618  12.251   7.475 -0.9846  4.0610  1.3822
  582MOL0     H78522   1.277  12.302   7.686 -0.8155  1.1766 -0.5211
  582MOL0     H78523   1.352  12.412   7.575 -1.5930  1.2240  1.3908
  582MOL0     H78524   1.163  12.224   7.486  0.1258 -1.4666 -0.2919
  582MOL0     H78525   1.294  12.120   7.481 -0.5307  0.0208  0.0823
  582MOL0     H78526   1.425  12.288   7.344  0.2649 -0.9279 -1.0493
  582MOL0     H78527   1.274  12.381   7.342  0.0596  0.2698  0.8913
  582MOL0     H78528   1.302  12.112   7.221  3.4133  1.3638 -2.5332
  582MOL0     H78529   1.282  12.260   7.133 -1.9620  0.3848  0.1018
  582MOL0     H78530   1.192  12.043   7.045  1.2981  0.2761  2.6382
  582MOL0     H78531   1.161  11.913   6.866 -0.4279  1.8388  1.5595
  582MOL0     H78532   1.131  11.771   6.965 -1.0602  0.1156 -0.9219
  582MOL0     H78533   1.024  11.811   6.830 -1.6616 -2.2501  1.5429
  582MOL0     H78534   0.510  11.718   7.209  0.0086  3.4816 -1.0160
  582MOL0     H78535   0.355  11.515   7.169  1.2128 -2.8809 -2.2402
  582MOL0     H78536   0.243  11.393   6.725  0.2357  4.3271  1.8747
  582MOL0     H78537   0.400  11.321   6.773  1.9486 -0.4136  4.0076
  582MOL0     H78538   0.226  11.161   6.721  1.1911 -3.5997  1.1628
  582MOL0     H78539   0.304  11.143   6.872  0.3412  0.8873  0.6196
  582MOL0     H78540   0.048  11.310   6.850  0.6217  0.5299 -0.1641
  582MOL0     H78541   0.112  11.215   6.992 -0.0571  0.4255 -0.0652
  582MOL0     H78542  -0.004  11.088   6.748 -2.3231  1.3986 -0.9609
  582MOL0     H78543   0.021  11.010   6.905  1.4665  0.8064  0.8802
  582MOL0     H78544  -0.175  11.229   6.812 -0.1258  1.2207  1.3879
  582MOL0     H78545  -0.167  11.189   6.980 -4.7161  0.0450  0.1077
  582MOL0     H78546  -0.222  10.926   6.910  3.1638 -0.2283 -0.8022
  582MOL0     H78547  -0.351  11.037   6.871 -0.4449 -0.5455 -1.9121
  582MOL0     H78548  -0.132  10.925   6.683 -0.1654 -2.2960  0.6374
  582MOL0     H78549  -0.239  11.065   6.647  0.4234 -0.1129  0.6895
  582MOL0     H78550  -0.394  10.927   6.578  3.0051  3.3965 -0.6398
  582MOL0     H78551  -0.403  10.849   6.735  1.3671 -0.5781  0.8283
  582MOL0     H78552   0.427  11.545   6.751 -0.4883  3.1189 -1.2784
  582MOL0     H78553   0.565  11.743   6.780  0.2966 -0.1954 -0.0616
  582MOL0     H78554   0.722  11.987   7.191 -0.0735  0.0558 -2.5022
  582MOL0     H78555   0.869  12.169   7.294 -1.6650  0.0214 -0.3737
  582MOL0     H78556   2.580  11.680   7.312 -2.6893 -1.7077 -2.0147
  582MOL0     H78557   2.792  11.590   7.231 -1.1669  4.0496  1.1618
  582MOL0     H78558   3.153  11.405   7.295  1.3851  1.0699 -1.4689
  582MOL0     H78559   3.388  11.374   7.228  0.8514 -1.3364  0.2562
  582MOL0     H78560   3.513  10.967   7.052  1.0056  0.2716  0.1205
  582MOL0     H78561   3.506  11.087   6.917 -1.6696  0.5413  1.4044
  582MOL0     H78562   3.736  10.985   6.976 -1.8673 -0.6452 -1.3693
  582MOL0     H78563   3.713  11.078   7.127 -3.8302 -1.3074  0.9030
  582MOL0     H78564   3.850  11.218   6.994  0.5988 -1.4329  0.2899
  582MOL0     H78565   3.679  11.272   6.969 -0.0713 -0.2419  0.1048
  582MOL0     H78566   3.653  11.182   6.773 -1.5127 -1.4087  4.9430
  582MOL0     H78567   3.797  11.079   6.766 -3.2277 -1.1238 -1.5304
  582MOL0     H78568   3.936  11.460   6.644 -1.2579  2.6735  1.5252
  582MOL0     H78569   3.280  11.013   7.042 -2.1456 -0.3758 -0.4847
  582MOL0     H78570   3.067  11.012   7.133  1.4765 -0.5015 -0.5262
  583MOL0     O78571   9.569   0.372   4.378 -0.2898  0.3237 -0.8038
  583MOL0     C78572   9.672   0.436   4.374  1.1103  1.7158 -0.4570
  583MOL0     O78573   9.701   0.532   4.273 -0.0721  0.7088 -0.4072
  583MOL0     C78574   9.649   0.535   4.145 -0.8389  0.2327 -0.4158
  583MOL0     C78575   9.612   0.413   4.068  0.2217 -0.3553  0.3528
  583MOL0     C78576   9.580   0.433   3.931 -0.1939 -0.1465  0.6260
  583MOL0     C78577   9.574   0.553   3.867 -0.1482 -0.5037  0.1239
  583MOL0     O78578   9.532   0.568   3.734  0.2192  0.1179  0.0446
  583MOL0     C78579   9.453   0.462   3.663  0.2110 -0.2664 -0.1177
  583MOL0     C78580   9.313   0.428   3.735  0.3500 -0.3646  0.3313
  583MOL0     C78581   9.210   0.538   3.710 -1.3923  0.1027 -0.3020
  583MOL0     C78582   9.088   0.490   3.778  0.4900  0.8822  0.1663
  583MOL0     C78583   8.975   0.599   3.785  0.0337 -0.2196 -0.1767
  583MOL0     C78584   8.833   0.535   3.797  0.4835 -0.1238 -0.4864
  583MOL0     C78585   8.720   0.630   3.769  0.2376 -0.5679  0.0337
  583MOL0     C78586   8.575   0.562   3.779 -0.5082 -0.4242 -0.0623
  583MOL0     N78587   8.477   0.669   3.752 -0.3635  0.1694 -0.5575
  583MOL0     C78588   8.421   0.709   3.630 -0.7434  0.3163  0.8635
  583MOL0     C78589   8.319   0.796   3.661 -0.0918  0.8027  0.8709
  583MOL0     C78590   8.230   0.842   3.549  0.1789  0.1528  0.7682
  583MOL0     C78591   8.136   0.945   3.595 -0.7908 -0.3072  0.8015
  583MOL0     C78592   8.038   1.001   3.492  0.0584  0.4176  0.5999
  583MOL0     C78593   7.983   1.141   3.529  0.5966  1.0634 -0.0312
  583MOL0     O78594   7.923   1.127   3.659 -0.8555 -0.0040 -0.2784
  583MOL0     C78595   7.801   1.179   3.663  0.0844  0.4991 -0.2592
  583MOL0     C78596   7.694   1.133   3.580 -0.4242  0.1411  0.7082
  583MOL0     C78597   7.572   1.198   3.567  0.9107  0.2247  0.7003
  583MOL0     C78598   7.461   1.127   3.486  0.6668 -0.4547  0.0151
  583MOL0     C78599   7.550   1.323   3.636 -0.3985 -0.2183 -0.0783
  583MOL0     C78600   7.436   1.411   3.622 -0.3282 -0.0321  1.0454
  583MOL0     O78601   7.315   1.362   3.554 -0.5506  0.3273 -0.0116
  583MOL0     C78602   7.205   1.443   3.537 -0.3315 -0.1955 -0.0917
  583MOL0     C78603   7.203   1.568   3.490  0.3874 -0.2247 -0.1421
  583MOL0     C78604   7.076   1.632   3.479  0.2772 -0.0788 -0.8063
  583MOL0     C78605   6.959   1.561   3.499  0.9601 -0.9368  0.0626
  583MOL0     O78606   6.828   1.604   3.478  0.0649 -0.0910  0.0663
  583MOL0     C78607   6.804   1.723   3.543 -0.3754 -0.3467 -0.4551
  583MOL0     C78608   6.657   1.755   3.520  0.6533  0.0229  0.0349
  583MOL0     C78609   6.564   1.672   3.609 -0.7404  0.6406  0.0657
  583MOL0     C78610   6.584   1.686   3.764  0.0290 -0.9635  0.4512
  583MOL0     C78611   6.455   1.632   3.838 -0.1194  0.0979  0.9097
  583MOL0     C78612   6.460   1.632   3.983  0.0550 -0.2835 -0.0897
  583MOL0     C78613   6.331   1.578   4.052 -0.0572  0.3608  0.1363
  583MOL0     C78614   6.206   1.652   4.008  0.0838 -0.5780  0.7788
  583MOL0    Cl78615   6.193   1.820   4.063 -0.1463 -0.3515  0.8567
  583MOL0     C78616   6.959   1.436   3.550 -0.1601 -0.1630  0.9207
  583MOL0     C78617   7.081   1.376   3.568 -0.1305  0.8190  0.0612
  583MOL0     O78618   7.441   1.521   3.675  0.4033  0.0769 -0.1083
  583MOL0     C78619   7.651   1.371   3.727 -0.0651  0.5112  0.5390
  583MOL0     C78620   7.777   1.297   3.733 -0.2768 -0.2832 -1.2722
  583MOL0     N78621   8.324   0.824   3.794 -1.0919 -0.5966 -0.7862
  583MOL0     N78622   8.423   0.751   3.847  1.1929 -0.0622  0.4750
  583MOL0     C78623   9.616   0.665   3.942 -0.4841  0.1005 -0.5427
  583MOL0     C78624   9.642   0.654   4.079  0.4357  0.8557 -0.1078
  583MOL0     C78625   9.770   0.390   4.467 -0.2527 -0.5214 -0.3715
  583MOL0     C78626   9.871   0.486   4.488  0.5949  0.3764  0.2981
  583MOL0     C78627   9.953   0.469   4.604  0.6079  0.0551 -0.4852
  583MOL0     C78628   9.947   0.355   4.687 -0.4169 -0.9316 -0.0255
  583MOL0     O78629  10.040   0.344   4.781 -0.0106 -0.0987  0.3202
  583MOL0     C78630  10.066   0.218   4.856  0.2117  0.0393  0.5538
  583MOL0     C78631   9.995   0.241   5.000  0.2217  0.3582 -0.4872
  583MOL0     C78632   9.841   0.229   5.009 -0.0892  0.6316 -0.1269
  583MOL0     C78633   9.787   0.241   5.153 -0.1360 -0.2540  0.4647
  583MOL0     C78634   9.671   0.153   5.183  0.0282 -0.2830  0.2528
  583MOL0     C78635   9.570   0.092   5.205  0.0679  0.6728 -0.4338
  583MOL0     C78636   9.862   0.255   4.648  0.1374  0.4436 -0.3645
  583MOL0     C78637   9.776   0.272   4.539  0.2809 -1.2418  0.0959
  583MOL0     H78638   9.626   0.315   4.113  3.4393 -0.0875  0.1760
  583MOL0     H78639   9.566   0.335   3.886  2.1970 -0.8486  1.2549
  583MOL0     H78640   9.439   0.500   3.561  0.6076 -1.8901 -0.8022
  583MOL0     H78641   9.511   0.370   3.659 -2.2551 -2.0236  1.8843
  583MOL0     H78642   9.270   0.339   3.688 -0.8062  0.9708 -1.2837
  583MOL0     H78643   9.321   0.406   3.841 -1.9190 -1.3196  0.3685
  583MOL0     H78644   9.245   0.629   3.761  2.7463 -0.7556 -1.2191
  583MOL0     H78645   9.198   0.558   3.603  0.5287 -1.6712 -0.9166
  583MOL0     H78646   9.043   0.403   3.731  2.2360 -0.3433  0.6444
  583MOL0     H78647   9.128   0.448   3.871  2.8365  1.1819 -0.6358
  583MOL0     H78648   8.990   0.670   3.867  1.2093 -0.5143 -0.1249
  583MOL0     H78649   8.975   0.658   3.692  2.2078 -1.2751 -0.9124
  583MOL0     H78650   8.836   0.457   3.721 -1.9754  0.0867 -0.8821
  583MOL0     H78651   8.816   0.486   3.893  3.0520 -1.7279 -0.7532
  583MOL0     H78652   8.720   0.712   3.841 -1.0361 -1.6033  1.2885
  583MOL0     H78653   8.735   0.670   3.669 -0.0974  1.5862  0.7803
  583MOL0     H78654   8.565   0.518   3.879  2.6777 -0.5176  0.3353
  583MOL0     H78655   8.587   0.479   3.708 -3.0541  0.4884 -1.6711
  583MOL0     H78656   8.454   0.668   3.535  1.4895  0.5648  1.4785
  583MOL0     H78657   8.285   0.875   3.460 -0.0757  0.3991  0.6990
  583MOL0     H78658   8.171   0.759   3.510  1.8985 -0.2111 -1.2103
  583MOL0     H78659   8.191   1.031   3.635  0.5978 -0.9771  0.4035
  583MOL0     H78660   8.075   0.906   3.677  1.3843 -1.3159  2.0238
  583MOL0     H78661   7.950   0.940   3.475 -1.3882  2.5673 -0.0684
  583MOL0     H78662   8.087   1.007   3.394 -1.0817  0.5379  0.0212
  583MOL0     H78663   7.919   1.177   3.448 -1.1045 -2.1424 -0.3018
  583MOL0     H78664   8.068   1.209   3.527  3.2576 -2.0075  0.1200
  583MOL0     H78665   7.718   1.048   3.516  0.6756  1.7023 -1.0346
  583MOL0     H78666   7.441   1.165   3.385  2.2596  0.6372  0.0771
  583MOL0     H78667   7.482   1.020   3.482 -0.7867 -0.8514  1.7280
  583MOL0     H78668   7.370   1.136   3.546  0.2439  0.3209 -0.7291
  583MOL0     H78669   7.301   1.611   3.472  0.0557 -0.2912 -2.5239
  583MOL0     H78670   7.061   1.735   3.449 -0.6654 -0.1189 -0.5199
  583MOL0     H78671   6.838   1.728   3.647 -1.3330  0.6011 -0.1782
  583MOL0     H78672   6.861   1.797   3.486  0.9482 -0.3926  0.7445
  583MOL0     H78673   6.636   1.859   3.547 -0.4936  0.2771 -1.6455
  583MOL0     H78674   6.622   1.750   3.416 -0.0205  0.1749  0.2520
  583MOL0     H78675   6.577   1.566   3.587  0.4921  0.5730  1.0482
  583MOL0     H78676   6.460   1.699   3.587 -0.2834  3.1643  0.6902
  583MOL0     H78677   6.678   1.645   3.802  0.1806 -1.3517 -0.3274
  583MOL0     H78678   6.596   1.793   3.785  0.6647 -0.6565 -1.3612
  583MOL0     H78679   6.425   1.532   3.804 -1.1708  0.0509  1.9567
  583MOL0     H78680   6.382   1.701   3.796 -0.6523 -1.2203 -0.4041
  583MOL0     H78681   6.551   1.575   4.004 -0.3239 -0.7412  0.2979
  583MOL0     H78682   6.475   1.731   4.028 -2.4199 -0.1107  0.4651
  583MOL0     H78683   6.342   1.589   4.160 -0.5085  4.0448 -0.0889
  583MOL0     H78684   6.321   1.471   4.028 -1.9076  1.1842 -3.4718
  583MOL0     H78685   6.121   1.590   4.040  0.2419 -2.3448 -1.8551
  583MOL0     H78686   6.200   1.640   3.899 -1.8323  1.3693  0.6049
  583MOL0     H78687   6.874   1.375   3.578 -2.3362  2.0632 -0.4323
  583MOL0     H78688   7.088   1.274   3.603  1.6303 -0.1897 -2.8627
  583MOL0     H78689   7.650   1.463   3.784  1.6097  0.2737  0.9991
  583MOL0     H78690   7.852   1.342   3.797 -3.5029  3.5854  0.2261
  583MOL0     H78691   9.612   0.761   3.893  2.6503  0.0113 -1.1864
  583MOL0     H78692   9.678   0.747   4.124  1.3453  0.2625  0.4268
  583MOL0     H78693   9.881   0.571   4.421 -2.9590  2.4065  1.9902
  583MOL0     H78694  10.033   0.539   4.625  1.4024 -0.7270 -0.8463
  583MOL0     H78695  10.034   0.130   4.800 -0.5937  0.0990  0.9012
  583MOL0     H78696  10.174   0.209   4.873  0.5824  2.2563 -0.2817
  583MOL0     H78697  10.014   0.345   5.026  1.8936 -0.4162  1.7229
  583MOL0     H78698  10.032   0.179   5.083 -2.0902  0.8002  0.9566
  583MOL0     H78699   9.810   0.138   4.955  0.7610  0.1506  0.1883
  583MOL0     H78700   9.801   0.315   4.954 -1.9304 -0.1304 -0.0544
  583MOL0     H78701   9.744   0.339   5.176 -1.9767 -1.4094  2.2515
  583MOL0     H78702   9.866   0.228   5.228  2.2897  2.9579 -1.2931
  583MOL0     H78703   9.481   0.032   5.211 -2.2016  3.9446  1.7846
  583MOL0     H78704   9.853   0.156   4.691 -1.5149  1.2883  1.4118
  583MOL0     H78705   9.714   0.193   4.498 -1.7163  0.7269 -0.8729
  584MOL0     O78706   5.973   4.556   6.525  1.2130 -0.4294 -0.7364
  584MOL0     C78707   5.952   4.468   6.610  0.2635 -0.9688 -0.3542
  584MOL0     O78708   6.048   4.401   6.677  0.0479  0.6537 -0.1929
  584MOL0     C78709   6.185   4.430   6.655  0.4080  0.5238 -0.1849
  584MOL0     C78710   6.244   4.487   6.539 -0.3750  0.2241  0.3057
  584MOL0     C78711   6.386   4.498   6.538 -0.6034 -0.2010  0.9280
  584MOL0     C78712   6.467   4.482   6.650  0.6214  0.4109  0.0812
  584MOL0     O78713   6.602   4.518   6.662 -0.2782 -0.2269  0.1779
  584MOL0     C78714   6.668   4.552   6.532 -0.0252  0.9424 -0.4478
  584MOL0     C78715   6.819   4.581   6.557  0.6659 -0.6787  0.1099
  584MOL0     C78716   6.895   4.486   6.643 -0.3038 -0.5653  0.1264
  584MOL0     C78717   7.031   4.540   6.701 -0.2675 -0.4414 -0.3524
  584MOL0     C78718   7.140   4.441   6.760 -0.6911  0.2386  0.8133
  584MOL0     C78719   7.244   4.516   6.849  0.5883 -0.6866 -0.4670
  584MOL0     C78720   7.349   4.432   6.918 -0.1005 -0.0107 -0.3355
  584MOL0     C78721   7.451   4.514   6.999  0.0577 -0.3167  0.1341
  584MOL0     N78722   7.395   4.551   7.139  0.1385  0.5529 -0.0536
  584MOL0     C78723   7.333   4.659   7.186 -0.1814 -0.9649  0.3117
  584MOL0     C78724   7.260   4.620   7.293  1.3627  1.2279  0.7204
  584MOL0     C78725   7.155   4.696   7.376  0.2684  0.8210 -1.2631
  584MOL0     C78726   7.016   4.716   7.308  0.4033 -0.4179  0.2689
  584MOL0     C78727   6.936   4.830   7.377  1.0061 -0.6994 -0.4200
  584MOL0     C78728   6.776   4.819   7.387 -1.1165  0.3190  0.2733
  584MOL0     O78729   6.742   4.689   7.436 -0.4987  0.7518 -0.2439
  584MOL0     C78730   6.611   4.661   7.471  0.7069  0.4952  1.0610
  584MOL0     C78731   6.563   4.534   7.475  0.3919 -0.0278 -0.1530
  584MOL0     C78732   6.430   4.487   7.513  0.6229 -0.3442  0.3685
  584MOL0     C78733   6.409   4.339   7.546  0.1340 -0.4336  0.5134
  584MOL0     C78734   6.329   4.592   7.533  0.1403 -0.1252  0.5190
  584MOL0     C78735   6.183   4.564   7.564  0.1835 -0.8970  0.0360
  584MOL0     O78736   6.110   4.670   7.609 -0.0576 -0.1372  0.3920
  584MOL0     C78737   5.974   4.636   7.637 -0.4555 -0.4461 -0.3691
  584MOL0     C78738   5.926   4.531   7.704 -0.0392  0.3079  0.4534
  584MOL0     C78739   5.789   4.506   7.727 -0.5211  0.0750  0.0230
  584MOL0     C78740   5.696   4.596   7.695 -0.3746 -0.6033 -0.2298
  584MOL0     O78741   5.566   4.571   7.714 -0.5268 -0.4854  0.3008
  584MOL0     C78742   5.507   4.485   7.821  0.9969 -0.8398 -0.2356
  584MOL0     C78743   5.559   4.555   7.948 -0.2825  0.1279 -0.3730
  584MOL0     C78744   5.484   4.490   8.071 -0.2606 -0.3103 -1.0650
  584MOL0     C78745   5.498   4.599   8.185  0.1237  0.6559  0.0254
  584MOL0     C78746   5.424   4.552   8.314  0.2492  1.0410  0.2197
  584MOL0     C78747   5.493   4.427   8.389  0.4313  0.1378  0.6917
  584MOL0     C78748   5.592   4.477   8.497 -0.3773  0.0858 -0.2552
  584MOL0     C78749   5.681   4.368   8.543  0.1953 -0.2065  0.1519
  584MOL0    Cl78750   5.597   4.231   8.623  0.3545  0.5081 -0.0933
  584MOL0     C78751   5.742   4.725   7.639 -0.6193  0.5085 -0.0337
  584MOL0     C78752   5.881   4.741   7.609  0.3614  1.0177  0.1671
  584MOL0     O78753   6.136   4.457   7.532 -0.5300  0.2936  0.7215
  584MOL0     C78754   6.377   4.727   7.522 -1.3823 -0.5070  0.3837
  584MOL0     C78755   6.510   4.757   7.492  0.2382  0.3161 -0.0398
  584MOL0     N78756   7.284   4.485   7.311 -0.3348  0.1617 -0.1018
  584MOL0     N78757   7.366   4.448   7.222  0.1896  0.4018  0.2941
  584MOL0     C78758   6.406   4.429   6.763  0.1598  0.2903 -0.3357
  584MOL0     C78759   6.263   4.405   6.767 -0.4481  0.1377  0.4706
  584MOL0     C78760   5.811   4.415   6.616 -0.1273 -0.7387 -0.6671
  584MOL0     C78761   5.775   4.307   6.696  0.0757 -0.0722 -0.9821
  584MOL0     C78762   5.644   4.252   6.699  0.0311  1.2703  0.0930
  584MOL0     C78763   5.554   4.295   6.609 -0.9181  1.7836 -0.2816
  584MOL0     O78764   5.425   4.250   6.605  0.4779  0.2245  0.1500
  584MOL0     C78765   5.363   4.171   6.707 -0.2112 -0.0050 -0.2531
  584MOL0     C78766   5.254   4.079   6.651  0.0050  0.3192  0.4222
  584MOL0     C78767   5.118   4.150   6.632  0.0532 -0.1815  0.3923
  584MOL0     C78768   5.061   4.203   6.765  0.8642  0.4244  0.1976
  584MOL0     C78769   4.926   4.259   6.765  0.4128  0.4184  0.0454
  584MOL0     C78770   4.831   4.326   6.761  0.9267  0.1831 -0.7896
  584MOL0     C78771   5.584   4.399   6.522 -0.4195  0.0887  1.0728
  584MOL0     C78772   5.712   4.458   6.526  1.1011 -0.3864 -0.6834
  584MOL0     H78773   6.189   4.532   6.457 -0.5723  3.2888  1.9627
  584MOL0     H78774   6.423   4.540   6.445  1.6936 -0.6424  1.5771
  584MOL0     H78775   6.664   4.473   6.457  0.2396  0.9616 -0.4836
  584MOL0     H78776   6.638   4.648   6.490  0.0732  0.3674 -1.8613
  584MOL0     H78777   6.865   4.590   6.458  1.4814 -2.7510  0.2472
  584MOL0     H78778   6.814   4.676   6.611 -3.8893 -0.3203 -0.5354
  584MOL0     H78779   6.823   4.460   6.722 -2.1341 -1.6889 -1.8136
  584MOL0     H78780   6.925   4.393   6.596  0.0571 -0.6163  0.4535
  584MOL0     H78781   7.082   4.596   6.622  0.4826  1.3419  1.2982
  584MOL0     H78782   7.006   4.619   6.773  1.4762 -0.6904  0.5849
  584MOL0     H78783   7.088   4.371   6.826  0.3831 -0.0415  1.3695
  584MOL0     H78784   7.183   4.385   6.676 -1.8844 -0.2653  0.5067
  584MOL0     H78785   7.287   4.590   6.782 -1.3781  1.2884  0.3193
  584MOL0     H78786   7.188   4.567   6.928  0.5063 -1.7484  0.1817
  584MOL0     H78787   7.294   4.374   6.993 -1.1425  2.7579  1.1643
  584MOL0     H78788   7.408   4.374   6.845  0.4082  0.0238  0.0400
  584MOL0     H78789   7.464   4.608   6.945 -0.0277 -0.5653 -0.3263
  584MOL0     H78790   7.548   4.463   7.002  0.0511 -0.2637  2.4278
  584MOL0     H78791   7.326   4.761   7.151  0.6987 -1.2538 -0.7460
  584MOL0     H78792   7.139   4.650   7.474 -2.0841  0.6883 -1.6640
  584MOL0     H78793   7.210   4.790   7.382  3.7166 -0.9775 -1.7990
  584MOL0     H78794   6.959   4.623   7.315 -0.5628  0.3036  2.9973
  584MOL0     H78795   7.020   4.755   7.206 -2.8706 -0.6855 -0.0786
  584MOL0     H78796   6.968   4.923   7.328  2.2022 -0.9091 -0.0637
  584MOL0     H78797   6.968   4.840   7.481  0.1470 -1.0755 -0.1123
  584MOL0     H78798   6.726   4.849   7.295 -0.6210 -0.3690 -0.2314
  584MOL0     H78799   6.746   4.898   7.457  1.0972  0.1222  1.5424
  584MOL0     H78800   6.639   4.457   7.466  0.0912 -0.8852  3.2358
  584MOL0     H78801   6.364   4.286   7.461  2.1406 -4.3933  1.6637
  584MOL0     H78802   6.503   4.294   7.580 -0.7022 -1.1894  1.9354
  584MOL0     H78803   6.339   4.320   7.628  0.3322 -0.6192  0.6399
  584MOL0     H78804   5.992   4.465   7.759 -1.5183  0.5165  2.6086
  584MOL0     H78805   5.757   4.413   7.771 -0.3305 -0.3494 -0.7211
  584MOL0     H78806   5.400   4.476   7.803  0.2796  2.3356  1.5278
  584MOL0     H78807   5.541   4.381   7.815  1.9663 -0.5846  0.4863
  584MOL0     H78808   5.666   4.542   7.966 -0.7312 -3.1482  0.6617
  584MOL0     H78809   5.539   4.662   7.948 -0.3752  0.1119 -0.6566
  584MOL0     H78810   5.534   4.393   8.082  0.1974  0.2246  3.0726
  584MOL0     H78811   5.380   4.460   8.053 -0.5406 -1.0753  1.5133
  584MOL0     H78812   5.602   4.628   8.204  0.2406 -0.8933  2.2472
  584MOL0     H78813   5.438   4.684   8.151  1.2279  1.1418 -0.7479
  584MOL0     H78814   5.328   4.506   8.288  0.8524 -0.4291  0.4832
  584MOL0     H78815   5.405   4.640   8.376 -0.3605  0.6071  0.6572
  584MOL0     H78816   5.417   4.373   8.446  0.9202  0.0275  1.2510
  584MOL0     H78817   5.534   4.358   8.315 -1.6138 -0.4811  0.0475
  584MOL0     H78818   5.544   4.509   8.590  0.9271 -4.1074  2.1092
  584MOL0     H78819   5.651   4.555   8.448 -1.0219  0.9390  0.2839
  584MOL0     H78820   5.750   4.411   8.617  2.4207 -2.2802 -0.5754
  584MOL0     H78821   5.750   4.323   8.470  1.6988 -2.7907  2.9186
  584MOL0     H78822   5.666   4.798   7.611 -0.2787  0.5661 -0.8292
  584MOL0     H78823   5.927   4.825   7.559  1.8939 -0.7313 -1.5407
  584MOL0     H78824   6.330   4.821   7.548  0.0576  0.3470 -0.0111
  584MOL0     H78825   6.529   4.864   7.503  2.0963  0.2559 -2.0732
  584MOL0     H78826   6.462   4.417   6.855 -0.1211  1.4440  0.0058
  584MOL0     H78827   6.222   4.361   6.857 -3.8865 -0.0446 -1.0253
  584MOL0     H78828   5.845   4.268   6.768 -0.5418  0.9077  0.1951
  584MOL0     H78829   5.636   4.163   6.760  2.5406 -0.7452 -2.2654
  584MOL0     H78830   5.435   4.100   6.748 -0.9664 -1.2442 -1.0037
  584MOL0     H78831   5.337   4.243   6.785  2.3292  1.2516 -0.4794
  584MOL0     H78832   5.238   4.004   6.729 -1.6680  0.8335  0.6219
  584MOL0     H78833   5.281   4.022   6.562 -3.1786  0.4785 -0.7487
  584MOL0     H78834   5.045   4.091   6.576  0.0919 -2.4132  2.4993
  584MOL0     H78835   5.138   4.234   6.566 -1.6953  0.8913  1.1603
  584MOL0     H78836   5.124   4.288   6.794  2.1036 -0.2108 -0.5658
  584MOL0     H78837   5.061   4.130   6.846 -0.3913 -1.2439 -1.2187
  584MOL0     H78838   4.745   4.388   6.772  0.2412 -1.2243  5.1891
  584MOL0     H78839   5.528   4.433   6.436  2.2377  1.0368 -0.3800
  584MOL0     H78840   5.705   4.547   6.465 -5.9884  0.4059  0.4472
  585MOL0     O78841   3.493  11.247   6.147  0.3874  0.2239  0.7629
  585MOL0     C78842   3.548  11.275   6.040  0.4249 -0.1245 -0.4018
  585MOL0     O78843   3.511  11.232   5.912  0.3044  0.1610 -0.3479
  585MOL0     C78844   3.398  11.156   5.880  0.5022 -0.1166  0.0849
  585MOL0     C78845   3.399  11.085   5.762  0.2448  0.3615  1.0576
  585MOL0     C78846   3.284  11.037   5.700 -0.1945 -0.8179  0.1948
  585MOL0     C78847   3.158  11.038   5.768 -0.3367 -0.6550  0.2781
  585MOL0     O78848   3.055  10.977   5.706  0.3801  0.5000 -0.3261
  585MOL0     C78849   2.948  10.909   5.763  0.4903  0.0062  1.0469
  585MOL0     C78850   2.854  10.871   5.640  0.2119  0.0964  0.6573
  585MOL0     C78851   2.823  11.002   5.570  0.2267 -0.4137  0.1910
  585MOL0     C78852   2.733  10.968   5.451 -0.5880 -0.5486  0.5324
  585MOL0     C78853   2.676  11.084   5.376 -0.1508  0.4429  0.3919
  585MOL0     C78854   2.554  11.054   5.278  0.4708 -1.2825 -0.6389
  585MOL0     C78855   2.421  11.025   5.349 -0.6005 -0.3354  0.5272
  585MOL0     C78856   2.290  11.060   5.276  0.6573 -0.4371 -1.4864
  585MOL0     N78857   2.267  10.975   5.164  0.2545 -0.8775  0.2423
  585MOL0     C78858   2.273  10.830   5.159  0.3442 -0.3116  0.0214
  585MOL0     C78859   2.239  10.795   5.033 -0.1822 -0.4360  0.7607
  585MOL0     C78860   2.240  10.661   4.977 -1.2768  0.9314  0.1388
  585MOL0     C78861   2.131  10.619   4.861  0.1008  0.3763  0.0691
  585MOL0     C78862   1.998  10.576   4.917  1.0972  0.5075 -0.0266
  585MOL0     C78863   1.887  10.549   4.815  0.5937  0.5765 -0.0956
  585MOL0     O78864   1.819  10.663   4.750 -0.5409  0.3070 -0.1371
  585MOL0     C78865   1.712  10.641   4.661  0.2522 -0.7167 -0.4640
  585MOL0     C78866   1.656  10.761   4.615 -0.7208  0.1776  0.4266
  585MOL0     C78867   1.547  10.773   4.537  0.7967  0.2630 -0.6581
  585MOL0     C78868   1.499  10.900   4.473 -0.4190  0.1445 -0.0028
  585MOL0     C78869   1.480  10.651   4.503 -0.0420 -0.4091  0.2178
  585MOL0     C78870   1.345  10.643   4.439  0.2273 -0.5458 -0.0626
  585MOL0     O78871   1.317  10.531   4.361 -0.4917  0.4234  0.3485
  585MOL0     C78872   1.201  10.461   4.372 -1.0935 -0.7945 -0.5939
  585MOL0     C78873   1.206  10.323   4.395  0.0868  0.4068 -0.1003
  585MOL0     C78874   1.089  10.236   4.377  0.5686  0.6741  0.4923
  585MOL0     C78875   0.963  10.296   4.357 -0.2571 -0.1229  0.4804
  585MOL0     O78876   0.845  10.235   4.338  0.5948  0.0900  0.0219
  585MOL0     C78877   0.824  10.113   4.409  0.7001  0.3455 -0.1223
  585MOL0     C78878   0.682  10.055   4.397  0.5141 -0.2292  0.0635
  585MOL0     C78879   0.571  10.158   4.439  0.6806  0.8184 -0.3320
  585MOL0     C78880   0.431  10.105   4.409  0.1783 -0.3482 -0.3958
  585MOL0     C78881   0.334  10.208   4.490  0.1476  0.8665  0.5184
  585MOL0     C78882   0.188  10.142   4.483 -0.2360 -0.4891 -0.4326
  585MOL0     C78883   0.093  10.229   4.565  0.6298 -0.3358 -0.1854
  585MOL0     C78884  -0.056  10.190   4.548 -0.2308  1.0073 -0.8219
  585MOL0    Cl78885  -0.086  10.041   4.636 -0.5495 -0.0237  0.3273
  585MOL0     C78886   0.964  10.432   4.338  0.3526  0.1497  0.5180
  585MOL0     C78887   1.075  10.520   4.348  0.1328  0.5490  0.9282
  585MOL0     O78888   1.269  10.741   4.446 -0.1586 -0.6041 -0.4668
  585MOL0     C78889   1.531  10.530   4.554  1.1389 -0.7348  0.1718
  585MOL0     C78890   1.647  10.521   4.629  0.2114  0.1848 -0.2773
  585MOL0     N78891   2.218  10.910   4.963  0.5434 -0.2402 -0.0144
  585MOL0     N78892   2.241  11.011   5.034 -0.1041 -0.8578  0.3721
  585MOL0     C78893   3.159  11.087   5.902  0.3822  0.4502 -0.1650
  585MOL0     C78894   3.274  11.151   5.955  0.2907  0.6864 -0.0085
  585MOL0     C78895   3.681  11.333   6.056 -0.1092  0.7499  0.4843
  585MOL0     C78896   3.729  11.390   6.171  0.0907  0.3929  0.4279
  585MOL0     C78897   3.859  11.445   6.174 -0.6716  0.1884  0.6802
  585MOL0     C78898   3.940  11.451   6.066 -0.4932 -0.6313 -0.3237
  585MOL0     O78899   4.063  11.510   6.087  1.1257  0.4102  0.8074
  585MOL0     C78900   4.168  11.509   5.990 -0.0131 -0.3124 -0.1410
  585MOL0     C78901   4.301  11.583   6.050  0.5464 -0.5114  0.0196
  585MOL0     C78902   4.423  11.559   5.972 -0.0374 -0.7819 -0.4817
  585MOL0     C78903   4.534  11.660   5.999  0.5985 -0.9311 -0.7672
  585MOL0     C78904   4.660  11.626   5.926 -0.1594 -0.5246  0.3797
  585MOL0     C78905   4.753  11.590   5.845  0.3711 -0.1521 -0.3080
  585MOL0     C78906   3.898  11.396   5.944 -0.3870  0.8387  0.0866
  585MOL0     C78907   3.771  11.335   5.940  0.0493 -0.4628 -0.0157
  585MOL0     H78908   3.492  11.065   5.711 -0.7932 -0.8336 -0.4508
  585MOL0     H78909   3.293  10.981   5.607 -0.9881 -3.0297  1.3857
  585MOL0     H78910   2.978  10.822   5.822 -0.1532 -0.1067  1.2219
  585MOL0     H78911   2.893  10.972   5.834 -1.2682  0.7524 -0.8527
  585MOL0     H78912   2.897  10.798   5.572 -1.6147 -0.0785 -0.3565
  585MOL0     H78913   2.761  10.821   5.670 -0.6775 -0.0029 -2.0513
  585MOL0     H78914   2.774  11.066   5.643  1.8920  1.7404 -0.4695
  585MOL0     H78915   2.914  11.050   5.533 -0.3667  0.3529 -0.3179
  585MOL0     H78916   2.787  10.898   5.386  0.5111 -1.2208  2.1052
  585MOL0     H78917   2.647  10.918   5.497 -0.8968  0.7297  1.3772
  585MOL0     H78918   2.669  11.163   5.452  3.9860  1.0349  0.4046
  585MOL0     H78919   2.751  11.125   5.308 -0.5786 -0.6802 -0.7978
  585MOL0     H78920   2.538  11.154   5.236  1.2599  0.0647  2.0421
  585MOL0     H78921   2.582  10.985   5.197  1.7223 -1.1967 -0.2971
  585MOL0     H78922   2.424  10.918   5.372 -0.5630 -0.4646 -0.0678
  585MOL0     H78923   2.427  11.068   5.449  1.3587  0.2475  0.1986
  585MOL0     H78924   2.284  11.165   5.249  3.1905  1.0545  2.7540
  585MOL0     H78925   2.206  11.032   5.342  0.2291 -1.1853 -2.3252
  585MOL0     H78926   2.312  10.756   5.228 -1.9199  1.2314  3.2084
  585MOL0     H78927   2.339  10.653   4.930 -0.5979 -0.6078  1.6882
  585MOL0     H78928   2.235  10.584   5.055  0.4220 -0.1302 -0.7400
  585MOL0     H78929   2.164  10.543   4.790 -0.7709 -0.9507  1.0482
  585MOL0     H78930   2.108  10.712   4.807 -2.3211 -0.1194  0.1405
  585MOL0     H78931   1.955  10.653   4.980 -0.9462 -0.8821  0.3872
  585MOL0     H78932   2.011  10.488   4.981 -1.0507  0.5600  0.5367
  585MOL0     H78933   1.812  10.496   4.874  2.6416  1.6741  3.9045
  585MOL0     H78934   1.931  10.488   4.736 -1.7727 -3.1289  1.1702
  585MOL0     H78935   1.700  10.852   4.655  1.7039 -0.1208 -1.3455
  585MOL0     H78936   1.561  10.988   4.493  0.2156 -0.1081 -0.7949
  585MOL0     H78937   1.492  10.887   4.364  1.5193 -1.1989 -0.0196
  585MOL0     H78938   1.395  10.920   4.501 -0.6056 -1.7170  0.7788
  585MOL0     H78939   1.299  10.270   4.415 -0.0265  0.1915 -0.1400
  585MOL0     H78940   1.100  10.129   4.384 -0.9208  0.3563 -1.4120
  585MOL0     H78941   0.895  10.040   4.370  0.7344  0.7535 -0.8378
  585MOL0     H78942   0.846  10.126   4.516 -0.6464  0.9173  0.1031
  585MOL0     H78943   0.655  10.018   4.298  1.1219 -1.1088  0.2129
  585MOL0     H78944   0.670   9.967   4.461 -0.8490 -1.2763 -1.5759
  585MOL0     H78945   0.589  10.253   4.389  3.3359 -0.3541 -1.8174
  585MOL0     H78946   0.595  10.169   4.545  0.0513  1.6375 -0.2714
  585MOL0     H78947   0.411  10.107   4.301 -1.6100 -1.9694 -0.1412
  585MOL0     H78948   0.412  10.006   4.450 -0.3759  0.8676  2.5289
  585MOL0     H78949   0.327  10.312   4.456 -0.7664  1.3025  1.9220
  585MOL0     H78950   0.370  10.219   4.593  0.0333  0.3679  0.6119
  585MOL0     H78951   0.151  10.144   4.380 -0.8105  0.6506 -0.2206
  585MOL0     H78952   0.197  10.045   4.532  0.6993  0.0348  0.4788
  585MOL0     H78953   0.100  10.332   4.529 -0.5691 -0.7608 -1.7064
  585MOL0     H78954   0.128  10.217   4.668  0.2320 -3.8660 -0.3383
  585MOL0     H78955  -0.073  10.174   4.441 -0.3063  4.7827 -1.5360
  585MOL0     H78956  -0.123  10.265   4.591  0.1033  1.5274 -1.1862
  585MOL0     H78957   0.864  10.470   4.316  0.6501  0.2211 -0.8482
  585MOL0     H78958   1.068  10.627   4.332 -0.3449  0.6070  1.4897
  585MOL0     H78959   1.468  10.443   4.547 -2.3184  1.6701 -1.4018
  585MOL0     H78960   1.689  10.429   4.667  1.5721  1.1526  0.6782
  585MOL0     H78961   3.078  11.075   5.973  0.9461 -0.3612  0.3536
  585MOL0     H78962   3.272  11.200   6.051  2.4523 -1.1571  1.0722
  585MOL0     H78963   3.672  11.411   6.261 -1.7864  4.1066 -1.3863
  585MOL0     H78964   3.890  11.501   6.261 -0.7533 -1.3382  1.7213
  585MOL0     H78965   4.199  11.408   5.965 -0.4583 -0.5688  0.3394
  585MOL0     H78966   4.133  11.561   5.900 -1.6587  0.6240  0.9667
  585MOL0     H78967   4.323  11.532   6.144 -2.5149 -4.2409 -0.9932
  585MOL0     H78968   4.268  11.687   6.053 -1.5842 -0.8715 -3.6323
  585MOL0     H78969   4.395  11.563   5.866  0.2581  1.0998 -0.5218
  585MOL0     H78970   4.458  11.459   6.000 -1.5226 -1.1490  0.1448
  585MOL0     H78971   4.543  11.656   6.108  1.5973  0.7949 -0.7495
  585MOL0     H78972   4.503  11.759   5.966  0.2197  0.4809  3.2652
  585MOL0     H78973   4.819  11.551   5.770 -1.6831 -0.8534 -1.8563
  585MOL0     H78974   3.970  11.388   5.863  0.5369 -0.7344  1.0147
  585MOL0     H78975   3.743  11.309   5.838  1.1726  2.9106 -1.3197
  586MOL0     O78976   1.542  10.812   6.991 -0.3622  0.7664 -0.3556
  586MOL0     C78977   1.438  10.808   7.051 -0.2111 -1.0212  0.6665
  586MOL0     O78978   1.322  10.751   7.023  0.7692 -0.1105  0.7321
  586MOL0     C78979   1.297  10.717   6.888 -0.4655 -0.2594  0.0329
  586MOL0     C78980   1.315  10.802   6.782  0.4402 -0.2257  0.1214
  586MOL0     C78981   1.261  10.774   6.658 -0.8325  0.4382  0.6669
  586MOL0     C78982   1.208  10.649   6.617 -0.6460  0.0109 -0.7346
  586MOL0     O78983   1.169  10.613   6.489 -0.7255 -0.4798 -0.0843
  586MOL0     C78984   1.048  10.553   6.458 -0.7160 -0.0092  0.4042
  586MOL0     C78985   0.942  10.667   6.450  0.6776 -0.1983 -0.5655
  586MOL0     C78986   0.976  10.789   6.371 -1.0006 -0.1831  0.3781
  586MOL0     C78987   0.950  10.920   6.441  0.8134  0.8230  0.2434
  586MOL0     C78988   1.010  11.043   6.376  0.3576 -0.6134 -1.0371
  586MOL0     C78989   1.162  11.051   6.386  0.5859  1.1364  0.4403
  586MOL0     C78990   1.204  11.195   6.331  0.8448 -0.1573 -0.5853
  586MOL0     C78991   1.185  11.313   6.430 -0.3378  0.7049 -0.9870
  586MOL0     N78992   1.279  11.313   6.546 -0.0534 -0.7107  0.5681
  586MOL0     C78993   1.409  11.324   6.553  0.2896 -0.2304 -0.3920
  586MOL0     C78994   1.437  11.285   6.682 -0.7973 -0.2629  0.0069
  586MOL0     C78995   1.578  11.263   6.740  0.3461 -0.0464  0.8721
  586MOL0     C78996   1.593  11.121   6.786  0.2604  0.0741  1.0466
  586MOL0     C78997   1.651  11.031   6.673  0.3772 -0.2428  0.1937
  586MOL0     C78998   1.707  10.899   6.744  0.0855 -0.2597  0.2417
  586MOL0     O78999   1.800  10.841   6.653 -0.1873  0.8682 -0.2171
  586MOL0     C79000   1.776  10.716   6.599 -0.4365  0.2199  1.1984
  586MOL0     C79001   1.679  10.623   6.622  0.4010  0.3552 -0.4455
  586MOL0     C79002   1.670  10.501   6.543 -0.6821 -0.1724  0.7892
  586MOL0     C79003   1.556  10.404   6.570 -0.4799  0.4390  0.8569
  586MOL0     C79004   1.765  10.481   6.430  0.3358 -0.3390  0.3444
  586MOL0     C79005   1.783  10.366   6.335 -0.2957  0.5752 -0.5676
  586MOL0     O79006   1.863  10.390   6.224  0.4195 -0.1913  0.5798
  586MOL0     C79007   1.947  10.291   6.189 -0.2210 -0.1543  0.5483
  586MOL0     C79008   2.070  10.268   6.259  0.0761 -0.3240 -0.0168
  586MOL0     C79009   2.146  10.156   6.215  0.5393  1.1256 -0.2860
  586MOL0     C79010   2.115  10.082   6.108  0.9958  0.6047 -0.0685
  586MOL0     O79011   2.204   9.982   6.062 -0.0414  0.3651  0.5236
  586MOL0     C79012   2.232   9.976   5.919 -0.4798 -0.3426 -0.9949
  586MOL0     C79013   2.350   9.877   5.888  0.2394 -0.8923  0.5197
  586MOL0     C79014   2.472   9.954   5.936 -1.2282  0.3725 -0.1110
  586MOL0     C79015   2.593   9.901   5.856  0.1076 -0.2105  0.2764
  586MOL0     C79016   2.647   9.780   5.929  0.1283  0.4202  0.5221
  586MOL0     C79017   2.772   9.731   5.849  0.9371  0.2498  0.0119
  586MOL0     C79018   2.789   9.572   5.840  0.3225 -0.9669  0.5188
  586MOL0     C79019   2.937   9.535   5.807  0.1492 -0.2525 -0.4406
  586MOL0    Cl79020   2.951   9.349   5.777 -0.3308 -0.2702 -0.0176
  586MOL0     C79021   1.989  10.110   6.043 -0.7671  0.3000 -0.1849
  586MOL0     C79022   1.906  10.219   6.080 -0.1689 -0.9018 -0.7540
  586MOL0     O79023   1.714  10.267   6.358 -0.0732  0.6961 -1.0991
  586MOL0     C79024   1.858  10.583   6.404  0.1949 -0.5804 -0.5999
  586MOL0     C79025   1.867  10.687   6.494 -1.1013 -1.0878 -0.9084
  586MOL0     N79026   1.323  11.243   6.748 -0.1582  0.6175 -0.0793
  586MOL0     N79027   1.229  11.263   6.665 -0.0039  0.1654 -0.0429
  586MOL0     C79028   1.186  10.566   6.729  0.0206 -0.4543 -0.2458
  586MOL0     C79029   1.231  10.595   6.858 -0.3638  0.7064 -0.4101
  586MOL0     C79030   1.448  10.847   7.190  1.1818  0.0991 -0.2814
  586MOL0     C79031   1.569  10.873   7.255  0.2884 -1.4254 -0.2503
  586MOL0     C79032   1.569  10.894   7.398  0.5067  1.1668 -0.2054
  586MOL0     C79033   1.449  10.894   7.463  0.7333 -0.0831 -0.3242
  586MOL0     O79034   1.460  10.900   7.599  0.2816  0.3772 -0.2025
  586MOL0     C79035   1.351  10.955   7.681  0.4427 -0.3219  1.2306
  586MOL0     C79036   1.329  11.110   7.660 -0.8242 -0.5900  0.6727
  586MOL0     C79037   1.190  11.171   7.701 -0.3370 -0.3416 -0.3698
  586MOL0     C79038   1.076  11.084   7.646  0.3058 -0.5746  0.5700
  586MOL0     C79039   0.939  11.135   7.646  0.4438  0.1176 -0.1462
  586MOL0     C79040   0.832  11.181   7.652  0.0481 -0.9530 -0.2211
  586MOL0     C79041   1.327  10.868   7.398  0.7114  0.3994 -0.3679
  586MOL0     C79042   1.326  10.838   7.267  0.5711  0.2645  0.2803
  586MOL0     H79043   1.354  10.902   6.796 -0.0840  0.0140 -0.0895
  586MOL0     H79044   1.280  10.858   6.591 -4.6248  1.0693  0.1821
  586MOL0     H79045   1.054  10.509   6.357  1.7899  3.6285 -1.2565
  586MOL0     H79046   1.022  10.474   6.530 -0.1378  1.9544  2.8823
  586MOL0     H79047   0.853  10.620   6.407  0.3144 -1.5145  1.5230
  586MOL0     H79048   0.908  10.699   6.548 -0.2986  0.1863 -1.0183
  586MOL0     H79049   1.079  10.772   6.339 -0.3919  0.5932  1.8392
  586MOL0     H79050   0.911  10.791   6.283 -2.5978 -2.5577  1.4229
  586MOL0     H79051   0.842  10.938   6.440  0.0438 -3.0329  1.0737
  586MOL0     H79052   0.978  10.914   6.547  0.8998  0.2044  0.1859
  586MOL0     H79053   0.968  11.048   6.274 -0.7970  0.3140 -0.5455
  586MOL0     H79054   0.976  11.133   6.428  1.6694 -0.0006 -1.1841
  586MOL0     H79055   1.199  11.040   6.489 -2.0449  1.5108  1.5034
  586MOL0     H79056   1.218  10.985   6.320  1.2455  0.5326  1.5631
  586MOL0     H79057   1.310  11.184   6.306  0.4781 -1.6172 -1.6859
  586MOL0     H79058   1.157  11.227   6.237 -0.7281  0.8693  0.5062
  586MOL0     H79059   1.082  11.316   6.468 -0.0534  2.8558 -0.2812
  586MOL0     H79060   1.202  11.399   6.364  0.0828  1.1899 -0.2475
  586MOL0     H79061   1.481  11.356   6.478  1.3964  3.2616  1.9360
  586MOL0     H79062   1.649  11.271   6.658  4.1949 -2.8456  3.5474
  586MOL0     H79063   1.612  11.328   6.821  0.1673 -1.5736  2.2366
  586MOL0     H79064   1.505  11.076   6.833 -0.8504 -1.0747 -1.8606
  586MOL0     H79065   1.673  11.129   6.860  2.3520 -0.8582 -0.9922
  586MOL0     H79066   1.729  11.089   6.623  2.8029 -0.8407  3.0542
  586MOL0     H79067   1.584  10.986   6.598  0.7929 -1.6683  0.6621
  586MOL0     H79068   1.617  10.838   6.761 -1.4511  1.5137 -1.0365
  586MOL0     H79069   1.755  10.928   6.838 -0.1335 -1.6543  0.8031
  586MOL0     H79070   1.610  10.612   6.706  1.3357  0.1435  0.3063
  586MOL0     H79071   1.581  10.297   6.570 -1.5340  0.1801  0.8275
  586MOL0     H79072   1.499  10.432   6.659 -2.2805  2.0786 -0.7108
  586MOL0     H79073   1.492  10.408   6.481  2.5263 -3.3169 -1.8428
  586MOL0     H79074   2.111  10.322   6.343  1.2358 -0.4728 -0.4749
  586MOL0     H79075   2.233  10.119   6.267 -1.6546 -0.8707  2.2272
  586MOL0     H79076   2.144   9.962   5.855 -1.0577  2.5603 -0.9695
  586MOL0     H79077   2.267  10.074   5.887  0.1736  0.5902  2.2365
  586MOL0     H79078   2.342   9.777   5.932 -1.6008 -1.6123 -1.2746
  586MOL0     H79079   2.352   9.873   5.779  1.3848  1.4262  0.4060
  586MOL0     H79080   2.487   9.939   6.043  0.7150 -0.5862 -0.4766
  586MOL0     H79081   2.462  10.061   5.913  1.1570  0.7155  0.1150
  586MOL0     H79082   2.565   9.886   5.751  2.5864  1.5100 -0.7270
  586MOL0     H79083   2.677   9.971   5.849 -2.9578  3.6659 -1.4623
  586MOL0     H79084   2.569   9.704   5.924 -0.0515  0.6752 -2.6699
  586MOL0     H79085   2.681   9.798   6.031  0.0030 -0.2262  0.6800
  586MOL0     H79086   2.774   9.775   5.748  0.1204 -0.2995 -0.2613
  586MOL0     H79087   2.850   9.784   5.902 -1.1496  3.5491  0.0745
  586MOL0     H79088   2.713   9.540   5.769  1.6258 -1.2325 -0.7935
  586MOL0     H79089   2.763   9.527   5.937  1.8919 -3.8323 -0.2995
  586MOL0     H79090   3.004   9.563   5.888  1.4715 -3.0031 -0.4860
  586MOL0     H79091   2.978   9.593   5.723  1.5793 -0.6461 -0.0346
  586MOL0     H79092   1.955  10.063   5.951  3.4839  0.9685 -2.3429
  586MOL0     H79093   1.811  10.228   6.028 -1.6016  0.1174  1.8426
  586MOL0     H79094   1.937  10.569   6.332 -0.0809 -0.5337 -0.9161
  586MOL0     H79095   1.942  10.761   6.464 -3.0996  1.2182 -0.5554
  586MOL0     H79096   1.135  10.473   6.705  0.8122 -1.1740  0.7742
  586MOL0     H79097   1.197  10.528   6.937  0.7507 -0.4552 -0.8804
  586MOL0     H79098   1.658  10.892   7.196 -1.7778 -0.7719 -3.3405
  586MOL0     H79099   1.655  10.931   7.451 -2.7545  4.1372  3.6799
  586MOL0     H79100   1.265  10.888   7.678  0.6784 -0.6876  2.2104
  586MOL0     H79101   1.371  10.951   7.789 -2.4789 -1.0548  1.8363
  586MOL0     H79102   1.346  11.125   7.553 -0.4082 -1.2619  0.6366
  586MOL0     H79103   1.407  11.168   7.709 -1.3236  0.3107  0.4260
  586MOL0     H79104   1.187  11.273   7.662  2.8595  0.8067  1.9039
  586MOL0     H79105   1.178  11.189   7.808 -0.9344 -3.9067  0.3009
  586MOL0     H79106   1.068  10.992   7.705  0.9442 -0.3991  0.9417
  586MOL0     H79107   1.107  11.055   7.545  2.8540  1.3190  0.7087
  586MOL0     H79108   0.742  11.237   7.642  0.7089 -0.2394 -3.3872
  586MOL0     H79109   1.237  10.857   7.458  1.7581  2.0781  1.6550
  586MOL0     H79110   1.231  10.811   7.222  0.1091 -0.1301  1.4475
  587MOL0     O79111   5.868   4.776   7.960  0.6691 -1.0152  0.4866
  587MOL0     C79112   5.941   4.860   7.903 -0.2509  0.0436  0.3377
  587MOL0     O79113   5.891   4.964   7.826 -0.1995  0.0348 -0.5523
  587MOL0     C79114   5.768   5.018   7.852 -0.0725  0.2429  0.5320
  587MOL0     C79115   5.710   5.066   7.730 -0.0838 -0.4495  0.5344
  587MOL0     C79116   5.581   5.104   7.743  0.7615 -0.0941 -0.0384
  587MOL0     C79117   5.509   5.094   7.858 -0.0111 -0.1916 -0.5885
  587MOL0     O79118   5.367   5.110   7.852 -0.1271  0.2986 -0.7014
  587MOL0     C79119   5.298   5.164   7.967  0.4309  0.9401  0.0238
  587MOL0     C79120   5.162   5.198   7.895 -0.1649 -1.0408 -0.4431
  587MOL0     C79121   5.068   5.268   7.990 -0.1596  0.1515  0.6273
  587MOL0     C79122   4.956   5.330   7.907  0.3611  0.3208  0.0836
  587MOL0     C79123   4.866   5.427   7.973 -0.0992  0.2292  0.2436
  587MOL0     C79124   4.749   5.477   7.885 -0.5472  0.9877 -0.1774
  587MOL0     C79125   4.786   5.598   7.794 -0.4885 -0.9728  0.2205
  587MOL0     C79126   4.701   5.627   7.670  0.1885  0.1441 -0.2432
  587MOL0     N79127   4.574   5.711   7.697 -0.0097  0.1668 -0.1553
  587MOL0     C79128   4.579   5.845   7.736  0.7938  0.4157 -0.2402
  587MOL0     C79129   4.451   5.871   7.764 -0.3993  0.2023 -0.4181
  587MOL0     C79130   4.388   5.989   7.829  0.5475 -0.0204 -0.8535
  587MOL0     C79131   4.326   6.077   7.716 -0.6769 -0.2114 -0.4572
  587MOL0     C79132   4.255   6.201   7.773  0.4709 -0.0220 -0.4925
  587MOL0     C79133   4.106   6.169   7.807 -0.2287 -0.2716  1.7077
  587MOL0     O79134   4.058   6.292   7.849 -0.1219 -0.3915  0.0832
  587MOL0     C79135   3.970   6.366   7.777  0.4198  0.2743  0.2265
  587MOL0     C79136   3.892   6.330   7.669  0.3581  0.0444 -0.4001
  587MOL0     C79137   3.801   6.409   7.596  0.6175 -0.8249  0.2442
  587MOL0     C79138   3.722   6.372   7.469 -0.2498  0.2253  0.3429
  587MOL0     C79139   3.787   6.547   7.639  0.8058  0.0047 -0.7624
  587MOL0     C79140   3.689   6.648   7.589  0.0708  0.1496 -0.5284
  587MOL0     O79141   3.698   6.774   7.642 -0.6351  0.2688 -0.1472
  587MOL0     C79142   3.605   6.873   7.612  0.5543  0.1422  0.8029
  587MOL0     C79143   3.655   7.004   7.618  0.8018 -0.1609  0.1911
  587MOL0     C79144   3.577   7.115   7.566 -1.2484  0.8163  0.5368
  587MOL0     C79145   3.448   7.091   7.513 -0.6065 -0.4418  0.1416
  587MOL0     O79146   3.371   7.191   7.459  1.2605  1.4745 -0.4146
  587MOL0     C79147   3.327   7.271   7.568  1.4856 -0.0754  0.2069
  587MOL0     C79148   3.228   7.368   7.501  0.1435  1.0845  0.5026
  587MOL0     C79149   3.165   7.466   7.603  0.1888  0.4693 -0.5072
  587MOL0     C79150   3.018   7.498   7.567 -0.1926 -0.3426  0.1546
  587MOL0     C79151   2.962   7.621   7.648 -0.4860  0.1117 -0.5318
  587MOL0     C79152   2.817   7.632   7.619 -0.0803 -0.0843 -0.2884
  587MOL0     C79153   2.744   7.748   7.681  0.0564 -0.1840 -0.2232
  587MOL0     C79154   2.789   7.881   7.623 -0.5950  0.8559  0.0848
  587MOL0    Cl79155   2.660   8.011   7.653 -0.3990  0.1520  0.6081
  587MOL0     C79156   3.396   6.962   7.521  0.3338  0.0004 -0.0075
  587MOL0     C79157   3.475   6.855   7.554 -0.4145 -1.1457 -0.6730
  587MOL0     O79158   3.599   6.611   7.516 -0.1198 -0.1902  0.3997
  587MOL0     C79159   3.861   6.582   7.760 -0.5957 -0.1198  0.7585
  587MOL0     C79160   3.949   6.495   7.823  0.0286  0.1727 -0.0670
  587MOL0     N79161   4.368   5.761   7.735 -0.5640 -0.2956 -1.0978
  587MOL0     N79162   4.444   5.672   7.689 -0.2753 -0.5768 -0.4541
  587MOL0     C79163   5.565   5.049   7.977 -0.1649  0.7722 -0.4647
  587MOL0     C79164   5.700   5.010   7.976 -0.3997 -0.8917 -0.0155
  587MOL0     C79165   6.085   4.829   7.885 -0.6940  0.9411 -0.0381
  587MOL0     C79166   6.142   4.709   7.941 -0.3033 -0.2365 -0.1968
  587MOL0     C79167   6.278   4.678   7.912  0.0087 -0.1955 -0.4481
  587MOL0     C79168   6.362   4.775   7.855 -0.4488  0.0768  0.6747
  587MOL0     O79169   6.506   4.772   7.838  0.3724  0.2337  0.0625
  587MOL0     C79170   6.573   4.654   7.883  0.3650 -0.9916 -0.4020
  587MOL0     C79171   6.713   4.688   7.902  0.4858 -0.1128 -0.7211
  587MOL0     C79172   6.791   4.711   7.771 -0.1381  0.4464 -0.3412
  587MOL0     C79173   6.921   4.799   7.793  0.1798  0.5948  0.2945
  587MOL0     C79174   6.912   4.936   7.836 -0.0750 -0.6859 -0.6825
  587MOL0     C79175   6.914   5.052   7.865  0.0089 -0.2503  0.4233
  587MOL0     C79176   6.303   4.894   7.826  0.5934 -0.0334  0.3647
  587MOL0     C79177   6.169   4.923   7.834 -0.2313 -0.6387 -0.3888
  587MOL0     H79178   5.759   5.060   7.634  2.6273  0.0903  1.7813
  587MOL0     H79179   5.531   5.130   7.650  3.1896 -0.9357 -1.6782
  587MOL0     H79180   5.269   5.088   8.040 -0.9396  1.7727  0.3675
  587MOL0     H79181   5.347   5.248   8.017  3.4036  0.0115 -1.1164
  587MOL0     H79182   5.179   5.265   7.810 -0.7650  1.4874  1.3134
  587MOL0     H79183   5.105   5.113   7.855 -1.6596  0.1751 -1.0155
  587MOL0     H79184   5.025   5.206   8.069 -1.2418 -1.6335 -1.2634
  587MOL0     H79185   5.120   5.360   8.018 -1.5604  0.9089  0.8505
  587MOL0     H79186   5.002   5.383   7.823  1.4489  1.5016  1.4007
  587MOL0     H79187   4.891   5.253   7.863  0.8712  0.8133 -1.6344
  587MOL0     H79188   4.808   5.371   8.046 -1.5936  0.0427 -1.0293
  587MOL0     H79189   4.907   5.518   8.017 -0.8177  0.8757 -0.3761
  587MOL0     H79190   4.703   5.399   7.822 -1.3551  3.2129 -2.5240
  587MOL0     H79191   4.676   5.508   7.960  0.8207  2.0501  0.7568
  587MOL0     H79192   4.815   5.689   7.847  2.8428 -2.0832  0.5716
  587MOL0     H79193   4.882   5.574   7.747 -2.5233 -3.8711 -3.0096
  587MOL0     H79194   4.674   5.536   7.615 -2.7413  1.0880 -0.5438
  587MOL0     H79195   4.763   5.683   7.600  0.5581  1.2171  0.9008
  587MOL0     H79196   4.664   5.904   7.767  0.9910 -0.2865  0.5650
  587MOL0     H79197   4.307   5.956   7.895  0.4786  0.5726 -0.6431
  587MOL0     H79198   4.462   6.045   7.887  1.4626  0.5856 -2.5395
  587MOL0     H79199   4.246   6.022   7.664  0.4074  0.1400 -2.5861
  587MOL0     H79200   4.406   6.109   7.649  2.5803 -2.8589  1.8179
  587MOL0     H79201   4.255   6.280   7.698  0.9801 -3.1878 -4.1547
  587MOL0     H79202   4.302   6.239   7.864  2.9034  0.0915 -1.7068
  587MOL0     H79203   4.107   6.091   7.884 -0.7958  0.5441  2.5695
  587MOL0     H79204   4.047   6.125   7.726 -2.5681  1.5994  2.2818
  587MOL0     H79205   3.900   6.231   7.625 -0.5382 -0.8946  1.4503
  587MOL0     H79206   3.617   6.350   7.491  0.7888 -2.3691  3.6486
  587MOL0     H79207   3.732   6.445   7.388 -1.3424  1.0382  0.9238
  587MOL0     H79208   3.768   6.276   7.441 -1.8178 -0.6850  0.7887
  587MOL0     H79209   3.757   7.021   7.651  0.2488  6.2023 -0.1739
  587MOL0     H79210   3.615   7.216   7.564  0.7110  0.1031 -0.5167
  587MOL0     H79211   3.290   7.218   7.656  0.9694 -2.3268 -1.2885
  587MOL0     H79212   3.408   7.334   7.606  0.3625  0.6391  1.4855
  587MOL0     H79213   3.270   7.415   7.411  1.8106 -1.9488 -0.4592
  587MOL0     H79214   3.153   7.295   7.468  3.4178 -1.8523 -1.0753
  587MOL0     H79215   3.221   7.560   7.602  0.1204  0.5278  0.3591
  587MOL0     H79216   3.169   7.427   7.705  0.1333  1.0635 -0.2748
  587MOL0     H79217   3.035   7.514   7.460  2.9369  2.3803  0.8984
  587MOL0     H79218   2.951   7.415   7.588  0.0409 -0.8487 -1.0484
  587MOL0     H79219   3.017   7.710   7.617  0.9307  0.6154  2.9975
  587MOL0     H79220   2.975   7.599   7.754 -3.7641 -0.0776 -0.0859
  587MOL0     H79221   2.801   7.638   7.511 -1.9371 -0.5878 -0.0719
  587MOL0     H79222   2.763   7.542   7.650 -0.1049  0.1508  0.3550
  587MOL0     H79223   2.743   7.735   7.790 -2.7448 -0.0958 -0.1589
  587MOL0     H79224   2.637   7.738   7.660  0.0851  1.6897 -1.5310
  587MOL0     H79225   2.810   7.865   7.517  2.1117  0.0148  0.6461
  587MOL0     H79226   2.886   7.903   7.669 -0.5266 -1.5222  1.2389
  587MOL0     H79227   3.305   6.935   7.469  1.1375 -0.7172 -1.0622
  587MOL0     H79228   3.430   6.756   7.564 -0.9853 -0.6845  2.3120
  587MOL0     H79229   3.856   6.678   7.811 -1.0446  1.0160 -1.2767
  587MOL0     H79230   4.012   6.525   7.906 -1.4475  0.2969  1.0429
  587MOL0     H79231   5.518   5.050   8.075 -0.1726 -1.6664 -0.3877
  587MOL0     H79232   5.739   4.971   8.070 -0.8337 -0.4304  0.3611
  587MOL0     H79233   6.089   4.633   7.998  3.2032 -1.0810  2.3065
  587MOL0     H79234   6.323   4.589   7.952 -1.4224 -0.7586 -0.0120
  587MOL0     H79235   6.546   4.634   7.987  1.2867 -1.0679 -0.1665
  587MOL0     H79236   6.561   4.564   7.823  0.0623 -0.2329 -1.5153
  587MOL0     H79237   6.758   4.607   7.961  0.8431 -0.0806 -0.9464
  587MOL0     H79238   6.718   4.781   7.959  0.5089 -0.4619 -0.1492
  587MOL0     H79239   6.732   4.748   7.687  0.4536 -3.3184 -2.6495
  587MOL0     H79240   6.819   4.607   7.753 -1.2000  0.2073 -0.6875
  587MOL0     H79241   6.981   4.794   7.702  1.0570  2.1431  0.7551
  587MOL0     H79242   6.975   4.733   7.862 -0.2374 -3.3725 -2.7929
  587MOL0     H79243   6.916   5.157   7.886  0.9181 -0.4504  1.4039
  587MOL0     H79244   6.370   4.975   7.799  0.2454 -0.0476 -0.5716
  587MOL0     H79245   6.150   5.025   7.803  1.3821 -0.7948 -2.0546
  588MOL0     O79246   8.798   4.354   8.658  0.0929 -0.4771  0.3253
  588MOL0     C79247   8.765   4.465   8.611  0.0317  0.6423  1.7481
  588MOL0     O79248   8.852   4.567   8.595  0.4978 -0.2529  0.5839
  588MOL0     C79249   8.981   4.555   8.620  0.0515  0.2086 -0.2036
  588MOL0     C79250   9.064   4.473   8.540  0.4592 -0.2615  0.4947
  588MOL0     C79251   9.200   4.448   8.578  0.2178 -0.0020 -0.1431
  588MOL0     C79252   9.250   4.523   8.688  0.0060 -0.7473  0.0977
  588MOL0     O79253   9.382   4.542   8.729  0.1718  0.8897  0.2915
  588MOL0     C79254   9.489   4.487   8.653 -0.0117 -0.3684 -0.0080
  588MOL0     C79255   9.606   4.476   8.760 -0.2822 -0.2559 -0.8127
  588MOL0     C79256   9.736   4.445   8.692  1.1233  0.1896  0.0469
  588MOL0     C79257   9.852   4.452   8.793  0.4668 -0.1681 -0.8597
  588MOL0     C79258   9.976   4.371   8.750 -0.3685 -0.1787 -0.6485
  588MOL0     C79259  10.058   4.424   8.632  0.3286 -0.0977 -1.0907
  588MOL0     C79260  10.136   4.320   8.556  0.6162 -0.7532 -0.1056
  588MOL0     C79261  10.224   4.363   8.443 -0.4312  0.3674  0.0581
  588MOL0     N79262  10.302   4.254   8.397 -0.5657  0.0122 -0.3616
  588MOL0     C79263  10.440   4.250   8.385 -0.4299  0.8141  0.0695
  588MOL0     C79264  10.461   4.125   8.327 -0.2486  0.5189  1.5671
  588MOL0     C79265  10.598   4.070   8.299 -0.0217  1.0593 -0.4992
  588MOL0     C79266  10.617   4.089   8.147 -0.9663 -0.0377  0.3791
  588MOL0     C79267  10.728   3.990   8.091  0.0006  0.9031 -0.3162
  588MOL0     C79268  10.879   4.032   8.109  0.3419  0.2687 -0.4615
  588MOL0     O79269  10.936   4.009   8.234 -0.1084  0.3527  0.1112
  588MOL0     C79270  11.075   4.012   8.249  1.0287  0.4104  0.7343
  588MOL0     C79271  11.106   4.018   8.382 -0.3627 -0.1558 -0.8251
  588MOL0     C79272  11.244   4.041   8.417 -0.7354  0.0805  0.1215
  588MOL0     C79273  11.274   4.056   8.569  0.0285 -0.0096  0.0023
  588MOL0     C79274  11.345   4.036   8.319 -0.0968  0.6143  0.0385
  588MOL0     C79275  11.495   4.061   8.341  0.1069  0.4873  0.5954
  588MOL0     O79276  11.576   4.031   8.238 -0.5958 -0.6455 -0.5284
  588MOL0     C79277  11.708   4.048   8.252 -0.3550 -0.0046  0.0528
  588MOL0     C79278  11.768   4.052   8.128 -0.7267 -0.6452 -0.2850
  588MOL0     C79279  11.907   4.076   8.119  0.6673  0.0818 -1.0175
  588MOL0     C79280  11.979   4.100   8.232  0.4004 -0.6200  0.0755
  588MOL0     O79281  12.122   4.116   8.222 -0.1517  0.6070 -0.6148
  588MOL0     C79282  12.186   4.241   8.246  0.2631  0.4324  0.1816
  588MOL0     C79283  12.312   4.232   8.163 -0.2177 -0.0774  0.2603
  588MOL0     C79284  12.389   4.351   8.144 -0.0018 -1.1433  0.5032
  588MOL0     C79285  12.523   4.314   8.070 -0.4187 -0.6094  0.2878
  588MOL0     C79286  12.609   4.437   8.051  0.4277 -0.3792  0.3433
  588MOL0     C79287  12.756   4.419   8.014 -0.1942 -0.6427  0.1372
  588MOL0     C79288  12.817   4.556   7.963 -0.4652 -0.7281 -0.4112
  588MOL0     C79289  12.907   4.634   8.056 -0.2921 -0.2748  0.9481
  588MOL0    Cl79290  12.965   4.769   7.966 -0.2686 -0.1774 -0.5862
  588MOL0     C79291  11.914   4.089   8.352  0.9438 -0.7973 -0.5053
  588MOL0     C79292  11.781   4.070   8.370 -0.3306 -0.9462 -1.2509
  588MOL0     O79293  11.523   4.130   8.438 -0.0958 -0.8702 -0.1244
  588MOL0     C79294  11.310   4.024   8.186  0.0482  0.1426 -0.0834
  588MOL0     C79295  11.176   4.014   8.150 -0.0386 -1.1839  0.1359
  588MOL0     N79296  10.343   4.054   8.310  0.0511 -0.4483 -0.0737
  588MOL0     N79297  10.250   4.130   8.361 -0.2538  0.2717 -0.1187
  588MOL0     C79298   9.158   4.597   8.772  0.0504 -0.5606 -0.2859
  588MOL0     C79299   9.026   4.601   8.738  0.8218 -0.7950  0.7335
  588MOL0     C79300   8.617   4.494   8.594  0.1610  0.5788 -0.6805
  588MOL0     C79301   8.573   4.627   8.585  0.7257  0.5954  0.3023
  588MOL0     C79302   8.436   4.651   8.568  0.6488 -0.1424 -0.8422
  588MOL0     C79303   8.341   4.556   8.564  0.7014 -0.0109  0.0273
  588MOL0     O79304   8.204   4.598   8.549  0.1603  0.2691 -0.0954
  588MOL0     C79305   8.102   4.499   8.521 -0.8128 -0.3939 -0.0007
  588MOL0     C79306   7.975   4.564   8.492  0.0173  1.0897 -0.7639
  588MOL0     C79307   7.871   4.478   8.426 -0.5417 -0.1131 -0.3421
  588MOL0     C79308   7.748   4.560   8.388 -0.2002  0.9431 -0.4272
  588MOL0     C79309   7.789   4.662   8.296 -1.4314 -0.8879  0.7964
  588MOL0     C79310   7.820   4.734   8.203  0.4290 -0.1950  0.4617
  588MOL0     C79311   8.384   4.423   8.585  0.6533 -0.0177 -0.3464
  588MOL0     C79312   8.514   4.392   8.599 -0.4863  0.7625 -0.0853
  588MOL0     H79313   9.021   4.419   8.456 -0.6777  1.2172  0.0816
  588MOL0     H79314   9.272   4.385   8.527  2.3940  0.6596  1.8866
  588MOL0     H79315   9.457   4.388   8.618 -3.4603  0.9130 -0.8754
  588MOL0     H79316   9.514   4.554   8.570 -0.2279  0.4191  0.5460
  588MOL0     H79317   9.611   4.572   8.813 -0.1421  0.6913 -2.4638
  588MOL0     H79318   9.571   4.393   8.822 -2.6722  2.6054  2.0088
  588MOL0     H79319   9.741   4.343   8.654  2.5249  0.3927 -0.3790
  588MOL0     H79320   9.763   4.514   8.612  1.8292  1.8916  1.6579
  588MOL0     H79321   9.882   4.556   8.804  0.6523 -0.4041  1.2868
  588MOL0     H79322   9.817   4.414   8.889 -1.3736  1.1832 -0.9411
  588MOL0     H79323  10.042   4.351   8.834 -0.4754  1.5624 -0.1121
  588MOL0     H79324   9.937   4.275   8.716 -2.3867  0.2376  0.3130
  588MOL0     H79325   9.991   4.465   8.556  0.0600  0.0505 -0.7760
  588MOL0     H79326  10.136   4.491   8.667  1.6558 -2.2176  0.2571
  588MOL0     H79327  10.190   4.255   8.627  1.2095  1.8160  1.9495
  588MOL0     H79328  10.070   4.243   8.516  1.8000 -1.4950 -0.7039
  588MOL0     H79329  10.289   4.446   8.471 -1.9522  2.3477 -1.8511
  588MOL0     H79330  10.162   4.399   8.360 -0.2690 -0.1477 -0.2892
  588MOL0     H79331  10.506   4.330   8.418 -1.7826  0.8020  3.1536
  588MOL0     H79332  10.678   4.112   8.362 -0.2511  0.6967  0.0397
  588MOL0     H79333  10.599   3.965   8.332  0.7417  1.9694  2.7712
  588MOL0     H79334  10.647   4.191   8.120 -0.8063 -0.3525 -0.6675
  588MOL0     H79335  10.531   4.054   8.089  1.2425 -1.2869 -2.3831
  588MOL0     H79336  10.698   3.986   7.986 -2.6043  2.9045  0.2418
  588MOL0     H79337  10.710   3.899   8.148 -0.7069  1.5148  0.4699
  588MOL0     H79338  10.891   4.137   8.082  3.5685 -0.1764 -1.0908
  588MOL0     H79339  10.929   3.983   8.025  2.3006  1.5316 -0.0911
  588MOL0     H79340  11.033   4.027   8.462  0.2635  0.2252 -0.2923
  588MOL0     H79341  11.177   4.070   8.617 -1.5595 -3.2999 -1.8683
  588MOL0     H79342  11.313   3.962   8.610 -0.5852 -0.6992 -0.9448
  588MOL0     H79343  11.340   4.139   8.596  1.4126 -0.4995 -1.7127
  588MOL0     H79344  11.715   4.030   8.036  1.9246  0.4157 -2.1953
  588MOL0     H79345  11.945   4.073   8.018  0.9375  0.9085 -0.9508
  588MOL0     H79346  12.126   4.325   8.209  1.0550 -0.4894 -3.6260
  588MOL0     H79347  12.225   4.247   8.347  1.0335 -3.8819  0.3294
  588MOL0     H79348  12.366   4.151   8.212  0.3703  1.6734  2.6942
  588MOL0     H79349  12.291   4.202   8.060  2.8421 -2.6959  0.2727
  588MOL0     H79350  12.390   4.407   8.238 -1.0784 -0.5114  0.1547
  588MOL0     H79351  12.328   4.407   8.072  0.8863 -3.4694 -2.2463
  588MOL0     H79352  12.581   4.252   8.139  0.0971  0.1865  0.5819
  588MOL0     H79353  12.500   4.261   7.978 -0.7920  0.2496 -0.1296
  588MOL0     H79354  12.594   4.503   8.136 -2.0819  0.5605 -0.7421
  588MOL0     H79355  12.545   4.489   7.979  0.2772  0.9006  1.3764
  588MOL0     H79356  12.813   4.397   8.106 -0.9851  1.0333  1.0628
  588MOL0     H79357  12.770   4.340   7.940 -1.5640  2.1758 -3.3640
  588MOL0     H79358  12.729   4.618   7.942 -0.7348 -0.4536  1.3568
  588MOL0     H79359  12.875   4.532   7.873 -1.2338  3.2822 -2.2258
  588MOL0     H79360  12.979   4.562   8.096 -3.0573 -2.3905  2.4451
  588MOL0     H79361  12.853   4.662   8.147 -0.3251  0.6318  0.6575
  588MOL0     H79362  11.971   4.105   8.443 -2.2871  1.2715  1.3351
  588MOL0     H79363  11.740   4.068   8.471 -1.4021  1.2354 -1.5779
  588MOL0     H79364  11.382   4.033   8.105  0.4304  2.0230  0.4151
  588MOL0     H79365  11.171   4.009   8.042  1.0885  1.6780 -0.1412
  588MOL0     H79366   9.206   4.649   8.855  1.5374  0.4240 -1.6906
  588MOL0     H79367   8.953   4.665   8.788 -0.7142 -0.0729 -2.2009
  588MOL0     H79368   8.628   4.721   8.586  0.2199  0.9296 -1.0326
  588MOL0     H79369   8.418   4.758   8.567  0.1995 -0.2132 -0.5608
  588MOL0     H79370   8.145   4.441   8.439  1.1092  4.3529 -2.7715
  588MOL0     H79371   8.090   4.434   8.608 -1.2512  0.0269  0.2544
  588MOL0     H79372   8.004   4.639   8.417 -0.1133 -0.3521 -2.3266
  588MOL0     H79373   7.946   4.614   8.585  1.3082 -1.5930  1.1887
  588MOL0     H79374   7.855   4.387   8.485  1.5485 -0.2894  0.0245
  588MOL0     H79375   7.914   4.438   8.334  0.7430 -0.0549  0.2105
  588MOL0     H79376   7.691   4.604   8.471 -2.7155  0.6854 -1.9098
  588MOL0     H79377   7.678   4.490   8.342 -1.3382  0.3598  1.9907
  588MOL0     H79378   7.835   4.809   8.127 -2.7996 -2.3824 -2.7121
  588MOL0     H79379   8.313   4.341   8.591  2.1110 -1.2531  1.0356
  588MOL0     H79380   8.535   4.285   8.601  1.0595  1.0376 -0.3311
  589MOL0     O79381   6.293   5.025   5.335  0.6573  0.3912 -0.2861
  589MOL0     C79382   6.298   5.145   5.315  0.5318  1.1194  0.4080
  589MOL0     O79383   6.223   5.205   5.228  0.7253 -0.0842  0.4818
  589MOL0     C79384   6.105   5.150   5.186  0.0951  0.5075  0.0763
  589MOL0     C79385   5.991   5.170   5.260 -0.1052 -0.0838 -0.0199
  589MOL0     C79386   5.874   5.105   5.216 -0.8107  0.2849 -0.2463
  589MOL0     C79387   5.870   5.023   5.104  0.3112  0.7753  0.4156
  589MOL0     O79388   5.746   4.961   5.089 -0.5248  0.4396  0.6873
  589MOL0     C79389   5.736   4.857   4.996 -0.4261 -0.3874  0.4508
  589MOL0     C79390   5.599   4.801   4.987  0.6658 -0.4736  0.4440
  589MOL0     C79391   5.486   4.903   4.960 -0.5202  0.3050  0.2142
  589MOL0     C79392   5.353   4.841   4.968 -0.1412 -0.5364 -0.4184
  589MOL0     C79393   5.246   4.949   5.012  0.6784 -0.1299 -0.1246
  589MOL0     C79394   5.126   4.878   5.059 -0.1970  0.2279 -0.6544
  589MOL0     C79395   5.006   4.977   5.090 -0.1898 -0.8060 -0.4038
  589MOL0     C79396   4.869   4.901   5.080  0.0199 -0.4889 -0.1355
  589MOL0     N79397   4.774   5.003   5.118  0.4050 -0.1178  0.1650
  589MOL0     C79398   4.729   5.037   5.237  0.3874 -0.0543  0.6426
  589MOL0     C79399   4.646   5.146   5.218  0.2355 -0.0121  0.9065
  589MOL0     C79400   4.547   5.205   5.309  0.7590 -0.6595  0.5815
  589MOL0     C79401   4.541   5.152   5.454  0.2151 -0.8641 -0.2770
  589MOL0     C79402   4.666   5.175   5.547  0.0141  0.9293  0.9696
  589MOL0     C79403   4.637   5.199   5.696 -0.3995 -0.3717  0.5059
  589MOL0     O79404   4.561   5.319   5.700  0.0575  0.7072 -0.0196
  589MOL0     C79405   4.633   5.439   5.691  1.1141 -0.6806 -0.7236
  589MOL0     C79406   4.596   5.531   5.599 -0.0067  0.1289  0.6148
  589MOL0     C79407   4.664   5.652   5.585 -0.4563 -0.6822 -0.3739
  589MOL0     C79408   4.603   5.762   5.497  1.1854 -0.2270 -1.3876
  589MOL0     C79409   4.780   5.684   5.668  0.2293 -0.5578 -0.5735
  589MOL0     C79410   4.872   5.797   5.654 -0.3304  0.0108  0.5391
  589MOL0     O79411   4.950   5.812   5.763 -0.5576 -0.2909 -0.5561
  589MOL0     C79412   5.039   5.914   5.772 -0.1164 -0.2778  0.8608
  589MOL0     C79413   5.015   6.012   5.868 -0.0467 -0.1742 -0.5499
  589MOL0     C79414   5.089   6.130   5.885  0.4282  0.2559  0.8313
  589MOL0     C79415   5.210   6.147   5.816 -0.5517 -0.4404 -0.0049
  589MOL0     O79416   5.310   6.239   5.849 -0.3273 -0.0405  0.6597
  589MOL0     C79417   5.327   6.277   5.986  0.2407  0.1421 -0.6033
  589MOL0     C79418   5.264   6.410   6.028  0.1293  1.0404 -0.0308
  589MOL0     C79419   5.267   6.428   6.184  0.7208 -0.3063  0.8499
  589MOL0     C79420   5.189   6.554   6.220 -0.2735 -0.5513 -0.0817
  589MOL0     C79421   5.039   6.517   6.248 -0.1025 -0.4298 -1.0018
  589MOL0     C79422   4.961   6.635   6.309 -0.7000 -0.0206  0.1448
  589MOL0     C79423   4.810   6.608   6.318  1.2882  0.4193  0.2899
  589MOL0     C79424   4.768   6.484   6.390 -0.2626 -0.1630 -0.6309
  589MOL0    Cl79425   4.840   6.466   6.564  0.0550 -0.6322 -0.0363
  589MOL0     C79426   5.236   6.046   5.717  0.2917  0.0952  0.2013
  589MOL0     C79427   5.151   5.938   5.695  0.0525  0.6871  0.2905
  589MOL0     O79428   4.881   5.871   5.553 -0.4930 -0.9028  0.8974
  589MOL0     C79429   4.809   5.589   5.772  0.6022 -0.0333 -0.6044
  589MOL0     C79430   4.738   5.469   5.779 -1.1639 -0.3852 -1.3808
  589MOL0     N79431   4.665   5.192   5.085  0.5439  0.3011  0.8926
  589MOL0     N79432   4.739   5.101   5.029  0.5507  0.9040 -0.0021
  589MOL0     C79433   5.980   5.016   5.032 -0.7569 -0.7485 -0.0559
  589MOL0     C79434   6.099   5.071   5.073 -0.7537 -0.4206  0.9815
  589MOL0     C79435   6.398   5.217   5.389 -0.3622  0.1262  0.5487
  589MOL0     C79436   6.478   5.154   5.489 -0.2431 -0.4716 -0.2781
  589MOL0     C79437   6.567   5.219   5.579 -0.1751 -0.1620 -0.4200
  589MOL0     C79438   6.564   5.361   5.579  0.5836  1.3955  0.3842
  589MOL0     O79439   6.636   5.408   5.680  0.5049  0.3937 -1.0443
  589MOL0     C79440   6.671   5.548   5.678  0.5037  0.1779  0.3483
  589MOL0     C79441   6.815   5.558   5.717 -0.2326 -0.0855 -0.2284
  589MOL0     C79442   6.836   5.544   5.872 -0.0474  0.6959  0.4382
  589MOL0     C79443   6.952   5.626   5.925 -1.0017  1.1988 -0.4787
  589MOL0     C79444   7.084   5.621   5.852  0.4489  0.4598 -0.0605
  589MOL0     C79445   7.180   5.623   5.783  0.2915  0.4165  0.4732
  589MOL0     C79446   6.483   5.425   5.480  0.0807 -0.3130 -1.4518
  589MOL0     C79447   6.402   5.353   5.397  1.0050 -0.3567  0.0720
  589MOL0     H79448   5.992   5.220   5.356  1.3403 -0.5743  0.2405
  589MOL0     H79449   5.784   5.126   5.274  1.1310  1.0095  2.7739
  589MOL0     H79450   5.763   4.907   4.902  0.5472  1.1110  1.4743
  589MOL0     H79451   5.814   4.784   5.020 -2.0799 -1.6252  2.3148
  589MOL0     H79452   5.604   4.717   4.916 -0.4568  0.9076 -1.3444
  589MOL0     H79453   5.592   4.754   5.086  1.4456 -1.0509  0.2408
  589MOL0     H79454   5.491   4.981   5.037 -0.6927 -1.9300  2.6551
  589MOL0     H79455   5.502   4.939   4.858  2.3527  0.1277  0.5062
  589MOL0     H79456   5.326   4.808   4.867  2.7115 -2.6358 -0.6420
  589MOL0     H79457   5.361   4.757   5.038  0.0395  1.1935  1.7352
  589MOL0     H79458   5.283   5.019   5.088  1.5046 -0.0543 -0.5935
  589MOL0     H79459   5.227   5.012   4.924 -2.9646 -0.6562  0.1176
  589MOL0     H79460   5.098   4.808   4.980 -0.5159  0.5773 -0.8567
  589MOL0     H79461   5.145   4.818   5.148  0.4338 -1.2002 -1.7240
  589MOL0     H79462   5.015   5.017   5.191 -1.0277 -2.0597  0.2054
  589MOL0     H79463   5.000   5.056   5.015 -4.3084 -2.1244 -1.7510
  589MOL0     H79464   4.853   4.814   5.145  0.3303 -1.2036 -0.9843
  589MOL0     H79465   4.848   4.868   4.978 -1.1612 -1.0614  0.2663
  589MOL0     H79466   4.740   4.974   5.325  0.6179 -4.3191 -2.1092
  589MOL0     H79467   4.557   5.314   5.318  1.3932 -0.6861  0.2742
  589MOL0     H79468   4.447   5.192   5.268  0.0997 -0.7798  2.1883
  589MOL0     H79469   4.536   5.045   5.433 -0.2010 -0.6882 -1.1169
  589MOL0     H79470   4.452   5.192   5.503  0.5465  0.1134 -0.4548
  589MOL0     H79471   4.736   5.251   5.511  0.7499 -0.3226 -0.3117
  589MOL0     H79472   4.736   5.091   5.548 -2.0040 -0.8780  2.3648
  589MOL0     H79473   4.725   5.199   5.760 -0.7036  1.1887  0.9586
  589MOL0     H79474   4.579   5.111   5.726 -1.2397 -1.0899 -2.7811
  589MOL0     H79475   4.513   5.529   5.530 -1.7870 -0.8302  2.6463
  589MOL0     H79476   4.494   5.755   5.490  1.0404  1.1808 -0.9002
  589MOL0     H79477   4.634   5.860   5.534  0.9706 -0.2036 -1.2653
  589MOL0     H79478   4.645   5.742   5.398  4.3047 -0.1686 -0.1653
  589MOL0     H79479   4.922   6.006   5.924  0.3990 -0.0219  0.2160
  589MOL0     H79480   5.034   6.184   5.960 -5.1289 -2.8863 -0.4559
  589MOL0     H79481   5.289   6.200   6.054  2.4317 -0.7640 -0.3200
  589MOL0     H79482   5.434   6.287   6.008 -0.0677 -0.7873  1.5803
  589MOL0     H79483   5.327   6.486   5.982 -0.1344  1.0669 -0.3561
  589MOL0     H79484   5.162   6.416   5.987 -0.2946 -2.4129  0.1696
  589MOL0     H79485   5.373   6.443   6.208  0.2054  0.0133  3.1202
  589MOL0     H79486   5.230   6.340   6.236 -0.0747 -0.8533 -0.5815
  589MOL0     H79487   5.222   6.590   6.319  0.2426  5.1135 -1.9395
  589MOL0     H79488   5.221   6.634   6.153  1.4064 -0.0459  1.2244
  589MOL0     H79489   5.029   6.432   6.317  1.6320  1.6135  1.9854
  589MOL0     H79490   4.990   6.485   6.156 -0.9144 -1.5693 -0.1952
  589MOL0     H79491   4.985   6.649   6.415 -1.5993 -2.5662  0.7358
  589MOL0     H79492   4.969   6.730   6.255 -2.1070  0.3345  0.5236
  589MOL0     H79493   4.775   6.610   6.215  2.0671  0.8153  0.0240
  589MOL0     H79494   4.762   6.695   6.366  1.6411  0.5291  0.4510
  589MOL0     H79495   4.787   6.391   6.336 -1.5280 -0.0423 -1.3159
  589MOL0     H79496   4.659   6.476   6.386 -0.2144 -0.3602 -2.5280
  589MOL0     H79497   5.326   6.055   5.656  2.1896  0.7218  2.8879
  589MOL0     H79498   5.182   5.862   5.624 -1.5817 -1.9881  2.2868
  589MOL0     H79499   4.886   5.606   5.847 -2.1222 -1.2848  2.7160
  589MOL0     H79500   4.778   5.406   5.858  0.2080  1.8588 -0.1696
  589MOL0     H79501   5.976   4.955   4.942  1.7994 -3.4504  1.4848
  589MOL0     H79502   6.181   5.040   5.009 -1.2654  2.4731 -1.3288
  589MOL0     H79503   6.454   5.052   5.519 -1.7334 -0.6031 -1.7528
  589MOL0     H79504   6.608   5.171   5.668  3.9012  1.4788 -1.1731
  589MOL0     H79505   6.652   5.606   5.587  1.6008  2.5326  1.5370
  589MOL0     H79506   6.604   5.587   5.755 -0.9942 -2.0179  0.2359
  589MOL0     H79507   6.848   5.657   5.684  0.0433  0.1217  0.6386
  589MOL0     H79508   6.876   5.481   5.670 -1.2213 -1.1153  0.1099
  589MOL0     H79509   6.848   5.442   5.912  1.0124 -0.1018 -1.7684
  589MOL0     H79510   6.747   5.580   5.924 -0.3804 -2.4672  2.3709
  589MOL0     H79511   6.967   5.599   6.029 -2.3165 -1.0382 -0.8080
  589MOL0     H79512   6.912   5.727   5.923 -1.0788  1.1783  0.1145
  589MOL0     H79513   7.277   5.635   5.739 -0.2581  4.6147  0.0798
  589MOL0     H79514   6.470   5.533   5.486  0.2622 -0.2321 -2.4044
  589MOL0     H79515   6.335   5.411   5.334 -0.4024 -0.2191  1.6516
  590MOL0     O79516   0.935  11.283   9.690 -0.4090  0.5506 -0.3733
  590MOL0     C79517   0.980  11.169   9.677  0.2287 -0.8860  1.2892
  590MOL0     O79518   0.937  11.057   9.737  0.1190 -0.1236 -0.3004
  590MOL0     C79519   0.820  11.062   9.803 -0.3512  0.3879  0.1152
  590MOL0     C79520   0.811  11.018   9.937  0.2002 -0.3609 -0.4605
  590MOL0     C79521   0.692  11.014  10.007  0.5603  0.4629  0.4768
  590MOL0     C79522   0.569  11.036   9.938 -0.2698 -0.2460  0.1095
  590MOL0     O79523   0.449  11.032  10.004  0.3827  0.1193 -0.4987
  590MOL0     C79524   0.432  11.034  10.146 -0.0035  0.1770  0.0020
  590MOL0     C79525   0.285  11.058  10.170 -0.6119  0.3567  0.8455
  590MOL0     C79526   0.224  10.983  10.292  0.2852 -0.4721  0.7195
  590MOL0     C79527   0.075  10.986  10.264 -0.3424 -0.0100 -0.4068
  590MOL0     C79528   0.010  10.980  10.405 -0.1330  0.4503  0.0670
  590MOL0     C79529  -0.145  11.002  10.380  0.0064  0.3319 -0.4780
  590MOL0     C79530  -0.214  10.869  10.370  0.4131 -0.3584 -0.0038
  590MOL0     C79531  -0.365  10.879  10.345 -0.7077  0.1209 -0.6820
  590MOL0     N79532  -0.410  10.749  10.307  0.0417 -0.5194 -0.2819
  590MOL0     C79533  -0.413  10.692  10.182  0.4332 -0.4162  0.9984
  590MOL0     C79534  -0.463  10.562  10.193 -0.8570  0.3573  0.0521
  590MOL0     C79535  -0.504  10.460  10.085  0.1037 -0.4220 -0.5235
  590MOL0     C79536  -0.637  10.404  10.115 -0.4966 -0.9900 -0.2957
  590MOL0     C79537  -0.698  10.347   9.989 -0.3370 -0.0356  0.2670
  590MOL0     C79538  -0.838  10.287  10.023  0.5836 -0.5539  0.7786
  590MOL0     O79539  -0.880  10.189   9.937  0.7553 -0.3915  0.5766
  590MOL0     C79540  -1.009  10.151   9.935 -0.6349 -1.0486 -0.4736
  590MOL0     C79541  -1.041  10.021   9.874  0.3563 -1.2950 -0.7013
  590MOL0     C79542  -1.172   9.994   9.842  0.0519 -0.0207 -0.2392
  590MOL0     C79543  -1.202   9.857   9.784  0.5566 -0.2208  0.0046
  590MOL0     C79544  -1.278  10.084   9.884 -0.7800 -0.2326  0.3177
  590MOL0     C79545  -1.417  10.061   9.853  0.0189  0.0221 -0.5819
  590MOL0     O79546  -1.453   9.966   9.754 -0.2818 -0.1534  0.2242
  590MOL0     C79547  -1.581   9.930   9.743  1.0703  0.7667 -0.6410
  590MOL0     C79548  -1.666   9.991   9.653 -0.0207 -0.6021  0.1733
  590MOL0     C79549  -1.800   9.961   9.659  0.2075 -0.8719 -0.3374
  590MOL0     C79550  -1.858   9.853   9.739  0.0991 -0.3242 -0.6567
  590MOL0     O79551  -1.989   9.821   9.744 -0.5002 -0.1609  0.0634
  590MOL0     C79552  -2.065   9.848   9.628 -0.7404  0.2227  0.2713
  590MOL0     C79553  -2.196   9.766   9.618  0.5977 -0.5914  0.4192
  590MOL0     C79554  -2.284   9.783   9.744 -0.2151 -0.1333 -0.1354
  590MOL0     C79555  -2.242   9.696   9.857  1.1139  0.8286 -1.0089
  590MOL0     C79556  -2.362   9.670   9.954 -0.2615  0.1221  0.4228
  590MOL0     C79557  -2.463   9.564   9.910  0.5149  0.0102 -0.0466
  590MOL0     C79558  -2.406   9.427   9.872 -0.6080  0.1539  0.0383
  590MOL0     C79559  -2.525   9.335   9.875 -0.7363  0.3614 -0.7825
  590MOL0    Cl79560  -2.552   9.275  10.049 -0.0699 -0.0850 -0.1678
  590MOL0     C79561  -1.768   9.791   9.828  1.1250 -0.0055  0.0585
  590MOL0     C79562  -1.630   9.815   9.825  0.6510 -1.2040  0.0078
  590MOL0     O79563  -1.502  10.130   9.915 -0.7423 -0.2611 -0.5857
  590MOL0     C79564  -1.245  10.199   9.948  0.1569 -1.1181  0.0451
  590MOL0     C79565  -1.110  10.234   9.971 -0.0312 -0.2584 -0.3858
  590MOL0     N79566  -0.477  10.533  10.333 -0.1532 -0.4083  0.4436
  590MOL0     N79567  -0.463  10.645  10.394 -0.3121 -0.9663 -0.2401
  590MOL0     C79568   0.576  11.074   9.800 -0.3187 -0.0056 -0.5392
  590MOL0     C79569   0.697  11.088   9.735 -0.8494  0.2316  0.2756
  590MOL0     C79570   1.097  11.148   9.585 -0.4620 -0.1932  0.0129
  590MOL0     C79571   1.122  11.017   9.536  0.2463  0.5428 -0.6701
  590MOL0     C79572   1.230  10.988   9.442  0.4264 -0.2684 -0.1804
  590MOL0     C79573   1.308  11.090   9.397 -0.0289  0.4540 -0.3280
  590MOL0     O79574   1.415  11.056   9.314  0.7021 -0.1841 -0.6435
  590MOL0     C79575   1.496  11.163   9.261 -0.3401  0.0727  0.2736
  590MOL0     C79576   1.422  11.239   9.145 -0.6188 -0.7775  0.1035
  590MOL0     C79577   1.511  11.352   9.087  0.4024  0.9275 -0.5689
  590MOL0     C79578   1.437  11.437   8.996  0.6167 -0.3046  0.3481
  590MOL0     C79579   1.521  11.539   8.930  1.2629  0.5288 -0.6047
  590MOL0     C79580   1.581  11.624   8.876  0.3918 -0.4833  0.5823
  590MOL0     C79581   1.283  11.223   9.437  0.8056 -0.0061 -0.5087
  590MOL0     C79582   1.176  11.250   9.531  0.6884  0.0037  0.2414
  590MOL0     H79583   0.891  10.989  10.003  0.1051  2.7587  1.2028
  590MOL0     H79584   0.688  10.997  10.114 -0.9889  0.6191  0.4658
  590MOL0     H79585   0.469  10.940  10.188 -0.6280 -1.4083 -2.7176
  590MOL0     H79586   0.491  11.114  10.191 -0.4812  1.3368 -1.3321
  590MOL0     H79587   0.273  11.166  10.186 -0.0568  0.5461  0.0618
  590MOL0     H79588   0.229  11.045  10.077 -0.5357 -0.0820  0.8610
  590MOL0     H79589   0.274  10.886  10.283  4.0926  1.4428 -1.0376
  590MOL0     H79590   0.254  11.037  10.382 -2.2148  1.1758  0.6858
  590MOL0     H79591   0.040  11.079  10.219 -0.1438  0.2730  0.0113
  590MOL0     H79592   0.038  10.915  10.190 -1.9071  2.3295 -2.0144
  590MOL0     H79593   0.033  10.882  10.447 -2.0247 -0.1098 -0.0775
  590MOL0     H79594   0.043  11.062  10.469  1.3069  0.1950 -0.3202
  590MOL0     H79595  -0.181  11.046  10.473  3.4817  2.4011  0.0887
  590MOL0     H79596  -0.171  11.069  10.297 -0.1677 -0.0550 -0.7389
  590MOL0     H79597  -0.177  10.826  10.276 -0.8923 -0.1056 -0.6499
  590MOL0     H79598  -0.196  10.809  10.460 -1.7201  1.4955  1.7673
  590MOL0     H79599  -0.381  10.957  10.270  3.2154  3.0991  1.1883
  590MOL0     H79600  -0.412  10.919  10.436 -0.9629  4.2659 -2.3914
  590MOL0     H79601  -0.404  10.751  10.091 -1.8679 -4.0844 -1.8453
  590MOL0     H79602  -0.507  10.499   9.984 -0.6721  0.5541 -0.1358
  590MOL0     H79603  -0.441  10.371  10.099 -2.7885 -2.3827  1.2409
  590MOL0     H79604  -0.704  10.484  10.148 -0.6809 -0.5217 -1.7114
  590MOL0     H79605  -0.610  10.332  10.192  1.0338 -1.0342 -0.8313
  590MOL0     H79606  -0.624  10.272   9.958  0.4752  0.7120  0.3615
  590MOL0     H79607  -0.695  10.421   9.909  0.5657 -0.0951  0.2317
  590MOL0     H79608  -0.898  10.377  10.013  1.4998 -0.1924 -3.7957
  590MOL0     H79609  -0.828  10.239  10.121 -1.2944  0.9453  1.7569
  590MOL0     H79610  -0.957   9.961   9.840  0.2451 -2.4688  0.9507
  590MOL0     H79611  -1.108   9.805   9.763  1.0324  1.5277 -2.5526
  590MOL0     H79612  -1.263   9.804   9.857  1.4076 -1.6775 -0.2917
  590MOL0     H79613  -1.257   9.878   9.692  0.0162  2.1107  0.7977
  590MOL0     H79614  -1.633  10.076   9.595 -4.0189 -0.2378 -1.8925
  590MOL0     H79615  -1.867  10.026   9.602 -0.6184 -0.3804  1.1331
  590MOL0     H79616  -2.092   9.954   9.624  1.1076  0.7083 -0.8882
  590MOL0     H79617  -2.010   9.815   9.539  3.0052  1.8375  1.7789
  590MOL0     H79618  -2.244   9.796   9.525  2.7377 -0.4104 -0.7044
  590MOL0     H79619  -2.171   9.660   9.605  1.7902 -0.3416  0.4910
  590MOL0     H79620  -2.379   9.739   9.711 -1.1243  0.4787  1.5686
  590MOL0     H79621  -2.306   9.883   9.782  0.6527 -0.8318  2.4353
  590MOL0     H79622  -2.202   9.600   9.822 -0.2511 -0.6353  1.2498
  590MOL0     H79623  -2.161   9.745   9.911  1.0275 -0.3582  0.2390
  590MOL0     H79624  -2.417   9.764   9.964 -1.7488 -0.4891 -1.3928
  590MOL0     H79625  -2.328   9.655  10.057 -1.6967 -1.2879  0.7255
  590MOL0     H79626  -2.525   9.550   9.999  0.7383  0.8494  0.2513
  590MOL0     H79627  -2.520   9.607   9.827  0.3588 -0.7196 -0.3208
  590MOL0     H79628  -2.317   9.389   9.923  0.7887 -0.2785 -2.5369
  590MOL0     H79629  -2.374   9.434   9.768 -1.2522 -0.3335 -0.1923
  590MOL0     H79630  -2.513   9.243   9.817  1.6216  0.7269 -0.9695
  590MOL0     H79631  -2.620   9.375   9.837 -1.7129  2.4263  3.2536
  590MOL0     H79632  -1.802   9.707   9.888 -0.1918  1.2585  1.1579
  590MOL0     H79633  -1.571   9.745   9.884  0.6994 -2.4006 -1.3931
  590MOL0     H79634  -1.323  10.266   9.982 -1.1675 -2.6790  0.2197
  590MOL0     H79635  -1.082  10.325  10.023  1.9585 -1.7380  1.2840
  590MOL0     H79636   0.481  11.091   9.749 -0.4506 -0.1674 -0.3468
  590MOL0     H79637   0.700  11.111   9.629 -0.3107  1.3441  0.5175
  590MOL0     H79638   1.064  10.932   9.568  3.8014 -1.6538  0.4043
  590MOL0     H79639   1.249  10.891   9.397 -0.4689 -1.0152  1.0047
  590MOL0     H79640   1.534  11.229   9.339  1.0366 -2.6041  2.0153
  590MOL0     H79641   1.582  11.115   9.213 -1.4098  1.4156 -3.2855
  590MOL0     H79642   1.326  11.284   9.170  0.6548  2.1106  0.1157
  590MOL0     H79643   1.403  11.174   9.059 -1.6977 -3.3354  2.1340
  590MOL0     H79644   1.601  11.314   9.039  0.8817  0.8103  0.3934
  590MOL0     H79645   1.543  11.408   9.176  0.2202 -2.0608  1.5250
  590MOL0     H79646   1.354  11.487   9.047 -1.2782 -1.2781 -1.6296
  590MOL0     H79647   1.389  11.373   8.922 -0.0548  2.7316 -2.0602
  590MOL0     H79648   1.616  11.705   8.816 -0.4536  1.4364  2.5367
  590MOL0     H79649   1.331  11.308   9.389 -1.0074 -0.5211 -3.5436
  590MOL0     H79650   1.142  11.352   9.550 -2.1249 -0.7144 -0.5127
  591MOL0     O79651   3.849   2.688   4.024 -0.3907 -0.3572  0.3246
  591MOL0     C79652   3.808   2.722   3.912  0.8607 -0.2465 -0.3391
  591MOL0     O79653   3.855   2.811   3.825  0.5461  0.2210  0.2659
  591MOL0     C79654   3.946   2.912   3.861  0.0929 -0.6034  0.1302
  591MOL0     C79655   4.036   2.952   3.761  0.5313  0.3600  0.1988
  591MOL0     C79656   4.127   3.047   3.789 -0.3224  0.4057 -0.2886
  591MOL0     C79657   4.138   3.116   3.912 -0.6227  0.8911  0.5397
  591MOL0     O79658   4.236   3.208   3.916  0.2944 -0.0254  0.7859
  591MOL0     C79659   4.286   3.245   4.045 -0.1894 -0.2990  0.7758
  591MOL0     C79660   4.380   3.364   4.040 -0.4760  0.4091 -0.6514
  591MOL0     C79661   4.434   3.395   4.176  0.3501  0.8111 -0.7900
  591MOL0     C79662   4.476   3.543   4.177 -0.3014  0.8255  0.3937
  591MOL0     C79663   4.545   3.576   4.307  0.2900  0.1080  1.1073
  591MOL0     C79664   4.583   3.730   4.318 -0.7073 -0.0289  0.0440
  591MOL0     C79665   4.669   3.776   4.209 -0.1258  0.4910  0.1089
  591MOL0     C79666   4.700   3.929   4.203 -0.1726 -0.0825 -0.6298
  591MOL0     N79667   4.594   4.019   4.163  0.7947  0.2678  0.1221
  591MOL0     C79668   4.466   4.029   4.223 -0.1967  0.3095 -0.8294
  591MOL0     C79669   4.398   4.097   4.139 -0.2531 -0.4049  0.6375
  591MOL0     C79670   4.260   4.136   4.162  0.1793 -0.0957  0.2545
  591MOL0     C79671   4.150   4.028   4.129 -0.1901 -0.0730  0.2315
  591MOL0     C79672   4.158   3.906   4.222  0.5608 -0.4041  1.1594
  591MOL0     C79673   4.022   3.830   4.222 -0.2248  0.1192 -0.7232
  591MOL0     O79674   3.921   3.891   4.320 -0.0001 -0.0589  0.1895
  591MOL0     C79675   3.853   3.802   4.399  0.5091 -0.6833 -0.7591
  591MOL0     C79676   3.863   3.795   4.539 -0.2346 -0.5468  0.5925
  591MOL0     C79677   3.785   3.717   4.626 -0.0803 -0.6546  0.1218
  591MOL0     C79678   3.812   3.723   4.770 -0.1690 -0.3433 -0.3537
  591MOL0     C79679   3.674   3.646   4.558 -0.0130  0.1139 -0.1977
  591MOL0     C79680   3.576   3.568   4.631  0.2212 -0.3346  0.2664
  591MOL0     O79681   3.453   3.572   4.562  0.6168 -0.3035 -0.3510
  591MOL0     C79682   3.341   3.498   4.588  0.2525  0.0170  0.7967
  591MOL0     C79683   3.221   3.556   4.559  0.7650 -0.7883  1.0986
  591MOL0     C79684   3.097   3.494   4.585  0.2407  0.2176  0.2698
  591MOL0     C79685   3.098   3.365   4.636  0.7317  1.0150 -0.9309
  591MOL0     O79686   2.988   3.290   4.666  0.8268 -0.1540  0.5980
  591MOL0     C79687   2.856   3.353   4.678 -0.0194 -0.0202  1.5935
  591MOL0     C79688   2.857   3.442   4.798 -0.1143  0.9283 -0.8861
  591MOL0     C79689   2.708   3.487   4.837  0.1389  0.0589  0.3818
  591MOL0     C79690   2.703   3.586   4.944  0.1589 -0.1074  0.3890
  591MOL0     C79691   2.600   3.703   4.928  0.6875  0.7017  0.6624
  591MOL0     C79692   2.456   3.648   4.959 -0.1110  0.5722 -0.4454
  591MOL0     C79693   2.343   3.754   4.908  0.8493 -0.4596 -0.2832
  591MOL0     C79694   2.199   3.737   4.961  0.1089 -0.1341  0.1372
  591MOL0    Cl79695   2.087   3.638   4.855 -0.5261 -0.0818 -0.1108
  591MOL0     C79696   3.215   3.303   4.668 -1.0165  0.8063  0.5245
  591MOL0     C79697   3.342   3.367   4.646  0.5043  0.5954  0.3836
  591MOL0     O79698   3.595   3.497   4.731 -0.8383  0.7355  0.2161
  591MOL0     C79699   3.658   3.657   4.418  0.2685  0.4622  0.8989
  591MOL0     C79700   3.741   3.737   4.344 -0.3269 -0.2525  0.0251
  591MOL0     N79701   4.475   4.127   4.032 -0.1296  0.5391 -0.4842
  591MOL0     N79702   4.592   4.085   4.047 -0.0927  0.0573 -0.8695
  591MOL0     C79703   4.039   3.079   4.009 -0.1848  0.1191 -0.6092
  591MOL0     C79704   3.951   2.977   3.987 -0.4203 -0.9427 -0.3989
  591MOL0     C79705   3.700   2.634   3.862 -1.0908  0.3458  0.6048
  591MOL0     C79706   3.651   2.526   3.938  0.5079  0.4641  0.0255
  591MOL0     C79707   3.542   2.455   3.889  0.0509 -0.0702  0.2498
  591MOL0     C79708   3.483   2.475   3.767  0.0450  0.7380  0.7521
  591MOL0     O79709   3.373   2.395   3.729 -0.4829 -0.4192  0.2672
  591MOL0     C79710   3.303   2.426   3.609  0.5104 -0.0589  0.2202
  591MOL0     C79711   3.183   2.330   3.600 -0.2297  0.5494 -0.1091
  591MOL0     C79712   3.077   2.352   3.706 -0.6669  0.9008  0.9222
  591MOL0     C79713   2.956   2.261   3.683  0.0050 -0.1982  0.9219
  591MOL0     C79714   2.841   2.316   3.761  0.2485  0.1106 -0.1564
  591MOL0     C79715   2.744   2.364   3.821 -0.1725  0.0473  0.3643
  591MOL0     C79716   3.545   2.569   3.679  0.3139  0.3100  0.2516
  591MOL0     C79717   3.642   2.659   3.734  0.2385 -0.3367  0.6330
  591MOL0     H79718   4.033   2.916   3.659 -1.3596  0.3339  0.2327
  591MOL0     H79719   4.183   3.083   3.703 -0.2845  2.9467  0.7013
  591MOL0     H79720   4.194   3.265   4.100 -1.9184 -2.4109 -1.1523
  591MOL0     H79721   4.338   3.158   4.085 -2.4367 -3.3322 -2.3038
  591MOL0     H79722   4.470   3.340   3.982  1.9442 -2.7209  3.8588
  591MOL0     H79723   4.330   3.455   4.005 -0.4575  0.9873  0.7891
  591MOL0     H79724   4.361   3.376   4.255  0.5742 -3.0089 -1.3112
  591MOL0     H79725   4.523   3.334   4.194 -0.5691  0.3795  3.2005
  591MOL0     H79726   4.530   3.574   4.088  2.5248  2.9513  2.6410
  591MOL0     H79727   4.380   3.595   4.186 -1.3744 -0.5752 -2.0275
  591MOL0     H79728   4.477   3.556   4.390 -1.5383  3.7178  0.6646
  591MOL0     H79729   4.634   3.513   4.319  0.9088  0.7880  0.2127
  591MOL0     H79730   4.488   3.784   4.324 -0.2762  0.7100  0.3935
  591MOL0     H79731   4.632   3.739   4.416 -1.7049 -2.3635  0.8140
  591MOL0     H79732   4.768   3.729   4.207  0.6635  2.0840 -0.1293
  591MOL0     H79733   4.615   3.750   4.117  1.3125 -0.1289 -0.5924
  591MOL0     H79734   4.778   3.932   4.128 -0.2917  1.0538 -0.7240
  591MOL0     H79735   4.745   3.964   4.296  1.1467  1.6278 -1.8664
  591MOL0     H79736   4.439   3.993   4.322  0.7326  0.6520 -0.4414
  591MOL0     H79737   4.255   4.169   4.267 -0.3286  2.3560 -0.4869
  591MOL0     H79738   4.240   4.229   4.109 -1.5159 -0.5465  0.0428
  591MOL0     H79739   4.165   3.998   4.025  4.6213  0.9910  0.3603
  591MOL0     H79740   4.044   4.055   4.136 -0.6175 -1.8334  1.4469
  591MOL0     H79741   4.184   3.946   4.320  2.1901  0.8512  0.2807
  591MOL0     H79742   4.242   3.845   4.189  0.1257 -0.8026  0.7715
  591MOL0     H79743   4.043   3.729   4.257  2.5917 -0.2667 -3.1411
  591MOL0     H79744   3.987   3.821   4.119  0.5234 -3.3497 -0.7655
  591MOL0     H79745   3.937   3.855   4.591 -1.4616 -0.1675  1.9593
  591MOL0     H79746   3.712   3.722   4.815 -1.1030 -2.3873 -2.2567
  591MOL0     H79747   3.858   3.628   4.802 -0.8374 -0.8532 -0.8742
  591MOL0     H79748   3.861   3.811   4.811 -1.2629  0.3803 -0.5598
  591MOL0     H79749   3.213   3.652   4.508 -2.4477 -1.7526 -0.4414
  591MOL0     H79750   3.000   3.532   4.552  0.5649  0.2931 -0.6310
  591MOL0     H79751   2.827   3.407   4.589  0.2995 -1.0142  0.8658
  591MOL0     H79752   2.777   3.280   4.699 -2.1034  1.9844  0.9797
  591MOL0     H79753   2.919   3.401   4.879 -1.4590  2.3106  0.9417
  591MOL0     H79754   2.913   3.533   4.775 -1.5712  1.8041 -1.1234
  591MOL0     H79755   2.644   3.402   4.861 -2.4280  1.4126 -1.1988
  591MOL0     H79756   2.663   3.534   4.749  2.3859  2.4234  0.3600
  591MOL0     H79757   2.682   3.528   5.034  2.2064  0.2352  1.1315
  591MOL0     H79758   2.806   3.623   4.952  1.0749 -2.3917 -0.1877
  591MOL0     H79759   2.594   3.753   4.831 -1.2683  1.4122  1.0942
  591MOL0     H79760   2.623   3.779   5.003 -1.9577  0.3805  1.9441
  591MOL0     H79761   2.448   3.551   4.910  1.2941  0.2554 -0.0788
  591MOL0     H79762   2.443   3.630   5.066  0.4016  2.9542  0.0715
  591MOL0     H79763   2.341   3.743   4.799  1.1039 -1.9660 -0.1644
  591MOL0     H79764   2.377   3.855   4.930  2.0401 -1.4897  3.2150
  591MOL0     H79765   2.147   3.831   4.980 -1.3001 -1.2714  2.3458
  591MOL0     H79766   2.192   3.682   5.056  0.1024 -0.8876 -0.2928
  591MOL0     H79767   3.201   3.200   4.700  2.8099 -0.3272 -0.8410
  591MOL0     H79768   3.435   3.318   4.674 -0.8645 -2.1560  0.3837
  591MOL0     H79769   3.583   3.606   4.359 -1.9482  1.3695  2.7607
  591MOL0     H79770   3.716   3.754   4.239 -0.8519 -3.0448 -0.3764
  591MOL0     H79771   4.041   3.126   4.107 -2.0590  1.5618 -1.2052
  591MOL0     H79772   3.890   2.955   4.074  1.6696 -0.9390  1.1586
  591MOL0     H79773   3.694   2.504   4.035  0.8186  0.6172 -0.0774
  591MOL0     H79774   3.501   2.384   3.960 -0.4300  1.1482  1.2228
  591MOL0     H79775   3.272   2.531   3.605 -0.7242 -0.3329  1.7118
  591MOL0     H79776   3.364   2.399   3.522  2.0240 -2.4293  1.9004
  591MOL0     H79777   3.220   2.228   3.617 -3.4013 -0.9427 -1.4280
  591MOL0     H79778   3.141   2.328   3.499 -1.1561 -0.5162  0.2854
  591MOL0     H79779   3.051   2.458   3.699  0.2124  1.2590  2.5941
  591MOL0     H79780   3.109   2.334   3.809  1.2054  0.1972  0.2649
  591MOL0     H79781   2.971   2.159   3.719  0.4531 -2.0421 -3.8172
  591MOL0     H79782   2.925   2.238   3.581 -0.2222 -3.1948  1.5869
  591MOL0     H79783   2.665   2.402   3.882  0.4437 -1.9735  2.5491
  591MOL0     H79784   3.523   2.569   3.573  0.7971  0.7164  0.1461
  591MOL0     H79785   3.677   2.736   3.667  0.8204 -3.2145 -2.6330
  592MOL0     O79786   6.788   2.978   2.773  0.0124  0.4046 -0.4376
  592MOL0     C79787   6.681   2.978   2.827 -0.0930  0.1626 -0.7145
  592MOL0     O79788   6.559   3.013   2.770 -0.1851  0.4340  0.4443
  592MOL0     C79789   6.558   3.062   2.643  0.4764  0.1699 -0.3341
  592MOL0     C79790   6.629   3.175   2.610 -0.3862  0.9000  0.3219
  592MOL0     C79791   6.614   3.242   2.483  0.1197 -1.0903  0.3254
  592MOL0     C79792   6.540   3.174   2.386  1.2611 -0.6883  0.5093
  592MOL0     O79793   6.511   3.239   2.266  0.0206 -0.4315 -0.3323
  592MOL0     C79794   6.475   3.163   2.150  0.0515 -0.3688 -0.5039
  592MOL0     C79795   6.417   3.250   2.041  0.9306  0.2950  0.4900
  592MOL0     C79796   6.323   3.358   2.090 -0.2895  0.4392  0.0267
  592MOL0     C79797   6.259   3.413   1.961  0.4399 -0.0298  0.0034
  592MOL0     C79798   6.114   3.470   1.986  0.7530  0.2140  0.0958
  592MOL0     C79799   6.019   3.352   1.988  0.2993  0.7623 -0.2883
  592MOL0     C79800   5.875   3.386   2.026  0.0317  0.0424 -1.6164
  592MOL0     C79801   5.768   3.278   2.001 -0.1862 -0.0031  0.2965
  592MOL0     N79802   5.717   3.309   1.865  0.1883 -0.4344  0.1264
  592MOL0     C79803   5.617   3.398   1.833  0.3492 -0.2252  0.2110
  592MOL0     C79804   5.582   3.384   1.700  0.8668 -0.0569 -0.1556
  592MOL0     C79805   5.472   3.474   1.646 -0.2312 -0.2424  0.0347
  592MOL0     C79806   5.335   3.421   1.673  0.0764  0.9287 -0.6333
  592MOL0     C79807   5.288   3.308   1.580 -0.1374  0.0091  1.0669
  592MOL0     C79808   5.136   3.258   1.598 -0.3631  0.2133 -0.0420
  592MOL0     O79809   5.062   3.359   1.534 -0.0627  0.1148  0.0916
  592MOL0     C79810   4.931   3.339   1.518  0.0327 -0.0968 -1.0193
  592MOL0     C79811   4.866   3.400   1.418  0.2465 -0.0852  0.4670
  592MOL0     C79812   4.729   3.398   1.399  0.4354  0.0940 -0.3390
  592MOL0     C79813   4.666   3.449   1.267 -0.1208 -0.4637  0.1934
  592MOL0     C79814   4.655   3.337   1.498 -0.0312  0.1613 -0.5759
  592MOL0     C79815   4.505   3.315   1.492 -0.5071 -0.1596 -0.6932
  592MOL0     O79816   4.439   3.286   1.377  0.2449  0.3925  0.0827
  592MOL0     C79817   4.305   3.290   1.378 -0.6879 -0.4538  0.9993
  592MOL0     C79818   4.237   3.172   1.374 -0.1315  0.9750  0.6189
  592MOL0     C79819   4.103   3.160   1.380 -0.0861 -0.2056  0.0062
  592MOL0     C79820   4.025   3.279   1.392  0.1061  0.3943  0.3015
  592MOL0     O79821   3.888   3.272   1.392  0.0137  0.0618  0.5743
  592MOL0     C79822   3.827   3.162   1.455  0.1260 -0.1868  0.4124
  592MOL0     C79823   3.688   3.205   1.496 -0.7375  0.4691 -0.6090
  592MOL0     C79824   3.581   3.098   1.522 -0.0887 -0.7582 -0.3791
  592MOL0     C79825   3.553   3.009   1.399 -1.0997 -0.9630  0.4531
  592MOL0     C79826   3.506   3.092   1.271  0.0738 -0.3457  0.0172
  592MOL0     C79827   3.483   2.994   1.169  0.4686 -0.1333  0.2489
  592MOL0     C79828   3.443   3.068   1.041  0.0859 -0.6588 -0.2412
  592MOL0     C79829   3.385   2.983   0.922 -0.0035  0.0357 -0.9658
  592MOL0    Cl79830   3.264   2.852   0.971  0.1073 -0.1174 -0.7210
  592MOL0     C79831   4.093   3.402   1.380 -0.6548 -0.7885  0.4941
  592MOL0     C79832   4.229   3.409   1.366 -0.3980 -0.3180 -0.0357
  592MOL0     O79833   4.450   3.316   1.605  0.1911 -0.3073 -0.3954
  592MOL0     C79834   4.721   3.273   1.605 -0.1533  0.5752  0.1432
  592MOL0     C79835   4.859   3.275   1.616 -0.3162 -0.2053 -0.2282
  592MOL0     N79836   5.661   3.282   1.647  0.2312 -0.1541  0.1471
  592MOL0     N79837   5.734   3.236   1.749 -0.2899 -0.1524  0.4133
  592MOL0     C79838   6.478   3.053   2.424 -0.1492  0.3874  0.9316
  592MOL0     C79839   6.479   3.000   2.557  1.1444  0.2291  0.9642
  592MOL0     C79840   6.680   2.934   2.964  0.1235  0.7654 -1.0564
  592MOL0     C79841   6.799   2.923   3.035 -0.1209 -0.2361 -1.2177
  592MOL0     C79842   6.799   2.901   3.173  0.3314  0.7255 -0.0986
  592MOL0     C79843   6.681   2.882   3.246  1.6825  0.2630 -0.5325
  592MOL0     O79844   6.658   2.859   3.387 -0.5291  0.2610  0.2858
  592MOL0     C79845   6.768   2.789   3.457  0.4694  0.2142  0.2017
  592MOL0     C79846   6.768   2.638   3.430  0.3774 -0.1385  0.6369
  592MOL0     C79847   6.855   2.564   3.528 -0.3151  0.5074 -0.4354
  592MOL0     C79848   6.872   2.409   3.499  0.2086  0.5212 -0.2213
  592MOL0     C79849   6.746   2.349   3.565 -0.4237 -0.1650  0.6507
  592MOL0     C79850   6.661   2.284   3.625  0.4019  0.0428  0.0878
  592MOL0     C79851   6.566   2.877   3.168 -0.6145 -0.6242  0.1586
  592MOL0     C79852   6.565   2.902   3.027 -0.2152 -0.3574  0.1971
  592MOL0     H79853   6.683   3.232   2.685  1.8618 -0.7726  0.1127
  592MOL0     H79854   6.662   3.335   2.455 -3.6351  0.9704  0.0233
  592MOL0     H79855   6.565   3.112   2.115 -0.1829 -1.3059  0.2065
  592MOL0     H79856   6.399   3.086   2.169 -0.6797  0.7585  1.3857
  592MOL0     H79857   6.502   3.298   1.994  0.7982  0.9259  0.8832
  592MOL0     H79858   6.361   3.187   1.970 -5.3986  3.1804  2.1528
  592MOL0     H79859   6.247   3.313   2.154  1.8762 -0.5923  2.0493
  592MOL0     H79860   6.383   3.435   2.139 -0.6834  0.4132  0.5505
  592MOL0     H79861   6.323   3.496   1.931  1.8015 -1.6425 -1.8728
  592MOL0     H79862   6.259   3.343   1.876 -0.7520 -0.1154  0.0528
  592MOL0     H79863   6.111   3.524   2.081  1.3166  1.0391 -0.3394
  592MOL0     H79864   6.093   3.537   1.902 -0.2419  1.1872  1.0857
  592MOL0     H79865   6.019   3.310   1.887  1.6238 -1.3441  0.5166
  592MOL0     H79866   6.041   3.268   2.055  0.0045 -1.0636 -2.3319
  592MOL0     H79867   5.870   3.394   2.135 -0.1596 -4.0214 -1.1573
  592MOL0     H79868   5.844   3.478   1.977  0.7619  0.3217 -1.5721
  592MOL0     H79869   5.694   3.282   2.082 -0.3448  1.2802  0.1123
  592MOL0     H79870   5.810   3.177   2.004  0.5180  0.1847 -1.6740
  592MOL0     H79871   5.572   3.477   1.892  1.0072  0.6009 -0.3576
  592MOL0     H79872   5.481   3.574   1.687  0.3313 -0.2116 -0.1588
  592MOL0     H79873   5.487   3.477   1.538 -2.2692  0.5182 -0.2689
  592MOL0     H79874   5.256   3.497   1.674 -2.1916 -1.0836  4.0014
  592MOL0     H79875   5.333   3.391   1.778  0.8167  1.4519 -0.4602
  592MOL0     H79876   5.359   3.228   1.599  0.5411  0.3058 -0.1549
  592MOL0     H79877   5.299   3.336   1.475 -1.4726 -5.3697 -0.8332
  592MOL0     H79878   5.110   3.246   1.704  1.4721 -5.0908  0.1308
  592MOL0     H79879   5.125   3.161   1.548  3.3121  0.2920 -1.3075
  592MOL0     H79880   4.916   3.448   1.334 -1.8999  1.6191  0.0498
  592MOL0     H79881   4.734   3.531   1.242 -1.3670  1.1176  1.7252
  592MOL0     H79882   4.660   3.370   1.192  0.8011 -1.9874  1.6345
  592MOL0     H79883   4.562   3.479   1.279 -0.6945 -1.9548 -0.7911
  592MOL0     H79884   4.296   3.081   1.370 -0.3259  0.8428  0.7432
  592MOL0     H79885   4.060   3.061   1.385 -1.0031  0.2442  2.3385
  592MOL0     H79886   3.818   3.071   1.395  1.1462 -0.9417  1.3517
  592MOL0     H79887   3.884   3.147   1.547 -1.6759 -2.9357  1.2202
  592MOL0     H79888   3.692   3.259   1.591 -0.0760  0.8907 -0.8700
  592MOL0     H79889   3.658   3.275   1.418 -0.0763 -0.4606 -1.7246
  592MOL0     H79890   3.490   3.148   1.558  0.2587 -1.5554  1.8070
  592MOL0     H79891   3.597   3.028   1.605  1.1614 -1.7681 -1.4431
  592MOL0     H79892   3.639   2.944   1.383  0.1805  0.5048  1.1353
  592MOL0     H79893   3.480   2.930   1.418 -0.7559 -1.4787 -0.3572
  592MOL0     H79894   3.588   3.161   1.249  1.3376 -0.4380  3.7554
  592MOL0     H79895   3.413   3.148   1.288  0.2979  0.2809 -0.7419
  592MOL0     H79896   3.569   2.930   1.146 -0.0376 -0.1300 -1.9214
  592MOL0     H79897   3.398   2.938   1.210  1.6023 -1.6900  0.5434
  592MOL0     H79898   3.526   3.130   1.008 -3.0794  3.5797 -1.1671
  592MOL0     H79899   3.374   3.148   1.070  3.3264  2.2514  0.1153
  592MOL0     H79900   3.471   2.922   0.891 -1.2475 -1.6122 -1.3497
  592MOL0     H79901   3.360   3.047   0.838  1.2397  3.2328  0.9442
  592MOL0     H79902   4.053   3.503   1.382  2.6072  0.6772  3.0164
  592MOL0     H79903   4.277   3.506   1.370 -1.6462  0.2909  0.4257
  592MOL0     H79904   4.675   3.218   1.686  1.4182  3.2505  3.0350
  592MOL0     H79905   4.903   3.219   1.698  0.0934  0.4077 -0.0259
  592MOL0     H79906   6.417   2.995   2.355  1.9371 -1.1442  0.2631
  592MOL0     H79907   6.417   2.913   2.577 -1.3981  1.0796 -2.2513
  592MOL0     H79908   6.890   2.962   2.991 -0.5677 -1.2588 -3.1397
  592MOL0     H79909   6.895   2.904   3.223 -0.4587 -1.7851  1.7726
  592MOL0     H79910   6.873   2.819   3.449  0.5130 -0.2545 -1.4833
  592MOL0     H79911   6.737   2.796   3.562 -2.4659  0.5069 -0.5883
  592MOL0     H79912   6.798   2.619   3.326 -0.4979  1.7786 -0.0176
  592MOL0     H79913   6.673   2.586   3.443 -0.2401  0.3249 -1.5233
  592MOL0     H79914   6.816   2.578   3.629 -0.9476  1.2055 -0.7679
  592MOL0     H79915   6.954   2.610   3.532  0.0338 -0.3145  1.6527
  592MOL0     H79916   6.964   2.374   3.547  0.1463 -0.3321 -0.6976
  592MOL0     H79917   6.886   2.387   3.393  0.3197  0.6785 -0.2395
  592MOL0     H79918   6.579   2.241   3.679 -0.5390  0.1291 -1.2198
  592MOL0     H79919   6.470   2.859   3.217  0.3626 -0.6336  2.1475
  592MOL0     H79920   6.473   2.905   2.970 -0.6554 -2.6271  0.7004
  593MOL0     O79921  10.806   3.909   8.788 -0.0631 -0.3096 -0.2020
  593MOL0     C79922  10.789   3.894   8.671 -0.5464 -0.0108  1.0798
  593MOL0     O79923  10.712   3.973   8.594  0.5959 -0.7733  0.0011
  593MOL0     C79924  10.678   4.095   8.643 -0.4124  0.1028  0.1660
  593MOL0     C79925  10.541   4.131   8.663 -0.3406 -0.6656 -0.1941
  593MOL0     C79926  10.506   4.259   8.707  0.1046 -0.7728  0.0562
  593MOL0     C79927  10.608   4.362   8.713  0.2645  0.1488 -0.4404
  593MOL0     O79928  10.559   4.486   8.739  0.4557 -0.0558 -0.7454
  593MOL0     C79929  10.624   4.605   8.700 -0.7318  0.5199 -1.4510
  593MOL0     C79930  10.528   4.724   8.703  0.3438 -0.8297  0.8073
  593MOL0     C79931  10.414   4.704   8.596  0.1070 -0.7547 -0.7090
  593MOL0     C79932  10.312   4.818   8.595  0.6678 -0.0879  0.5107
  593MOL0     C79933  10.198   4.797   8.497 -0.2151  0.0891  0.3052
  593MOL0     C79934  10.159   4.919   8.417  0.1637 -0.2365  0.1071
  593MOL0     C79935  10.084   5.026   8.495  1.3413  0.2267 -0.3467
  593MOL0     C79936   9.955   4.990   8.579  0.1206  0.2891  0.2460
  593MOL0     N79937   9.856   4.916   8.506  0.3387 -0.0311 -0.0284
  593MOL0     C79938   9.778   4.957   8.394  0.5921  0.1147  0.0198
  593MOL0     C79939   9.720   4.849   8.348  0.6590 -0.6656  0.2731
  593MOL0     C79940   9.621   4.850   8.234  0.0843 -0.8054 -0.0304
  593MOL0     C79941   9.480   4.893   8.278  0.2254  0.2359 -0.1217
  593MOL0     C79942   9.442   4.802   8.392 -0.4068  0.0628  0.0329
  593MOL0     C79943   9.297   4.804   8.438 -0.3534 -0.7253  0.1369
  593MOL0     O79944   9.262   4.939   8.440  0.8399 -0.0465  0.8659
  593MOL0     C79945   9.122   4.956   8.422 -1.5221  0.0290  0.7663
  593MOL0     C79946   9.077   5.083   8.391 -0.8657  0.2620 -0.6010
  593MOL0     C79947   8.944   5.125   8.394 -0.7792  0.1917  0.2425
  593MOL0     C79948   8.906   5.267   8.344 -0.0004  0.0833  0.8989
  593MOL0     C79949   8.846   5.028   8.438 -0.2040 -0.4991 -0.1551
  593MOL0     C79950   8.703   5.060   8.458 -0.6469  0.3056 -0.2476
  593MOL0     O79951   8.612   4.956   8.450 -0.0484 -0.1812  0.1075
  593MOL0     C79952   8.476   4.983   8.442 -0.3645  0.7799 -0.1254
  593MOL0     C79953   8.402   4.944   8.330  0.5609 -0.6700  0.1960
  593MOL0     C79954   8.262   4.960   8.330  0.0382 -0.5928  0.7074
  593MOL0     C79955   8.198   5.032   8.432  0.5092 -0.5357 -0.8570
  593MOL0     O79956   8.062   5.069   8.417  0.5518  0.5242 -0.6321
  593MOL0     C79957   7.995   5.103   8.544 -0.7754 -1.0385 -0.1040
  593MOL0     C79958   7.855   5.140   8.527  0.4864 -0.3327 -0.2769
  593MOL0     C79959   7.767   5.022   8.487 -0.6861  0.7699  0.2065
  593MOL0     C79960   7.631   5.064   8.444 -0.4186 -0.6536 -0.6203
  593MOL0     C79961   7.549   4.938   8.392 -0.0656 -0.1049  0.0742
  593MOL0     C79962   7.412   4.985   8.346 -0.7051  0.1295 -1.0712
  593MOL0     C79963   7.334   4.895   8.257  0.2485  0.0701  0.4956
  593MOL0     C79964   7.190   4.950   8.235 -0.3108 -0.3362  0.5450
  593MOL0    Cl79965   7.091   4.844   8.117 -0.4504 -0.1719  0.1261
  593MOL0     C79966   8.280   5.078   8.539  0.5765  0.6112 -0.4572
  593MOL0     C79967   8.421   5.059   8.543  0.6179  1.1980  0.3508
  593MOL0     O79968   8.675   5.168   8.492  0.1778 -0.5693 -0.6458
  593MOL0     C79969   8.889   4.897   8.465  0.0793 -0.4985 -0.5367
  593MOL0     C79970   9.028   4.864   8.468  0.6534  0.5872 -0.2550
  593MOL0     N79971   9.757   4.750   8.427  0.1490  0.2739 -0.4696
  593MOL0     N79972   9.842   4.778   8.517  0.0927 -0.2394 -0.0285
  593MOL0     C79973  10.739   4.330   8.682 -0.5376 -0.6381 -0.6781
  593MOL0     C79974  10.771   4.199   8.653 -0.1875  1.1252 -0.4309
  593MOL0     C79975  10.855   3.785   8.601 -1.0575 -0.3285  0.5771
  593MOL0     C79976  10.934   3.685   8.665  0.2486 -0.2355 -0.2799
  593MOL0     C79977  10.996   3.576   8.607 -0.2724  0.4128 -0.2482
  593MOL0     C79978  10.989   3.562   8.476  0.5059 -0.0395  0.2424
  593MOL0     O79979  11.072   3.474   8.411  0.0230  0.0217  0.1357
  593MOL0     C79980  11.197   3.529   8.361 -0.5258  0.4322 -0.7103
  593MOL0     C79981  11.207   3.578   8.209  0.4238 -0.2906 -0.0294
  593MOL0     C79982  11.216   3.475   8.105 -0.4668  0.1529  0.4809
  593MOL0     C79983  11.221   3.539   7.963  0.6012  0.0717 -0.7072
  593MOL0     C79984  11.264   3.440   7.855  0.4871  0.2401 -0.4668
  593MOL0     C79985  11.295   3.363   7.762 -0.1483 -0.2907 -0.7794
  593MOL0     C79986  10.915   3.654   8.394 -0.6087  0.7895 -0.3100
  593MOL0     C79987  10.850   3.768   8.462 -0.4225 -0.4038 -0.4611
  593MOL0     H79988  10.459   4.063   8.647  0.9672 -1.8692 -2.1881
  593MOL0     H79989  10.405   4.294   8.721  0.0682  0.1928 -2.1868
  593MOL0     H79990  10.708   4.631   8.765 -0.6767  0.6731 -1.5823
  593MOL0     H79991  10.669   4.600   8.601  1.7509  3.4088 -0.6188
  593MOL0     H79992  10.472   4.735   8.796 -2.5412 -1.6069 -0.6856
  593MOL0     H79993  10.570   4.821   8.674 -2.7060 -0.2239 -2.3664
  593MOL0     H79994  10.445   4.688   8.492 -0.6096  0.0533 -1.0614
  593MOL0     H79995  10.369   4.605   8.609  2.0178 -1.4826  0.8645
  593MOL0     H79996  10.263   4.815   8.693 -1.4830 -1.7396 -0.5450
  593MOL0     H79997  10.359   4.916   8.583  0.1115 -0.0420 -1.6998
  593MOL0     H79998  10.228   4.721   8.424 -1.3643 -0.8441  0.7773
  593MOL0     H79999  10.111   4.755   8.548 -0.2389  1.0065  1.0379
  593MOL0     H80000  10.246   4.963   8.368 -0.4599 -1.3476 -2.1605
  593MOL0     H80001  10.087   4.872   8.349 -1.0057 -2.2296  2.5536
  593MOL0     H80002  10.148   5.084   8.563  1.8214 -0.6734 -0.0017
  593MOL0     H80003  10.050   5.082   8.408  2.3205 -0.1225 -0.9765
  593MOL0     H80004   9.910   5.084   8.614  0.5596  0.4179  0.4861
  593MOL0     H80005   9.983   4.919   8.657 -2.9561  0.3671  1.5449
  593MOL0     H80006   9.785   5.059   8.358  3.0271 -0.3889 -1.1819
  593MOL0     H80007   9.654   4.924   8.161  4.1100 -0.7704  1.5903
  593MOL0     H80008   9.615   4.747   8.199  0.1546 -1.1041  0.8166
  593MOL0     H80009   9.408   4.886   8.196  0.3896 -1.6604 -0.1455
  593MOL0     H80010   9.482   4.995   8.318 -2.4421 -0.1460  1.1404
  593MOL0     H80011   9.498   4.823   8.483 -1.9602  1.4500  0.7227
  593MOL0     H80012   9.462   4.698   8.365  0.2458 -0.5040  2.4724
  593MOL0     H80013   9.303   4.771   8.542  2.5947  2.8212  1.3090
  593MOL0     H80014   9.240   4.743   8.367  0.0508  1.0297 -1.7740
  593MOL0     H80015   9.158   5.152   8.366  0.0427 -0.3508  0.5735
  593MOL0     H80016   8.813   5.275   8.288  0.8160 -0.1666 -0.5565
  593MOL0     H80017   8.909   5.342   8.424  2.0856  0.1545  0.8118
  593MOL0     H80018   8.990   5.289   8.277 -1.5751  2.0860 -0.5199
  593MOL0     H80019   8.435   4.900   8.237  0.9383 -1.5079  0.7132
  593MOL0     H80020   8.201   4.939   8.243  0.3742  1.7602 -0.1610
  593MOL0     H80021   8.008   5.022   8.617  2.4062  1.2411  2.1513
  593MOL0     H80022   8.047   5.187   8.591  2.7891 -4.3664  2.5166
  593MOL0     H80023   7.823   5.194   8.616  2.1846  0.3665 -0.0401
  593MOL0     H80024   7.860   5.218   8.451  0.7745  2.7808  2.6945
  593MOL0     H80025   7.761   4.948   8.566 -4.0969 -1.1851 -1.6370
  593MOL0     H80026   7.814   4.966   8.405  0.7220  1.5802  0.4425
  593MOL0     H80027   7.584   5.128   8.519  3.5887  1.8292  0.0480
  593MOL0     H80028   7.650   5.120   8.353 -0.4095 -2.2765 -1.6572
  593MOL0     H80029   7.547   4.857   8.466 -2.1532 -0.4131 -0.2447
  593MOL0     H80030   7.613   4.911   8.308  0.4225 -2.6751  1.1815
  593MOL0     H80031   7.348   5.004   8.432 -0.5657 -1.5098 -0.5782
  593MOL0     H80032   7.423   5.079   8.292  1.4358  0.5038 -0.0930
  593MOL0     H80033   7.334   4.795   8.302 -1.4955 -0.9208 -1.5090
  593MOL0     H80034   7.383   4.883   8.160  1.8851 -0.7485  1.3818
  593MOL0     H80035   7.181   5.049   8.191 -1.6741 -0.2097  1.0782
  593MOL0     H80036   7.146   4.965   8.334  2.5355  3.4402  1.4926
  593MOL0     H80037   8.244   5.134   8.625 -1.5305  0.8085 -1.4020
  593MOL0     H80038   8.481   5.103   8.622 -1.7969  3.2374  1.1691
  593MOL0     H80039   8.824   4.822   8.510 -1.2276 -0.9064 -2.9623
  593MOL0     H80040   9.059   4.766   8.503  0.6296  1.1056  1.2604
  593MOL0     H80041  10.809   4.411   8.696 -2.2371  0.6320  0.9328
  593MOL0     H80042  10.877   4.185   8.634 -0.2057  1.9644 -1.2015
  593MOL0     H80043  10.949   3.702   8.771  2.2791  4.4805 -1.0951
  593MOL0     H80044  11.061   3.508   8.661  3.1077  1.3606 -2.7989
  593MOL0     H80045  11.217   3.613   8.428 -3.1227 -1.1980  2.3821
  593MOL0     H80046  11.274   3.453   8.373 -0.2302  0.9336  0.7888
  593MOL0     H80047  11.295   3.643   8.200 -0.5006  1.4614  2.3329
  593MOL0     H80048  11.125   3.646   8.183 -0.6288 -0.9632  1.4094
  593MOL0     H80049  11.134   3.403   8.116 -1.0860  0.9488  1.2902
  593MOL0     H80050  11.310   3.421   8.116  0.3693  1.9098  2.5574
  593MOL0     H80051  11.273   3.635   7.960 -1.4561  1.2533 -4.0050
  593MOL0     H80052  11.120   3.567   7.931 -0.2831  0.6644  2.3299
  593MOL0     H80053  11.311   3.288   7.688 -0.9196 -1.9944  0.7143
  593MOL0     H80054  10.921   3.653   8.286  1.1620 -0.3505 -0.2431
  593MOL0     H80055  10.802   3.844   8.402  0.4840 -0.5181 -1.3456
  594MOL0     O80056   5.815   3.513  11.121 -0.4652  0.5901  0.4166
  594MOL0     C80057   5.810   3.614  11.188 -1.1561 -0.1154  0.4788
  594MOL0     O80058   5.916   3.678  11.250  0.9293 -0.5347 -0.0875
  594MOL0     C80059   6.043   3.626  11.235  0.0945  0.7784  0.4790
  594MOL0     C80060   6.093   3.495  11.219  0.9756  0.9042  0.1681
  594MOL0     C80061   6.233   3.458  11.214  0.7099  0.5233  0.3258
  594MOL0     C80062   6.321   3.561  11.236 -0.8654  0.3354  0.0264
  594MOL0     O80063   6.456   3.552  11.227 -0.0998  0.7481 -0.0393
  594MOL0     C80064   6.525   3.471  11.328  1.1414  0.0476  0.1928
  594MOL0     C80065   6.678   3.501  11.318 -0.3917 -0.3379 -0.4310
  594MOL0     C80066   6.704   3.650  11.356  1.1415  0.5132 -1.1343
  594MOL0     C80067   6.827   3.690  11.281  0.0795 -0.1602 -0.1757
  594MOL0     C80068   6.855   3.827  11.345 -0.4373 -0.0844  0.2677
  594MOL0     C80069   6.949   3.925  11.262  0.3886 -0.0123  0.0531
  594MOL0     C80070   7.001   4.047  11.339  0.5113  0.1594  1.0384
  594MOL0     C80071   7.079   4.143  11.249  0.2076 -0.1544  0.0760
  594MOL0     N80072   7.131   4.261  11.332  0.3715 -0.1858 -0.1214
  594MOL0     C80073   7.063   4.388  11.334  0.1894 -0.1819 -0.0772
  594MOL0     C80074   7.139   4.455  11.425 -0.2626 -1.3494  0.5000
  594MOL0     C80075   7.124   4.598  11.482 -0.4346 -0.4184  0.0438
  594MOL0     C80076   7.055   4.586  11.624  1.0316  0.8525 -0.4823
  594MOL0     C80077   7.017   4.719  11.700 -0.7596 -0.3847  0.4469
  594MOL0     C80078   6.969   4.820  11.603 -0.1190 -0.1011 -0.7593
  594MOL0     O80079   6.936   4.941  11.679  0.0198  0.3098  1.4206
  594MOL0     C80080   6.798   4.953  11.712 -0.1901  0.5152  0.4188
  594MOL0     C80081   6.753   5.083  11.733 -0.2423 -0.0313 -0.8283
  594MOL0     C80082   6.620   5.114  11.765 -0.2377 -0.4169 -0.2253
  594MOL0     C80083   6.588   5.255  11.781  0.3488 -0.2193  0.5881
  594MOL0     C80084   6.533   5.009  11.785 -0.5225  0.0548  0.1062
  594MOL0     C80085   6.395   5.023  11.793  0.2204 -0.1374  0.1692
  594MOL0     O80086   6.329   4.932  11.881 -0.2145  0.3236 -0.1193
  594MOL0     C80087   6.193   4.957  11.916 -0.2737  0.8192  0.6525
  594MOL0     C80088   6.158   5.083  11.977 -0.2851  0.2496 -0.0485
  594MOL0     C80089   6.028   5.110  12.014 -0.1021  0.8897  0.2123
  594MOL0     C80090   5.930   5.002  12.003 -1.0347  0.3119  0.8246
  594MOL0     O80091   5.803   5.042  12.034  0.5304  0.2152 -0.2430
  594MOL0     C80092   5.700   4.944  12.006  0.1936  0.0459 -0.2309
  594MOL0     C80093   5.566   5.002  12.028 -0.4939  0.5945 -0.0994
  594MOL0     C80094   5.555   5.131  11.949 -0.4239 -0.0066 -0.7372
  594MOL0     C80095   5.418   5.203  11.958  0.6937  0.3536 -0.0026
  594MOL0     C80096   5.292   5.123  11.910 -0.2746  0.1953 -1.2781
  594MOL0     C80097   5.167   5.206  11.932 -0.2564 -0.4677  0.7917
  594MOL0     C80098   5.039   5.141  11.881  0.5261  0.6384 -0.0501
  594MOL0     C80099   4.904   5.214  11.928  0.5306  0.4273 -0.0699
  594MOL0    Cl80100   4.913   5.391  11.920 -0.0702  0.6441 -0.5883
  594MOL0     C80101   5.973   4.874  11.962 -0.6656 -0.2388 -1.2347
  594MOL0     C80102   6.097   4.852  11.909  0.6091 -0.4824 -0.3339
  594MOL0     O80103   6.330   5.112  11.728 -0.1241 -0.0542 -0.7001
  594MOL0     C80104   6.578   4.875  11.772 -1.2047 -0.3495 -0.2786
  594MOL0     C80105   6.707   4.847  11.734  0.5844 -0.5952  0.5281
  594MOL0     N80106   7.237   4.376  11.484 -0.1303  0.2551 -0.1026
  594MOL0     N80107   7.230   4.258  11.424  0.2245 -0.4008  0.8914
  594MOL0     C80108   6.277   3.693  11.251  0.7615  0.4915 -0.0713
  594MOL0     C80109   6.146   3.725  11.249  0.0208  0.5164  0.3631
  594MOL0     C80110   5.686   3.678  11.194  0.1774 -0.2888 -0.0269
  594MOL0     C80111   5.568   3.607  11.154  0.4223 -0.5820  0.4059
  594MOL0     C80112   5.445   3.673  11.163  0.5765  0.6949 -0.1585
  594MOL0     C80113   5.430   3.802  11.220  0.2406 -0.4561  1.2943
  594MOL0     O80114   5.309   3.873  11.227  0.9518 -0.0030  0.4559
  594MOL0     C80115   5.185   3.815  11.194 -0.0336 -0.0191  0.1709
  594MOL0     C80116   5.078   3.927  11.199  0.3452  0.7201  0.2245
  594MOL0     C80117   5.066   3.999  11.336  0.0924 -0.1430  0.3407
  594MOL0     C80118   4.962   4.108  11.344  0.3418  0.6592  0.9965
  594MOL0     C80119   4.935   4.160  11.476  0.5989 -0.5982 -0.0658
  594MOL0     C80120   4.884   4.202  11.577  0.1825  0.7766 -0.6319
  594MOL0     C80121   5.545   3.871  11.252 -0.7600 -0.9676  0.0901
  594MOL0     C80122   5.675   3.808  11.257 -0.4751 -0.9709 -0.1736
  594MOL0     H80123   6.033   3.405  11.230  1.9431  0.5178  3.1270
  594MOL0     H80124   6.259   3.355  11.193 -1.7359 -0.2720  0.8631
  594MOL0     H80125   6.494   3.505  11.427  0.7135  0.8221 -0.2013
  594MOL0     H80126   6.503   3.364  11.316  3.1870 -0.2019 -2.4027
  594MOL0     H80127   6.728   3.435  11.389  0.4350 -0.9330 -1.5384
  594MOL0     H80128   6.709   3.478  11.216 -1.0173 -0.6960 -0.5475
  594MOL0     H80129   6.623   3.714  11.321 -0.8650 -2.6478 -2.7544
  594MOL0     H80130   6.729   3.657  11.462  0.3434 -0.1549 -0.8984
  594MOL0     H80131   6.911   3.625  11.307  2.5960  2.7227 -0.4998
  594MOL0     H80132   6.820   3.691  11.172  0.3185 -1.1149 -0.2056
  594MOL0     H80133   6.759   3.876  11.364 -1.3921 -1.8859  0.3152
  594MOL0     H80134   6.895   3.816  11.447 -1.0312  1.8766  0.7571
  594MOL0     H80135   7.035   3.864  11.232  0.5286  0.9354 -1.6229
  594MOL0     H80136   6.903   3.953  11.166 -1.2521 -0.2614  0.7370
  594MOL0     H80137   6.911   4.091  11.384 -0.3983 -1.7136  1.1660
  594MOL0     H80138   7.071   4.026  11.420 -0.0110  2.8896  2.3168
  594MOL0     H80139   7.022   4.181  11.164  0.8234  0.6263 -0.0064
  594MOL0     H80140   7.162   4.079  11.215 -1.1215 -1.8267 -0.1482
  594MOL0     H80141   6.982   4.427  11.273  1.7521  2.6749 -0.4925
  594MOL0     H80142   7.220   4.648  11.496 -0.3606 -0.6302  0.3122
  594MOL0     H80143   7.054   4.661  11.426  0.0342  0.1456  0.0865
  594MOL0     H80144   7.111   4.520  11.691  2.5639  2.6416  0.0981
  594MOL0     H80145   6.961   4.536  11.598  1.7440  0.7602 -3.1377
  594MOL0     H80146   7.115   4.745  11.741 -0.5852  2.3640 -1.4778
  594MOL0     H80147   6.948   4.715  11.785 -1.0334  0.6212  0.2831
  594MOL0     H80148   6.889   4.790  11.534 -3.0750  1.3573  1.8192
  594MOL0     H80149   7.049   4.862  11.541 -0.8510  0.0265 -1.6434
  594MOL0     H80150   6.824   5.161  11.711  3.1634 -2.4941  0.5218
  594MOL0     H80151   6.492   5.269  11.830  0.5328 -0.3178  0.9796
  594MOL0     H80152   6.663   5.292  11.852 -2.3153  2.8915  2.0074
  594MOL0     H80153   6.588   5.319  11.692  1.0641  0.9118  1.3721
  594MOL0     H80154   6.232   5.163  11.981 -2.2506  2.0846  1.9155
  594MOL0     H80155   6.002   5.206  12.055  3.2951  1.8162  0.5507
  594MOL0     H80156   5.707   4.916  11.901 -0.9218  2.1093 -0.9054
  594MOL0     H80157   5.716   4.854  12.067  2.5315  0.8085  0.3887
  594MOL0     H80158   5.498   4.925  11.991  0.1621 -1.2393  2.2298
  594MOL0     H80159   5.547   5.030  12.132  0.7183  1.3465 -0.0686
  594MOL0     H80160   5.567   5.100  11.844 -1.0736 -3.7317  0.1286
  594MOL0     H80161   5.622   5.211  11.981  1.0966 -1.5959  0.1888
  594MOL0     H80162   5.396   5.226  12.063  1.0761  0.1192  0.1311
  594MOL0     H80163   5.437   5.298  11.908  0.2955  2.0502  2.8913
  594MOL0     H80164   5.280   5.034  11.972 -4.1487  1.2563 -0.2643
  594MOL0     H80165   5.321   5.096  11.807  1.2738 -1.0887 -0.5581
  594MOL0     H80166   5.168   5.214  12.041  1.3417 -0.0708  0.7685
  594MOL0     H80167   5.178   5.301  11.881 -0.8254 -0.9579 -0.2718
  594MOL0     H80168   5.021   5.041  11.922 -2.8821  1.7188  1.5410
  594MOL0     H80169   5.049   5.139  11.772  3.7144 -0.4691  0.1590
  594MOL0     H80170   4.883   5.179  12.029  0.8624 -0.6728 -0.3588
  594MOL0     H80171   4.821   5.174  11.869  1.8140 -3.4369  0.4470
  594MOL0     H80172   5.914   4.784  11.973  0.2044 -0.6965  0.0012
  594MOL0     H80173   6.128   4.753  11.877 -1.7567 -0.5336 -2.7761
  594MOL0     H80174   6.507   4.793  11.780 -2.2946  0.6208  0.3050
  594MOL0     H80175   6.729   4.744  11.711 -2.8873 -2.0360  2.8213
  594MOL0     H80176   6.333   3.785  11.266 -0.3186  1.1484  0.0284
  594MOL0     H80177   6.108   3.827  11.260 -0.6108  0.0320  3.7338
  594MOL0     H80178   5.576   3.506  11.115  1.3473  0.4577 -2.3743
  594MOL0     H80179   5.359   3.622  11.120  3.6776 -4.0841 -1.4386
  594MOL0     H80180   5.180   3.765  11.097  0.7161  0.2125  0.0083
  594MOL0     H80181   5.167   3.738  11.271  0.8030  0.9633  1.3912
  594MOL0     H80182   4.980   3.882  11.178  0.7989 -1.3557  2.1770
  594MOL0     H80183   5.105   4.003  11.125  1.0496 -0.2765 -0.5515
  594MOL0     H80184   5.170   4.029  11.352 -0.1397  1.3679 -0.7834
  594MOL0     H80185   5.023   3.928  11.407 -2.3322 -0.8718 -1.6968
  594MOL0     H80186   4.875   4.058  11.300  0.8107 -0.7089  1.5528
  594MOL0     H80187   4.979   4.194  11.279 -2.8563  0.3662 -0.4501
  594MOL0     H80188   4.846   4.218  11.676 -0.1518  1.4681 -0.8630
  594MOL0     H80189   5.528   3.970  11.294 -0.5153 -0.7069 -0.4120
  594MOL0     H80190   5.759   3.867  11.292 -0.7686 -0.4354 -0.3614
  595MOL0     O80191   2.035   0.622   4.374  0.2750  0.4555 -0.1295
  595MOL0     C80192   2.050   0.621   4.493 -0.7493  0.4053 -0.6783
  595MOL0     O80193   1.962   0.587   4.596  0.4637 -0.5237 -0.5591
  595MOL0     C80194   1.843   0.534   4.568 -0.0078  0.4072 -0.0266
  595MOL0     C80195   1.783   0.448   4.672  1.0655 -0.0208  0.2540
  595MOL0     C80196   1.656   0.396   4.662  0.7652 -0.5514  0.4829
  595MOL0     C80197   1.588   0.423   4.538  0.6241 -0.6671  0.3854
  595MOL0     O80198   1.466   0.361   4.522 -0.1929 -0.1861  0.0327
  595MOL0     C80199   1.401   0.347   4.400 -0.0346  0.3053 -0.0051
  595MOL0     C80200   1.293   0.242   4.411 -0.3185 -0.0087  1.0313
  595MOL0     C80201   1.208   0.307   4.513 -0.2981 -0.7553 -0.7503
  595MOL0     C80202   1.148   0.447   4.475  0.6559  0.5162 -0.8037
  595MOL0     C80203   1.007   0.449   4.540 -0.3931 -0.3441 -0.0502
  595MOL0     C80204   0.911   0.370   4.449 -0.3420  0.1696 -0.2847
  595MOL0     C80205   0.782   0.326   4.520 -0.2956  0.7637  0.5447
  595MOL0     C80206   0.675   0.268   4.420  0.4129 -0.8672  0.1762
  595MOL0     N80207   0.549   0.252   4.500 -0.7838 -0.2610 -0.4032
  595MOL0     C80208   0.467   0.360   4.534 -0.0579  1.2260 -0.3408
  595MOL0     C80209   0.374   0.316   4.621  0.0471  0.1204 -0.3508
  595MOL0     C80210   0.263   0.406   4.675  0.6133  0.5548  0.2289
  595MOL0     C80211   0.121   0.380   4.615  0.4850  0.8563 -0.5661
  595MOL0     C80212   0.072   0.431   4.478 -0.1997 -0.7655  0.7854
  595MOL0     C80213  -0.072   0.411   4.448  0.7880 -0.2274 -0.3414
  595MOL0     O80214  -0.111   0.271   4.438  0.9151  0.2262 -0.0063
  595MOL0     C80215  -0.241   0.225   4.449  0.5020 -1.1356  0.4453
  595MOL0     C80216  -0.342   0.311   4.493 -0.5612 -0.2810  0.2133
  595MOL0     C80217  -0.469   0.254   4.526 -0.8025  0.8140  0.6600
  595MOL0     C80218  -0.575   0.342   4.589 -0.4178 -0.5630  0.0558
  595MOL0     C80219  -0.489   0.111   4.514  0.6057  0.4258  0.4867
  595MOL0     C80220  -0.621   0.049   4.552  0.6050 -0.5830  0.3063
  595MOL0     O80221  -0.724   0.079   4.467  0.0328  0.3101  0.7022
  595MOL0     C80222  -0.857   0.052   4.483  0.0154  0.0114  0.6230
  595MOL0     C80223  -0.940   0.058   4.371 -0.1471  0.5695 -0.3800
  595MOL0     C80224  -1.072   0.046   4.387  0.5383 -0.3960 -0.2753
  595MOL0     C80225  -1.136   0.019   4.511  0.0286 -1.4552  0.0495
  595MOL0     O80226  -1.266   0.003   4.524  0.5307 -0.1917  0.2164
  595MOL0     C80227  -1.311  -0.111   4.437  0.4129 -0.0325 -0.7322
  595MOL0     C80228  -1.463  -0.098   4.398 -0.7211  1.2008 -0.2518
  595MOL0     C80229  -1.500   0.031   4.340  0.7314  0.0438  0.0310
  595MOL0     C80230  -1.443   0.063   4.202  0.0719  0.8313  0.1635
  595MOL0     C80231  -1.464   0.213   4.161  0.0509 -0.1564 -0.0284
  595MOL0     C80232  -1.363   0.299   4.234  0.0061 -0.6560 -0.2163
  595MOL0     C80233  -1.374   0.445   4.187 -1.1111 -0.6134  0.3388
  595MOL0     C80234  -1.278   0.476   4.074  0.3254  0.0216 -0.7773
  595MOL0    Cl80235  -1.287   0.655   4.048 -0.2881 -0.0407  0.3315
  595MOL0     C80236  -1.054   0.031   4.625  0.6497 -0.2477  0.6575
  595MOL0     C80237  -0.914   0.042   4.610  0.5402  0.7706  0.4024
  595MOL0     O80238  -0.622  -0.043   4.635  0.4302  0.3144  0.6776
  595MOL0     C80239  -0.388   0.027   4.466  0.0489  0.4975 -0.0303
  595MOL0     C80240  -0.263   0.085   4.439  0.0540 -0.0065 -0.6348
  595MOL0     N80241   0.403   0.186   4.645 -0.2645  0.0276 -0.7945
  595MOL0     N80242   0.498   0.146   4.573 -0.3863 -0.7101  0.7535
  595MOL0     C80243   1.642   0.508   4.440 -0.3434  0.0065 -0.1982
  595MOL0     C80244   1.757   0.569   4.463 -0.1765  0.2010 -0.5959
  595MOL0     C80245   2.193   0.652   4.546  0.3211  0.0019 -0.3702
  595MOL0     C80246   2.292   0.686   4.451 -0.3289  0.0478  0.9456
  595MOL0     C80247   2.430   0.695   4.488 -0.5718  0.8767 -0.2200
  595MOL0     C80248   2.466   0.694   4.627  0.6077 -0.4484  0.2790
  595MOL0     O80249   2.600   0.703   4.639  0.5120  0.0665 -1.0416
  595MOL0     C80250   2.644   0.716   4.775 -0.3948  0.7454  0.5271
  595MOL0     C80251   2.796   0.748   4.765  0.1343 -0.2051  0.0082
  595MOL0     C80252   2.865   0.743   4.908  0.5091 -0.4577  0.1390
  595MOL0     C80253   3.017   0.759   4.918 -0.5672 -0.0245 -0.4923
  595MOL0     C80254   3.073   0.760   5.052  0.8231  0.3119 -0.1355
  595MOL0     C80255   3.125   0.759   5.163  0.3549  0.1614  0.3659
  595MOL0     C80256   2.363   0.676   4.724 -0.2704 -0.4499  0.3752
  595MOL0     C80257   2.233   0.656   4.684 -0.6383 -0.3017  0.4350
  595MOL0     H80258   1.846   0.419   4.756  0.5783 -0.6592  0.4004
  595MOL0     H80259   1.609   0.344   4.744 -0.0681 -1.8640 -0.7906
  595MOL0     H80260   1.360   0.444   4.372 -0.7204 -0.1732 -0.7074
  595MOL0     H80261   1.473   0.311   4.325  3.5677  0.4223  3.0968
  595MOL0     H80262   1.253   0.211   4.314  1.1107 -1.2776  0.8126
  595MOL0     H80263   1.334   0.152   4.458 -0.6667 -0.8248 -0.1600
  595MOL0     H80264   1.123   0.239   4.516 -2.1477  1.3944 -1.2682
  595MOL0     H80265   1.250   0.306   4.614 -0.5694 -1.1878 -0.6390
  595MOL0     H80266   1.202   0.536   4.509 -1.6712  0.8351  2.5773
  595MOL0     H80267   1.155   0.465   4.367  2.9697  3.1832 -0.3024
  595MOL0     H80268   1.026   0.416   4.642 -0.1343  1.0461  0.3706
  595MOL0     H80269   0.974   0.553   4.552 -1.4855 -0.5523 -1.0812
  595MOL0     H80270   0.890   0.430   4.361  0.7037  2.4907  0.9766
  595MOL0     H80271   0.959   0.281   4.406  3.4411  0.5752  2.5621
  595MOL0     H80272   0.801   0.264   4.608 -0.3542  1.7920  1.3101
  595MOL0     H80273   0.752   0.425   4.558  1.6713  2.4035 -1.8099
  595MOL0     H80274   0.708   0.168   4.388  0.9277 -1.1414  1.5073
  595MOL0     H80275   0.661   0.338   4.337 -0.1469 -2.0012 -0.7260
  595MOL0     H80276   0.469   0.465   4.507 -0.6797  0.9759 -1.4313
  595MOL0     H80277   0.248   0.396   4.783  0.1687 -0.8477  0.0643
  595MOL0     H80278   0.297   0.508   4.660 -1.0717  1.2964  1.1921
  595MOL0     H80279   0.059   0.421   4.695  0.0402  1.8599 -1.4041
  595MOL0     H80280   0.105   0.272   4.612  1.4827  0.6169  1.0301
  595MOL0     H80281   0.129   0.371   4.406 -3.0402 -0.8491 -1.5680
  595MOL0     H80282   0.093   0.535   4.453  0.6805 -1.3083 -0.9163
  595MOL0     H80283  -0.086   0.437   4.343 -0.1662 -2.7068 -0.9176
  595MOL0     H80284  -0.132   0.462   4.523  2.4986 -0.0067  0.9514
  595MOL0     H80285  -0.332   0.419   4.498 -1.3587 -0.0626 -2.0570
  595MOL0     H80286  -0.665   0.289   4.622 -1.9585  0.6322 -1.9623
  595MOL0     H80287  -0.539   0.403   4.672 -2.4098 -0.8309  1.1908
  595MOL0     H80288  -0.598   0.418   4.513  1.0251 -0.2297 -0.0770
  595MOL0     H80289  -0.897   0.066   4.272  4.8624  3.7757  1.6273
  595MOL0     H80290  -1.138   0.045   4.301  0.1734 -1.1470  0.0039
  595MOL0     H80291  -1.247  -0.151   4.357  0.6148 -2.2384  0.4571
  595MOL0     H80292  -1.307  -0.199   4.502 -2.6597 -0.9983 -1.7153
  595MOL0     H80293  -1.481  -0.185   4.334 -0.6013  0.2731  0.9287
  595MOL0     H80294  -1.541  -0.126   4.470 -0.3731 -1.1085 -0.7058
  595MOL0     H80295  -1.482   0.109   4.414 -0.3612  0.1069  0.2352
  595MOL0     H80296  -1.609   0.039   4.337  0.8373  3.0453 -3.0155
  595MOL0     H80297  -1.337   0.038   4.188 -0.9442 -2.2464 -3.7251
  595MOL0     H80298  -1.500   0.001   4.132  2.9681 -2.2616  0.3153
  595MOL0     H80299  -1.560   0.259   4.187  0.6027  1.2990 -0.4462
  595MOL0     H80300  -1.454   0.210   4.052 -2.6545 -0.2994 -0.3498
  595MOL0     H80301  -1.374   0.299   4.342 -0.5008 -1.7134 -0.2581
  595MOL0     H80302  -1.258   0.276   4.218  0.6173  1.5457  0.3072
  595MOL0     H80303  -1.345   0.518   4.263 -0.5992  0.1906 -0.5979
  595MOL0     H80304  -1.476   0.479   4.168  0.0263  3.0930  0.0608
  595MOL0     H80305  -1.300   0.431   3.977  4.3582  0.0818 -1.8824
  595MOL0     H80306  -1.179   0.451   4.113 -1.2145 -1.1177  2.9196
  595MOL0     H80307  -1.095   0.007   4.723  0.5373 -3.9466 -0.1662
  595MOL0     H80308  -0.853   0.040   4.700 -0.4235  0.8904  1.0696
  595MOL0     H80309  -0.397  -0.081   4.473 -1.2582  0.6451  0.7965
  595MOL0     H80310  -0.183   0.020   4.404 -1.2776 -1.8579 -0.4185
  595MOL0     H80311   1.581   0.512   4.350  0.4081  0.1307 -0.7119
  595MOL0     H80312   1.789   0.649   4.397  1.1909  0.2381  0.0774
  595MOL0     H80313   2.278   0.702   4.344  0.6724 -1.1624  0.6100
  595MOL0     H80314   2.509   0.699   4.414  3.4728 -2.6522  3.3481
  595MOL0     H80315   2.574   0.789   4.817 -0.5908  0.4714  0.6811
  595MOL0     H80316   2.631   0.620   4.825  1.9887  0.3558  0.5319
  595MOL0     H80317   2.795   0.853   4.735 -1.0978  0.1656  1.2606
  595MOL0     H80318   2.839   0.681   4.690 -2.2703 -0.9758 -0.7648
  595MOL0     H80319   2.830   0.654   4.961 -0.3711  0.0658  0.4570
  595MOL0     H80320   2.819   0.823   4.967  0.5661  1.7963 -2.6254
  595MOL0     H80321   3.053   0.856   4.882 -1.9837  1.5694  2.1258
  595MOL0     H80322   3.060   0.677   4.859 -3.6424 -2.2249  0.0714
  595MOL0     H80323   3.158   0.751   5.265 -1.4970  0.3914  1.0116
  595MOL0     H80324   2.395   0.691   4.826 -1.4900  1.6142  0.5001
  595MOL0     H80325   2.164   0.650   4.767 -0.7687  0.5021  0.3851
  596MOL0     O80326   9.593  10.817   7.195  0.3945  0.0470 -0.0559
  596MOL0     C80327   9.669  10.860   7.278  0.1388 -0.0522 -0.0014
  596MOL0     O80328   9.646  10.862   7.414 -0.5779 -0.3192 -0.0034
  596MOL0     C80329   9.525  10.819   7.455 -0.1634  0.5937 -0.9313
  596MOL0     C80330   9.429  10.916   7.482 -0.4890 -0.0345  1.5512
  596MOL0     C80331   9.305  10.871   7.524 -0.4498  0.3942  0.4361
  596MOL0     C80332   9.275  10.732   7.542 -0.6997 -0.8212 -0.5328
  596MOL0     O80333   9.140  10.705   7.575  0.2177  0.2303  0.0140
  596MOL0     C80334   9.122  10.582   7.648 -0.0753  0.0453  0.4761
  596MOL0     C80335   8.978  10.549   7.689  0.2602 -0.2427  1.1788
  596MOL0     C80336   8.897  10.565   7.553  0.1441  0.1612 -0.6926
  596MOL0     C80337   8.751  10.537   7.574 -0.2349  0.0988  0.5693
  596MOL0     C80338   8.707  10.436   7.465  0.6035  0.5309  0.3263
  596MOL0     C80339   8.550  10.430   7.460  0.1603  0.2393 -0.2188
  596MOL0     C80340   8.482  10.535   7.375  0.5167  0.3980  0.7698
  596MOL0     C80341   8.325  10.510   7.372 -0.3133  0.0781 -0.5310
  596MOL0     N80342   8.251  10.618   7.307  0.6193 -0.4579 -0.0917
  596MOL0     C80343   8.252  10.753   7.331  1.0992  0.1044 -1.2008
  596MOL0     C80344   8.157  10.802   7.245 -0.5239 -0.0267  0.4953
  596MOL0     C80345   8.102  10.944   7.253  0.0229 -0.3733  0.7436
  596MOL0     C80346   7.988  10.966   7.155  0.4286  0.2172  0.0332
  596MOL0     C80347   7.923  11.102   7.180 -0.4505 -0.5522  0.3780
  596MOL0     C80348   7.807  11.128   7.077  0.0268 -0.0468 -0.4644
  596MOL0     O80349   7.711  11.022   7.085  0.3822 -0.1944 -0.7010
  596MOL0     C80350   7.618  11.012   6.984  0.7732 -0.4308 -0.1985
  596MOL0     C80351   7.557  11.124   6.929  0.2076 -0.1085 -0.6307
  596MOL0     C80352   7.457  11.110   6.827  0.1104  0.2014  0.2596
  596MOL0     C80353   7.398  11.240   6.785 -0.2985  0.2365  0.4583
  596MOL0     C80354   7.418  10.982   6.774 -0.6270  0.0716 -0.9711
  596MOL0     C80355   7.326  10.964   6.665  0.8936 -0.2743 -0.1358
  596MOL0     O80356   7.241  11.074   6.637  0.2792 -0.9013  0.2840
  596MOL0     C80357   7.204  11.110   6.512 -0.3774  0.1584  0.1513
  596MOL0     C80358   7.217  11.036   6.393  0.5769  0.0684 -0.6910
  596MOL0     C80359   7.161  11.082   6.270  0.4584 -0.5914 -0.3024
  596MOL0     C80360   7.090  11.205   6.264  0.4802  0.4331 -0.0945
  596MOL0     O80361   7.024  11.256   6.156  0.4055 -0.0470  0.5463
  596MOL0     C80362   6.948  11.172   6.074 -0.5141 -0.1165 -0.3990
  596MOL0     C80363   6.988  11.198   5.927  0.1257  0.0033 -0.0814
  596MOL0     C80364   7.014  11.351   5.877 -0.4731  0.2659  0.2258
  596MOL0     C80365   6.887  11.432   5.881 -0.1265 -0.4252 -0.0662
  596MOL0     C80366   6.907  11.579   5.861  0.7653 -0.8476 -1.0906
  596MOL0     C80367   6.788  11.646   5.787  0.0929  0.5666  0.1024
  596MOL0     C80368   6.646  11.611   5.842 -0.5244 -1.1797  0.6261
  596MOL0     C80369   6.631  11.661   5.991 -0.0441  0.0560  0.0217
  596MOL0    Cl80370   6.458  11.688   6.021 -0.1160 -0.4181 -0.0525
  596MOL0     C80371   7.100  11.280   6.380  0.5989  0.0806 -0.2897
  596MOL0     C80372   7.136  11.226   6.501 -0.0657 -0.5829  0.6423
  596MOL0     O80373   7.331  10.857   6.596 -0.5056  0.2406 -0.9629
  596MOL0     C80374   7.486  10.872   6.838  0.2827 -0.2721 -0.4859
  596MOL0     C80375   7.576  10.886   6.939  0.7224 -0.5467 -0.3231
  596MOL0     N80376   8.096  10.698   7.187 -0.3129  0.0311  1.5029
  596MOL0     N80377   8.154  10.590   7.212  0.4645  0.1460 -0.4529
  596MOL0     C80378   9.374  10.636   7.504  0.7081 -0.7254 -0.1514
  596MOL0     C80379   9.495  10.683   7.466 -1.0683 -0.4222  0.7258
  596MOL0     C80380   9.807  10.908   7.231  0.1147  1.1483 -0.7038
  596MOL0     C80381   9.911  10.917   7.324 -0.0150  0.1547 -0.0593
  596MOL0     C80382  10.036  10.960   7.278 -0.0163 -0.3500 -0.3100
  596MOL0     C80383  10.064  10.986   7.149  0.2848 -0.6343  0.2508
  596MOL0     O80384  10.185  11.014   7.092  0.3840  0.3710 -0.0799
  596MOL0     C80385  10.261  11.120   7.157  0.4715  0.0146  0.2215
  596MOL0     C80386  10.261  11.248   7.068 -0.5254  0.6907 -0.2769
  596MOL0     C80387  10.336  11.374   7.115  0.1680  0.1500  0.7678
  596MOL0     C80388  10.353  11.473   7.002 -0.0411  0.3487  0.2021
  596MOL0     C80389  10.403  11.602   7.049 -1.4638  0.2762  1.1694
  596MOL0     C80390  10.437  11.707   7.095  0.5803  0.3231  0.3316
  596MOL0     C80391   9.961  10.975   7.058 -0.4816  0.1578 -0.4918
  596MOL0     C80392   9.830  10.941   7.096 -0.6477  0.2288  0.1890
  596MOL0     H80393   9.437  11.024   7.485 -4.4253  0.4019  1.5558
  596MOL0     H80394   9.226  10.945   7.533 -1.3169 -0.4400 -0.2186
  596MOL0     H80395   9.153  10.498   7.586 -0.4070  1.0557 -1.1135
  596MOL0     H80396   9.192  10.594   7.731  1.0602  3.0726 -0.7559
  596MOL0     H80397   8.976  10.441   7.704  1.1046 -0.4388  0.0982
  596MOL0     H80398   8.941  10.611   7.771 -1.2292 -0.5996  0.8105
  596MOL0     H80399   8.909  10.666   7.511 -2.6481  0.4123 -1.0590
  596MOL0     H80400   8.936  10.490   7.483 -2.1754  0.4125 -2.3574
  596MOL0     H80401   8.728  10.499   7.674 -0.7213  0.3399  0.5494
  596MOL0     H80402   8.689  10.625   7.559  2.3752  1.7224 -1.6284
  596MOL0     H80403   8.741  10.464   7.364 -1.9546  0.7940 -0.5306
  596MOL0     H80404   8.738  10.334   7.491 -3.1675 -0.4001  1.8120
  596MOL0     H80405   8.529  10.333   7.414  4.4805 -0.5351 -1.0725
  596MOL0     H80406   8.513  10.435   7.563  2.3216 -0.1891  0.6330
  596MOL0     H80407   8.503  10.633   7.419 -0.6482  0.3164  1.5667
  596MOL0     H80408   8.517  10.533   7.272 -0.6341  0.1887  0.3758
  596MOL0     H80409   8.291  10.506   7.476 -2.5087  0.0943 -1.2076
  596MOL0     H80410   8.300  10.418   7.319 -0.9726 -1.4841  2.3003
  596MOL0     H80411   8.313  10.814   7.397 -2.1508  1.8901  0.3338
  596MOL0     H80412   8.074  10.978   7.353 -0.5191  0.6689  0.2590
  596MOL0     H80413   8.180  11.014   7.222  0.2217 -0.7986  0.2718
  596MOL0     H80414   7.911  10.890   7.171  0.5033 -1.2318 -4.8290
  596MOL0     H80415   8.007  10.964   7.048 -1.7146 -1.1555 -0.3825
  596MOL0     H80416   7.984  11.192   7.167 -1.3335 -0.1523 -1.3647
  596MOL0     H80417   7.890  11.094   7.285  2.6929 -1.5781  1.3770
  596MOL0     H80418   7.841  11.132   6.973  0.4163  0.4205 -0.3196
  596MOL0     H80419   7.750  11.220   7.092  1.0485  0.5196 -0.0018
  596MOL0     H80420   7.603  11.218   6.958  1.1470 -1.3533  2.2306
  596MOL0     H80421   7.390  11.258   6.677  0.1144 -1.4518  0.1248
  596MOL0     H80422   7.300  11.249   6.832 -1.3669  0.7039 -1.7182
  596MOL0     H80423   7.456  11.321   6.830 -0.7099 -0.9860  3.3890
  596MOL0     H80424   7.268  10.940   6.396 -2.0151 -1.3775  1.1707
  596MOL0     H80425   7.179  11.023   6.180  1.0391 -2.0928  0.7607
  596MOL0     H80426   6.966  11.068   6.103 -0.7513 -0.0096  0.1381
  596MOL0     H80427   6.842  11.189   6.096 -0.6954 -0.9769 -0.5812
  596MOL0     H80428   7.087  11.152   5.918  1.6886  2.5913  2.3456
  596MOL0     H80429   6.918  11.141   5.866  1.8663 -0.5663 -1.6491
  596MOL0     H80430   7.052  11.357   5.775 -0.8333  3.1098  0.1803
  596MOL0     H80431   7.093  11.377   5.948 -3.4778  3.1839  2.8616
  596MOL0     H80432   6.815  11.392   5.809  0.0995 -1.6955  0.3831
  596MOL0     H80433   6.843  11.413   5.979 -1.6958  0.9037 -0.4616
  596MOL0     H80434   6.998  11.602   5.805  0.1638 -3.4011 -3.3404
  596MOL0     H80435   6.910  11.629   5.958  2.7748  2.1246 -2.5679
  596MOL0     H80436   6.799  11.755   5.792 -0.1713  0.5554  1.5522
  596MOL0     H80437   6.795  11.619   5.682  2.4462  1.8133 -0.1341
  596MOL0     H80438   6.620  11.505   5.834 -1.9638 -0.7144 -2.1119
  596MOL0     H80439   6.574  11.671   5.785 -0.0341  2.8504  3.7573
  596MOL0     H80440   6.691  11.749   6.014 -0.5131  0.3816  0.0233
  596MOL0     H80441   6.670  11.580   6.053  0.5709 -1.9740 -2.7879
  596MOL0     H80442   7.044  11.372   6.390  0.3274 -0.2007  1.0694
  596MOL0     H80443   7.121  11.287   6.590  0.7788  0.8516 -0.1575
  596MOL0     H80444   7.448  10.781   6.794 -3.4009  0.7823  0.1763
  596MOL0     H80445   7.620  10.793   6.973 -1.1326 -1.0422  0.8474
  596MOL0     H80446   9.352  10.530   7.508 -1.7888 -0.2175  1.3591
  596MOL0     H80447   9.575  10.612   7.450  1.5041  2.4647 -0.1025
  596MOL0     H80448   9.903  10.887   7.428 -2.1064  3.3164  0.8140
  596MOL0     H80449  10.108  10.968   7.359 -0.7491 -1.9314  0.5412
  596MOL0     H80450  10.216  11.150   7.253 -0.9933  4.9976 -1.7261
  596MOL0     H80451  10.364  11.088   7.171  0.6946 -0.1682 -1.6902
  596MOL0     H80452  10.153  11.264   7.078 -0.4099  0.6722  1.1914
  596MOL0     H80453  10.275  11.226   6.962 -1.2612  0.6006 -0.3655
  596MOL0     H80454  10.440  11.348   7.138  1.1202 -0.1047 -3.1260
  596MOL0     H80455  10.281  11.419   7.197  0.0516  2.2362 -0.3962
  596MOL0     H80456  10.253  11.482   6.959 -1.0676  2.5337  2.7533
  596MOL0     H80457  10.416  11.428   6.925 -0.1364 -0.3886  0.5476
  596MOL0     H80458  10.475  11.803   7.123  2.5722  0.3028 -1.8773
  596MOL0     H80459   9.984  10.981   6.952  1.1346 -3.5803 -0.5245
  596MOL0     H80460   9.752  10.939   7.020 -1.1951 -0.3196  0.7505
  597MOL0     O80461   9.611   5.975   7.080 -0.0424 -0.0022  0.4049
  597MOL0     C80462   9.636   5.857   7.068 -0.2281  0.1835 -0.2052
  597MOL0     O80463   9.536   5.767   7.086  0.3911  0.0429 -0.9558
  597MOL0     C80464   9.406   5.802   7.136 -0.1834  0.6367  0.6017
  597MOL0     C80465   9.304   5.702   7.103  0.2251 -0.0762  0.1723
  597MOL0     C80466   9.172   5.737   7.134  0.3805 -0.2242  0.4962
  597MOL0     C80467   9.132   5.854   7.211  0.1318  0.8522 -0.0050
  597MOL0     O80468   8.999   5.896   7.234 -0.5191  0.0677  0.2527
  597MOL0     C80469   8.895   5.804   7.203 -0.1099 -0.1101  0.2694
  597MOL0     C80470   8.762   5.877   7.232 -0.8384  0.2833  0.3857
  597MOL0     C80471   8.651   5.776   7.270  0.7139  1.2007  0.1056
  597MOL0     C80472   8.510   5.828   7.248 -0.4338 -0.6553  0.4673
  597MOL0     C80473   8.407   5.723   7.266 -0.0394 -0.5638 -0.7999
  597MOL0     C80474   8.271   5.781   7.222 -0.6293 -0.5387  0.2914
  597MOL0     C80475   8.158   5.687   7.246  0.0196  0.9468 -0.2434
  597MOL0     C80476   8.029   5.769   7.205  0.4846  0.2023 -0.6089
  597MOL0     N80477   7.910   5.676   7.247  0.3358 -0.0913 -0.1803
  597MOL0     C80478   7.825   5.711   7.347  0.3852 -0.0007  0.8836
  597MOL0     C80479   7.731   5.613   7.342 -0.8072 -0.0970 -0.2472
  597MOL0     C80480   7.621   5.603   7.450  0.4420  0.2734  0.2700
  597MOL0     C80481   7.548   5.737   7.443  0.2265 -0.9607 -0.1441
  597MOL0     C80482   7.501   5.801   7.317  0.2285  0.3888  0.4295
  597MOL0     C80483   7.434   5.710   7.216  0.6684 -0.4527  0.0704
  597MOL0     O80484   7.300   5.673   7.273 -0.2491 -0.2227 -0.4070
  597MOL0     C80485   7.188   5.679   7.196  1.0397  0.4647  0.0701
  597MOL0     C80486   7.187   5.669   7.055 -0.1228  0.1684  0.0994
  597MOL0     C80487   7.059   5.657   6.982 -0.9024  0.7025  0.3435
  597MOL0     C80488   7.068   5.677   6.838  0.8031  0.3038 -0.0872
  597MOL0     C80489   6.939   5.639   7.060 -0.5557 -0.5229 -0.1339
  597MOL0     C80490   6.798   5.618   7.000 -0.7823 -0.2710  0.1457
  597MOL0     O80491   6.692   5.584   7.086  0.4607  0.7117 -0.5500
  597MOL0     C80492   6.575   5.548   7.022  0.1517  0.4332 -0.1921
  597MOL0     C80493   6.454   5.618   7.046  0.0037  0.4336  0.0809
  597MOL0     C80494   6.330   5.561   7.005 -0.6616 -0.1251  0.0954
  597MOL0     C80495   6.331   5.442   6.931  0.2271 -0.4689  0.2789
  597MOL0     O80496   6.210   5.390   6.892  0.0651 -0.6102  0.5346
  597MOL0     C80497   6.156   5.459   6.775 -0.2622 -0.9207  0.1728
  597MOL0     C80498   6.051   5.379   6.714  0.0231 -0.4321  0.4161
  597MOL0     C80499   5.942   5.340   6.821 -0.0445  0.5454  0.4093
  597MOL0     C80500   5.838   5.238   6.763 -0.5749  0.7056 -0.8373
  597MOL0     C80501   5.882   5.089   6.775  0.1369 -0.3362 -0.1469
  597MOL0     C80502   6.000   5.052   6.690 -0.5634  0.0742  0.1110
  597MOL0     C80503   6.029   4.898   6.685  0.3518 -1.2971  0.3472
  597MOL0     C80504   6.091   4.857   6.810  0.8746  0.3060  0.3971
  597MOL0    Cl80505   6.250   4.928   6.862 -0.3621 -0.0063 -0.2325
  597MOL0     C80506   6.451   5.384   6.906 -0.4622  1.1254 -0.2917
  597MOL0     C80507   6.572   5.428   6.955 -0.5123 -0.3217  0.0280
  597MOL0     O80508   6.786   5.647   6.885 -0.2225 -0.1982  0.1864
  597MOL0     C80509   6.947   5.648   7.197  0.4232 -0.5298 -0.4783
  597MOL0     C80510   7.060   5.665   7.263 -0.4277  0.1746 -1.3600
  597MOL0     N80511   7.758   5.530   7.234 -0.2055  0.0408 -0.1235
  597MOL0     N80512   7.872   5.566   7.184 -0.6816 -0.2145  0.0995
  597MOL0     C80513   9.237   5.942   7.245  0.1453  0.4370 -1.0480
  597MOL0     C80514   9.371   5.914   7.205  0.5127 -0.4333 -0.3873
  597MOL0     C80515   9.773   5.806   7.042  0.2282  0.2801  0.2731
  597MOL0     C80516   9.800   5.671   7.004 -0.2068  0.2008 -0.6280
  597MOL0     C80517   9.931   5.627   6.983 -0.8327  0.0529 -1.0022
  597MOL0     C80518  10.038   5.716   7.004  0.0267 -0.1988 -0.6273
  597MOL0     O80519  10.173   5.681   7.007  0.4138 -0.3712 -0.2340
  597MOL0     C80520  10.212   5.545   6.984  0.1108  0.5126 -0.2066
  597MOL0     C80521  10.364   5.533   7.013 -0.6719  0.5718  0.1478
  597MOL0     C80522  10.420   5.608   7.131  0.1906 -0.2563  0.5908
  597MOL0     C80523  10.384   5.539   7.255  0.4861 -0.3629 -0.0675
  597MOL0     C80524  10.471   5.422   7.274 -0.0014  0.2649  0.8937
  597MOL0     C80525  10.547   5.331   7.313  0.6177 -0.2692  0.4498
  597MOL0     C80526  10.005   5.855   7.017 -0.2295  0.6188 -0.1776
  597MOL0     C80527   9.878   5.897   7.046 -0.1682 -0.5156  0.0789
  597MOL0     H80528   9.326   5.619   7.037  0.0678 -0.5897  0.7646
  597MOL0     H80529   9.095   5.666   7.105  0.8279 -0.5564  0.1140
  597MOL0     H80530   8.908   5.779   7.097  4.1702  0.8008  0.4273
  597MOL0     H80531   8.912   5.717   7.267  1.1637 -0.6831 -0.8007
  597MOL0     H80532   8.774   5.951   7.313 -0.2784  0.1973  0.3898
  597MOL0     H80533   8.740   5.932   7.140 -0.1847  1.1477  0.7253
  597MOL0     H80534   8.676   5.687   7.212 -2.0137  0.3147  0.1553
  597MOL0     H80535   8.651   5.751   7.376 -2.5092 -1.8023 -0.4161
  597MOL0     H80536   8.499   5.921   7.304  4.4551  0.2897  0.3598
  597MOL0     H80537   8.499   5.853   7.142 -1.1287  0.7964  0.8565
  597MOL0     H80538   8.423   5.642   7.194  2.2288 -0.7800 -0.1164
  597MOL0     H80539   8.406   5.696   7.372 -0.3350  3.2001  0.3125
  597MOL0     H80540   8.256   5.871   7.281  0.7967 -1.1051  1.5873
  597MOL0     H80541   8.275   5.816   7.118  1.2197 -3.4376 -0.7361
  597MOL0     H80542   8.158   5.593   7.190 -1.6915  1.3627 -0.9992
  597MOL0     H80543   8.153   5.661   7.352  0.5245 -1.5500 -0.7676
  597MOL0     H80544   8.020   5.798   7.100  2.6080  1.2825 -0.5565
  597MOL0     H80545   8.019   5.860   7.266 -1.7713 -0.4241  0.0555
  597MOL0     H80546   7.821   5.802   7.406  0.8780 -0.3036  1.4015
  597MOL0     H80547   7.547   5.527   7.424  0.6270  0.4965 -0.9532
  597MOL0     H80548   7.668   5.579   7.546  0.4410 -2.4203 -0.3154
  597MOL0     H80549   7.611   5.816   7.484  1.6769 -1.8446 -0.6208
  597MOL0     H80550   7.464   5.733   7.513  0.4498  0.0959  0.2031
  597MOL0     H80551   7.593   5.840   7.272  1.2896 -1.9395  0.4439
  597MOL0     H80552   7.433   5.882   7.344  2.3704  2.4683 -0.0973
  597MOL0     H80553   7.490   5.618   7.196 -1.7009 -2.1596  0.8425
  597MOL0     H80554   7.426   5.760   7.119  1.1340  2.8101  1.5784
  597MOL0     H80555   7.276   5.679   6.995 -1.5983  0.0618 -2.2543
  597MOL0     H80556   7.026   5.592   6.783 -2.2100  2.8405 -2.0060
  597MOL0     H80557   7.029   5.772   6.801  2.8197  1.0423 -0.4673
  597MOL0     H80558   7.173   5.682   6.806  0.9580 -0.7374  0.2262
  597MOL0     H80559   6.466   5.716   7.091  0.8244  0.4127 -0.0809
  597MOL0     H80560   6.239   5.618   7.018 -1.7870 -1.5531 -1.2244
  597MOL0     H80561   6.116   5.552   6.816  2.6283 -0.5360  2.3938
  597MOL0     H80562   6.239   5.484   6.709 -0.2980 -1.9331 -0.2672
  597MOL0     H80563   6.009   5.432   6.627  1.7677  3.0020  1.5094
  597MOL0     H80564   6.094   5.285   6.678  0.2252 -0.8853  1.7991
  597MOL0     H80565   5.893   5.429   6.862  1.6271  0.4321  2.8112
  597MOL0     H80566   5.994   5.300   6.907 -0.0558 -0.0922  0.1210
  597MOL0     H80567   5.739   5.248   6.809 -1.4447  1.2125 -2.7637
  597MOL0     H80568   5.812   5.267   6.661  2.8653 -0.5217 -2.2023
  597MOL0     H80569   5.798   5.023   6.750 -0.1075  0.0019 -0.2310
  597MOL0     H80570   5.895   5.073   6.883  0.4618  1.7861  0.1812
  597MOL0     H80571   6.001   5.081   6.584 -3.4918 -1.7080 -0.5273
  597MOL0     H80572   6.096   5.089   6.727 -0.6618 -0.1387  0.5779
  597MOL0     H80573   6.107   4.891   6.609  0.4745  2.3961 -0.0332
  597MOL0     H80574   5.934   4.848   6.662 -0.7114  1.4066 -1.6018
  597MOL0     H80575   6.105   4.749   6.801  0.0235 -0.0800  2.8104
  597MOL0     H80576   6.019   4.880   6.889  0.2774 -1.7073  0.5060
  597MOL0     H80577   6.445   5.289   6.854 -3.3318  0.3948  1.1719
  597MOL0     H80578   6.670   5.389   6.931  1.9462  4.9493  0.1586
  597MOL0     H80579   6.855   5.642   7.254  0.5443 -1.0814 -0.3372
  597MOL0     H80580   7.074   5.686   7.368  0.6241 -2.9995 -0.7469
  597MOL0     H80581   9.222   6.036   7.296  2.3506  0.1206  0.3287
  597MOL0     H80582   9.448   5.988   7.223 -0.1822  0.6694 -1.7557
  597MOL0     H80583   9.726   5.592   7.000 -1.0122  0.9267 -0.3142
  597MOL0     H80584   9.942   5.523   6.956 -2.3971  0.1286 -2.0466
  597MOL0     H80585  10.164   5.481   7.058 -0.5182 -0.3627 -1.3461
  597MOL0     H80586  10.182   5.519   6.882 -1.3970  2.1607 -0.2351
  597MOL0     H80587  10.422   5.558   6.923 -2.2791 -1.0909 -1.4369
  597MOL0     H80588  10.374   5.424   7.019 -1.4667  0.5770  2.0657
  597MOL0     H80589  10.382   5.710   7.121  1.9399  0.2882 -1.2400
  597MOL0     H80590  10.527   5.611   7.110  0.2689 -1.6949  0.7136
  597MOL0     H80591  10.283   5.498   7.264 -0.0071 -0.0167 -2.9090
  597MOL0     H80592  10.396   5.609   7.338  0.3371 -0.1752 -0.2012
  597MOL0     H80593  10.623   5.263   7.344 -0.5856 -0.7107  2.6891
  597MOL0     H80594  10.088   5.924   7.011  1.1156 -0.9899 -1.2507
  597MOL0     H80595   9.860   6.002   7.066  0.6101 -0.3847  0.1057
  598MOL0     O80596   2.362  10.458   6.777  0.6773 -0.1170  0.2117
  598MOL0     C80597   2.348  10.391   6.682 -0.7807  0.3446  0.8585
  598MOL0     O80598   2.226  10.338   6.640 -0.2896 -1.0358  0.6011
  598MOL0     C80599   2.105  10.355   6.700  0.5593 -0.0884 -0.0737
  598MOL0     C80600   2.053  10.460   6.777 -0.1020 -0.3036  0.3725
  598MOL0     C80601   1.919  10.463   6.834  0.6108  0.3514 -0.4304
  598MOL0     C80602   1.834  10.352   6.809 -0.1458 -0.2551 -0.3721
  598MOL0     O80603   1.706  10.344   6.858  0.2039 -0.6780 -0.2775
  598MOL0     C80604   1.683  10.405   6.985  0.0042  0.4835 -0.5751
  598MOL0     C80605   1.544  10.392   7.047  0.8111  0.2692  0.2632
  598MOL0     C80606   1.508  10.482   7.170  0.1725  0.9124 -1.1085
  598MOL0     C80607   1.367  10.459   7.225  0.2657  0.4622  0.3499
  598MOL0     C80608   1.357  10.481   7.373  0.2440 -0.5134 -0.2698
  598MOL0     C80609   1.207  10.501   7.415 -0.1966 -0.1376 -0.2499
  598MOL0     C80610   1.204  10.527   7.565  0.1500  0.2950  0.6295
  598MOL0     C80611   1.050  10.541   7.589 -0.0662  0.5172  0.1960
  598MOL0     N80612   1.014  10.577   7.717  0.6777  1.4252  0.0542
  598MOL0     C80613   0.931  10.502   7.802 -0.3694  0.1748 -1.0495
  598MOL0     C80614   0.930  10.572   7.912 -0.3507 -1.0556  0.2158
  598MOL0     C80615   0.856  10.541   8.036 -0.6061 -0.4319  1.5681
  598MOL0     C80616   0.701  10.555   8.035  0.7321 -0.3685 -0.4222
  598MOL0     C80617   0.662  10.534   8.186 -0.5989  0.2115  0.5723
  598MOL0     C80618   0.512  10.540   8.195  0.6619 -0.0463 -0.2319
  598MOL0     O80619   0.471  10.578   8.331  0.0782  0.0229  0.6840
  598MOL0     C80620   0.340  10.562   8.374  0.8403 -0.6128 -0.5706
  598MOL0     C80621   0.310  10.633   8.491 -0.2264  0.7461 -0.4539
  598MOL0     C80622   0.185  10.623   8.558  0.1170 -0.1434  0.5286
  598MOL0     C80623   0.153  10.718   8.667  0.5617 -0.0361 -0.0025
  598MOL0     C80624   0.087  10.539   8.499 -0.6633 -0.0796 -0.1567
  598MOL0     C80625  -0.046  10.519   8.556 -0.2860  0.2727 -0.7757
  598MOL0     O80626  -0.052  10.499   8.686  0.6884  0.0842 -0.7680
  598MOL0     C80627  -0.178  10.521   8.742 -0.5299 -0.2172  0.2743
  598MOL0     C80628  -0.281  10.435   8.710  0.6001 -0.7010 -0.7387
  598MOL0     C80629  -0.413  10.453   8.756 -0.1906  1.0428  0.1951
  598MOL0     C80630  -0.440  10.565   8.840  0.5641 -0.3340  0.1598
  598MOL0     O80631  -0.567  10.604   8.888 -0.1280  1.1357 -0.4463
  598MOL0     C80632  -0.590  10.581   9.029  0.6376  0.5243  0.6797
  598MOL0     C80633  -0.723  10.512   9.056  0.1750 -0.2718 -0.9030
  598MOL0     C80634  -0.845  10.583   9.040 -0.8250 -0.8141 -0.2349
  598MOL0     C80635  -0.974  10.499   9.034 -0.4844  0.6122 -0.1041
  598MOL0     C80636  -1.094  10.581   9.013 -0.0785 -0.1820 -0.5086
  598MOL0     C80637  -1.098  10.691   8.911  0.0116  0.4860  1.0167
  598MOL0     C80638  -1.229  10.767   8.905  0.2001 -0.8285 -0.3122
  598MOL0     C80639  -1.344  10.678   8.857 -0.9086  0.6019 -0.8186
  598MOL0    Cl80640  -1.456  10.760   8.747 -0.1606  0.0260  0.0105
  598MOL0     C80641  -0.339  10.653   8.870  0.8676  0.0635  0.3468
  598MOL0     C80642  -0.213  10.632   8.822 -0.1067  0.7562  0.7444
  598MOL0     O80643  -0.134  10.519   8.472  0.0943 -0.4223  0.2125
  598MOL0     C80644   0.115  10.458   8.388 -0.2610 -0.0575  0.2376
  598MOL0     C80645   0.244  10.475   8.324  0.7369  0.3535  0.5435
  598MOL0     N80646   1.030  10.672   7.905  0.3700  0.0961 -0.1580
  598MOL0     N80647   1.072  10.677   7.782  1.0639 -0.3708 -0.5455
  598MOL0     C80648   1.885  10.252   6.725 -0.1697  0.5708 -0.5106
  598MOL0     C80649   2.011  10.251   6.666  0.6529  0.2425 -0.5565
  598MOL0     C80650   2.472  10.363   6.604 -0.2698  0.7292  0.9459
  598MOL0     C80651   2.601  10.400   6.639 -0.4542  0.0890  0.5104
  598MOL0     C80652   2.701  10.384   6.546 -0.2116 -0.0283 -0.2231
  598MOL0     C80653   2.696  10.315   6.432  0.3780 -0.7624  0.3408
  598MOL0     O80654   2.795  10.288   6.349  0.3026  0.8079  0.3623
  598MOL0     C80655   2.868  10.166   6.373 -0.4050 -0.8174 -0.4350
  598MOL0     C80656   2.947  10.124   6.252  0.1497  0.0688  0.2804
  598MOL0     C80657   3.072  10.214   6.239  0.1752 -0.6774  1.1166
  598MOL0     C80658   3.158  10.166   6.123 -0.0589  0.5355 -0.6309
  598MOL0     C80659   3.253  10.063   6.155  0.1730 -0.1482  0.8230
  598MOL0     C80660   3.325   9.968   6.165  0.5519  0.1813  0.6372
  598MOL0     C80661   2.573  10.273   6.390  0.5021 -0.4816 -0.5345
  598MOL0     C80662   2.458  10.295   6.477 -0.8052 -0.3589  0.1888
  598MOL0     H80663   2.123  10.543   6.787 -0.5761 -0.1219  2.8623
  598MOL0     H80664   1.880  10.541   6.899  2.1250  2.5234 -1.9738
  598MOL0     H80665   1.762  10.373   7.053 -1.5982 -0.3646  0.9569
  598MOL0     H80666   1.693  10.513   6.972 -1.3125  1.1210  2.8119
  598MOL0     H80667   1.486  10.431   6.963  1.8878 -0.6179 -0.9441
  598MOL0     H80668   1.515  10.287   7.061  3.8036 -1.0187 -1.9065
  598MOL0     H80669   1.578  10.445   7.245 -2.4569 -1.1767  0.5036
  598MOL0     H80670   1.515  10.587   7.138  0.6246  0.5153 -2.3706
  598MOL0     H80671   1.303  10.533   7.175  0.7342 -0.4731 -1.7709
  598MOL0     H80672   1.331  10.360   7.195  1.3437  0.2997 -0.5043
  598MOL0     H80673   1.398  10.396   7.428 -0.0256 -0.4140  0.0918
  598MOL0     H80674   1.408  10.576   7.394  1.0194 -0.2550 -2.9100
  598MOL0     H80675   1.161  10.585   7.362  1.3542 -0.9696 -3.1335
  598MOL0     H80676   1.147  10.412   7.393 -1.5985 -0.2509  3.3055
  598MOL0     H80677   1.263  10.462   7.629  0.8482  0.8854  0.5962
  598MOL0     H80678   1.247  10.627   7.577  0.0691  0.2615  1.2010
  598MOL0     H80679   0.992  10.454   7.556  4.0739 -2.3520 -0.3450
  598MOL0     H80680   1.012  10.630   7.538  0.3403 -0.1176 -1.2750
  598MOL0     H80681   0.869  10.414   7.785 -1.1857  0.0932  1.8623
  598MOL0     H80682   0.881  10.443   8.077  0.9937  0.4022  2.7075
  598MOL0     H80683   0.878  10.620   8.108 -3.6152  2.5101 -0.4443
  598MOL0     H80684   0.668  10.477   7.966  0.1747  0.0871 -0.6811
  598MOL0     H80685   0.670  10.657   8.011  1.0831  0.6736  3.0773
  598MOL0     H80686   0.707  10.617   8.240  1.8348  2.4870 -4.2639
  598MOL0     H80687   0.688  10.442   8.239 -1.7635  0.4082  1.5221
  598MOL0     H80688   0.468  10.441   8.184 -1.9227  1.2223 -2.5325
  598MOL0     H80689   0.458  10.607   8.128 -1.7676  1.1397  2.6902
  598MOL0     H80690   0.393  10.691   8.531  0.3552  1.6285 -2.7437
  598MOL0     H80691   0.247  10.767   8.692  0.3093 -0.1976  1.3210
  598MOL0     H80692   0.077  10.788   8.632  1.1069 -0.0461 -1.2567
  598MOL0     H80693   0.101  10.679   8.755 -0.9364 -0.0979 -0.8832
  598MOL0     H80694  -0.246  10.354   8.647  2.1401 -0.8709  0.2593
  598MOL0     H80695  -0.493  10.380   8.744  1.2871 -0.4631 -1.1761
  598MOL0     H80696  -0.515  10.514   9.073 -1.5449 -1.3862  1.7281
  598MOL0     H80697  -0.594  10.676   9.082  2.9046  1.0065  0.0632
  598MOL0     H80698  -0.739  10.423   8.994 -4.9830  1.2424 -2.2262
  598MOL0     H80699  -0.713  10.473   9.158 -0.1675 -1.5710 -1.3401
  598MOL0     H80700  -0.850  10.641   8.947  0.4700  0.9129  0.7139
  598MOL0     H80701  -0.846  10.656   9.122  1.4104  0.3852 -1.1833
  598MOL0     H80702  -0.979  10.432   8.947  1.8259  0.7505 -0.4256
  598MOL0     H80703  -0.977  10.444   9.128 -1.0381 -1.6746 -1.3752
  598MOL0     H80704  -1.119  10.638   9.103  0.3717  0.1515 -0.5913
  598MOL0     H80705  -1.180  10.520   8.984 -0.8603  1.6287 -2.2998
  598MOL0     H80706  -1.021  10.766   8.930 -0.9195  1.6103  0.4863
  598MOL0     H80707  -1.082  10.651   8.810  1.8749 -1.7453  2.1167
  598MOL0     H80708  -1.222  10.844   8.828  1.7406 -1.9210 -1.3190
  598MOL0     H80709  -1.241  10.814   9.003  0.2472 -0.6786 -0.3786
  598MOL0     H80710  -1.404  10.647   8.943  1.8837  1.4657  1.6305
  598MOL0     H80711  -1.301  10.586   8.815 -2.4562 -0.4114 -0.2494
  598MOL0     H80712  -0.353  10.733   8.942  0.1871  1.7983 -1.6181
  598MOL0     H80713  -0.136  10.702   8.850  1.8597  0.0742 -2.4448
  598MOL0     H80714   0.043  10.382   8.358  1.4369 -1.6355 -0.0939
  598MOL0     H80715   0.262  10.405   8.243  0.3545  0.9338 -0.0523
  598MOL0     H80716   1.813  10.176   6.698 -0.5005  0.5277  0.4790
  598MOL0     H80717   2.029  10.169   6.597 -0.5834 -0.2801 -0.2870
  598MOL0     H80718   2.621  10.448   6.734 -0.8928 -1.7638  1.5854
  598MOL0     H80719   2.799  10.416   6.577 -0.6559 -0.0717  1.3092
  598MOL0     H80720   2.938  10.198   6.451  1.2604  1.3159 -2.6415
  598MOL0     H80721   2.792  10.100   6.416 -0.6624 -0.6516 -0.6260
  598MOL0     H80722   2.878  10.119   6.168  0.3810  3.1324 -0.2180
  598MOL0     H80723   2.981  10.021   6.264  0.6932  0.0536 -1.2121
  598MOL0     H80724   3.130  10.211   6.332  0.1292  0.1006  1.1737
  598MOL0     H80725   3.040  10.317   6.220 -1.8911 -1.4889 -0.1402
  598MOL0     H80726   3.215  10.255   6.094 -2.1664  3.2034  2.7844
  598MOL0     H80727   3.084  10.136   6.048 -0.8613  0.3665  0.2100
  598MOL0     H80728   3.416   9.911   6.170  0.9324  0.3847 -2.2957
  598MOL0     H80729   2.566  10.215   6.299  2.9184 -1.0897 -0.4161
  598MOL0     H80730   2.361  10.265   6.439 -0.9029  1.8123 -1.4533
  599MOL0     O80731   9.840   0.120   8.458 -0.0284  0.2123 -0.2367
  599MOL0     C80732   9.936   0.047   8.486 -0.7727 -0.2470  0.2605
  599MOL0     O80733   9.925  -0.079   8.536  0.1100 -0.6454 -0.2233
  599MOL0     C80734   9.811  -0.127   8.594  0.4380 -0.0259  0.5146
  599MOL0     C80735   9.701  -0.058   8.640 -0.1480 -0.6643 -0.0593
  599MOL0     C80736   9.617  -0.133   8.713  0.5762  0.2658  0.0589
  599MOL0     C80737   9.629  -0.271   8.747  0.1138  0.2828  0.3961
  599MOL0     O80738   9.536  -0.337   8.821 -0.2175 -0.4804  0.8418
  599MOL0     C80739   9.419  -0.259   8.868  0.0431  0.1229 -0.4836
  599MOL0     C80740   9.314  -0.360   8.923 -0.1607  0.0590 -0.7647
  599MOL0     C80741   9.242  -0.430   8.815  0.2619  0.4234  0.2915
  599MOL0     C80742   9.126  -0.524   8.865  0.4992  0.0738  0.1722
  599MOL0     C80743   9.066  -0.580   8.736 -0.7740 -0.2775  0.3102
  599MOL0     C80744   8.941  -0.661   8.755 -0.1576 -0.1291 -0.5249
  599MOL0     C80745   8.926  -0.735   8.620  0.4364  0.2476  0.0151
  599MOL0     C80746   8.812  -0.838   8.637 -0.3193  0.1826 -0.3417
  599MOL0     N80747   8.832  -0.950   8.542  0.0841 -0.3107 -0.4798
  599MOL0     C80748   8.773  -1.074   8.554 -0.1266 -0.1066 -0.5696
  599MOL0     C80749   8.770  -1.136   8.433  0.2233 -0.6481 -0.3403
  599MOL0     C80750   8.690  -1.258   8.408 -0.3288  0.6410 -0.3630
  599MOL0     C80751   8.722  -1.324   8.277 -0.0397 -0.1638 -0.7290
  599MOL0     C80752   8.653  -1.248   8.154 -0.2108 -0.3826 -0.3741
  599MOL0     C80753   8.704  -1.303   8.027 -0.1388  0.0123  0.1830
  599MOL0     O80754   8.624  -1.419   7.992 -0.5952  0.2084 -0.4068
  599MOL0     C80755   8.523  -1.383   7.904 -0.5566 -0.2826 -0.0649
  599MOL0     C80756   8.558  -1.365   7.775  0.2880  0.5192  0.4039
  599MOL0     C80757   8.460  -1.355   7.681  0.7682 -0.1716  0.2917
  599MOL0     C80758   8.525  -1.353   7.541 -0.1760 -0.2325 -0.5108
  599MOL0     C80759   8.321  -1.365   7.710 -0.0200 -0.0164  0.6067
  599MOL0     C80760   8.210  -1.350   7.604 -0.4241  0.0834  0.0579
  599MOL0     O80761   8.085  -1.336   7.653 -0.6517  0.1103 -0.7846
  599MOL0     C80762   7.979  -1.349   7.573  0.1619 -0.4123 -0.4083
  599MOL0     C80763   7.935  -1.242   7.497  0.2730 -0.1097  1.1404
  599MOL0     C80764   7.823  -1.251   7.409 -0.0468  0.2910  0.2651
  599MOL0     C80765   7.749  -1.365   7.410 -0.0953  0.5191 -0.6568
  599MOL0     O80766   7.631  -1.385   7.345  0.2224 -0.3544  0.1471
  599MOL0     C80767   7.572  -1.269   7.289 -0.1107  0.4501 -0.8079
  599MOL0     C80768   7.436  -1.313   7.246  1.1489 -0.1307 -0.0108
  599MOL0     C80769   7.351  -1.198   7.186  0.2544 -0.1405  0.4055
  599MOL0     C80770   7.226  -1.260   7.119 -0.2932 -0.5570 -0.9287
  599MOL0     C80771   7.109  -1.161   7.067 -0.9654  1.0158 -0.2647
  599MOL0     C80772   7.047  -1.078   7.180 -0.2951 -0.1538  0.2090
  599MOL0     C80773   6.934  -0.980   7.125  0.0730 -0.0393  0.7348
  599MOL0     C80774   6.870  -0.899   7.237 -1.0447 -0.0493  0.0400
  599MOL0    Cl80775   6.735  -0.811   7.167 -0.1281  0.1322 -0.5606
  599MOL0     C80776   7.803  -1.480   7.468  0.5520  0.0200  0.6891
  599MOL0     C80777   7.916  -1.475   7.558 -0.1944 -0.4300  0.5997
  599MOL0     O80778   8.235  -1.367   7.489  0.1479  0.6040  0.6293
  599MOL0     C80779   8.296  -1.379   7.842 -0.2653  0.4529  0.2954
  599MOL0     C80780   8.395  -1.386   7.946  0.1604  0.0140  0.1916
  599MOL0     N80781   8.807  -1.042   8.340 -0.3645 -0.0284 -0.6782
  599MOL0     N80782   8.854  -0.935   8.404 -0.0441  0.1704 -0.5171
  599MOL0     C80783   9.738  -0.337   8.693 -0.3865  0.0728  0.8652
  599MOL0     C80784   9.833  -0.265   8.620 -0.4201 -0.0171  1.0232
  599MOL0     C80785  10.066   0.095   8.459 -0.0222 -0.4039 -0.3392
  599MOL0     C80786  10.092   0.228   8.442 -0.2106 -0.2369 -0.4013
  599MOL0     C80787  10.228   0.275   8.424 -0.7385 -0.2816  0.7406
  599MOL0     C80788  10.331   0.188   8.408  0.8824  0.6290  0.2924
  599MOL0     O80789  10.467   0.225   8.400 -0.0346  0.6954  0.5961
  599MOL0     C80790  10.513   0.362   8.385  0.8891  0.0652 -0.5026
  599MOL0     C80791  10.655   0.358   8.318 -0.1935  0.9016 -0.6581
  599MOL0     C80792  10.669   0.470   8.222  0.4882 -0.6488  0.7727
  599MOL0     C80793  10.810   0.457   8.160  0.2069 -0.2743 -0.0237
  599MOL0     C80794  10.912   0.538   8.227 -0.2795  1.0204  0.6198
  599MOL0     C80795  10.987   0.610   8.276 -0.2038 -0.2654 -0.7450
  599MOL0     C80796  10.307   0.051   8.414 -0.0587 -0.8590 -0.0684
  599MOL0     C80797  10.178   0.014   8.446  0.3524  0.0075 -0.6561
  599MOL0     H80798   9.681   0.046   8.618 -0.2202 -0.8268 -0.7772
  599MOL0     H80799   9.534  -0.073   8.748  0.3033 -0.6128  0.9545
  599MOL0     H80800   9.451  -0.199   8.954 -0.7098  1.7798 -1.3023
  599MOL0     H80801   9.370  -0.191   8.798  0.5525  0.1091 -0.8585
  599MOL0     H80802   9.360  -0.445   8.975 -0.1664 -1.1524 -2.6400
  599MOL0     H80803   9.235  -0.317   8.986 -0.9237 -1.2907 -0.7499
  599MOL0     H80804   9.205  -0.358   8.741 -2.9970 -0.6414  0.7370
  599MOL0     H80805   9.308  -0.491   8.753  0.0053  1.7887 -1.4310
  599MOL0     H80806   9.162  -0.606   8.929  0.3287  0.0428  0.2283
  599MOL0     H80807   9.046  -0.467   8.913  1.6991  3.6740 -1.7276
  599MOL0     H80808   9.056  -0.505   8.657  1.3256 -1.9164 -1.6706
  599MOL0     H80809   9.144  -0.649   8.702 -1.4152 -0.1392 -1.5551
  599MOL0     H80810   8.954  -0.738   8.832  2.0427 -1.4327 -2.0928
  599MOL0     H80811   8.848  -0.605   8.764 -0.1505  0.4897 -3.3385
  599MOL0     H80812   8.889  -0.668   8.542 -2.4014 -2.2679 -0.9681
  599MOL0     H80813   9.022  -0.784   8.600 -1.2088 -4.8494  2.7348
  599MOL0     H80814   8.708  -0.805   8.631 -0.6267 -0.6789  0.1557
  599MOL0     H80815   8.827  -0.885   8.735  2.1260 -0.1761 -0.8176
  599MOL0     H80816   8.736  -1.129   8.639 -2.7102  3.7424  1.0897
  599MOL0     H80817   8.710  -1.339   8.479  1.2568  1.5287  0.2383
  599MOL0     H80818   8.585  -1.229   8.417 -0.4750 -0.3095  1.3188
  599MOL0     H80819   8.686  -1.427   8.272  1.9538 -0.9355 -0.2744
  599MOL0     H80820   8.831  -1.331   8.277  0.0483  0.7950  0.1225
  599MOL0     H80821   8.665  -1.140   8.165 -0.2365 -0.2833 -1.2595
  599MOL0     H80822   8.547  -1.273   8.155 -0.3853  0.3278 -0.5496
  599MOL0     H80823   8.811  -1.326   8.033  0.2332  2.0034  2.3089
  599MOL0     H80824   8.696  -1.222   7.953  1.8197  1.0481  1.0330
  599MOL0     H80825   8.660  -1.374   7.741  0.8807  0.0480  2.1729
  599MOL0     H80826   8.620  -1.298   7.538  0.5235 -1.4418 -1.3619
  599MOL0     H80827   8.554  -1.454   7.513  1.2779 -0.3344  1.1550
  599MOL0     H80828   8.468  -1.290   7.471  0.1731  2.8596  1.7565
  599MOL0     H80829   8.003  -1.157   7.503 -1.0818  1.2406 -1.1972
  599MOL0     H80830   7.798  -1.175   7.335 -1.4822 -3.9014 -4.1298
  599MOL0     H80831   7.561  -1.182   7.355  2.7661  1.1790 -1.1780
  599MOL0     H80832   7.620  -1.231   7.198  1.7838 -1.6806 -0.7799
  599MOL0     H80833   7.457  -1.389   7.170 -1.3438 -0.2350 -0.6770
  599MOL0     H80834   7.382  -1.357   7.331 -0.9395  1.8258 -0.2169
  599MOL0     H80835   7.405  -1.142   7.109 -0.2348  0.8473  0.7647
  599MOL0     H80836   7.320  -1.127   7.263 -2.0630 -1.5895  0.9032
  599MOL0     H80837   7.261  -1.323   7.037 -3.2657 -2.9963 -0.5235
  599MOL0     H80838   7.183  -1.333   7.189 -0.9001  0.8645  0.2209
  599MOL0     H80839   7.032  -1.217   7.012  1.4062 -1.3082 -1.4363
  599MOL0     H80840   7.172  -1.101   7.001  1.1560 -2.7340 -1.9863
  599MOL0     H80841   7.006  -1.144   7.257 -1.6500 -2.6382 -2.4582
  599MOL0     H80842   7.109  -1.000   7.224 -2.3958  3.3068 -2.4245
  599MOL0     H80843   6.867  -1.047   7.070 -0.9664  1.2911  0.3285
  599MOL0     H80844   6.957  -0.910   7.044 -2.1493  1.3110  1.1997
  599MOL0     H80845   6.944  -0.829   7.277 -0.5517  0.0324 -0.9640
  599MOL0     H80846   6.833  -0.966   7.314  1.6609 -1.3753  0.3205
  599MOL0     H80847   7.748  -1.573   7.460  1.4678 -0.4748  0.0554
  599MOL0     H80848   7.950  -1.565   7.609 -2.3212 -2.5667 -1.5149
  599MOL0     H80849   8.193  -1.381   7.878  0.4955 -0.6403  2.5903
  599MOL0     H80850   8.372  -1.401   8.051 -1.7321 -1.6189 -0.3942
  599MOL0     H80851   9.750  -0.444   8.711 -1.0852 -0.4096 -1.2784
  599MOL0     H80852   9.929  -0.309   8.599  0.2388  2.2348 -1.1794
  599MOL0     H80853  10.019   0.308   8.442  1.3256  1.3449  2.3743
  599MOL0     H80854  10.244   0.382   8.417 -1.9893 -0.1767 -1.0123
  599MOL0     H80855  10.448   0.426   8.324  0.0590  2.3020  2.5026
  599MOL0     H80856  10.520   0.415   8.480  3.1881  3.3457 -2.2878
  599MOL0     H80857  10.660   0.267   8.256 -1.3125  0.4594 -0.1396
  599MOL0     H80858  10.727   0.363   8.399  0.2707 -1.2951 -0.8725
  599MOL0     H80859  10.651   0.565   8.274 -1.2517  0.6073 -1.9276
  599MOL0     H80860  10.598   0.452   8.141  0.5676 -0.4994  0.6714
  599MOL0     H80861  10.801   0.503   8.061  0.5880  2.8847  1.3176
  599MOL0     H80862  10.852   0.356   8.164  1.3251  0.2104  1.1850
  599MOL0     H80863  11.057   0.674   8.327 -1.6734  1.0639 -0.3422
  599MOL0     H80864  10.388  -0.021   8.418  0.6398 -0.0307  1.3503
  599MOL0     H80865  10.172  -0.092   8.467  2.7366 -0.4191 -1.7792
  600MOL0     O80866  10.451  10.647   6.445  0.3953  0.1319  0.3604
  600MOL0     C80867  10.488  10.531   6.462 -0.6465 -0.5910 -0.5654
  600MOL0     O80868  10.410  10.422   6.508 -0.6287 -1.0844 -0.4534
  600MOL0     C80869  10.277  10.443   6.523  0.3081  0.6272 -0.1440
  600MOL0     C80870  10.195  10.503   6.432  0.9297  0.8944 -0.0129
  600MOL0     C80871  10.066  10.553   6.480  0.3220 -0.4554 -0.4504
  600MOL0     C80872  10.012  10.517   6.600 -0.2407 -0.4813  0.6734
  600MOL0     O80873   9.889  10.530   6.649  0.2551 -0.3155  0.3004
  600MOL0     C80874   9.785  10.540   6.546 -0.0313 -0.4457 -1.1472
  600MOL0     C80875   9.667  10.618   6.609  0.0711  0.0799 -0.4522
  600MOL0     C80876   9.637  10.578   6.753 -0.5214 -0.2532 -0.0109
  600MOL0     C80877   9.516  10.652   6.812 -0.5157 -0.1740 -0.6325
  600MOL0     C80878   9.449  10.571   6.917  0.4692  0.5798 -0.5873
  600MOL0     C80879   9.328  10.640   6.996  0.3869  0.4668  0.4182
  600MOL0     C80880   9.285  10.546   7.113  1.1249 -0.1834 -0.6278
  600MOL0     C80881   9.139  10.584   7.177  0.1515 -0.4429  0.1651
  600MOL0     N80882   9.023  10.513   7.122 -0.4046  0.0689  0.2483
  600MOL0     C80883   8.959  10.558   7.015  0.5026  0.6582  0.2979
  600MOL0     C80884   8.858  10.474   6.998  1.0573  0.5221  0.3959
  600MOL0     C80885   8.749  10.471   6.888  0.3690 -0.2425 -0.2466
  600MOL0     C80886   8.753  10.373   6.770 -0.2164 -0.1533  0.3519
  600MOL0     C80887   8.614  10.342   6.699 -0.0282  0.1984 -0.5577
  600MOL0     C80888   8.638  10.279   6.564  0.3537 -0.7030  0.3243
  600MOL0     O80889   8.737  10.174   6.568 -0.1528  0.3034 -0.5428
  600MOL0     C80890   8.752  10.101   6.447 -1.2203 -0.2447 -0.8753
  600MOL0     C80891   8.677  10.128   6.334  0.0848 -0.5792  0.7314
  600MOL0     C80892   8.705  10.064   6.214  0.1248  1.1674 -1.0338
  600MOL0     C80893   8.635  10.118   6.088 -0.0709 -0.3248 -0.8504
  600MOL0     C80894   8.799   9.959   6.205 -0.1061  0.2840  0.2407
  600MOL0     C80895   8.803   9.855   6.091 -0.4440  1.0031 -0.2310
  600MOL0     O80896   8.731   9.872   5.981  0.2694  0.0662  0.6017
  600MOL0     C80897   8.754   9.805   5.861  0.0843  0.8807 -0.2053
  600MOL0     C80898   8.651   9.718   5.814 -0.7571 -0.0132  0.2531
  600MOL0     C80899   8.669   9.663   5.684  0.6597 -0.3870  0.4835
  600MOL0     C80900   8.770   9.707   5.597 -0.7879  0.1282 -0.4627
  600MOL0     O80901   8.774   9.651   5.469  0.7043  0.3898 -0.0369
  600MOL0     C80902   8.872   9.544   5.457  0.2216 -0.0990  0.4159
  600MOL0     C80903   8.993   9.589   5.369  0.3239  1.0885  0.5665
  600MOL0     C80904   8.942   9.650   5.250  0.2915  0.2350  0.0831
  600MOL0     C80905   9.041   9.670   5.143 -0.5326 -0.0208  0.8330
  600MOL0     C80906   9.163   9.761   5.171 -0.2099 -0.1198  0.5764
  600MOL0     C80907   9.115   9.906   5.158  0.6464 -0.7775  0.2294
  600MOL0     C80908   9.237   9.998   5.172 -0.2403 -0.2350  0.0214
  600MOL0     C80909   9.299  10.018   5.306 -0.1627  0.6629 -0.2175
  600MOL0    Cl80910   9.414   9.887   5.329 -0.3256  0.1472  0.2697
  600MOL0     C80911   8.867   9.800   5.650  0.0289  0.5041 -1.0899
  600MOL0     C80912   8.863   9.847   5.786 -1.0506  0.0137  0.1292
  600MOL0     O80913   8.884   9.762   6.106  0.3234 -0.2081  0.2932
  600MOL0     C80914   8.880   9.942   6.319  1.4623  0.2319  0.2038
  600MOL0     C80915   8.861  10.018   6.431  0.1973 -0.0178 -0.0471
  600MOL0     N80916   8.860  10.378   7.098 -0.4810 -0.4081  0.1891
  600MOL0     N80917   8.959  10.400   7.179  0.0307 -0.4961  0.4149
  600MOL0     C80918  10.101  10.449   6.682 -0.4921  0.4163  0.5671
  600MOL0     C80919  10.234  10.420   6.649  1.2462  0.0576  0.4785
  600MOL0     C80920  10.630  10.512   6.446 -0.4396  1.0649  0.2641
  600MOL0     C80921  10.677  10.382   6.450 -0.6871 -0.4365 -0.2936
  600MOL0     C80922  10.808  10.354   6.420  0.6590  0.9528 -0.4806
  600MOL0     C80923  10.901  10.452   6.390  0.3934  0.4195  0.1439
  600MOL0     O80924  11.025  10.403   6.352  0.0175 -0.4534  0.0731
  600MOL0     C80925  11.094  10.471   6.259 -0.0713 -0.0289 -0.4532
  600MOL0     C80926  11.183  10.364   6.185  0.0841 -1.0306  0.6401
  600MOL0     C80927  11.097  10.277   6.084 -0.3164 -0.0934 -0.1955
  600MOL0     C80928  11.162  10.168   6.006  0.6250 -0.1012  0.6878
  600MOL0     C80929  11.278  10.223   5.938 -0.0390 -0.5330 -0.4280
  600MOL0     C80930  11.367  10.277   5.874 -1.2888  1.2107 -0.4218
  600MOL0     C80931  10.860  10.587   6.403  0.3899 -0.7155  0.3635
  600MOL0     C80932  10.724  10.617   6.428  0.1301  0.2768 -0.4572
  600MOL0     H80933  10.236  10.538   6.338  1.8132  0.9263  0.3795
  600MOL0     H80934  10.011  10.627   6.423 -1.8064 -0.9116  0.9118
  600MOL0     H80935   9.812  10.606   6.463  1.3043 -1.7533 -1.7919
  600MOL0     H80936   9.755  10.443   6.506 -0.0348 -1.0726  0.3067
  600MOL0     H80937   9.698  10.722   6.606  1.5860 -0.3571 -0.8388
  600MOL0     H80938   9.578  10.605   6.548 -0.8012  1.9022  0.3698
  600MOL0     H80939   9.619  10.470   6.755  1.4617 -0.6226  2.8324
  600MOL0     H80940   9.721  10.590   6.822 -0.6715  1.7133 -0.1026
  600MOL0     H80941   9.530  10.751   6.857 -0.9399  0.0975 -1.0833
  600MOL0     H80942   9.443  10.674   6.732  1.0021 -1.5376 -2.4769
  600MOL0     H80943   9.412  10.478   6.873  0.6309  0.2145  0.0429
  600MOL0     H80944   9.527  10.551   6.991  1.0253 -0.3762 -1.4007
  600MOL0     H80945   9.365  10.734   7.037  1.5220 -0.2123  0.9971
  600MOL0     H80946   9.243  10.662   6.930  2.4423  4.8208 -1.1129
  600MOL0     H80947   9.294  10.439   7.093  3.4992 -0.6833  2.4993
  600MOL0     H80948   9.367  10.561   7.183  1.2746  2.3344 -1.2688
  600MOL0     H80949   9.133  10.693   7.172  1.4489 -0.4089 -3.2931
  600MOL0     H80950   9.148  10.559   7.283  3.3273  0.2627  0.1810
  600MOL0     H80951   8.984  10.643   6.952 -0.0458  0.1616 -0.6167
  600MOL0     H80952   8.653  10.444   6.934 -0.5605  0.3049 -1.8045
  600MOL0     H80953   8.735  10.571   6.846  0.0735 -0.8912 -1.7202
  600MOL0     H80954   8.794  10.277   6.803 -0.5396 -0.7983 -1.0409
  600MOL0     H80955   8.824  10.424   6.704 -2.5785  1.7368 -0.8708
  600MOL0     H80956   8.560  10.437   6.684  2.2393  1.1217 -4.0886
  600MOL0     H80957   8.557  10.260   6.744  0.3243  0.3390  0.1660
  600MOL0     H80958   8.681  10.354   6.497 -1.5662  0.0357 -0.1554
  600MOL0     H80959   8.544  10.254   6.513  0.7866 -1.3430 -0.1693
  600MOL0     H80960   8.604  10.208   6.330 -1.8742 -2.2466  1.3661
  600MOL0     H80961   8.574  10.032   6.058 -2.7859  0.0730  2.8799
  600MOL0     H80962   8.570  10.204   6.101 -2.9906 -2.4864 -0.1249
  600MOL0     H80963   8.711  10.135   6.011 -1.1874 -1.8185 -2.3310
  600MOL0     H80964   8.571   9.682   5.878 -0.0768 -2.2204 -0.0630
  600MOL0     H80965   8.597   9.587   5.655  0.2446 -0.6154  2.0227
  600MOL0     H80966   8.895   9.494   5.551  0.2258 -3.3969 -1.2029
  600MOL0     H80967   8.811   9.466   5.411 -1.4088  1.4382 -0.1637
  600MOL0     H80968   9.048   9.668   5.421  2.2099  0.7973 -0.8484
  600MOL0     H80969   9.060   9.505   5.348 -0.5101  0.0478  1.9332
  600MOL0     H80970   8.903   9.748   5.279  0.3303  0.0012  0.9486
  600MOL0     H80971   8.862   9.586   5.210  1.4581 -0.5146 -1.1467
  600MOL0     H80972   9.088   9.577   5.110  1.3347  1.5331 -1.2127
  600MOL0     H80973   9.002   9.713   5.051 -2.6845 -0.5856  1.4236
  600MOL0     H80974   9.247   9.755   5.102 -1.1409 -0.2284 -0.5790
  600MOL0     H80975   9.192   9.752   5.276  2.2229 -1.9710 -0.1685
  600MOL0     H80976   9.063   9.920   5.063 -0.8412  3.7558  1.4475
  600MOL0     H80977   9.032   9.933   5.225 -0.9878  0.0579 -2.0107
  600MOL0     H80978   9.203  10.094   5.132 -3.2921 -1.6998 -1.2118
  600MOL0     H80979   9.319   9.959   5.110  0.9658 -0.0983  1.4790
  600MOL0     H80980   9.232  10.011   5.392 -0.6984  4.5442 -0.1246
  600MOL0     H80981   9.350  10.114   5.318 -2.8554  2.0472  1.1062
  600MOL0     H80982   8.941   9.841   5.582  0.6788  1.4776  0.1675
  600MOL0     H80983   8.939   9.920   5.812 -0.7830 -0.5106  0.8510
  600MOL0     H80984   8.962   9.870   6.322  1.3622  0.0903 -0.3651
  600MOL0     H80985   8.927  10.004   6.516  0.6224 -2.9833 -0.7549
  600MOL0     H80986  10.076  10.436   6.787 -0.0915 -1.5079  0.4580
  600MOL0     H80987  10.297  10.382   6.729 -0.9959  0.2021  2.4522
  600MOL0     H80988  10.622  10.289   6.458 -1.0032 -0.3621 -1.4603
  600MOL0     H80989  10.841  10.253   6.398 -0.2592 -0.2179  2.8489
  600MOL0     H80990  11.026  10.519   6.188 -1.3428 -1.3742 -0.1817
  600MOL0     H80991  11.159  10.537   6.317 -0.9982 -0.9936  1.8161
  600MOL0     H80992  11.225  10.303   6.265  1.5977 -0.0479  0.6424
  600MOL0     H80993  11.265  10.409   6.129  1.0596 -4.2795 -0.7588
  600MOL0     H80994  11.061  10.350   6.011 -0.1942  0.9141  0.7278
  600MOL0     H80995  11.020  10.233   6.148 -2.2207 -0.1028 -2.3593
  600MOL0     H80996  11.096  10.143   5.923 -0.2701  1.8711  0.7686
  600MOL0     H80997  11.196  10.084   6.068 -0.9908 -2.3967 -1.3398
  600MOL0     H80998  11.449  10.336   5.839  1.3025 -0.9168  1.7172
  600MOL0     H80999  10.918  10.679   6.398 -0.0033 -0.4516  0.6810
  600MOL0     H81000  10.702  10.723   6.428  1.9652  0.7778  2.4806
  601MOL0     O81001   2.355   3.581  11.389  0.2948  0.8173 -0.3363
  601MOL0     C81002   2.429   3.516  11.467 -0.2011 -0.2734  0.0592
  601MOL0     O81003   2.562   3.499  11.444 -0.2454 -0.3957 -1.0217
  601MOL0     C81004   2.627   3.572  11.348  0.4157  0.8516 -0.4130
  601MOL0     C81005   2.682   3.502  11.231 -0.3369  0.6381  0.2676
  601MOL0     C81006   2.751   3.576  11.137  0.5415 -1.1952  0.1263
  601MOL0     C81007   2.752   3.717  11.145 -0.1579  0.0119  1.1861
  601MOL0     O81008   2.823   3.793  11.052 -0.2507 -0.0756  0.4689
  601MOL0     C81009   2.815   3.754  10.916  0.0131  0.0918 -0.6789
  601MOL0     C81010   2.669   3.765  10.873 -0.3240 -0.4818 -0.7689
  601MOL0     C81011   2.653   3.714  10.727 -0.5250 -0.5869 -0.1013
  601MOL0     C81012   2.515   3.746  10.659 -0.2268 -0.0221  0.0432
  601MOL0     C81013   2.518   3.698  10.514  0.1918  0.4925  0.2231
  601MOL0     C81014   2.380   3.709  10.442 -0.5461 -1.0512  0.4078
  601MOL0     C81015   2.381   3.660  10.298 -0.0141  0.8746 -0.1293
  601MOL0     C81016   2.470   3.756  10.212  0.0707 -0.2532 -0.5851
  601MOL0     N81017   2.469   3.715  10.077  0.0203 -0.4220 -0.3608
  601MOL0     C81018   2.538   3.782   9.983 -0.0077  0.8047 -0.3788
  601MOL0     C81019   2.547   3.694   9.876 -0.2970 -0.1842 -0.1692
  601MOL0     C81020   2.616   3.724   9.743 -0.2557  1.4807 -0.1315
  601MOL0     C81021   2.760   3.765   9.757 -0.4694 -0.1893  0.1291
  601MOL0     C81022   2.829   3.782   9.621 -0.1900 -0.8965 -0.0611
  601MOL0     C81023   2.842   3.654   9.544 -0.3557 -0.1269 -0.0867
  601MOL0     O81024   2.918   3.561   9.619  0.4463 -0.0946  0.9393
  601MOL0     C81025   3.054   3.573   9.622  0.3406 -0.7476 -0.1467
  601MOL0     C81026   3.129   3.488   9.706  0.4234  0.2241 -0.4065
  601MOL0     C81027   3.267   3.505   9.731 -0.3560 -0.2833 -0.4794
  601MOL0     C81028   3.332   3.416   9.836 -0.0972 -0.4313  0.3752
  601MOL0     C81029   3.340   3.599   9.658 -0.0638 -0.5643  0.4654
  601MOL0     C81030   3.490   3.618   9.669 -0.3653  0.1327  0.8740
  601MOL0     O81031   3.564   3.566   9.763 -0.3426  0.4318 -0.7631
  601MOL0     C81032   3.704   3.589   9.764  0.4069  0.3726 -0.1879
  601MOL0     C81033   3.763   3.694   9.834  0.3273  0.4840 -0.7482
  601MOL0     C81034   3.908   3.697   9.832  0.4725 -0.3855  0.1859
  601MOL0     C81035   3.991   3.603   9.770  0.3798 -0.5381  0.0303
  601MOL0     O81036   4.129   3.614   9.784 -0.0561  0.3658 -0.2937
  601MOL0     C81037   4.185   3.716   9.707 -0.0305 -0.1818  0.0850
  601MOL0     C81038   4.336   3.712   9.705 -0.0883  0.0830 -0.4493
  601MOL0     C81039   4.389   3.572   9.689 -0.0160  0.1093  0.6951
  601MOL0     C81040   4.543   3.566   9.715  0.3612 -0.4385 -0.6446
  601MOL0     C81041   4.607   3.431   9.683  0.0373 -0.0180 -0.5814
  601MOL0     C81042   4.758   3.429   9.726 -0.2386  0.0790  0.1638
  601MOL0     C81043   4.822   3.298   9.684  0.1263  0.4947  0.1371
  601MOL0     C81044   4.965   3.315   9.626  0.0616 -0.1262  1.0203
  601MOL0    Cl81045   4.975   3.437   9.488 -0.1706 -0.4478  0.3178
  601MOL0     C81046   3.924   3.493   9.710 -0.4232 -0.2060  0.0198
  601MOL0     C81047   3.787   3.484   9.717  0.3117  0.5864  0.6468
  601MOL0     O81048   3.536   3.670   9.566  0.8682  0.2456 -0.3709
  601MOL0     C81049   3.265   3.681   9.571 -0.4659  0.6260 -0.1151
  601MOL0     C81050   3.129   3.675   9.565 -0.3710  0.0071 -0.4977
  601MOL0     N81051   2.492   3.570   9.914  0.2204 -0.7647  0.8521
  601MOL0     N81052   2.442   3.585  10.030 -0.9778 -0.4812 -0.0134
  601MOL0     C81053   2.681   3.782  11.244 -0.5524  0.1250  0.4952
  601MOL0     C81054   2.629   3.716  11.351 -0.8138  0.3330  0.0322
  601MOL0     C81055   2.373   3.443  11.583 -0.7781 -0.0024 -0.1562
  601MOL0     C81056   2.242   3.393  11.579 -0.6458 -0.3037  0.6911
  601MOL0     C81057   2.199   3.321  11.687 -0.3117  0.1010 -0.7274
  601MOL0     C81058   2.269   3.307  11.796  0.4758 -0.1932 -0.4737
  601MOL0     O81059   2.212   3.217  11.882  0.4385  0.3570  0.2356
  601MOL0     C81060   2.295   3.146  11.975  0.4231 -0.1523  0.2106
  601MOL0     C81061   2.204   3.055  12.057 -1.2001  0.2158 -0.7094
  601MOL0     C81062   2.159   2.935  11.976  0.3046 -0.3386  0.3575
  601MOL0     C81063   2.052   2.842  12.050  0.1472 -0.0392 -0.2775
  601MOL0     C81064   2.124   2.777  12.161  0.3155  0.2158  0.5700
  601MOL0     C81065   2.174   2.718  12.252  0.2391  0.3892  0.0693
  601MOL0     C81066   2.399   3.344  11.798  0.2506 -1.1016  0.1922
  601MOL0     C81067   2.453   3.410  11.691 -0.7961 -1.8656 -0.5962
  601MOL0     H81068   2.648   3.400  11.213  1.3064 -0.2755  2.0246
  601MOL0     H81069   2.789   3.516  11.055 -0.0785  1.0476 -1.9050
  601MOL0     H81070   2.888   3.811  10.858  0.7951 -0.2288 -0.0354
  601MOL0     H81071   2.844   3.650  10.900 -2.4410 -1.2755  2.6411
  601MOL0     H81072   2.611   3.712  10.949  1.8763 -0.0570  1.3661
  601MOL0     H81073   2.648   3.872  10.883  1.3913 -0.2200  0.6733
  601MOL0     H81074   2.739   3.756  10.674 -0.7949  2.7406  1.8496
  601MOL0     H81075   2.665   3.605  10.732 -0.3007 -0.5149  1.9617
  601MOL0     H81076   2.438   3.696  10.719 -0.9142  1.0085  0.0567
  601MOL0     H81077   2.488   3.851  10.674 -0.6399 -0.1211  0.0035
  601MOL0     H81078   2.593   3.749  10.453 -0.1363  0.8790  0.1433
  601MOL0     H81079   2.553   3.594  10.511 -1.7723 -0.2361  1.1902
  601MOL0     H81080   2.318   3.636  10.495 -1.4092 -1.9657 -1.7701
  601MOL0     H81081   2.340   3.810  10.449  0.3651 -0.7187  1.0992
  601MOL0     H81082   2.413   3.556  10.292  1.5243  1.2379  1.1102
  601MOL0     H81083   2.276   3.665  10.267 -0.3060 -2.9812 -0.1970
  601MOL0     H81084   2.574   3.757  10.246 -0.6228  0.5352  1.6999
  601MOL0     H81085   2.440   3.861  10.216 -1.7029 -0.6820 -1.5847
  601MOL0     H81086   2.605   3.867   9.985 -0.7927  1.4173  0.9179
  601MOL0     H81087   2.615   3.630   9.688  1.6969  1.7864 -0.7960
  601MOL0     H81088   2.550   3.794   9.692 -0.0085  0.5027 -1.8714
  601MOL0     H81089   2.825   3.707   9.823  0.2547  1.5843  1.0531
  601MOL0     H81090   2.756   3.857   9.816  3.3571 -1.3830  2.5609
  601MOL0     H81091   2.925   3.832   9.637 -1.5785  1.2794  2.2057
  601MOL0     H81092   2.767   3.850   9.561  0.1458 -0.2014  0.3676
  601MOL0     H81093   2.883   3.675   9.445  0.0691 -2.3530 -0.4373
  601MOL0     H81094   2.747   3.604   9.521  0.0108 -0.3015 -1.3145
  601MOL0     H81095   3.085   3.415   9.774  0.2668  0.1057 -0.6326
  601MOL0     H81096   3.264   3.343   9.882 -1.3612  0.5988  0.1999
  601MOL0     H81097   3.421   3.366   9.796  2.4984  3.1871  1.0900
  601MOL0     H81098   3.372   3.477   9.917  2.0012 -0.1437 -0.8090
  601MOL0     H81099   3.700   3.765   9.887  1.2763  0.4789  0.4308
  601MOL0     H81100   3.959   3.782   9.876  0.6954  1.3610 -3.0937
  601MOL0     H81101   4.136   3.710   9.609 -4.9694 -1.5974  2.2849
  601MOL0     H81102   4.160   3.817   9.740  3.6952  0.1123  2.6261
  601MOL0     H81103   4.371   3.780   9.627 -1.8765  1.8704  0.2393
  601MOL0     H81104   4.371   3.746   9.802  3.5232  2.9736 -2.4937
  601MOL0     H81105   4.370   3.550   9.584  0.7242  0.6553  0.4468
  601MOL0     H81106   4.335   3.494   9.744 -0.1346 -1.6157 -1.7326
  601MOL0     H81107   4.593   3.647   9.659 -0.1324 -0.0851 -0.5807
  601MOL0     H81108   4.571   3.588   9.818  0.9537  1.5356 -1.1794
  601MOL0     H81109   4.589   3.414   9.576  0.0110  1.5694 -0.8485
  601MOL0     H81110   4.556   3.352   9.740  0.2879 -1.0612 -1.7441
  601MOL0     H81111   4.817   3.514   9.693  1.8049 -1.7633 -1.2061
  601MOL0     H81112   4.766   3.437   9.835  2.0046 -1.2534  0.1614
  601MOL0     H81113   4.765   3.253   9.602  1.0807 -1.8665  0.6896
  601MOL0     H81114   4.823   3.233   9.772 -0.2266  1.0866  0.5886
  601MOL0     H81115   5.014   3.224   9.592 -2.6258 -1.2802 -0.0220
  601MOL0     H81116   5.014   3.356   9.715 -2.5728 -2.0318  3.5606
  601MOL0     H81117   3.995   3.419   9.676  0.5217  0.8260 -0.3401
  601MOL0     H81118   3.732   3.401   9.672 -1.4103  1.4154  1.1227
  601MOL0     H81119   3.305   3.754   9.501 -2.9166  3.4090  1.1574
  601MOL0     H81120   3.088   3.744   9.493  0.4606  1.0019 -0.0571
  601MOL0     H81121   2.683   3.891  11.239 -2.1891  0.1729  0.3636
  601MOL0     H81122   2.568   3.773  11.420  2.5400  2.9016  1.1603
  601MOL0     H81123   2.173   3.404  11.496  2.2938  0.3978 -1.8708
  601MOL0     H81124   2.100   3.285  11.662 -0.4876  1.6998 -2.5738
  601MOL0     H81125   2.372   3.089  11.922 -0.8986 -3.8106  1.8496
  601MOL0     H81126   2.339   3.212  12.049  0.1483 -0.1192  0.3468
  601MOL0     H81127   2.123   3.116  12.099 -1.2947  0.4043 -1.1630
  601MOL0     H81128   2.258   3.017  12.144 -1.5446 -1.2933 -1.1332
  601MOL0     H81129   2.250   2.880  11.951  0.9686 -0.4397  2.7834
  601MOL0     H81130   2.125   2.964  11.876  4.2118  2.6356 -0.3552
  601MOL0     H81131   2.009   2.781  11.969 -0.9843 -0.0922  0.3368
  601MOL0     H81132   1.967   2.902  12.085  1.7305  2.3594 -0.3812
  601MOL0     H81133   2.215   2.673  12.341 -0.4635  3.1611  1.9242
  601MOL0     H81134   2.463   3.316  11.881  1.7013  0.7772 -0.2368
  601MOL0     H81135   2.560   3.430  11.698 -1.0006 -1.2271  1.3342
  602MOL0     O81136   9.427   3.184  11.341  0.1217 -0.0663  0.5048
  602MOL0     C81137   9.470   3.082  11.396 -0.8005  0.6854  0.2240
  602MOL0     O81138   9.392   2.980  11.443  0.7072  0.0486  0.3642
  602MOL0     C81139   9.262   3.017  11.476 -0.1490  1.0101 -0.6432
  602MOL0     C81140   9.223   3.041  11.610 -0.0962 -0.1591  0.2016
  602MOL0     C81141   9.093   3.080  11.641 -0.4617 -0.1405 -0.0893
  602MOL0     C81142   9.001   3.112  11.541  0.9806 -0.6123  0.5657
  602MOL0     O81143   8.872   3.157  11.557 -0.0427 -0.0414  0.2143
  602MOL0     C81144   8.829   3.217  11.683 -0.4777  0.6594 -0.1229
  602MOL0     C81145   8.717   3.312  11.664  0.0712  0.1295 -0.8029
  602MOL0     C81146   8.658   3.367  11.797 -0.7086 -1.1877  0.1616
  602MOL0     C81147   8.591   3.258  11.888 -0.4974  0.6356  0.4267
  602MOL0     C81148   8.485   3.318  11.983 -1.0320 -0.3389 -1.0097
  602MOL0     C81149   8.439   3.216  12.087 -0.1172 -0.4287  0.2322
  602MOL0     C81150   8.360   3.099  12.021  0.3206 -0.4400 -0.1429
  602MOL0     C81151   8.232   3.160  11.957  0.6291  0.2554  0.5510
  602MOL0     N81152   8.154   3.252  12.053 -0.5589 -0.1307 -0.4334
  602MOL0     C81153   8.076   3.197  12.149  0.3414  0.1510  0.3374
  602MOL0     C81154   8.023   3.301  12.205 -0.3620 -1.1602 -0.2599
  602MOL0     C81155   7.904   3.290  12.300  0.1731 -0.9094  0.0035
  602MOL0     C81156   7.785   3.208  12.238 -0.4227 -0.2523  1.0231
  602MOL0     C81157   7.655   3.222  12.314  0.6410  0.6970  0.0036
  602MOL0     C81158   7.667   3.129  12.433  0.0661 -0.1935 -0.9204
  602MOL0     O81159   7.603   3.190  12.543 -0.0676 -0.6362  0.0866
  602MOL0     C81160   7.467   3.180  12.560  0.0045  0.2941 -0.0330
  602MOL0     C81161   7.416   3.218  12.687  0.3500  1.5539  0.2790
  602MOL0     C81162   7.273   3.210  12.722 -0.8303  0.1126 -0.1182
  602MOL0     C81163   7.233   3.256  12.858 -0.0629 -1.4398  0.1536
  602MOL0     C81164   7.178   3.165  12.626  0.1378 -0.0331  0.7385
  602MOL0     C81165   7.029   3.161  12.637 -0.6769  0.0250  0.6602
  602MOL0     O81166   6.968   3.147  12.520  0.4100 -0.2369  0.3264
  602MOL0     C81167   6.833   3.124  12.505 -0.3718  0.3583  0.6746
  602MOL0     C81168   6.727   3.205  12.533  1.1492 -0.5429 -0.3969
  602MOL0     C81169   6.598   3.174  12.494 -0.3061  0.7406 -0.3140
  602MOL0     C81170   6.578   3.055  12.422 -0.2766  0.0376  0.3541
  602MOL0     O81171   6.447   3.006  12.401  0.5313  0.3872  0.1985
  602MOL0     C81172   6.426   2.868  12.360  0.9124 -0.1190 -0.0672
  602MOL0     C81173   6.440   2.853  12.205  0.6755  0.7570  0.6674
  602MOL0     C81174   6.355   2.956  12.125  0.0863 -0.3086 -0.9383
  602MOL0     C81175   6.211   2.905  12.119 -1.2066 -0.2631  0.1378
  602MOL0     C81176   6.128   2.990  12.032  0.0756 -0.7507  0.7993
  602MOL0     C81177   6.131   3.133  12.069  0.3515  0.9106  0.3116
  602MOL0     C81178   6.091   3.150  12.217 -0.2511  0.1054  0.1655
  602MOL0     C81179   6.016   3.274  12.262 -0.7513 -0.1544  0.2518
  602MOL0    Cl81180   5.860   3.290  12.177  0.4856 -0.7003  0.3486
  602MOL0     C81181   6.690   2.968  12.396  0.3513 -0.4657 -0.2185
  602MOL0     C81182   6.816   3.004  12.439  0.4012 -0.1015  1.2271
  602MOL0     O81183   6.968   3.155  12.749  0.0659 -0.3755 -0.0018
  602MOL0     C81184   7.232   3.125  12.505 -0.6995 -0.5892 -0.2018
  602MOL0     C81185   7.371   3.135  12.468 -0.7342  0.0010 -0.1410
  602MOL0     N81186   8.076   3.423  12.154 -0.4849  0.7152 -0.1895
  602MOL0     N81187   8.155   3.389  12.063 -0.2231  0.0225 -0.1678
  602MOL0     C81188   9.034   3.077  11.411  0.2818 -1.0916  0.4261
  602MOL0     C81189   9.165   3.034  11.380  0.1772  0.2162 -0.3949
  602MOL0     C81190   9.616   3.043  11.372 -0.8764 -0.3744  0.4171
  602MOL0     C81191   9.697   3.128  11.288  0.1669  0.9488 -0.0138
  602MOL0     C81192   9.822   3.086  11.262  0.9599 -0.0115 -0.0056
  602MOL0     C81193   9.879   2.973  11.317  0.7172 -0.4924  0.5455
  602MOL0     O81194  10.015   2.950  11.293  0.0962 -0.8629  0.2310
  602MOL0     C81195  10.068   2.829  11.338  0.3847 -0.2491 -0.0207
  602MOL0     C81196  10.143   2.856  11.474 -0.5589 -0.5524 -0.8440
  602MOL0     C81197  10.246   2.968  11.472  0.6351 -0.7009  0.7797
  602MOL0     C81198  10.349   2.953  11.362  0.2580 -0.3894  0.0453
  602MOL0     C81199  10.443   2.840  11.379 -0.0207 -0.8937  0.4670
  602MOL0     C81200  10.501   2.734  11.393  0.8985 -0.2178 -0.0468
  602MOL0     C81201   9.807   2.890  11.400  0.7379 -0.6578 -0.5764
  602MOL0     C81202   9.676   2.929  11.424 -0.5136 -0.4896  0.5262
  602MOL0     H81203   9.300   3.022  11.685  1.0144  1.6728 -0.4083
  602MOL0     H81204   9.059   3.103  11.741 -0.9452  1.0096 -0.5037
  602MOL0     H81205   8.784   3.134  11.738 -0.4656 -2.1623 -3.9433
  602MOL0     H81206   8.914   3.265  11.733  1.2703 -1.2519 -1.0653
  602MOL0     H81207   8.752   3.397  11.604  0.1111  0.9514  0.3446
  602MOL0     H81208   8.645   3.256  11.605  1.1916 -1.0620 -1.0722
  602MOL0     H81209   8.741   3.413  11.851  0.2297 -0.9384 -1.4451
  602MOL0     H81210   8.575   3.433  11.769  0.6893  0.1026 -1.0904
  602MOL0     H81211   8.543   3.187  11.821  2.0079  0.0762 -0.9243
  602MOL0     H81212   8.665   3.214  11.954  0.4266  1.1215 -0.2507
  602MOL0     H81213   8.534   3.397  12.041 -0.5137 -3.2605  2.9270
  602MOL0     H81214   8.403   3.366  11.929 -1.0675  0.4333 -0.3070
  602MOL0     H81215   8.526   3.169  12.133  0.7918 -0.3331 -1.3224
  602MOL0     H81216   8.373   3.259  12.163  1.6289 -3.1104  3.5536
  602MOL0     H81217   8.418   3.043  11.948 -0.1276  1.0894 -1.7498
  602MOL0     H81218   8.329   3.036  12.105  1.1393 -2.2540 -1.1391
  602MOL0     H81219   8.168   3.081  11.916 -0.0745  0.3067  1.5133
  602MOL0     H81220   8.265   3.222  11.873  0.6147  0.5232  0.7419
  602MOL0     H81221   8.044   3.094  12.140 -1.1364  0.6733 -0.8117
  602MOL0     H81222   7.935   3.254  12.399 -1.5718  2.8693  2.1478
  602MOL0     H81223   7.884   3.395  12.324 -0.4104 -0.4345 -2.3582
  602MOL0     H81224   7.821   3.105  12.230 -0.0438 -0.0977  0.7526
  602MOL0     H81225   7.775   3.246  12.136  0.0132 -3.9484 -0.5395
  602MOL0     H81226   7.569   3.183  12.258  0.3938 -0.9764  1.4460
  602MOL0     H81227   7.638   3.328  12.334  4.2677  1.7701 -1.7659
  602MOL0     H81228   7.767   3.108  12.471  0.0966 -1.1166 -1.4675
  602MOL0     H81229   7.630   3.031  12.401  2.9150 -1.4469 -0.7086
  602MOL0     H81230   7.494   3.253  12.752  0.8430 -1.0250  1.1683
  602MOL0     H81231   7.168   3.187  12.914 -3.1775 -1.0598 -2.6618
  602MOL0     H81232   7.325   3.287  12.907  1.5120 -3.0736 -1.6146
  602MOL0     H81233   7.153   3.330  12.844  0.9010 -0.2015  1.0167
  602MOL0     H81234   6.742   3.301  12.581  1.5929 -1.4934  1.4544
  602MOL0     H81235   6.507   3.232  12.511  1.2591  3.0882  0.5035
  602MOL0     H81236   6.488   2.800  12.419 -1.7893 -1.0567  1.9205
  602MOL0     H81237   6.324   2.848  12.395  0.4535  2.7662  0.5323
  602MOL0     H81238   6.546   2.863  12.179  0.6547 -1.5789 -0.6573
  602MOL0     H81239   6.426   2.748  12.178 -0.5039  0.5134  2.1352
  602MOL0     H81240   6.398   2.960  12.025 -0.0910  1.3709 -0.9785
  602MOL0     H81241   6.364   3.054  12.172  0.9022 -0.5554 -0.5652
  602MOL0     H81242   6.204   2.804  12.076 -1.4151  0.2861 -1.1761
  602MOL0     H81243   6.167   2.890  12.217 -0.0608 -3.5051  0.2742
  602MOL0     H81244   6.024   2.958  12.040 -1.9689  5.0140  2.2178
  602MOL0     H81245   6.153   2.985  11.926 -0.3298 -4.0845  0.7423
  602MOL0     H81246   6.229   3.171  12.039  0.2312  0.8570 -0.1628
  602MOL0     H81247   6.058   3.182  12.003  1.8326  2.1875 -0.4441
  602MOL0     H81248   6.172   3.126  12.286 -2.5017 -3.3323  1.9327
  602MOL0     H81249   6.013   3.072  12.217  0.0116 -0.1953  1.9816
  602MOL0     H81250   6.082   3.361  12.254 -2.1790  0.8614 -0.9870
  602MOL0     H81251   5.990   3.268  12.368 -2.9922  1.3138 -0.1677
  602MOL0     H81252   6.696   2.864  12.364  1.1258 -0.6659  0.5378
  602MOL0     H81253   6.903   2.943  12.415 -0.6132 -0.8315 -0.8080
  602MOL0     H81254   7.169   3.093  12.423  0.2887 -2.4103 -0.2960
  602MOL0     H81255   7.410   3.097  12.375  2.0958  2.5378 -0.1387
  602MOL0     H81256   8.961   3.092  11.332  0.8870  2.2720  0.3367
  602MOL0     H81257   9.190   3.025  11.275 -4.6679  1.2224 -1.9051
  602MOL0     H81258   9.649   3.222  11.264  0.9896  1.4669  0.3068
  602MOL0     H81259   9.887   3.154  11.207  1.2046  0.5334  0.9331
  602MOL0     H81260  10.005   2.740  11.346 -2.9002  1.9625  0.9852
  602MOL0     H81261  10.142   2.798  11.263  0.2471 -0.4578 -0.0718
  602MOL0     H81262  10.196   2.763  11.498 -1.1269 -0.7588 -0.3716
  602MOL0     H81263  10.069   2.870  11.553 -0.2862 -0.7144 -0.5578
  602MOL0     H81264  10.288   2.992  11.569 -0.1999 -3.2086  1.8347
  602MOL0     H81265  10.191   3.060  11.450  2.0990  0.0226 -0.0312
  602MOL0     H81266  10.414   3.041  11.369 -1.0819  0.7185 -0.9080
  602MOL0     H81267  10.299   2.953  11.264  0.9144 -1.8871 -0.3161
  602MOL0     H81268  10.545   2.640  11.417  1.6937  0.3522  0.7993
  602MOL0     H81269   9.841   2.794  11.435  1.5905  0.3668  1.5710
  602MOL0     H81270   9.612   2.866  11.484 -0.1491 -0.3820  1.0353
  603MOL0     O81271   3.275   7.545   2.802 -0.3730  0.0832  0.0961
  603MOL0     C81272   3.293   7.472   2.702  0.0702  0.0259 -0.1718
  603MOL0     O81273   3.381   7.494   2.598 -0.7172 -0.0274  0.3753
  603MOL0     C81274   3.460   7.603   2.590 -0.4661  0.0159 -1.0171
  603MOL0     C81275   3.507   7.687   2.695 -0.5372  0.3266 -0.1665
  603MOL0     C81276   3.610   7.777   2.685 -0.4481  0.2945  0.1067
  603MOL0     C81277   3.663   7.806   2.563  0.2782  0.4101  0.2190
  603MOL0     O81278   3.762   7.897   2.533  0.2584 -0.5662  0.3988
  603MOL0     C81279   3.858   7.928   2.631 -0.7941  0.6258 -0.1244
  603MOL0     C81280   3.868   8.081   2.650  0.1120  0.2762 -0.5398
  603MOL0     C81281   3.732   8.147   2.669  0.1587 -0.4976 -0.1217
  603MOL0     C81282   3.731   8.275   2.761  0.6331 -0.3664 -0.1385
  603MOL0     C81283   3.613   8.386   2.735 -0.3076 -0.1163 -1.0493
  603MOL0     C81284   3.472   8.311   2.741 -0.3352  1.0323 -0.1131
  603MOL0     C81285   3.350   8.409   2.745  0.2342 -0.0404 -0.2363
  603MOL0     C81286   3.231   8.322   2.797  0.4884  0.0087  0.3931
  603MOL0     N81287   3.101   8.394   2.800  0.3238 -0.2434  1.1253
  603MOL0     C81288   3.016   8.393   2.690  0.4053  0.5115  0.5428
  603MOL0     C81289   2.893   8.421   2.738  1.1738 -0.3992  0.7318
  603MOL0     C81290   2.765   8.413   2.662 -0.0152  0.5508  0.7130
  603MOL0     C81291   2.709   8.277   2.623 -0.1243  0.0822  0.6231
  603MOL0     C81292   2.625   8.208   2.737  0.5843 -0.0286 -0.0849
  603MOL0     C81293   2.722   8.173   2.851  0.0336  0.2464 -0.0842
  603MOL0     O81294   2.830   8.098   2.791 -0.0449 -0.0690  0.0337
  603MOL0     C81295   2.946   8.068   2.862 -0.5130  0.7343  1.0249
  603MOL0     C81296   2.966   8.076   2.999  0.7656  0.2712 -0.1891
  603MOL0     C81297   3.090   8.028   3.051 -0.4848  1.1117  0.1319
  603MOL0     C81298   3.109   8.048   3.199 -0.2766  0.9838  0.6026
  603MOL0     C81299   3.191   7.980   2.968 -0.7300 -0.7519 -0.1339
  603MOL0     C81300   3.326   7.954   3.016  0.1159  0.7326 -0.0922
  603MOL0     O81301   3.382   8.040   3.113 -0.4452  0.0864 -0.0509
  603MOL0     C81302   3.520   8.066   3.123  0.8402 -0.3486  0.2191
  603MOL0     C81303   3.614   7.967   3.134 -0.2810 -0.4469  0.0636
  603MOL0     C81304   3.745   7.990   3.180  0.7034  0.2641  0.1616
  603MOL0     C81305   3.788   8.119   3.197 -0.2422  0.0734 -0.0174
  603MOL0     O81306   3.913   8.152   3.235 -0.1358  0.1842  0.1664
  603MOL0     C81307   4.007   8.049   3.218 -0.4534  0.2134  0.6539
  603MOL0     C81308   4.143   8.122   3.212  0.8540  0.5358 -0.5083
  603MOL0     C81309   4.165   8.225   3.103  0.6454  1.1359 -0.8883
  603MOL0     C81310   4.197   8.168   2.968  0.1321 -0.2300  0.4080
  603MOL0     C81311   4.222   8.280   2.863 -0.1473 -0.8166 -0.7036
  603MOL0     C81312   4.291   8.236   2.738 -0.3702  0.6913  0.4513
  603MOL0     C81313   4.199   8.161   2.637 -0.9934 -0.7560  0.0422
  603MOL0     C81314   4.280   8.093   2.528  0.0009  0.0191  0.1328
  603MOL0    Cl81315   4.374   8.208   2.417  0.2169  0.0827 -0.2414
  603MOL0     C81316   3.696   8.223   3.176 -0.2210 -0.2362 -0.1232
  603MOL0     C81317   3.562   8.203   3.140  0.7979  0.7065  0.6716
  603MOL0     O81318   3.389   7.868   2.961 -0.3367 -0.1185 -0.1154
  603MOL0     C81319   3.165   7.950   2.828  0.0245  0.1194 -0.5492
  603MOL0     C81320   3.040   7.999   2.776 -0.0195 -0.2573 -0.1514
  603MOL0     N81321   2.911   8.464   2.870 -0.5607  0.1991 -0.1402
  603MOL0     N81322   3.033   8.441   2.901  0.1368 -0.1317 -0.7378
  603MOL0     C81323   3.619   7.733   2.454 -0.6331  0.9493  0.0172
  603MOL0     C81324   3.527   7.626   2.467  0.0655  0.7916 -0.8056
  603MOL0     C81325   3.206   7.357   2.701 -0.5701  0.4031  0.2633
  603MOL0     C81326   3.100   7.343   2.790 -0.1996  0.0438  0.8653
  603MOL0     C81327   3.010   7.240   2.772  0.4383  0.2598 -0.4546
  603MOL0     C81328   3.037   7.143   2.672  1.1111  0.4310 -1.4072
  603MOL0     O81329   2.958   7.033   2.668  0.6391  0.0906  0.0112
  603MOL0     C81330   2.844   7.065   2.583 -0.1201  0.9554 -0.5367
  603MOL0     C81331   2.865   7.001   2.446  1.2222  0.8057 -0.1750
  603MOL0     C81332   2.734   6.991   2.368 -0.1549  0.2614  0.3690
  603MOL0     C81333   2.761   6.932   2.234  0.3814 -0.1062 -0.3102
  603MOL0     C81334   2.823   6.797   2.249 -0.3789  0.5493 -0.0890
  603MOL0     C81335   2.868   6.688   2.280 -1.0058  0.3731  0.0474
  603MOL0     C81336   3.144   7.150   2.585  0.1111  0.6020  0.3309
  603MOL0     C81337   3.226   7.261   2.597  0.5585 -0.1251 -0.6343
  603MOL0     H81338   3.469   7.672   2.796  0.9824 -0.9302  0.2705
  603MOL0     H81339   3.626   7.839   2.772  1.0892  0.4990 -0.2929
  603MOL0     H81340   3.849   7.891   2.734  2.4380  0.8623  0.3474
  603MOL0     H81341   3.947   7.878   2.592 -0.8409  1.0526 -0.7850
  603MOL0     H81342   3.925   8.102   2.741  1.8584 -3.2465 -0.6720
  603MOL0     H81343   3.933   8.121   2.571 -0.2660  0.9564 -0.5104
  603MOL0     H81344   3.700   8.181   2.570  4.3071 -0.2226 -1.5335
  603MOL0     H81345   3.654   8.085   2.715 -1.3879  0.8125 -0.8366
  603MOL0     H81346   3.718   8.249   2.866  1.2982  0.9837  0.2912
  603MOL0     H81347   3.827   8.328   2.756  1.4068 -1.6838  0.2690
  603MOL0     H81348   3.612   8.464   2.811  0.7229  0.1689 -1.3162
  603MOL0     H81349   3.625   8.439   2.640  2.2186  3.3862  0.9915
  603MOL0     H81350   3.461   8.235   2.664 -0.2922 -1.6447  2.3449
  603MOL0     H81351   3.470   8.252   2.833  0.6417  0.9204 -0.1571
  603MOL0     H81352   3.377   8.477   2.826  1.3496  0.8428 -1.3082
  603MOL0     H81353   3.330   8.463   2.652 -2.8630  1.2353  1.0307
  603MOL0     H81354   3.247   8.290   2.900  0.0208  1.7426  1.0473
  603MOL0     H81355   3.214   8.229   2.742  2.6725 -0.2927  0.1491
  603MOL0     H81356   3.036   8.365   2.587 -2.0178  0.1626  0.1139
  603MOL0     H81357   2.694   8.461   2.731 -2.3438  0.3069 -1.3487
  603MOL0     H81358   2.774   8.477   2.574  4.0181 -0.6373  0.0875
  603MOL0     H81359   2.788   8.210   2.588 -0.6815 -0.6558  0.7575
  603MOL0     H81360   2.642   8.282   2.537 -1.5683 -0.9129  1.6425
  603MOL0     H81361   2.576   8.113   2.713  2.5118 -1.1386  0.1809
  603MOL0     H81362   2.540   8.273   2.761  0.2083 -0.0488 -1.3356
  603MOL0     H81363   2.671   8.103   2.918  2.2059 -0.1313  1.2941
  603MOL0     H81364   2.764   8.260   2.903  1.7382 -0.2459 -0.5442
  603MOL0     H81365   2.902   8.139   3.061 -2.1268  0.6522 -3.2324
  603MOL0     H81366   3.010   8.058   3.245 -0.7047  0.8677 -0.2739
  603MOL0     H81367   3.170   7.966   3.239  1.3724  0.2593 -2.9894
  603MOL0     H81368   3.155   8.145   3.220  1.1361  0.0951  1.7844
  603MOL0     H81369   3.595   7.862   3.114  0.8023 -0.5559 -0.4660
  603MOL0     H81370   3.816   7.907   3.187  3.2972  2.3199 -0.0101
  603MOL0     H81371   4.010   7.974   3.298  2.7348  0.2276  0.6496
  603MOL0     H81372   4.004   7.995   3.123  2.5384  3.1197 -1.2931
  603MOL0     H81373   4.166   8.160   3.312  1.3963  1.4483 -0.9637
  603MOL0     H81374   4.220   8.047   3.194 -0.3787 -0.9441  0.1188
  603MOL0     H81375   4.251   8.290   3.124  2.4107  0.0723 -4.0860
  603MOL0     H81376   4.074   8.286   3.097  1.4654  2.3277 -1.7952
  603MOL0     H81377   4.280   8.100   2.988 -0.2879 -0.4193  1.6009
  603MOL0     H81378   4.116   8.105   2.930  2.0559 -0.6919 -3.3632
  603MOL0     H81379   4.293   8.347   2.913 -0.5439  1.5460 -3.1047
  603MOL0     H81380   4.137   8.346   2.849  0.0152 -0.0391  1.5272
  603MOL0     H81381   4.338   8.321   2.687  3.5151 -2.6165 -2.1643
  603MOL0     H81382   4.374   8.169   2.762  0.0030  1.2151  0.6506
  603MOL0     H81383   4.128   8.230   2.591 -0.1109  0.7454  0.8749
  603MOL0     H81384   4.145   8.080   2.686  0.2675 -2.6043 -1.4587
  603MOL0     H81385   4.213   8.033   2.466  0.7523  0.5500 -1.2328
  603MOL0     H81386   4.348   8.017   2.568 -0.6344 -0.6375 -0.0094
  603MOL0     H81387   3.742   8.321   3.178 -0.3380 -0.1854  1.9359
  603MOL0     H81388   3.486   8.277   3.116 -0.1900 -1.5583 -4.8650
  603MOL0     H81389   3.234   7.904   2.759 -0.0058 -1.7397  0.5911
  603MOL0     H81390   3.019   7.991   2.669  1.4570 -2.4950 -0.3512
  603MOL0     H81391   3.679   7.745   2.364  0.6285  0.8223  0.8092
  603MOL0     H81392   3.519   7.562   2.379 -1.5709  0.6870 -0.6008
  603MOL0     H81393   3.068   7.411   2.869 -2.9555 -0.0106 -0.0952
  603MOL0     H81394   2.929   7.247   2.844 -0.0630  1.9067 -1.1316
  603MOL0     H81395   2.750   7.038   2.634 -0.3465  0.2048 -1.3252
  603MOL0     H81396   2.836   7.174   2.576  0.4770  1.1143  0.9526
  603MOL0     H81397   2.921   6.906   2.447  1.7250  1.0200 -2.4979
  603MOL0     H81398   2.923   7.076   2.392  0.0648 -0.0713 -2.7760
  603MOL0     H81399   2.708   7.094   2.343  0.4065  0.0511 -1.1565
  603MOL0     H81400   2.655   6.935   2.420 -2.5778  0.9631 -2.3402
  603MOL0     H81401   2.826   6.996   2.173  1.2719 -1.5549 -0.9530
  603MOL0     H81402   2.677   6.909   2.168 -0.2022 -2.3692  1.1228
  603MOL0     H81403   2.922   6.598   2.301  3.3761  1.5951 -4.1054
  603MOL0     H81404   3.162   7.067   2.517  1.4751 -0.3712  1.7960
  603MOL0     H81405   3.309   7.256   2.528  0.0350 -2.9982 -1.1778
  604MOL0     O81406   0.857   0.203   1.678  0.7370 -1.2214  0.8319
  604MOL0     C81407   0.834   0.236   1.562  0.0820  0.5479 -0.1751
  604MOL0     O81408   0.708   0.285   1.509 -0.5396  0.0443 -0.7093
  604MOL0     C81409   0.608   0.317   1.593 -0.7240 -0.0303 -0.0184
  604MOL0     C81410   0.631   0.426   1.681  0.7441  0.2247  0.4329
  604MOL0     C81411   0.523   0.461   1.771  0.4657  0.4071  0.1499
  604MOL0     C81412   0.396   0.392   1.759 -0.5830 -0.2137 -0.0122
  604MOL0     O81413   0.295   0.433   1.842  0.0566 -0.4579 -0.1175
  604MOL0     C81414   0.184   0.355   1.868  0.0872 -0.1156 -0.2031
  604MOL0     C81415   0.224   0.242   1.963 -0.3968 -0.2060 -0.3446
  604MOL0     C81416   0.107   0.194   2.047 -0.4035  0.6238 -0.8483
  604MOL0     C81417   0.137   0.058   2.115 -0.2516 -0.8162  0.1189
  604MOL0     C81418   0.034   0.012   2.209 -0.2429  0.2170 -0.0475
  604MOL0     C81419  -0.096  -0.034   2.145 -0.0521  0.5520  0.4982
  604MOL0     C81420  -0.213  -0.061   2.245  0.2241 -0.0017 -0.4795
  604MOL0     C81421  -0.339  -0.118   2.168  0.0179 -0.6960  0.2682
  604MOL0     N81422  -0.461  -0.120   2.262  0.4528 -0.3194  0.1890
  604MOL0     C81423  -0.477  -0.201   2.381 -0.3239 -0.8538 -0.4680
  604MOL0     C81424  -0.595  -0.163   2.426 -0.5643  0.4688 -0.8657
  604MOL0     C81425  -0.654  -0.225   2.554  0.1479  0.8872 -0.0033
  604MOL0     C81426  -0.724  -0.359   2.531  0.9957 -0.0011  0.3033
  604MOL0     C81427  -0.854  -0.352   2.460 -0.4419 -0.4029  1.3858
  604MOL0     C81428  -0.904  -0.493   2.415 -0.2805  0.3233 -0.7303
  604MOL0     O81429  -0.924  -0.584   2.518  0.1189 -1.0148  0.8344
  604MOL0     C81430  -1.055  -0.592   2.551 -0.1082  0.1409 -0.5302
  604MOL0     C81431  -1.155  -0.655   2.483  0.8082  0.2787  0.7228
  604MOL0     C81432  -1.283  -0.668   2.530  0.7349  0.5153  0.6311
  604MOL0     C81433  -1.375  -0.754   2.442  0.2225 -0.8137 -0.2875
  604MOL0     C81434  -1.310  -0.605   2.655  0.0042  1.3071 -0.5327
  604MOL0     C81435  -1.443  -0.618   2.721  0.5201 -0.2676  0.4989
  604MOL0     O81436  -1.451  -0.585   2.852 -0.4043  0.0865 -0.2948
  604MOL0     C81437  -1.571  -0.591   2.914  0.7287  0.2776 -0.1895
  604MOL0     C81438  -1.638  -0.712   2.958  0.0880  0.2598  1.4231
  604MOL0     C81439  -1.752  -0.699   3.035 -0.0752  0.1193  0.4810
  604MOL0     C81440  -1.809  -0.574   3.074 -0.5039  1.1203  0.4393
  604MOL0     O81441  -1.913  -0.575   3.160  0.8652 -0.7029  0.1913
  604MOL0     C81442  -1.985  -0.456   3.189  0.2328 -0.1671 -0.0425
  604MOL0     C81443  -2.124  -0.492   3.256  0.5329  0.7795 -0.2950
  604MOL0     C81444  -2.120  -0.536   3.402  0.0199  0.0831  0.4044
  604MOL0     C81445  -2.256  -0.613   3.434 -0.3697 -0.2335 -1.0860
  604MOL0     C81446  -2.259  -0.668   3.576 -0.3253 -0.7267  0.0454
  604MOL0     C81447  -2.171  -0.789   3.596  0.4572  0.7527  0.0511
  604MOL0     C81448  -2.172  -0.831   3.740  1.5089  0.2414 -0.7184
  604MOL0     C81449  -2.320  -0.848   3.798 -0.0596 -0.5581  0.7112
  604MOL0    Cl81450  -2.322  -0.962   3.946 -0.0470 -0.0688 -0.4810
  604MOL0     C81451  -1.746  -0.458   3.033 -0.2005  0.5586 -0.7825
  604MOL0     C81452  -1.622  -0.468   2.957 -0.4553 -0.2660 -0.6929
  604MOL0     O81453  -1.539  -0.665   2.660  0.1638  0.1594 -0.6345
  604MOL0     C81454  -1.212  -0.534   2.726  0.1866  0.2076  0.4444
  604MOL0     C81455  -1.082  -0.524   2.672 -0.3551 -0.0457  0.2591
  604MOL0     N81456  -0.641  -0.054   2.358 -0.9412  0.2469  0.2563
  604MOL0     N81457  -0.557  -0.029   2.263 -0.0371 -0.2570  0.5280
  604MOL0     C81458   0.382   0.291   1.664 -0.4693 -0.0923  0.7478
  604MOL0     C81459   0.490   0.260   1.574 -0.3641  0.7790  0.2582
  604MOL0     C81460   0.943   0.236   1.462 -0.3683  0.1566 -1.1616
  604MOL0     C81461   0.929   0.289   1.333 -0.4717  0.0172  0.1919
  604MOL0     C81462   1.031   0.291   1.239 -0.6272  0.4158  0.2137
  604MOL0     C81463   1.144   0.213   1.272  0.8137  0.0141 -0.8326
  604MOL0     O81464   1.252   0.195   1.194 -0.3075 -0.0757 -0.3773
  604MOL0     C81465   1.306   0.319   1.135 -0.3250 -0.0417 -0.1080
  604MOL0     C81466   1.261   0.328   0.988  0.2619 -0.4602 -0.2240
  604MOL0     C81467   1.338   0.246   0.889 -0.3097  1.0483 -0.3611
  604MOL0     C81468   1.282   0.254   0.748  0.1434  0.4325 -0.2912
  604MOL0     C81469   1.321   0.381   0.687  0.7602 -0.1380  0.1307
  604MOL0     C81470   1.355   0.487   0.636  0.8369 -0.7715 -0.3137
  604MOL0     C81471   1.158   0.152   1.398 -1.1577 -0.6190 -0.0981
  604MOL0     C81472   1.063   0.170   1.493 -0.0380  0.4167 -0.2934
  604MOL0     H81473   0.722   0.485   1.685  1.4217 -0.6480 -1.1504
  604MOL0     H81474   0.518   0.547   1.837  2.2017 -0.0826  0.9719
  604MOL0     H81475   0.107   0.419   1.912  0.4195 -0.2959  0.6666
  604MOL0     H81476   0.147   0.312   1.774 -1.7514 -3.2176  1.7680
  604MOL0     H81477   0.274   0.161   1.911 -0.9984 -0.4923 -0.4899
  604MOL0     H81478   0.298   0.283   2.033  3.1316 -3.6359 -1.7191
  604MOL0     H81479   0.087   0.268   2.125  1.7027  0.1961  0.1507
  604MOL0     H81480   0.013   0.196   1.990 -0.4231  1.9023 -0.8132
  604MOL0     H81481   0.151  -0.020   2.040 -2.4710 -0.5709 -0.6070
  604MOL0     H81482   0.233   0.082   2.162  0.5927 -0.5976 -1.6525
  604MOL0     H81483   0.067  -0.075   2.266  2.2324  1.9313  1.3509
  604MOL0     H81484   0.009   0.093   2.278 -0.7942 -1.4346  1.7742
  604MOL0     H81485  -0.132   0.048   2.082  1.0344 -0.1820 -1.1561
  604MOL0     H81486  -0.081  -0.118   2.076 -1.9722  2.4382 -2.4342
  604MOL0     H81487  -0.173  -0.129   2.321  1.1252  1.5017  0.4203
  604MOL0     H81488  -0.239   0.031   2.298  2.0772  0.1905  0.1598
  604MOL0     H81489  -0.328  -0.218   2.126  1.5370 -0.1556 -0.7046
  604MOL0     H81490  -0.356  -0.041   2.092  0.4082 -0.5606  0.3158
  604MOL0     H81491  -0.398  -0.272   2.407 -1.4888 -1.7374  0.7956
  604MOL0     H81492  -0.563  -0.235   2.614  0.0240  1.2274  0.2456
  604MOL0     H81493  -0.722  -0.148   2.592  1.3369  2.1674 -0.3839
  604MOL0     H81494  -0.738  -0.405   2.630  1.1215  2.6563  1.6383
  604MOL0     H81495  -0.658  -0.427   2.477 -0.9969 -0.9032 -1.1256
  604MOL0     H81496  -0.831  -0.298   2.367 -1.1586 -1.3138  0.6586
  604MOL0     H81497  -0.931  -0.294   2.511 -1.4435 -0.0837 -0.4159
  604MOL0     H81498  -0.833  -0.535   2.343  1.3733  3.0867 -0.8458
  604MOL0     H81499  -0.995  -0.472   2.358  0.2411 -0.6140 -1.9610
  604MOL0     H81500  -1.140  -0.696   2.384  0.1719  2.5221 -0.3829
  604MOL0     H81501  -1.403  -0.836   2.508 -0.3642  0.2810  0.8527
  604MOL0     H81502  -1.461  -0.696   2.408 -1.5854 -1.2563  3.1288
  604MOL0     H81503  -1.331  -0.804   2.355 -0.8975  0.5729 -1.6965
  604MOL0     H81504  -1.603  -0.810   2.927  1.4051  0.6669  1.5638
  604MOL0     H81505  -1.812  -0.786   3.059 -0.2203  0.3314  0.8897
  604MOL0     H81506  -1.927  -0.403   3.266  0.5366 -1.2929  0.5331
  604MOL0     H81507  -2.003  -0.389   3.105  2.7073  1.2207  0.4188
  604MOL0     H81508  -2.179  -0.397   3.253  0.5418  0.8587  1.4626
  604MOL0     H81509  -2.181  -0.555   3.186  0.6682  1.5147 -1.0952
  604MOL0     H81510  -2.104  -0.441   3.453 -0.6336  1.8525 -2.4334
  604MOL0     H81511  -2.037  -0.604   3.421 -0.1140  0.4127  2.3348
  604MOL0     H81512  -2.339  -0.542   3.424  0.1293  1.0930  2.7510
  604MOL0     H81513  -2.278  -0.695   3.364 -2.0146 -2.7979  2.1775
  604MOL0     H81514  -2.362  -0.703   3.587 -1.1020  0.9109 -1.5190
  604MOL0     H81515  -2.230  -0.594   3.651 -0.2364 -1.1289  0.4103
  604MOL0     H81516  -2.210  -0.869   3.532 -1.9993  3.1779 -1.7198
  604MOL0     H81517  -2.065  -0.773   3.574  0.1354  0.0687 -2.1744
  604MOL0     H81518  -2.109  -0.760   3.794  0.3212  0.7326  0.0630
  604MOL0     H81519  -2.128  -0.930   3.755  0.8496  0.3283  2.3892
  604MOL0     H81520  -2.362  -0.911   3.719 -0.2266 -0.6215  0.8487
  604MOL0     H81521  -2.378  -0.756   3.811  0.1074  0.0112 -1.9152
  604MOL0     H81522  -1.780  -0.365   3.077  0.9561 -0.3669  2.3289
  604MOL0     H81523  -1.578  -0.370   2.942 -2.4844  0.7703 -0.2109
  604MOL0     H81524  -1.239  -0.493   2.823 -0.8888  1.2353 -0.2623
  604MOL0     H81525  -1.004  -0.472   2.727  0.1718 -1.0621  0.4870
  604MOL0     H81526   0.288   0.238   1.650 -0.4093 -0.4735  1.7256
  604MOL0     H81527   0.470   0.193   1.491 -0.1271  1.7369 -0.5885
  604MOL0     H81528   0.836   0.338   1.306  0.5935  2.3729  0.5143
  604MOL0     H81529   1.035   0.359   1.155 -1.4202  1.7148  1.1725
  604MOL0     H81530   1.287   0.407   1.198 -1.0275 -1.0291  1.1190
  604MOL0     H81531   1.415   0.318   1.126 -0.4976 -1.9528 -3.5880
  604MOL0     H81532   1.266   0.434   0.961 -1.0348  0.0881  1.4670
  604MOL0     H81533   1.156   0.300   0.997 -0.1852  1.3738  0.8927
  604MOL0     H81534   1.324   0.141   0.917  1.7587  0.7691 -0.1812
  604MOL0     H81535   1.447   0.260   0.889 -0.2324  0.4985 -0.6917
  604MOL0     H81536   1.173   0.241   0.749  0.0883  0.6997 -1.6701
  604MOL0     H81537   1.321   0.174   0.685 -4.2180 -2.1675 -0.0859
  604MOL0     H81538   1.385   0.584   0.602  0.1722  0.6742  2.8444
  604MOL0     H81539   1.258   0.120   1.426 -1.8106 -0.8968  2.1229
  604MOL0     H81540   1.085   0.133   1.593  2.1350  1.3275 -0.3894
  605MOL0     O81541  10.202  11.155  10.736 -0.3029 -0.3684  0.0349
  605MOL0     C81542  10.237  11.107  10.845  0.8295  0.7681 -0.1166
  605MOL0     O81543  10.177  11.002  10.902 -0.4371 -0.2603  0.1345
  605MOL0     C81544  10.070  10.942  10.844  0.3757  0.1616  0.9068
  605MOL0     C81545  10.083  10.846  10.743 -0.4649 -0.1041  0.3718
  605MOL0     C81546   9.977  10.793  10.675  0.1836  0.1491 -0.0149
  605MOL0     C81547   9.852  10.825  10.708  0.1988  0.1567 -0.2027
  605MOL0     O81548   9.742  10.776  10.643  0.7732 -0.1011 -0.4851
  605MOL0     C81549   9.681  10.874  10.563  0.2733 -0.2972  0.0463
  605MOL0     C81550   9.532  10.862  10.580  0.8534 -0.1697  0.1605
  605MOL0     C81551   9.448  10.961  10.503  0.0417 -0.1039  0.2235
  605MOL0     C81552   9.294  10.946  10.534  0.2481 -0.0940 -0.0314
  605MOL0     C81553   9.197  11.038  10.451  0.7913  0.8512  0.2696
  605MOL0     C81554   9.056  10.994  10.505 -1.1499  1.0099  0.2212
  605MOL0     C81555   8.953  11.074  10.433  0.1633  0.6861  0.7134
  605MOL0     C81556   8.814  11.032  10.485 -0.5539 -0.0747  0.1240
  605MOL0     N81557   8.774  11.087  10.613 -0.4104 -0.5423 -0.6187
  605MOL0     C81558   8.842  11.169  10.695 -0.0429  0.5359 -0.4012
  605MOL0     C81559   8.783  11.164  10.814 -0.2177 -0.2580 -0.3470
  605MOL0     C81560   8.832  11.232  10.932 -0.5985  0.7485 -0.5828
  605MOL0     C81561   8.888  11.144  11.051  0.1922 -0.6152 -1.1290
  605MOL0     C81562   8.993  11.031  11.009 -1.1332  0.6769 -0.3893
  605MOL0     C81563   9.102  10.995  11.122  0.1631 -0.7025  0.6609
  605MOL0     O81564   9.199  11.101  11.146  0.3263 -0.7723  0.6979
  605MOL0     C81565   9.265  11.145  11.033  0.3982 -0.1952 -0.3765
  605MOL0     C81566   9.241  11.284  11.000 -0.4079  0.6172  0.1161
  605MOL0     C81567   9.299  11.352  10.891 -0.2400  0.6726 -0.1509
  605MOL0     C81568   9.271  11.500  10.874  0.7929 -0.7779  0.2337
  605MOL0     C81569   9.373  11.272  10.802 -0.5022  0.8580  0.1579
  605MOL0     C81570   9.447  11.323  10.681 -0.8521  0.1556 -0.5406
  605MOL0     O81571   9.577  11.289  10.678 -1.1066  0.2092 -0.1866
  605MOL0     C81572   9.683  11.345  10.606 -0.2560 -0.3909 -0.3892
  605MOL0     C81573   9.686  11.458  10.527  0.0903  0.0331 -0.3343
  605MOL0     C81574   9.806  11.501  10.474  0.6305 -0.1696  0.7938
  605MOL0     C81575   9.923  11.437  10.486 -0.3740  0.4677  0.6185
  605MOL0     O81576  10.030  11.493  10.418  0.3970  0.2534 -0.7270
  605MOL0     C81577  10.170  11.452  10.455  1.1405  0.0377 -0.2262
  605MOL0     C81578  10.267  11.551  10.390 -0.0181 -0.5415 -0.7143
  605MOL0     C81579  10.410  11.515  10.422 -0.0842  0.0741  0.0655
  605MOL0     C81580  10.511  11.615  10.367 -0.6125 -0.3155  0.1478
  605MOL0     C81581  10.651  11.579  10.432 -0.4074 -0.2236 -0.0724
  605MOL0     C81582  10.752  11.577  10.310 -0.7673 -0.3985 -0.3260
  605MOL0     C81583  10.900  11.596  10.351 -0.7447 -0.9496 -0.3848
  605MOL0     C81584  11.000  11.509  10.261 -0.0624 -0.2491  0.2111
  605MOL0    Cl81585  10.993  11.341  10.311  0.4184 -0.1859 -0.0685
  605MOL0     C81586   9.926  11.325  10.567  0.4594  0.5477  0.7571
  605MOL0     C81587   9.807  11.283  10.625  0.7586 -0.1762  0.0481
  605MOL0     O81588   9.398  11.397  10.605  0.0323  0.5122 -0.2574
  605MOL0     C81589   9.398  11.135  10.843  0.2838  0.8033 -0.6196
  605MOL0     C81590   9.354  11.069  10.962  0.4211  0.3211 -0.4470
  605MOL0     N81591   8.698  11.059  10.818  0.3611 -0.1064 -0.0363
  605MOL0     N81592   8.689  11.019  10.697  0.3518 -0.0763 -0.2725
  605MOL0     C81593   9.830  10.914  10.816 -0.3183  0.8314  0.6991
  605MOL0     C81594   9.936  10.981  10.880 -1.3527 -0.1419  0.1932
  605MOL0     C81595  10.365  11.160  10.910 -0.1328  0.2759  0.5903
  605MOL0     C81596  10.413  11.127  11.038  0.1277  0.2491  0.9347
  605MOL0     C81597  10.530  11.184  11.087  0.7349 -1.0866  0.6017
  605MOL0     C81598  10.599  11.279  11.015  0.4471 -0.2416  1.0988
  605MOL0     O81599  10.703  11.335  11.083  0.3085 -0.1826  0.2214
  605MOL0     C81600  10.781  11.438  11.022  0.2656  0.7595 -0.9052
  605MOL0     C81601  10.924  11.438  11.085  0.5002  0.9584  0.0492
  605MOL0     C81602  10.913  11.441  11.237  0.0222 -0.3198 -0.6156
  605MOL0     C81603  10.900  11.586  11.284 -0.3430 -0.4636  0.9989
  605MOL0     C81604  10.877  11.597  11.433 -0.6880  0.3387 -0.6137
  605MOL0     C81605  10.871  11.627  11.551 -0.3062 -0.2532 -0.0095
  605MOL0     C81606  10.557  11.310  10.881 -0.5405  0.6663 -0.1945
  605MOL0     C81607  10.437  11.251  10.836 -0.1653  0.2705 -0.2619
  605MOL0     H81608  10.184  10.817  10.716 -0.6086  0.3953 -0.7650
  605MOL0     H81609  10.001  10.731  10.589  3.6835  0.2151  0.7985
  605MOL0     H81610   9.710  10.976  10.591 -0.3220 -0.1243  0.0434
  605MOL0     H81611   9.707  10.857  10.458  2.1146  0.0634  0.4085
  605MOL0     H81612   9.509  10.759  10.550  2.8933 -0.7063  0.2389
  605MOL0     H81613   9.517  10.887  10.686  0.0113 -0.2204  0.0602
  605MOL0     H81614   9.471  11.066  10.524 -3.5644  0.6662  0.9483
  605MOL0     H81615   9.478  10.943  10.400  0.1599  1.0312  0.0402
  605MOL0     H81616   9.270  10.843  10.509  2.6371 -0.0916 -3.0770
  605MOL0     H81617   9.286  10.970  10.640  2.0966  1.4077 -0.1685
  605MOL0     H81618   9.208  11.145  10.468 -1.7175  0.9637  1.6228
  605MOL0     H81619   9.208  11.009  10.346  0.9579 -3.8042  1.3454
  605MOL0     H81620   9.040  10.886  10.499  2.7694  0.3214 -1.0399
  605MOL0     H81621   9.056  11.014  10.613 -0.9917  1.0438  0.2155
  605MOL0     H81622   8.976  11.180  10.446  5.5251  0.6340 -4.1981
  605MOL0     H81623   8.955  11.058  10.325 -2.4507  1.0833  0.5324
  605MOL0     H81624   8.808  10.923  10.486  2.2659 -0.3581 -1.6830
  605MOL0     H81625   8.735  11.063  10.416 -1.2749  0.6101  1.2306
  605MOL0     H81626   8.934  11.219  10.667  2.0977 -2.6306  0.3998
  605MOL0     H81627   8.916  11.298  10.911 -0.9175  1.3038 -0.1184
  605MOL0     H81628   8.761  11.305  10.971 -0.3418 -0.6799  2.9018
  605MOL0     H81629   8.802  11.107  11.108 -0.9331  4.6978  1.2939
  605MOL0     H81630   8.934  11.210  11.125 -0.0784 -0.5531 -1.0135
  605MOL0     H81631   9.039  11.061  10.915  2.9004  1.5374  1.6109
  605MOL0     H81632   8.950  10.932  10.994 -0.7272  0.5600 -0.7865
  605MOL0     H81633   9.164  10.907  11.103  4.0777  1.9333  0.0317
  605MOL0     H81634   9.047  10.970  11.213 -1.0339  0.1804  0.2112
  605MOL0     H81635   9.172  11.345  11.057  1.3544  2.6860  0.1557
  605MOL0     H81636   9.364  11.548  10.844  0.8022 -0.6492  0.4664
  605MOL0     H81637   9.188  11.512  10.803  0.6396  1.4021  0.7233
  605MOL0     H81638   9.254  11.563  10.962  3.8809  2.4801 -1.2756
  605MOL0     H81639   9.594  11.515  10.518  0.5145  0.7682  0.0066
  605MOL0     H81640   9.805  11.593  10.418  2.7792 -1.6032 -1.8301
  605MOL0     H81641  10.182  11.472  10.562 -2.0967 -0.2002  0.2744
  605MOL0     H81642  10.184  11.345  10.435  1.1858 -0.7678  3.3199
  605MOL0     H81643  10.258  11.549  10.281  1.4170 -1.0366 -0.8501
  605MOL0     H81644  10.241  11.651  10.423 -1.1669 -0.1594 -2.6120
  605MOL0     H81645  10.416  11.414  10.380 -0.1387 -0.6282  1.6538
  605MOL0     H81646  10.428  11.507  10.530 -0.3337 -2.5917 -0.0271
  605MOL0     H81647  10.507  11.605  10.258 -0.7302 -0.7061  0.1841
  605MOL0     H81648  10.483  11.717  10.393  0.3696 -0.1896  0.7488
  605MOL0     H81649  10.650  11.478  10.474 -3.0810 -0.4051 -0.4349
  605MOL0     H81650  10.667  11.658  10.506  0.9652  0.3642 -0.9498
  605MOL0     H81651  10.749  11.482  10.255  2.5086  0.3067 -1.9546
  605MOL0     H81652  10.727  11.654  10.237  2.6102  1.0139 -0.1759
  605MOL0     H81653  10.908  11.550  10.450 -2.7007 -1.3098 -0.3428
  605MOL0     H81654  10.934  11.700  10.354 -0.6446 -1.0057  0.9406
  605MOL0     H81655  11.104  11.531  10.290 -0.3332 -2.9355  3.8901
  605MOL0     H81656  10.988  11.527  10.154  0.6938 -1.6005 -0.1311
  605MOL0     H81657  10.016  11.272  10.596  0.0081  1.2598  3.8388
  605MOL0     H81658   9.803  11.189  10.678 -3.5229 -0.4281 -0.3568
  605MOL0     H81659   9.468  11.079  10.781  0.5812  0.7387 -0.2272
  605MOL0     H81660   9.399  10.980  11.004  0.4988  0.3445 -0.4819
  605MOL0     H81661   9.727  10.939  10.841 -2.3037 -3.1156 -2.3926
  605MOL0     H81662   9.927  11.063  10.951  1.0956  0.3724 -0.0103
  605MOL0     H81663  10.355  11.047  11.082  2.8812 -1.5686  1.4733
  605MOL0     H81664  10.558  11.178  11.191 -0.2654  1.9349  1.1331
  605MOL0     H81665  10.782  11.448  10.913  0.8052  2.6438 -0.7588
  605MOL0     H81666  10.744  11.534  11.059  1.0732  0.5066  0.6172
  605MOL0     H81667  10.980  11.523  11.046  0.5349  1.5505  1.3393
  605MOL0     H81668  10.970  11.343  11.057 -3.0907  0.0071 -3.6718
  605MOL0     H81669  11.005  11.392  11.271 -0.3765 -2.0643 -1.9311
  605MOL0     H81670  10.835  11.376  11.278  1.1481 -3.1848 -2.7139
  605MOL0     H81671  10.813  11.630  11.234  0.1856 -0.7136 -0.1588
  605MOL0     H81672  10.990  11.643  11.260 -0.0323 -0.2305  2.6006
  605MOL0     H81673  10.848  11.663  11.649 -0.8068  0.3490 -0.3417
  605MOL0     H81674  10.606  11.379  10.812  0.5760 -0.0209 -0.1090
  605MOL0     H81675  10.420  11.272  10.731  1.7053 -2.4611 -1.2050
  606MOL0     O81676   6.913   0.818   4.354 -0.0276 -0.1315  0.3452
  606MOL0     C81677   6.960   0.846   4.462  0.6584 -1.2296 -0.1527
  606MOL0     O81678   6.903   0.938   4.552  0.5728  0.6711  0.3717
  606MOL0     C81679   6.771   0.982   4.546 -0.9213 -1.1246 -0.4063
  606MOL0     C81680   6.751   1.101   4.630 -0.3051 -0.2148  0.2352
  606MOL0     C81681   6.631   1.172   4.618 -0.7560  0.1637  0.0554
  606MOL0     C81682   6.529   1.127   4.538 -0.5483 -0.0126  0.8367
  606MOL0     O81683   6.410   1.209   4.545 -0.6047  0.0324 -0.4417
  606MOL0     C81684   6.297   1.172   4.472  0.2320  0.0252 -0.0937
  606MOL0     C81685   6.199   1.275   4.505  0.5108 -0.1699 -0.3609
  606MOL0     C81686   6.211   1.399   4.417 -1.7210 -0.1029  0.2854
  606MOL0     C81687   6.100   1.490   4.457 -0.1264 -0.1998 -0.2874
  606MOL0     C81688   6.106   1.617   4.373  0.5736 -0.1826  0.0655
  606MOL0     C81689   6.007   1.729   4.419 -0.5355  0.4784  0.6751
  606MOL0     C81690   6.052   1.827   4.518 -0.0612 -0.5292  0.4187
  606MOL0     C81691   5.930   1.891   4.581  0.4989  0.2662 -0.1397
  606MOL0     N81692   5.867   1.793   4.673 -0.9366  0.4316  0.1744
  606MOL0     C81693   5.915   1.776   4.806  0.0134  0.6065 -0.0619
  606MOL0     C81694   5.809   1.721   4.868  0.2986 -0.1429 -0.1965
  606MOL0     C81695   5.792   1.701   5.012  0.1684 -0.6339  0.3342
  606MOL0     C81696   5.685   1.801   5.064  0.7094 -0.1415 -0.1107
  606MOL0     C81697   5.647   1.769   5.212  0.4971  0.0729  0.8287
  606MOL0     C81698   5.595   1.882   5.294  0.2118  0.3961  0.4515
  606MOL0     O81699   5.689   1.998   5.293 -0.3460  0.2673 -0.6251
  606MOL0     C81700   5.652   2.100   5.372  0.4784  0.0368  0.4126
  606MOL0     C81701   5.533   2.119   5.447  0.2135 -0.0755  0.1993
  606MOL0     C81702   5.510   2.237   5.520  0.2491 -1.0815 -0.3982
  606MOL0     C81703   5.389   2.239   5.602  0.3997  0.9339  0.3048
  606MOL0     C81704   5.623   2.323   5.543  0.7618 -0.1930 -0.0584
  606MOL0     C81705   5.626   2.448   5.621  0.3435  0.0714  0.0397
  606MOL0     O81706   5.705   2.549   5.579 -0.6530  0.2944 -0.0831
  606MOL0     C81707   5.683   2.670   5.628  0.7052 -0.0705  0.2105
  606MOL0     C81708   5.670   2.775   5.545 -0.1645 -0.1123 -0.3163
  606MOL0     C81709   5.650   2.909   5.583 -1.0159 -0.0525  0.1556
  606MOL0     C81710   5.654   2.931   5.716  1.2069 -1.2821 -0.4116
  606MOL0     O81711   5.638   3.064   5.759  0.1405  0.2374 -0.6550
  606MOL0     C81712   5.762   3.116   5.803 -1.0858 -0.6407  0.3433
  606MOL0     C81713   5.858   3.164   5.685  0.0040  0.9405 -0.5286
  606MOL0     C81714   5.816   3.302   5.633 -0.4037  1.1009 -0.6309
  606MOL0     C81715   5.893   3.416   5.703  0.4989 -0.3942  0.4472
  606MOL0     C81716   6.041   3.421   5.656  0.2298 -0.3301  0.0860
  606MOL0     C81717   6.060   3.449   5.501  0.6658  0.3373 -0.4919
  606MOL0     C81718   6.211   3.474   5.472 -0.4630 -0.3247 -0.0472
  606MOL0     C81719   6.233   3.483   5.317 -0.7678 -0.8367  1.2325
  606MOL0    Cl81720   6.405   3.509   5.266 -0.1242  0.0814 -0.2630
  606MOL0     C81721   5.672   2.834   5.815 -0.4395  0.0702 -0.1963
  606MOL0     C81722   5.696   2.700   5.765  0.2145  0.2522  1.1058
  606MOL0     O81723   5.550   2.452   5.712  0.3934 -0.8538 -0.7943
  606MOL0     C81724   5.738   2.304   5.462  1.0618  0.0449  0.5496
  606MOL0     C81725   5.754   2.197   5.379  0.7061  0.2498  0.7251
  606MOL0     N81726   5.713   1.695   4.772 -0.0539 -1.7257 -0.3344
  606MOL0     N81727   5.740   1.753   4.661 -0.2243  0.3264 -0.6957
  606MOL0     C81728   6.547   1.011   4.459  0.1885  0.6540  0.0288
  606MOL0     C81729   6.672   0.939   4.457 -0.3562 -0.1205 -0.1488
  606MOL0     C81730   7.066   0.772   4.531 -1.4572 -0.0474 -0.2026
  606MOL0     C81731   7.071   0.631   4.532 -0.5878 -0.1749 -0.3339
  606MOL0     C81732   7.175   0.561   4.589 -0.4280 -0.6075 -0.0417
  606MOL0     C81733   7.283   0.625   4.652 -0.2090  0.0136  0.6030
  606MOL0     O81734   7.388   0.560   4.716 -0.3373 -0.5117  0.5560
  606MOL0     C81735   7.385   0.420   4.744 -0.4076 -0.0983  0.7530
  606MOL0     C81736   7.492   0.370   4.840 -0.8376 -1.0462  0.2533
  606MOL0     C81737   7.634   0.398   4.791 -0.1848  0.3700 -0.2844
  606MOL0     C81738   7.731   0.347   4.891 -0.2477  0.2658 -0.7273
  606MOL0     C81739   7.720   0.200   4.912 -0.2549  0.3475  0.5361
  606MOL0     C81740   7.714   0.085   4.951 -0.4714 -0.4034 -0.8547
  606MOL0     C81741   7.273   0.763   4.658 -0.5020  1.1174 -0.0897
  606MOL0     C81742   7.170   0.840   4.600 -0.6558 -0.0746 -0.2020
  606MOL0     H81743   6.829   1.142   4.692  0.0242  0.1092 -0.3840
  606MOL0     H81744   6.626   1.259   4.682  1.9129 -0.5075  1.2877
  606MOL0     H81745   6.319   1.180   4.366 -1.1023  2.8694 -0.2445
  606MOL0     H81746   6.257   1.077   4.511 -0.2804  0.1565 -0.2932
  606MOL0     H81747   6.107   1.223   4.477 -0.2438  0.3865  0.9961
  606MOL0     H81748   6.192   1.303   4.611 -0.2428 -0.1289 -0.4156
  606MOL0     H81749   6.306   1.452   4.432 -0.0882 -3.0583  1.1770
  606MOL0     H81750   6.207   1.380   4.310 -4.0988  2.4047 -0.1867
  606MOL0     H81751   5.999   1.451   4.439 -1.8589  3.1653  1.1609
  606MOL0     H81752   6.112   1.512   4.563  0.0582 -1.3923 -0.0490
  606MOL0     H81753   6.209   1.653   4.373  0.6861 -0.4916 -0.2391
  606MOL0     H81754   6.092   1.585   4.270  2.0234  2.6714 -1.1242
  606MOL0     H81755   5.984   1.787   4.330  0.9307 -1.7260 -1.2368
  606MOL0     H81756   5.918   1.682   4.462 -0.5503  0.9092  1.1295
  606MOL0     H81757   6.107   1.784   4.603  2.3850  0.6049 -0.4824
  606MOL0     H81758   6.109   1.906   4.469 -0.8466 -0.1274  0.1382
  606MOL0     H81759   5.856   1.921   4.507 -1.2291 -3.0004  0.0924
  606MOL0     H81760   5.964   1.980   4.636 -0.4327  0.5731 -0.0393
  606MOL0     H81761   6.011   1.797   4.852 -0.4371 -0.8590  1.7106
  606MOL0     H81762   5.771   1.595   5.028  0.3338 -0.3478  2.8961
  606MOL0     H81763   5.887   1.720   5.062 -1.1164  2.5555  1.9066
  606MOL0     H81764   5.595   1.778   5.005 -1.3268  1.0311  2.3254
  606MOL0     H81765   5.710   1.905   5.043 -4.1551  1.1869 -0.5571
  606MOL0     H81766   5.737   1.744   5.269  0.3174 -2.5583  0.1205
  606MOL0     H81767   5.589   1.677   5.220 -3.1628  2.3619  3.3118
  606MOL0     H81768   5.578   1.850   5.398 -1.8814  0.7368  0.2575
  606MOL0     H81769   5.505   1.919   5.245  0.3769 -1.3656 -1.2957
  606MOL0     H81770   5.450   2.049   5.447  0.8938 -0.8969  0.8791
  606MOL0     H81771   5.312   2.171   5.565  1.1483  0.5711 -0.6311
  606MOL0     H81772   5.418   2.210   5.703 -3.3853  2.2096  1.9387
  606MOL0     H81773   5.334   2.333   5.613 -0.3183  0.5659 -0.0966
  606MOL0     H81774   5.653   2.749   5.441  0.0100  0.6312 -0.5346
  606MOL0     H81775   5.640   2.980   5.501 -2.8579 -1.1329 -0.6227
  606MOL0     H81776   5.760   3.197   5.875 -0.7914 -1.2071  0.9992
  606MOL0     H81777   5.818   3.045   5.865  0.6926  2.1913  2.2096
  606MOL0     H81778   5.961   3.161   5.724  0.3459 -1.7998 -1.4481
  606MOL0     H81779   5.859   3.090   5.605  1.2135  0.1572  0.1754
  606MOL0     H81780   5.711   3.314   5.662 -0.0158  0.5118  1.1430
  606MOL0     H81781   5.813   3.307   5.524  1.9462  2.9143 -0.7013
  606MOL0     H81782   5.838   3.508   5.678 -2.1672 -1.4880  1.8091
  606MOL0     H81783   5.889   3.403   5.812 -2.4043  2.3780  0.8498
  606MOL0     H81784   6.092   3.331   5.693 -1.0140  0.1504  3.2920
  606MOL0     H81785   6.088   3.510   5.700 -0.3315  1.2149 -2.2951
  606MOL0     H81786   6.028   3.359   5.448 -1.5086  0.6757  0.1654
  606MOL0     H81787   6.004   3.531   5.457 -3.1075 -1.2571  0.9059
  606MOL0     H81788   6.268   3.393   5.518  0.1637 -1.1738 -2.2034
  606MOL0     H81789   6.246   3.565   5.521 -1.3835 -0.2210  0.4401
  606MOL0     H81790   6.169   3.565   5.283 -1.0369 -0.4041  2.7477
  606MOL0     H81791   6.216   3.389   5.264  1.2872 -0.5196 -0.1550
  606MOL0     H81792   5.666   2.864   5.919  1.1491  1.4868 -0.4809
  606MOL0     H81793   5.708   2.619   5.836  2.1993  0.2881  0.8661
  606MOL0     H81794   5.823   2.371   5.475 -0.8601  2.8675 -0.5457
  606MOL0     H81795   5.850   2.164   5.339 -0.1151  0.0916 -1.2687
  606MOL0     H81796   6.462   0.967   4.407  0.5623 -0.7810  0.5843
  606MOL0     H81797   6.685   0.843   4.407  1.0650  0.4973 -1.0494
  606MOL0     H81798   6.986   0.576   4.492 -0.4912 -0.6836  0.1604
  606MOL0     H81799   7.188   0.456   4.565  0.5475 -0.1909 -1.4197
  606MOL0     H81800   7.291   0.382   4.783 -0.0570 -1.4323  0.3376
  606MOL0     H81801   7.406   0.370   4.650  0.0566  0.3694  0.6008
  606MOL0     H81802   7.485   0.263   4.859 -1.4614 -0.6852  2.3853
  606MOL0     H81803   7.466   0.427   4.930 -0.8645  0.8868 -0.9162
  606MOL0     H81804   7.653   0.501   4.760 -0.6646  0.2564 -0.9491
  606MOL0     H81805   7.651   0.347   4.696  0.2965 -1.0012  0.5053
  606MOL0     H81806   7.716   0.401   4.985 -2.1380 -3.0733  1.1014
  606MOL0     H81807   7.834   0.379   4.872  1.6059 -1.3724  4.5512
  606MOL0     H81808   7.718  -0.012   4.995  1.5785  0.9680  2.3531
  606MOL0     H81809   7.360   0.805   4.706 -0.0808 -0.0949  0.2495
  606MOL0     H81810   7.161   0.948   4.601 -0.6305 -0.0528  1.4169
  607MOL0     O81811   1.601   1.859   4.924  0.6814 -0.2691  0.2459
  607MOL0     C81812   1.532   1.929   4.861  0.0246  0.0932 -0.1257
  607MOL0     O81813   1.570   2.054   4.829  0.3682  0.5899 -0.3585
  607MOL0     C81814   1.678   2.112   4.901  0.2994  0.1670 -0.2925
  607MOL0     C81815   1.673   2.107   5.042 -0.6837  0.1291  0.4423
  607MOL0     C81816   1.767   2.176   5.117 -0.5786 -0.0856 -0.6992
  607MOL0     C81817   1.861   2.258   5.061  1.2472 -0.5611 -0.1763
  607MOL0     O81818   1.956   2.322   5.129  0.7204 -0.4779 -0.1673
  607MOL0     C81819   1.972   2.288   5.265  0.6929  0.8874  0.6517
  607MOL0     C81820   2.116   2.335   5.317 -0.4134 -0.0579 -0.0386
  607MOL0     C81821   2.137   2.487   5.321  0.1819  0.2924  0.3028
  607MOL0     C81822   2.224   2.551   5.417 -0.2402  0.5419 -0.5575
  607MOL0     C81823   2.376   2.503   5.406 -0.1589 -0.2163  0.7526
  607MOL0     C81824   2.466   2.580   5.497 -0.1731 -0.0936 -0.5459
  607MOL0     C81825   2.430   2.564   5.646  0.3591  0.0500 -0.2805
  607MOL0     C81826   2.555   2.578   5.738  0.3555 -0.2414  0.4592
  607MOL0     N81827   2.532   2.554   5.881 -0.4856  0.1734  0.3520
  607MOL0     C81828   2.519   2.434   5.940  0.0003 -0.1941 -0.3214
  607MOL0     C81829   2.489   2.454   6.069 -0.3521  0.5575 -0.0704
  607MOL0     C81830   2.460   2.362   6.180  0.2149 -1.6533  1.0890
  607MOL0     C81831   2.312   2.381   6.230  0.7560 -1.0153  0.4292
  607MOL0     C81832   2.263   2.260   6.306 -0.1636  0.6248 -0.0843
  607MOL0     C81833   2.326   2.230   6.440 -0.0205 -0.1176 -0.9128
  607MOL0     O81834   2.283   2.312   6.548 -0.1357  0.4281  0.0656
  607MOL0     C81835   2.153   2.290   6.597 -0.1698 -0.1174  0.1906
  607MOL0     C81836   2.081   2.169   6.582  0.0254  0.3707 -1.0255
  607MOL0     C81837   1.944   2.158   6.623 -0.0895  0.0236  0.0250
  607MOL0     C81838   1.878   2.025   6.601 -0.1622  0.1161  0.8073
  607MOL0     C81839   1.887   2.252   6.716  0.2605  0.2435  0.7343
  607MOL0     C81840   1.758   2.237   6.790 -0.9137 -0.1116 -0.1442
  607MOL0     O81841   1.761   2.261   6.926 -1.0507  0.0933 -0.0012
  607MOL0     C81842   1.644   2.246   7.001  0.4990 -0.2446 -0.3953
  607MOL0     C81843   1.545   2.339   6.992 -0.1168 -0.1733 -0.6105
  607MOL0     C81844   1.433   2.338   7.074  0.7131  0.4490  0.1842
  607MOL0     C81845   1.409   2.244   7.168 -0.5448  0.5714 -0.7031
  607MOL0     O81846   1.300   2.254   7.246 -0.4899  0.1502 -0.1010
  607MOL0     C81847   1.259   2.149   7.345 -0.4873  0.7229  0.0195
  607MOL0     C81848   1.184   2.034   7.286 -0.5777 -0.0871  0.1188
  607MOL0     C81849   1.039   2.076   7.263 -1.3921 -0.5864  0.6195
  607MOL0     C81850   0.945   1.984   7.188 -0.0968  0.6252  0.5890
  607MOL0     C81851   0.973   1.978   7.036  0.2479  0.1285  0.4777
  607MOL0     C81852   0.913   2.103   6.967 -0.5630  0.3094 -0.5159
  607MOL0     C81853   0.929   2.090   6.816 -0.1972  0.2219 -0.0807
  607MOL0     C81854   0.863   2.209   6.745  0.1636  0.0203 -0.0155
  607MOL0    Cl81855   0.692   2.178   6.724 -0.2606 -0.5194 -0.0117
  607MOL0     C81856   1.503   2.136   7.174 -0.4547 -0.4367  0.2518
  607MOL0     C81857   1.626   2.137   7.093  0.3100  0.3240 -0.3367
  607MOL0     O81858   1.654   2.193   6.739 -0.2247 -0.1404  0.0765
  607MOL0     C81859   1.964   2.367   6.745 -0.6107  0.2716  0.0695
  607MOL0     C81860   2.087   2.386   6.666  0.6875 -0.0384 -1.3246
  607MOL0     N81861   2.492   2.592   6.088 -0.2141 -0.2107  0.4817
  607MOL0     N81862   2.506   2.645   5.974  0.0055 -0.0878 -0.5390
  607MOL0     C81863   1.850   2.279   4.923 -0.3408 -0.0801 -1.2316
  607MOL0     C81864   1.767   2.203   4.849 -0.3535  0.6905  0.5152
  607MOL0     C81865   1.431   1.856   4.783  0.2762 -0.3932  0.3917
  607MOL0     C81866   1.358   1.924   4.685 -0.0530  0.2912 -0.0863
  607MOL0     C81867   1.254   1.861   4.614 -0.3401  0.5156  0.1481
  607MOL0     C81868   1.229   1.726   4.630 -0.7513  0.1691  0.0141
  607MOL0     O81869   1.145   1.666   4.546 -0.5095  0.0369  0.2612
  607MOL0     C81870   1.029   1.625   4.620  0.5056  0.1045  0.7298
  607MOL0     C81871   0.901   1.643   4.534  1.2843 -0.5891  0.7521
  607MOL0     C81872   0.903   1.569   4.405  0.3835 -0.7509  0.0200
  607MOL0     C81873   0.775   1.604   4.315 -0.4375 -0.1661 -0.8878
  607MOL0     C81874   0.649   1.578   4.388 -0.2099 -0.4384 -0.5674
  607MOL0     C81875   0.554   1.565   4.465  0.0276  0.1641 -0.0113
  607MOL0     C81876   1.314   1.657   4.709 -0.0489 -0.2678 -0.1514
  607MOL0     C81877   1.417   1.712   4.787  0.1039 -1.6852 -0.3005
  607MOL0     H81878   1.591   2.056   5.091 -0.9932 -0.8454 -1.0367
  607MOL0     H81879   1.754   2.169   5.224 -1.9179 -1.6551 -0.9163
  607MOL0     H81880   1.895   2.337   5.326  0.6433  1.3491  0.2303
  607MOL0     H81881   1.961   2.180   5.276 -3.1663  0.8079 -2.0702
  607MOL0     H81882   2.134   2.284   5.412  4.6374 -1.3323 -1.3243
  607MOL0     H81883   2.194   2.289   5.254 -1.3999 -0.7576 -0.7892
  607MOL0     H81884   2.170   2.509   5.219 -0.3601 -4.8492 -1.2789
  607MOL0     H81885   2.038   2.531   5.336 -0.5862 -0.2666 -2.4771
  607MOL0     H81886   2.216   2.660   5.412 -0.7829  0.7844  3.0012
  607MOL0     H81887   2.187   2.543   5.520  1.8927  0.3743  0.2635
  607MOL0     H81888   2.376   2.395   5.423 -3.6272 -0.4725 -0.0532
  607MOL0     H81889   2.417   2.520   5.306  3.0402  2.2168  2.3091
  607MOL0     H81890   2.569   2.544   5.483  0.8261  2.0773  0.8012
  607MOL0     H81891   2.478   2.683   5.462 -1.3023 -0.1730 -1.2301
  607MOL0     H81892   2.365   2.645   5.680  2.2378  1.2607  0.6083
  607MOL0     H81893   2.383   2.469   5.675 -1.2285  0.8917  0.0021
  607MOL0     H81894   2.600   2.677   5.729 -0.2456 -0.0753 -1.1079
  607MOL0     H81895   2.623   2.504   5.695  0.0112 -0.0883 -0.3586
  607MOL0     H81896   2.555   2.341   5.898 -1.6162  0.0223 -2.3173
  607MOL0     H81897   2.479   2.259   6.150  2.4058 -0.6617 -1.2946
  607MOL0     H81898   2.527   2.380   6.265  2.7303  1.9076 -1.3605
  607MOL0     H81899   2.239   2.411   6.154  0.4448 -2.6465  0.0545
  607MOL0     H81900   2.310   2.470   6.295  2.9899  0.1668 -1.0196
  607MOL0     H81901   2.275   2.181   6.232  1.5210  1.2998 -0.5837
  607MOL0     H81902   2.158   2.278   6.331  0.0659 -1.1396  2.5778
  607MOL0     H81903   2.433   2.254   6.429 -0.0156  0.3676  0.0899
  607MOL0     H81904   2.326   2.124   6.467  0.8189  0.6933  2.8903
  607MOL0     H81905   2.120   2.074   6.547  3.2610  0.9998  0.5885
  607MOL0     H81906   1.837   1.971   6.687 -2.9187  3.0517  1.5404
  607MOL0     H81907   1.797   2.047   6.531  1.1868  0.1164 -0.8426
  607MOL0     H81908   1.949   1.959   6.551 -1.5083 -0.4125 -0.4841
  607MOL0     H81909   1.559   2.426   6.930  1.8909  0.6546  0.8964
  607MOL0     H81910   1.361   2.419   7.069 -0.2050 -0.3335  0.5269
  607MOL0     H81911   1.351   2.116   7.396 -0.5152  0.6010 -0.0096
  607MOL0     H81912   1.199   2.197   7.423  0.0890  0.4059  0.6762
  607MOL0     H81913   1.231   1.988   7.198 -1.4368 -0.3738 -0.1978
  607MOL0     H81914   1.181   1.947   7.352  1.0168  0.1360  0.5272
  607MOL0     H81915   1.045   2.172   7.210 -0.8898 -1.8392 -1.7841
  607MOL0     H81916   1.000   2.097   7.362  0.0047  0.1795  1.0362
  607MOL0     H81917   0.961   1.883   7.227 -2.1148  0.1888  0.4088
  607MOL0     H81918   0.838   2.004   7.200 -0.2171  2.0594 -2.2527
  607MOL0     H81919   0.928   1.889   6.992  2.5575 -1.5968  1.3999
  607MOL0     H81920   1.080   1.965   7.021  0.0739 -4.3830  1.7807
  607MOL0     H81921   0.805   2.110   6.983 -0.8440 -3.8600  0.6186
  607MOL0     H81922   0.955   2.194   7.013 -2.2986  0.3722  1.0653
  607MOL0     H81923   0.887   1.991   6.796 -0.5080 -0.9004  4.9218
  607MOL0     H81924   1.031   2.089   6.776 -0.7097  1.3797 -1.4981
  607MOL0     H81925   0.907   2.215   6.646  2.0619 -1.3953  0.6836
  607MOL0     H81926   0.881   2.301   6.802  0.0382 -1.2993  2.2955
  607MOL0     H81927   1.490   2.042   7.226  2.6174 -1.6775 -0.9332
  607MOL0     H81928   1.690   2.051   7.109  1.1665  0.1654 -3.7927
  607MOL0     H81929   1.944   2.445   6.818 -4.6949 -0.7926  0.3521
  607MOL0     H81930   2.155   2.467   6.689 -0.2817  0.8597 -1.5818
  607MOL0     H81931   1.916   2.348   4.871 -2.6686  2.8082 -0.6258
  607MOL0     H81932   1.779   2.225   4.743  0.4078  0.4133  0.5363
  607MOL0     H81933   1.371   2.032   4.679 -2.3778  0.6030 -0.4976
  607MOL0     H81934   1.208   1.934   4.548 -3.9515 -2.3117 -0.7675
  607MOL0     H81935   1.053   1.523   4.651  0.7281  0.2727  1.1151
  607MOL0     H81936   1.010   1.673   4.717  0.6497  1.5778  0.0396
  607MOL0     H81937   0.883   1.750   4.520 -2.5393 -1.4056 -2.1335
  607MOL0     H81938   0.817   1.613   4.596  0.2140  1.6936  0.5311
  607MOL0     H81939   0.900   1.465   4.439  0.5432 -0.3763  1.2360
  607MOL0     H81940   0.996   1.572   4.346 -2.1665 -1.8005 -4.5051
  607MOL0     H81941   0.788   1.548   4.222 -0.4514 -2.1762  0.2505
  607MOL0     H81942   0.784   1.710   4.293 -0.2659  0.4923  1.9469
  607MOL0     H81943   0.475   1.551   4.536 -0.9319 -1.4902 -1.3112
  607MOL0     H81944   1.304   1.549   4.713 -0.4620 -0.2269 -0.0533
  607MOL0     H81945   1.492   1.659   4.844  0.4653 -1.9071 -0.9678
  608MOL0     O81946   6.880   4.032   8.865  0.1400  0.1080  0.6308
  608MOL0     C81947   6.993   4.078   8.844  0.5135  0.6183 -0.2844
  608MOL0     O81948   7.015   4.203   8.800  0.2499  0.0106  0.8621
  608MOL0     C81949   6.909   4.288   8.768  0.3478  0.5212 -1.3493
  608MOL0     C81950   6.805   4.314   8.846  1.0271  0.3025 -0.3955
  608MOL0     C81951   6.716   4.416   8.824 -0.4655  0.3144  0.0266
  608MOL0     C81952   6.743   4.508   8.725  1.2000 -0.4958  0.1666
  608MOL0     O81953   6.646   4.615   8.718  0.0277  0.5177 -0.6776
  608MOL0     C81954   6.667   4.709   8.606  0.9977  0.2913 -0.8668
  608MOL0     C81955   6.775   4.806   8.644 -0.2668 -0.4150 -0.5270
  608MOL0     C81956   6.721   4.897   8.753 -0.1410 -0.1644 -0.0750
  608MOL0     C81957   6.807   5.014   8.804 -0.0356  0.8226 -0.0328
  608MOL0     C81958   6.731   5.083   8.909 -0.1059 -0.5128 -0.1262
  608MOL0     C81959   6.818   5.163   9.000  0.1946 -0.3719  0.6203
  608MOL0     C81960   6.762   5.249   9.106 -0.2262 -0.6637 -0.6857
  608MOL0     C81961   6.786   5.193   9.253 -0.7528 -0.2479  0.7375
  608MOL0     N81962   6.738   5.054   9.265 -0.1908 -0.5158  0.6470
  608MOL0     C81963   6.817   4.946   9.274 -0.4316 -0.1339 -0.0871
  608MOL0     C81964   6.729   4.842   9.230 -0.2321 -0.6318 -0.2473
  608MOL0     C81965   6.767   4.697   9.225 -0.9905 -1.0367  0.7147
  608MOL0     C81966   6.893   4.699   9.142  0.2125 -0.6800  0.9021
  608MOL0     C81967   6.944   4.562   9.102 -0.1291 -0.0496  0.3461
  608MOL0     C81968   7.061   4.566   9.010  0.3699 -1.0280 -0.3167
  608MOL0     O81969   7.115   4.435   8.986 -0.1913  0.2160  1.0709
  608MOL0     C81970   7.251   4.430   8.948  0.2781 -1.0904 -0.1019
  608MOL0     C81971   7.301   4.502   8.840  0.0472  0.0155 -0.1913
  608MOL0     C81972   7.434   4.510   8.809  0.2020  0.3590  0.1190
  608MOL0     C81973   7.484   4.618   8.715 -0.7784 -0.1509  0.7120
  608MOL0     C81974   7.516   4.412   8.879 -0.2316 -0.8194 -0.5219
  608MOL0     C81975   7.662   4.391   8.848 -0.3509  0.6992 -0.3173
  608MOL0     O81976   7.731   4.308   8.933 -0.5512  0.3831  0.3554
  608MOL0     C81977   7.866   4.279   8.914 -0.5186 -0.1888 -0.5662
  608MOL0     C81978   7.898   4.146   8.916 -0.0619  0.3933 -0.1693
  608MOL0     C81979   8.026   4.105   8.878 -0.1712 -0.4435 -0.9166
  608MOL0     C81980   8.130   4.200   8.867 -0.4475  0.3028 -0.2152
  608MOL0     O81981   8.264   4.161   8.859  0.3912 -0.1567 -0.8611
  608MOL0     C81982   8.297   4.036   8.913 -0.3935 -0.4047  0.4130
  608MOL0     C81983   8.444   4.034   8.962  0.8063  0.5110  0.2256
  608MOL0     C81984   8.480   4.139   9.069  1.3267 -0.2967 -0.0136
  608MOL0     C81985   8.623   4.135   9.104  0.1791  0.1497  0.1318
  608MOL0     C81986   8.720   4.177   8.992  0.2091  0.3639 -0.2182
  608MOL0     C81987   8.867   4.194   9.046  0.4375 -0.5809  0.5949
  608MOL0     C81988   8.956   4.220   8.927 -0.4480  0.3894  0.3235
  608MOL0     C81989   9.099   4.191   8.969 -0.2229  0.2696  0.1253
  608MOL0    Cl81990   9.139   4.023   8.992 -0.1042 -0.1516  0.7080
  608MOL0     C81991   8.102   4.339   8.876  0.6811 -0.2530 -0.2109
  608MOL0     C81992   7.968   4.372   8.900 -0.3070  0.5631  0.9725
  608MOL0     O81993   7.714   4.439   8.744 -0.2662  0.5042  0.0961
  608MOL0     C81994   7.467   4.323   8.971 -0.8259 -0.4937  0.5440
  608MOL0     C81995   7.335   4.331   9.005 -0.0453 -0.0344 -0.1370
  608MOL0     N81996   6.599   4.899   9.223 -0.5060  1.4661 -0.0564
  608MOL0     N81997   6.609   5.030   9.225 -0.2818 -0.0280  0.3541
  608MOL0     C81998   6.848   4.490   8.642  0.3587 -0.0743  0.1190
  608MOL0     C81999   6.931   4.383   8.665 -0.8918 -0.1305 -0.5256
  608MOL0     C82000   7.115   3.996   8.856  1.0893  0.1275  0.1701
  608MOL0     C82001   7.238   4.055   8.829 -0.3578 -0.0947 -0.1198
  608MOL0     C82002   7.362   3.991   8.852  0.2007 -0.8898 -0.1017
  608MOL0     C82003   7.358   3.861   8.902  0.0360 -1.2413  0.4516
  608MOL0     O82004   7.470   3.804   8.947 -0.3247 -0.5629 -0.1216
  608MOL0     C82005   7.596   3.846   8.880  0.9539  0.7923 -0.1579
  608MOL0     C82006   7.704   3.738   8.906 -0.2112 -0.0479  0.0538
  608MOL0     C82007   7.850   3.779   8.863 -0.2135  0.6776 -0.7074
  608MOL0     C82008   7.941   3.650   8.873 -0.0858  0.4503 -0.3427
  608MOL0     C82009   8.079   3.669   8.823 -0.5974 -0.0462  1.0984
  608MOL0     C82010   8.187   3.694   8.769  0.4160 -0.6361 -0.5359
  608MOL0     C82011   7.240   3.799   8.935  0.3218 -0.5374  0.4826
  608MOL0     C82012   7.119   3.861   8.901  0.0110  1.1266  0.6515
  608MOL0     H82013   6.792   4.261   8.940 -2.5817  3.0496  0.8913
  608MOL0     H82014   6.630   4.413   8.890  1.3474 -1.8802  2.5536
  608MOL0     H82015   6.672   4.642   8.519 -0.6641 -1.7316  0.4770
  608MOL0     H82016   6.577   4.770   8.594  1.2244  1.3056  1.9296
  608MOL0     H82017   6.864   4.756   8.684  0.6554  0.8412 -0.9553
  608MOL0     H82018   6.809   4.857   8.554  1.3699 -0.3389  0.0991
  608MOL0     H82019   6.623   4.935   8.725 -0.8502 -1.7870  0.0927
  608MOL0     H82020   6.708   4.835   8.842 -1.7273 -0.9910 -0.8317
  608MOL0     H82021   6.896   4.967   8.845 -1.1334 -1.2726  0.1200
  608MOL0     H82022   6.837   5.084   8.725 -0.5053  1.1155  0.0440
  608MOL0     H82023   6.664   5.156   8.863  3.2516  2.7660 -0.2738
  608MOL0     H82024   6.678   5.017   8.978 -1.7420  3.1133  2.4137
  608MOL0     H82025   6.892   5.093   9.041  1.8631  1.3618  0.7149
  608MOL0     H82026   6.884   5.225   8.939 -1.8343  0.0645 -1.2635
  608MOL0     H82027   6.820   5.342   9.101  0.8508 -1.3789 -2.6337
  608MOL0     H82028   6.654   5.264   9.096 -0.5569 -1.9711  0.6805
  608MOL0     H82029   6.716   5.250   9.316 -0.9820 -0.0229  0.2844
  608MOL0     H82030   6.886   5.211   9.292  0.3505 -1.5990 -1.3158
  608MOL0     H82031   6.920   4.933   9.306 -1.4463 -7.4344  1.9995
  608MOL0     H82032   6.787   4.669   9.328  3.4855  0.6283  0.4883
  608MOL0     H82033   6.687   4.650   9.167 -0.1405 -0.0158 -1.3797
  608MOL0     H82034   6.970   4.749   9.201 -0.9538  3.1791 -0.5225
  608MOL0     H82035   6.884   4.757   9.049  1.9908  1.8766  2.2276
  608MOL0     H82036   6.863   4.508   9.053  0.9137  0.5690 -2.2539
  608MOL0     H82037   6.968   4.513   9.196  2.9638  0.3411 -0.1316
  608MOL0     H82038   7.135   4.638   9.046 -0.1841  0.2211 -1.5401
  608MOL0     H82039   7.023   4.600   8.912  0.1150  0.5494  0.2948
  608MOL0     H82040   7.232   4.561   8.781 -0.2597 -0.2659 -0.1101
  608MOL0     H82041   7.408   4.688   8.680 -0.7868 -1.0671 -1.2136
  608MOL0     H82042   7.568   4.668   8.764 -0.0999 -0.4600 -0.1153
  608MOL0     H82043   7.520   4.565   8.626  1.9775 -0.6128  1.9907
  608MOL0     H82044   7.825   4.068   8.937  1.1716  0.0476  3.6773
  608MOL0     H82045   8.039   3.997   8.871 -1.6803 -0.9285  1.9231
  608MOL0     H82046   8.226   4.021   8.994 -1.5616  0.1231 -0.4759
  608MOL0     H82047   8.300   3.956   8.839  1.1605 -1.9144  2.0172
  608MOL0     H82048   8.477   3.935   8.995  2.2017  0.0007 -2.4318
  608MOL0     H82049   8.515   4.046   8.880 -0.8882  1.1718 -1.1873
  608MOL0     H82050   8.428   4.115   9.163  1.5223  0.3194  0.2581
  608MOL0     H82051   8.442   4.238   9.042  1.5607 -0.8756 -2.7239
  608MOL0     H82052   8.637   4.204   9.189 -2.3037 -0.6174  1.2705
  608MOL0     H82053   8.653   4.034   9.130  0.1545  0.2453  0.5455
  608MOL0     H82054   8.676   4.265   8.945 -0.5616  0.0499 -0.1077
  608MOL0     H82055   8.716   4.099   8.916  0.1177 -1.2248  1.3540
  608MOL0     H82056   8.862   4.281   9.112  2.3426  0.3772 -0.4190
  608MOL0     H82057   8.895   4.107   9.106 -1.8293 -0.4897  1.8866
  608MOL0     H82058   8.944   4.323   8.893 -2.5400  0.3674  0.8502
  608MOL0     H82059   8.938   4.146   8.849 -0.4670  0.6424  0.0887
  608MOL0     H82060   9.127   4.238   9.063 -0.3595  0.0974  0.2516
  608MOL0     H82061   9.160   4.229   8.885  0.4995  0.7169  0.8370
  608MOL0     H82062   8.181   4.414   8.870 -1.8505  2.6030 -0.5338
  608MOL0     H82063   7.929   4.472   8.917  0.5420  1.2494 -0.8353
  608MOL0     H82064   7.533   4.248   9.014  0.1645  1.4467  2.6424
  608MOL0     H82065   7.285   4.268   9.077  1.1229  0.2766  0.9699
  608MOL0     H82066   6.873   4.554   8.559 -0.3587 -1.4805 -1.2447
  608MOL0     H82067   7.027   4.374   8.614 -0.4188  0.9780  0.1435
  608MOL0     H82068   7.241   4.154   8.783 -1.8707  0.0973  0.1472
  608MOL0     H82069   7.447   4.056   8.838 -0.9974  0.7635  0.0870
  608MOL0     H82070   7.582   3.857   8.772  0.3488 -0.6202 -0.2495
  608MOL0     H82071   7.632   3.941   8.920 -1.6456  0.6670  2.8893
  608MOL0     H82072   7.679   3.649   8.848 -0.9602 -1.6349  2.6682
  608MOL0     H82073   7.687   3.717   9.012 -6.0899  0.5728 -0.3915
  608MOL0     H82074   7.886   3.852   8.937  0.4712 -1.2315  0.9574
  608MOL0     H82075   7.855   3.828   8.766 -0.2253  1.9451 -0.0955
  608MOL0     H82076   7.901   3.569   8.812  2.0561 -1.9946  1.2895
  608MOL0     H82077   7.957   3.607   8.972  2.5649  0.5851 -0.6317
  608MOL0     H82078   8.282   3.726   8.730 -0.5789  2.8148 -0.4787
  608MOL0     H82079   7.249   3.705   8.990 -1.0357  0.3285  2.3025
  608MOL0     H82080   7.025   3.820   8.939 -1.2248  2.8769 -0.3514
  609MOL0     O82081   9.799   3.727   6.743 -1.4177 -0.3642 -0.5556
  609MOL0     C82082   9.725   3.657   6.679 -0.3940  1.0493  0.3167
  609MOL0     O82083   9.720   3.654   6.543  0.0588  0.7478  0.2405
  609MOL0     C82084   9.821   3.716   6.476 -0.8987 -0.1465 -0.9833
  609MOL0     C82085   9.851   3.859   6.490 -0.3465  0.6287  0.5081
  609MOL0     C82086   9.959   3.916   6.419  0.1824 -0.7800  0.6158
  609MOL0     C82087  10.036   3.840   6.328 -0.1503  0.2223 -0.1252
  609MOL0     O82088  10.149   3.893   6.264 -0.3104 -0.4542 -0.0106
  609MOL0     C82089  10.122   4.018   6.187 -0.2200  0.2116  0.4157
  609MOL0     C82090  10.251   4.054   6.106  0.2023  0.3272 -0.8720
  609MOL0     C82091  10.378   4.065   6.192  0.1060  0.4391  0.4137
  609MOL0     C82092  10.485   4.071   6.087  0.0510 -0.3366 -0.4972
  609MOL0     C82093  10.606   4.136   6.152 -0.0351 -0.2996  0.7685
  609MOL0     C82094  10.723   4.135   6.056 -0.2042  0.0105 -1.0957
  609MOL0     C82095  10.759   3.986   6.021  0.4950 -0.0251 -0.6474
  609MOL0     C82096  10.909   3.977   6.004 -0.3951 -0.2049 -0.2070
  609MOL0     N82097  10.960   3.856   5.943 -0.9358  1.1031 -0.2843
  609MOL0     C82098  10.998   3.742   6.015  0.2599  0.2924 -0.2752
  609MOL0     C82099  11.021   3.647   5.925  1.1535  0.3244 -0.0580
  609MOL0     C82100  11.068   3.507   5.965  0.2478  0.8773  0.3817
  609MOL0     C82101  11.212   3.507   6.021 -0.1415 -0.1475 -0.7320
  609MOL0     C82102  11.277   3.370   6.030 -0.0981  0.0644 -0.5894
  609MOL0     C82103  11.433   3.379   6.023  0.6150 -0.7721  0.2118
  609MOL0     O82104  11.498   3.251   6.023 -0.4461 -0.6384 -0.4636
  609MOL0     C82105  11.631   3.240   6.047  0.0566  0.3614  0.3006
  609MOL0     C82106  11.720   3.348   6.054 -0.3370  0.5651 -0.6812
  609MOL0     C82107  11.850   3.329   6.107  0.2055  0.7120  1.1308
  609MOL0     C82108  11.940   3.456   6.123  0.2515 -0.6888 -0.6261
  609MOL0     C82109  11.892   3.200   6.144 -0.3469 -0.2161 -0.4116
  609MOL0     C82110  12.026   3.165   6.197 -0.4535 -0.1650 -0.3748
  609MOL0     O82111  12.040   3.044   6.259  0.8273 -0.2123 -0.3803
  609MOL0     C82112  12.167   2.986   6.276 -0.1680 -0.1709  0.4908
  609MOL0     C82113  12.274   2.997   6.176 -0.2909 -0.1478 -0.3665
  609MOL0     C82114  12.392   2.931   6.192 -0.1843 -0.3699 -0.1179
  609MOL0     C82115  12.429   2.868   6.313  0.7842 -0.3873  0.1162
  609MOL0     O82116  12.554   2.813   6.349  0.3035  0.0282 -0.6665
  609MOL0     C82117  12.634   2.749   6.250 -0.1699 -0.2202  0.3010
  609MOL0     C82118  12.761   2.691   6.312  0.1236 -0.0350  1.0294
  609MOL0     C82119  12.852   2.599   6.223 -0.3995 -0.4222 -0.5169
  609MOL0     C82120  12.794   2.460   6.198 -0.1726 -1.4008 -1.0150
  609MOL0     C82121  12.894   2.387   6.117  0.1472  1.2404 -0.6585
  609MOL0     C82122  12.846   2.246   6.080 -0.5491  0.3977 -0.8534
  609MOL0     C82123  12.956   2.182   5.996  1.0443  0.9367 -0.7794
  609MOL0     C82124  12.943   2.032   5.969  0.3471  0.8367 -1.2274
  609MOL0    Cl82125  12.802   1.989   5.862 -0.1275 -0.3827  0.2195
  609MOL0     C82126  12.330   2.843   6.405 -1.3692 -0.4132  0.8569
  609MOL0     C82127  12.206   2.908   6.387 -0.7816 -0.0406 -0.5886
  609MOL0     O82128  12.120   3.232   6.160 -0.0832 -0.7106  0.0940
  609MOL0     C82129  11.799   3.097   6.126  0.4795 -0.3653 -0.3848
  609MOL0     C82130  11.668   3.113   6.084 -0.6087  0.3834  0.3042
  609MOL0     N82131  10.994   3.697   5.797  0.2851  0.2502 -0.3722
  609MOL0     N82132  10.955   3.823   5.810 -0.3430  0.2220 -0.4333
  609MOL0     C82133  10.010   3.700   6.320 -1.0117 -0.8437  0.1284
  609MOL0     C82134   9.906   3.648   6.388 -0.4841  0.7663  0.8365
  609MOL0     C82135   9.627   3.579   6.754 -1.0737  0.3085 -0.0490
  609MOL0     C82136   9.606   3.602   6.890 -0.5145 -0.7248  0.2018
  609MOL0     C82137   9.511   3.524   6.953 -0.5236  1.2901  0.3362
  609MOL0     C82138   9.431   3.426   6.891 -0.0666  0.1813  0.4495
  609MOL0     O82139   9.341   3.338   6.947  0.0240  0.8311  0.1936
  609MOL0     C82140   9.238   3.404   7.017 -0.2607  0.0405 -0.0448
  609MOL0     C82141   9.111   3.408   6.918 -0.1606  0.8769 -0.4079
  609MOL0     C82142   9.136   3.515   6.805  0.4057  0.4912 -0.3175
  609MOL0     C82143   9.021   3.536   6.701 -0.4353  0.0990 -0.6469
  609MOL0     C82144   9.008   3.407   6.629  0.7147 -0.0246  0.2998
  609MOL0     C82145   9.001   3.303   6.561  0.1659  0.1395 -0.3642
  609MOL0     C82146   9.454   3.396   6.757 -0.4968  0.1437 -0.2675
  609MOL0     C82147   9.558   3.473   6.691  0.0026 -0.5913  0.8991
  609MOL0     H82148   9.792   3.918   6.560  0.2266  1.0948  0.5997
  609MOL0     H82149   9.974   4.022   6.434  0.9414 -0.7813 -0.0969
  609MOL0     H82150  10.043   4.010   6.112  2.9847  2.7841 -3.7266
  609MOL0     H82151  10.086   4.094   6.257 -1.9393 -2.4999  2.7007
  609MOL0     H82152  10.253   3.963   6.045 -0.7444 -0.2904 -0.0347
  609MOL0     H82153  10.234   4.144   6.047 -0.9526  0.2485 -0.6875
  609MOL0     H82154  10.370   4.162   6.243  1.1697  2.5722 -3.1250
  609MOL0     H82155  10.393   3.981   6.260  2.5966  0.5218  0.0626
  609MOL0     H82156  10.514   3.969   6.063 -0.3944 -0.8059  0.8822
  609MOL0     H82157  10.459   4.133   6.000 -0.9896 -1.1667 -0.7812
  609MOL0     H82158  10.580   4.239   6.178 -1.5580 -0.4167 -0.1503
  609MOL0     H82159  10.626   4.080   6.244 -0.1090  2.6872  2.7417
  609MOL0     H82160  10.699   4.179   5.959  1.5330 -1.4268 -2.2488
  609MOL0     H82161  10.805   4.185   6.108 -3.5341  4.0592  0.7759
  609MOL0     H82162  10.727   3.905   6.087 -1.2899  0.9734 -0.2221
  609MOL0     H82163  10.710   3.968   5.925  0.5840 -0.0884 -0.6822
  609MOL0     H82164  10.951   3.985   6.105  0.8268  1.4406 -0.8012
  609MOL0     H82165  10.955   4.060   5.949 -1.0238  0.3144  0.0444
  609MOL0     H82166  11.011   3.727   6.122  2.2841  0.9133 -0.3961
  609MOL0     H82167  11.003   3.467   6.043  0.9889  0.1207  0.6327
  609MOL0     H82168  11.057   3.438   5.880  0.3562 -1.9455  2.5078
  609MOL0     H82169  11.216   3.565   6.114  2.6263  2.3248 -2.2164
  609MOL0     H82170  11.278   3.565   5.957  1.6115 -2.5971 -1.3062
  609MOL0     H82171  11.246   3.315   5.941  3.9228 -1.6611 -1.1633
  609MOL0     H82172  11.237   3.315   6.116 -0.5798 -0.6235 -1.2383
  609MOL0     H82173  11.468   3.439   6.107  1.8227 -2.0204  0.6322
  609MOL0     H82174  11.455   3.442   5.937 -0.0947 -0.9867 -0.1416
  609MOL0     H82175  11.686   3.448   6.028 -1.3340  0.5096  0.3180
  609MOL0     H82176  12.033   3.444   6.067  0.0551 -4.5692 -0.3761
  609MOL0     H82177  11.884   3.547   6.100 -0.3572 -0.3293  1.9542
  609MOL0     H82178  11.962   3.457   6.230 -0.7601 -0.0702 -0.4120
  609MOL0     H82179  12.259   3.046   6.080 -1.8871 -4.1666 -2.3929
  609MOL0     H82180  12.470   2.941   6.117  0.1573 -0.0525  0.2717
  609MOL0     H82181  12.580   2.665   6.205  0.1594 -0.0907 -0.3491
  609MOL0     H82182  12.671   2.820   6.176 -2.5151  2.3261  1.3946
  609MOL0     H82183  12.826   2.779   6.323 -2.9416  3.2246 -3.4615
  609MOL0     H82184  12.746   2.638   6.407 -0.3668 -0.2109  0.8530
  609MOL0     H82185  12.949   2.585   6.271 -0.2444  1.5095 -0.1946
  609MOL0     H82186  12.873   2.658   6.133 -2.7200 -0.6764 -1.3041
  609MOL0     H82187  12.770   2.417   6.296 -2.6658  1.6653 -0.1175
  609MOL0     H82188  12.702   2.472   6.140  0.7667  1.7595 -2.0676
  609MOL0     H82189  12.988   2.379   6.172 -0.0380  1.0533 -0.3675
  609MOL0     H82190  12.905   2.447   6.026 -2.4639 -0.9628 -2.5928
  609MOL0     H82191  12.845   2.182   6.169  3.2924  0.1405 -0.8442
  609MOL0     H82192  12.749   2.254   6.030 -1.8423 -1.0688  1.2703
  609MOL0     H82193  13.049   2.197   6.052  0.2427 -0.5352  1.0636
  609MOL0     H82194  12.957   2.239   5.903 -0.5530 -2.1811 -2.9088
  609MOL0     H82195  12.929   1.978   6.063 -0.0520 -2.2255 -2.9032
  609MOL0     H82196  13.039   1.997   5.928  0.5485 -0.0675 -0.0556
  609MOL0     H82197  12.354   2.780   6.491  0.1357 -3.3465 -1.5081
  609MOL0     H82198  12.133   2.893   6.466  2.4674 -1.1918  2.4529
  609MOL0     H82199  11.839   2.999   6.152  2.0075  0.6780  1.5002
  609MOL0     H82200  11.600   3.029   6.083  1.3346 -1.2721 -0.2914
  609MOL0     H82201  10.068   3.637   6.254 -4.1468 -3.0952 -0.7601
  609MOL0     H82202   9.892   3.547   6.353  0.4522  1.3386 -1.3463
  609MOL0     H82203   9.660   3.679   6.943  2.9029 -1.2831 -2.1503
  609MOL0     H82204   9.490   3.538   7.059 -0.6846  0.6366  0.3920
  609MOL0     H82205   9.211   3.328   7.091  2.2517 -0.3381  0.5692
  609MOL0     H82206   9.263   3.498   7.066  0.2453  0.5435 -1.2093
  609MOL0     H82207   9.021   3.437   6.973  0.0078  2.2993 -0.8486
  609MOL0     H82208   9.091   3.311   6.871  2.4399 -0.4228  0.9388
  609MOL0     H82209   9.230   3.486   6.756  1.6627  0.4088  1.9863
  609MOL0     H82210   9.158   3.612   6.850 -0.4826 -0.6261  2.8047
  609MOL0     H82211   9.056   3.615   6.634  0.6919  1.7016  1.7160
  609MOL0     H82212   8.932   3.569   6.754 -0.5003 -0.1435 -0.6033
  609MOL0     H82213   9.008   3.218   6.496  1.5006 -0.7419  0.8703
  609MOL0     H82214   9.384   3.330   6.708  0.3838 -0.1873 -1.1178
  609MOL0     H82215   9.574   3.461   6.584 -3.5960  0.3122  0.1265
  610MOL0     O82216   1.578   2.503  10.103 -0.0236  0.3434 -0.5210
  610MOL0     C82217   1.548   2.544   9.990 -0.1614  0.0051  0.4525
  610MOL0     O82218   1.424   2.534   9.936  0.5142  1.5411 -0.4272
  610MOL0     C82219   1.327   2.445   9.987  0.2234 -0.0372 -0.0003
  610MOL0     C82220   1.201   2.493  10.031  0.1145 -0.0282  0.1003
  610MOL0     C82221   1.095   2.416  10.059  0.9963 -0.3466  0.4926
  610MOL0     C82222   1.106   2.272  10.038  0.0360 -0.0531 -0.4823
  610MOL0     O82223   0.992   2.200  10.043 -0.4464  0.3815 -0.4704
  610MOL0     C82224   0.986   2.086   9.952 -0.9171 -0.0855  0.0420
  610MOL0     C82225   0.839   2.048   9.916 -0.1428 -0.3976 -0.1741
  610MOL0     C82226   0.759   2.031  10.046 -0.3967  0.2901 -0.7008
  610MOL0     C82227   0.610   1.998  10.033 -0.1753  0.3108 -0.7058
  610MOL0     C82228   0.537   2.005  10.166  0.3181  0.0836  0.4582
  610MOL0     C82229   0.414   1.910  10.166 -0.4002  0.2156  0.2595
  610MOL0     C82230   0.327   1.915  10.285 -0.4592 -0.2055 -1.3660
  610MOL0     C82231   0.252   1.780  10.289 -0.2536 -0.1299  0.3425
  610MOL0     N82232   0.150   1.778  10.397 -0.4678 -0.1365 -0.2107
  610MOL0     C82233   0.149   1.833  10.522 -0.3673 -0.6092 -0.3342
  610MOL0     C82234   0.030   1.801  10.581  0.0985  0.4290 -0.2426
  610MOL0     C82235  -0.011   1.849  10.714  0.8861 -0.4374  0.7926
  610MOL0     C82236   0.019   1.999  10.725 -0.0378 -0.3389 -0.1449
  610MOL0     C82237  -0.043   2.053  10.862 -0.3146  1.0962  0.0460
  610MOL0     C82238   0.009   1.985  10.986  0.3351  0.3700 -0.7364
  610MOL0     O82239  -0.042   2.037  11.112  0.0061  0.3068  0.5138
  610MOL0     C82240  -0.146   1.976  11.172 -0.5562  0.2342 -0.1571
  610MOL0     C82241  -0.236   1.883  11.112 -1.6280  0.5144 -0.7140
  610MOL0     C82242  -0.343   1.817  11.174 -0.2318 -0.4201  0.1068
  610MOL0     C82243  -0.414   1.718  11.090  0.1863 -0.5906 -0.2976
  610MOL0     C82244  -0.358   1.841  11.317 -0.8032  0.7674 -0.6407
  610MOL0     C82245  -0.453   1.774  11.398  0.8198 -0.7207 -0.3196
  610MOL0     O82246  -0.450   1.820  11.532 -0.2070  0.6021 -0.4204
  610MOL0     C82247  -0.553   1.792  11.619  0.5523  0.0849 -0.7502
  610MOL0     C82248  -0.686   1.795  11.575  0.3933 -0.2894  0.6129
  610MOL0     C82249  -0.792   1.778  11.662 -0.2580 -1.2977  0.5557
  610MOL0     C82250  -0.777   1.776  11.802 -0.4587  0.0699  0.2075
  610MOL0     O82251  -0.877   1.766  11.888  0.3260 -0.4190  0.3197
  610MOL0     C82252  -1.016   1.760  11.840 -0.1798 -0.0519 -0.6656
  610MOL0     C82253  -1.119   1.757  11.963 -0.7468 -0.2175  0.4992
  610MOL0     C82254  -1.095   1.638  12.061  0.3871  0.2340 -0.3572
  610MOL0     C82255  -1.128   1.678  12.213 -0.2381 -0.8800 -0.0990
  610MOL0     C82256  -1.097   1.578  12.321  0.0526 -0.0456 -0.0182
  610MOL0     C82257  -1.125   1.629  12.462 -0.1048 -0.5012  0.4082
  610MOL0     C82258  -1.076   1.529  12.554  0.4542  0.4743 -0.1374
  610MOL0     C82259  -1.058   1.575  12.696  0.3754 -0.0627  0.3314
  610MOL0    Cl82260  -1.065   1.441  12.804  0.1172  0.1715  0.4287
  610MOL0     C82261  -0.645   1.786  11.848  0.1907  0.4523 -0.3891
  610MOL0     C82262  -0.537   1.790  11.759 -0.1049 -0.0886  0.0684
  610MOL0     O82263  -0.540   1.697  11.352  0.2213 -0.6825 -0.1875
  610MOL0     C82264  -0.271   1.932  11.384 -0.0213 -0.2115 -0.6304
  610MOL0     C82265  -0.175   2.004  11.309 -0.0335  0.7848  0.8375
  610MOL0     N82266  -0.035   1.720  10.494  0.7603 -0.0634 -0.4969
  610MOL0     N82267   0.036   1.702  10.388 -0.2294  0.3150  0.1808
  610MOL0     C82268   1.231   2.217   9.996  0.1164  0.3179 -1.2565
  610MOL0     C82269   1.339   2.307   9.982  0.2682  0.6896  0.1402
  610MOL0     C82270   1.655   2.587   9.897 -0.3157 -0.1345 -0.2068
  610MOL0     C82271   1.794   2.544   9.916  0.4644 -0.1110  0.3839
  610MOL0     C82272   1.888   2.582   9.814  0.0698 -0.2258  0.2508
  610MOL0     C82273   1.856   2.671   9.714  0.8945 -0.3571  0.4884
  610MOL0     O82274   1.941   2.709   9.617  0.0749  0.0810  0.1400
  610MOL0     C82275   2.081   2.704   9.632 -0.2570  0.7440 -0.5520
  610MOL0     C82276   2.144   2.822   9.707 -0.1430 -0.4284  0.4603
  610MOL0     C82277   2.296   2.797   9.712 -0.0629 -0.7249  0.6400
  610MOL0     C82278   2.364   2.893   9.808 -0.2663 -0.9139  0.2000
  610MOL0     C82279   2.327   2.867   9.945 -0.1827  0.0449  0.3694
  610MOL0     C82280   2.315   2.847  10.064 -0.3365 -0.1332  0.0902
  610MOL0     C82281   1.727   2.723   9.702 -0.0276 -0.2646 -0.0383
  610MOL0     C82282   1.627   2.672   9.787  0.1911 -0.3620 -0.8263
  610MOL0     H82283   1.192   2.601  10.035  2.1055  0.1806  0.4165
  610MOL0     H82284   1.004   2.469  10.084  1.6466 -0.7248  4.1428
  610MOL0     H82285   1.035   2.116   9.859  3.9049  0.2933  2.3969
  610MOL0     H82286   1.040   1.997   9.986 -0.2530  0.3798  0.2243
  610MOL0     H82287   0.796   2.134   9.864 -0.1683  0.8710  1.8325
  610MOL0     H82288   0.830   1.960   9.852 -0.6006  0.8157 -1.8382
  610MOL0     H82289   0.808   1.953  10.105  1.5013  2.8911  1.3721
  610MOL0     H82290   0.776   2.123  10.103  1.0165  0.5505 -1.4962
  610MOL0     H82291   0.564   2.066   9.961 -1.0954 -0.6122 -1.0031
  610MOL0     H82292   0.596   1.899   9.990  0.7862 -0.2092  0.1142
  610MOL0     H82293   0.609   1.984  10.246 -0.8792 -0.5771  1.3872
  610MOL0     H82294   0.507   2.107  10.188 -2.2815 -0.7180  0.9055
  610MOL0     H82295   0.354   1.923  10.076 -1.4463 -1.2154  0.7034
  610MOL0     H82296   0.458   1.810  10.154  0.5466  0.9483 -3.6002
  610MOL0     H82297   0.381   1.931  10.379 -2.2157 -2.7411  0.2185
  610MOL0     H82298   0.258   1.999  10.280  2.3459  2.2539 -1.6662
  610MOL0     H82299   0.324   1.700  10.301  0.0595 -0.2315 -1.8235
  610MOL0     H82300   0.215   1.755  10.190  3.6053 -4.7999 -0.2688
  610MOL0     H82301   0.226   1.899  10.561  0.8637 -0.8670 -2.1903
  610MOL0     H82302  -0.119   1.833  10.724  0.9699 -1.6121  0.0887
  610MOL0     H82303   0.046   1.795  10.790 -1.3109 -1.2743  1.9492
  610MOL0     H82304  -0.016   2.048  10.634  3.9620 -2.1999 -3.0148
  610MOL0     H82305   0.127   2.014  10.719 -0.2570  0.9420 -1.1133
  610MOL0     H82306  -0.152   2.050  10.852 -0.4355 -2.1534  1.0234
  610MOL0     H82307  -0.013   2.158  10.871  1.7848  0.4875  0.6786
  610MOL0     H82308   0.114   2.012  10.992  0.4628 -0.0931 -0.8449
  610MOL0     H82309   0.002   1.876  10.984 -1.4219  0.4573 -0.9192
  610MOL0     H82310  -0.217   1.849  11.010 -3.3820 -0.0287 -0.8958
  610MOL0     H82311  -0.519   1.743  11.109  0.0253 -1.6630  0.3078
  610MOL0     H82312  -0.398   1.746  10.986  0.0933 -0.0596 -0.1691
  610MOL0     H82313  -0.390   1.612  11.103  0.8113 -0.2386  1.8496
  610MOL0     H82314  -0.713   1.810  11.471  0.1667 -2.1260  0.3764
  610MOL0     H82315  -0.887   1.781  11.610 -0.5050  0.5255  1.0266
  610MOL0     H82316  -1.046   1.847  11.780  0.9958  2.8598  2.6312
  610MOL0     H82317  -1.027   1.669  11.781 -4.6673  0.5449 -1.1639
  610MOL0     H82318  -1.128   1.855  12.011 -1.3232 -0.2921  0.5550
  610MOL0     H82319  -1.208   1.742  11.903  1.3321 -0.8544 -2.6590
  610MOL0     H82320  -0.991   1.603  12.062 -0.7932 -3.8132 -0.2870
  610MOL0     H82321  -1.153   1.551  12.028 -0.1646  0.8906 -1.1428
  610MOL0     H82322  -1.072   1.770  12.234  1.1026 -1.4990 -0.8924
  610MOL0     H82323  -1.237   1.689  12.213 -0.3054 -1.4656  0.8927
  610MOL0     H82324  -0.991   1.555  12.310 -0.0703 -0.1581 -1.1497
  610MOL0     H82325  -1.151   1.484  12.306  0.4896 -0.0577 -1.7201
  610MOL0     H82326  -1.067   1.721  12.476 -2.3219  1.1191 -0.3920
  610MOL0     H82327  -1.232   1.652  12.472 -0.5125 -2.1028  0.0359
  610MOL0     H82328  -0.983   1.482  12.519 -2.7816 -4.0297 -4.0536
  610MOL0     H82329  -1.140   1.440  12.555 -2.1372  2.1977 -1.5105
  610MOL0     H82330  -1.145   1.633  12.727 -0.3282 -0.2538 -1.2156
  610MOL0     H82331  -0.958   1.618  12.713  1.0722 -1.2165 -0.6826
  610MOL0     H82332  -0.623   1.783  11.955  4.4120  4.0121 -0.8842
  610MOL0     H82333  -0.434   1.797  11.794 -0.4288 -1.3627  1.3544
  610MOL0     H82334  -0.263   1.949  11.490 -0.3962  0.8420 -0.7620
  610MOL0     H82335  -0.116   2.081  11.356  0.9010 -0.5278  1.9220
  610MOL0     H82336   1.247   2.110   9.993 -1.8908 -0.0001 -2.1701
  610MOL0     H82337   1.436   2.274   9.946  1.3999 -0.2094  3.5791
  610MOL0     H82338   1.833   2.478   9.993  1.0236  0.1157  0.3005
  610MOL0     H82339   1.991   2.552   9.828  0.8578  3.1935  3.2829
  610MOL0     H82340   2.105   2.619   9.696 -0.0126  1.7397  0.7088
  610MOL0     H82341   2.131   2.686   9.536 -2.8042 -0.5587 -1.7197
  610MOL0     H82342   2.100   2.834   9.807  0.6039 -3.8753  1.3191
  610MOL0     H82343   2.127   2.909   9.643 -0.6437 -2.5365 -2.4365
  610MOL0     H82344   2.353   2.805   9.619 -0.3610  0.2112  0.5308
  610MOL0     H82345   2.306   2.704   9.769 -0.2207 -0.3444  1.3001
  610MOL0     H82346   2.328   2.996   9.791 -1.1271 -1.1890  0.3110
  610MOL0     H82347   2.470   2.891   9.782 -0.2514  3.8306 -1.0588
  610MOL0     H82348   2.307   2.842  10.171 -1.0867  2.5325  0.2462
  610MOL0     H82349   1.705   2.786   9.617  1.3471  0.3818  0.0595
  610MOL0     H82350   1.522   2.700   9.779 -0.2955 -2.3144 -1.9305
  611MOL0     O82351  10.321   0.799   7.789 -0.0401 -0.4965  0.7429
  611MOL0     C82352  10.427   0.846   7.740 -0.4830  1.1382 -0.2981
  611MOL0     O82353  10.442   0.914   7.625 -0.9699  0.2243 -0.3231
  611MOL0     C82354  10.340   0.971   7.557 -1.1621 -0.6882  0.3180
  611MOL0     C82355  10.367   1.006   7.423  0.0605  0.2527 -0.3192
  611MOL0     C82356  10.269   1.053   7.335  0.6676 -0.2327  1.2196
  611MOL0     C82357  10.138   1.081   7.389 -0.4768  0.5594 -0.5016
  611MOL0     O82358  10.033   1.134   7.315  0.2989 -0.6670  0.4497
  611MOL0     C82359  10.030   1.129   7.173 -0.2714 -0.5667  0.3457
  611MOL0     C82360   9.889   1.142   7.108 -0.7183 -0.0991  0.8029
  611MOL0     C82361   9.805   1.014   7.128  0.0085 -0.1829 -0.1737
  611MOL0     C82362   9.679   1.015   7.043  0.7253 -0.2034  0.3279
  611MOL0     C82363   9.573   0.917   7.090  0.3386 -0.5809  0.3861
  611MOL0     C82364   9.625   0.775   7.071  0.3984  0.4637  0.3839
  611MOL0     C82365   9.536   0.681   7.151  1.0923  0.3859 -0.3003
  611MOL0     C82366   9.596   0.641   7.287  0.1696 -0.7394 -0.2731
  611MOL0     N82367   9.527   0.527   7.343  0.9884 -0.3052 -0.3834
  611MOL0     C82368   9.399   0.536   7.386 -0.5842  1.1748  0.6184
  611MOL0     C82369   9.372   0.400   7.404  0.3797  1.0405 -0.5254
  611MOL0     C82370   9.241   0.337   7.437 -0.2475  0.0602 -0.2460
  611MOL0     C82371   9.127   0.405   7.354 -0.1889 -0.4277 -0.1774
  611MOL0     C82372   8.989   0.359   7.379  0.0328  0.2919 -0.1069
  611MOL0     C82373   8.919   0.405   7.503  0.6489  0.1221 -0.0034
  611MOL0     O82374   8.786   0.362   7.527  0.0225  0.0626 -0.8528
  611MOL0     C82375   8.685   0.391   7.439 -0.7190  0.5030 -0.3402
  611MOL0     C82376   8.688   0.474   7.328 -0.1538  0.2746 -0.6949
  611MOL0     C82377   8.574   0.495   7.254 -0.8133 -0.6932  0.2411
  611MOL0     C82378   8.582   0.567   7.122  0.0137  0.0410  0.8474
  611MOL0     C82379   8.452   0.432   7.293 -0.1329  0.1855 -0.4488
  611MOL0     C82380   8.326   0.444   7.220 -0.0772 -0.5778  0.0160
  611MOL0     O82381   8.208   0.467   7.287 -0.0769  0.2006  0.2300
  611MOL0     C82382   8.085   0.492   7.218 -0.3285  0.6464  1.2167
  611MOL0     C82383   7.993   0.528   7.314  0.8925  0.8989  0.0215
  611MOL0     C82384   7.858   0.556   7.288  0.1176 -0.3331  0.3103
  611MOL0     C82385   7.812   0.526   7.156  0.0062 -1.0184 -0.4673
  611MOL0     O82386   7.694   0.564   7.114  0.3919  0.0555  0.1608
  611MOL0     C82387   7.576   0.510   7.183 -0.3900 -1.1587  0.4941
  611MOL0     C82388   7.460   0.558   7.095 -0.7865  0.4136  0.9366
  611MOL0     C82389   7.319   0.495   7.136 -0.4390  0.8087  0.2191
  611MOL0     C82390   7.265   0.544   7.268 -0.1441 -0.5347 -0.0324
  611MOL0     C82391   7.128   0.484   7.305  0.2597  0.4232 -0.1324
  611MOL0     C82392   7.068   0.553   7.431  0.0127 -0.1481  0.0292
  611MOL0     C82393   6.920   0.545   7.450  0.9418  1.0169 -0.2067
  611MOL0     C82394   6.875   0.397   7.469 -0.0130  0.6608  0.1918
  611MOL0    Cl82395   6.977   0.308   7.586  0.3162  0.6234  0.1493
  611MOL0     C82396   7.897   0.481   7.059 -0.5552  0.2237  0.3285
  611MOL0     C82397   8.031   0.463   7.089 -0.3196  0.4801  0.5456
  611MOL0     O82398   8.330   0.428   7.093  0.2234 -0.1318 -0.0206
  611MOL0     C82399   8.448   0.351   7.407  0.3712  0.2665  0.8412
  611MOL0     C82400   8.568   0.323   7.468 -0.1811  0.4350 -0.5860
  611MOL0     N82401   9.490   0.325   7.380  0.7388  0.4797  0.1792
  611MOL0     N82402   9.582   0.402   7.346 -0.5115 -0.8032 -0.3828
  611MOL0     C82403  10.120   1.061   7.523  0.4451  0.2711 -0.1354
  611MOL0     C82404  10.212   0.996   7.607 -0.8465 -0.5907 -0.1752
  611MOL0     C82405  10.552   0.792   7.803  0.4126 -0.6648  0.4900
  611MOL0     C82406  10.658   0.762   7.721 -0.3926  0.0108  0.4921
  611MOL0     C82407  10.785   0.728   7.776  0.2941  0.6652  0.7958
  611MOL0     C82408  10.805   0.706   7.906 -0.8298 -0.3434  0.1862
  611MOL0     O82409  10.932   0.679   7.954 -0.4390 -0.3110  0.3086
  611MOL0     C82410  11.027   0.601   7.875  0.4993 -0.0523 -0.1972
  611MOL0     C82411  11.144   0.548   7.956 -0.9849 -0.0570 -0.7895
  611MOL0     C82412  11.239   0.457   7.894 -0.6176 -0.3517  1.3469
  611MOL0     C82413  11.344   0.403   7.989  0.7011 -0.3449 -0.1331
  611MOL0     C82414  11.424   0.299   7.927 -0.6466 -0.0104 -0.4125
  611MOL0     C82415  11.493   0.212   7.883 -0.7238 -0.2570 -0.1257
  611MOL0     C82416  10.697   0.727   7.987  0.1116  0.9709  0.8862
  611MOL0     C82417  10.569   0.775   7.943  0.0465  0.4722  0.6090
  611MOL0     H82418  10.471   0.990   7.399  1.0580  4.3843  0.5173
  611MOL0     H82419  10.288   1.068   7.230 -1.5086 -0.6035  0.7295
  611MOL0     H82420  10.087   1.213   7.131 -0.0954  0.1401  1.9485
  611MOL0     H82421  10.074   1.034   7.140 -1.2897 -2.1438  3.2103
  611MOL0     H82422   9.831   1.224   7.152  1.6975  2.0217  0.2213
  611MOL0     H82423   9.902   1.143   7.000  2.6932 -2.0088  1.0548
  611MOL0     H82424   9.862   0.926   7.097  1.5140 -0.1627  2.2976
  611MOL0     H82425   9.784   1.016   7.235  0.2138  1.8698 -0.1244
  611MOL0     H82426   9.637   1.116   7.035 -0.3896 -0.4921  2.0104
  611MOL0     H82427   9.693   0.988   6.938  2.2379  1.5621  0.0331
  611MOL0     H82428   9.557   0.934   7.197  2.4946 -0.1319  0.6749
  611MOL0     H82429   9.485   0.931   7.027  2.3674  0.7315 -2.3408
  611MOL0     H82430   9.612   0.733   6.971 -0.8866 -0.9057  1.0884
  611MOL0     H82431   9.733   0.766   7.086 -0.0472 -2.2342  3.0662
  611MOL0     H82432   9.431   0.711   7.164  0.3811 -2.4015  1.2222
  611MOL0     H82433   9.524   0.591   7.090 -0.9250  0.9073 -0.7702
  611MOL0     H82434   9.588   0.727   7.355 -1.0588  2.2845 -3.9142
  611MOL0     H82435   9.705   0.627   7.283  0.5395  0.2606  3.0463
  611MOL0     H82436   9.322   0.611   7.374 -0.5951  0.7493 -3.0590
  611MOL0     H82437   9.248   0.231   7.412  1.4843  0.1657 -0.3796
  611MOL0     H82438   9.219   0.345   7.544  1.4014  3.2671  0.0047
  611MOL0     H82439   9.145   0.393   7.247  0.9809 -2.2717  0.1825
  611MOL0     H82440   9.125   0.510   7.384 -3.5065 -0.2874 -0.5324
  611MOL0     H82441   8.997   0.250   7.389 -0.2149  0.2924  0.1139
  611MOL0     H82442   8.934   0.373   7.285  4.3887  0.6717 -2.9034
  611MOL0     H82443   8.929   0.514   7.500  2.4597 -0.0167 -1.7472
  611MOL0     H82444   8.981   0.366   7.584 -1.4458 -0.0287  1.6160
  611MOL0     H82445   8.780   0.525   7.304  0.3388  0.1131  0.7676
  611MOL0     H82446   8.495   0.632   7.121 -0.7554 -0.9680  0.6773
  611MOL0     H82447   8.671   0.630   7.116  0.6365 -0.6196  2.3564
  611MOL0     H82448   8.580   0.509   7.030  0.1609  2.9028 -1.0651
  611MOL0     H82449   8.026   0.556   7.413 -1.1970  2.3144  0.3960
  611MOL0     H82450   7.791   0.587   7.368 -1.4187 -0.4448 -0.8925
  611MOL0     H82451   7.580   0.400   7.180  0.7050 -1.1100 -0.6102
  611MOL0     H82452   7.573   0.547   7.285 -1.5880  2.5980 -0.7238
  611MOL0     H82453   7.473   0.667   7.086  1.7268  0.2719  2.0705
  611MOL0     H82454   7.483   0.525   6.993 -1.9077  1.7644  0.2140
  611MOL0     H82455   7.334   0.387   7.130 -0.0719  0.7018  2.3381
  611MOL0     H82456   7.239   0.516   7.064 -1.3207 -3.4244 -0.2549
  611MOL0     H82457   7.343   0.529   7.343  0.8578  0.1884 -0.8976
  611MOL0     H82458   7.265   0.653   7.258 -0.0736 -0.5694 -0.4717
  611MOL0     H82459   7.147   0.378   7.327  2.4759  1.1390  1.8875
  611MOL0     H82460   7.051   0.485   7.228 -2.2394 -0.4282  2.1848
  611MOL0     H82461   7.110   0.502   7.519 -1.3614 -1.2244  0.0989
  611MOL0     H82462   7.095   0.658   7.432  1.6184 -0.5254 -0.5387
  611MOL0     H82463   6.877   0.590   7.359  0.3658 -1.3257 -1.1625
  611MOL0     H82464   6.876   0.601   7.533 -4.1717 -3.4846  0.6222
  611MOL0     H82465   6.881   0.345   7.373  2.1805 -0.8565  1.0753
  611MOL0     H82466   6.772   0.414   7.504 -0.0118 -1.4770  1.3938
  611MOL0     H82467   7.862   0.481   6.956  0.0159  1.3296  0.1117
  611MOL0     H82468   8.100   0.420   7.017 -0.7129 -1.9591  1.5155
  611MOL0     H82469   8.360   0.300   7.444  0.3583  0.7206  1.4647
  611MOL0     H82470   8.567   0.244   7.542 -1.1266  0.0939 -0.9447
  611MOL0     H82471  10.024   1.087   7.565  0.1798  1.0135 -1.1671
  611MOL0     H82472  10.197   0.983   7.713 -0.5394 -3.2430 -0.3924
  611MOL0     H82473  10.656   0.770   7.613  1.5672  1.5393  0.5320
  611MOL0     H82474  10.858   0.707   7.698 -1.2597  0.6357 -0.6985
  611MOL0     H82475  10.968   0.518   7.835 -0.3622  0.5262 -0.1703
  611MOL0     H82476  11.063   0.658   7.788  0.2086  0.8632  0.2660
  611MOL0     H82477  11.101   0.503   8.046  1.8971  0.0984  0.7848
  611MOL0     H82478  11.205   0.635   7.984 -0.1041  0.4158 -3.7786
  611MOL0     H82479  11.291   0.517   7.819 -1.8176 -2.8262 -1.6936
  611MOL0     H82480  11.183   0.380   7.840 -1.8709  1.9042 -0.7856
  611MOL0     H82481  11.302   0.367   8.084 -0.5128  1.0513 -0.0969
  611MOL0     H82482  11.391   0.499   8.012 -0.5482 -0.2625  2.3515
  611MOL0     H82483  11.561   0.139   7.844  0.0601  0.8298 -0.8686
  611MOL0     H82484  10.706   0.704   8.093 -0.2202 -0.9109  0.5377
  611MOL0     H82485  10.482   0.773   8.008  1.0081 -3.5229  2.0827
  612MOL0     O82486   4.527   8.533   3.747 -0.0073 -0.0157 -0.0964
  612MOL0     C82487   4.468   8.428   3.744  0.1125 -0.7259  0.8537
  612MOL0     O82488   4.522   8.303   3.754 -0.3681  0.0687 -0.6512
  612MOL0     C82489   4.656   8.278   3.782 -1.0991  0.1185 -0.1065
  612MOL0     C82490   4.762   8.338   3.720 -0.3499  1.2288  0.6536
  612MOL0     C82491   4.889   8.336   3.778  0.1928  1.3778 -0.1493
  612MOL0     C82492   4.904   8.281   3.908 -0.1597 -0.5647 -0.1189
  612MOL0     O82493   5.036   8.272   3.948 -0.8213 -0.0690  0.5453
  612MOL0     C82494   5.061   8.321   4.085  0.1276  0.0446  0.4188
  612MOL0     C82495   4.992   8.456   4.122  0.1955 -0.3309 -0.9926
  612MOL0     C82496   5.032   8.496   4.259 -0.3059 -0.4485 -0.8006
  612MOL0     C82497   4.972   8.625   4.317 -0.2128  0.2229 -0.3882
  612MOL0     C82498   4.822   8.606   4.333  1.1231  0.3300 -0.5395
  612MOL0     C82499   4.776   8.698   4.444  0.0397 -0.9350 -0.3414
  612MOL0     C82500   4.626   8.748   4.452  0.4248 -0.8401  0.7584
  612MOL0     C82501   4.530   8.681   4.551  0.3444 -1.0357  0.0262
  612MOL0     N82502   4.393   8.743   4.538  0.6620  0.0015 -0.0903
  612MOL0     C82503   4.357   8.873   4.569  0.9778  0.3928 -0.0501
  612MOL0     C82504   4.216   8.874   4.540  0.6247 -0.8233 -0.4950
  612MOL0     C82505   4.129   8.993   4.554  0.2622 -0.2354 -0.1714
  612MOL0     C82506   3.987   8.970   4.521 -0.8155  0.4011  0.3263
  612MOL0     C82507   3.917   9.079   4.593 -0.1028 -1.1827  0.0025
  612MOL0     C82508   3.780   9.106   4.524 -0.0387 -0.4116 -1.1899
  612MOL0     O82509   3.684   9.015   4.573  0.9929  1.1994  1.3076
  612MOL0     C82510   3.553   9.051   4.548 -0.3355  0.2630  0.5869
  612MOL0     C82511   3.464   8.961   4.607 -0.7366  0.5360 -0.3230
  612MOL0     C82512   3.321   8.964   4.583 -1.1174  0.3270 -0.6199
  612MOL0     C82513   3.237   8.868   4.656 -0.8896 -0.1676  0.2474
  612MOL0     C82514   3.271   9.070   4.503  0.0350 -0.1177 -0.6226
  612MOL0     C82515   3.123   9.090   4.467  0.3885  1.1192 -0.1222
  612MOL0     O82516   3.043   8.985   4.471 -0.7474  0.4825  0.1410
  612MOL0     C82517   2.910   9.003   4.452  0.2076 -0.1836 -0.1830
  612MOL0     C82518   2.850   8.934   4.345  0.2804  0.1667  0.2830
  612MOL0     C82519   2.707   8.951   4.311  0.5799  0.7870 -0.2112
  612MOL0     C82520   2.638   9.040   4.396  0.3215 -0.7642  0.1944
  612MOL0     O82521   2.512   9.076   4.350 -0.2064 -0.5491  0.2592
  612MOL0     C82522   2.469   9.209   4.358 -0.4026 -0.8745 -0.3863
  612MOL0     C82523   2.340   9.225   4.453  0.1499  0.3588  0.0397
  612MOL0     C82524   2.206   9.161   4.404 -0.4722  0.2702 -0.0898
  612MOL0     C82525   2.106   9.172   4.523 -0.7760  0.1145 -0.1437
  612MOL0     C82526   1.969   9.116   4.486  0.0145 -0.1390  0.9359
  612MOL0     C82527   1.867   9.144   4.593 -0.0835  0.9133  0.2591
  612MOL0     C82528   1.726   9.093   4.555 -0.6483  0.5651 -0.1018
  612MOL0     C82529   1.740   8.936   4.520  0.3334 -0.7959 -0.2106
  612MOL0    Cl82530   1.747   8.901   4.349 -0.4796  0.6942  0.4659
  612MOL0     C82531   2.698   9.100   4.503  0.6352 -0.9904 -0.1351
  612MOL0     C82532   2.832   9.090   4.529  1.0898  0.1160  0.5117
  612MOL0     O82533   3.088   9.197   4.412  0.3269  0.3915 -0.0959
  612MOL0     C82534   3.362   9.174   4.456 -0.0013 -0.3115 -0.4508
  612MOL0     C82535   3.506   9.156   4.472 -1.0509 -0.0456 -0.3127
  612MOL0     N82536   4.186   8.767   4.473  0.4720 -1.0558  0.0926
  612MOL0     N82537   4.285   8.687   4.464 -0.0208  0.7728 -0.5489
  612MOL0     C82538   4.801   8.219   3.974  0.8453 -0.4873  0.3033
  612MOL0     C82539   4.674   8.223   3.910  0.3130  0.5393 -0.2673
  612MOL0     C82540   4.320   8.430   3.750  0.7569 -0.2553 -0.3616
  612MOL0     C82541   4.236   8.319   3.783 -0.1780  0.3574 -0.6760
  612MOL0     C82542   4.098   8.340   3.779  0.0046  0.9824 -0.1617
  612MOL0     C82543   4.037   8.461   3.749 -0.8259 -0.8389 -0.0435
  612MOL0     O82544   3.903   8.456   3.735  0.2105 -0.3437  0.3027
  612MOL0     C82545   3.832   8.578   3.711 -0.1825  0.7683  0.1778
  612MOL0     C82546   3.694   8.546   3.674  0.2779 -0.2450  0.7434
  612MOL0     C82547   3.689   8.504   3.522 -1.5165 -0.6520 -0.3647
  612MOL0     C82548   3.545   8.458   3.494 -0.1964 -0.1200 -0.4196
  612MOL0     C82549   3.464   8.575   3.479 -0.2468 -0.3362  0.4978
  612MOL0     C82550   3.393   8.676   3.480  0.1916 -0.9634 -0.8968
  612MOL0     C82551   4.118   8.573   3.730  0.7116 -0.8638  0.3915
  612MOL0     C82552   4.256   8.559   3.723  0.4091  0.6078  1.1232
  612MOL0     H82553   4.734   8.367   3.619 -1.6684 -1.2594  0.2262
  612MOL0     H82554   4.970   8.374   3.717  1.2733 -1.8705 -0.9102
  612MOL0     H82555   5.049   8.243   4.161  1.6080 -1.9912 -1.3196
  612MOL0     H82556   5.167   8.347   4.088  0.0263  0.3886  1.6314
  612MOL0     H82557   5.021   8.537   4.053  0.2677 -0.3570 -0.9930
  612MOL0     H82558   4.884   8.463   4.109  0.0833 -2.0966 -1.1879
  612MOL0     H82559   5.022   8.409   4.325  1.7946  1.1216  1.7888
  612MOL0     H82560   5.140   8.512   4.266 -0.1968 -1.8064  1.5356
  612MOL0     H82561   5.031   8.638   4.408  0.7610 -1.4664 -0.7179
  612MOL0     H82562   4.985   8.701   4.240  0.5686 -0.5351 -1.0336
  612MOL0     H82563   4.765   8.630   4.243 -0.4463 -0.6693  0.1430
  612MOL0     H82564   4.790   8.506   4.364  0.5207 -0.3054 -2.9933
  612MOL0     H82565   4.796   8.661   4.545  1.0936  1.4267  0.3946
  612MOL0     H82566   4.842   8.781   4.417  1.7148 -2.6478 -1.7160
  612MOL0     H82567   4.634   8.856   4.468  3.0274 -0.1955 -3.3253
  612MOL0     H82568   4.578   8.739   4.354  1.8367 -0.0317 -0.0399
  612MOL0     H82569   4.555   8.714   4.652  0.3481  2.8854 -1.1034
  612MOL0     H82570   4.535   8.573   4.529  3.9247 -0.6961 -1.5142
  612MOL0     H82571   4.410   8.956   4.614  0.7018 -0.1395  1.2994
  612MOL0     H82572   4.147   9.031   4.655 -0.3524 -0.1946 -0.0744
  612MOL0     H82573   4.179   9.063   4.486 -0.6776 -1.3795 -2.1105
  612MOL0     H82574   3.957   8.869   4.552 -0.2559  0.4339  0.9960
  612MOL0     H82575   3.971   8.994   4.415  1.3350  1.7073  0.2333
  612MOL0     H82576   3.973   9.173   4.588 -2.9603  0.5939 -1.7658
  612MOL0     H82577   3.889   9.056   4.696  0.9961 -1.3680  0.2782
  612MOL0     H82578   3.787   9.076   4.419  2.2090 -4.1298 -0.1625
  612MOL0     H82579   3.767   9.215   4.531  5.3168  0.4567  0.1785
  612MOL0     H82580   3.494   8.886   4.680 -0.5822  0.3778 -0.5482
  612MOL0     H82581   3.181   8.809   4.583  0.6517 -1.0018 -0.3109
  612MOL0     H82582   3.276   8.788   4.721 -2.2267 -3.0852 -2.3074
  612MOL0     H82583   3.165   8.925   4.716 -0.3425  0.6773  0.1144
  612MOL0     H82584   2.916   8.871   4.286  0.2753  0.9236 -0.5494
  612MOL0     H82585   2.655   8.896   4.234 -0.0897 -4.3928  3.4183
  612MOL0     H82586   2.545   9.280   4.393 -1.5768 -0.2253  0.9066
  612MOL0     H82587   2.440   9.237   4.256 -1.2056  1.6283  0.4698
  612MOL0     H82588   2.372   9.177   4.546  2.3056  0.3007 -0.6701
  612MOL0     H82589   2.319   9.330   4.472 -1.6021 -0.0306  0.4121
  612MOL0     H82590   2.227   9.056   4.379  0.2129  0.7590 -1.6972
  612MOL0     H82591   2.163   9.212   4.317 -0.1382 -1.1919 -1.1458
  612MOL0     H82592   2.148   9.115   4.606 -3.1474 -1.3051  0.1497
  612MOL0     H82593   2.106   9.276   4.557  1.4874 -0.4493  1.8787
  612MOL0     H82594   1.987   9.011   4.460 -1.9044  0.0069 -1.3151
  612MOL0     H82595   1.926   9.159   4.395  2.0388 -0.4863 -0.2182
  612MOL0     H82596   1.901   9.104   4.689 -2.3326 -1.1668  0.2812
  612MOL0     H82597   1.843   9.250   4.604 -1.4531  0.4413  2.5643
  612MOL0     H82598   1.672   9.145   4.475 -2.0070 -0.6000  0.0147
  612MOL0     H82599   1.660   9.102   4.642  0.9448  0.0597  1.1938
  612MOL0     H82600   1.654   8.884   4.562  0.9937 -0.7003  1.3221
  612MOL0     H82601   1.823   8.910   4.587 -0.1907  2.7640  2.1041
  612MOL0     H82602   2.643   9.166   4.569  1.4249  1.3146 -1.6527
  612MOL0     H82603   2.873   9.146   4.613 -2.2217 -0.6723  2.8510
  612MOL0     H82604   3.308   9.255   4.408 -0.2448 -0.4152 -0.3508
  612MOL0     H82605   3.577   9.217   4.416 -1.1595  0.3812  0.0076
  612MOL0     H82606   4.813   8.184   4.076  0.2444  0.1756  0.6136
  612MOL0     H82607   4.591   8.178   3.963  2.1513 -0.8414  1.5759
  612MOL0     H82608   4.281   8.225   3.813 -1.0705 -0.3976 -1.6330
  612MOL0     H82609   4.038   8.252   3.802 -1.1365  1.9655  0.7467
  612MOL0     H82610   3.839   8.632   3.805 -1.2242 -0.1623  0.8155
  612MOL0     H82611   3.889   8.632   3.635  3.1664 -1.5133  0.8205
  612MOL0     H82612   3.631   8.634   3.689 -0.3753 -1.2597  5.2245
  612MOL0     H82613   3.643   8.475   3.739 -0.0884 -2.3578 -1.7048
  612MOL0     H82614   3.748   8.412   3.514  0.6164  0.2846  2.6261
  612MOL0     H82615   3.728   8.578   3.451  1.9258 -0.4179  1.5418
  612MOL0     H82616   3.512   8.383   3.566  0.6280 -1.4321 -1.3754
  612MOL0     H82617   3.542   8.406   3.398 -0.2809 -0.7028 -0.1081
  612MOL0     H82618   3.322   8.757   3.481  1.1746 -0.0196 -2.4932
  612MOL0     H82619   4.078   8.671   3.709  1.3343 -1.0051 -1.7175
  612MOL0     H82620   4.318   8.645   3.702  2.5309 -1.1364 -0.3350
  613MOL0     O82621   3.391   0.701   6.058  0.2231  0.0791  0.4574
  613MOL0     C82622   3.416   0.697   6.185  0.5871 -0.1182 -0.1784
  613MOL0     O82623   3.332   0.643   6.279  0.2138  0.4650  0.4939
  613MOL0     C82624   3.201   0.619   6.262 -0.3858  0.2486 -0.3799
  613MOL0     C82625   3.148   0.501   6.324 -0.0372 -0.3937 -0.0505
  613MOL0     C82626   3.013   0.465   6.314  0.2275  0.2224 -0.2112
  613MOL0     C82627   2.929   0.551   6.237  1.2106  0.5123 -0.2735
  613MOL0     O82628   2.801   0.515   6.194 -0.0180 -0.2824  0.2816
  613MOL0     C82629   2.747   0.375   6.201 -0.6858  0.2387 -0.1503
  613MOL0     C82630   2.670   0.348   6.333 -0.1654  0.3990  0.0797
  613MOL0     C82631   2.560   0.451   6.368 -0.2968  0.2120 -0.1520
  613MOL0     C82632   2.478   0.391   6.484 -1.2181 -0.2507 -1.0888
  613MOL0     C82633   2.341   0.462   6.488  0.9815  0.0027 -0.6143
  613MOL0     C82634   2.266   0.445   6.625  0.5453  0.2663  0.4300
  613MOL0     C82635   2.114   0.481   6.622 -0.5551  0.7574  0.3799
  613MOL0     C82636   2.079   0.614   6.573  0.4183 -0.6937 -0.2247
  613MOL0     N82637   1.934   0.632   6.582 -0.7403 -0.2856  0.4186
  613MOL0     C82638   1.860   0.650   6.691  1.0390  0.2267 -0.3774
  613MOL0     C82639   1.745   0.713   6.651  0.2806  1.3785  0.1165
  613MOL0     C82640   1.627   0.742   6.740 -0.2796  0.2135  0.2822
  613MOL0     C82641   1.499   0.705   6.654 -0.1443  0.0476  0.3837
  613MOL0     C82642   1.377   0.759   6.736  0.2898  0.4411  0.3270
  613MOL0     C82643   1.247   0.745   6.669  0.2120 -0.2043  0.5292
  613MOL0     O82644   1.144   0.791   6.759  0.2030 -0.1405  0.3120
  613MOL0     C82645   1.021   0.805   6.705  0.7561  0.3678 -0.3843
  613MOL0     C82646   0.921   0.794   6.810 -0.1015  0.8382  0.1284
  613MOL0     C82647   0.780   0.792   6.778 -0.2864  0.5979 -0.4663
  613MOL0     C82648   0.684   0.766   6.896  0.6607  0.5346  0.6951
  613MOL0     C82649   0.736   0.819   6.645 -1.4427  0.9438  0.6153
  613MOL0     C82650   0.595   0.833   6.599 -0.4759  0.3405  0.0160
  613MOL0     O82651   0.570   0.857   6.469 -0.0579  0.3451 -1.1249
  613MOL0     C82652   0.445   0.890   6.422 -0.6643  0.5988 -0.1403
  613MOL0     C82653   0.390   0.814   6.324  0.4812 -0.1521 -0.0994
  613MOL0     C82654   0.268   0.856   6.266  1.0535  0.2347 -0.2744
  613MOL0     C82655   0.204   0.978   6.312 -0.8089 -0.3076 -0.2015
  613MOL0     O82656   0.092   1.022   6.249 -0.3645 -0.3686 -0.4551
  613MOL0     C82657   0.040   1.151   6.279 -0.3062  0.1418 -0.2114
  613MOL0     C82658  -0.073   1.159   6.184  0.0050  0.0387  1.0271
  613MOL0     C82659  -0.212   1.103   6.233 -0.0896  0.0827 -0.5878
  613MOL0     C82660  -0.270   1.202   6.339  0.1928  0.2882  0.0992
  613MOL0     C82661  -0.376   1.293   6.275  0.4751 -0.0632  0.8658
  613MOL0     C82662  -0.506   1.227   6.240  0.5090 -0.1744 -0.9313
  613MOL0     C82663  -0.607   1.317   6.159  0.1867 -0.6009  0.3199
  613MOL0     C82664  -0.672   1.429   6.248 -0.3117 -0.3488  0.2495
  613MOL0    Cl82665  -0.794   1.348   6.357 -0.1026  0.1148  0.2679
  613MOL0     C82666   0.258   1.040   6.421  0.3164 -0.0997  0.6404
  613MOL0     C82667   0.384   1.005   6.475  0.3635  0.0837  0.4602
  613MOL0     O82668   0.507   0.851   6.687 -0.1505 -0.1665 -0.4613
  613MOL0     C82669   0.841   0.835   6.550 -0.0012 -0.3530 -0.0668
  613MOL0     C82670   0.973   0.815   6.572  0.3939 -0.4936 -0.3242
  613MOL0     N82671   1.750   0.726   6.512  0.5110  0.2966 -0.3828
  613MOL0     N82672   1.863   0.674   6.474 -0.3748  0.1478 -0.4058
  613MOL0     C82673   2.983   0.660   6.165 -0.3152  0.3025  0.0343
  613MOL0     C82674   3.116   0.690   6.183 -0.8508 -0.0264 -0.2984
  613MOL0     C82675   3.541   0.755   6.240  0.5810  0.0100  0.6986
  613MOL0     C82676   3.558   0.744   6.378 -0.2384  0.9645  0.0437
  613MOL0     C82677   3.676   0.799   6.423  0.3164 -0.3876 -0.5308
  613MOL0     C82678   3.762   0.884   6.343  0.3787  0.1903 -0.3056
  613MOL0     O82679   3.874   0.932   6.403  0.1328  0.3806  0.5304
  613MOL0     C82680   3.969   1.022   6.339 -0.4922  0.2372  0.5980
  613MOL0     C82681   4.085   0.943   6.272 -0.2947 -0.4843 -0.3409
  613MOL0     C82682   4.049   0.835   6.155  0.2393  0.4800  0.7486
  613MOL0     C82683   4.176   0.780   6.088 -0.3754  0.5229  0.3089
  613MOL0     C82684   4.159   0.650   6.026  0.3934  0.2780 -0.4690
  613MOL0     C82685   4.168   0.540   5.969 -0.0451  0.0561  0.0303
  613MOL0     C82686   3.733   0.904   6.207  0.5967 -0.9734 -0.6488
  613MOL0     C82687   3.622   0.836   6.154  0.0378  0.1800  0.2275
  613MOL0     H82688   3.205   0.439   6.393 -1.5510 -2.1925 -0.3414
  613MOL0     H82689   2.986   0.370   6.358  0.9290 -0.0869 -0.4425
  613MOL0     H82690   2.679   0.346   6.121 -0.9295 -0.2226  0.2169
  613MOL0     H82691   2.831   0.305   6.195 -0.1897  0.5076  2.4738
  613MOL0     H82692   2.620   0.256   6.298 -1.1042  0.9332 -0.0257
  613MOL0     H82693   2.740   0.326   6.414  2.5830  0.3933 -2.1637
  613MOL0     H82694   2.605   0.545   6.400  1.4424 -1.3962  2.5327
  613MOL0     H82695   2.503   0.463   6.275  1.2890  0.3885 -1.1429
  613MOL0     H82696   2.463   0.284   6.470  0.0863 -0.5310 -0.5148
  613MOL0     H82697   2.531   0.404   6.579 -0.5064  2.2901 -1.7458
  613MOL0     H82698   2.347   0.570   6.472 -0.9276  0.8884  3.3332
  613MOL0     H82699   2.278   0.415   6.412  0.7149  0.3287 -0.5977
  613MOL0     H82700   2.287   0.345   6.665 -0.3842  1.0148  2.9597
  613MOL0     H82701   2.320   0.509   6.695  1.8056  0.9223 -1.0699
  613MOL0     H82702   2.069   0.404   6.558 -0.6968  3.2336 -2.7284
  613MOL0     H82703   2.083   0.460   6.724 -0.0964 -0.8425  0.2182
  613MOL0     H82704   2.110   0.621   6.468  1.8299 -1.0360  0.1457
  613MOL0     H82705   2.131   0.684   6.638 -0.1160  0.2484 -0.7998
  613MOL0     H82706   1.881   0.610   6.789 -1.1255 -1.8070 -0.6452
  613MOL0     H82707   1.628   0.675   6.826 -0.4363 -1.4921 -0.9938
  613MOL0     H82708   1.640   0.849   6.760  1.5147 -0.0497  0.6579
  613MOL0     H82709   1.485   0.598   6.639  0.0267 -0.2569  2.2037
  613MOL0     H82710   1.497   0.758   6.558  1.7904 -0.2084  0.1669
  613MOL0     H82711   1.391   0.867   6.746  0.3960  0.3431  1.2702
  613MOL0     H82712   1.368   0.709   6.832  0.8964 -5.3998 -2.2479
  613MOL0     H82713   1.227   0.641   6.643  0.3603 -0.1452  0.1755
  613MOL0     H82714   1.236   0.804   6.578  0.1807 -0.4454  0.3748
  613MOL0     H82715   0.947   0.788   6.916  0.7548 -0.7899 -0.1489
  613MOL0     H82716   0.609   0.844   6.911  1.1654  1.0140  0.7541
  613MOL0     H82717   0.628   0.673   6.879 -1.3858  1.1385  3.4905
  613MOL0     H82718   0.739   0.747   6.988  4.0418 -2.4805 -1.6547
  613MOL0     H82719   0.450   0.730   6.291  1.4258 -0.1804  1.5963
  613MOL0     H82720   0.222   0.800   6.185 -0.0536  0.9265 -0.1434
  613MOL0     H82721   0.008   1.165   6.382 -1.5164 -0.2264 -0.5291
  613MOL0     H82722   0.114   1.229   6.255 -1.0628  1.1236  0.5485
  613MOL0     H82723  -0.079   1.264   6.154  1.1875  0.2266  1.4045
  613MOL0     H82724  -0.038   1.104   6.096 -1.3274  1.3534 -0.4066
  613MOL0     H82725  -0.209   1.001   6.274  0.5009 -0.6192 -2.2810
  613MOL0     H82726  -0.282   1.082   6.152 -1.7251 -3.3000  1.4686
  613MOL0     H82727  -0.327   1.156   6.421  1.0423  0.5077  0.8333
  613MOL0     H82728  -0.196   1.260   6.396  0.5126 -0.1909  0.1697
  613MOL0     H82729  -0.336   1.338   6.184  1.7826  4.4625  3.3335
  613MOL0     H82730  -0.396   1.372   6.348  1.7517  2.0323 -0.9321
  613MOL0     H82731  -0.487   1.142   6.174  2.4173  0.2458 -1.0009
  613MOL0     H82732  -0.554   1.191   6.331 -0.9892 -0.2487 -1.7139
  613MOL0     H82733  -0.691   1.255   6.124  0.8213 -2.3203  1.6959
  613MOL0     H82734  -0.552   1.356   6.074  1.1385  2.1799  2.0926
  613MOL0     H82735  -0.722   1.507   6.190 -1.1030 -1.6298 -0.8358
  613MOL0     H82736  -0.588   1.472   6.304  1.4141 -1.5896 -1.2813
  613MOL0     H82737   0.208   1.129   6.458  1.8203  1.5428 -1.0674
  613MOL0     H82738   0.426   1.063   6.557 -0.7655 -0.0614  1.1755
  613MOL0     H82739   0.815   0.845   6.445  0.5005 -2.2050 -0.4033
  613MOL0     H82740   1.034   0.808   6.483  0.8925 -0.1399 -0.0129
  613MOL0     H82741   2.930   0.717   6.089  0.1156 -1.8435 -1.9771
  613MOL0     H82742   3.160   0.757   6.110 -1.1394 -0.6264 -1.0470
  613MOL0     H82743   3.496   0.680   6.439 -2.4012 -0.3456 -3.2293
  613MOL0     H82744   3.707   0.768   6.522 -0.1452  1.3304  0.1948
  613MOL0     H82745   3.919   1.093   6.272 -0.2732 -1.3409 -1.3543
  613MOL0     H82746   4.028   1.072   6.416  0.2014  2.6892 -1.3976
  613MOL0     H82747   4.140   0.893   6.352  0.7483  2.3998  0.9071
  613MOL0     H82748   4.152   1.020   6.233 -2.2538  0.8617 -1.2468
  613MOL0     H82749   3.995   0.877   6.069  0.2570  1.4177  1.1863
  613MOL0     H82750   3.989   0.758   6.203 -0.1970  0.3767  0.0459
  613MOL0     H82751   4.242   0.762   6.173  1.3122  1.1466 -0.8250
  613MOL0     H82752   4.217   0.854   6.020  1.6370 -0.0883  0.7893
  613MOL0     H82753   4.190   0.445   5.924  5.8906 -0.1875  2.5216
  613MOL0     H82754   3.793   0.975   6.150  0.6694 -2.7405 -2.9246
  613MOL0     H82755   3.592   0.849   6.051 -4.1899 -3.4938  0.7269
  614MOL0     O82756  10.225   9.577   2.030  0.2213 -1.0542 -0.2697
  614MOL0     C82757  10.178   9.464   2.032 -0.1284  0.7244 -0.0491
  614MOL0     O82758  10.228   9.348   1.972 -0.0211 -0.2574 -0.3487
  614MOL0     C82759  10.327   9.350   1.878  0.3562  0.5638 -0.4412
  614MOL0     C82760  10.346   9.446   1.777  0.2289  0.7230 -0.2461
  614MOL0     C82761  10.462   9.434   1.697  0.0561 -0.8223 -0.0037
  614MOL0     C82762  10.547   9.333   1.716  1.1898  0.6851 -0.6140
  614MOL0     O82763  10.672   9.340   1.667  1.2309 -0.7334  1.0868
  614MOL0     C82764  10.699   9.219   1.587 -0.4179  0.5559 -0.6274
  614MOL0     C82765  10.838   9.242   1.523  0.0059  0.4105 -0.1034
  614MOL0     C82766  10.856   9.355   1.428  0.4620 -0.3498  0.7077
  614MOL0     C82767  11.002   9.399   1.399 -0.3768  0.8565  0.4156
  614MOL0     C82768  11.002   9.495   1.277  0.7026  0.1163  0.3616
  614MOL0     C82769  11.131   9.578   1.255  0.1514 -0.0657 -0.0344
  614MOL0     C82770  11.114   9.698   1.170 -0.3891  0.1995  0.5972
  614MOL0     C82771  11.235   9.808   1.181 -0.3832 -0.2412  0.5205
  614MOL0     N82772  11.347   9.764   1.097 -0.0212 -0.2436  0.0488
  614MOL0     C82773  11.473   9.724   1.135  0.1397  0.0436  0.3512
  614MOL0     C82774  11.533   9.681   1.018  1.4069  0.6756  0.2691
  614MOL0     C82775  11.672   9.630   0.998 -0.6474 -0.4930  0.7161
  614MOL0     C82776  11.698   9.502   1.082  0.2610  0.1393  0.0021
  614MOL0     C82777  11.842   9.492   1.103  0.2928  0.7291  0.2296
  614MOL0     C82778  11.881   9.357   1.164 -0.0224 -0.0139 -0.2202
  614MOL0     O82779  12.027   9.358   1.179  0.5559  0.0908 -0.2707
  614MOL0     C82780  12.081   9.351   1.303  0.3680  0.9259 -0.8653
  614MOL0     C82781  12.038   9.400   1.431 -0.3936  0.2122  0.4803
  614MOL0     C82782  12.118   9.392   1.549  0.0397 -0.7608  0.4507
  614MOL0     C82783  12.058   9.473   1.668 -0.6272 -0.3301  0.1699
  614MOL0     C82784  12.253   9.352   1.527 -0.0432  0.3679 -1.1694
  614MOL0     C82785  12.360   9.350   1.637 -0.4124 -0.1529  0.6099
  614MOL0     O82786  12.317   9.374   1.768 -0.1674  0.4116 -0.3868
  614MOL0     C82787  12.408   9.355   1.868  0.5183  0.5149  0.3049
  614MOL0     C82788  12.455   9.464   1.940 -0.2057 -0.1682  0.0992
  614MOL0     C82789  12.530   9.444   2.055 -0.4360 -0.7579 -1.0806
  614MOL0     C82790  12.561   9.317   2.108 -0.0557  0.4009  1.2481
  614MOL0     O82791  12.628   9.319   2.225  0.5633  0.0745 -0.4733
  614MOL0     C82792  12.620   9.191   2.300  0.5832  0.3884  0.6063
  614MOL0     C82793  12.730   9.201   2.409  0.1200  0.5604 -0.8593
  614MOL0     C82794  12.736   9.064   2.479  0.4233 -0.5200 -0.6442
  614MOL0     C82795  12.842   9.077   2.595 -0.4145  0.0741  0.1596
  614MOL0     C82796  12.878   8.944   2.668 -0.4515  0.1883 -0.6800
  614MOL0     C82797  12.954   8.986   2.797 -0.3753 -0.1341  0.0003
  614MOL0     C82798  12.975   8.871   2.909  0.0295  0.0442  0.7531
  614MOL0     C82799  12.853   8.809   2.977 -0.5493  0.9235  0.2945
  614MOL0    Cl82800  12.743   8.909   3.080  0.0928 -0.4190 -0.0797
  614MOL0     C82801  12.517   9.206   2.033  0.4681  0.0400  0.0815
  614MOL0     C82802  12.439   9.226   1.915 -0.1982  0.0084  0.2923
  614MOL0     O82803  12.477   9.322   1.601  0.0096 -0.7879 -0.8597
  614MOL0     C82804  12.284   9.290   1.406 -1.2453  0.0036 -0.0275
  614MOL0     C82805  12.201   9.289   1.292 -0.1510  0.5065 -0.7902
  614MOL0     N82806  11.447   9.701   0.920 -0.2920  0.8657  1.1855
  614MOL0     N82807  11.328   9.736   0.965 -0.1214  0.1808  0.3142
  614MOL0     C82808  10.521   9.232   1.814  0.2989 -0.1904 -0.7774
  614MOL0     C82809  10.410   9.232   1.891 -0.5526  1.3433 -0.5359
  614MOL0     C82810  10.057   9.438   2.118 -0.1425 -0.5414 -0.8946
  614MOL0     C82811   9.983   9.553   2.163  0.2580 -0.1441  0.2174
  614MOL0     C82812   9.875   9.535   2.255 -0.4927  0.0323  0.2849
  614MOL0     C82813   9.829   9.409   2.292  0.3644  0.0081 -0.5586
  614MOL0     O82814   9.727   9.399   2.379 -0.7836 -0.4133  0.6196
  614MOL0     C82815   9.639   9.496   2.442 -0.3766 -0.4501  1.0370
  614MOL0     C82816   9.566   9.412   2.557  0.0998 -0.2932  0.2814
  614MOL0     C82817   9.447   9.487   2.594  0.0515  0.0846 -0.0870
  614MOL0     C82818   9.376   9.444   2.721 -0.3969 -0.8897 -0.4926
  614MOL0     C82819   9.299   9.320   2.686 -1.0727  0.0603 -1.0264
  614MOL0     C82820   9.241   9.223   2.666 -0.0898  0.0249  0.3450
  614MOL0     C82821   9.899   9.295   2.251 -0.3410  0.4783  0.9903
  614MOL0     C82822  10.016   9.311   2.169  0.2605 -0.1037 -0.3400
  614MOL0     H82823  10.270   9.522   1.766  0.1259  0.3623 -2.3741
  614MOL0     H82824  10.490   9.506   1.620  1.5535 -0.2879  1.0001
  614MOL0     H82825  10.696   9.124   1.640 -2.4244 -0.1856 -1.9255
  614MOL0     H82826  10.630   9.204   1.503  1.1292  0.8052 -2.0003
  614MOL0     H82827  10.917   9.260   1.597  1.4497 -0.1133 -1.4348
  614MOL0     H82828  10.867   9.148   1.474 -1.7658  1.0491 -2.5978
  614MOL0     H82829  10.807   9.331   1.333 -2.7099  1.5845  1.7184
  614MOL0     H82830  10.802   9.442   1.464  0.0871 -1.3445  2.6890
  614MOL0     H82831  11.048   9.454   1.481  1.2308  2.7895 -1.6618
  614MOL0     H82832  11.065   9.312   1.374 -0.6063 -0.0246  2.6891
  614MOL0     H82833  10.991   9.423   1.195  0.7051  0.4643  0.0506
  614MOL0     H82834  10.916   9.562   1.291  0.4154 -0.0734 -0.4540
  614MOL0     H82835  11.169   9.616   1.350  0.4820 -0.1561 -0.1270
  614MOL0     H82836  11.211   9.510   1.222  1.6876  0.8332  1.6550
  614MOL0     H82837  11.094   9.686   1.063  3.2900  0.0784 -0.2142
  614MOL0     H82838  11.022   9.737   1.214 -1.4198 -2.4689  1.0471
  614MOL0     H82839  11.263   9.817   1.286  1.4717 -0.6909  0.0968
  614MOL0     H82840  11.202   9.906   1.146 -0.2018  0.7908  3.0338
  614MOL0     H82841  11.522   9.733   1.231 -2.6461  0.7177  1.7872
  614MOL0     H82842  11.697   9.623   0.891  0.2425  0.5600  0.8478
  614MOL0     H82843  11.731   9.715   1.033 -1.2142  0.9484 -1.5918
  614MOL0     H82844  11.654   9.412   1.039  1.4118 -1.4443  1.9891
  614MOL0     H82845  11.648   9.500   1.179  1.8746 -2.5975  0.8792
  614MOL0     H82846  11.873   9.575   1.167 -0.1816 -1.3801  3.4406
  614MOL0     H82847  11.895   9.495   1.007 -0.1604  2.2358  0.0081
  614MOL0     H82848  11.863   9.282   1.087  0.6900  0.1905 -0.5950
  614MOL0     H82849  11.823   9.338   1.255  0.5968  1.2478  0.4656
  614MOL0     H82850  11.936   9.434   1.445 -0.5801 -0.9605  2.4852
  614MOL0     H82851  11.954   9.503   1.650 -1.1661  0.0251  3.3049
  614MOL0     H82852  12.058   9.413   1.759  0.1692 -0.2623  0.2211
  614MOL0     H82853  12.122   9.556   1.697  0.6929 -1.7302  1.4070
  614MOL0     H82854  12.440   9.569   1.914 -0.8910  0.4597  2.7398
  614MOL0     H82855  12.566   9.530   2.111  0.7477 -1.9436  0.0462
  614MOL0     H82856  12.517   9.170   2.329 -0.1433  2.2631 -0.4995
  614MOL0     H82857  12.649   9.114   2.228 -0.6358  2.4737 -2.3097
  614MOL0     H82858  12.822   9.215   2.351  1.0510 -0.9094  0.1622
  614MOL0     H82859  12.708   9.287   2.472 -0.8496 -1.4821  1.7749
  614MOL0     H82860  12.753   8.982   2.409  0.9746 -1.7987  0.9077
  614MOL0     H82861  12.636   9.064   2.524  0.9623  2.3125  0.8390
  614MOL0     H82862  12.933   9.115   2.546 -0.5593 -0.2223 -0.3528
  614MOL0     H82863  12.806   9.156   2.662 -1.1286  0.7434 -0.9740
  614MOL0     H82864  12.934   8.880   2.600 -1.6942  0.3703 -1.9110
  614MOL0     H82865  12.784   8.895   2.695 -0.0136 -0.0047  0.5742
  614MOL0     H82866  13.051   9.028   2.769 -1.3688  0.8736 -2.1265
  614MOL0     H82867  12.893   9.055   2.856 -0.3492 -2.6959  3.3604
  614MOL0     H82868  13.033   8.922   2.987 -0.0881  2.2272 -0.4976
  614MOL0     H82869  13.039   8.788   2.878  0.2223  0.0109  1.2226
  614MOL0     H82870  12.892   8.738   3.051  3.2826 -0.3317 -2.6220
  614MOL0     H82871  12.791   8.752   2.907  1.6867  1.5754 -2.3511
  614MOL0     H82872  12.539   9.101   2.053  2.3206 -0.5518 -3.8809
  614MOL0     H82873  12.399   9.140   1.862  0.7310 -0.4449  0.3006
  614MOL0     H82874  12.387   9.260   1.386 -0.6323  0.5985  2.0129
  614MOL0     H82875  12.229   9.237   1.201 -0.5649 -2.2322  0.5207
  614MOL0     H82876  10.599   9.157   1.825 -0.0978 -0.4185  0.6351
  614MOL0     H82877  10.409   9.165   1.976  2.8159  2.0315  0.1793
  614MOL0     H82878  10.000   9.649   2.115 -0.7048  1.8793  3.5903
  614MOL0     H82879   9.831   9.629   2.287  0.2068  1.1924 -1.9522
  614MOL0     H82880   9.699   9.581   2.475  1.4241 -2.1181  2.2948
  614MOL0     H82881   9.564   9.530   2.370 -0.9993 -2.4337  0.6913
  614MOL0     H82882   9.637   9.409   2.640  2.0417 -1.8533 -1.3023
  614MOL0     H82883   9.533   9.314   2.522  0.8591  0.0562 -1.5373
  614MOL0     H82884   9.374   9.477   2.513 -3.2394  3.8719  2.0476
  614MOL0     H82885   9.465   9.595   2.602 -0.9527  0.2777 -0.3225
  614MOL0     H82886   9.319   9.517   2.779  1.8242 -0.8646  1.8188
  614MOL0     H82887   9.450   9.424   2.799 -3.1040 -1.1994  2.1646
  614MOL0     H82888   9.182   9.134   2.662 -3.7048  2.2300  0.2793
  614MOL0     H82889   9.871   9.200   2.296  2.4347 -0.1200  1.6762
  614MOL0     H82890  10.076   9.233   2.124 -2.7592 -3.3985  0.8485
  615MOL0     O82891   9.818   7.275   5.959  0.4969  0.5758 -0.1831
  615MOL0     C82892   9.802   7.203   6.055 -0.2634  0.4442  0.1600
  615MOL0     O82893   9.691   7.209   6.139 -1.1683  0.0231 -0.8830
  615MOL0     C82894   9.588   7.304   6.112 -0.6165 -0.0812  0.6504
  615MOL0     C82895   9.472   7.245   6.073  0.9287  0.2318 -0.3783
  615MOL0     C82896   9.360   7.326   6.026 -1.1074  0.1836  0.4272
  615MOL0     C82897   9.372   7.462   6.035 -0.1434 -0.2007 -0.4692
  615MOL0     O82898   9.266   7.544   5.989 -0.1629 -0.3963 -0.5167
  615MOL0     C82899   9.142   7.550   6.066 -0.8725 -0.0392 -0.2151
  615MOL0     C82900   9.014   7.513   5.983 -0.0333 -0.0231  0.5136
  615MOL0     C82901   8.964   7.609   5.873 -0.0911  0.3155 -0.0279
  615MOL0     C82902   8.940   7.545   5.734 -0.2426 -0.8090 -0.8402
  615MOL0     C82903   8.828   7.611   5.650  0.0016  0.4515 -0.2899
  615MOL0     C82904   8.789   7.522   5.543 -0.0532  0.7799  0.3462
  615MOL0     C82905   8.675   7.589   5.449  0.1738  0.0708 -0.1430
  615MOL0     C82906   8.612   7.508   5.336  0.8808  0.0553  1.1997
  615MOL0     N82907   8.505   7.593   5.277 -0.1330 -0.6262  0.2212
  615MOL0     C82908   8.525   7.694   5.184 -0.1877  0.0234 -0.1330
  615MOL0     C82909   8.400   7.733   5.150 -0.0034  0.2449  0.2348
  615MOL0     C82910   8.371   7.829   5.042  0.2717 -0.3793  0.0432
  615MOL0     C82911   8.383   7.770   4.898  0.4728  0.1503  0.1891
  615MOL0     C82912   8.294   7.645   4.885  0.0076 -0.3439  0.6697
  615MOL0     C82913   8.144   7.682   4.911 -0.6090  0.8573  0.6573
  615MOL0     O82914   8.079   7.774   4.824 -0.0009 -0.0283  0.0015
  615MOL0     C82915   7.970   7.738   4.757 -0.2571  0.3542  0.5352
  615MOL0     C82916   7.956   7.761   4.622  0.7753 -0.7824  0.1537
  615MOL0     C82917   7.853   7.717   4.542  0.4005 -0.8191  0.4445
  615MOL0     C82918   7.867   7.746   4.399  0.5952  0.0943  0.4083
  615MOL0     C82919   7.747   7.645   4.600 -0.2473  0.9996 -0.0666
  615MOL0     C82920   7.625   7.601   4.532 -0.3307 -0.3979  0.0329
  615MOL0     O82921   7.527   7.528   4.611  0.2602 -0.3358 -0.7030
  615MOL0     C82922   7.410   7.479   4.565  0.7473  0.0051 -0.3787
  615MOL0     C82923   7.343   7.523   4.450 -0.3022 -0.1472  0.0436
  615MOL0     C82924   7.217   7.468   4.411 -0.5540 -0.1151 -0.5975
  615MOL0     C82925   7.153   7.377   4.495  0.1188  0.3426  0.1673
  615MOL0     O82926   7.022   7.353   4.467 -0.1384 -0.1051  0.2354
  615MOL0     C82927   6.950   7.281   4.563  1.0812  0.5892 -0.2208
  615MOL0     C82928   6.800   7.274   4.523  0.0972 -0.9799 -0.0569
  615MOL0     C82929   6.729   7.167   4.608  0.9597  0.2938  0.6284
  615MOL0     C82930   6.576   7.154   4.578 -0.1120  0.1631  0.2199
  615MOL0     C82931   6.487   7.062   4.666  0.0674  0.4516 -0.1063
  615MOL0     C82932   6.527   6.917   4.643  0.1415  0.4272 -0.0223
  615MOL0     C82933   6.410   6.823   4.695 -0.1961  0.5253 -0.4833
  615MOL0     C82934   6.416   6.803   4.846 -0.0762  0.3323 -0.1778
  615MOL0    Cl82935   6.565   6.735   4.908  0.3075 -0.2366  0.0949
  615MOL0     C82936   7.227   7.328   4.608  0.5335 -0.1518 -0.8002
  615MOL0     C82937   7.356   7.375   4.643  0.5586 -0.3753  0.0771
  615MOL0     O82938   7.612   7.631   4.412 -0.1823 -0.3824 -0.3818
  615MOL0     C82939   7.755   7.618   4.742 -0.6580 -0.6812 -0.3580
  615MOL0     C82940   7.866   7.670   4.814  1.1377 -0.0412 -0.5303
  615MOL0     N82941   8.307   7.669   5.223  0.0166  0.5490 -0.5792
  615MOL0     N82942   8.368   7.580   5.296 -0.1893 -0.9370  0.2447
  615MOL0     C82943   9.484   7.528   6.084 -0.0982  0.1625  0.3664
  615MOL0     C82944   9.597   7.447   6.114  1.2166 -0.6106 -0.4105
  615MOL0     C82945   9.908   7.106   6.100  0.2067 -0.6805  0.6722
  615MOL0     C82946  10.039   7.125   6.050 -0.0154 -0.1340 -0.4886
  615MOL0     C82947  10.139   7.034   6.078 -0.7207  0.5462 -0.1445
  615MOL0     C82948  10.111   6.930   6.167 -0.5972  0.7583 -1.0441
  615MOL0     O82949  10.220   6.851   6.195 -0.2029  0.0824 -0.3030
  615MOL0     C82950  10.200   6.707   6.209  0.0598 -0.0456 -0.3098
  615MOL0     C82951  10.335   6.637   6.227 -0.2735  1.3582  0.5559
  615MOL0     C82952  10.320   6.497   6.267  0.4521  0.2883 -0.6812
  615MOL0     C82953  10.448   6.424   6.307 -0.0526 -0.4769  0.5253
  615MOL0     C82954  10.416   6.298   6.376  0.9163  0.3182  0.5012
  615MOL0     C82955  10.386   6.193   6.438 -0.2551 -0.4769 -0.2306
  615MOL0     C82956   9.981   6.904   6.217  0.2447 -0.8774 -0.2893
  615MOL0     C82957   9.881   6.992   6.183  0.0761  0.4922  0.1324
  615MOL0     H82958   9.453   7.140   6.054  2.6889  0.1084 -1.7636
  615MOL0     H82959   9.271   7.275   5.991 -0.7945  0.6528 -1.1249
  615MOL0     H82960   9.153   7.478   6.147 -0.0594  0.3376  0.0147
  615MOL0     H82961   9.125   7.651   6.105 -0.6902 -0.0937  0.0008
  615MOL0     H82962   9.030   7.412   5.943 -0.2006  0.0418  0.2811
  615MOL0     H82963   8.930   7.509   6.053  0.0627 -0.8002  0.5904
  615MOL0     H82964   8.871   7.658   5.904  1.1531  1.6159  1.8654
  615MOL0     H82965   9.037   7.689   5.858  0.3071  0.2306  1.3357
  615MOL0     H82966   9.039   7.546   5.688  0.9398  1.2171  1.5368
  615MOL0     H82967   8.910   7.440   5.746 -5.3205  0.4131 -0.5643
  615MOL0     H82968   8.745   7.656   5.704 -0.3341 -0.8687  0.3112
  615MOL0     H82969   8.878   7.700   5.610  1.1158  2.1984  4.3141
  615MOL0     H82970   8.870   7.501   5.472 -0.0556 -1.2209  0.8889
  615MOL0     H82971   8.762   7.424   5.583  1.0538  0.8826  1.3808
  615MOL0     H82972   8.602   7.621   5.524  1.5761 -0.2573  1.4318
  615MOL0     H82973   8.703   7.688   5.413  0.0586  1.0529  2.2873
  615MOL0     H82974   8.565   7.414   5.366  0.6967  0.3473  1.8242
  615MOL0     H82975   8.686   7.479   5.260  0.5909 -2.8398  1.9058
  615MOL0     H82976   8.625   7.710   5.145 -0.6134  0.0872 -1.2125
  615MOL0     H82977   8.269   7.863   5.060  0.0352 -0.7731 -0.5269
  615MOL0     H82978   8.437   7.916   5.052  0.8046 -0.6474 -0.9161
  615MOL0     H82979   8.488   7.744   4.878 -0.0532 -2.2722  0.2925
  615MOL0     H82980   8.348   7.848   4.830 -2.8044  0.6671  2.2809
  615MOL0     H82981   8.332   7.560   4.941  1.5609  0.1358  0.3814
  615MOL0     H82982   8.292   7.620   4.778 -1.5700 -0.1445  0.6278
  615MOL0     H82983   8.126   7.714   5.014 -0.7037  0.5406  0.7403
  615MOL0     H82984   8.090   7.588   4.897 -0.3118  0.9024 -0.9618
  615MOL0     H82985   8.039   7.811   4.574 -0.6058  1.2175 -0.2681
  615MOL0     H82986   7.834   7.658   4.344 -0.3702  0.4643  0.3774
  615MOL0     H82987   7.798   7.826   4.372 -2.2942 -1.7320  1.7827
  615MOL0     H82988   7.968   7.783   4.378  0.7150 -0.4948 -0.0801
  615MOL0     H82989   7.391   7.605   4.397  0.2515  0.0445  0.8309
  615MOL0     H82990   7.154   7.501   4.329 -2.1717 -1.2062  0.1627
  615MOL0     H82991   6.992   7.181   4.572  0.6480  0.3240 -0.9876
  615MOL0     H82992   6.953   7.326   4.663 -3.1277  0.6508  0.0910
  615MOL0     H82993   6.754   7.372   4.536  1.3200  0.0776 -2.8665
  615MOL0     H82994   6.790   7.263   4.414  0.6533  3.4488 -0.7262
  615MOL0     H82995   6.744   7.183   4.715  0.2581  1.9243  0.5181
  615MOL0     H82996   6.773   7.070   4.581 -1.4312 -0.0777 -2.4871
  615MOL0     H82997   6.531   7.254   4.570  1.3204  0.9791  1.7820
  615MOL0     H82998   6.569   7.104   4.482 -0.7035  1.0879 -0.2402
  615MOL0     H82999   6.383   7.087   4.645 -0.8095  1.3659  4.3402
  615MOL0     H83000   6.502   7.085   4.772 -3.1758  3.3391 -0.1113
  615MOL0     H83001   6.552   6.878   4.544  1.7981  0.2491  0.4305
  615MOL0     H83002   6.612   6.890   4.707  0.5340  0.0247 -0.7063
  615MOL0     H83003   6.435   6.724   4.655 -2.0936  0.0581 -0.6028
  615MOL0     H83004   6.312   6.854   4.658 -1.2278  1.7522  2.9431
  615MOL0     H83005   6.347   6.720   4.862  2.7587 -2.2499 -0.3799
  615MOL0     H83006   6.395   6.895   4.901 -1.6698  1.0938 -1.9331
  615MOL0     H83007   7.182   7.258   4.678  1.1447  1.6248  1.4557
  615MOL0     H83008   7.412   7.339   4.729 -0.6086  0.5223  1.2526
  615MOL0     H83009   7.682   7.559   4.798  3.1188 -3.2367  2.3791
  615MOL0     H83010   7.870   7.641   4.918 -3.4920 -1.5225 -0.5173
  615MOL0     H83011   9.489   7.634   6.109 -0.7029 -0.1639  1.9724
  615MOL0     H83012   9.685   7.494   6.157  1.2277 -2.8562  2.2573
  615MOL0     H83013  10.064   7.216   5.997 -0.2864  0.3753  0.2355
  615MOL0     H83014  10.239   7.054   6.042  0.0414  3.4045  3.0162
  615MOL0     H83015  10.131   6.692   6.293  1.4668 -0.5128  0.8003
  615MOL0     H83016  10.165   6.663   6.116  0.8647 -1.2207 -0.0778
  615MOL0     H83017  10.398   6.696   6.295 -1.2949  3.2938 -0.1307
  615MOL0     H83018  10.380   6.652   6.129 -4.4262 -1.5521 -2.1313
  615MOL0     H83019  10.252   6.438   6.204  0.2413  0.1220 -0.3023
  615MOL0     H83020  10.261   6.502   6.359 -0.7094 -1.9851 -1.2171
  615MOL0     H83021  10.505   6.487   6.375 -0.7867  0.6803  0.0973
  615MOL0     H83022  10.492   6.401   6.209 -2.6504  1.6822 -1.2911
  615MOL0     H83023  10.372   6.102   6.493  1.0820  0.0215  0.9952
  615MOL0     H83024   9.955   6.838   6.300 -1.8765  1.6503  1.2258
  615MOL0     H83025   9.786   6.982   6.235  0.2167 -0.3870  0.2481
  616MOL0     O83026   3.822   7.071   9.254 -0.1760  0.2578  0.5888
  616MOL0     C83027   3.838   6.998   9.350 -0.4702  0.1750 -0.4304
  616MOL0     O83028   3.754   6.907   9.404  0.2292  0.5240 -0.2591
  616MOL0     C83029   3.623   6.909   9.365 -1.1741 -0.0737  0.0529
  616MOL0     C83030   3.553   7.021   9.335  0.6503  0.8943 -0.5112
  616MOL0     C83031   3.426   7.013   9.278  0.1555 -0.4640 -0.6149
  616MOL0     C83032   3.367   6.893   9.265  0.3653 -0.3247 -0.1673
  616MOL0     O83033   3.244   6.901   9.207 -0.5773  0.9841  0.2052
  616MOL0     C83034   3.197   6.772   9.160  0.1714  0.1332  0.2441
  616MOL0     C83035   3.075   6.818   9.066  0.9873  0.4110  0.3130
  616MOL0     C83036   2.951   6.829   9.154  0.5449  0.2622  0.1946
  616MOL0     C83037   2.813   6.792   9.087 -0.2153 -0.1115 -0.0338
  616MOL0     C83038   2.696   6.825   9.165  0.0894 -0.3082 -0.2390
  616MOL0     C83039   2.560   6.810   9.081 -1.1515 -1.0340 -0.0724
  616MOL0     C83040   2.435   6.835   9.168 -0.5847  1.0179  0.0221
  616MOL0     C83041   2.434   6.974   9.240 -0.6404 -0.4295  0.5438
  616MOL0     N83042   2.306   6.979   9.317 -0.4780  0.3146 -0.5483
  616MOL0     C83043   2.180   6.994   9.274  0.2551  0.1020 -1.2466
  616MOL0     C83044   2.102   7.021   9.385 -0.2713 -0.0051 -0.3524
  616MOL0     C83045   1.951   7.039   9.387 -1.1970  0.0060 -0.3576
  616MOL0     C83046   1.893   6.910   9.461  1.4766  0.5711 -0.3826
  616MOL0     C83047   1.756   6.934   9.524  0.4027 -0.3964 -0.9676
  616MOL0     C83048   1.631   6.902   9.433 -0.8736  0.1307 -0.0762
  616MOL0     O83049   1.628   6.998   9.325 -0.8194 -0.1144 -0.0307
  616MOL0     C83050   1.521   6.983   9.244  0.0706 -0.3351  0.1987
  616MOL0     C83051   1.501   6.871   9.162 -0.0992  0.1929 -0.5572
  616MOL0     C83052   1.386   6.848   9.088  0.1431 -0.4369 -0.3650
  616MOL0     C83053   1.364   6.712   9.036  0.0094  0.0916  0.3256
  616MOL0     C83054   1.298   6.958   9.070  0.7608 -0.1350 -0.1860
  616MOL0     C83055   1.171   6.958   8.983 -0.7535  0.0198 -0.8866
  616MOL0     O83056   1.113   7.073   8.970 -0.0486  0.6957 -0.1259
  616MOL0     C83057   0.997   7.087   8.902  0.1557  0.5286 -0.5417
  616MOL0     C83058   1.001   7.102   8.767  0.0102 -0.0864 -0.7588
  616MOL0     C83059   0.878   7.123   8.696 -0.6590  0.7521  0.6646
  616MOL0     C83060   0.762   7.125   8.764  1.1257 -0.4000  0.7643
  616MOL0     O83061   0.634   7.140   8.708 -0.9104  0.3178  0.4755
  616MOL0     C83062   0.612   7.229   8.603 -0.1066 -0.0507 -0.0729
  616MOL0     C83063   0.492   7.178   8.532  0.0653  1.2543 -0.1034
  616MOL0     C83064   0.362   7.192   8.618  0.4646  0.6130 -0.6004
  616MOL0     C83065   0.236   7.147   8.530  0.4049 -0.4256 -0.5472
  616MOL0     C83066   0.103   7.195   8.583 -0.5511 -0.3823 -0.0645
  616MOL0     C83067   0.025   7.101   8.673  0.1094  0.8823 -0.1961
  616MOL0     C83068  -0.121   7.153   8.689  0.1583  0.0447  0.3670
  616MOL0     C83069  -0.225   7.052   8.726 -0.7455  0.7348  0.0548
  616MOL0    Cl83070  -0.374   7.140   8.727  0.2829  0.8022 -0.1044
  616MOL0     C83071   0.765   7.088   8.895 -0.1772  0.8296 -0.1815
  616MOL0     C83072   0.878   7.067   8.963 -0.0893 -0.9435  0.8362
  616MOL0     O83073   1.126   6.852   8.942  0.0749  0.0785  0.3317
  616MOL0     C83074   1.322   7.080   9.142 -0.6461  0.0309 -0.1542
  616MOL0     C83075   1.435   7.087   9.238 -0.4939 -0.5726  0.0350
  616MOL0     N83076   2.182   7.021   9.495  0.5964  1.0113  0.4246
  616MOL0     N83077   2.297   6.990   9.451 -0.1431 -0.2399 -0.5651
  616MOL0     C83078   3.427   6.779   9.323 -0.1529 -0.8538 -0.6091
  616MOL0     C83079   3.561   6.789   9.368  0.2903  0.2836 -0.0762
  616MOL0     C83080   3.982   6.992   9.410  0.5199  0.4760 -0.2606
  616MOL0     C83081   4.008   6.909   9.520 -0.2761 -0.1120 -0.2043
  616MOL0     C83082   4.135   6.898   9.585 -0.2546  0.0656  0.0924
  616MOL0     C83083   4.230   6.982   9.536 -0.2600 -0.8378  0.5066
  616MOL0     O83084   4.359   6.987   9.581  0.3954 -0.0385  0.3674
  616MOL0     C83085   4.424   6.866   9.613  0.4675  0.5824 -0.3729
  616MOL0     C83086   4.573   6.882   9.587 -0.9136 -0.3597  0.8986
  616MOL0     C83087   4.615   6.895   9.437  0.2352 -1.0717 -0.4243
  616MOL0     C83088   4.763   6.875   9.393 -0.3247  1.0807  0.5032
  616MOL0     C83089   4.797   6.732   9.398 -0.2001  0.6522 -0.0251
  616MOL0     C83090   4.832   6.619   9.386  0.1673  1.7659 -0.3092
  616MOL0     C83091   4.196   7.078   9.432 -0.0591 -0.0799  0.1069
  616MOL0     C83092   4.077   7.090   9.368  0.8582  0.7142 -0.1708
  616MOL0     H83093   3.591   7.121   9.353  1.7214  0.2548  1.0793
  616MOL0     H83094   3.392   7.100   9.222  1.4799 -0.5375 -1.5834
  616MOL0     H83095   3.276   6.710   9.116  1.9593  1.1306  1.8711
  616MOL0     H83096   3.165   6.705   9.240 -0.1139  0.1871  0.1778
  616MOL0     H83097   3.079   6.925   9.041 -3.3709  0.2818 -1.7339
  616MOL0     H83098   3.065   6.759   8.975  3.2572  2.4363 -1.3861
  616MOL0     H83099   2.968   6.763   9.239  0.6699  2.6219  2.1051
  616MOL0     H83100   2.935   6.934   9.180  5.1440  2.0816 -3.0075
  616MOL0     H83101   2.790   6.857   9.002 -2.4959 -2.3270 -1.2243
  616MOL0     H83102   2.834   6.692   9.048  4.1640  0.0826  1.2853
  616MOL0     H83103   2.695   6.758   9.252  2.0031 -1.5254 -1.0795
  616MOL0     H83104   2.712   6.929   9.196 -0.3340  0.3782 -2.1910
  616MOL0     H83105   2.563   6.889   9.004 -2.1321 -2.1828 -1.3332
  616MOL0     H83106   2.557   6.711   9.036 -0.9558 -1.0652 -0.0166
  616MOL0     H83107   2.353   6.836   9.096 -2.7047  0.5160  2.2836
  616MOL0     H83108   2.415   6.750   9.234  2.0377  0.4398  0.1678
  616MOL0     H83109   2.442   7.061   9.174  0.8379  1.3940  2.9279
  616MOL0     H83110   2.520   6.976   9.308 -0.4896 -0.2375  0.3522
  616MOL0     H83111   2.159   6.984   9.168 -0.4891 -3.3895 -0.9021
  616MOL0     H83112   1.924   7.125   9.450 -3.0757  1.1815 -2.5989
  616MOL0     H83113   1.903   7.056   9.290 -1.4152  4.1241  0.2699
  616MOL0     H83114   1.962   6.883   9.542  2.1852  3.7531  0.2052
  616MOL0     H83115   1.899   6.826   9.390  4.7570 -1.4451  1.9700
  616MOL0     H83116   1.753   7.035   9.567  0.0408 -0.4306 -0.9099
  616MOL0     H83117   1.756   6.865   9.608  1.3365 -1.4368 -1.7927
  616MOL0     H83118   1.539   6.888   9.490 -0.1382 -3.9631  0.4349
  616MOL0     H83119   1.639   6.802   9.388 -2.0104 -0.7820  1.6359
  616MOL0     H83120   1.567   6.784   9.162  0.1573  0.3859 -0.1759
  616MOL0     H83121   1.289   6.659   9.096  0.9240 -0.1416  1.2929
  616MOL0     H83122   1.354   6.705   8.927  3.3619 -0.4541 -0.0451
  616MOL0     H83123   1.446   6.643   9.058 -0.3376 -1.5099 -2.8154
  616MOL0     H83124   1.096   7.095   8.715  1.5401 -1.8216  1.9831
  616MOL0     H83125   0.888   7.145   8.590  0.4384  1.4908  0.9002
  616MOL0     H83126   0.593   7.329   8.642  0.0691 -0.7696  1.9701
  616MOL0     H83127   0.691   7.223   8.527 -2.6544 -1.1328 -2.8158
  616MOL0     H83128   0.475   7.224   8.435 -2.1152  0.5259 -0.1232
  616MOL0     H83129   0.512   7.071   8.517  0.4937  1.2548  0.4360
  616MOL0     H83130   0.365   7.296   8.651 -0.2966  0.6926 -0.7616
  616MOL0     H83131   0.367   7.131   8.709 -1.3534  0.1562 -0.7597
  616MOL0     H83132   0.236   7.181   8.426  0.4809 -0.4130 -0.5428
  616MOL0     H83133   0.224   7.039   8.538 -1.8863 -0.0762  3.1243
  616MOL0     H83134   0.036   7.225   8.502 -0.1748  0.4103 -0.0956
  616MOL0     H83135   0.110   7.292   8.633  1.4443  0.5009 -1.9082
  616MOL0     H83136   0.016   7.007   8.618 -0.3486  2.0803 -2.2863
  616MOL0     H83137   0.079   7.088   8.768  0.8119  0.8369 -0.5922
  616MOL0     H83138  -0.149   7.178   8.586 -1.7900 -0.0725  0.8401
  616MOL0     H83139  -0.133   7.239   8.756 -0.8912 -0.9629  1.5027
  616MOL0     H83140  -0.206   6.998   8.819  1.0325 -3.8119 -2.6098
  616MOL0     H83141  -0.240   6.980   8.645 -1.5076  0.0876  0.7523
  616MOL0     H83142   0.667   7.087   8.941 -0.5761 -3.2320 -0.7123
  616MOL0     H83143   0.895   7.062   9.070  2.4084 -0.4056  0.5208
  616MOL0     H83144   1.262   7.166   9.113  3.5363  3.7865  1.1609
  616MOL0     H83145   1.461   7.170   9.304 -1.8892 -0.5647  0.6140
  616MOL0     H83146   3.368   6.689   9.338  0.6519 -1.5276 -1.3533
  616MOL0     H83147   3.616   6.708   9.415 -0.0781  2.3385  4.4443
  616MOL0     H83148   3.930   6.845   9.559 -1.6429  1.9863  0.6776
  616MOL0     H83149   4.159   6.834   9.669 -2.0834 -1.5687 -0.5487
  616MOL0     H83150   4.413   6.837   9.718  0.5053 -0.7476 -0.7257
  616MOL0     H83151   4.374   6.790   9.553 -1.9269  0.5826  1.4991
  616MOL0     H83152   4.624   6.791   9.621 -1.5438 -0.7107  0.9085
  616MOL0     H83153   4.621   6.960   9.648  0.0497 -1.4411  1.5783
  616MOL0     H83154   4.593   6.999   9.410 -0.0170 -1.0244 -0.0383
  616MOL0     H83155   4.553   6.828   9.375 -1.0647 -0.5365  0.2569
  616MOL0     H83156   4.825   6.930   9.465 -1.6978  1.0883  1.7346
  616MOL0     H83157   4.785   6.915   9.294 -0.3705 -0.1607 -0.0302
  616MOL0     H83158   4.858   6.517   9.365 -0.0993  2.0352 -2.0841
  616MOL0     H83159   4.281   7.141   9.408 -0.8896  2.0810  2.3795
  616MOL0     H83160   4.065   7.169   9.296 -0.6038  1.9701  1.3676
  617MOL0     O83161   7.271   1.370   3.950 -0.1412 -0.1587  0.3064
  617MOL0     C83162   7.174   1.300   3.902  1.1768  0.1547  0.4481
  617MOL0     O83163   7.042   1.343   3.892  0.1312 -0.5012  0.0156
  617MOL0     C83164   7.015   1.483   3.894  0.3289  0.3834  0.3960
  617MOL0     C83165   6.906   1.527   3.970 -0.0769 -0.7152  0.0454
  617MOL0     C83166   6.879   1.660   3.968 -0.5070 -0.4273  0.4813
  617MOL0     C83167   6.965   1.760   3.905  1.0490 -0.1284 -0.1989
  617MOL0     O83168   6.919   1.897   3.911 -1.0329 -0.0519 -0.9641
  617MOL0     C83169   6.881   1.951   4.036  0.1847  0.0618 -0.0247
  617MOL0     C83170   6.737   1.989   4.029  0.0860 -0.5722 -0.1409
  617MOL0     C83171   6.666   1.984   4.166 -0.3426  0.4253  0.0650
  617MOL0     C83172   6.527   2.028   4.170  0.1373  0.3461  0.1357
  617MOL0     C83173   6.469   2.008   4.314 -0.6863  0.7952  0.5733
  617MOL0     C83174   6.321   2.030   4.346  0.0645 -0.5546  0.0041
  617MOL0     C83175   6.281   2.176   4.340  0.0219 -0.1798  0.2322
  617MOL0     C83176   6.135   2.188   4.398 -0.3887  0.4059  0.0482
  617MOL0     N83177   6.030   2.123   4.322 -0.0706 -0.2934  0.0447
  617MOL0     C83178   6.042   2.105   4.184  0.1011  0.2055  0.2520
  617MOL0     C83179   5.918   2.090   4.134 -0.2682 -0.6049 -0.6646
  617MOL0     C83180   5.874   2.080   3.989 -0.1374 -1.4485 -1.0359
  617MOL0     C83181   5.892   2.215   3.923 -0.4336 -0.1846  0.4714
  617MOL0     C83182   5.853   2.225   3.767  0.2715 -0.6852 -0.4495
  617MOL0     C83183   5.704   2.201   3.745 -0.5257 -0.5620  0.7734
  617MOL0     O83184   5.625   2.292   3.822 -0.2209  0.5703 -0.4575
  617MOL0     C83185   5.492   2.266   3.810  0.1324 -0.5575  0.2190
  617MOL0     C83186   5.434   2.230   3.683  0.3225 -0.5201 -0.4874
  617MOL0     C83187   5.292   2.205   3.678 -0.0185 -0.3223 -0.1835
  617MOL0     C83188   5.225   2.171   3.556  0.0931  0.2946  0.3431
  617MOL0     C83189   5.213   2.229   3.795  0.1743 -1.0241 -0.0914
  617MOL0     C83190   5.066   2.225   3.796  0.3318  0.4429 -0.0844
  617MOL0     O83191   5.004   2.109   3.750 -0.4654 -0.0485  0.3679
  617MOL0     C83192   4.873   2.084   3.725  0.2961  0.1342 -0.5512
  617MOL0     C83193   4.831   1.950   3.712 -0.2122 -0.1294 -0.1860
  617MOL0     C83194   4.699   1.908   3.694  0.4536  0.0465  0.1295
  617MOL0     C83195   4.600   2.003   3.672 -0.1321 -0.1364 -0.9004
  617MOL0     O83196   4.476   1.958   3.644  0.2148 -0.6049 -0.2537
  617MOL0     C83197   4.367   2.038   3.666  0.3474 -0.0271 -0.0934
  617MOL0     C83198   4.251   1.944   3.646  0.6305 -0.2826  0.2028
  617MOL0     C83199   4.112   2.021   3.651 -0.6042  0.7084  0.3542
  617MOL0     C83200   3.984   1.968   3.714  0.1476  0.3794 -0.6658
  617MOL0     C83201   3.966   1.826   3.645  0.0801  0.3387  0.4405
  617MOL0     C83202   3.826   1.775   3.689 -0.0659  0.3601 -0.4258
  617MOL0     C83203   3.812   1.623   3.679  0.2190 -0.9113  0.3748
  617MOL0     C83204   3.683   1.551   3.634 -0.0743 -0.4910 -0.2927
  617MOL0    Cl83205   3.541   1.615   3.730  0.3467 -0.2605  0.2828
  617MOL0     C83206   4.635   2.140   3.684  0.0721 -0.4080  1.2622
  617MOL0     C83207   4.768   2.181   3.716 -0.1331  0.2185 -0.2596
  617MOL0     O83208   5.011   2.316   3.854 -0.3908  0.2929 -0.3363
  617MOL0     C83209   5.275   2.262   3.917 -0.4773  0.2663 -0.9308
  617MOL0     C83210   5.412   2.291   3.921 -0.4338  0.2622  0.1164
  617MOL0     N83211   5.828   2.127   4.239  0.3090 -0.1998  0.3781
  617MOL0     N83212   5.895   2.128   4.349 -0.7742 -0.5819  0.1516
  617MOL0     C83213   7.084   1.719   3.841 -0.1977  0.5642 -0.2038
  617MOL0     C83214   7.099   1.576   3.834  0.6196 -0.9053 -0.3968
  617MOL0     C83215   7.200   1.159   3.855 -0.0592 -0.0620  0.9028
  617MOL0     C83216   7.329   1.107   3.857  0.2631  0.2523 -0.2316
  617MOL0     C83217   7.354   0.973   3.817  0.2772 -0.3190  1.3918
  617MOL0     C83218   7.252   0.900   3.757 -1.3560  0.5379  0.8808
  617MOL0     O83219   7.282   0.780   3.707 -0.1394  0.1531  0.3076
  617MOL0     C83220   7.197   0.693   3.634  0.2254 -0.4711  0.0386
  617MOL0     C83221   7.278   0.570   3.602 -0.8454  0.2400  0.6375
  617MOL0     C83222   7.349   0.506   3.724  0.1777 -0.4026  1.2030
  617MOL0     C83223   7.383   0.361   3.688  0.0476 -0.5910  0.2498
  617MOL0     C83224   7.489   0.304   3.781  0.5842  0.7402  0.5966
  617MOL0     C83225   7.569   0.253   3.854 -0.4323  0.2825  0.3128
  617MOL0     C83226   7.125   0.953   3.756 -1.1615 -0.1319  0.5155
  617MOL0     C83227   7.101   1.087   3.792  0.3488 -0.3229 -0.1074
  617MOL0     H83228   6.840   1.458   4.021 -2.1130 -0.1832 -1.7496
  617MOL0     H83229   6.787   1.694   4.015 -0.8986 -2.0939  0.9727
  617MOL0     H83230   6.893   1.871   4.109  0.6047 -0.8163 -1.0231
  617MOL0     H83231   6.941   2.038   4.062  0.4950 -0.1154 -0.1284
  617MOL0     H83232   6.730   2.093   3.996 -1.3449  0.1571  2.2456
  617MOL0     H83233   6.679   1.936   3.952 -0.6097  0.1809 -0.1542
  617MOL0     H83234   6.687   1.886   4.211 -2.6601 -0.8936 -1.5030
  617MOL0     H83235   6.718   2.059   4.226 -0.7707 -0.3380  1.4337
  617MOL0     H83236   6.519   2.137   4.155 -1.3165  0.4457  1.4393
  617MOL0     H83237   6.465   1.976   4.096 -1.0961  3.3322 -1.1082
  617MOL0     H83238   6.485   1.902   4.337 -0.1040  1.2913  2.6456
  617MOL0     H83239   6.536   2.065   4.379  0.6170 -1.2741  1.1662
  617MOL0     H83240   6.256   1.971   4.280 -1.7820  0.1516  1.1207
  617MOL0     H83241   6.297   1.993   4.446  0.7872  0.3808  0.5337
  617MOL0     H83242   6.359   2.227   4.397  0.9053 -2.1133  0.8466
  617MOL0     H83243   6.281   2.224   4.241 -0.3503 -0.0436  0.2956
  617MOL0     H83244   6.114   2.294   4.412 -2.5352 -0.1254  1.2715
  617MOL0     H83245   6.136   2.148   4.500  0.6267  0.6486  0.1469
  617MOL0     H83246   6.134   2.112   4.126 -0.4724  3.3190 -0.4593
  617MOL0     H83247   5.931   2.002   3.937  1.3723 -0.2382 -1.2548
  617MOL0     H83248   5.771   2.044   3.990  0.0361 -2.0445  1.0833
  617MOL0     H83249   5.992   2.255   3.941 -0.6934  0.7130 -0.0188
  617MOL0     H83250   5.817   2.285   3.961 -0.1162  2.1038 -2.7321
  617MOL0     H83251   5.900   2.145   3.708 -0.4108 -0.8613 -0.7600
  617MOL0     H83252   5.875   2.328   3.737 -2.1894 -0.0182 -0.1594
  617MOL0     H83253   5.681   2.095   3.757  0.6127 -0.9003  0.1308
  617MOL0     H83254   5.691   2.217   3.638 -0.5748 -1.5689  0.6247
  617MOL0     H83255   5.489   2.229   3.590 -0.6655 -2.6127 -1.1086
  617MOL0     H83256   5.165   2.258   3.527 -0.3951 -0.6707 -1.7291
  617MOL0     H83257   5.304   2.156   3.483  2.1695  1.5767  2.2154
  617MOL0     H83258   5.164   2.080   3.562  0.3158  0.1669  0.6847
  617MOL0     H83259   4.918   1.885   3.716  1.5372  1.8094 -2.9934
  617MOL0     H83260   4.675   1.802   3.691 -3.5710  0.7408  1.6596
  617MOL0     H83261   4.366   2.070   3.771 -2.6462 -2.0317  0.6267
  617MOL0     H83262   4.376   2.121   3.595  2.8447  0.4144  0.6271
  617MOL0     H83263   4.257   1.903   3.545 -0.9711  1.0011 -0.4703
  617MOL0     H83264   4.237   1.865   3.719  0.1647 -2.8149 -2.4459
  617MOL0     H83265   4.091   2.045   3.546  0.9833 -1.2957 -0.4838
  617MOL0     H83266   4.124   2.110   3.713  1.0309  0.0621  1.0078
  617MOL0     H83267   4.000   1.939   3.819 -1.6557  0.9076 -0.2064
  617MOL0     H83268   3.897   2.033   3.699  0.3380  0.8462  0.1683
  617MOL0     H83269   4.049   1.762   3.677  0.4534  0.7319  0.2648
  617MOL0     H83270   3.959   1.837   3.537 -0.3386 -1.9324  0.1999
  617MOL0     H83271   3.818   1.793   3.796 -1.9880  1.5481 -0.7068
  617MOL0     H83272   3.746   1.831   3.638 -0.2627 -1.2630 -1.9980
  617MOL0     H83273   3.827   1.592   3.783  1.0175 -0.0366  0.5374
  617MOL0     H83274   3.894   1.582   3.619  0.8755  0.8065  0.0465
  617MOL0     H83275   3.692   1.443   3.649 -3.2953 -0.5151  2.7213
  617MOL0     H83276   3.663   1.564   3.527  0.7341 -2.4500 -0.7197
  617MOL0     H83277   4.563   2.220   3.677 -2.1856 -2.2610  2.0634
  617MOL0     H83278   4.785   2.287   3.735 -1.3966  0.0739  2.1406
  617MOL0     H83279   5.213   2.277   4.005 -2.5156 -1.1982 -2.0146
  617MOL0     H83280   5.445   2.331   4.016 -0.5959  0.1652  0.2126
  617MOL0     H83281   7.149   1.785   3.785 -1.3077  1.7819 -0.1035
  617MOL0     H83282   7.190   1.541   3.785  0.1597  0.2182 -2.1238
  617MOL0     H83283   7.408   1.168   3.901  1.2743  0.5842 -2.3489
  617MOL0     H83284   7.450   0.927   3.837  0.5449 -0.3115  0.2173
  617MOL0     H83285   7.105   0.661   3.684  0.3042  0.6035  0.9202
  617MOL0     H83286   7.161   0.735   3.539  0.2402 -1.3357 -0.3527
  617MOL0     H83287   7.352   0.600   3.527  0.6287 -4.8337 -0.3592
  617MOL0     H83288   7.211   0.497   3.555  1.9147 -2.3351  0.3169
  617MOL0     H83289   7.282   0.512   3.810 -3.5205  0.6737 -1.4680
  617MOL0     H83290   7.436   0.565   3.752  0.4831 -0.3974  0.2940
  617MOL0     H83291   7.427   0.354   3.588  0.9430  2.5140  0.3290
  617MOL0     H83292   7.286   0.313   3.709 -0.0917  0.1680  1.4341
  617MOL0     H83293   7.643   0.204   3.914 -1.0074 -0.4053  0.4711
  617MOL0     H83294   7.043   0.895   3.715 -2.3115  0.6154  1.6628
  617MOL0     H83295   7.001   1.128   3.789 -0.1057 -0.9499  2.7657
  618MOL0     O83296   4.255   8.001   5.019  0.3080  0.0664 -0.2635
  618MOL0     C83297   4.349   8.028   5.093 -0.5581 -0.2277 -0.3286
  618MOL0     O83298   4.456   8.105   5.064  0.3759 -0.7203  0.0101
  618MOL0     C83299   4.469   8.148   4.930 -0.1519  0.2014 -0.1180
  618MOL0     C83300   4.545   8.070   4.834  0.4922 -0.1458 -0.5351
  618MOL0     C83301   4.567   8.114   4.704 -0.6196  0.0085 -0.2134
  618MOL0     C83302   4.523   8.240   4.665  0.0322 -0.3459 -0.0585
  618MOL0     O83303   4.524   8.282   4.536  0.1597 -0.0082  0.0731
  618MOL0     C83304   4.589   8.203   4.444  1.4745  0.4353 -0.5276
  618MOL0     C83305   4.602   8.251   4.299 -0.1465  0.0583 -0.9871
  618MOL0     C83306   4.468   8.255   4.216  0.1669 -0.2007 -0.1054
  618MOL0     C83307   4.381   8.377   4.243 -0.6141 -0.2830 -0.0561
  618MOL0     C83308   4.298   8.419   4.121 -0.0019 -0.7291 -0.2939
  618MOL0     C83309   4.256   8.576   4.124 -0.0840 -0.2103  0.5362
  618MOL0     C83310   4.371   8.671   4.077  0.3246 -0.6561 -0.1276
  618MOL0     C83311   4.337   8.812   4.122 -0.3199 -0.5441 -0.4701
  618MOL0     N83312   4.227   8.881   4.054  0.3980  0.3039 -0.2191
  618MOL0     C83313   4.122   8.953   4.100 -0.1084 -0.4847  0.1707
  618MOL0     C83314   4.064   9.004   3.991  0.6969  0.5695 -0.5851
  618MOL0     C83315   3.958   9.102   4.011  0.3130 -0.1357 -0.0673
  618MOL0     C83316   3.812   9.041   4.039  1.3215 -0.5525 -0.3481
  618MOL0     C83317   3.753   8.944   3.940 -0.5441  0.3270  0.1563
  618MOL0     C83318   3.591   8.922   3.941 -0.3896  1.0825  0.4567
  618MOL0     O83319   3.529   8.955   3.813  0.7142 -0.7460  0.0492
  618MOL0     C83320   3.401   8.918   3.784 -0.2755 -0.0463 -0.3615
  618MOL0     C83321   3.329   8.988   3.684  0.6177  0.8213  0.5187
  618MOL0     C83322   3.196   8.963   3.653  0.8476  0.3600 -0.8137
  618MOL0     C83323   3.129   9.063   3.558 -0.3904  0.1858 -0.0095
  618MOL0     C83324   3.125   8.869   3.737  0.0504 -1.1140  0.1592
  618MOL0     C83325   2.979   8.848   3.725  0.6015  0.1718 -0.1050
  618MOL0     O83326   2.913   8.842   3.847  0.2901 -0.5474  0.7540
  618MOL0     C83327   2.781   8.897   3.845 -0.8665 -0.3967  0.7350
  618MOL0     C83328   2.760   9.025   3.907 -0.6741 -0.5550 -0.7791
  618MOL0     C83329   2.633   9.064   3.941 -0.0597 -0.4298  1.1471
  618MOL0     C83330   2.519   8.994   3.885  0.4725 -1.0346 -0.4042
  618MOL0     O83331   2.389   9.035   3.898 -0.0093 -0.0144  1.2634
  618MOL0     C83332   2.350   9.077   4.022  0.7850 -0.1649 -0.9625
  618MOL0     C83333   2.194   9.079   4.020 -0.0970 -0.0015  0.5568
  618MOL0     C83334   2.118   8.951   3.972 -0.0600  0.2255 -0.0644
  618MOL0     C83335   1.981   8.947   4.027 -0.9183  1.0922  0.0408
  618MOL0     C83336   1.902   8.825   3.958  0.4976 -1.0927  0.2177
  618MOL0     C83337   1.876   8.846   3.810 -1.0704  0.2162  0.4758
  618MOL0     C83338   1.789   8.976   3.767 -0.6402 -0.4022 -0.1854
  618MOL0     C83339   1.754   8.984   3.626  0.4256  0.3053 -0.6785
  618MOL0    Cl83340   1.654   9.143   3.616  0.1074  0.0874 -0.4288
  618MOL0     C83341   2.531   8.873   3.813 -0.8864 -0.4005  0.2945
  618MOL0     C83342   2.667   8.825   3.803  0.5584 -0.2761  0.5955
  618MOL0     O83343   2.925   8.840   3.615  0.2414 -0.2799 -0.3420
  618MOL0     C83344   3.194   8.808   3.838 -0.0154  0.6913  0.3660
  618MOL0     C83345   3.327   8.834   3.865 -0.0570 -0.0047  0.3288
  618MOL0     N83346   4.111   8.935   3.882  0.3399 -0.2583  0.1511
  618MOL0     N83347   4.222   8.876   3.918  0.3926 -0.2329  0.1747
  618MOL0     C83348   4.446   8.317   4.757  0.1793  0.2696  0.4728
  618MOL0     C83349   4.421   8.269   4.889 -0.4283 -0.6982  0.6009
  618MOL0     C83350   4.341   7.992   5.237  0.5039 -0.0548 -0.3511
  618MOL0     C83351   4.255   7.885   5.277 -0.6317  0.1801  0.4730
  618MOL0     C83352   4.244   7.846   5.405 -0.4507 -0.9366  0.1856
  618MOL0     C83353   4.309   7.927   5.505 -0.3630 -0.4385  0.1792
  618MOL0     O83354   4.284   7.912   5.644  1.0843  0.0930 -0.5362
  618MOL0     C83355   4.154   7.894   5.689 -0.5680  0.0528  0.7117
  618MOL0     C83356   4.048   8.001   5.644  0.1311  1.1807  0.5156
  618MOL0     C83357   3.932   8.015   5.740  0.0898  0.7038  0.3146
  618MOL0     C83358   3.965   8.096   5.868  0.9891  0.8283 -0.0525
  618MOL0     C83359   3.849   8.065   5.963  0.0657 -0.5062 -0.0529
  618MOL0     C83360   3.747   8.040   6.025  0.6196  0.5592 -0.0768
  618MOL0     C83361   4.396   8.020   5.471 -1.0410 -0.5462  0.3173
  618MOL0     C83362   4.411   8.048   5.338 -0.1633  0.6761 -0.6047
  618MOL0     H83363   4.584   7.972   4.859 -0.1618 -0.6159 -1.2959
  618MOL0     H83364   4.619   8.047   4.637 -0.7920  0.7878 -1.1420
  618MOL0     H83365   4.694   8.184   4.468  1.1304 -0.0817  0.6381
  618MOL0     H83366   4.533   8.110   4.446 -1.3255  2.0003 -0.9509
  618MOL0     H83367   4.655   8.346   4.310 -1.9284  0.9015  1.1595
  618MOL0     H83368   4.667   8.176   4.255 -1.0382 -1.0299 -0.4858
  618MOL0     H83369   4.495   8.245   4.110  2.9750 -4.2714  0.7476
  618MOL0     H83370   4.411   8.164   4.236  3.0204 -1.8107  1.4023
  618MOL0     H83371   4.329   8.357   4.338  1.2265 -1.5247  0.7629
  618MOL0     H83372   4.440   8.466   4.268 -1.5927 -0.2872  2.6500
  618MOL0     H83373   4.339   8.402   4.021 -2.1852 -1.1696 -1.1664
  618MOL0     H83374   4.207   8.360   4.123 -0.3198 -0.2173  1.4757
  618MOL0     H83375   4.166   8.583   4.062 -2.6377 -2.1582  3.6511
  618MOL0     H83376   4.222   8.608   4.223 -1.4217  0.3589 -0.0857
  618MOL0     H83377   4.464   8.644   4.128 -0.3604  1.8266  2.6774
  618MOL0     H83378   4.379   8.661   3.968  0.5162 -1.6473 -0.0386
  618MOL0     H83379   4.422   8.878   4.103 -2.4698  1.8825 -2.3606
  618MOL0     H83380   4.312   8.807   4.228 -0.4227  1.8414 -0.3333
  618MOL0     H83381   4.100   8.984   4.202  3.4475 -0.9080  1.2193
  618MOL0     H83382   3.985   9.173   4.089  2.3074 -0.0527 -0.7760
  618MOL0     H83383   3.942   9.155   3.916 -1.0210 -1.0589 -0.3878
  618MOL0     H83384   3.743   9.122   4.067  1.7485 -0.0998 -0.5794
  618MOL0     H83385   3.821   9.002   4.141  0.0619  3.1859  1.4012
  618MOL0     H83386   3.802   8.846   3.946 -1.1485 -0.0894 -1.3062
  618MOL0     H83387   3.780   8.973   3.838 -1.5166 -0.9134 -0.4862
  618MOL0     H83388   3.549   8.992   4.014 -0.1073  2.7057 -0.8877
  618MOL0     H83389   3.563   8.819   3.967  1.0584  0.5849  0.1576
  618MOL0     H83390   3.396   9.059   3.636  5.0336 -3.1748 -0.0001
  618MOL0     H83391   3.198   9.126   3.500 -0.3804  0.5052  0.3420
  618MOL0     H83392   3.050   9.018   3.496 -1.3686  1.4672  0.2494
  618MOL0     H83393   3.067   9.133   3.615  0.5061  0.1277  1.0652
  618MOL0     H83394   2.843   9.089   3.934 -0.9739  0.8124 -2.9188
  618MOL0     H83395   2.624   9.163   3.985  0.8653  0.3147 -0.2691
  618MOL0     H83396   2.386   9.008   4.098  0.0058  1.2341  0.7611
  618MOL0     H83397   2.400   9.170   4.052 -0.0694  0.3244 -1.0122
  618MOL0     H83398   2.159   9.119   4.116  2.3293  2.3462  0.5905
  618MOL0     H83399   2.175   9.165   3.956 -2.9250 -0.5334  0.5686
  618MOL0     H83400   2.181   8.863   3.992  2.2905  1.5057 -1.3304
  618MOL0     H83401   2.111   8.962   3.864 -1.0340 -2.7949 -0.3941
  618MOL0     H83402   1.991   8.926   4.134  2.4107  0.2902 -0.2995
  618MOL0     H83403   1.932   9.044   4.011 -1.3461  1.0579  1.1118
  618MOL0     H83404   1.805   8.816   4.008 -1.4103  1.1327 -2.7058
  618MOL0     H83405   1.952   8.729   3.972  4.9470  0.9147 -0.0701
  618MOL0     H83406   1.972   8.837   3.759 -1.4935 -2.0753 -0.0223
  618MOL0     H83407   1.820   8.757   3.780 -0.4058  0.1827 -0.7176
  618MOL0     H83408   1.830   9.073   3.797 -4.5447  0.4809  3.3360
  618MOL0     H83409   1.700   8.968   3.831  0.1675  0.0640  1.0564
  618MOL0     H83410   1.701   8.895   3.591  0.5239 -0.4277  0.9614
  618MOL0     H83411   1.840   9.003   3.561  1.0603  0.0829  0.0862
  618MOL0     H83412   2.445   8.831   3.763  1.4405 -1.9728 -2.7022
  618MOL0     H83413   2.690   8.726   3.766  2.1332 -0.7955  2.7522
  618MOL0     H83414   3.150   8.746   3.915 -2.5626  2.0264  0.1295
  618MOL0     H83415   3.363   8.777   3.950 -1.8839 -0.1572  1.0326
  618MOL0     H83416   4.403   8.410   4.721 -3.8940 -0.2032  3.4006
  618MOL0     H83417   4.367   8.333   4.958  2.2929 -0.5386  2.6890
  618MOL0     H83418   4.211   7.811   5.210 -0.9973  2.0302 -1.4220
  618MOL0     H83419   4.183   7.757   5.417 -0.5852 -0.9662 -0.6990
  618MOL0     H83420   4.114   7.803   5.645 -0.9349  0.7437 -0.4114
  618MOL0     H83421   4.155   7.884   5.798  0.9364  1.1112  0.8192
  618MOL0     H83422   4.001   7.969   5.551 -0.5481  1.9162  0.6000
  618MOL0     H83423   4.099   8.096   5.625  0.8388  0.6455 -0.3661
  618MOL0     H83424   3.895   7.917   5.770 -1.1385  1.3901  1.1277
  618MOL0     H83425   3.855   8.077   5.692 -1.0457 -0.1107  1.0522
  618MOL0     H83426   3.979   8.200   5.838 -1.1338  0.8915 -0.9824
  618MOL0     H83427   4.057   8.067   5.919  1.1140  0.6663 -0.3657
  618MOL0     H83428   3.669   8.003   6.088  2.6768 -1.4486  1.4656
  618MOL0     H83429   4.441   8.090   5.540  0.6396 -1.6020  0.3481
  618MOL0     H83430   4.480   8.131   5.324  0.2221  0.4495 -0.0728
  619MOL0     O83431   8.577   3.060   1.237 -0.5155  0.3308  0.5178
  619MOL0     C83432   8.593   3.171   1.204  1.2680 -0.7369  1.1552
  619MOL0     O83433   8.494   3.255   1.150  0.0599 -0.8320  0.7772
  619MOL0     C83434   8.375   3.192   1.139  0.4876 -0.5635 -0.6203
  619MOL0     C83435   8.283   3.174   1.250 -0.0135 -0.3005  0.2922
  619MOL0     C83436   8.157   3.114   1.238 -0.3787 -0.3071  0.1362
  619MOL0     C83437   8.124   3.050   1.121  0.1711  1.0009  0.8086
  619MOL0     O83438   8.011   2.974   1.107 -0.4404 -0.0258 -0.9441
  619MOL0     C83439   7.922   2.945   1.215 -0.0628 -0.2365  0.2412
  619MOL0     C83440   7.820   2.840   1.174 -0.3111 -0.2219 -1.0709
  619MOL0     C83441   7.701   2.845   1.270 -0.6036 -0.1447  0.7028
  619MOL0     C83442   7.577   2.796   1.191 -0.1138  0.0379 -0.0741
  619MOL0     C83443   7.453   2.775   1.278  0.1907  0.7810  0.7623
  619MOL0     C83444   7.319   2.764   1.201 -0.2666 -0.0821  0.7152
  619MOL0     C83445   7.301   2.619   1.143  0.0213  0.5634  0.8378
  619MOL0     C83446   7.274   2.515   1.256 -0.0430 -0.2209  0.5058
  619MOL0     N83447   7.175   2.414   1.237 -0.4693  0.0629 -0.3063
  619MOL0     C83448   7.202   2.279   1.237 -0.1108 -0.1518 -0.0095
  619MOL0     C83449   7.102   2.218   1.173  0.0487 -0.3577 -0.0425
  619MOL0     C83450   7.110   2.071   1.131 -0.4571 -0.5063 -0.6223
  619MOL0     C83451   7.214   2.059   1.022 -0.4144 -0.9101  0.2261
  619MOL0     C83452   7.192   2.145   0.889 -0.2999  0.2960 -0.1538
  619MOL0     C83453   7.059   2.118   0.815  0.0697 -0.2173 -0.3159
  619MOL0     O83454   7.060   1.992   0.753  0.1345  1.0249 -0.8949
  619MOL0     C83455   6.939   1.933   0.712 -0.9849  0.9467  0.1762
  619MOL0     C83456   6.962   1.809   0.665 -0.4254  0.4484 -0.7042
  619MOL0     C83457   6.862   1.719   0.635  0.2903  0.2102 -1.3279
  619MOL0     C83458   6.894   1.577   0.629 -0.2740 -0.0213 -0.5372
  619MOL0     C83459   6.726   1.774   0.630  0.4951 -0.4318 -0.2536
  619MOL0     C83460   6.605   1.692   0.603 -0.3902  0.0382 -0.6112
  619MOL0     O83461   6.493   1.726   0.665  0.1904  0.0594 -0.0358
  619MOL0     C83462   6.368   1.686   0.614  0.4022  0.7138  0.1864
  619MOL0     C83463   6.258   1.692   0.693  0.0569 -0.8602 -0.2109
  619MOL0     C83464   6.130   1.667   0.651  0.3708 -0.0882  0.6888
  619MOL0     C83465   6.109   1.642   0.514  0.4422  0.8565  0.2376
  619MOL0     O83466   5.981   1.621   0.468  0.4906  0.3085 -0.6511
  619MOL0     C83467   5.877   1.683   0.542 -0.1507 -0.1906  0.0568
  619MOL0     C83468   5.753   1.663   0.467  0.5573 -0.3587 -0.2274
  619MOL0     C83469   5.635   1.726   0.534 -0.2995 -0.3305  1.1392
  619MOL0     C83470   5.511   1.688   0.461 -0.1702  0.5009  0.0959
  619MOL0     C83471   5.426   1.808   0.459  0.7752 -0.3017  0.3152
  619MOL0     C83472   5.279   1.767   0.444  0.9016  0.4172  0.3462
  619MOL0     C83473   5.190   1.888   0.416  0.5140  0.5009  0.0418
  619MOL0     C83474   5.036   1.860   0.389 -0.8941 -0.2205 -0.3730
  619MOL0    Cl83475   4.950   2.010   0.371  0.0131 -0.8091  0.1984
  619MOL0     C83476   6.219   1.623   0.425  0.2952 -0.9108 -0.3621
  619MOL0     C83477   6.344   1.644   0.483  0.2201 -1.4839  1.2888
  619MOL0     O83478   6.614   1.593   0.533  0.7300 -0.2094 -0.0584
  619MOL0     C83479   6.696   1.910   0.670  0.6839  0.3096  0.7986
  619MOL0     C83480   6.806   1.983   0.714 -0.1401  0.9766  0.2102
  619MOL0     N83481   7.006   2.317   1.131  0.6549  0.2299 -0.9573
  619MOL0     N83482   7.055   2.436   1.175  0.4258  0.5107  0.8012
  619MOL0     C83483   8.218   3.049   1.012  0.5953 -0.3981  0.6997
  619MOL0     C83484   8.331   3.131   1.019 -0.5540  0.2067 -0.5750
  619MOL0     C83485   8.721   3.239   1.199 -0.3587  0.1373 -0.7821
  619MOL0     C83486   8.834   3.180   1.259  0.3290  0.2474 -0.1553
  619MOL0     C83487   8.962   3.233   1.247  1.0904  0.7102  0.3520
  619MOL0     C83488   8.980   3.342   1.168 -0.7713  0.4783 -0.2193
  619MOL0     O83489   9.107   3.393   1.157  0.2450  0.1541 -0.0475
  619MOL0     C83490   9.183   3.357   1.046  0.1294 -0.4023  0.7094
  619MOL0     C83491   9.196   3.479   0.949 -0.0727 -0.3136 -1.1035
  619MOL0     C83492   9.325   3.474   0.859 -0.0047  0.3734 -0.9516
  619MOL0     C83493   9.321   3.572   0.749 -0.5214  0.3170  0.3176
  619MOL0     C83494   9.205   3.544   0.664  0.0755 -0.0920 -0.1624
  619MOL0     C83495   9.109   3.525   0.596  0.1310  0.1924 -0.4386
  619MOL0     C83496   8.871   3.401   1.107 -0.5213  0.2111 -0.3782
  619MOL0     C83497   8.747   3.356   1.124  0.5724  0.2609  0.2431
  619MOL0     H83498   8.324   3.226   1.336 -0.1419 -0.1133  0.2409
  619MOL0     H83499   8.091   3.113   1.324  0.5627 -0.5361  0.8776
  619MOL0     H83500   7.973   2.908   1.304  2.1746 -0.4602 -1.0461
  619MOL0     H83501   7.868   3.038   1.233  0.1929 -0.1004  0.2994
  619MOL0     H83502   7.782   2.876   1.078 -0.1795  1.6803 -0.4402
  619MOL0     H83503   7.863   2.739   1.174  0.3909  0.0308  1.4737
  619MOL0     H83504   7.731   2.779   1.351  3.9068  0.0793 -0.5141
  619MOL0     H83505   7.680   2.944   1.311  1.6507  0.5692  0.3123
  619MOL0     H83506   7.561   2.875   1.117  2.6281  0.0073 -0.8038
  619MOL0     H83507   7.595   2.703   1.135 -2.7257  0.3554 -1.6040
  619MOL0     H83508   7.458   2.688   1.345 -2.7737 -1.7144 -1.9057
  619MOL0     H83509   7.441   2.866   1.337  1.1276  1.5194 -0.1448
  619MOL0     H83510   7.226   2.776   1.257 -0.4473  0.3651  0.3232
  619MOL0     H83511   7.319   2.838   1.121  0.1323 -2.1018 -1.2664
  619MOL0     H83512   7.215   2.616   1.076  0.8684  0.3011 -0.2688
  619MOL0     H83513   7.371   2.589   1.065 -1.6157 -1.9179  0.1726
  619MOL0     H83514   7.248   2.572   1.345 -0.9191  1.9589 -1.0716
  619MOL0     H83515   7.365   2.460   1.285  0.5937  1.3521  1.6148
  619MOL0     H83516   7.285   2.226   1.282  0.3310  0.5981  0.0837
  619MOL0     H83517   7.135   2.018   1.224 -0.8269  0.3021 -0.0534
  619MOL0     H83518   7.012   2.038   1.095 -1.2606  3.2199 -2.3091
  619MOL0     H83519   7.215   1.955   0.988  2.3745 -0.1743 -2.4178
  619MOL0     H83520   7.312   2.093   1.058 -0.5569  1.8249 -1.6792
  619MOL0     H83521   7.272   2.120   0.818  2.2934 -2.9703  3.4177
  619MOL0     H83522   7.208   2.248   0.920 -2.0695  0.8930 -1.0859
  619MOL0     H83523   7.057   2.202   0.745 -1.9387  2.4183  2.5648
  619MOL0     H83524   6.979   2.127   0.890 -0.6202 -0.4045 -1.0170
  619MOL0     H83525   7.066   1.782   0.652  0.2841  2.8913 -0.4989
  619MOL0     H83526   6.823   1.512   0.680 -1.0146  2.5572  1.9900
  619MOL0     H83527   6.888   1.541   0.526  1.4192 -1.2185 -0.2602
  619MOL0     H83528   6.993   1.559   0.671  1.7874 -2.5834 -5.6256
  619MOL0     H83529   6.281   1.698   0.799 -4.1751  1.2857  0.8152
  619MOL0     H83530   6.055   1.660   0.729 -1.0667 -2.3241 -0.7775
  619MOL0     H83531   5.862   1.638   0.641  0.3922 -1.7767 -0.5534
  619MOL0     H83532   5.895   1.791   0.555 -1.7717  0.0005  1.0499
  619MOL0     H83533   5.779   1.703   0.369  4.4328 -3.3873 -0.7311
  619MOL0     H83534   5.743   1.555   0.452  0.3772 -0.5700  1.2950
  619MOL0     H83535   5.654   1.833   0.532  1.3104 -0.5857  1.5616
  619MOL0     H83536   5.624   1.704   0.641 -2.0973 -2.1719  0.6397
  619MOL0     H83537   5.541   1.671   0.358  0.5725  1.9662  0.0493
  619MOL0     H83538   5.465   1.607   0.519  3.6504 -0.8486  1.5753
  619MOL0     H83539   5.455   1.873   0.376  1.0278 -1.8443 -0.8713
  619MOL0     H83540   5.440   1.870   0.548  1.3845  0.0036  0.0162
  619MOL0     H83541   5.272   1.704   0.355 -2.6741  4.5619 -2.7368
  619MOL0     H83542   5.248   1.712   0.534 -0.5188 -0.0509 -0.4092
  619MOL0     H83543   5.232   1.934   0.326  2.6623 -2.0124 -0.3529
  619MOL0     H83544   5.194   1.958   0.500  0.7820  0.6752 -0.1110
  619MOL0     H83545   5.007   1.812   0.483  4.8967 -0.5635  1.6422
  619MOL0     H83546   5.012   1.790   0.308  0.7867 -2.7186  1.1383
  619MOL0     H83547   6.208   1.591   0.322 -1.4644  1.3091 -0.9536
  619MOL0     H83548   6.413   1.636   0.400  0.4790  0.4682  1.2736
  619MOL0     H83549   6.591   1.938   0.678  0.7750  2.6894 -3.4666
  619MOL0     H83550   6.808   2.087   0.743  1.5694  0.4982  2.0185
  619MOL0     H83551   8.199   2.979   0.931 -0.4824 -1.0793  1.5109
  619MOL0     H83552   8.405   3.129   0.939  0.2209 -2.1135  0.1121
  619MOL0     H83553   8.820   3.088   1.314  0.1205  0.6585  0.4828
  619MOL0     H83554   9.051   3.180   1.281  0.9559 -3.3136 -4.3958
  619MOL0     H83555   9.285   3.342   1.081  0.2470 -0.7711  0.2260
  619MOL0     H83556   9.147   3.262   1.004 -4.5872  0.7018  1.6224
  619MOL0     H83557   9.201   3.557   1.026 -0.8776 -1.5566  0.2454
  619MOL0     H83558   9.109   3.506   0.888  0.8232 -0.0593 -2.3003
  619MOL0     H83559   9.334   3.375   0.814  0.9984  0.5592 -1.1799
  619MOL0     H83560   9.409   3.495   0.926 -0.9956  2.8911 -0.3604
  619MOL0     H83561   9.410   3.577   0.687 -1.1611 -0.7064 -0.7227
  619MOL0     H83562   9.302   3.674   0.785  0.5656  1.2435 -1.5894
  619MOL0     H83563   9.017   3.508   0.544 -0.1069  0.4427 -0.1038
  619MOL0     H83564   8.897   3.491   1.052  1.1781  1.1943  1.8807
  619MOL0     H83565   8.667   3.410   1.073 -1.3909 -1.6356  1.1621
  620MOL0     O83566   7.768   0.477   2.401  0.0663 -0.0220  0.1989
  620MOL0     C83567   7.868   0.418   2.401 -0.9489  0.4158 -0.3383
  620MOL0     O83568   7.883   0.293   2.463 -0.4034 -0.1765  0.5185
  620MOL0     C83569   7.764   0.250   2.510 -0.4264 -0.2078 -0.4046
  620MOL0     C83570   7.690   0.173   2.419  0.5544 -1.2250 -1.3452
  620MOL0     C83571   7.570   0.111   2.465 -0.1014 -0.3596 -0.7918
  620MOL0     C83572   7.519   0.132   2.591  0.7984  0.2076  0.6154
  620MOL0     O83573   7.402   0.065   2.629 -0.8100 -0.0298  0.2008
  620MOL0     C83574   7.304   0.154   2.691  0.5717  0.0336  0.4144
  620MOL0     C83575   7.160   0.131   2.617 -0.7632 -0.0615 -0.3336
  620MOL0     C83576   7.159   0.139   2.457  0.0452  0.7262 -0.2230
  620MOL0     C83577   7.171  -0.001   2.405 -0.3954 -0.2662 -0.1798
  620MOL0     C83578   7.155  -0.013   2.256  0.4084  0.3845 -0.0994
  620MOL0     C83579   7.273   0.055   2.182  0.7243  0.3547 -0.1984
  620MOL0     C83580   7.299   0.004   2.045  0.6819  0.2630  0.3723
  620MOL0     C83581   7.426   0.056   1.980  0.5587  0.1339 -0.8663
  620MOL0     N83582   7.484  -0.035   1.881 -0.4977  0.3016  0.5247
  620MOL0     C83583   7.440  -0.080   1.754 -0.1493  1.0376 -0.9383
  620MOL0     C83584   7.524  -0.184   1.723  0.5375 -0.1516  0.4513
  620MOL0     C83585   7.525  -0.265   1.598 -0.3343  0.2913 -0.1193
  620MOL0     C83586   7.642  -0.240   1.493  0.1909 -0.3937  0.0563
  620MOL0     C83587   7.633  -0.337   1.370 -0.3002 -0.2133 -0.2977
  620MOL0     C83588   7.732  -0.307   1.259  0.1232  1.0458  0.4641
  620MOL0     O83589   7.716  -0.183   1.197  0.3628 -0.7006  0.8598
  620MOL0     C83590   7.817  -0.141   1.111 -0.3909 -0.8569  0.0946
  620MOL0     C83591   7.935  -0.210   1.086 -0.2936 -1.0887 -0.0433
  620MOL0     C83592   8.039  -0.152   1.004  0.4633 -0.5364  1.3513
  620MOL0     C83593   8.146  -0.255   0.966  0.7516 -0.1254 -0.1137
  620MOL0     C83594   8.017  -0.026   0.943 -0.6917 -0.5188 -0.5197
  620MOL0     C83595   8.106   0.039   0.853  0.1003 -0.1803  0.1100
  620MOL0     O83596   8.116   0.178   0.841  0.5199 -0.3100 -0.4921
  620MOL0     C83597   8.217   0.215   0.754  0.1331  0.3450 -0.0916
  620MOL0     C83598   8.209   0.193   0.610 -0.1914 -0.3218  0.1576
  620MOL0     C83599   8.322   0.235   0.533  0.0202 -0.6509  0.6121
  620MOL0     C83600   8.440   0.301   0.578  0.0280 -0.8886 -0.5654
  620MOL0     O83601   8.551   0.337   0.498  0.0429  0.7772 -0.3254
  620MOL0     C83602   8.680   0.278   0.533  0.9481  0.1671  0.0710
  620MOL0     C83603   8.784   0.361   0.468  0.2147 -0.0996  1.3147
  620MOL0     C83604   8.781   0.388   0.316  0.4487 -0.2913 -0.3816
  620MOL0     C83605   8.846   0.296   0.219  0.4406  0.9678  0.1297
  620MOL0     C83606   8.832   0.345   0.074  0.1016  0.2490  0.4575
  620MOL0     C83607   8.879   0.242  -0.027  0.1763 -0.1917  0.1970
  620MOL0     C83608   8.901   0.310  -0.163  0.3485  0.2581 -0.2843
  620MOL0     C83609   8.928   0.195  -0.267 -0.2811  0.2096 -0.5522
  620MOL0    Cl83610   9.068   0.115  -0.204 -0.1762  0.6016  0.5808
  620MOL0     C83611   8.431   0.342   0.711 -0.1978  0.3226  0.1328
  620MOL0     C83612   8.329   0.294   0.796  0.2478  0.4617 -0.5987
  620MOL0     O83613   8.166  -0.041   0.783  0.6473 -0.4838 -0.4879
  620MOL0     C83614   7.894   0.041   0.977 -0.0883 -0.8972 -0.3292
  620MOL0     C83615   7.804  -0.015   1.058 -0.0373  1.0965  0.5207
  620MOL0     N83616   7.630  -0.186   1.816  0.1331 -0.9596 -1.3132
  620MOL0     N83617   7.594  -0.106   1.912 -0.9465 -0.1329  0.0739
  620MOL0     C83618   7.598   0.206   2.688  0.9014  0.0795  0.6095
  620MOL0     C83619   7.716   0.266   2.647  0.0473  0.3159 -0.4041
  620MOL0     C83620   7.991   0.479   2.333 -0.4771  0.5771 -0.3908
  620MOL0     C83621   7.999   0.612   2.280 -0.7468  0.3748 -0.8094
  620MOL0     C83622   8.108   0.664   2.200  0.0044  0.1642 -0.1978
  620MOL0     C83623   8.215   0.577   2.183  0.4436 -0.5545  0.7878
  620MOL0     O83624   8.323   0.619   2.109  0.3965  0.0659 -0.1651
  620MOL0     C83625   8.336   0.750   2.074 -0.2538  0.6158  0.8929
  620MOL0     C83626   8.459   0.781   2.006  0.2460  0.3743  0.2826
  620MOL0     C83627   8.578   0.756   2.105 -0.2814 -0.6031 -0.5608
  620MOL0     C83628   8.711   0.793   2.043  0.4137  0.3590  0.3240
  620MOL0     C83629   8.819   0.728   2.119  0.6749  0.2461  0.0670
  620MOL0     C83630   8.913   0.677   2.172 -0.4573  0.0158  0.5916
  620MOL0     C83631   8.220   0.446   2.241  0.0489 -0.0410 -0.0219
  620MOL0     C83632   8.109   0.393   2.311  0.2350  0.7140 -0.3727
  620MOL0     H83633   7.719   0.173   2.314  0.2645  1.4117 -1.4931
  620MOL0     H83634   7.521   0.048   2.391 -0.1280 -0.0361 -1.0466
  620MOL0     H83635   7.292   0.117   2.793 -0.8539 -1.1673 -0.1560
  620MOL0     H83636   7.325   0.261   2.693 -1.5695  0.4700  1.8852
  620MOL0     H83637   7.108   0.037   2.639 -1.4302  0.3181 -0.2310
  620MOL0     H83638   7.099   0.207   2.667 -0.0008  1.1623 -1.2208
  620MOL0     H83639   7.063   0.182   2.425  0.1352  0.6236 -0.6387
  620MOL0     H83640   7.240   0.200   2.416  1.2771 -2.0194 -2.1491
  620MOL0     H83641   7.272  -0.039   2.424 -0.9921 -1.1827  1.4006
  620MOL0     H83642   7.104  -0.070   2.457 -1.0661 -0.4030 -1.2087
  620MOL0     H83643   7.163  -0.120   2.230  0.9423  0.4479 -0.2135
  620MOL0     H83644   7.056   0.022   2.225 -1.0345 -3.2088 -0.1526
  620MOL0     H83645   7.251   0.162   2.194 -0.2292  0.0085  1.5335
  620MOL0     H83646   7.362   0.038   2.244  1.1537  1.2905 -0.5433
  620MOL0     H83647   7.305  -0.105   2.058  1.2079 -0.0623 -2.1303
  620MOL0     H83648   7.215   0.027   1.978  1.0499 -1.3162 -0.6842
  620MOL0     H83649   7.505   0.070   2.054  0.2491 -0.9801 -0.2996
  620MOL0     H83650   7.409   0.159   1.946 -2.2116  0.1853  0.4006
  620MOL0     H83651   7.350  -0.046   1.705 -1.9666 -1.7656  0.1736
  620MOL0     H83652   7.526  -0.370   1.628  0.2818  0.6532  1.1624
  620MOL0     H83653   7.430  -0.247   1.546 -0.4453 -0.0175 -0.0265
  620MOL0     H83654   7.741  -0.240   1.540  0.7013 -0.5679 -0.9800
  620MOL0     H83655   7.643  -0.138   1.452  3.3819 -0.5314 -0.4525
  620MOL0     H83656   7.530  -0.336   1.335 -0.0111  3.5227 -1.4218
  620MOL0     H83657   7.660  -0.439   1.402 -3.1509 -1.4464 -1.5161
  620MOL0     H83658   7.720  -0.386   1.184 -1.4640  1.5013  0.2191
  620MOL0     H83659   7.825  -0.323   1.314  0.7778  1.6268 -0.4361
  620MOL0     H83660   7.954  -0.310   1.124  3.0667 -1.3660 -2.0760
  620MOL0     H83661   8.156  -0.319   1.054 -1.3160 -0.6262 -0.1872
  620MOL0     H83662   8.115  -0.312   0.879 -0.7597  1.5235 -0.7123
  620MOL0     H83663   8.243  -0.210   0.944  1.2764 -0.9983  0.3479
  620MOL0     H83664   8.126   0.148   0.556  1.2996 -0.6887 -1.9837
  620MOL0     H83665   8.316   0.200   0.431 -5.6051 -1.3900  0.8742
  620MOL0     H83666   8.710   0.278   0.638  0.8730 -0.1190  0.0923
  620MOL0     H83667   8.700   0.176   0.499  2.0917 -0.0318  1.2703
  620MOL0     H83668   8.787   0.462   0.511 -0.1674  1.4523 -1.9473
  620MOL0     H83669   8.881   0.311   0.481  1.0373  0.4594 -1.9003
  620MOL0     H83670   8.838   0.478   0.291  0.7865 -0.9007 -1.8876
  620MOL0     H83671   8.675   0.398   0.289  0.1386  0.2017  0.9441
  620MOL0     H83672   8.954   0.292   0.237  0.3246 -0.4636  0.7099
  620MOL0     H83673   8.801   0.196   0.231  0.0222  1.3154  1.6616
  620MOL0     H83674   8.890   0.435   0.056 -0.5783  1.5632  4.0051
  620MOL0     H83675   8.727   0.375   0.062  0.2674  1.6708  2.1421
  620MOL0     H83676   8.976   0.204   0.007 -0.2437  0.5072  2.3607
  620MOL0     H83677   8.815   0.154  -0.037  0.1655 -0.0330 -1.3077
  620MOL0     H83678   8.984   0.381  -0.156  1.7624 -1.4572  1.6945
  620MOL0     H83679   8.810   0.362  -0.193 -1.2625 -1.9645  0.4936
  620MOL0     H83680   8.943   0.230  -0.369 -2.3245  1.6518 -0.4211
  620MOL0     H83681   8.846   0.122  -0.259 -0.4676  0.3178 -1.3983
  620MOL0     H83682   8.512   0.394   0.761 -1.3063 -0.3476  2.8103
  620MOL0     H83683   8.329   0.330   0.899 -0.6023 -0.9759 -0.0651
  620MOL0     H83684   7.871   0.145   0.956 -3.6630 -1.4138  0.4090
  620MOL0     H83685   7.709   0.032   1.082  0.5560  1.7694  1.6800
  620MOL0     H83686   7.564   0.217   2.790 -0.6258 -1.9475  0.3739
  620MOL0     H83687   7.781   0.321   2.713  1.5352  0.7026 -2.1171
  620MOL0     H83688   7.911   0.675   2.291  0.1490  1.7930 -1.5512
  620MOL0     H83689   8.089   0.753   2.141 -2.0741  1.0819  1.7008
  620MOL0     H83690   8.252   0.772   2.007 -0.0773  0.1201  0.5045
  620MOL0     H83691   8.333   0.823   2.156  0.0946  0.3270  1.1675
  620MOL0     H83692   8.461   0.887   1.980 -0.0300  0.6261  1.2805
  620MOL0     H83693   8.470   0.714   1.920  1.0404 -0.4934  1.0270
  620MOL0     H83694   8.574   0.656   2.149  0.1184 -1.1269 -1.6694
  620MOL0     H83695   8.557   0.829   2.183  0.5821  0.4537 -1.3067
  620MOL0     H83696   8.734   0.899   2.032 -0.4175  0.4445 -0.6831
  620MOL0     H83697   8.713   0.747   1.944 -0.9653 -0.2167  0.5480
  620MOL0     H83698   8.990   0.621   2.223 -0.6046 -1.6289 -0.8884
  620MOL0     H83699   8.307   0.383   2.226 -0.1772 -0.1786 -0.7980
  620MOL0     H83700   8.112   0.289   2.341 -0.9395  0.2588 -1.7254
  621MOL0     O83701   4.044   5.388   3.101  0.8441  0.0091 -0.1826
  621MOL0     C83702   4.148   5.431   3.039  0.4586 -1.1459 -0.8777
  621MOL0     O83703   4.170   5.421   2.906 -0.2044 -1.0970 -0.0385
  621MOL0     C83704   4.058   5.371   2.843 -0.7272  0.8236 -0.6419
  621MOL0     C83705   3.988   5.457   2.764  0.2714  0.3160 -0.0390
  621MOL0     C83706   3.875   5.413   2.689  0.0251 -0.7410  0.1518
  621MOL0     C83707   3.836   5.273   2.691 -0.4530 -0.7964  0.1852
  621MOL0     O83708   3.732   5.221   2.611 -0.2501  0.3635 -0.2689
  621MOL0     C83709   3.597   5.274   2.627 -0.2962  1.0322 -0.3008
  621MOL0     C83710   3.503   5.158   2.612  0.4926 -0.7925 -0.6575
  621MOL0     C83711   3.532   5.086   2.474 -0.6044  0.1656  0.5757
  621MOL0     C83712   3.455   4.961   2.467 -0.0188  0.2769 -0.3614
  621MOL0     C83713   3.299   4.969   2.467  0.4421 -0.6505 -0.8414
  621MOL0     C83714   3.252   4.822   2.479 -0.4877  0.3563 -0.9537
  621MOL0     C83715   3.104   4.813   2.495  0.7253  0.5479  0.0846
  621MOL0     C83716   3.054   4.678   2.449  0.6416 -0.7890 -0.3625
  621MOL0     N83717   2.906   4.686   2.431 -0.5041 -0.2909 -0.0431
  621MOL0     C83718   2.848   4.773   2.337 -0.1843  0.8002  0.1459
  621MOL0     C83719   2.719   4.771   2.369 -0.8341  0.2961 -0.0109
  621MOL0     C83720   2.606   4.845   2.284  0.3547  0.0948 -0.3525
  621MOL0     C83721   2.466   4.813   2.351  0.1391 -0.4180 -0.1315
  621MOL0     C83722   2.344   4.871   2.273  0.3095  0.8484  0.1265
  621MOL0     C83723   2.217   4.814   2.342  1.0528  0.2248 -0.3900
  621MOL0     O83724   2.197   4.670   2.320  0.2764  0.2453 -0.3714
  621MOL0     C83725   2.099   4.597   2.383  0.0532 -0.2288 -0.0700
  621MOL0     C83726   2.082   4.460   2.358 -0.7907  0.0475 -0.1050
  621MOL0     C83727   1.971   4.391   2.418 -1.2061  0.3947 -0.0924
  621MOL0     C83728   1.961   4.255   2.364  0.1865  0.6385  1.0082
  621MOL0     C83729   1.889   4.450   2.514  0.5736 -0.5915  0.2550
  621MOL0     C83730   1.792   4.383   2.596  0.4375 -0.5373  0.1698
  621MOL0     O83731   1.664   4.448   2.607 -0.2495 -0.3307  0.0775
  621MOL0     C83732   1.574   4.389   2.682 -0.1501 -0.2697  0.0094
  621MOL0     C83733   1.518   4.270   2.643  0.1187  0.0005 -0.1863
  621MOL0     C83734   1.394   4.217   2.688  0.2988  0.8140 -0.0933
  621MOL0     C83735   1.322   4.282   2.782  0.3322 -0.8359 -0.0273
  621MOL0     O83736   1.211   4.235   2.844  0.6901 -0.1691  0.8411
  621MOL0     C83737   1.127   4.161   2.753  0.1470  0.5407  0.1545
  621MOL0     C83738   1.003   4.089   2.824  0.1074 -0.9312 -0.0375
  621MOL0     C83739   0.902   4.192   2.887  0.0472  0.1053 -0.4380
  621MOL0     C83740   0.820   4.279   2.791  0.3182  1.0939 -0.0905
  621MOL0     C83741   0.744   4.402   2.855  0.2796  0.7403 -0.1393
  621MOL0     C83742   0.660   4.359   2.977  0.2993 -0.6288 -0.8874
  621MOL0     C83743   0.612   4.493   3.047  0.8379 -0.1021 -0.4303
  621MOL0     C83744   0.512   4.455   3.155 -0.9555  0.0136 -0.5989
  621MOL0    Cl83745   0.590   4.406   3.300 -0.0183 -0.6581  0.5800
  621MOL0     C83746   1.379   4.405   2.827  0.5489  0.0562  0.2152
  621MOL0     C83747   1.505   4.460   2.784  0.2733 -0.2527  0.4933
  621MOL0     O83748   1.820   4.270   2.648 -0.9371  0.0266  0.0218
  621MOL0     C83749   1.912   4.588   2.539 -0.7645 -0.0335 -0.5600
  621MOL0     C83750   2.015   4.652   2.472  0.4642 -0.8847  0.0628
  621MOL0     N83751   2.704   4.695   2.482 -0.0888  0.9062  0.6243
  621MOL0     N83752   2.818   4.649   2.525  0.6162  0.6510  0.1836
  621MOL0     C83753   3.902   5.181   2.775 -0.3659 -0.5171  0.0172
  621MOL0     C83754   4.014   5.237   2.847 -0.6064 -0.5749 -0.5879
  621MOL0     C83755   4.261   5.492   3.110  0.9555 -0.2901 -0.0987
  621MOL0     C83756   4.295   5.445   3.240 -0.8470 -0.5402  0.0993
  621MOL0     C83757   4.394   5.514   3.312  0.0686 -0.5280  0.5147
  621MOL0     C83758   4.475   5.611   3.259 -0.0814  0.2245  0.8733
  621MOL0     O83759   4.556   5.680   3.343 -0.3924 -0.4030 -0.7043
  621MOL0     C83760   4.664   5.766   3.287 -0.4622  0.6769 -0.1934
  621MOL0     C83761   4.769   5.804   3.399 -0.2064 -1.0294 -0.5369
  621MOL0     C83762   4.816   5.949   3.374 -0.0711  0.1279  0.3569
  621MOL0     C83763   4.913   5.962   3.249  0.4900 -0.1173  0.2856
  621MOL0     C83764   5.055   5.929   3.287 -0.6749 -1.0274  0.0249
  621MOL0     C83765   5.177   5.917   3.293  0.0720  0.5681  0.3199
  621MOL0     C83766   4.441   5.649   3.124 -0.7520 -0.8120  0.3582
  621MOL0     C83767   4.344   5.588   3.049  0.4293 -1.3497 -0.8862
  621MOL0     H83768   4.022   5.559   2.749 -1.2037  0.5910 -1.9517
  621MOL0     H83769   3.819   5.487   2.633  1.7873 -0.7147 -1.6878
  621MOL0     H83770   3.583   5.309   2.730 -0.8949 -0.4411  0.1463
  621MOL0     H83771   3.570   5.360   2.566  0.6685  1.8661  0.4193
  621MOL0     H83772   3.529   5.080   2.684 -2.2414 -1.0075  0.1977
  621MOL0     H83773   3.402   5.197   2.628  1.2863  1.2511 -0.3334
  621MOL0     H83774   3.503   5.129   2.378  0.9443  0.2186  0.0955
  621MOL0     H83775   3.633   5.046   2.461  0.1186  2.6950 -3.6261
  621MOL0     H83776   3.497   4.901   2.386  0.2006  1.0688 -0.8397
  621MOL0     H83777   3.486   4.913   2.560 -1.6624 -2.5913 -1.1754
  621MOL0     H83778   3.259   5.023   2.553 -0.2680  0.4868 -1.8687
  621MOL0     H83779   3.267   5.017   2.374 -1.7941  1.5047  0.9120
  621MOL0     H83780   3.281   4.762   2.393  0.0230 -1.5226  0.4885
  621MOL0     H83781   3.292   4.767   2.564 -2.1841  1.9146  0.9491
  621MOL0     H83782   3.078   4.835   2.599  0.9683  0.7740  0.0967
  621MOL0     H83783   3.054   4.881   2.426 -4.2273 -4.2910 -1.8359
  621MOL0     H83784   3.081   4.605   2.525 -0.8072 -0.7359  0.2457
  621MOL0     H83785   3.105   4.642   2.359 -2.2710  0.1927 -2.5827
  621MOL0     H83786   2.896   4.834   2.261  2.9739  0.1627  1.4966
  621MOL0     H83787   2.631   4.950   2.302 -3.6399  1.0902  0.4314
  621MOL0     H83788   2.602   4.837   2.175  0.6799 -2.2527 -0.2425
  621MOL0     H83789   2.468   4.849   2.454  0.2120  0.5681 -0.4667
  621MOL0     H83790   2.465   4.704   2.340  3.1542 -0.3069 -3.8063
  621MOL0     H83791   2.348   4.839   2.168 -0.8881 -1.8688  0.8273
  621MOL0     H83792   2.332   4.980   2.272 -2.1691  0.6327  0.0926
  621MOL0     H83793   2.126   4.864   2.306  0.3862  0.2132  1.1853
  621MOL0     H83794   2.213   4.829   2.450 -1.5304 -2.0140 -0.0726
  621MOL0     H83795   2.141   4.401   2.288 -0.4487  0.1939  0.0628
  621MOL0     H83796   1.856   4.224   2.374  0.9004 -2.2312  0.4470
  621MOL0     H83797   1.988   4.246   2.258 -3.6852 -1.3865 -0.0093
  621MOL0     H83798   2.022   4.194   2.430  1.3674 -1.0961 -1.5322
  621MOL0     H83799   1.563   4.210   2.566  1.3844 -0.2241  0.7055
  621MOL0     H83800   1.352   4.122   2.655 -4.8598  1.6267  3.0277
  621MOL0     H83801   1.101   4.216   2.663 -1.9637 -1.9087 -0.8592
  621MOL0     H83802   1.175   4.069   2.719 -1.1718 -0.6762  1.4195
  621MOL0     H83803   0.951   4.024   2.754 -1.9695 -0.7903  1.2772
  621MOL0     H83804   1.047   4.020   2.896  5.2437  0.8458 -1.0869
  621MOL0     H83805   0.969   4.261   2.939  2.2600 -1.7633 -0.6052
  621MOL0     H83806   0.839   4.135   2.955 -0.3996  2.4369  1.2057
  621MOL0     H83807   0.880   4.323   2.711  0.3483  1.2202  0.0026
  621MOL0     H83808   0.740   4.214   2.752  0.4401  1.3466 -0.7788
  621MOL0     H83809   0.684   4.461   2.785  0.5621  1.1135 -0.0708
  621MOL0     H83810   0.819   4.471   2.894  0.7916 -0.0727  0.3576
  621MOL0     H83811   0.573   4.301   2.945 -1.3490  1.2944 -0.0944
  621MOL0     H83812   0.719   4.306   3.052 -1.1575  1.0106  1.5401
  621MOL0     H83813   0.559   4.558   2.977 -0.5410 -0.5593  0.1617
  621MOL0     H83814   0.690   4.556   3.091 -0.8295  1.3314  0.5813
  621MOL0     H83815   0.454   4.367   3.127 -0.1940 -0.6746 -0.0745
  621MOL0     H83816   0.440   4.534   3.180 -2.1059 -1.2435  0.1635
  621MOL0     H83817   1.321   4.441   2.912 -1.4101 -1.7266 -0.3058
  621MOL0     H83818   1.531   4.559   2.820  0.4751  0.8529 -2.4913
  621MOL0     H83819   1.886   4.644   2.628  1.6401  0.0099  0.2061
  621MOL0     H83820   2.012   4.760   2.489 -3.2298 -1.0576  1.5548
  621MOL0     H83821   3.876   5.077   2.759 -1.0302 -0.2609 -0.6319
  621MOL0     H83822   4.080   5.162   2.891  1.2316  2.1161  1.6290
  621MOL0     H83823   4.237   5.376   3.301 -1.2469  0.4053  0.8087
  621MOL0     H83824   4.423   5.475   3.409 -1.9919 -0.3635  1.2531
  621MOL0     H83825   4.709   5.708   3.207  0.2290  2.9525 -1.5445
  621MOL0     H83826   4.612   5.850   3.240 -0.4690 -0.4289 -2.2743
  621MOL0     H83827   4.852   5.734   3.407 -1.3754 -2.7564 -2.4292
  621MOL0     H83828   4.721   5.801   3.498  3.8070 -1.4565  1.5733
  621MOL0     H83829   4.864   5.997   3.460 -2.3406  0.1228  1.7171
  621MOL0     H83830   4.729   6.015   3.360  0.6072  0.7352 -1.1921
  621MOL0     H83831   4.901   6.063   3.210  4.4475  0.6399  0.6226
  621MOL0     H83832   4.879   5.899   3.166  2.4097 -0.6090 -0.1805
  621MOL0     H83833   5.282   5.902   3.305  0.0263  0.3597  0.4554
  621MOL0     H83834   4.500   5.728   3.079 -1.1886 -0.1799  0.8876
  621MOL0     H83835   4.317   5.616   2.948  0.9722 -1.5148 -1.0819
  622MOL0     O83836  10.827   9.616   4.492  0.6593 -0.9199  0.0238
  622MOL0     C83837  10.817   9.498   4.528 -0.0634 -0.1838  0.5781
  622MOL0     O83838  10.923   9.409   4.541  0.0906 -0.5903  0.2513
  622MOL0     C83839  11.035   9.464   4.598 -0.0804 -0.2004 -0.7307
  622MOL0     C83840  11.065   9.596   4.641  1.1944 -0.4292 -0.0591
  622MOL0     C83841  11.188   9.629   4.703 -0.3418 -0.3341 -0.4629
  622MOL0     C83842  11.289   9.527   4.720 -0.8607 -0.8298  0.1572
  622MOL0     O83843  11.404   9.539   4.797  0.7939  0.4919 -0.0531
  622MOL0     C83844  11.459   9.665   4.805  1.3532  0.5493 -0.5791
  622MOL0     C83845  11.501   9.728   4.676 -0.5599 -0.1243  0.1782
  622MOL0     C83846  11.612   9.647   4.618 -0.4604 -0.2139  0.0079
  622MOL0     C83847  11.661   9.726   4.501 -0.6354 -0.0307  0.8553
  622MOL0     C83848  11.795   9.684   4.436 -0.7108 -1.0613  0.0363
  622MOL0     C83849  11.910   9.692   4.535  0.0347  0.5089  0.4764
  622MOL0     C83850  12.051   9.664   4.460 -0.0341 -0.3120 -0.4122
  622MOL0     C83851  12.173   9.675   4.556 -0.2517 -0.4148 -0.3747
  622MOL0     N83852  12.191   9.555   4.640  0.0728 -0.3257  0.7932
  622MOL0     C83853  12.132   9.432   4.640  0.2150  0.8614 -0.2554
  622MOL0     C83854  12.184   9.361   4.752 -0.1742 -0.3737 -0.3433
  622MOL0     C83855  12.156   9.218   4.795  0.4263  0.0993 -0.2190
  622MOL0     C83856  12.058   9.148   4.709  0.5368 -0.2213  0.7502
  622MOL0     C83857  12.060   9.002   4.744 -0.5086 -0.8448 -0.7920
  622MOL0     C83858  11.956   8.918   4.679 -0.4306  0.0321  0.5772
  622MOL0     O83859  11.998   8.907   4.544  0.4066  0.3160  0.6835
  622MOL0     C83860  11.904   8.863   4.441 -0.1976  0.3957 -0.6295
  622MOL0     C83861  11.776   8.809   4.462 -0.4220 -0.5477 -0.9820
  622MOL0     C83862  11.694   8.767   4.360  0.2237  1.1458 -0.0077
  622MOL0     C83863  11.554   8.705   4.390 -0.4896 -0.4151 -0.5422
  622MOL0     C83864  11.739   8.785   4.229 -0.3319  0.3549 -0.3022
  622MOL0     C83865  11.662   8.751   4.102  0.2769 -1.0886 -0.1966
  622MOL0     O83866  11.711   8.813   3.991  0.9580  0.7648  0.8542
  622MOL0     C83867  11.632   8.806   3.871  0.3248 -0.1568 -0.6054
  622MOL0     C83868  11.570   8.922   3.816  0.1225 -0.3031  0.1010
  622MOL0     C83869  11.483   8.917   3.706  0.5018  0.5492  0.3454
  622MOL0     C83870  11.461   8.786   3.645  0.1614 -0.8205 -0.5646
  622MOL0     O83871  11.376   8.762   3.539 -0.4642 -0.1757 -0.4245
  622MOL0     C83872  11.302   8.867   3.477 -0.4202 -1.0777  1.1201
  622MOL0     C83873  11.369   8.933   3.354  0.1088  0.7552 -0.3232
  622MOL0     C83874  11.420   8.821   3.272 -0.1812  1.5488  0.2792
  622MOL0     C83875  11.521   8.879   3.169 -1.0793 -0.2445  0.0988
  622MOL0     C83876  11.565   8.772   3.065  0.3926 -0.1808  0.3913
  622MOL0     C83877  11.459   8.742   2.960 -0.4241  0.7976  0.0772
  622MOL0     C83878  11.506   8.621   2.882  0.2536 -0.3804 -0.3847
  622MOL0     C83879  11.433   8.588   2.756  0.8744 -0.6236  0.7555
  622MOL0    Cl83880  11.444   8.406   2.724 -0.4165  0.1544 -0.2664
  622MOL0     C83881  11.512   8.673   3.701  0.0902  0.4701 -0.0446
  622MOL0     C83882  11.605   8.686   3.808  0.6846  0.0526  0.0082
  622MOL0     O83883  11.554   8.694   4.107 -0.9833 -0.2200 -0.1314
  622MOL0     C83884  11.858   8.841   4.208 -0.0156 -0.3349 -0.6669
  622MOL0     C83885  11.946   8.875   4.310  0.3095 -0.1585  0.2184
  622MOL0     N83886  12.273   9.450   4.815 -0.4717 -0.5787 -0.5885
  622MOL0     N83887  12.279   9.562   4.745 -0.4098  0.2837 -0.0218
  622MOL0     C83888  11.259   9.399   4.664 -0.3092 -0.3798  0.8224
  622MOL0     C83889  11.134   9.370   4.617  0.5660 -0.3399  0.4037
  622MOL0     C83890  10.679   9.444   4.534 -0.1177  0.8136 -0.1566
  622MOL0     C83891  10.570   9.534   4.522 -0.2004 -0.3030 -0.4673
  622MOL0     C83892  10.433   9.480   4.522 -1.0666  0.8995 -0.1561
  622MOL0     C83893  10.412   9.348   4.540 -0.4497  0.8709  0.9103
  622MOL0     O83894  10.278   9.306   4.537 -0.0895 -0.6630  0.3304
  622MOL0     C83895  10.249   9.169   4.559  0.4141  0.4469 -0.5547
  622MOL0     C83896  10.278   9.081   4.439  1.2702 -0.8491 -0.0247
  622MOL0     C83897  10.212   8.939   4.455 -0.4835  0.0750 -0.1347
  622MOL0     C83898  10.274   8.862   4.332  0.0434  0.0752  0.0304
  622MOL0     C83899  10.198   8.904   4.214  0.7165 -0.3208 -0.0506
  622MOL0     C83900  10.144   8.924   4.101 -0.8480 -0.5084 -0.4058
  622MOL0     C83901  10.526   9.260   4.555 -0.2387 -0.2047  0.8299
  622MOL0     C83902  10.657   9.311   4.553  0.8857  0.6411 -1.2445
  622MOL0     H83903  10.999   9.681   4.629  1.9329 -0.2041 -4.4481
  622MOL0     H83904  11.208   9.731   4.732 -0.5498 -0.9356  2.0162
  622MOL0     H83905  11.387   9.732   4.853  1.4839  0.4098 -0.1843
  622MOL0     H83906  11.546   9.647   4.869 -0.5424 -2.6150  1.3162
  622MOL0     H83907  11.422   9.735   4.600 -1.3820 -2.3806  0.7320
  622MOL0     H83908  11.542   9.828   4.690  1.1742 -0.3830 -2.3528
  622MOL0     H83909  11.694   9.633   4.688  1.1234  0.2021 -1.6916
  622MOL0     H83910  11.574   9.548   4.591  1.1952 -1.5292  2.2189
  622MOL0     H83911  11.589   9.726   4.419 -0.5010 -0.1938  0.7376
  622MOL0     H83912  11.674   9.832   4.524  3.2120 -0.0741 -0.3466
  622MOL0     H83913  11.789   9.584   4.390 -3.3488  0.1874 -2.6604
  622MOL0     H83914  11.817   9.753   4.355 -2.4457 -0.3451  0.1290
  622MOL0     H83915  11.906   9.790   4.583 -0.9538  1.5984 -1.7124
  622MOL0     H83916  11.891   9.625   4.620 -4.2741  0.7666 -0.0367
  622MOL0     H83917  12.051   9.572   4.401 -0.6790 -0.7707  0.2906
  622MOL0     H83918  12.052   9.748   4.390  0.2221  2.1190  2.3143
  622MOL0     H83919  12.167   9.765   4.618  1.3077 -1.8002  1.9467
  622MOL0     H83920  12.264   9.699   4.501 -0.2869 -0.0915 -0.2980
  622MOL0     H83921  12.058   9.394   4.569 -0.1890 -0.0784  0.6411
  622MOL0     H83922  12.243   9.156   4.820 -0.8968 -1.2232  1.3695
  622MOL0     H83923  12.114   9.231   4.895  1.3807 -1.2723  0.4056
  622MOL0     H83924  12.084   9.165   4.604  1.8611 -0.7651  0.9681
  622MOL0     H83925  11.953   9.177   4.717  0.6764 -0.1940  3.1069
  622MOL0     H83926  12.047   8.998   4.853  0.0554 -2.8452 -0.7503
  622MOL0     H83927  12.157   8.965   4.709  0.2663  1.6647 -1.4331
  622MOL0     H83928  11.860   8.971   4.680  0.6037  1.9797  0.8004
  622MOL0     H83929  11.947   8.822   4.730  1.1145 -0.1562  0.5198
  622MOL0     H83930  11.739   8.789   4.562 -0.8686 -2.5595 -1.4994
  622MOL0     H83931  11.474   8.778   4.376  0.1361  0.3675 -0.1671
  622MOL0     H83932  11.532   8.609   4.343  0.0667 -0.8271  0.0136
  622MOL0     H83933  11.560   8.682   4.497  0.5563  0.7434 -0.3181
  622MOL0     H83934  11.564   9.017   3.868  1.7922  0.7052 -1.4646
  622MOL0     H83935  11.446   9.013   3.670 -0.8249 -0.4971 -1.2611
  622MOL0     H83936  11.204   8.828   3.448 -2.2451  1.9834  2.7062
  622MOL0     H83937  11.280   8.942   3.554  1.3231  2.0846 -1.2249
  622MOL0     H83938  11.297   8.987   3.291 -0.0248 -0.6321 -1.4026
  622MOL0     H83939  11.451   8.996   3.387  1.1868 -1.0049  0.4882
  622MOL0     H83940  11.331   8.775   3.227 -0.8563  2.6097  0.4704
  622MOL0     H83941  11.471   8.744   3.331 -4.3851 -1.3622  0.6361
  622MOL0     H83942  11.479   8.965   3.114  2.2690  1.7658  0.4343
  622MOL0     H83943  11.614   8.915   3.213 -0.1948 -1.0569 -1.0520
  622MOL0     H83944  11.591   8.689   3.132 -2.9151  1.0799  3.5631
  622MOL0     H83945  11.659   8.806   3.022  0.9574  0.2783  1.9010
  622MOL0     H83946  11.365   8.724   3.014  0.6027 -0.4707  1.5331
  622MOL0     H83947  11.448   8.828   2.893 -3.4138 -0.6346 -1.4761
  622MOL0     H83948  11.505   8.535   2.950  0.8087  0.5457  0.8348
  622MOL0     H83949  11.613   8.635   2.861 -0.1631  2.1195 -1.1175
  622MOL0     H83950  11.459   8.649   2.669 -2.0130 -0.0625  0.2012
  622MOL0     H83951  11.326   8.608   2.768  0.1819 -2.3254 -1.7500
  622MOL0     H83952  11.496   8.583   3.643  0.0281  0.8575 -0.6255
  622MOL0     H83953  11.658   8.591   3.814  0.9870  0.0786 -1.6866
  622MOL0     H83954  11.899   8.860   4.109  0.5293  0.3735 -0.3171
  622MOL0     H83955  12.046   8.911   4.289  0.1582 -0.2647 -0.7411
  622MOL0     H83956  11.340   9.327   4.675  0.1096 -0.0114  0.2355
  622MOL0     H83957  11.116   9.271   4.578 -0.8723  0.7064 -1.7804
  622MOL0     H83958  10.600   9.636   4.499  2.0203 -0.9045 -0.4302
  622MOL0     H83959  10.345   9.538   4.498 -2.5450 -0.3800  1.8565
  622MOL0     H83960  10.299   9.126   4.646 -0.9573  1.0822  0.5986
  622MOL0     H83961  10.141   9.164   4.572  0.3463  0.5860 -1.0459
  622MOL0     H83962  10.387   9.067   4.439  1.4643  0.5725  0.1696
  622MOL0     H83963  10.252   9.136   4.348  2.1127  1.0643  0.8543
  622MOL0     H83964  10.104   8.930   4.450 -0.3396 -3.0963  0.7029
  622MOL0     H83965  10.237   8.897   4.553 -0.9892  0.3447  0.1127
  622MOL0     H83966  10.264   8.754   4.347  4.4316 -0.5049  0.0365
  622MOL0     H83967  10.382   8.869   4.313  0.1099 -1.1774 -0.1636
  622MOL0     H83968  10.100   8.954   4.008 -3.1881  1.0197  1.0804
  622MOL0     H83969  10.508   9.162   4.598 -2.5111  0.7695  2.2939
  622MOL0     H83970  10.735   9.240   4.578  0.5483  1.1174  1.4032
  623MOL0     O83971   1.862   1.012  10.529  0.2511  0.8594 -0.2438
  623MOL0     C83972   1.986   1.020  10.545  0.2498  0.5043  0.6598
  623MOL0     O83973   2.050   1.055  10.656  0.3852  0.1794 -0.8819
  623MOL0     C83974   1.995   1.021  10.776  0.0976  0.0505 -0.0724
  623MOL0     C83975   1.966   0.890  10.824 -0.3413 -0.8123 -0.0598
  623MOL0     C83976   1.884   0.873  10.939 -0.7631  0.2949 -0.0739
  623MOL0     C83977   1.861   0.981  11.024  0.0440  0.2930  0.1823
  623MOL0     O83978   1.815   0.932  11.146  1.1146  0.6523 -0.4826
  623MOL0     C83979   1.760   1.027  11.245  0.1221  0.7486  0.3246
  623MOL0     C83980   1.630   1.077  11.199 -0.5268  0.4039  0.3992
  623MOL0     C83981   1.544   1.137  11.306 -0.2557 -0.2298  0.4852
  623MOL0     C83982   1.495   1.059  11.425  0.6938 -0.5405  0.6263
  623MOL0     C83983   1.403   0.959  11.376  0.2198 -0.7524  0.6132
  623MOL0     C83984   1.347   0.865  11.490 -0.1854 -1.4636 -0.5626
  623MOL0     C83985   1.276   0.949  11.597  0.3139  0.4476 -0.1267
  623MOL0     C83986   1.156   0.873  11.649  0.2976  0.2516  0.4024
  623MOL0     N83987   1.093   0.953  11.761 -0.3022 -0.9638  0.0895
  623MOL0     C83988   1.039   1.074  11.744 -0.7705  0.2783  0.0931
  623MOL0     C83989   0.996   1.105  11.868  0.8083 -0.3944 -0.9528
  623MOL0     C83990   0.925   1.230  11.911 -0.2353 -0.2214  0.7584
  623MOL0     C83991   0.969   1.293  12.045 -0.2580 -1.0602  0.1358
  623MOL0     C83992   0.967   1.212  12.177  0.8148  0.2534 -0.3068
  623MOL0     C83993   0.831   1.140  12.195 -0.5103 -0.4472  0.4249
  623MOL0     O83994   0.718   1.223  12.224  0.6078  0.2014  0.6598
  623MOL0     C83995   0.644   1.196  12.337 -0.2663 -0.1957  0.9960
  623MOL0     C83996   0.507   1.212  12.336 -0.2975 -0.6177 -0.6125
  623MOL0     C83997   0.420   1.193  12.451 -0.3445  0.3207 -0.5409
  623MOL0     C83998   0.281   1.227  12.434  0.7050 -0.0846  0.8079
  623MOL0     C83999   0.473   1.155  12.572 -0.3736  0.8084 -0.3555
  623MOL0     C84000   0.404   1.139  12.705 -0.1944  0.5892 -0.4735
  623MOL0     O84001   0.486   1.066  12.791 -0.1496  0.3147 -0.2786
  623MOL0     C84002   0.439   1.025  12.913  0.0209 -0.2475  0.5163
  623MOL0     C84003   0.502   0.902  12.952  0.4737  0.2849 -0.1012
  623MOL0     C84004   0.468   0.856  13.084 -0.8377  0.2090  0.7995
  623MOL0     C84005   0.382   0.928  13.167  0.1287 -0.6004  0.2204
  623MOL0     O84006   0.353   0.897  13.298  0.0545 -0.4076  0.2339
  623MOL0     C84007   0.321   0.760  13.303  0.1337  0.4477 -0.6476
  623MOL0     C84008   0.302   0.707  13.448  0.2059 -0.2230  0.1099
  623MOL0     C84009   0.173   0.748  13.503  0.1235  0.1209  0.5175
  623MOL0     C84010   0.167   0.702  13.653 -0.0906 -0.0528 -1.1769
  623MOL0     C84011   0.021   0.673  13.707  0.5035  0.9377  0.0674
  623MOL0     C84012  -0.022   0.551  13.629 -0.2491 -0.2250  0.0766
  623MOL0     C84013  -0.162   0.503  13.683  0.2362  0.3718 -0.4994
  623MOL0     C84014  -0.206   0.366  13.635 -0.4497  0.5250 -0.3600
  623MOL0    Cl84015  -0.253   0.350  13.457  0.1506 -0.2808 -0.2409
  623MOL0     C84016   0.318   1.046  13.122  0.3952 -0.7765 -0.0181
  623MOL0     C84017   0.341   1.090  12.996 -0.2600 -0.4528  0.3644
  623MOL0     O84018   0.292   1.177  12.727 -0.5634 -0.6320 -0.1937
  623MOL0     C84019   0.612   1.135  12.575 -0.4446  0.1752 -1.4211
  623MOL0     C84020   0.697   1.158  12.459  1.1020  0.1015 -1.2133
  623MOL0     N84021   1.025   0.998  11.952  0.2892  1.4489 -0.4787
  623MOL0     N84022   1.082   0.910  11.887 -0.1991 -1.1576 -0.2905
  623MOL0     C84023   1.901   1.104  10.991 -0.6577 -0.1041 -0.1437
  623MOL0     C84024   1.960   1.127  10.863 -0.8116 -0.2634  0.9388
  623MOL0     C84025   2.072   1.025  10.417 -0.1814 -0.5815  0.7139
  623MOL0     C84026   2.025   0.980  10.290  0.9846  0.2579  0.6071
  623MOL0     C84027   2.108   0.984  10.172 -0.4221  0.2198 -0.1463
  623MOL0     C84028   2.235   1.038  10.185 -0.6479  0.0675 -0.6695
  623MOL0     O84029   2.326   1.045  10.083  0.8414  0.0898  0.0688
  623MOL0     C84030   2.385   0.926  10.040  0.4328 -0.5266  0.0345
  623MOL0     C84031   2.538   0.923  10.068 -0.6838  0.7970 -0.0216
  623MOL0     C84032   2.606   1.053  10.028  0.7118  0.0096 -0.2746
  623MOL0     C84033   2.756   1.052  10.002 -0.0764 -0.1493 -0.2055
  623MOL0     C84034   2.806   1.189   9.986 -0.0420 -0.6632 -0.6171
  623MOL0     C84035   2.847   1.302   9.971 -0.2785 -0.1378  0.1643
  623MOL0     C84036   2.284   1.069  10.310  0.1093 -0.3512  0.5098
  623MOL0     C84037   2.197   1.077  10.418 -0.9351 -0.5072  0.2485
  623MOL0     H84038   2.016   0.812  10.767 -2.3577 -1.7818 -0.6145
  623MOL0     H84039   1.846   0.777  10.974  1.3734 -1.5199 -2.4017
  623MOL0     H84040   1.736   0.966  11.332 -4.1754 -0.2328 -1.2841
  623MOL0     H84041   1.834   1.102  11.275  1.4087 -0.8667  1.3708
  623MOL0     H84042   1.646   1.155  11.125  3.5969 -2.8085 -2.5730
  623MOL0     H84043   1.581   0.998  11.141  2.3169 -1.4157  0.2656
  623MOL0     H84044   1.610   1.210  11.353  2.3036  0.5294 -3.7697
  623MOL0     H84045   1.459   1.187  11.258 -0.6871 -1.7620 -0.4116
  623MOL0     H84046   1.564   1.004  11.490  1.5918  0.9745  1.0093
  623MOL0     H84047   1.451   1.137  11.488  1.8138 -0.7561  1.7002
  623MOL0     H84048   1.316   0.998  11.322 -2.2734 -1.2885  3.9389
  623MOL0     H84049   1.457   0.895  11.306  1.5374 -0.6624  1.5086
  623MOL0     H84050   1.271   0.796  11.452 -1.3495  0.8318 -2.7050
  623MOL0     H84051   1.437   0.823  11.537  0.0723 -0.0574  0.2483
  623MOL0     H84052   1.350   0.986  11.668 -0.6541  2.1425  0.0504
  623MOL0     H84053   1.242   1.038  11.545  3.5962  1.8692 -0.1017
  623MOL0     H84054   1.188   0.774  11.684 -0.6836 -1.5361 -3.2488
  623MOL0     H84055   1.078   0.861  11.573 -0.1827  0.4517  0.8543
  623MOL0     H84056   1.034   1.135  11.654  0.6187  0.6955  0.2676
  623MOL0     H84057   0.932   1.295  11.822  0.4193  0.5507  1.3548
  623MOL0     H84058   0.818   1.206  11.913 -0.1227 -0.6900  2.0342
  623MOL0     H84059   0.918   1.388  12.060  0.3163 -0.5267 -1.1846
  623MOL0     H84060   1.075   1.316  12.030 -0.9756  0.4651 -3.5319
  623MOL0     H84061   0.985   1.278  12.262  1.4545 -0.1462 -0.1239
  623MOL0     H84062   1.042   1.135  12.157  1.1309  1.5468 -5.9305
  623MOL0     H84063   0.855   1.062  12.268 -0.5518 -2.0928 -1.2525
  623MOL0     H84064   0.812   1.091  12.099  1.8977  1.4275 -1.1229
  623MOL0     H84065   0.463   1.250  12.245  0.2719 -2.1660 -1.5661
  623MOL0     H84066   0.284   1.337  12.429  3.5638 -0.1410 -1.4749
  623MOL0     H84067   0.246   1.190  12.338  0.5983  3.4362 -0.6656
  623MOL0     H84068   0.211   1.189  12.509  1.2412 -0.1407  1.2965
  623MOL0     H84069   0.574   0.853  12.888  1.2623  0.1536  0.8763
  623MOL0     H84070   0.518   0.767  13.123 -1.1885  0.1233  1.0540
  623MOL0     H84071   0.228   0.747  13.247  0.0450 -1.9877 -0.0689
  623MOL0     H84072   0.386   0.689  13.251  1.6712  0.9865  0.4539
  623MOL0     H84073   0.323   0.600  13.452  2.3336  0.0918 -0.9595
  623MOL0     H84074   0.378   0.752  13.514  0.1856  1.0307 -0.6846
  623MOL0     H84075   0.080   0.731  13.448  0.7123 -2.7800  0.2855
  623MOL0     H84076   0.179   0.858  13.502 -0.9169  0.2091 -2.2181
  623MOL0     H84077   0.235   0.619  13.674  1.3121  1.1244 -0.8656
  623MOL0     H84078   0.198   0.794  13.704  1.8454 -0.5974 -1.2803
  623MOL0     H84079  -0.043   0.760  13.690 -0.6760 -0.0477 -0.7148
  623MOL0     H84080   0.014   0.654  13.814 -1.1178 -1.9018 -0.4493
  623MOL0     H84081  -0.050   0.574  13.526  0.4474 -2.8937 -0.7712
  623MOL0     H84082   0.057   0.476  13.622 -1.0419 -0.9200 -2.0811
  623MOL0     H84083  -0.240   0.575  13.656  1.0169  1.2016 -0.5903
  623MOL0     H84084  -0.172   0.504  13.792 -1.0453 -0.9938 -0.5717
  623MOL0     H84085  -0.293   0.333  13.692  0.4579 -0.8256  0.3123
  623MOL0     H84086  -0.130   0.291  13.660 -0.6636 -0.4998 -2.5116
  623MOL0     H84087   0.254   1.102  13.189  1.3758  0.1554  0.1722
  623MOL0     H84088   0.292   1.177  12.953  3.3236  0.5875 -2.1007
  623MOL0     H84089   0.665   1.094  12.661  0.1503  1.7537 -0.9930
  623MOL0     H84090   0.805   1.154  12.467  1.0542  0.3423 -0.3509
  623MOL0     H84091   1.898   1.189  11.058  1.2538 -0.1515  0.0688
  623MOL0     H84092   1.986   1.228  10.834 -0.5850 -0.6694 -0.2946
  623MOL0     H84093   1.920   0.958  10.277  1.5030 -3.7820  2.0036
  623MOL0     H84094   2.080   0.943  10.075  4.3000 -2.8108 -0.5898
  623MOL0     H84095   2.336   0.841  10.088 -2.6859 -0.1304 -2.1143
  623MOL0     H84096   2.368   0.916   9.932  2.9378  3.2892 -0.9094
  623MOL0     H84097   2.585   0.838  10.018 -1.6553 -0.9193  1.8443
  623MOL0     H84098   2.551   0.902  10.175  0.1086 -2.6359 -0.6878
  623MOL0     H84099   2.602   1.113  10.120 -0.3912 -0.2712 -0.1220
  623MOL0     H84100   2.548   1.105   9.951  0.8976  2.7859  1.2921
  623MOL0     H84101   2.791   0.994   9.916  0.3729  0.2718 -0.3095
  623MOL0     H84102   2.803   1.009  10.091  0.5031  2.6420  0.9319
  623MOL0     H84103   2.871   1.402   9.943 -3.0427 -0.4325 -4.2902
  623MOL0     H84104   2.385   1.108  10.315  0.6134 -1.4590 -0.7100
  623MOL0     H84105   2.249   1.113  10.506  2.4204 -3.2659 -0.3635
  624MOL0     O84106   5.615   5.958  10.713  0.5552  0.2903 -0.7562
  624MOL0     C84107   5.735   5.964  10.754  0.6622 -0.2796  0.5309
  624MOL0     O84108   5.810   5.857  10.803 -0.7865 -0.3388  0.0513
  624MOL0     C84109   5.789   5.725  10.788  0.0445 -0.3183 -0.6601
  624MOL0     C84110   5.869   5.647  10.875 -0.0926  0.5271 -0.0953
  624MOL0     C84111   5.860   5.510  10.879 -0.2222  0.0907 -0.5316
  624MOL0     C84112   5.778   5.444  10.782 -0.3060 -0.2587 -0.9418
  624MOL0     O84113   5.787   5.305  10.773 -0.0988  0.7817 -0.2023
  624MOL0     C84114   5.698   5.225  10.703  0.8445 -0.3589  0.6991
  624MOL0     C84115   5.726   5.087  10.740  0.4765 -0.2133  0.3038
  624MOL0     C84116   5.710   4.999  10.602 -0.1781  0.3185 -0.4489
  624MOL0     C84117   5.804   5.032  10.488 -0.3525  0.2178  0.2754
  624MOL0     C84118   5.844   4.900  10.416  0.5285  0.5170  0.7175
  624MOL0     C84119   5.733   4.846  10.328 -0.6221  0.6746 -0.1307
  624MOL0     C84120   5.779   4.756  10.225  0.0164 -0.6640  0.3785
  624MOL0     C84121   5.666   4.694  10.156  0.5562  0.0500  0.8311
  624MOL0     N84122   5.612   4.576  10.231  0.0527 -0.7313  0.2312
  624MOL0     C84123   5.540   4.472  10.180  1.1935  0.6453  0.0229
  624MOL0     C84124   5.513   4.388  10.285  0.4328 -0.1163  0.3421
  624MOL0     C84125   5.450   4.256  10.288 -0.7455 -1.0044 -0.4818
  624MOL0     C84126   5.309   4.254  10.246  0.0740  0.7709  0.1971
  624MOL0     C84127   5.239   4.111  10.263 -0.3394 -0.3931  1.0525
  624MOL0     C84128   5.088   4.115  10.233 -0.6515  0.2679 -0.1803
  624MOL0     O84129   5.033   4.161  10.356 -0.0903 -0.3347  0.1995
  624MOL0     C84130   4.898   4.137  10.375 -0.6649  0.0256  0.3094
  624MOL0     C84131   4.850   4.085  10.497 -0.3022 -0.1411 -0.1864
  624MOL0     C84132   4.712   4.082  10.518 -0.8046 -0.2351  0.3321
  624MOL0     C84133   4.669   4.020  10.657  0.2310 -0.2937  0.6586
  624MOL0     C84134   4.616   4.143  10.425 -0.3923 -0.1712  0.5760
  624MOL0     C84135   4.469   4.157  10.461 -0.1132 -0.6387 -0.3433
  624MOL0     O84136   4.401   4.234  10.378  0.4379  0.2827 -0.8939
  624MOL0     C84137   4.273   4.258  10.417 -0.8896  0.2780 -0.0632
  624MOL0     C84138   4.227   4.389  10.431  0.3428 -0.5772 -1.2535
  624MOL0     C84139   4.087   4.411  10.439 -0.4399  0.7888  0.8124
  624MOL0     C84140   3.998   4.302  10.463 -0.0438 -0.0785 -0.8029
  624MOL0     O84141   3.869   4.332  10.479 -0.4802 -0.3026  0.2914
  624MOL0     C84142   3.779   4.232  10.532 -0.0569 -0.0555  0.6501
  624MOL0     C84143   3.719   4.151  10.416 -0.1427  0.1930 -0.0993
  624MOL0     C84144   3.635   4.034  10.469  0.8677 -0.0598  0.0636
  624MOL0     C84145   3.504   4.069  10.546 -0.1931  1.1183 -0.7134
  624MOL0     C84146   3.435   3.941  10.606  0.0714 -0.8750 -0.5537
  624MOL0     C84147   3.348   3.863  10.518  0.1766  0.5576 -0.1135
  624MOL0     C84148   3.334   3.714  10.572  0.7992  0.7735 -0.2693
  624MOL0     C84149   3.226   3.686  10.675 -0.1220  0.4548 -0.2677
  624MOL0    Cl84150   3.065   3.697  10.601  0.5074  0.0504 -0.2434
  624MOL0     C84151   4.054   4.176  10.460  0.9699 -0.2579 -0.5129
  624MOL0     C84152   4.180   4.156  10.435 -0.5333 -0.5469 -0.3318
  624MOL0     O84153   4.426   4.095  10.559 -0.3104  0.1480  0.0422
  624MOL0     C84154   4.667   4.196  10.304  0.5591  0.3895  0.0924
  624MOL0     C84155   4.803   4.191  10.281 -0.5775  0.2705 -0.6363
  624MOL0     N84156   5.560   4.448  10.401 -0.1927 -0.0914  0.7407
  624MOL0     N84157   5.615   4.562  10.365  0.3564 -0.1679 -0.3721
  624MOL0     C84158   5.702   5.516  10.687 -0.0615 -0.4599 -0.8277
  624MOL0     C84159   5.704   5.656  10.695  0.3052 -0.0391 -0.1503
  624MOL0     C84160   5.806   6.100  10.758 -0.2855 -0.4524 -1.1533
  624MOL0     C84161   5.944   6.106  10.789  0.1603 -0.6166  0.0032
  624MOL0     C84162   6.020   6.222  10.779 -0.4440 -0.2069  0.2861
  624MOL0     C84163   5.959   6.338  10.741  0.4542  0.0009  0.0203
  624MOL0     O84164   6.026   6.454  10.709 -0.0213 -0.0985 -0.0640
  624MOL0     C84165   6.160   6.466  10.746 -0.9447 -0.1666  0.7544
  624MOL0     C84166   6.222   6.595  10.666 -0.4470  0.1151  0.1417
  624MOL0     C84167   6.328   6.669  10.741  0.5887 -0.4614  0.6779
  624MOL0     C84168   6.438   6.579  10.796 -0.4605 -0.7834  0.0170
  624MOL0     C84169   6.536   6.556  10.690  1.3310  0.9116  0.3959
  624MOL0     C84170   6.621   6.538  10.604  0.6520 -0.7887 -0.6284
  624MOL0     C84171   5.820   6.342  10.729  0.0990 -0.0147 -0.3322
  624MOL0     C84172   5.740   6.224  10.737  0.4111  0.5568  0.3787
  624MOL0     H84173   5.939   5.685  10.949 -0.1086 -0.0050  0.2017
  624MOL0     H84174   5.916   5.445  10.945  3.7684  3.8719  0.2489
  624MOL0     H84175   5.596   5.251  10.733 -0.7177 -3.2603 -1.6205
  624MOL0     H84176   5.696   5.241  10.595  0.6627 -0.5517  0.6737
  624MOL0     H84177   5.824   5.073  10.786 -0.0395 -2.6866  0.7917
  624MOL0     H84178   5.649   5.051  10.809  0.1270 -1.5426 -0.7353
  624MOL0     H84179   5.716   4.898  10.645 -2.2231  0.2971 -0.1493
  624MOL0     H84180   5.605   5.015  10.579 -0.2369  0.5597 -0.0274
  624MOL0     H84181   5.752   5.104  10.424  1.8248  0.4866 -1.2833
  624MOL0     H84182   5.905   5.065  10.512 -0.4705  2.7965 -2.1951
  624MOL0     H84183   5.928   4.931  10.354 -0.5098 -2.3167 -2.3953
  624MOL0     H84184   5.884   4.821  10.480 -1.2809 -3.0030 -2.1398
  624MOL0     H84185   5.664   4.795  10.395  1.3254 -0.9591  0.7572
  624MOL0     H84186   5.688   4.934  10.281  0.0522  1.9748  1.5291
  624MOL0     H84187   5.829   4.818  10.150 -1.2786  0.1401  0.1491
  624MOL0     H84188   5.854   4.690  10.268 -0.6693 -0.7869  1.4289
  624MOL0     H84189   5.703   4.641  10.067 -0.0426 -1.9508  1.7190
  624MOL0     H84190   5.598   4.771  10.118  1.4441  1.5874  2.2583
  624MOL0     H84191   5.537   4.447  10.074 -2.0978 -1.5623  0.4686
  624MOL0     H84192   5.517   4.202  10.221  2.2566  1.1540  0.5753
  624MOL0     H84193   5.461   4.218  10.390  0.0150  3.8224  1.5333
  624MOL0     H84194   5.302   4.302  10.149 -0.3076 -0.4416 -0.4047
  624MOL0     H84195   5.259   4.312  10.324 -0.5272 -1.0131  1.2207
  624MOL0     H84196   5.252   4.080  10.367  4.7482 -0.7785  0.5507
  624MOL0     H84197   5.285   4.033  10.203 -0.2016  0.8285 -0.5031
  624MOL0     H84198   5.048   4.013  10.234 -0.2971  0.0493  3.1777
  624MOL0     H84199   5.052   4.173  10.148  0.8726  0.6265 -0.6062
  624MOL0     H84200   4.910   4.047  10.579 -1.4369 -0.1884  0.6414
  624MOL0     H84201   4.748   4.004  10.731 -1.2314 -1.4354  2.0338
  624MOL0     H84202   4.609   4.095  10.708 -0.6215 -1.2496  1.0916
  624MOL0     H84203   4.604   3.934  10.641  0.0628  0.0382 -0.5561
  624MOL0     H84204   4.286   4.478  10.413 -1.4782  0.9912  0.1869
  624MOL0     H84205   4.056   4.515  10.437  0.0155  0.9216  0.0085
  624MOL0     H84206   3.827   4.178  10.614 -1.4010 -0.1385  1.4168
  624MOL0     H84207   3.695   4.280  10.584 -0.3192 -3.0196  3.3041
  624MOL0     H84208   3.650   4.215  10.360  1.1268  1.7661  0.0533
  624MOL0     H84209   3.788   4.108  10.343  0.0730 -1.6205  1.1094
  624MOL0     H84210   3.692   3.960  10.525 -2.2583 -1.7291  1.3066
  624MOL0     H84211   3.589   3.979  10.387 -1.2850 -1.2518  1.9377
  624MOL0     H84212   3.527   4.140  10.626 -0.7279 -0.0086  0.4670
  624MOL0     H84213   3.430   4.120  10.483 -1.7932 -0.4329 -0.1651
  624MOL0     H84214   3.368   3.966  10.689 -1.5159 -0.7710 -1.8279
  624MOL0     H84215   3.504   3.868  10.651 -1.4651 -1.6554  0.6803
  624MOL0     H84216   3.249   3.906  10.498 -0.4144 -1.2557 -1.4188
  624MOL0     H84217   3.396   3.858  10.419  1.9228 -0.8934  0.7640
  624MOL0     H84218   3.426   3.668  10.609  0.0528  1.4019  2.6355
  624MOL0     H84219   3.308   3.661  10.480  2.2613 -1.0374  0.2986
  624MOL0     H84220   3.232   3.757  10.758  1.4806  3.5500 -2.7977
  624MOL0     H84221   3.246   3.585  10.709 -1.0805  0.4706  0.3731
  624MOL0     H84222   3.974   4.102  10.465  1.6548 -1.1140 -1.8044
  624MOL0     H84223   4.210   4.055  10.408  1.2588  0.4773 -2.4644
  624MOL0     H84224   4.594   4.239  10.236  0.9477 -1.2628 -1.4314
  624MOL0     H84225   4.850   4.237  10.194  0.6794 -0.1763 -0.2274
  624MOL0     H84226   5.654   5.469  10.602 -0.5731 -0.0308 -0.7763
  624MOL0     H84227   5.658   5.719  10.619  0.0956 -0.7722 -0.6442
  624MOL0     H84228   5.990   6.017  10.830  1.1465  0.9904  2.6432
  624MOL0     H84229   6.127   6.217  10.799 -0.7239  0.8970  2.3543
  624MOL0     H84230   6.171   6.469  10.855 -0.7455 -4.2954  1.0076
  624MOL0     H84231   6.224   6.381  10.721  1.7399  1.4351  1.7589
  624MOL0     H84232   6.141   6.663  10.635  0.3459 -0.0459 -2.5074
  624MOL0     H84233   6.263   6.566  10.569  0.8866  1.6707  0.1956
  624MOL0     H84234   6.291   6.725  10.827  0.9855 -0.5640  0.9194
  624MOL0     H84235   6.373   6.746  10.676  2.5183  0.0031  2.4583
  624MOL0     H84236   6.404   6.478  10.823 -1.9006 -0.5178 -0.7145
  624MOL0     H84237   6.495   6.612  10.883 -2.7013 -2.6859  2.3688
  624MOL0     H84238   6.696   6.539  10.527  1.4475  0.6961  0.1122
  624MOL0     H84239   5.776   6.439  10.710 -4.6103 -1.9313 -0.6175
  624MOL0     H84240   5.635   6.227  10.710  0.2768 -1.9797  0.3627
  625MOL0     O84241   5.601   8.492   6.931 -0.4991 -1.1111 -0.1711
  625MOL0     C84242   5.568   8.403   7.012 -1.8394 -0.1481  0.1086
  625MOL0     O84243   5.643   8.366   7.120  0.5691  0.5786 -0.1594
  625MOL0     C84244   5.745   8.438   7.184 -1.2099  0.0146 -0.0202
  625MOL0     C84245   5.824   8.362   7.261 -0.6676 -0.1546 -0.0987
  625MOL0     C84246   5.923   8.423   7.332 -0.3896  0.4695  0.7199
  625MOL0     C84247   5.933   8.563   7.345 -0.0561  1.0341  0.3562
  625MOL0     O84248   6.009   8.609   7.451  1.0012 -0.2795  0.1925
  625MOL0     C84249   6.111   8.708   7.415 -0.2654  0.4436  0.2312
  625MOL0     C84250   6.177   8.779   7.542 -0.3756  0.1961  0.6443
  625MOL0     C84251   6.086   8.861   7.636 -0.1968 -0.1339  0.3488
  625MOL0     C84252   5.994   8.950   7.551  0.6434 -0.2094 -0.3811
  625MOL0     C84253   6.068   9.049   7.469  0.0685  0.1001 -1.0684
  625MOL0     C84254   5.985   9.134   7.386 -0.1155  0.8612 -0.1683
  625MOL0     C84255   6.059   9.249   7.324 -0.7864 -0.4047  0.2975
  625MOL0     C84256   6.115   9.206   7.188  0.3479  0.9608  0.0308
  625MOL0     N84257   6.022   9.168   7.080  0.1749 -0.3745  0.1216
  625MOL0     C84258   6.023   9.050   7.013 -0.8505 -0.4624  0.1145
  625MOL0     C84259   5.928   9.070   6.915  0.7210  0.5242 -0.6521
  625MOL0     C84260   5.862   8.973   6.822 -0.0571  0.4453 -0.6497
  625MOL0     C84261   5.710   8.933   6.847 -0.0904 -0.0961  0.5335
  625MOL0     C84262   5.655   8.901   6.986  0.5686 -0.3354 -0.1991
  625MOL0     C84263   5.508   8.876   6.967 -0.2367  0.3043  0.4736
  625MOL0     O84264   5.481   8.785   6.867  0.7954 -0.1095  0.5410
  625MOL0     C84265   5.359   8.725   6.852  0.3195  0.0859 -0.5072
  625MOL0     C84266   5.341   8.662   6.731  0.4777  0.2254  0.4480
  625MOL0     C84267   5.222   8.602   6.701  0.3560  0.2046 -0.4980
  625MOL0     C84268   5.210   8.530   6.573 -0.0630  0.1150 -0.0917
  625MOL0     C84269   5.113   8.608   6.795  0.1098  0.3079 -0.4644
  625MOL0     C84270   4.970   8.561   6.769  0.3234  0.4123  0.2451
  625MOL0     O84271   4.871   8.583   6.862  0.0708 -0.4065  0.2949
  625MOL0     C84272   4.745   8.535   6.844  0.6533 -0.1753 -0.3126
  625MOL0     C84273   4.665   8.539   6.715  0.3129 -0.1902 -0.3827
  625MOL0     C84274   4.536   8.481   6.711  0.4583 -0.1783 -0.1349
  625MOL0     C84275   4.467   8.439   6.823  0.8491 -0.1545  0.2013
  625MOL0     O84276   4.334   8.397   6.820  0.7192  0.2497  0.1868
  625MOL0     C84277   4.300   8.287   6.903  0.4531  0.2695 -0.1816
  625MOL0     C84278   4.186   8.214   6.825 -1.0052  0.2674  0.3268
  625MOL0     C84279   4.068   8.292   6.770  1.2459  0.1962  0.4585
  625MOL0     C84280   3.964   8.362   6.866  0.6002  0.1791  0.6999
  625MOL0     C84281   4.018   8.491   6.934  0.1315 -0.4188  0.1212
  625MOL0     C84282   3.934   8.558   7.038 -0.0439 -0.4362 -0.6887
  625MOL0     C84283   3.796   8.594   6.989 -0.6527  0.1499 -1.0770
  625MOL0     C84284   3.716   8.643   7.108  0.6493  0.8243 -0.0639
  625MOL0    Cl84285   3.556   8.709   7.057 -0.5452  0.1786  0.1537
  625MOL0     C84286   4.537   8.441   6.944 -0.5892 -0.2811  0.2895
  625MOL0     C84287   4.674   8.486   6.960  0.2641  0.4128  0.0406
  625MOL0     O84288   4.952   8.502   6.666  0.6463  0.0881  1.1694
  625MOL0     C84289   5.141   8.670   6.919 -0.0046 -0.2884 -0.3088
  625MOL0     C84290   5.263   8.723   6.947  0.1305  1.3216  0.0560
  625MOL0     N84291   5.871   9.197   6.925  0.4563  0.7402 -0.2552
  625MOL0     N84292   5.932   9.258   7.027  0.7268 -0.8216 -0.4153
  625MOL0     C84293   5.862   8.648   7.252 -0.2969 -0.7496 -0.2630
  625MOL0     C84294   5.766   8.577   7.173  0.1902  0.7917 -0.1098
  625MOL0     C84295   5.454   8.313   6.975 -0.9172 -0.2485  0.2838
  625MOL0     C84296   5.380   8.330   6.858  0.6260 -1.0859 -0.3948
  625MOL0     C84297   5.259   8.273   6.827 -1.1493 -1.0654 -1.2669
  625MOL0     C84298   5.210   8.180   6.918 -0.4939  0.0971 -0.4030
  625MOL0     O84299   5.093   8.116   6.877 -0.4565 -0.0107 -0.3498
  625MOL0     C84300   5.031   7.995   6.931  0.3426  0.7309  0.4085
  625MOL0     C84301   5.069   7.855   6.870  0.2200 -0.2416 -0.2298
  625MOL0     C84302   5.028   7.830   6.733 -0.4366 -0.3528 -0.7415
  625MOL0     C84303   5.035   7.673   6.711  0.3133 -0.9039 -0.2400
  625MOL0     C84304   5.021   7.655   6.570  0.2019  0.4786 -0.3248
  625MOL0     C84305   5.003   7.632   6.455  0.1258 -0.0888  0.3408
  625MOL0     C84306   5.279   8.158   7.041 -0.3878 -0.0415  0.4830
  625MOL0     C84307   5.400   8.221   7.065  1.2355 -0.4119 -0.7040
  625MOL0     H84308   5.828   8.254   7.269 -0.7307 -0.0418  2.3656
  625MOL0     H84309   5.996   8.353   7.371 -0.4370 -1.9649 -3.0265
  625MOL0     H84310   6.196   8.665   7.360 -0.3092  1.5510 -0.7402
  625MOL0     H84311   6.075   8.789   7.351  1.4417  0.6123 -0.5888
  625MOL0     H84312   6.231   8.704   7.601  2.4961  1.1329 -0.6104
  625MOL0     H84313   6.256   8.841   7.499  0.8130 -1.5531  0.1909
  625MOL0     H84314   6.036   8.800   7.712  1.1430 -3.4967 -1.2592
  625MOL0     H84315   6.156   8.910   7.705  2.1086 -2.1287 -0.4350
  625MOL0     H84316   5.933   8.897   7.477  0.0094  1.4965 -1.1411
  625MOL0     H84317   5.926   9.003   7.619 -0.0511  0.6012 -1.6581
  625MOL0     H84318   6.129   9.115   7.532  0.9145 -0.3779 -1.3624
  625MOL0     H84319   6.148   9.008   7.406  0.8021  0.4027 -0.3644
  625MOL0     H84320   5.941   9.062   7.316 -1.0377 -1.0883  2.2556
  625MOL0     H84321   5.909   9.182   7.447 -1.1232  2.8086 -2.7691
  625MOL0     H84322   5.982   9.326   7.313 -0.6703 -0.4950 -1.4823
  625MOL0     H84323   6.138   9.287   7.390 -2.9301  1.4555  1.9330
  625MOL0     H84324   6.167   9.109   7.192 -0.4865  0.5216  0.5427
  625MOL0     H84325   6.176   9.288   7.149  0.2081  0.3309 -1.5866
  625MOL0     H84326   6.087   8.963   7.022  0.9166  0.4036 -2.7492
  625MOL0     H84327   5.876   9.019   6.724 -1.5837  0.8610 -0.7082
  625MOL0     H84328   5.919   8.880   6.828 -0.4476  0.2984  2.0359
  625MOL0     H84329   5.694   8.845   6.784  0.5824 -0.2696  0.5963
  625MOL0     H84330   5.654   9.016   6.803 -0.6920 -1.3011 -1.0583
  625MOL0     H84331   5.680   8.983   7.054  0.5628  0.1699 -0.7980
  625MOL0     H84332   5.717   8.815   7.015  0.6277 -0.3645 -0.4140
  625MOL0     H84333   5.449   8.967   6.951 -0.1882  0.2584  0.0339
  625MOL0     H84334   5.478   8.835   7.064  2.2012 -1.5415  0.5451
  625MOL0     H84335   5.426   8.673   6.665  1.7982  1.4641  2.2900
  625MOL0     H84336   5.152   8.587   6.500 -0.2659  0.2594  0.1786
  625MOL0     H84337   5.309   8.512   6.532  0.1787 -1.1373  0.9700
  625MOL0     H84338   5.161   8.432   6.579  1.7057 -0.8128 -0.1159
  625MOL0     H84339   4.700   8.590   6.626  0.4126  0.2692 -0.0814
  625MOL0     H84340   4.481   8.466   6.619 -1.3391 -2.4602  1.2116
  625MOL0     H84341   4.382   8.217   6.921  0.0450 -0.1508  0.0615
  625MOL0     H84342   4.259   8.319   6.999 -0.6332  2.5597 -1.3398
  625MOL0     H84343   4.224   8.152   6.743 -0.8681 -1.5110  1.6713
  625MOL0     H84344   4.133   8.135   6.879  2.4235 -0.9283  2.3032
  625MOL0     H84345   4.016   8.221   6.706  0.8576  0.3000  0.6594
  625MOL0     H84346   4.117   8.373   6.716  0.4133  0.3356 -0.0996
  625MOL0     H84347   3.884   8.394   6.798  0.5909  1.0120  1.0882
  625MOL0     H84348   3.922   8.294   6.940 -0.4339  1.7607  1.6380
  625MOL0     H84349   4.028   8.564   6.853 -1.0392 -0.5355 -0.1497
  625MOL0     H84350   4.123   8.486   6.965  0.1436  1.1072  0.4017
  625MOL0     H84351   3.946   8.507   7.134  1.2687  1.4264  0.1889
  625MOL0     H84352   3.978   8.656   7.059 -0.2482 -1.0696  3.5551
  625MOL0     H84353   3.734   8.512   6.952 -2.4994  1.2108 -0.4975
  625MOL0     H84354   3.806   8.682   6.923  1.4335  1.1632  0.4691
  625MOL0     H84355   3.779   8.723   7.147  1.7114 -0.4750  1.0193
  625MOL0     H84356   3.703   8.556   7.173 -0.9611 -0.0335 -1.4354
  625MOL0     H84357   4.489   8.398   7.031  0.6178 -1.6759  0.2936
  625MOL0     H84358   4.706   8.486   7.064  1.1058  3.0926 -0.1264
  625MOL0     H84359   5.072   8.672   7.002  0.4276  2.0779  0.0519
  625MOL0     H84360   5.280   8.777   7.040  1.1302 -0.6865  1.1144
  625MOL0     H84361   5.866   8.755   7.262 -1.6814 -0.7311  0.3703
  625MOL0     H84362   5.689   8.628   7.115 -2.0764 -0.6278  1.4744
  625MOL0     H84363   5.404   8.398   6.777 -1.1009  0.7162  0.5374
  625MOL0     H84364   5.199   8.290   6.738 -0.3851  1.9185 -1.3171
  625MOL0     H84365   5.044   7.986   7.039  2.2755  1.1681  0.2589
  625MOL0     H84366   4.922   8.000   6.935  0.3049  1.1396 -0.8197
  625MOL0     H84367   5.012   7.786   6.933 -1.5734 -0.4284 -1.9786
  625MOL0     H84368   5.174   7.834   6.888 -0.4695 -2.3841  1.7461
  625MOL0     H84369   5.094   7.891   6.671  2.2472 -1.0286  1.2254
  625MOL0     H84370   4.928   7.867   6.713 -0.5380 -1.3816 -2.3249
  625MOL0     H84371   4.949   7.621   6.753 -1.7194  2.0495 -0.4696
  625MOL0     H84372   5.130   7.634   6.748  0.8648  1.2252  0.7481
  625MOL0     H84373   4.993   7.598   6.354 -2.0226 -3.2309  1.4448
  625MOL0     H84374   5.236   8.098   7.121 -1.3652  1.0153  0.7835
  625MOL0     H84375   5.435   8.209   7.167 -2.1057  0.0720  0.6126
  626MOL0     O84376   3.918  11.413   3.705 -0.6553  0.0062  0.1548
  626MOL0     C84377   3.894  11.343   3.797  0.5523  0.3383  0.0383
  626MOL0     O84378   3.855  11.208   3.797  0.0079 -0.4642  0.7789
  626MOL0     C84379   3.815  11.157   3.674  0.0171  0.7461 -0.1681
  626MOL0     C84380   3.688  11.107   3.653 -0.1044  0.2530  0.3908
  626MOL0     C84381   3.645  11.052   3.532 -0.7316 -0.0406  0.6852
  626MOL0     C84382   3.737  11.043   3.422  0.4754  0.5346 -0.2160
  626MOL0     O84383   3.713  10.968   3.310  0.5613 -0.6407  0.0024
  626MOL0     C84384   3.642  11.058   3.219 -0.2326  0.4665  1.0128
  626MOL0     C84385   3.623  11.010   3.071  0.4131 -0.1127  0.5978
  626MOL0     C84386   3.756  11.039   2.996 -0.3369  0.5540 -0.1534
  626MOL0     C84387   3.741  10.985   2.855  0.5841 -0.2531 -0.5993
  626MOL0     C84388   3.850  11.046   2.759 -0.2440  0.0850 -1.0987
  626MOL0     C84389   3.873  10.960   2.635 -0.1512  0.3446  0.5860
  626MOL0     C84390   3.931  11.043   2.526  0.0368 -0.3745  0.7778
  626MOL0     C84391   4.073  11.090   2.562  0.6266 -0.1465 -0.8176
  626MOL0     N84392   4.172  10.982   2.597 -0.0155 -0.6976 -0.3756
  626MOL0     C84393   4.238  10.900   2.509 -0.0823  1.1050 -1.0656
  626MOL0     C84394   4.300  10.811   2.587 -0.0482  0.2256  0.4885
  626MOL0     C84395   4.387  10.699   2.531 -0.0074  0.8483  0.7278
  626MOL0     C84396   4.322  10.567   2.549 -0.8591 -0.3161 -0.8304
  626MOL0     C84397   4.417  10.447   2.509 -0.1664 -0.3779 -0.3598
  626MOL0     C84398   4.464  10.361   2.630  0.4643  0.0830  0.5704
  626MOL0     O84399   4.556  10.455   2.697 -0.0227 -1.0698  0.1934
  626MOL0     C84400   4.688  10.418   2.705 -0.4566  0.4872 -0.5595
  626MOL0     C84401   4.778  10.481   2.622  0.2029 -0.0632 -0.1708
  626MOL0     C84402   4.913  10.436   2.594 -0.0769 -0.8095 -0.2515
  626MOL0     C84403   4.983  10.513   2.492  0.4390  0.1924 -1.2986
  626MOL0     C84404   4.955  10.326   2.667  0.6079  0.0227  1.2697
  626MOL0     C84405   5.096  10.272   2.650  0.0244 -0.4211  0.2700
  626MOL0     O84406   5.145  10.188   2.749 -0.8353  0.8794 -0.1780
  626MOL0     C84407   5.273  10.136   2.753  0.5927  1.1024  0.3505
  626MOL0     C84408   5.359  10.120   2.643 -0.5724 -0.1633 -0.3414
  626MOL0     C84409   5.491  10.069   2.653  0.4732  0.2614 -0.7547
  626MOL0     C84410   5.525  10.007   2.771 -0.0766 -0.0891 -0.2396
  626MOL0     O84411   5.651   9.957   2.783 -0.4869 -0.6857  0.4796
  626MOL0     C84412   5.728   9.907   2.667  0.6391 -0.1962  1.0553
  626MOL0     C84413   5.862   9.981   2.639 -0.8303 -0.2057  0.2583
  626MOL0     C84414   5.951   9.914   2.540  0.7767 -0.2547  0.6857
  626MOL0     C84415   6.018   9.789   2.602  0.5745 -0.4066 -0.7004
  626MOL0     C84416   6.109   9.706   2.502 -0.2310 -0.1408  0.6434
  626MOL0     C84417   6.109   9.560   2.526 -0.5498  0.0506 -0.8009
  626MOL0     C84418   6.214   9.478   2.449 -0.0732 -0.0365  0.4859
  626MOL0     C84419   6.205   9.331   2.486  0.2567  0.0516  0.2391
  626MOL0    Cl84420   6.202   9.318   2.666  0.2200  0.1982 -0.4816
  626MOL0     C84421   5.440  10.014   2.878  0.2507 -0.1618 -0.3954
  626MOL0     C84422   5.307  10.078   2.871  0.4062 -0.0065  0.0106
  626MOL0     O84423   5.153  10.290   2.541 -0.6382  0.1864  0.3168
  626MOL0     C84424   4.863  10.264   2.753  0.1589  0.4564 -0.1465
  626MOL0     C84425   4.730  10.308   2.779  0.6271 -0.1177 -1.1366
  626MOL0     N84426   4.276  10.835   2.723  0.0470 -0.8730  0.8823
  626MOL0     N84427   4.202  10.941   2.731  0.4556 -0.0822  0.2243
  626MOL0     C84428   3.864  11.092   3.440  0.7667 -0.1176 -0.4302
  626MOL0     C84429   3.894  11.152   3.562  0.4718 -0.4016  0.0320
  626MOL0     C84430   3.939  11.399   3.925 -1.1156  0.8847 -0.9116
  626MOL0     C84431   3.929  11.532   3.960 -0.2318 -0.1026  1.1460
  626MOL0     C84432   3.992  11.579   4.081 -0.1752  0.4763 -0.4725
  626MOL0     C84433   4.078  11.496   4.156 -0.4849 -0.8945 -0.8556
  626MOL0     O84434   4.154  11.531   4.270  0.3366  0.1389  0.3120
  626MOL0     C84435   4.127  11.657   4.335  0.8678 -0.5278 -0.4988
  626MOL0     C84436   4.254  11.697   4.407  0.3984  0.2052 -0.6102
  626MOL0     C84437   4.294  11.591   4.518  0.2149  0.6491 -0.4578
  626MOL0     C84438   4.368  11.457   4.485 -0.1208  0.4607 -0.1883
  626MOL0     C84439   4.502  11.503   4.449 -0.2450  0.1395  0.3271
  626MOL0     C84440   4.603  11.537   4.384  0.4576  0.7349  0.0035
  626MOL0     C84441   4.082  11.367   4.122 -0.8398  0.3888  0.1212
  626MOL0     C84442   4.017  11.314   4.016 -0.2726  0.1595 -0.2275
  626MOL0     H84443   3.624  11.112   3.741 -3.1464 -0.0060 -1.6611
  626MOL0     H84444   3.545  11.010   3.529  0.0499 -2.1965  2.3333
  626MOL0     H84445   3.539  11.043   3.254 -1.2997 -0.0107 -2.0341
  626MOL0     H84446   3.676  11.161   3.229 -1.6280  0.9271  1.3311
  626MOL0     H84447   3.603  10.902   3.075 -0.3659  0.0590  1.5856
  626MOL0     H84448   3.541  11.073   3.035  0.6805  0.2936  0.6942
  626MOL0     H84449   3.770  11.147   2.991  0.0942  0.5232  0.3529
  626MOL0     H84450   3.843  10.996   3.048 -0.1930 -0.8668 -1.5062
  626MOL0     H84451   3.738  10.876   2.862  1.5917 -0.1626  2.3629
  626MOL0     H84452   3.643  11.013   2.814  1.8376  4.0387 -1.2158
  626MOL0     H84453   3.811  11.144   2.730  0.5901  0.1917 -1.9319
  626MOL0     H84454   3.941  11.056   2.818 -1.4092 -2.5281  1.3590
  626MOL0     H84455   3.917  10.865   2.667 -0.5970  1.1830  4.0992
  626MOL0     H84456   3.772  10.932   2.602 -0.3819  0.6298  1.0276
  626MOL0     H84457   3.939  10.970   2.445 -1.4221 -0.5604  0.7864
  626MOL0     H84458   3.857  11.122   2.507 -0.0882 -0.6519  0.0808
  626MOL0     H84459   4.071  11.177   2.628 -1.2024  2.5352 -4.0765
  626MOL0     H84460   4.108  11.137   2.470  0.5227  0.0619 -0.7506
  626MOL0     H84461   4.230  10.894   2.401 -0.8115 -3.7712 -0.9551
  626MOL0     H84462   4.399  10.719   2.424 -1.4118  1.4530  0.6674
  626MOL0     H84463   4.485  10.699   2.580 -1.6466  2.4761  4.3856
  626MOL0     H84464   4.228  10.566   2.493 -0.8591  3.5368 -1.1698
  626MOL0     H84465   4.297  10.550   2.654 -2.0377 -2.1524 -1.3615
  626MOL0     H84466   4.500  10.496   2.458 -0.5439 -1.1243 -1.7368
  626MOL0     H84467   4.367  10.373   2.446  1.6366 -0.3815 -1.8680
  626MOL0     H84468   4.514  10.269   2.598  2.1200  1.2951 -0.4972
  626MOL0     H84469   4.390  10.339   2.708 -2.4678  0.5755 -1.8574
  626MOL0     H84470   4.740  10.553   2.551  0.3756  2.1803  1.9116
  626MOL0     H84471   5.083  10.541   2.526  0.2082  2.0261 -1.9753
  626MOL0     H84472   4.990  10.449   2.403 -0.6179  1.2800 -2.2060
  626MOL0     H84473   4.935  10.607   2.464 -1.3334 -0.0682  0.6601
  626MOL0     H84474   5.322  10.148   2.544 -1.8991  1.6882  0.6214
  626MOL0     H84475   5.549  10.085   2.562 -3.1730 -0.7311 -3.5275
  626MOL0     H84476   5.748   9.800   2.681  2.3925 -0.4225 -2.1939
  626MOL0     H84477   5.667   9.911   2.576 -0.2086 -1.5286  1.5329
  626MOL0     H84478   5.839  10.079   2.596  1.5224 -1.6270 -5.0779
  626MOL0     H84479   5.914  10.007   2.732  0.3110  2.3305 -0.9907
  626MOL0     H84480   6.031   9.978   2.501  1.1846 -2.2323 -2.0949
  626MOL0     H84481   5.891   9.874   2.458 -0.6687 -4.1345  3.3436
  626MOL0     H84482   6.077   9.830   2.685  4.1723 -2.4817 -1.9945
  626MOL0     H84483   5.936   9.734   2.649  0.8058  0.8430  1.2750
  626MOL0     H84484   6.215   9.732   2.506  0.0257 -0.3593 -2.2992
  626MOL0     H84485   6.071   9.729   2.402  4.5530  1.6638 -1.0573
  626MOL0     H84486   6.120   9.549   2.634  0.5502  0.0886 -0.8970
  626MOL0     H84487   6.007   9.520   2.520 -0.9593 -0.4872  4.8721
  626MOL0     H84488   6.314   9.514   2.474  0.6211 -0.8161 -1.0047
  626MOL0     H84489   6.202   9.502   2.343  0.4129  0.7992  0.6179
  626MOL0     H84490   6.294   9.282   2.448  0.3662 -0.6447  1.3456
  626MOL0     H84491   6.114   9.292   2.440 -0.2328 -0.4620  1.5829
  626MOL0     H84492   5.469   9.955   2.964  0.8663  0.4938 -0.1418
  626MOL0     H84493   5.233  10.081   2.950  0.8802 -0.1257  0.4625
  626MOL0     H84494   4.906  10.172   2.790 -1.3841 -0.3196 -0.2501
  626MOL0     H84495   4.654  10.251   2.831 -2.0182  1.2595 -3.2312
  626MOL0     H84496   3.947  11.096   3.370  1.0669  3.3914 -0.0509
  626MOL0     H84497   3.994  11.192   3.575  0.2931 -0.4127  1.6830
  626MOL0     H84498   3.878  11.600   3.892 -0.7456  0.2803  1.8988
  626MOL0     H84499   3.976  11.684   4.105  2.0377  0.5653  0.8435
  626MOL0     H84500   4.098  11.739   4.269 -1.5358  0.0324  1.1577
  626MOL0     H84501   4.042  11.651   4.403  0.4495 -1.8861 -1.1072
  626MOL0     H84502   4.239  11.792   4.459  0.5854  0.0402 -0.2503
  626MOL0     H84503   4.338  11.717   4.339  1.7614 -0.0357  0.9234
  626MOL0     H84504   4.202  11.557   4.567  0.1650  1.6210  0.1444
  626MOL0     H84505   4.350  11.638   4.599  0.6942 -0.3644 -0.1898
  626MOL0     H84506   4.318  11.406   4.402  0.7269  0.5301 -0.7520
  626MOL0     H84507   4.373  11.386   4.568  1.4308  2.6251  1.7152
  626MOL0     H84508   4.686  11.573   4.325 -1.8702  1.8902 -2.7967
  626MOL0     H84509   4.149  11.302   4.178  0.8586  0.9775 -1.1521
  626MOL0     H84510   4.023  11.208   3.993 -0.9674 -0.0610  0.5545
  627MOL0     O84511   5.997   8.287   5.337 -0.0503 -1.0464 -0.5107
  627MOL0     C84512   6.036   8.327   5.231  0.7272 -0.6173 -0.2192
  627MOL0     O84513   5.971   8.311   5.110 -0.5300 -0.2358 -0.2270
  627MOL0     C84514   5.853   8.252   5.110 -0.4977  0.1909  0.3329
  627MOL0     C84515   5.828   8.144   5.022  1.4507 -0.0637 -1.2064
  627MOL0     C84516   5.700   8.085   5.005 -0.7785 -0.4447 -0.3590
  627MOL0     C84517   5.586   8.131   5.077 -0.0230  0.7807  0.0456
  627MOL0     O84518   5.457   8.081   5.065  0.1363 -0.5157 -0.1714
  627MOL0     C84519   5.434   7.950   5.009 -0.5300  0.9124  0.3652
  627MOL0     C84520   5.285   7.908   5.011  0.5700  0.4525  0.6410
  627MOL0     C84521   5.200   7.970   4.900 -0.4952 -0.1986 -0.7160
  627MOL0     C84522   5.064   8.002   4.961  0.7972  0.3280  0.4115
  627MOL0     C84523   4.966   8.082   4.871  0.5222  0.9323 -0.8031
  627MOL0     C84524   5.012   8.235   4.868  0.6921 -0.5145  1.5544
  627MOL0     C84525   4.931   8.322   4.776 -0.9973 -0.4056  0.7357
  627MOL0     C84526   4.946   8.316   4.617 -1.3958  0.1337 -0.1736
  627MOL0     N84527   4.996   8.196   4.553  0.4356 -1.1201 -0.8869
  627MOL0     C84528   5.113   8.136   4.568 -0.5366  0.1857 -0.1481
  627MOL0     C84529   5.128   8.029   4.484  0.4259  0.2447  1.1143
  627MOL0     C84530   5.250   7.939   4.470 -0.6125 -0.6456 -0.1500
  627MOL0     C84531   5.382   8.003   4.506  0.0221 -0.2316  1.0582
  627MOL0     C84532   5.495   7.896   4.509 -0.2086  0.6960 -0.0145
  627MOL0     C84533   5.629   7.963   4.518  0.2382 -1.2484  0.5396
  627MOL0     O84534   5.620   8.069   4.616  0.2896 -0.0506  0.9633
  627MOL0     C84535   5.735   8.136   4.636  0.4987 -1.0207 -0.3724
  627MOL0     C84536   5.858   8.072   4.659  1.0345 -1.1156 -0.2445
  627MOL0     C84537   5.973   8.152   4.676  0.2154  0.0431  0.8788
  627MOL0     C84538   6.086   8.085   4.734 -0.2752  0.1767 -0.5627
  627MOL0     C84539   5.978   8.289   4.656  0.0711 -0.8656  0.6280
  627MOL0     C84540   6.103   8.369   4.662 -0.4157 -0.1192 -1.3667
  627MOL0     O84541   6.129   8.448   4.554 -0.5025  0.3118  0.2787
  627MOL0     C84542   6.245   8.528   4.555  0.9019  0.0862 -1.2962
  627MOL0     C84543   6.322   8.529   4.446  0.9238 -0.0731  0.8522
  627MOL0     C84544   6.442   8.593   4.444 -0.4069 -0.4880 -0.7822
  627MOL0     C84545   6.472   8.668   4.555  0.7644 -0.2797  0.9339
  627MOL0     O84546   6.588   8.739   4.549  0.6548  0.4862  0.0692
  627MOL0     C84547   6.574   8.867   4.488 -0.0128  0.0654 -1.2164
  627MOL0     C84548   6.712   8.945   4.498  0.9146  0.3965  0.5038
  627MOL0     C84549   6.766   8.956   4.646  0.0898 -0.8816  0.5619
  627MOL0     C84550   6.897   8.890   4.666 -0.1532 -0.0358  0.4859
  627MOL0     C84551   7.008   8.940   4.584 -0.7610  0.1109 -0.5193
  627MOL0     C84552   7.112   8.829   4.546  1.0593 -0.8766 -0.4714
  627MOL0     C84553   7.185   8.763   4.659 -0.3641 -0.3783 -0.6003
  627MOL0     C84554   7.331   8.812   4.676 -0.0499  0.1287 -0.2602
  627MOL0    Cl84555   7.316   8.993   4.687 -0.1560 -0.6075  0.4763
  627MOL0     C84556   6.397   8.674   4.671  0.2740 -0.1797 -0.2912
  627MOL0     C84557   6.270   8.617   4.655  0.1854 -0.5069 -0.4871
  627MOL0     O84558   6.176   8.363   4.764 -0.0952  0.8038 -0.5609
  627MOL0     C84559   5.850   8.351   4.621 -0.8256  0.3569  0.9251
  627MOL0     C84560   5.735   8.272   4.613  0.6717 -1.1283 -0.0842
  627MOL0     N84561   5.007   8.024   4.418 -0.0250  0.5431  0.5896
  627MOL0     N84562   4.935   8.127   4.454 -0.2458  0.5157 -0.3358
  627MOL0     C84563   5.610   8.239   5.168  0.3067  0.1077 -0.0965
  627MOL0     C84564   5.743   8.288   5.189 -1.2192  0.5275 -0.2599
  627MOL0     C84565   6.176   8.382   5.228  0.2340  0.1442  0.5551
  627MOL0     C84566   6.228   8.434   5.111  0.1820  0.3534 -0.1083
  627MOL0     C84567   6.339   8.504   5.120 -0.3323 -0.2240  0.9367
  627MOL0     C84568   6.419   8.532   5.239 -0.6674  0.1860  0.5766
  627MOL0     O84569   6.542   8.579   5.233 -0.4640  0.4402 -0.4988
  627MOL0     C84570   6.646   8.476   5.215 -0.1154 -0.0522 -0.1109
  627MOL0     C84571   6.738   8.525   5.103 -0.5261 -0.4943  1.2317
  627MOL0     C84572   6.853   8.623   5.155 -0.1734  0.5948 -0.2259
  627MOL0     C84573   6.929   8.681   5.047 -0.6440 -0.2381  0.2604
  627MOL0     C84574   7.026   8.783   5.096  0.0246  0.7133  0.1424
  627MOL0     C84575   7.081   8.888   5.132  1.1505  0.5479  0.0682
  627MOL0     C84576   6.360   8.473   5.353 -0.6149 -0.4084  0.0112
  627MOL0     C84577   6.234   8.407   5.352  0.1952 -0.3727 -0.2162
  627MOL0     H84578   5.896   8.124   4.941 -0.0568  1.3285 -2.9095
  627MOL0     H84579   5.691   8.013   4.925  0.3789 -2.0246  0.8587
  627MOL0     H84580   5.476   7.940   4.908 -1.1922 -1.0280  0.2603
  627MOL0     H84581   5.486   7.878   5.073  0.1015  1.0963  0.0752
  627MOL0     H84582   5.284   7.798   5.012  3.2092  0.3624  1.8157
  627MOL0     H84583   5.243   7.944   5.105 -1.2005  0.0279  0.0450
  627MOL0     H84584   5.252   8.059   4.864  1.3232 -0.1305  1.7540
  627MOL0     H84585   5.183   7.911   4.810 -0.1093 -1.5782  0.0856
  627MOL0     H84586   5.013   7.907   4.981 -0.3351  0.3195 -2.1922
  627MOL0     H84587   5.076   8.060   5.053 -0.1636  1.7449 -0.3266
  627MOL0     H84588   4.967   8.044   4.768  1.4883 -5.2949  1.0760
  627MOL0     H84589   4.869   8.074   4.919  0.7762 -2.4329 -0.5800
  627MOL0     H84590   5.004   8.276   4.969 -1.6851  2.7469  0.2388
  627MOL0     H84591   5.110   8.232   4.820 -0.9548 -1.0900 -2.1083
  627MOL0     H84592   4.824   8.308   4.796 -1.1859 -4.1444 -1.9947
  627MOL0     H84593   4.976   8.417   4.805 -1.4824  1.1806 -3.0701
  627MOL0     H84594   5.031   8.383   4.601 -0.7793 -0.3504  0.9561
  627MOL0     H84595   4.859   8.346   4.559  0.8668 -1.0843 -4.6867
  627MOL0     H84596   5.197   8.161   4.632 -1.2183  2.3319 -0.0122
  627MOL0     H84597   5.243   7.846   4.527  1.1121 -0.1957  0.8557
  627MOL0     H84598   5.255   7.899   4.368  2.4708 -2.4633  0.5900
  627MOL0     H84599   5.374   8.042   4.608 -2.7735  0.8156  0.5559
  627MOL0     H84600   5.405   8.082   4.433 -1.6758  1.0044  1.7751
  627MOL0     H84601   5.490   7.843   4.413  1.1286  1.4395 -0.5173
  627MOL0     H84602   5.473   7.829   4.592 -1.9600  3.1734  1.6649
  627MOL0     H84603   5.669   7.989   4.419 -1.7396 -0.3301 -0.0677
  627MOL0     H84604   5.688   7.878   4.554 -0.2098 -2.1032 -0.6542
  627MOL0     H84605   5.852   7.966   4.684 -1.9528 -0.7880  0.6924
  627MOL0     H84606   6.102   8.117   4.837  2.5229  2.8836 -1.6731
  627MOL0     H84607   6.080   7.976   4.731  3.5703 -0.1685 -2.2192
  627MOL0     H84608   6.182   8.098   4.682  2.5089 -0.5092  3.8445
  627MOL0     H84609   6.282   8.475   4.361  0.6660  1.3922 -0.0003
  627MOL0     H84610   6.492   8.598   4.348 -1.9393 -0.8448 -1.6146
  627MOL0     H84611   6.550   8.855   4.382 -1.6710  2.7076 -1.2514
  627MOL0     H84612   6.493   8.918   4.542  2.4449  1.0043  1.9025
  627MOL0     H84613   6.781   8.899   4.427 -1.7485 -1.2227 -1.2049
  627MOL0     H84614   6.700   9.047   4.460  1.6971 -0.3318 -1.8923
  627MOL0     H84615   6.697   8.921   4.723  0.9843  0.3994  2.0025
  627MOL0     H84616   6.775   9.061   4.676 -4.8081  1.2087 -3.7241
  627MOL0     H84617   6.926   8.885   4.772 -2.2192 -1.8571  1.0480
  627MOL0     H84618   6.887   8.783   4.645 -1.1258  0.4022 -1.5327
  627MOL0     H84619   7.047   9.015   4.653 -1.4979 -2.1269  2.5518
  627MOL0     H84620   6.966   8.986   4.494 -0.0153  1.0298 -0.4149
  627MOL0     H84621   7.055   8.754   4.491  0.8618  0.2258 -1.8147
  627MOL0     H84622   7.185   8.871   4.476 -0.3690 -0.1911 -1.6052
  627MOL0     H84623   7.179   8.654   4.665 -2.1113 -0.4988 -3.0370
  627MOL0     H84624   7.129   8.792   4.748 -0.1942  1.7157 -1.1324
  627MOL0     H84625   7.382   8.789   4.582  3.7841  0.2968  1.5731
  627MOL0     H84626   7.382   8.761   4.759 -1.7112  1.7886  1.9155
  627MOL0     H84627   6.427   8.728   4.760 -0.8162  1.6831 -1.0006
  627MOL0     H84628   6.197   8.620   4.735 -1.5824  0.2643 -2.0525
  627MOL0     H84629   5.833   8.458   4.609 -1.6932  0.3587  1.9514
  627MOL0     H84630   5.636   8.314   4.598  1.9969  2.1605 -0.5080
  627MOL0     H84631   5.531   8.255   5.240 -0.7259  0.9543 -1.3640
  627MOL0     H84632   5.755   8.356   5.272 -0.2610  2.0478 -1.5682
  627MOL0     H84633   6.174   8.422   5.018 -0.2174  0.8053  0.0598
  627MOL0     H84634   6.388   8.530   5.027 -1.5574 -1.0255  0.0385
  627MOL0     H84635   6.695   8.459   5.311 -3.0916  1.5631  1.8373
  627MOL0     H84636   6.599   8.382   5.184 -1.3522  0.5901 -0.2468
  627MOL0     H84637   6.677   8.559   5.018 -2.8171 -5.5034  0.5139
  627MOL0     H84638   6.785   8.435   5.064  0.7826  1.6552 -2.7673
  627MOL0     H84639   6.921   8.560   5.215 -1.9750 -1.0357  0.2032
  627MOL0     H84640   6.804   8.699   5.216 -0.0955 -0.6392  1.4286
  627MOL0     H84641   6.859   8.730   4.979 -0.5177  0.6559  0.7711
  627MOL0     H84642   6.980   8.595   5.002 -1.6185 -1.3323  1.1559
  627MOL0     H84643   7.143   8.973   5.154  1.8635 -0.3896  1.9160
  627MOL0     H84644   6.428   8.459   5.436  1.6410 -0.3309 -1.7132
  627MOL0     H84645   6.191   8.376   5.446 -1.7921  1.0437 -0.5984
  628MOL0     O84646   0.453   3.591  11.097  0.2578 -0.5887 -0.2571
  628MOL0     C84647   0.562   3.604  11.152  0.0613  0.1424  1.0467
  628MOL0     O84648   0.591   3.661  11.264  0.6952  0.3592 -0.0333
  628MOL0     C84649   0.489   3.707  11.343  0.4048  0.0194  0.2204
  628MOL0     C84650   0.366   3.764  11.307 -0.1714 -0.4224  0.7618
  628MOL0     C84651   0.267   3.818  11.390  0.8304  0.5513  0.0600
  628MOL0     C84652   0.294   3.803  11.527  0.2636 -0.4974  0.5547
  628MOL0     O84653   0.209   3.836  11.626  0.0680 -0.2084 -0.3799
  628MOL0     C84654   0.245   3.960  11.680  0.6856  0.4494 -0.8136
  628MOL0     C84655   0.127   4.016  11.769  0.6028  0.6304 -0.7702
  628MOL0     C84656   0.102   3.926  11.883 -1.0088  0.3857 -1.1942
  628MOL0     C84657  -0.005   3.991  11.978  0.2454 -0.3090  0.1873
  628MOL0     C84658  -0.036   3.919  12.114 -0.1285  0.0851 -0.5504
  628MOL0     C84659  -0.124   4.005  12.207  0.3085  0.1647  0.7767
  628MOL0     C84660  -0.122   3.947  12.347 -0.1461  0.4362  0.3369
  628MOL0     C84661  -0.202   3.818  12.346  0.0433 -0.2173 -0.0446
  628MOL0     N84662  -0.306   3.823  12.451  0.1577  0.3087 -0.0007
  628MOL0     C84663  -0.405   3.921  12.455  0.7230  0.1587  0.0529
  628MOL0     C84664  -0.470   3.900  12.573 -0.4295  0.5594 -0.0603
  628MOL0     C84665  -0.584   3.974  12.624  0.7974 -0.4986 -1.1190
  628MOL0     C84666  -0.702   3.880  12.670  0.6560  0.2419 -0.0934
  628MOL0     C84667  -0.824   3.960  12.725 -0.2622 -0.2898 -0.2094
  628MOL0     C84668  -0.911   3.865  12.809  0.8101 -0.3526 -0.4489
  628MOL0     O84669  -1.038   3.928  12.852  0.0418 -0.2150  0.3655
  628MOL0     C84670  -1.149   3.915  12.768  0.0860  0.0617  0.3468
  628MOL0     C84671  -1.161   3.871  12.638 -0.1505  1.0289  0.4277
  628MOL0     C84672  -1.279   3.893  12.567 -0.4500 -0.8109 -0.0872
  628MOL0     C84673  -1.284   3.855  12.417 -0.1952  0.1527  0.0639
  628MOL0     C84674  -1.394   3.940  12.627  0.1068  0.7149 -0.2092
  628MOL0     C84675  -1.528   3.947  12.563 -0.5686 -0.6368 -0.3189
  628MOL0     O84676  -1.628   3.911  12.651 -0.1982  0.0026  0.2388
  628MOL0     C84677  -1.749   3.930  12.596 -0.4387 -0.5741 -0.4044
  628MOL0     C84678  -1.805   3.829  12.516  0.5946  0.0124 -0.2377
  628MOL0     C84679  -1.941   3.839  12.473 -0.3381  0.1306 -0.2663
  628MOL0     C84680  -2.018   3.938  12.520  0.5204 -1.1882  0.5358
  628MOL0     O84681  -2.154   3.937  12.490 -0.3888  0.6176 -0.4790
  628MOL0     C84682  -2.244   3.824  12.529 -0.6963 -0.7866  0.1959
  628MOL0     C84683  -2.336   3.865  12.645 -0.0847 -0.1996  0.1381
  628MOL0     C84684  -2.423   3.749  12.692 -0.7585  0.1522  0.0553
  628MOL0     C84685  -2.530   3.800  12.773  0.0929 -0.0083 -0.2467
  628MOL0     C84686  -2.606   3.684  12.840 -0.7327  0.2632  0.0096
  628MOL0     C84687  -2.737   3.731  12.902  0.1944 -0.1347 -0.4762
  628MOL0     C84688  -2.821   3.637  12.983 -0.3493 -0.3252 -1.0542
  628MOL0     C84689  -2.858   3.503  12.906  0.0034  0.4147  0.3226
  628MOL0    Cl84690  -2.710   3.383  12.923 -0.0481 -0.0542 -0.7466
  628MOL0     C84691  -1.966   4.040  12.600  0.0726 -0.2355 -0.3397
  628MOL0     C84692  -1.833   4.035  12.638 -0.9392  0.1755  0.5632
  628MOL0     O84693  -1.539   3.971  12.442  0.2930  0.0890 -0.2339
  628MOL0     C84694  -1.382   3.989  12.759  0.0678  0.6946  0.7153
  628MOL0     C84695  -1.263   3.974  12.828 -0.7612  0.2721 -0.1944
  628MOL0     N84696  -0.413   3.783  12.629  0.6585  0.3380 -1.1926
  628MOL0     N84697  -0.310   3.746  12.565  0.7575 -0.9906 -0.1994
  628MOL0     C84698   0.417   3.752  11.572  0.0131 -1.0311 -0.4684
  628MOL0     C84699   0.515   3.714  11.479 -0.0341  0.2160  0.4627
  628MOL0     C84700   0.675   3.543  11.078  0.1778 -0.4087  0.3102
  628MOL0     C84701   0.802   3.534  11.137  0.6498  0.6776  0.0593
  628MOL0     C84702   0.905   3.469  11.068  0.0620  0.3919  0.2134
  628MOL0     C84703   0.886   3.425  10.940 -0.5869 -0.5873  0.1833
  628MOL0     O84704   0.996   3.387  10.886 -0.2195  0.1655  0.4243
  628MOL0     C84705   0.992   3.339  10.750  0.7071 -0.4431  0.1746
  628MOL0     C84706   1.108   3.241  10.726  0.4120 -0.5763 -0.5216
  628MOL0     C84707   1.118   3.138  10.832 -0.2754 -0.2882 -0.4558
  628MOL0     C84708   1.229   3.039  10.783 -0.4156 -0.8768  0.3279
  628MOL0     C84709   1.268   2.954  10.899 -0.8827  0.1625  0.0825
  628MOL0     C84710   1.311   2.892  10.995 -0.2746 -0.1817 -0.0557
  628MOL0     C84711   0.753   3.422  10.886 -1.4192 -0.0800 -0.3264
  628MOL0     C84712   0.647   3.475  10.952 -0.1658  0.3575  0.6129
  628MOL0     H84713   0.358   3.780  11.200  0.0652 -2.5787  0.3683
  628MOL0     H84714   0.176   3.867  11.357  0.5154 -0.0509  0.0093
  628MOL0     H84715   0.342   3.973  11.731  0.2689  2.5106 -0.4697
  628MOL0     H84716   0.249   4.030  11.596 -0.1792  1.4363 -0.0540
  628MOL0     H84717   0.148   4.115  11.811 -1.9978  0.3237  1.5680
  628MOL0     H84718   0.040   4.029  11.703  0.7938 -1.1306 -1.4323
  628MOL0     H84719   0.061   3.831  11.848 -2.3704  0.0739  1.0740
  628MOL0     H84720   0.194   3.910  11.940  1.0492 -2.2343 -4.7638
  628MOL0     H84721   0.021   4.096  11.995 -0.4219 -0.0392 -0.4385
  628MOL0     H84722  -0.095   3.989  11.917 -1.1332 -0.1264  2.1296
  628MOL0     H84723  -0.067   3.816  12.091  1.4718 -1.1854  2.3280
  628MOL0     H84724   0.064   3.905  12.156 -0.9691  0.7320  1.8315
  628MOL0     H84725  -0.090   4.109  12.206 -1.6923  0.8646  0.0128
  628MOL0     H84726  -0.226   4.004  12.166 -0.2195  0.0437  2.0487
  628MOL0     H84727  -0.022   3.922  12.381  0.1860 -2.2252 -2.2006
  628MOL0     H84728  -0.158   4.024  12.416  0.4356  1.7938 -0.8206
  628MOL0     H84729  -0.140   3.731  12.367 -2.0677 -1.8769 -0.3102
  628MOL0     H84730  -0.253   3.797  12.252 -1.4902  1.5745  0.3125
  628MOL0     H84731  -0.429   3.995  12.379 -1.1975  0.0783  0.5366
  628MOL0     H84732  -0.551   4.025  12.715 -3.4922 -0.1924  0.4936
  628MOL0     H84733  -0.619   4.046  12.549  0.4828  1.9212  1.1828
  628MOL0     H84734  -0.679   3.803  12.743 -1.0013  1.3766  1.7423
  628MOL0     H84735  -0.735   3.821  12.584  1.8848 -0.1309 -0.3163
  628MOL0     H84736  -0.885   3.988  12.639 -0.8895 -3.9549 -1.1436
  628MOL0     H84737  -0.784   4.048  12.777  1.4829  1.1106 -3.5943
  628MOL0     H84738  -0.854   3.864  12.902  0.7573  0.8764 -0.3929
  628MOL0     H84739  -0.925   3.772  12.753  2.1420 -0.3455 -0.8280
  628MOL0     H84740  -1.089   3.810  12.584 -2.1292  0.2732 -1.4812
  628MOL0     H84741  -1.369   3.790  12.395 -0.8096  1.0271 -0.2216
  628MOL0     H84742  -1.285   3.949  12.361 -1.2925  2.3387  3.3837
  628MOL0     H84743  -1.191   3.805  12.389  0.3400  2.3489 -2.4869
  628MOL0     H84744  -1.752   3.743  12.476 -2.5937 -2.1700 -0.1918
  628MOL0     H84745  -1.973   3.768  12.397 -2.1858  0.6552 -0.0395
  628MOL0     H84746  -2.308   3.810  12.441 -2.7721  1.5348  1.2006
  628MOL0     H84747  -2.186   3.738  12.562  2.6364  1.3652  0.3750
  628MOL0     H84748  -2.281   3.907  12.729 -2.0388  2.1866  0.3239
  628MOL0     H84749  -2.412   3.936  12.611 -2.4582 -4.1325 -3.9415
  628MOL0     H84750  -2.363   3.668  12.736 -1.0181  0.5281  1.1428
  628MOL0     H84751  -2.466   3.702  12.603  1.3357  1.6382 -1.8636
  628MOL0     H84752  -2.486   3.865  12.849 -1.3859 -1.5139  2.0442
  628MOL0     H84753  -2.596   3.870  12.721 -0.0368  1.1752  1.4173
  628MOL0     H84754  -2.530   3.657  12.913  1.2854 -1.0528 -2.3949
  628MOL0     H84755  -2.623   3.597  12.775  1.4144 -1.7318  1.9579
  628MOL0     H84756  -2.718   3.817  12.966 -4.9177  0.4360  0.7358
  628MOL0     H84757  -2.804   3.764  12.822  1.9446 -0.9882 -2.3814
  628MOL0     H84758  -2.913   3.683  13.019 -2.4238 -4.0190 -1.1775
  628MOL0     H84759  -2.761   3.615  13.072  2.6238  0.1870 -2.7842
  628MOL0     H84760  -2.890   3.522  12.804  0.9115 -1.3856 -0.3395
  628MOL0     H84761  -2.937   3.459  12.968 -0.6380  2.1340  0.7734
  628MOL0     H84762  -2.025   4.120  12.645  4.9102  1.5616  3.7837
  628MOL0     H84763  -1.808   4.111  12.711 -1.2262 -1.3788  2.3701
  628MOL0     H84764  -1.464   4.028  12.819 -1.6606 -2.6737  0.7882
  628MOL0     H84765  -1.253   4.027  12.921  1.6349 -0.4846  0.0533
  628MOL0     H84766   0.450   3.744  11.675 -0.9002  1.1831  0.0605
  628MOL0     H84767   0.611   3.682  11.517  0.0315 -0.1343  0.0129
  628MOL0     H84768   0.825   3.567  11.238  1.8880  2.0611 -0.6324
  628MOL0     H84769   1.009   3.468  11.098  0.1487  1.2091 -0.0331
  628MOL0     H84770   0.903   3.277  10.732  0.4782 -0.3485  0.9507
  628MOL0     H84771   0.991   3.417  10.673 -0.0445  1.9684  2.4929
  628MOL0     H84772   1.196   3.305  10.735 -0.2606  0.3445 -0.3337
  628MOL0     H84773   1.109   3.192  10.628 -0.0411 -1.5630 -0.0402
  628MOL0     H84774   1.023   3.084  10.837 -0.4576 -0.1647 -2.0383
  628MOL0     H84775   1.150   3.196  10.919  3.3645  1.1416 -2.5058
  628MOL0     H84776   1.309   3.099  10.739 -1.7299  2.4694  2.1298
  628MOL0     H84777   1.187   2.977  10.703  1.3773  1.4260 -2.5952
  628MOL0     H84778   1.362   2.835  11.071  0.1410  0.4444  0.1429
  628MOL0     H84779   0.738   3.397  10.781  0.5564 -5.0743  0.2975
  628MOL0     H84780   0.552   3.486  10.900  1.5516  0.3515 -2.8216
  629MOL0     O84781   8.723   9.273   7.821  0.3208 -0.1440 -0.3953
  629MOL0     C84782   8.671   9.368   7.752  0.1014  2.1140  0.2185
  629MOL0     O84783   8.538   9.388   7.737 -0.6204  0.0985  0.2345
  629MOL0     C84784   8.441   9.297   7.776  0.2442  0.2087 -0.8030
  629MOL0     C84785   8.432   9.284   7.923 -0.1399  0.2866 -0.2899
  629MOL0     C84786   8.328   9.210   7.976 -1.5668  0.3057  0.3088
  629MOL0     C84787   8.227   9.154   7.900  0.3250 -0.8026 -0.8535
  629MOL0     O84788   8.130   9.067   7.941  1.6651  0.0558  0.1913
  629MOL0     C84789   8.126   9.018   8.074 -0.1723 -0.5677 -0.0507
  629MOL0     C84790   7.992   8.953   8.094  0.1461 -1.0444 -0.1615
  629MOL0     C84791   7.982   8.821   8.009  0.9793  0.2237 -0.1643
  629MOL0     C84792   7.837   8.766   8.027  0.8365 -1.1553 -0.0867
  629MOL0     C84793   7.759   8.785   7.893 -0.0015  1.1115  0.2260
  629MOL0     C84794   7.624   8.702   7.912 -0.2578  0.4365 -0.5934
  629MOL0     C84795   7.559   8.717   7.775 -0.3910  0.2033  0.4613
  629MOL0     C84796   7.410   8.734   7.774  0.3286 -0.2615  0.0626
  629MOL0     N84797   7.349   8.675   7.655 -0.5370  0.4751  0.4846
  629MOL0     C84798   7.306   8.747   7.560  0.2397 -0.0307  0.4163
  629MOL0     C84799   7.282   8.664   7.456  0.6102 -1.0670  0.2139
  629MOL0     C84800   7.252   8.698   7.315  0.1194  0.3153  0.5363
  629MOL0     C84801   7.184   8.830   7.300  0.6596 -0.8669 -0.0990
  629MOL0     C84802   7.051   8.850   7.379 -0.3244 -0.6473  1.1307
  629MOL0     C84803   7.045   8.980   7.464 -0.0407 -0.3333 -0.1666
  629MOL0     O84804   6.917   9.010   7.521 -0.8210  0.2346 -0.2671
  629MOL0     C84805   6.822   9.041   7.427  0.1638  0.1836 -0.0247
  629MOL0     C84806   6.691   9.017   7.461  1.3767  0.0806 -0.2185
  629MOL0     C84807   6.591   9.055   7.371 -0.5500  0.8198  0.4015
  629MOL0     C84808   6.453   9.016   7.420  0.1888  0.4397 -0.0732
  629MOL0     C84809   6.618   9.122   7.253  0.0111 -0.4598  0.0829
  629MOL0     C84810   6.518   9.158   7.139 -0.3011 -0.4193  0.2691
  629MOL0     O84811   6.547   9.139   7.004 -0.9051  0.4294 -0.4393
  629MOL0     C84812   6.465   9.148   6.895 -0.7754  0.4211 -0.8236
  629MOL0     C84813   6.514   9.094   6.778 -1.6351  0.5810 -0.3083
  629MOL0     C84814   6.439   9.107   6.658 -0.0402  0.4158 -0.1786
  629MOL0     C84815   6.318   9.180   6.663  0.0191  0.7459  0.4413
  629MOL0     O84816   6.236   9.181   6.550  0.5923  0.1578  0.4658
  629MOL0     C84817   6.200   9.049   6.495  0.1297  0.3594  0.9201
  629MOL0     C84818   6.094   9.051   6.372 -0.1103 -0.7711 -0.3455
  629MOL0     C84819   5.970   9.152   6.406 -0.5046 -0.5902  0.4905
  629MOL0     C84820   5.840   9.129   6.326 -0.3770 -0.1687 -0.3815
  629MOL0     C84821   5.725   9.196   6.401  0.0431 -0.5025 -0.4624
  629MOL0     C84822   5.590   9.170   6.329 -0.4657 -0.1846 -0.1725
  629MOL0     C84823   5.537   9.028   6.336  1.0780 -0.0690  0.0222
  629MOL0     C84824   5.498   8.984   6.480  0.9260 -0.2533  0.0689
  629MOL0    Cl84825   5.379   9.104   6.554  0.5242  0.0474  0.3232
  629MOL0     C84826   6.283   9.250   6.770  0.2835  0.7494 -0.7977
  629MOL0     C84827   6.362   9.239   6.888 -0.4225 -0.4304  0.0399
  629MOL0     O84828   6.413   9.212   7.177 -0.4483 -0.4301 -0.4567
  629MOL0     C84829   6.746   9.151   7.222 -0.4696 -0.0874 -0.4283
  629MOL0     C84830   6.848   9.117   7.318 -0.2570 -0.0814 -0.0634
  629MOL0     N84831   7.311   8.535   7.500 -0.1661  0.3331  0.2837
  629MOL0     N84832   7.349   8.545   7.620 -0.0538 -0.3651 -0.5668
  629MOL0     C84833   8.227   9.183   7.762 -0.9423 -0.6038 -0.2756
  629MOL0     C84834   8.332   9.255   7.700  0.5005 -0.5713  0.2332
  629MOL0     C84835   8.762   9.447   7.671  0.4122 -0.2506 -1.3254
  629MOL0     C84836   8.706   9.547   7.581  0.4734 -0.3274  0.0976
  629MOL0     C84837   8.780   9.635   7.505 -0.5206 -0.5803  0.6193
  629MOL0     C84838   8.923   9.636   7.519  0.4854  0.1008 -0.7694
  629MOL0     O84839   9.007   9.718   7.455  0.3401 -0.8969 -0.1645
  629MOL0     C84840   8.952   9.851   7.429 -0.2168 -0.0384 -0.0162
  629MOL0     C84841   9.047   9.968   7.457  0.2150 -0.8296 -0.0739
  629MOL0     C84842   8.963  10.092   7.475 -0.2951 -0.7745 -0.4116
  629MOL0     C84843   8.893  10.079   7.622 -0.3392  0.2165 -0.5426
  629MOL0     C84844   8.996  10.123   7.727 -0.2885 -0.4908  1.1240
  629MOL0     C84845   9.069  10.140   7.824 -0.1351  0.2102 -0.3610
  629MOL0     C84846   8.980   9.543   7.603 -0.2328  0.2505 -0.5752
  629MOL0     C84847   8.902   9.447   7.674  0.2201 -0.6871  0.3023
  629MOL0     H84848   8.504   9.333   7.988  0.3302 -2.6181  1.5117
  629MOL0     H84849   8.347   9.169   8.075  1.0812 -0.7394 -0.5382
  629MOL0     H84850   8.211   8.952   8.093  0.1928  0.1960  1.0813
  629MOL0     H84851   8.133   9.094   8.153  1.8830 -0.0913 -0.6128
  629MOL0     H84852   7.980   8.930   8.200 -2.9302  2.8379  0.5792
  629MOL0     H84853   7.913   9.018   8.055 -0.3892 -2.1542 -0.9935
  629MOL0     H84854   8.015   8.847   7.908 -0.4007  0.4761 -0.5748
  629MOL0     H84855   8.053   8.742   8.034  2.2641  0.7694 -1.8528
  629MOL0     H84856   7.841   8.662   8.060 -1.3583 -1.7674 -1.5565
  629MOL0     H84857   7.775   8.816   8.102 -2.1235 -0.2714 -2.9083
  629MOL0     H84858   7.729   8.884   7.859  0.0119  1.1715  0.3881
  629MOL0     H84859   7.817   8.730   7.819  0.9040 -0.2468  1.8702
  629MOL0     H84860   7.633   8.595   7.937 -0.7843  0.6766  0.6559
  629MOL0     H84861   7.558   8.747   7.986 -1.2333 -1.0904 -0.4953
  629MOL0     H84862   7.603   8.786   7.703 -1.2261 -1.6783 -1.9879
  629MOL0     H84863   7.581   8.619   7.732 -1.1868  0.0634  0.3677
  629MOL0     H84864   7.383   8.837   7.799  2.4606  0.1721  0.8130
  629MOL0     H84865   7.380   8.666   7.854  1.0695 -0.7619 -0.0787
  629MOL0     H84866   7.299   8.855   7.571  1.0894 -0.0968  1.7870
  629MOL0     H84867   7.351   8.699   7.269 -0.1147 -1.7967 -0.1343
  629MOL0     H84868   7.193   8.620   7.266 -1.2314  2.0409 -0.7309
  629MOL0     H84869   7.169   8.856   7.194 -2.6577 -0.2064  0.4254
  629MOL0     H84870   7.257   8.901   7.338  0.1745 -1.1116  1.3464
  629MOL0     H84871   7.045   8.766   7.448 -2.2833 -0.7072  0.9395
  629MOL0     H84872   6.964   8.850   7.312  0.2985  4.5067 -0.1464
  629MOL0     H84873   7.078   9.068   7.408  0.2342 -0.0179  0.4702
  629MOL0     H84874   7.118   8.980   7.546 -1.0251 -1.6234  0.7436
  629MOL0     H84875   6.667   8.961   7.551  2.4933 -0.9976 -0.5578
  629MOL0     H84876   6.439   9.002   7.527  3.7437  1.0058  0.5842
  629MOL0     H84877   6.374   9.086   7.390 -0.5496  1.3838  3.5888
  629MOL0     H84878   6.429   8.921   7.373 -3.4822 -0.6742  3.4603
  629MOL0     H84879   6.601   9.030   6.777 -0.2946  2.3249 -1.2888
  629MOL0     H84880   6.465   9.056   6.566 -1.0736  0.5502 -0.5553
  629MOL0     H84881   6.288   9.006   6.446  1.1151  2.8178  0.4127
  629MOL0     H84882   6.160   8.975   6.566 -0.3981  0.2867  0.5564
  629MOL0     H84883   6.145   9.083   6.281  1.5221  0.1192  0.8196
  629MOL0     H84884   6.052   8.955   6.342 -1.7258  0.6825 -3.2118
  629MOL0     H84885   6.001   9.255   6.388  3.4094 -1.9869 -2.3090
  629MOL0     H84886   5.940   9.144   6.511 -1.7653  0.2416  0.2170
  629MOL0     H84887   5.852   9.172   6.226  5.2925 -2.9007 -1.3262
  629MOL0     H84888   5.830   9.021   6.313  0.5454 -0.5402  1.6333
  629MOL0     H84889   5.744   9.304   6.406  2.2846 -0.8959  1.0549
  629MOL0     H84890   5.716   9.163   6.505 -1.3770 -1.3308 -0.8213
  629MOL0     H84891   5.515   9.240   6.367  0.5357  0.9660 -0.2448
  629MOL0     H84892   5.607   9.190   6.223  0.3564  0.1487  0.0089
  629MOL0     H84893   5.610   8.950   6.312  1.1429 -0.3046  0.9452
  629MOL0     H84894   5.458   9.016   6.262 -0.5882 -0.6319  1.8191
  629MOL0     H84895   5.586   8.981   6.545  2.3691 -2.7795 -1.8372
  629MOL0     H84896   5.472   8.878   6.470  2.9452 -0.5917 -2.8200
  629MOL0     H84897   6.196   9.315   6.780 -1.8877 -2.0821 -0.0416
  629MOL0     H84898   6.338   9.309   6.968 -3.0192  1.2643 -2.0582
  629MOL0     H84899   6.757   9.212   7.133 -2.0219 -2.1983 -2.1766
  629MOL0     H84900   6.947   9.154   7.292 -0.6789  0.5236 -0.8374
  629MOL0     H84901   8.161   9.136   7.691  0.5688 -0.8351 -1.5815
  629MOL0     H84902   8.331   9.270   7.592 -1.9150 -1.5744  0.0501
  629MOL0     H84903   8.602   9.551   7.553  0.5361 -0.1997 -0.1219
  629MOL0     H84904   8.729   9.686   7.425 -4.3220 -3.2127  1.1013
  629MOL0     H84905   8.913   9.853   7.327  0.5909 -1.9626 -0.4107
  629MOL0     H84906   8.861   9.861   7.488 -0.9780 -1.1574 -0.9577
  629MOL0     H84907   9.128   9.977   7.383 -0.2211 -0.3613 -0.5016
  629MOL0     H84908   9.100   9.953   7.551 -2.2629 -1.1047  1.3444
  629MOL0     H84909   8.884  10.110   7.402 -0.6293 -1.0918 -0.1297
  629MOL0     H84910   9.024  10.183   7.478 -0.4359 -0.6246 -1.5654
  629MOL0     H84911   8.844   9.985   7.647  1.7531 -0.7981  0.0105
  629MOL0     H84912   8.809  10.147   7.636 -1.0287 -0.2635 -2.1636
  629MOL0     H84913   9.124  10.154   7.915 -1.8891 -2.0077  1.1422
  629MOL0     H84914   9.086   9.551   7.623 -0.6196  0.9369  1.4795
  629MOL0     H84915   8.961   9.376   7.731  3.8642  2.7282  1.2191
  630MOL0     O84916   1.651   5.668   5.414 -0.2250 -0.4120 -0.0472
  630MOL0     C84917   1.744   5.746   5.404 -0.4989 -0.8305 -0.0430
  630MOL0     O84918   1.730   5.878   5.368 -0.2722 -0.3191 -0.3271
  630MOL0     C84919   1.610   5.937   5.337 -0.1497 -0.1330 -0.2937
  630MOL0     C84920   1.513   5.865   5.268  0.2714 -0.0388  0.3962
  630MOL0     C84921   1.390   5.937   5.228 -0.0920  0.2946  0.6703
  630MOL0     C84922   1.373   6.070   5.247 -0.8724 -0.3755  0.5093
  630MOL0     O84923   1.265   6.144   5.206  0.4115  0.7300  0.5056
  630MOL0     C84924   1.196   6.090   5.102 -0.7856  0.4586  0.2431
  630MOL0     C84925   1.065   6.180   5.086  0.3700  0.1070 -0.8381
  630MOL0     C84926   0.964   6.162   4.962 -0.8205  0.3946 -0.1706
  630MOL0     C84927   0.846   6.262   4.951  0.6075  0.0145  0.1721
  630MOL0     C84928   0.721   6.228   5.044 -0.2731 -0.6190 -0.1653
  630MOL0     C84929   0.623   6.134   4.979 -0.1852 -0.2219  0.5728
  630MOL0     C84930   0.477   6.143   5.033 -0.1352  0.3428  0.1154
  630MOL0     C84931   0.394   6.031   4.978  0.1264  1.0245 -0.0594
  630MOL0     N84932   0.252   6.044   5.020 -0.5873  0.1184  0.1029
  630MOL0     C84933   0.212   6.089   5.136  0.7181  0.0345 -0.4343
  630MOL0     C84934   0.078   6.083   5.138  0.5450  0.7519 -0.9171
  630MOL0     C84935  -0.018   6.130   5.241  0.1048  0.6869  0.4941
  630MOL0     C84936   0.034   6.225   5.355  0.3678  0.2370  0.2846
  630MOL0     C84937   0.085   6.364   5.315  0.2507 -0.5233  0.6104
  630MOL0     C84938  -0.030   6.463   5.297 -0.9480  0.3000 -0.3521
  630MOL0     O84939  -0.112   6.471   5.415 -0.2380 -0.1430 -0.4396
  630MOL0     C84940  -0.194   6.578   5.420 -0.1928  0.3822 -0.7823
  630MOL0     C84941  -0.154   6.696   5.485  1.2145  0.1912 -0.9121
  630MOL0     C84942  -0.253   6.793   5.508  0.0726 -0.6962 -0.1725
  630MOL0     C84943  -0.207   6.912   5.591 -0.6298  0.1890  1.2687
  630MOL0     C84944  -0.385   6.783   5.445 -0.2302 -0.1533  0.9744
  630MOL0     C84945  -0.490   6.879   5.473 -0.0128  0.0765  0.1243
  630MOL0     O84946  -0.613   6.840   5.434  0.1241  0.4492  0.4655
  630MOL0     C84947  -0.715   6.914   5.481 -0.0278  0.4036 -0.2189
  630MOL0     C84948  -0.829   6.926   5.398  0.3575  0.2811  0.8872
  630MOL0     C84949  -0.946   6.983   5.446  0.0684 -0.7957 -0.0190
  630MOL0     C84950  -0.957   7.036   5.575 -0.5411  0.3282 -0.5286
  630MOL0     O84951  -1.072   7.080   5.618 -0.1313 -0.1326 -0.0576
  630MOL0     C84952  -1.078   7.148   5.743  0.0618 -0.8053 -0.6557
  630MOL0     C84953  -1.225   7.193   5.746 -0.4176 -0.3951 -0.1851
  630MOL0     C84954  -1.275   7.246   5.617 -0.9456  0.7565 -0.5579
  630MOL0     C84955  -1.376   7.349   5.623 -0.7164  0.0283 -0.7517
  630MOL0     C84956  -1.415   7.397   5.485  0.2915  0.4297  0.3102
  630MOL0     C84957  -1.519   7.510   5.485 -1.1624 -0.6413  0.2125
  630MOL0     C84958  -1.559   7.559   5.349 -0.5234 -0.4647  0.7428
  630MOL0     C84959  -1.627   7.695   5.354 -0.2139  0.1294  0.5911
  630MOL0    Cl84960  -1.811   7.697   5.385 -0.0404 -0.2076 -0.3344
  630MOL0     C84961  -0.842   7.027   5.652  0.2610 -0.3160 -0.1118
  630MOL0     C84962  -0.718   6.969   5.610  0.4640 -0.2967 -0.2679
  630MOL0     O84963  -0.456   6.995   5.497 -0.2379 -0.1078 -0.0491
  630MOL0     C84964  -0.412   6.664   5.368 -0.3693  0.6802  0.4198
  630MOL0     C84965  -0.318   6.563   5.367  0.3363  0.2567  0.3162
  630MOL0     N84966   0.041   6.018   5.020  0.0122 -0.7688  0.3562
  630MOL0     N84967   0.142   5.982   4.960 -0.2841  0.0806  0.1604
  630MOL0     C84968   1.478   6.140   5.312 -0.2025 -0.5697 -0.3763
  630MOL0     C84969   1.601   6.076   5.347  0.0804  0.0073 -0.7955
  630MOL0     C84970   1.875   5.690   5.430  0.5193 -0.1803 -0.3018
  630MOL0     C84971   1.898   5.547   5.436  0.2993 -0.5794  0.2414
  630MOL0     C84972   2.026   5.497   5.463  0.2548 -0.2915  0.3771
  630MOL0     C84973   2.131   5.592   5.477  0.2786  0.2319 -0.1028
  630MOL0     O84974   2.255   5.564   5.519 -0.5778 -0.4547  1.1360
  630MOL0     C84975   2.294   5.430   5.544 -0.3915  0.5248 -1.2608
  630MOL0     C84976   2.440   5.406   5.587 -0.0495 -0.0514 -0.0217
  630MOL0     C84977   2.474   5.492   5.711 -0.3682  0.8161  0.2008
  630MOL0     C84978   2.606   5.472   5.773  0.7138 -1.3119 -0.0488
  630MOL0     C84979   2.699   5.382   5.707  0.8351 -0.0752 -0.4845
  630MOL0     C84980   2.775   5.317   5.643 -0.1124  0.3909 -0.7749
  630MOL0     C84981   2.102   5.722   5.475 -0.1692 -0.8005 -0.2886
  630MOL0     C84982   1.978   5.776   5.461 -0.1015  0.0157  0.2274
  630MOL0     H84983   1.532   5.765   5.232  1.6890  0.5393 -0.5476
  630MOL0     H84984   1.309   5.884   5.180  1.6511  0.1992 -2.4978
  630MOL0     H84985   1.253   6.108   5.010 -0.5896  4.1689  0.9357
  630MOL0     H84986   1.156   5.989   5.111  0.8743 -0.1958  0.5168
  630MOL0     H84987   1.006   6.152   5.174  1.8864 -1.2788 -0.2279
  630MOL0     H84988   1.089   6.287   5.084 -1.6793  0.6312 -0.2917
  630MOL0     H84989   1.022   6.175   4.870  1.5939  2.5384  1.5224
  630MOL0     H84990   0.925   6.060   4.958  1.5597 -0.7064  1.6474
  630MOL0     H84991   0.885   6.362   4.972  1.0151 -0.4028  1.5211
  630MOL0     H84992   0.808   6.274   4.849 -0.7577  0.1275  0.6691
  630MOL0     H84993   0.737   6.195   5.147 -2.0569 -2.5664 -0.4596
  630MOL0     H84994   0.660   6.319   5.046  2.0396  1.1597 -2.2863
  630MOL0     H84995   0.611   6.159   4.873 -1.5550 -0.4467  0.6621
  630MOL0     H84996   0.660   6.031   4.985  1.5138  0.0133 -3.1169
  630MOL0     H84997   0.484   6.131   5.141  2.0712 -1.1285 -0.1202
  630MOL0     H84998   0.435   6.243   5.016 -2.0565 -0.3905  0.2802
  630MOL0     H84999   0.428   5.931   5.007  0.4217  0.1743 -3.0332
  630MOL0     H85000   0.397   6.028   4.869  0.7639  0.4461 -0.0308
  630MOL0     H85001   0.278   6.121   5.217  2.2722 -1.8188 -0.8789
  630MOL0     H85002  -0.109   6.165   5.191 -0.9798 -3.6049 -1.0160
  630MOL0     H85003  -0.052   6.038   5.290 -0.9804  1.1577  0.6501
  630MOL0     H85004   0.115   6.165   5.399 -0.6132 -0.1334  1.6411
  630MOL0     H85005  -0.041   6.234   5.434 -0.3171 -1.6201 -0.1008
  630MOL0     H85006   0.120   6.358   5.211 -1.5714 -0.4702 -0.0385
  630MOL0     H85007   0.159   6.411   5.380 -0.3220  1.2017  0.0627
  630MOL0     H85008  -0.087   6.442   5.206  1.4393 -4.2583 -1.0974
  630MOL0     H85009   0.011   6.564   5.286  1.5827 -0.6212 -0.2673
  630MOL0     H85010  -0.059   6.693   5.537 -0.6496  0.1491  2.7799
  630MOL0     H85011  -0.125   6.877   5.655  0.9793  2.3504  0.5007
  630MOL0     H85012  -0.170   6.996   5.531  1.1908 -0.2022  1.7804
  630MOL0     H85013  -0.293   6.940   5.654 -0.6639  1.7359  0.5824
  630MOL0     H85014  -0.835   6.870   5.305 -4.5919 -2.1313  2.2766
  630MOL0     H85015  -1.034   7.003   5.386  0.1838 -2.4579 -0.7957
  630MOL0     H85016  -1.032   7.095   5.827 -0.2793  2.8544  2.0851
  630MOL0     H85017  -1.028   7.245   5.743 -0.8638 -0.2755  1.4300
  630MOL0     H85018  -1.292   7.113   5.776 -4.0791  1.7331 -2.0201
  630MOL0     H85019  -1.232   7.282   5.810 -1.6093 -1.3066  0.9871
  630MOL0     H85020  -1.334   7.162   5.580  1.7023  0.0246 -3.6384
  630MOL0     H85021  -1.203   7.269   5.538 -0.5869 -2.6847 -1.3938
  630MOL0     H85022  -1.459   7.306   5.681 -0.0042 -3.3857 -1.9992
  630MOL0     H85023  -1.332   7.435   5.675 -0.1908 -1.0862  0.7299
  630MOL0     H85024  -1.453   7.311   5.428  1.1725  0.7098 -0.7264
  630MOL0     H85025  -1.325   7.437   5.437  0.5861  1.1804  1.4516
  630MOL0     H85026  -1.607   7.476   5.541 -1.0179 -2.5799 -0.6241
  630MOL0     H85027  -1.475   7.594   5.538 -1.0397 -1.4911  1.5019
  630MOL0     H85028  -1.633   7.493   5.303 -0.6926  1.4780 -1.9993
  630MOL0     H85029  -1.474   7.566   5.282 -2.2919  1.3265 -1.4559
  630MOL0     H85030  -1.607   7.740   5.257 -1.7444  0.2867  0.3171
  630MOL0     H85031  -1.580   7.754   5.433  2.1229 -0.7446 -0.0482
  630MOL0     H85032  -0.853   7.059   5.755 -1.5203  1.4502 -0.7743
  630MOL0     H85033  -0.638   6.982   5.682  0.9202 -0.8050 -0.6728
  630MOL0     H85034  -0.508   6.652   5.318  0.4619  0.7416 -1.2606
  630MOL0     H85035  -0.343   6.471   5.316  2.0257 -0.4133  0.6424
  630MOL0     H85036   1.456   6.243   5.337 -1.9077  0.1067 -4.1040
  630MOL0     H85037   1.683   6.136   5.388 -1.6403  3.6664 -2.2615
  630MOL0     H85038   1.809   5.486   5.424 -0.5101  1.0261 -3.6472
  630MOL0     H85039   2.038   5.390   5.475  2.7587 -0.2635 -1.0967
  630MOL0     H85040   2.233   5.388   5.624 -0.4508 -1.3450 -2.2250
  630MOL0     H85041   2.287   5.374   5.451  3.0577  2.7323 -3.0607
  630MOL0     H85042   2.505   5.437   5.505  0.8065 -3.2769 -0.7075
  630MOL0     H85043   2.461   5.301   5.611  0.2533 -0.1693 -0.7883
  630MOL0     H85044   2.390   5.475   5.777 -2.0246 -1.7829 -2.3388
  630MOL0     H85045   2.472   5.595   5.674 -0.2893 -0.0273 -2.3314
  630MOL0     H85046   2.589   5.433   5.874 -1.0067  1.1520  0.7258
  630MOL0     H85047   2.656   5.568   5.792  1.1094 -1.6201  0.5213
  630MOL0     H85048   2.848   5.263   5.587 -2.3085 -2.4042 -1.1733
  630MOL0     H85049   2.180   5.791   5.506 -2.7632  0.8941  3.1704
  630MOL0     H85050   1.965   5.883   5.453  0.2447  0.2229  2.0508
  631MOL0     O85051   2.430   4.634   9.794 -0.2753 -0.2413  0.4778
  631MOL0     C85052   2.413   4.675   9.677 -0.6731 -0.3559  0.4839
  631MOL0     O85053   2.512   4.717   9.589  0.3808 -0.4118 -0.3958
  631MOL0     C85054   2.639   4.707   9.638  0.4088 -0.6628 -0.1206
  631MOL0     C85055   2.718   4.821   9.641  0.4419  0.0332  0.0648
  631MOL0     C85056   2.862   4.807   9.668 -0.0996 -0.0109  0.0344
  631MOL0     C85057   2.920   4.681   9.685  0.7703 -0.3159 -0.0082
  631MOL0     O85058   3.052   4.672   9.723  0.2290  1.0200  0.0359
  631MOL0     C85059   3.107   4.541   9.737  0.2810  0.3278 -0.9539
  631MOL0     C85060   3.260   4.561   9.782  0.3401  0.9948 -0.2065
  631MOL0     C85061   3.331   4.662   9.702  0.7256  0.2191 -0.1884
  631MOL0     C85062   3.442   4.731   9.779 -0.5294  0.0462  0.5919
  631MOL0     C85063   3.403   4.837   9.872  0.4373  0.0121 -0.0475
  631MOL0     C85064   3.515   4.872   9.970 -0.5187 -0.2496 -0.2007
  631MOL0     C85065   3.478   4.973  10.072 -0.4074 -0.8405  0.7475
  631MOL0     C85066   3.423   4.932  10.199  0.6330  0.3480  0.5926
  631MOL0     N85067   3.286   4.880  10.173 -0.3098 -0.0219 -0.3745
  631MOL0     C85068   3.167   4.957  10.165  0.2130 -0.1007 -0.7257
  631MOL0     C85069   3.075   4.862  10.159  0.4679 -0.1733  0.5694
  631MOL0     C85070   2.937   4.892  10.179 -0.2318 -0.3985 -0.5750
  631MOL0     C85071   2.867   4.935  10.048 -0.7842 -0.0150  0.6612
  631MOL0     C85072   2.716   4.915  10.051  0.3828  0.3854  0.6277
  631MOL0     C85073   2.639   5.029  10.121 -0.6670  0.5911  0.6839
  631MOL0     O85074   2.607   5.007  10.257 -0.1780  0.5909 -0.5290
  631MOL0     C85075   2.485   4.955  10.299 -0.3747 -0.7476  0.5785
  631MOL0     C85076   2.433   4.853  10.220 -0.5298  0.4592  0.5142
  631MOL0     C85077   2.308   4.801  10.239 -0.4918 -0.1674  0.6006
  631MOL0     C85078   2.257   4.715  10.127  0.2755  0.0029 -0.0390
  631MOL0     C85079   2.229   4.841  10.349 -0.6988  0.3801  1.1735
  631MOL0     C85080   2.097   4.794  10.385  0.7295 -0.0979  0.7411
  631MOL0     O85081   2.086   4.775  10.514  0.9568  0.0712  0.4646
  631MOL0     C85082   1.969   4.735  10.570 -0.9748 -0.0069  0.4230
  631MOL0     C85083   1.926   4.601  10.574  0.1560  0.0097 -0.4409
  631MOL0     C85084   1.806   4.567  10.646  0.3414  0.2837 -0.4361
  631MOL0     C85085   1.730   4.659  10.710  0.6826 -0.2182 -0.3194
  631MOL0     O85086   1.606   4.628  10.766  0.0631  0.2985  0.3524
  631MOL0     C85087   1.610   4.521  10.860  0.3884 -0.0258 -0.8357
  631MOL0     C85088   1.664   4.561  10.994  0.0131  0.4646 -0.3542
  631MOL0     C85089   1.570   4.656  11.069  0.4799  0.5265 -0.2909
  631MOL0     C85090   1.605   4.665  11.221  0.4031  0.5130 -0.5421
  631MOL0     C85091   1.732   4.743  11.247  0.5131 -0.3528  0.3093
  631MOL0     C85092   1.760   4.774  11.393  0.8846 -0.3925  0.2157
  631MOL0     C85093   1.653   4.867  11.477 -1.5398 -0.0841  0.1291
  631MOL0     C85094   1.608   4.802  11.607 -0.8353 -0.7357 -0.4657
  631MOL0    Cl85095   1.743   4.810  11.707 -0.3482  0.7295 -0.7322
  631MOL0     C85096   1.780   4.794  10.711  0.1094 -0.9843  1.3376
  631MOL0     C85097   1.894   4.828  10.637  0.0944 -0.2864 -0.3465
  631MOL0     O85098   2.008   4.766  10.302  0.5391 -0.6554  0.3474
  631MOL0     C85099   2.286   4.940  10.427 -0.1457 -0.2410 -0.0137
  631MOL0     C85100   2.410   4.995  10.409 -0.5999  0.1251  0.3254
  631MOL0     N85101   3.131   4.742  10.147  0.7685  0.2820  0.2263
  631MOL0     N85102   3.254   4.751  10.169  0.4985 -0.2044  0.1058
  631MOL0     C85103   2.832   4.569   9.673  0.4745  0.6667 -0.2682
  631MOL0     C85104   2.695   4.586   9.661  0.8890  0.3430  0.8508
  631MOL0     C85105   2.277   4.689   9.619 -0.0520 -0.2759  0.0154
  631MOL0     C85106   2.165   4.662   9.692  0.6840 -0.1283  0.5253
  631MOL0     C85107   2.033   4.676   9.648 -0.2677  0.6346 -0.0665
  631MOL0     C85108   2.013   4.720   9.513  1.0095  0.3119  0.1417
  631MOL0     O85109   1.890   4.759   9.453  0.4925  0.4482  0.3552
  631MOL0     C85110   1.774   4.753   9.538 -0.8207  0.2422 -0.2583
  631MOL0     C85111   1.646   4.754   9.453 -0.0821 -0.6045 -0.2761
  631MOL0     C85112   1.525   4.717   9.538  0.6649  0.0439 -0.1209
  631MOL0     C85113   1.465   4.577   9.501 -0.4705 -0.3503  0.6401
  631MOL0     C85114   1.563   4.460   9.516  0.3564 -1.0002 -0.1750
  631MOL0     C85115   1.644   4.373   9.522  0.2298  0.2141 -0.0987
  631MOL0     C85116   2.126   4.749   9.432 -0.0680  0.1966  0.0593
  631MOL0     C85117   2.254   4.724   9.491  0.0822 -0.8370  0.2072
  631MOL0     H85118   2.682   4.918   9.610  1.2271 -0.5079 -2.8460
  631MOL0     H85119   2.933   4.888   9.682 -0.3362 -0.2766  3.4002
  631MOL0     H85120   3.054   4.490   9.818  3.1700 -0.1481  0.8010
  631MOL0     H85121   3.104   4.476   9.649  0.9176 -0.2759 -0.5377
  631MOL0     H85122   3.277   4.588   9.886  0.8822  2.5122 -0.6661
  631MOL0     H85123   3.311   4.467   9.758 -0.3451  0.6497 -0.3395
  631MOL0     H85124   3.367   4.608   9.614  0.1292  1.2371 -1.0755
  631MOL0     H85125   3.266   4.738   9.658 -0.7320 -2.7875 -3.7781
  631MOL0     H85126   3.499   4.653   9.829 -1.0478 -2.5553 -2.5601
  631MOL0     H85127   3.507   4.781   9.707 -2.0429  0.4483 -0.5422
  631MOL0     H85128   3.389   4.926   9.809 -2.1833  0.3728  0.9101
  631MOL0     H85129   3.306   4.827   9.921  0.8114  1.5705  1.1177
  631MOL0     H85130   3.556   4.782  10.016  1.1260  0.2286 -0.6719
  631MOL0     H85131   3.599   4.905   9.909 -0.3751 -0.2484 -0.0044
  631MOL0     H85132   3.574   5.021  10.093 -0.0829 -1.0401 -0.2377
  631MOL0     H85133   3.406   5.039  10.024 -2.5668 -1.7751  2.4829
  631MOL0     H85134   3.416   5.009  10.277  1.4334 -1.1363  2.2165
  631MOL0     H85135   3.487   4.854  10.241 -0.5980 -0.5878  0.7965
  631MOL0     H85136   3.154   5.064  10.182  0.5591 -0.1572 -0.0816
  631MOL0     H85137   2.888   4.803  10.219 -2.1509  0.0855 -1.7223
  631MOL0     H85138   2.933   4.966  10.259  0.0260  0.0370 -0.9545
  631MOL0     H85139   2.904   4.879   9.962 -2.7078 -0.4126  0.0521
  631MOL0     H85140   2.890   5.038  10.019  3.2702 -0.8866  0.2122
  631MOL0     H85141   2.706   4.817  10.100  0.9554 -0.7937 -1.5092
  631MOL0     H85142   2.683   4.906   9.947 -0.6718 -0.2687  0.9954
  631MOL0     H85143   2.545   5.052  10.069  0.7567  0.6329 -2.0378
  631MOL0     H85144   2.700   5.116  10.096 -1.2019  0.8395  0.2013
  631MOL0     H85145   2.482   4.801  10.138  1.0180 -0.9978  2.2770
  631MOL0     H85146   2.269   4.615  10.167  1.1603 -1.0114 -2.6161
  631MOL0     H85147   2.150   4.733  10.110 -0.1663 -1.6574  0.8048
  631MOL0     H85148   2.321   4.717  10.038  1.0606 -1.9748  0.4276
  631MOL0     H85149   1.985   4.524  10.525 -0.2297 -0.8349  0.3885
  631MOL0     H85150   1.757   4.471  10.636 -0.3891  0.8784 -3.2036
  631MOL0     H85151   1.512   4.476  10.870 -0.2441  1.6082  0.8885
  631MOL0     H85152   1.670   4.440  10.818 -0.7439 -1.8523  0.9346
  631MOL0     H85153   1.671   4.466  11.049 -0.8491 -1.6443 -3.6140
  631MOL0     H85154   1.761   4.605  10.968 -0.1486  0.1148 -1.6088
  631MOL0     H85155   1.472   4.608  11.062 -0.4941  1.7619  2.8677
  631MOL0     H85156   1.563   4.754  11.022 -0.2625  1.1631  1.0849
  631MOL0     H85157   1.530   4.719  11.279 -0.1785 -1.7601  0.9503
  631MOL0     H85158   1.611   4.561  11.256 -1.3736  1.3597  2.6874
  631MOL0     H85159   1.726   4.844  11.205  3.1277  0.8593  2.5264
  631MOL0     H85160   1.817   4.689  11.204  2.5589  0.4519  3.0324
  631MOL0     H85161   1.771   4.680  11.447 -2.4880  0.5609  2.8870
  631MOL0     H85162   1.858   4.823  11.402  1.1609 -0.9202  0.1422
  631MOL0     H85163   1.556   4.873  11.427 -3.2950  1.1099  3.3501
  631MOL0     H85164   1.684   4.972  11.480 -2.4901  0.3839 -3.1665
  631MOL0     H85165   1.576   4.701  11.580 -1.2007 -0.9637  0.7507
  631MOL0     H85166   1.526   4.857  11.655  1.0325 -0.3548  2.5437
  631MOL0     H85167   1.733   4.880  10.758  0.4098 -0.1521  0.1852
  631MOL0     H85168   1.922   4.933  10.630  1.4149 -0.5018  1.1374
  631MOL0     H85169   2.235   4.983  10.513  0.5060  0.2043  0.1641
  631MOL0     H85170   2.458   5.055  10.486  0.0865 -3.3992  2.8501
  631MOL0     H85171   2.861   4.465   9.674 -1.7528 -0.0550  1.6532
  631MOL0     H85172   2.640   4.494   9.673  1.4311 -0.2477 -0.8665
  631MOL0     H85173   2.177   4.617   9.790 -0.7824  1.3684  1.4423
  631MOL0     H85174   1.945   4.663   9.711  0.9659 -2.6970  1.1948
  631MOL0     H85175   1.780   4.652   9.580  0.4494  0.8328  1.0493
  631MOL0     H85176   1.776   4.831   9.615  0.9271  0.8524 -0.8716
  631MOL0     H85177   1.652   4.683   9.370  2.3922  0.0682 -0.7763
  631MOL0     H85178   1.632   4.847   9.397  0.6876 -0.6387 -0.5380
  631MOL0     H85179   1.441   4.785   9.519 -1.1234 -1.8051  0.7404
  631MOL0     H85180   1.549   4.721   9.645 -1.3606  1.9922  0.3629
  631MOL0     H85181   1.439   4.574   9.395 -4.4231 -0.8111  1.4710
  631MOL0     H85182   1.378   4.554   9.565 -2.7527 -0.6616 -2.3584
  631MOL0     H85183   1.736   4.318   9.525 -1.4021 -2.7190  2.5762
  631MOL0     H85184   2.118   4.775   9.327 -1.7947  0.6706  0.2832
  631MOL0     H85185   2.338   4.735   9.423 -0.2418  0.4115 -0.0093
  632MOL0     O85186   5.296   9.559   4.558  0.5451 -0.1162 -0.3495
  632MOL0     C85187   5.272   9.464   4.487 -0.3476 -0.0907  0.7436
  632MOL0     O85188   5.145   9.416   4.452 -0.2631 -0.5239  0.0638
  632MOL0     C85189   5.034   9.468   4.503  0.9061  0.0591 -0.2497
  632MOL0     C85190   4.921   9.445   4.430  1.2481 -0.0322 -0.5192
  632MOL0     C85191   4.792   9.485   4.481  0.4759  0.2015  0.4501
  632MOL0     C85192   4.777   9.568   4.595 -1.0162 -0.6442  0.2551
  632MOL0     O85193   4.659   9.637   4.621 -0.3292  0.4969  0.1948
  632MOL0     C85194   4.640   9.708   4.742  0.1349 -0.1357  0.3217
  632MOL0     C85195   4.492   9.705   4.774  0.2834 -0.1794  0.1787
  632MOL0     C85196   4.395   9.784   4.674  0.2436  0.2724 -0.0911
  632MOL0     C85197   4.254   9.754   4.707  0.0205  0.1134 -0.4676
  632MOL0     C85198   4.165   9.848   4.624  0.2976  0.1453  0.5826
  632MOL0     C85199   4.022   9.809   4.641 -0.3327 -0.0404 -0.6131
  632MOL0     C85200   3.927   9.932   4.634 -0.1786 -0.8348  0.0281
  632MOL0     C85201   3.962  10.062   4.712  0.5607 -0.2788  0.4444
  632MOL0     N85202   3.842  10.150   4.713 -0.6485 -0.4368  0.2488
  632MOL0     C85203   3.839  10.280   4.681 -0.0857 -0.1478 -0.1785
  632MOL0     C85204   3.735  10.336   4.745  0.2433  0.1237 -0.0250
  632MOL0     C85205   3.687  10.474   4.737  0.8606 -0.0403 -0.0531
  632MOL0     C85206   3.689  10.511   4.586 -0.9769  0.2857  0.3033
  632MOL0     C85207   3.603  10.633   4.552 -0.9218  0.4252 -0.6747
  632MOL0     C85208   3.666  10.692   4.429  0.8952  0.0539 -0.0053
  632MOL0     O85209   3.699  10.613   4.309 -0.2494 -0.3830  0.2553
  632MOL0     C85210   3.597  10.552   4.234  0.5744 -0.0892 -1.0379
  632MOL0     C85211   3.638  10.455   4.147 -1.2774  0.4343  0.5466
  632MOL0     C85212   3.546  10.386   4.066  0.1573  0.3551 -0.0652
  632MOL0     C85213   3.608  10.279   3.975  0.2395  0.6965  0.0069
  632MOL0     C85214   3.407  10.426   4.058  0.5073 -0.1554 -0.1964
  632MOL0     C85215   3.300  10.385   3.965  0.4000 -0.0359  0.0573
  632MOL0     O85216   3.199  10.475   3.940  0.4511 -1.1242  0.1134
  632MOL0     C85217   3.093  10.447   3.867  0.0165 -0.6987 -0.7248
  632MOL0     C85218   2.975  10.444   3.932 -0.1256  0.2376  0.6500
  632MOL0     C85219   2.853  10.424   3.856  0.3912 -0.1475 -1.4599
  632MOL0     C85220   2.857  10.403   3.718 -0.6495  0.6915  0.0798
  632MOL0     O85221   2.737  10.381   3.650 -0.0515  0.2385  0.7244
  632MOL0     C85222   2.745  10.279   3.552 -0.5815  0.1568  0.6260
  632MOL0     C85223   2.603  10.275   3.483  0.0689  0.5677 -0.0929
  632MOL0     C85224   2.573  10.163   3.376 -0.4372 -0.6051 -0.3534
  632MOL0     C85225   2.678  10.176   3.269  0.2814  1.3375 -0.2126
  632MOL0     C85226   2.618  10.098   3.157  0.2028  0.2846  0.9330
  632MOL0     C85227   2.701  10.094   3.027 -0.1902  0.5131  1.1399
  632MOL0     C85228   2.848  10.051   3.044  0.1920 -0.2943 -0.2653
  632MOL0     C85229   2.924  10.057   2.911 -0.3141  0.4812  0.0932
  632MOL0    Cl85230   2.846   9.949   2.775 -0.1985 -0.0761 -0.3548
  632MOL0     C85231   2.984  10.403   3.654 -0.5965 -0.0547  0.5470
  632MOL0     C85232   3.103  10.426   3.729  0.3116 -0.1953  0.1245
  632MOL0     O85233   3.315  10.272   3.917 -0.3813  0.6452  0.4329
  632MOL0     C85234   3.370  10.537   4.142  0.4583  1.3164  0.3369
  632MOL0     C85235   3.462  10.587   4.234  0.6378  0.1239  0.5970
  632MOL0     N85236   3.673  10.242   4.809  0.5906  0.4694 -0.0678
  632MOL0     N85237   3.738  10.131   4.798 -0.0368  0.4501 -0.4393
  632MOL0     C85238   4.892   9.593   4.659  1.2039 -0.3430 -0.4372
  632MOL0     C85239   5.018   9.543   4.622 -0.0863 -0.0827 -0.5146
  632MOL0     C85240   5.383   9.381   4.431 -0.2901 -0.2443  0.2279
  632MOL0     C85241   5.362   9.282   4.337 -0.1887 -0.1143  0.1229
  632MOL0     C85242   5.467   9.208   4.277 -0.7853  0.0095 -0.2969
  632MOL0     C85243   5.598   9.234   4.318 -0.8077 -0.0393 -0.0737
  632MOL0     O85244   5.703   9.147   4.281  0.2208 -0.2754 -0.2715
  632MOL0     C85245   5.721   9.094   4.153 -0.5865 -0.2544 -0.3490
  632MOL0     C85246   5.654   8.965   4.136 -0.4459  0.9888 -1.1553
  632MOL0     C85247   5.565   8.949   4.010 -0.4872 -0.6557 -0.6242
  632MOL0     C85248   5.629   8.982   3.881 -0.5573 -0.6262  0.1875
  632MOL0     C85249   5.749   8.900   3.840  0.9159 -0.5367  0.2076
  632MOL0     C85250   5.836   8.840   3.781  0.2448  0.2912 -0.0381
  632MOL0     C85251   5.615   9.324   4.417 -0.5739  0.4598 -0.6550
  632MOL0     C85252   5.514   9.402   4.471 -0.4533 -0.5456 -0.7884
  632MOL0     H85253   4.934   9.388   4.339 -0.5515  1.7766 -1.9974
  632MOL0     H85254   4.695   9.469   4.435 -0.3873 -1.0555  2.5522
  632MOL0     H85255   4.703   9.658   4.817  1.4219  0.3438 -0.4008
  632MOL0     H85256   4.673   9.811   4.726 -1.7125  0.3412 -0.6483
  632MOL0     H85257   4.461   9.600   4.784  0.3025 -0.5193 -2.5939
  632MOL0     H85258   4.470   9.747   4.872  2.6368  0.7686  0.3431
  632MOL0     H85259   4.402   9.892   4.659 -1.5074  0.2124 -1.6260
  632MOL0     H85260   4.415   9.739   4.576 -0.8763  1.1555 -0.7545
  632MOL0     H85261   4.237   9.653   4.670 -2.7341  0.8665 -1.5601
  632MOL0     H85262   4.232   9.766   4.814  3.3434  4.9714  0.0094
  632MOL0     H85263   4.197   9.950   4.645  0.2081  0.9708 -2.7508
  632MOL0     H85264   4.181   9.834   4.517  1.6936 -0.6859  0.8670
  632MOL0     H85265   3.995   9.739   4.562  1.6246  0.5373 -1.8642
  632MOL0     H85266   4.007   9.762   4.739  2.9845  0.8287  0.4552
  632MOL0     H85267   3.909   9.961   4.530 -3.7360  0.8455  0.9583
  632MOL0     H85268   3.831   9.896   4.672  0.1787 -2.3060 -0.3931
  632MOL0     H85269   4.052  10.108   4.670  0.3129  2.0162  2.2462
  632MOL0     H85270   3.992  10.026   4.811  4.4338 -2.2909 -1.2174
  632MOL0     H85271   3.918  10.325   4.621 -0.4475  0.5396 -0.1506
  632MOL0     H85272   3.580  10.474   4.762 -0.1426  0.6286 -3.7175
  632MOL0     H85273   3.741  10.537   4.808  0.8146 -1.6517  1.4794
  632MOL0     H85274   3.673  10.433   4.511  0.0890  2.7689 -2.7227
  632MOL0     H85275   3.792  10.538   4.560 -0.7948 -1.3070 -0.7514
  632MOL0     H85276   3.593  10.704   4.634  2.4861  1.5638 -1.1106
  632MOL0     H85277   3.505  10.587   4.535 -1.7575  0.7894  2.6058
  632MOL0     H85278   3.751  10.750   4.464  1.2258  0.4861 -1.4620
  632MOL0     H85279   3.605  10.777   4.397  3.6119  1.4091 -1.9882
  632MOL0     H85280   3.744  10.435   4.137 -1.3196  1.0128 -1.5828
  632MOL0     H85281   3.713  10.258   3.995 -0.7442 -4.7112  1.2597
  632MOL0     H85282   3.555  10.185   3.997  1.1538  0.9319  4.0442
  632MOL0     H85283   3.600  10.311   3.871  2.2331  4.5239  0.8409
  632MOL0     H85284   2.955  10.469   4.036  0.6771  4.0768  0.0200
  632MOL0     H85285   2.760  10.414   3.910  1.0546  2.0662  0.2386
  632MOL0     H85286   2.823  10.305   3.480 -0.7736  3.2947  1.4123
  632MOL0     H85287   2.774  10.186   3.603  0.5309  0.7547  1.1084
  632MOL0     H85288   2.525  10.255   3.557 -1.1210  2.9017 -0.6260
  632MOL0     H85289   2.579  10.373   3.440  3.0194  1.0620 -0.8897
  632MOL0     H85290   2.476  10.191   3.336  1.3355  2.4352 -3.0321
  632MOL0     H85291   2.578  10.067   3.427  3.6483  0.0211  0.8526
  632MOL0     H85292   2.697  10.280   3.241  0.4168  1.1765 -0.7447
  632MOL0     H85293   2.774  10.131   3.297 -1.0648 -0.8986  1.0998
  632MOL0     H85294   2.516  10.135   3.142 -1.0380 -2.2227  2.3635
  632MOL0     H85295   2.615   9.994   3.191 -1.2426 -0.1349 -0.3733
  632MOL0     H85296   2.650  10.042   2.946  1.4123 -1.0609  1.0852
  632MOL0     H85297   2.712  10.198   2.995 -3.0530  0.3017 -0.8230
  632MOL0     H85298   2.853   9.943   3.065  1.7547 -0.5652 -1.7870
  632MOL0     H85299   2.887  10.115   3.123 -2.9921  2.8380 -1.0100
  632MOL0     H85300   3.016  10.000   2.928 -1.5316 -0.5879  4.2638
  632MOL0     H85301   2.951  10.158   2.879 -1.3865  0.3817 -1.2167
  632MOL0     H85302   2.991  10.392   3.546 -2.0059  1.1094  0.3070
  632MOL0     H85303   3.202  10.432   3.686  1.6605 -2.4963  2.5882
  632MOL0     H85304   3.264  10.557   4.151 -0.3399 -1.8200 -0.7385
  632MOL0     H85305   3.430  10.661   4.306 -0.1818  0.8459 -0.4735
  632MOL0     H85306   4.909   9.662   4.741 -2.5501  0.9155 -0.5113
  632MOL0     H85307   5.107   9.553   4.682  0.8239  1.1880 -2.0196
  632MOL0     H85308   5.267   9.252   4.295  0.1044 -0.3943 -0.3645
  632MOL0     H85309   5.457   9.129   4.203 -0.9299 -0.2657  0.0141
  632MOL0     H85310   5.691   9.164   4.074 -1.8898 -0.9564 -0.4983
  632MOL0     H85311   5.830   9.097   4.150 -0.5050  0.1042  1.8155
  632MOL0     H85312   5.591   8.949   4.224 -1.4114  2.2972 -1.5755
  632MOL0     H85313   5.734   8.891   4.131 -1.0850  0.2943 -1.3164
  632MOL0     H85314   5.477   9.013   4.021  0.6066  1.3549 -2.7323
  632MOL0     H85315   5.523   8.848   4.010 -2.6609  0.1819 -2.0708
  632MOL0     H85316   5.668   9.084   3.875  1.6010 -1.5035 -2.0871
  632MOL0     H85317   5.552   8.972   3.803 -2.1853  2.7109  1.1394
  632MOL0     H85318   5.897   8.785   3.712 -2.5543 -1.7358 -1.0666
  632MOL0     H85319   5.721   9.334   4.440 -0.5528 -1.0877  0.0587
  632MOL0     H85320   5.540   9.473   4.549 -0.0552 -0.9987 -0.5044
  633MOL0     O85321   2.388   3.028   1.018  0.0978 -0.3517 -0.0691
  633MOL0     C85322   2.455   2.928   1.037 -0.2132  0.6996  0.2409
  633MOL0     O85323   2.447   2.847   1.146  0.2429  0.7627 -0.7905
  633MOL0     C85324   2.355   2.885   1.243  0.0911  0.4695  0.4738
  633MOL0     C85325   2.379   2.991   1.330  0.4543 -1.0171 -0.2782
  633MOL0     C85326   2.281   3.026   1.423  0.8616 -0.9046  0.0380
  633MOL0     C85327   2.162   2.939   1.439 -0.0558  0.2579  0.9195
  633MOL0     O85328   2.062   2.969   1.533 -0.3704 -0.3167 -0.5308
  633MOL0     C85329   1.950   2.883   1.548 -0.2128 -0.8426 -0.2173
  633MOL0     C85330   1.888   2.964   1.671  0.0587  0.1152 -0.0597
  633MOL0     C85331   1.776   2.873   1.725  0.0396  0.3172  1.0377
  633MOL0     C85332   1.698   2.944   1.835 -0.1540 -0.2118  0.3257
  633MOL0     C85333   1.576   2.867   1.902 -1.1450 -0.1289  0.0951
  633MOL0     C85334   1.469   2.815   1.799 -0.8821  0.3063  0.9734
  633MOL0     C85335   1.324   2.806   1.850  0.2926 -0.0930  0.3535
  633MOL0     C85336   1.217   2.768   1.740 -0.4499  0.1079  0.3575
  633MOL0     N85337   1.218   2.868   1.630  0.0700  0.0651 -0.1565
  633MOL0     C85338   1.156   2.990   1.642 -0.3168 -0.4545  0.7242
  633MOL0     C85339   1.176   3.048   1.517  0.8381 -0.0550 -0.0991
  633MOL0     C85340   1.120   3.179   1.473 -0.0811 -0.2338 -0.0175
  633MOL0     C85341   1.097   3.283   1.582  0.1879 -0.2774 -0.1363
  633MOL0     C85342   1.026   3.407   1.539 -0.9510  0.0406 -0.1677
  633MOL0     C85343   0.879   3.387   1.528 -0.3483  0.8799  0.3212
  633MOL0     O85344   0.825   3.348   1.660 -0.3504 -0.7102 -0.2606
  633MOL0     C85345   0.712   3.273   1.665 -0.4039 -0.0699 -0.1194
  633MOL0     C85346   0.662   3.260   1.797  0.0538  0.1514 -0.6365
  633MOL0     C85347   0.538   3.201   1.821 -0.1199 -0.1533 -0.0885
  633MOL0     C85348   0.498   3.212   1.967 -0.1458  0.2711 -0.1670
  633MOL0     C85349   0.456   3.147   1.715  0.2335  0.4370 -0.3915
  633MOL0     C85350   0.318   3.100   1.723 -0.3552  0.5654 -0.0397
  633MOL0     O85351   0.244   3.085   1.608  0.8057  0.3012  0.0245
  633MOL0     C85352   0.132   3.011   1.614 -0.2476  0.0472  0.9209
  633MOL0     C85353   0.126   2.895   1.546  0.6490  0.3797  0.0257
  633MOL0     C85354   0.006   2.823   1.529 -0.0434  0.4209  0.3317
  633MOL0     C85355  -0.112   2.876   1.588  0.0838  0.9460 -0.1546
  633MOL0     O85356  -0.228   2.812   1.599 -0.8136 -1.0182 -0.5554
  633MOL0     C85357  -0.250   2.704   1.514 -0.1673  0.7090  0.4689
  633MOL0     C85358  -0.395   2.682   1.487 -0.2685  0.4095 -0.5202
  633MOL0     C85359  -0.459   2.804   1.408  0.5819  0.4880 -0.3201
  633MOL0     C85360  -0.612   2.793   1.400  0.6044 -0.5043 -0.2674
  633MOL0     C85361  -0.690   2.899   1.314  0.0943  0.1745  0.5330
  633MOL0     C85362  -0.695   2.865   1.169 -0.3292  0.1377 -0.1168
  633MOL0     C85363  -0.788   2.944   1.082 -1.0082  0.2455 -0.5973
  633MOL0     C85364  -0.926   2.898   1.093  0.7000  0.0519 -1.0229
  633MOL0    Cl85365  -1.040   2.963   0.968  0.6969  0.2321  0.1980
  633MOL0     C85366  -0.105   2.995   1.659 -0.5940  0.2862 -0.0105
  633MOL0     C85367   0.015   3.064   1.669 -0.1689  0.1739 -0.9742
  633MOL0     O85368   0.282   3.050   1.828  0.5810 -0.2104 -0.0944
  633MOL0     C85369   0.507   3.161   1.585 -1.2173 -0.3664 -1.0216
  633MOL0     C85370   0.631   3.231   1.563  0.5992  1.1457 -0.3926
  633MOL0     N85371   1.236   2.956   1.440 -0.2664 -0.3475  0.3520
  633MOL0     N85372   1.265   2.851   1.503 -0.3822  0.4124 -0.1756
  633MOL0     C85373   2.148   2.832   1.347  0.5228 -0.4111  0.7151
  633MOL0     C85374   2.240   2.806   1.248  0.2239  0.0401  0.3780
  633MOL0     C85375   2.570   2.903   0.945  0.4091 -0.2890  0.2228
  633MOL0     C85376   2.561   2.958   0.814  0.8278  0.0169  0.1681
  633MOL0     C85377   2.662   2.932   0.721  0.1979  0.4558  0.0391
  633MOL0     C85378   2.754   2.821   0.743  0.5881 -0.2437 -0.1076
  633MOL0     O85379   2.825   2.779   0.633  0.4894 -0.2802 -0.0745
  633MOL0     C85380   2.963   2.730   0.647  0.5138 -0.1266  0.4507
  633MOL0     C85381   3.059   2.839   0.605 -0.5263  0.7482 -0.0252
  633MOL0     C85382   3.200   2.795   0.555 -0.3281 -0.6767 -0.2624
  633MOL0     C85383   3.287   2.921   0.544 -0.4424 -0.2688 -0.1192
  633MOL0     C85384   3.430   2.885   0.519 -0.1001 -0.6150  0.5134
  633MOL0     C85385   3.539   2.833   0.524  0.1667 -0.3646  0.4936
  633MOL0     C85386   2.771   2.780   0.881 -0.4089 -0.3762  0.3689
  633MOL0     C85387   2.674   2.808   0.980 -0.9768 -0.2958  0.4231
  633MOL0     H85388   2.473   3.045   1.320 -0.3242  0.5220  0.3804
  633MOL0     H85389   2.300   3.109   1.490 -2.5831 -0.9960  1.3417
  633MOL0     H85390   1.886   2.871   1.460  0.3401 -0.0770 -0.7421
  633MOL0     H85391   1.980   2.784   1.581 -3.0903 -2.1312 -1.0800
  633MOL0     H85392   1.962   2.975   1.751 -1.3907 -1.1655  1.5210
  633MOL0     H85393   1.850   3.063   1.647 -2.7448 -0.3196  2.1547
  633MOL0     H85394   1.710   2.836   1.645  0.5704  0.7632  0.3788
  633MOL0     H85395   1.827   2.784   1.764  0.3323  0.9936  2.2336
  633MOL0     H85396   1.780   2.958   1.906  0.3615 -0.4739 -0.2054
  633MOL0     H85397   1.657   3.034   1.790 -0.5771 -0.0446  1.0318
  633MOL0     H85398   1.605   2.786   1.970 -0.3999  0.4125  0.4426
  633MOL0     H85399   1.530   2.947   1.961  0.9730  0.7164  0.6789
  633MOL0     H85400   1.475   2.889   1.719 -3.2230  0.5810  0.9835
  633MOL0     H85401   1.495   2.719   1.753 -0.8738  0.5861  0.3817
  633MOL0     H85402   1.311   2.727   1.925 -4.3915 -0.8445 -0.9075
  633MOL0     H85403   1.295   2.901   1.896 -3.4101 -0.2791 -1.2467
  633MOL0     H85404   1.122   2.758   1.793 -0.4929 -0.8339  0.1089
  633MOL0     H85405   1.228   2.666   1.703 -0.6944 -0.7047  2.3925
  633MOL0     H85406   1.108   3.040   1.724  0.1263 -1.0434  1.3561
  633MOL0     H85407   1.178   3.224   1.392 -0.2394 -3.1710 -1.9367
  633MOL0     H85408   1.022   3.168   1.426 -0.6681  1.8728  0.5864
  633MOL0     H85409   1.201   3.308   1.604  1.0444  1.8869 -5.1964
  633MOL0     H85410   1.048   3.237   1.668  3.0303  2.5769  3.3837
  633MOL0     H85411   1.067   3.422   1.439  1.0384 -3.7812 -0.0953
  633MOL0     H85412   1.051   3.493   1.602  1.0780 -0.0876 -0.7312
  633MOL0     H85413   0.869   3.310   1.451 -1.1763  0.9845  0.3195
  633MOL0     H85414   0.829   3.480   1.502 -0.7685  0.8285  0.9326
  633MOL0     H85415   0.726   3.285   1.881 -1.0701 -0.3611  0.3892
  633MOL0     H85416   0.564   3.165   2.041  0.7995  3.0209  0.8569
  633MOL0     H85417   0.502   3.316   1.998 -1.0907 -0.2839  1.9706
  633MOL0     H85418   0.393   3.187   1.986 -1.7793  1.0262 -6.0605
  633MOL0     H85419   0.222   2.857   1.509  0.4215 -0.7800  0.5679
  633MOL0     H85420  -0.010   2.731   1.474  0.6987  0.7138 -0.4004
  633MOL0     H85421  -0.214   2.716   1.412 -0.4288  0.0715  0.2970
  633MOL0     H85422  -0.207   2.614   1.559  1.3989  0.4274 -1.4550
  633MOL0     H85423  -0.415   2.584   1.442  2.5647 -0.6994  0.4561
  633MOL0     H85424  -0.444   2.677   1.584  1.5199 -0.8385  0.3746
  633MOL0     H85425  -0.426   2.812   1.303 -0.0227 -0.7550 -0.6212
  633MOL0     H85426  -0.431   2.898   1.457 -0.1295 -0.3038  1.7088
  633MOL0     H85427  -0.648   2.692   1.376  1.5440 -0.4525 -2.0641
  633MOL0     H85428  -0.651   2.797   1.502  1.0539 -0.0091 -0.1089
  633MOL0     H85429  -0.631   2.990   1.324  2.3722 -0.8578 -2.1051
  633MOL0     H85430  -0.794   2.918   1.344  1.1141  1.4313  3.6447
  633MOL0     H85431  -0.595   2.878   1.126 -0.9644  1.1738 -1.3333
  633MOL0     H85432  -0.719   2.758   1.165 -2.8931  0.6433  0.4063
  633MOL0     H85433  -0.758   2.930   0.977  3.6614 -2.9118  0.8238
  633MOL0     H85434  -0.782   3.052   1.095 -0.9550  0.2389 -0.5636
  633MOL0     H85435  -0.968   2.929   1.189  2.1231  1.8589 -0.9473
  633MOL0     H85436  -0.925   2.789   1.078  1.6116  0.2745 -2.8333
  633MOL0     H85437  -0.199   3.033   1.698 -0.3102 -0.0656  1.0690
  633MOL0     H85438   0.011   3.161   1.717 -2.1421  0.0191 -0.7585
  633MOL0     H85439   0.455   3.131   1.495 -1.7465  0.0444 -0.8590
  633MOL0     H85440   0.663   3.259   1.464  1.9693  1.6470  0.1636
  633MOL0     H85441   2.056   2.774   1.346  2.0343 -3.1262  2.9914
  633MOL0     H85442   2.236   2.733   1.168 -0.9536  0.1777  0.2959
  633MOL0     H85443   2.485   3.027   0.779  1.3122 -0.3099 -1.6215
  633MOL0     H85444   2.662   2.972   0.621 -0.7625  0.2512 -0.0540
  633MOL0     H85445   2.994   2.683   0.741  2.7716  1.5999  0.6338
  633MOL0     H85446   2.964   2.656   0.566 -0.2881  0.2764  0.0550
  633MOL0     H85447   3.058   2.908   0.690  1.0260  3.7358 -2.2270
  633MOL0     H85448   3.011   2.891   0.521 -1.7583 -3.2231 -1.9955
  633MOL0     H85449   3.186   2.738   0.463 -5.5647 -0.9320  0.3962
  633MOL0     H85450   3.240   2.742   0.642 -2.4033  2.3145  2.7902
  633MOL0     H85451   3.277   2.980   0.635  3.5424 -0.5824  0.7432
  633MOL0     H85452   3.249   2.982   0.461  0.4316 -0.9616 -1.0689
  633MOL0     H85453   3.639   2.794   0.516  1.3515  1.7018  3.4909
  633MOL0     H85454   2.848   2.706   0.898 -0.6460 -1.4395 -2.5475
  633MOL0     H85455   2.682   2.769   1.081  2.9957 -0.7182  0.1167
  634MOL0     O85456   3.066   2.420   0.467  0.0357  0.1290  0.1211
  634MOL0     C85457   3.070   2.298   0.468  0.3971  0.0257 -0.0759
  634MOL0     O85458   3.161   2.219   0.541  0.1069 -0.1405  0.4477
  634MOL0     C85459   3.249   2.298   0.620  1.2037 -0.9025 -0.2370
  634MOL0     C85460   3.203   2.373   0.729  0.6886 -0.3561  0.4835
  634MOL0     C85461   3.299   2.435   0.806  0.6460  0.6607 -0.0781
  634MOL0     C85462   3.437   2.418   0.791  0.0593  0.8420  0.3040
  634MOL0     O85463   3.511   2.476   0.889  0.3819  0.2886 -0.2678
  634MOL0     C85464   3.641   2.536   0.843  0.3379 -0.1043 -0.6439
  634MOL0     C85465   3.724   2.574   0.967  0.8426  0.3484  1.0162
  634MOL0     C85466   3.764   2.453   1.064  1.4799  0.0664  0.7475
  634MOL0     C85467   3.862   2.370   0.981 -0.6664  0.3408 -0.5608
  634MOL0     C85468   3.949   2.275   1.070 -0.0841 -0.0976 -0.0439
  634MOL0     C85469   3.969   2.133   1.023 -0.1201  0.1643  0.3544
  634MOL0     C85470   4.023   2.031   1.124 -0.7167 -0.0156  0.0630
  634MOL0     C85471   4.156   2.050   1.185  0.4991  0.1676 -1.4954
  634MOL0     N85472   4.267   2.063   1.097 -0.1093 -0.5579  0.1408
  634MOL0     C85473   4.299   1.972   1.001 -0.0676 -0.0377 -0.0450
  634MOL0     C85474   4.398   2.038   0.928 -0.0340  0.2588 -0.4187
  634MOL0     C85475   4.452   2.007   0.796  0.1648 -0.3199  1.0149
  634MOL0     C85476   4.606   2.000   0.807 -0.6264 -0.2118  0.4328
  634MOL0     C85477   4.689   2.088   0.707 -0.6350 -0.9733 -0.4536
  634MOL0     C85478   4.837   2.087   0.749  0.6056  0.3510 -0.8451
  634MOL0     O85479   4.904   1.957   0.738 -0.2443 -0.3087  0.9518
  634MOL0     C85480   5.041   1.966   0.762 -0.1967 -0.5705  0.3983
  634MOL0     C85481   5.109   1.844   0.755 -0.0955  0.7602  0.6109
  634MOL0     C85482   5.242   1.817   0.795  0.0376  0.4872 -0.1826
  634MOL0     C85483   5.289   1.673   0.820  0.5260 -0.3555  0.1427
  634MOL0     C85484   5.328   1.928   0.827  0.2854  1.3243  0.6953
  634MOL0     C85485   5.468   1.916   0.871 -0.2666  0.9653  0.3672
  634MOL0     O85486   5.500   1.809   0.954 -0.3782  0.3041  0.4116
  634MOL0     C85487   5.615   1.796   1.024 -0.3590 -0.4051  0.6356
  634MOL0     C85488   5.692   1.687   1.010 -0.2363  0.3229  0.2290
  634MOL0     C85489   5.803   1.669   1.092 -0.6015 -0.0133  0.2977
  634MOL0     C85490   5.838   1.761   1.192  0.0746  0.0668  0.2470
  634MOL0     O85491   5.965   1.747   1.240 -0.6463 -0.2627 -0.7112
  634MOL0     C85492   5.963   1.642   1.342 -0.0176  0.2405  0.1871
  634MOL0     C85493   6.108   1.611   1.380 -0.0279 -0.2916  0.2751
  634MOL0     C85494   6.124   1.549   1.521  1.1607  0.0090 -0.9798
  634MOL0     C85495   6.042   1.427   1.570  0.3006 -0.5420 -0.5319
  634MOL0     C85496   6.092   1.389   1.717  0.6258  0.9282 -0.0745
  634MOL0     C85497   6.011   1.271   1.775 -0.5402 -0.3046 -0.0053
  634MOL0     C85498   5.993   1.153   1.681  0.0887 -0.5032  0.5886
  634MOL0     C85499   5.929   1.037   1.758  1.0756  0.0510  0.3583
  634MOL0    Cl85500   5.763   1.076   1.827 -0.2872  0.0854  0.0038
  634MOL0     C85501   5.751   1.869   1.209 -0.4189  0.4671 -0.2759
  634MOL0     C85502   5.635   1.885   1.128  0.4795 -1.2450  0.3281
  634MOL0     O85503   5.546   1.997   0.833  0.9195 -1.2260  0.3037
  634MOL0     C85504   5.260   2.050   0.839  0.6612  0.5098  0.5674
  634MOL0     C85505   5.128   2.069   0.801 -0.3581 -0.4836 -0.2148
  634MOL0     N85506   4.428   2.150   0.995  0.0785 -0.1436  1.4208
  634MOL0     N85507   4.351   2.167   1.092  0.4173 -0.8325  0.5882
  634MOL0     C85508   3.479   2.329   0.694  1.1391  0.0926  0.7792
  634MOL0     C85509   3.384   2.257   0.613  0.0712 -0.2128  0.6786
  634MOL0     C85510   2.972   2.237   0.367  0.1679  0.3304 -0.7053
  634MOL0     C85511   3.002   2.123   0.298  0.1415 -0.0173  0.6531
  634MOL0     C85512   2.928   2.090   0.181 -0.0566  0.0299 -0.3584
  634MOL0     C85513   2.808   2.148   0.147  0.0699  0.1743  0.7298
  634MOL0     O85514   2.751   2.114   0.030 -0.1913  0.6867  0.6354
  634MOL0     C85515   2.607   2.124   0.015  0.2280  0.4255 -0.2601
  634MOL0     C85516   2.514   2.018   0.092  0.4900 -0.3208  0.2632
  634MOL0     C85517   2.545   1.864   0.069  0.1707  0.1950 -0.6225
  634MOL0     C85518   2.519   1.826  -0.079 -0.1416 -1.0209  0.0969
  634MOL0     C85519   2.374   1.833  -0.105 -1.5325 -0.0323 -0.1649
  634MOL0     C85520   2.260   1.824  -0.110  0.6744  0.1962  0.0905
  634MOL0     C85521   2.764   2.240   0.244 -0.2101 -0.1795  0.3264
  634MOL0     C85522   2.844   2.283   0.349  0.3075  0.1593  0.0896
  634MOL0     H85523   3.096   2.387   0.744  0.9399  0.3570  1.7184
  634MOL0     H85524   3.265   2.490   0.894  2.2674 -2.3690  2.6658
  634MOL0     H85525   3.699   2.473   0.775  1.1960  1.2278 -1.1905
  634MOL0     H85526   3.628   2.633   0.794  3.1835  2.6482  3.4097
  634MOL0     H85527   3.808   2.627   0.921  0.1121 -0.1145 -0.9535
  634MOL0     H85528   3.669   2.647   1.028 -1.2860  0.2779 -0.7120
  634MOL0     H85529   3.812   2.487   1.157  0.4558  0.9963  0.9534
  634MOL0     H85530   3.678   2.393   1.092  1.0978  0.4842  0.4921
  634MOL0     H85531   3.804   2.311   0.909 -0.9046  1.1877 -1.0728
  634MOL0     H85532   3.923   2.439   0.922 -1.8019  1.3518 -0.5907
  634MOL0     H85533   4.037   2.335   1.091  1.7846 -2.1205 -1.6799
  634MOL0     H85534   3.892   2.260   1.162 -0.6907 -0.8167 -0.5172
  634MOL0     H85535   3.878   2.088   0.982  0.8326  0.3342 -2.0927
  634MOL0     H85536   4.030   2.131   0.932 -3.7891 -4.3094 -2.4575
  634MOL0     H85537   3.959   2.030   1.212 -1.5411 -0.2508 -0.5310
  634MOL0     H85538   4.023   1.930   1.083 -2.4637  0.8584 -2.3561
  634MOL0     H85539   4.167   1.964   1.253  0.1321  2.3749  1.5869
  634MOL0     H85540   4.153   2.136   1.252 -2.0194 -1.1023  0.1929
  634MOL0     H85541   4.264   1.875   0.965  0.3691 -0.3581  0.3805
  634MOL0     H85542   4.425   1.903   0.772  0.6272 -0.1979 -0.0556
  634MOL0     H85543   4.413   2.082   0.727  0.5686 -1.4024 -0.4402
  634MOL0     H85544   4.635   1.895   0.797 -0.0068  0.0761 -1.0637
  634MOL0     H85545   4.644   2.024   0.907  1.2609 -3.8341  0.7791
  634MOL0     H85546   4.658   2.192   0.695  3.4134  0.1738 -2.9254
  634MOL0     H85547   4.694   2.053   0.603 -0.6454  1.0618 -1.1750
  634MOL0     H85548   4.833   2.124   0.852 -0.8242 -0.9631 -0.3791
  634MOL0     H85549   4.891   2.158   0.685  4.0169 -0.4806  0.8670
  634MOL0     H85550   5.051   1.755   0.733 -0.0240  0.6193  0.9936
  634MOL0     H85551   5.242   1.613   0.741 -1.1054  1.8988 -0.7066
  634MOL0     H85552   5.396   1.661   0.801  0.9845  2.4824  0.5080
  634MOL0     H85553   5.246   1.628   0.910  1.2367 -2.2755 -0.4152
  634MOL0     H85554   5.663   1.612   0.937  1.0944  0.7417 -0.7563
  634MOL0     H85555   5.869   1.585   1.074  2.5902  2.7023 -1.7483
  634MOL0     H85556   5.912   1.674   1.434  0.2900 -1.6139  1.0357
  634MOL0     H85557   5.910   1.552   1.310  0.0951  0.3373 -0.2863
  634MOL0     H85558   6.141   1.538   1.305 -0.1320 -0.5278  0.4578
  634MOL0     H85559   6.174   1.698   1.378 -0.7438  0.2564 -0.0374
  634MOL0     H85560   6.093   1.632   1.586 -0.3892 -1.9937  0.9780
  634MOL0     H85561   6.231   1.537   1.535  1.2418  2.2665  0.8986
  634MOL0     H85562   5.934   1.445   1.567  0.1762 -0.5059  2.0439
  634MOL0     H85563   6.053   1.350   1.493 -1.5599 -2.5982  1.1359
  634MOL0     H85564   6.083   1.475   1.784  1.8510  0.6234  0.5045
  634MOL0     H85565   6.197   1.359   1.712  0.4448  0.1849  0.4736
  634MOL0     H85566   6.066   1.244   1.866 -0.0495 -2.5279 -0.8965
  634MOL0     H85567   5.912   1.308   1.805 -0.5507 -1.3867  1.4123
  634MOL0     H85568   6.092   1.126   1.644  0.3209  0.7006  0.2728
  634MOL0     H85569   5.936   1.179   1.591 -1.4570  0.3760  1.7645
  634MOL0     H85570   6.003   0.998   1.828  3.1357  1.8551 -0.6698
  634MOL0     H85571   5.919   0.949   1.694  0.5497  1.0952 -1.0450
  634MOL0     H85572   5.775   1.939   1.288 -0.7395  0.7946 -0.4628
  634MOL0     H85573   5.571   1.969   1.150  1.7808 -0.4272  1.1075
  634MOL0     H85574   5.316   2.135   0.877  1.4667 -1.4100  4.1428
  634MOL0     H85575   5.100   2.174   0.807  0.5397 -0.2428 -0.1268
  634MOL0     H85576   3.582   2.318   0.663  1.4527  1.7771  1.1299
  634MOL0     H85577   3.421   2.196   0.531  4.1324  3.5733 -0.6670
  634MOL0     H85578   3.092   2.066   0.318  1.4406  2.4632  2.2896
  634MOL0     H85579   2.955   2.016   0.106  1.0343  2.3568 -2.3831
  634MOL0     H85580   2.563   2.221   0.042 -0.9355 -0.5380  1.5217
  634MOL0     H85581   2.585   2.122  -0.092 -1.7217  0.6601  0.0901
  634MOL0     H85582   2.409   2.034   0.065 -0.4025  0.3092  3.6780
  634MOL0     H85583   2.527   2.053   0.195  1.3318  0.1709  0.0033
  634MOL0     H85584   2.497   1.798   0.142  0.3310  0.6416 -0.1096
  634MOL0     H85585   2.652   1.850   0.080  0.3215  0.4161 -1.6589
  634MOL0     H85586   2.568   1.729  -0.095  0.3145 -0.4519 -2.3190
  634MOL0     H85587   2.559   1.902  -0.146  1.9085  0.0495  2.3464
  634MOL0     H85588   2.153   1.827  -0.107  0.6629  0.0963 -0.2445
  634MOL0     H85589   2.672   2.294   0.225 -1.0036 -1.0827  1.4647
  634MOL0     H85590   2.806   2.362   0.413  4.1479  3.0931 -0.8464
  635MOL0     O85591   7.842   7.484   7.119  0.6518  0.3570 -0.2415
  635MOL0     C85592   7.785   7.536   7.211 -0.4242  0.1341 -1.3067
  635MOL0     O85593   7.659   7.588   7.211  0.2984 -0.0635 -0.1293
  635MOL0     C85594   7.574   7.575   7.102 -1.2391  0.4587 -0.6137
  635MOL0     C85595   7.555   7.453   7.033 -0.0540  0.4101  0.1636
  635MOL0     C85596   7.459   7.444   6.931  0.1883 -0.4853 -0.3945
  635MOL0     C85597   7.401   7.561   6.882 -0.5006 -0.4400  0.3410
  635MOL0     O85598   7.308   7.541   6.777  0.0673  0.2690 -0.0521
  635MOL0     C85599   7.284   7.648   6.684 -0.4846 -0.5060  0.6326
  635MOL0     C85600   7.160   7.614   6.603  1.0733 -0.1695 -0.6983
  635MOL0     C85601   7.189   7.510   6.492 -0.6872  0.7169  0.4250
  635MOL0     C85602   7.064   7.422   6.470  0.6046  0.4978 -0.5017
  635MOL0     C85603   7.093   7.302   6.378 -0.2231 -1.4790  0.5872
  635MOL0     C85604   7.043   7.174   6.432  0.3065  0.6998 -0.6785
  635MOL0     C85605   6.890   7.161   6.424  0.6352  0.2718  0.0475
  635MOL0     C85606   6.822   7.059   6.518 -0.4883  0.1764 -0.2254
  635MOL0     N85607   6.676   7.045   6.498  0.1060  0.2107 -0.3989
  635MOL0     C85608   6.619   6.972   6.398  0.0120 -0.0179 -0.6045
  635MOL0     C85609   6.481   6.986   6.408 -0.2098  0.5255  0.3057
  635MOL0     C85610   6.377   6.931   6.307  0.3110 -0.0171 -0.6748
  635MOL0     C85611   6.262   7.030   6.293 -0.1863 -0.1231 -0.9480
  635MOL0     C85612   6.157   6.980   6.182 -0.3568 -0.2533  0.0377
  635MOL0     C85613   6.110   6.835   6.196  0.7010 -0.5732 -0.4739
  635MOL0     O85614   6.201   6.729   6.174  0.3779 -0.0221  0.4113
  635MOL0     C85615   6.189   6.657   6.059  0.8263 -0.6153 -0.6881
  635MOL0     C85616   6.310   6.615   6.001  0.0945  0.0733  0.7043
  635MOL0     C85617   6.308   6.539   5.888  0.8403 -0.1941  0.5705
  635MOL0     C85618   6.437   6.508   5.825 -0.3465  0.4760 -0.2699
  635MOL0     C85619   6.177   6.492   5.830  0.5832 -1.0906 -0.2458
  635MOL0     C85620   6.165   6.394   5.720 -0.0851  0.0134  0.3156
  635MOL0     O85621   6.051   6.375   5.652 -0.0199  0.3748  0.0562
  635MOL0     C85622   6.041   6.260   5.576 -0.4455  0.5913  0.4812
  635MOL0     C85623   6.039   6.274   5.435 -1.1571 -0.5214 -0.6915
  635MOL0     C85624   6.040   6.158   5.355  0.3162  0.4057 -0.2084
  635MOL0     C85625   6.031   6.033   5.419  0.5523 -0.3564 -0.0024
  635MOL0     O85626   6.038   5.929   5.330  0.1321 -1.2594 -0.0439
  635MOL0     C85627   6.035   5.795   5.380 -0.1853 -0.6657 -0.4526
  635MOL0     C85628   5.986   5.685   5.280 -0.1585  0.2548  0.2916
  635MOL0     C85629   5.837   5.703   5.263  0.1086  1.1022 -0.5976
  635MOL0     C85630   5.783   5.600   5.147 -0.2535 -0.6269 -0.2157
  635MOL0     C85631   5.640   5.584   5.155 -0.8854  0.5102 -0.2756
  635MOL0     C85632   5.583   5.468   5.065 -1.0821  0.3512  0.4388
  635MOL0     C85633   5.429   5.459   5.074 -0.4076  0.1780 -0.9586
  635MOL0     C85634   5.368   5.325   5.059 -0.9794  0.2226 -0.3003
  635MOL0    Cl85635   5.186   5.352   5.017  0.4199 -0.1191  0.4492
  635MOL0     C85636   6.042   6.017   5.557  0.9214  0.2440  0.2839
  635MOL0     C85637   6.053   6.132   5.635 -0.4528 -0.3541 -0.1014
  635MOL0     O85638   6.259   6.323   5.706 -0.7176  0.4843 -0.4463
  635MOL0     C85639   6.068   6.532   5.892 -0.2578  0.4647 -0.8961
  635MOL0     C85640   6.065   6.610   6.011  0.5204 -0.0109 -0.1867
  635MOL0     N85641   6.459   7.058   6.522 -0.6361 -0.0063  0.4483
  635MOL0     N85642   6.572   7.100   6.570  0.1108 -1.0160 -0.0110
  635MOL0     C85643   7.419   7.684   6.953  0.4588  1.1982 -1.1010
  635MOL0     C85644   7.510   7.688   7.064  1.3433 -0.5408  0.5544
  635MOL0     C85645   7.869   7.560   7.330 -0.5421  0.6296 -0.1365
  635MOL0     C85646   8.004   7.565   7.330 -0.1205  0.8116  0.6822
  635MOL0     C85647   8.072   7.578   7.452  0.5638 -0.5010  0.0058
  635MOL0     C85648   8.005   7.571   7.578 -0.2029  0.1171  0.2252
  635MOL0     O85649   8.087   7.567   7.690 -0.2140  0.4435 -0.0365
  635MOL0     C85650   8.137   7.438   7.720  0.3149  0.0512  0.7459
  635MOL0     C85651   8.245   7.433   7.830  0.4897 -0.3912  0.1578
  635MOL0     C85652   8.310   7.295   7.832 -0.2752  0.1376  0.2442
  635MOL0     C85653   8.403   7.278   7.953 -0.1689 -0.1391  0.8607
  635MOL0     C85654   8.474   7.148   7.966 -0.5565 -0.1016  0.2920
  635MOL0     C85655   8.540   7.041   7.965 -0.9033  0.7197 -0.5625
  635MOL0     C85656   7.864   7.555   7.573 -0.0643 -0.4886  0.8759
  635MOL0     C85657   7.798   7.553   7.449 -0.4995 -0.5819 -0.2155
  635MOL0     H85658   7.605   7.361   7.064  0.2467  0.4977 -0.0545
  635MOL0     H85659   7.430   7.345   6.896 -0.8458 -0.3137 -0.0438
  635MOL0     H85660   7.280   7.744   6.737  0.0277 -1.8921  3.3971
  635MOL0     H85661   7.370   7.653   6.617 -2.2365 -1.1563 -1.8368
  635MOL0     H85662   7.093   7.567   6.675  1.5885  3.2122  2.2908
  635MOL0     H85663   7.116   7.704   6.559  1.6366  1.8764  2.5688
  635MOL0     H85664   7.227   7.566   6.406  5.4376 -5.0658 -1.5035
  635MOL0     H85665   7.273   7.448   6.525 -0.1595  1.3368  0.2727
  635MOL0     H85666   7.027   7.385   6.566 -1.1817  2.7479 -0.2233
  635MOL0     H85667   6.976   7.479   6.438 -1.2903 -2.3272 -0.6741
  635MOL0     H85668   7.056   7.337   6.281 -1.3744 -0.1030  1.4780
  635MOL0     H85669   7.199   7.283   6.364 -0.1569 -0.8938  0.2716
  635MOL0     H85670   7.086   7.096   6.369  0.0316 -0.0182  0.0150
  635MOL0     H85671   7.069   7.155   6.536 -1.1957 -2.1580 -0.7242
  635MOL0     H85672   6.851   7.259   6.454 -1.3893 -0.4942  0.0609
  635MOL0     H85673   6.867   7.144   6.318  1.1080  2.3159 -0.4369
  635MOL0     H85674   6.854   7.089   6.618  2.0353  0.8335 -1.1453
  635MOL0     H85675   6.880   6.968   6.498 -1.9358 -1.0480  0.8731
  635MOL0     H85676   6.673   6.914   6.324 -0.3921 -0.6015 -0.4463
  635MOL0     H85677   6.433   6.916   6.214  0.5916 -2.1811 -0.2165
  635MOL0     H85678   6.327   6.840   6.341 -1.1027  0.6913 -0.7855
  635MOL0     H85679   6.320   7.120   6.271  1.0660 -0.6046  0.2443
  635MOL0     H85680   6.204   7.054   6.382 -2.0991 -0.5521 -2.0209
  635MOL0     H85681   6.194   6.985   6.079  1.3767 -0.8257  0.6043
  635MOL0     H85682   6.069   7.044   6.191  0.4038  0.8771 -0.3887
  635MOL0     H85683   6.022   6.835   6.131  0.3231  2.9207 -0.1720
  635MOL0     H85684   6.056   6.819   6.290  1.1271  1.5669  0.1947
  635MOL0     H85685   6.393   6.651   6.060 -0.6704 -0.0259  1.8806
  635MOL0     H85686   6.417   6.471   5.724  0.0016  1.1101 -0.5755
  635MOL0     H85687   6.493   6.601   5.830  0.8356 -0.2762  2.0831
  635MOL0     H85688   6.493   6.431   5.879  0.9955  0.7618 -1.2348
  635MOL0     H85689   6.035   6.373   5.390  4.8587 -0.8456 -2.9994
  635MOL0     H85690   6.039   6.166   5.247  3.4427  1.1869 -0.2738
  635MOL0     H85691   6.134   5.775   5.422 -1.6809  0.5691  4.3024
  635MOL0     H85692   5.973   5.788   5.470  0.6557  0.1191  0.2123
  635MOL0     H85693   6.056   5.687   5.196  1.8663 -0.2625  1.8933
  635MOL0     H85694   6.001   5.584   5.319 -2.0572 -1.3184 -2.6561
  635MOL0     H85695   5.814   5.809   5.251  0.5844  1.0559 -2.2088
  635MOL0     H85696   5.778   5.687   5.353 -0.6202  3.4357 -0.5997
  635MOL0     H85697   5.820   5.636   5.050  2.1560 -1.0547  0.4841
  635MOL0     H85698   5.833   5.503   5.159  2.4209  0.6297 -0.3610
  635MOL0     H85699   5.599   5.677   5.115 -1.9152  0.5665  0.8247
  635MOL0     H85700   5.608   5.559   5.257 -2.2914  0.4447 -0.7122
  635MOL0     H85701   5.603   5.492   4.960 -1.5627 -0.5777  0.1208
  635MOL0     H85702   5.631   5.375   5.098  0.7338  0.5909 -1.3252
  635MOL0     H85703   5.391   5.521   4.992  1.4013  0.4845 -1.6108
  635MOL0     H85704   5.388   5.499   5.167 -3.5561  1.2737 -2.6582
  635MOL0     H85705   5.378   5.275   5.156  1.6774 -0.9646 -1.1101
  635MOL0     H85706   5.418   5.261   4.985 -1.5672  0.2727 -0.7564
  635MOL0     H85707   6.034   5.922   5.610  0.7311  0.6706  1.0321
  635MOL0     H85708   6.055   6.113   5.742  1.4141 -0.3765 -0.1015
  635MOL0     H85709   5.975   6.495   5.850 -0.4003  1.4328 -1.4586
  635MOL0     H85710   5.970   6.631   6.059 -0.0571 -2.0475 -0.3298
  635MOL0     H85711   7.363   7.774   6.928 -0.6575  0.7479 -0.3255
  635MOL0     H85712   7.523   7.783   7.116 -0.4462  0.8272 -1.3007
  635MOL0     H85713   8.063   7.539   7.242 -0.1877  1.7087  0.3636
  635MOL0     H85714   8.179   7.568   7.442  0.4445 -1.2220 -0.6561
  635MOL0     H85715   8.044   7.387   7.749 -0.6755  2.1198  1.4741
  635MOL0     H85716   8.181   7.397   7.629 -1.9727  3.8733 -2.4408
  635MOL0     H85717   8.207   7.445   7.931  0.9782 -1.4720  0.4843
  635MOL0     H85718   8.318   7.511   7.807 -2.0002  1.6725 -1.2876
  635MOL0     H85719   8.363   7.281   7.737  2.7553  0.3940  1.7809
  635MOL0     H85720   8.237   7.218   7.855  0.1614 -0.8507 -1.4798
  635MOL0     H85721   8.341   7.286   8.043  2.1496  0.5598  2.4949
  635MOL0     H85722   8.473   7.362   7.959 -1.1005  0.8463 -1.1706
  635MOL0     H85723   8.611   6.961   7.964 -2.9076 -1.2717 -3.7274
  635MOL0     H85724   7.799   7.535   7.657 -2.6220  3.6177  0.1424
  635MOL0     H85725   7.691   7.530   7.448 -1.0026  1.5326  0.9467
  636MOL0     O85726   2.245   0.892   3.101 -0.5653  0.0175  0.1776
  636MOL0     C85727   2.188   1.000   3.093 -0.1733 -0.2109 -0.0164
  636MOL0     O85728   2.091   1.034   3.187  0.3295  0.4350 -0.1390
  636MOL0     C85729   2.061   0.949   3.287 -0.2600 -0.2772  0.2440
  636MOL0     C85730   2.127   0.970   3.409 -1.2762 -0.0433  0.8626
  636MOL0     C85731   2.114   0.874   3.520  0.1775 -1.0720  0.3931
  636MOL0     C85732   2.011   0.781   3.513 -0.2102  0.1754  0.6159
  636MOL0     O85733   1.996   0.711   3.620  1.3564 -0.4058 -0.9409
  636MOL0     C85734   1.925   0.582   3.608  0.1198 -0.2277  0.9720
  636MOL0     C85735   1.770   0.597   3.625  0.4041 -0.1344  0.4657
  636MOL0     C85736   1.698   0.462   3.614  0.1564 -0.1957  0.3640
  636MOL0     C85737   1.547   0.487   3.638 -0.0705 -0.0753 -0.4898
  636MOL0     C85738   1.455   0.364   3.623  0.6237  0.6847  0.0957
  636MOL0     C85739   1.313   0.400   3.655 -0.2535  0.0946  0.0579
  636MOL0     C85740   1.261   0.523   3.571 -0.4732  0.2503 -0.2303
  636MOL0     C85741   1.113   0.545   3.606  0.2200 -0.9053 -0.0116
  636MOL0     N85742   1.021   0.470   3.531  0.5372  0.0763 -0.2328
  636MOL0     C85743   1.048   0.411   3.415 -0.5824  0.0230 -0.0564
  636MOL0     C85744   0.950   0.317   3.401  0.1501  0.1512 -0.0741
  636MOL0     C85745   0.942   0.235   3.274  0.6966 -0.5270 -0.5509
  636MOL0     C85746   1.063   0.151   3.243  0.6493  0.2996  0.4153
  636MOL0     C85747   1.114   0.071   3.354  0.4402  0.3571 -0.3441
  636MOL0     C85748   1.247   0.006   3.320 -0.0958  0.2750 -0.0958
  636MOL0     O85749   1.222  -0.088   3.220 -0.5018  0.4051 -0.0948
  636MOL0     C85750   1.327  -0.175   3.186 -0.6345 -0.2658  0.5931
  636MOL0     C85751   1.307  -0.256   3.068 -0.7836 -1.2741  0.7596
  636MOL0     C85752   1.390  -0.364   3.032 -0.3494  0.5098 -0.8575
  636MOL0     C85753   1.359  -0.443   2.900 -0.0077 -1.3400 -0.5671
  636MOL0     C85754   1.512  -0.385   3.100  0.5252 -0.4651 -0.2368
  636MOL0     C85755   1.608  -0.490   3.076 -0.1779  0.5915  0.1119
  636MOL0     O85756   1.734  -0.458   3.103 -0.1535 -0.2874 -0.0454
  636MOL0     C85757   1.824  -0.552   3.151  0.2243  0.5949  0.5555
  636MOL0     C85758   1.800  -0.681   3.198 -0.0908  0.1022  1.3165
  636MOL0     C85759   1.912  -0.770   3.218  1.4378  0.5628  0.2943
  636MOL0     C85760   2.044  -0.723   3.225  0.9965 -0.2151  0.3594
  636MOL0     O85761   2.151  -0.797   3.272 -0.4053  0.6275 -0.1164
  636MOL0     C85762   2.133  -0.942   3.258  0.0983  0.1643 -0.1546
  636MOL0     C85763   2.270  -1.012   3.270 -0.1642  0.2628 -0.6862
  636MOL0     C85764   2.366  -1.012   3.145  0.2131  0.2984 -0.2523
  636MOL0     C85765   2.440  -0.879   3.132  0.3064  0.0652  0.8744
  636MOL0     C85766   2.550  -0.910   3.027  0.5377 -0.1523  0.5671
  636MOL0     C85767   2.654  -0.790   3.035 -0.5758 -0.1550 -0.7358
  636MOL0     C85768   2.767  -0.817   2.938  0.4514 -0.5053 -0.0626
  636MOL0     C85769   2.895  -0.852   3.007  0.6530  0.4581  0.3833
  636MOL0    Cl85770   3.003  -0.916   2.879  0.1672  0.1690 -0.0450
  636MOL0     C85771   2.063  -0.593   3.177 -0.1949 -0.2340 -0.1613
  636MOL0     C85772   1.953  -0.511   3.144  0.0703  0.4751  0.4551
  636MOL0     O85773   1.570  -0.596   3.027  0.1739 -0.9793  0.5359
  636MOL0     C85774   1.537  -0.293   3.201  0.7011 -0.4682 -0.0012
  636MOL0     C85775   1.445  -0.199   3.250  0.3940  0.0657  0.3470
  636MOL0     N85776   0.860   0.335   3.502  0.1701  0.4526 -0.2420
  636MOL0     N85777   0.901   0.428   3.579 -0.4138  0.6791  0.0921
  636MOL0     C85778   1.933   0.770   3.389 -0.0808 -0.9757 -0.4930
  636MOL0     C85779   1.954   0.859   3.277  0.3291  0.1909  0.0785
  636MOL0     C85780   2.222   1.098   2.987 -1.1544 -0.0639  0.7745
  636MOL0     C85781   2.255   1.054   2.855  0.3205  0.3344 -0.2107
  636MOL0     C85782   2.269   1.145   2.748 -0.3188 -0.4608 -0.0884
  636MOL0     C85783   2.272   1.283   2.771 -0.2117 -0.8933  0.7907
  636MOL0     O85784   2.269   1.386   2.674  0.1895  0.6716  0.3795
  636MOL0     C85785   2.263   1.342   2.530 -0.4630 -0.0157 -1.0670
  636MOL0     C85786   2.405   1.320   2.495 -0.3486 -0.1488  0.4291
  636MOL0     C85787   2.433   1.280   2.337 -0.3722 -1.0832 -0.5416
  636MOL0     C85788   2.332   1.202   2.255  0.5925  0.1507  0.7902
  636MOL0     C85789   2.333   1.054   2.262  0.1096 -0.5424 -0.4488
  636MOL0     C85790   2.330   0.938   2.283  0.2948 -0.0570  0.6587
  636MOL0     C85791   2.231   1.329   2.905 -0.4451  1.7078  0.0532
  636MOL0     C85792   2.222   1.236   3.015  0.2805 -0.2962  0.3763
  636MOL0     H85793   2.191   1.056   3.423 -0.7958 -0.3284  0.4548
  636MOL0     H85794   2.179   0.876   3.607  3.0998 -1.6077 -1.6000
  636MOL0     H85795   1.937   0.535   3.510  0.6199 -1.0133  1.3989
  636MOL0     H85796   1.967   0.514   3.683  0.0725 -4.0499 -2.1266
  636MOL0     H85797   1.740   0.640   3.721  2.5030 -0.6102  1.3855
  636MOL0     H85798   1.722   0.653   3.544  1.5245  1.0109  0.5675
  636MOL0     H85799   1.722   0.425   3.514 -0.0320 -1.9362  0.9410
  636MOL0     H85800   1.730   0.388   3.688 -2.3560 -0.2461  1.4711
  636MOL0     H85801   1.520   0.543   3.728 -1.8213  0.4094 -1.2865
  636MOL0     H85802   1.522   0.555   3.556 -1.3447  2.0935  1.5764
  636MOL0     H85803   1.460   0.319   3.524 -0.7089  0.4720  0.1163
  636MOL0     H85804   1.477   0.288   3.699 -1.9097  0.1859  0.4139
  636MOL0     H85805   1.252   0.311   3.641 -0.8976  0.0441  2.6999
  636MOL0     H85806   1.307   0.424   3.761  0.2479 -1.9237  0.5743
  636MOL0     H85807   1.313   0.610   3.613  0.5821  0.7871 -2.4735
  636MOL0     H85808   1.285   0.518   3.465  1.4037  0.0263  0.1670
  636MOL0     H85809   1.089   0.648   3.579 -0.2019 -1.2540 -1.0116
  636MOL0     H85810   1.101   0.537   3.714  0.3961 -4.5276 -0.1391
  636MOL0     H85811   1.138   0.422   3.356  0.1107 -3.4910  0.1471
  636MOL0     H85812   0.860   0.164   3.289  3.0960 -3.6668 -1.2289
  636MOL0     H85813   0.924   0.304   3.191  4.6286  1.0722 -0.3074
  636MOL0     H85814   1.140   0.221   3.208 -0.7692  1.0965 -1.2931
  636MOL0     H85815   1.031   0.090   3.159 -0.7176 -0.4028  1.4137
  636MOL0     H85816   1.036  -0.003   3.375  0.0826  0.9822  0.6128
  636MOL0     H85817   1.131   0.128   3.446 -0.4559 -0.5099  0.3847
  636MOL0     H85818   1.284  -0.054   3.403 -0.0064  0.9242  0.3367
  636MOL0     H85819   1.312   0.080   3.273 -3.6312  2.0959 -2.6132
  636MOL0     H85820   1.220  -0.230   3.008  0.4687 -0.5320 -0.8231
  636MOL0     H85821   1.344  -0.549   2.925 -0.8023 -0.7732  1.5495
  636MOL0     H85822   1.262  -0.409   2.861  0.3541 -3.7365 -3.9370
  636MOL0     H85823   1.433  -0.417   2.824 -0.5977  1.4113 -0.3069
  636MOL0     H85824   1.696  -0.713   3.194 -0.1655  0.2886  1.7005
  636MOL0     H85825   1.900  -0.873   3.250  2.1811  0.0447 -1.0019
  636MOL0     H85826   2.072  -0.972   3.343 -0.6248  1.3388 -0.2262
  636MOL0     H85827   2.079  -0.973   3.169 -0.1790 -1.6666  0.6172
  636MOL0     H85828   2.319  -0.964   3.355  1.3215 -1.3535 -0.5808
  636MOL0     H85829   2.257  -1.111   3.313 -2.9275  1.4889  1.6791
  636MOL0     H85830   2.310  -1.027   3.052 -2.8350  0.0062  1.4774
  636MOL0     H85831   2.443  -1.089   3.152  1.9465  1.9725 -0.0397
  636MOL0     H85832   2.377  -0.795   3.099 -1.1362 -1.1010  0.5478
  636MOL0     H85833   2.494  -0.844   3.220 -0.5018  1.1104  0.9803
  636MOL0     H85834   2.507  -0.921   2.926  0.3943  1.7070  0.3834
  636MOL0     H85835   2.595  -1.003   3.062 -1.9164 -0.7235  2.5190
  636MOL0     H85836   2.611  -0.693   3.009 -2.1871 -1.4264 -3.1505
  636MOL0     H85837   2.702  -0.782   3.134  1.2057 -0.1263 -1.5547
  636MOL0     H85838   2.776  -0.733   2.869 -0.7805 -0.0612  0.2877
  636MOL0     H85839   2.747  -0.897   2.866  1.5986  1.0353 -2.2084
  636MOL0     H85840   2.866  -0.925   3.083 -1.5612  0.4171 -0.4364
  636MOL0     H85841   2.941  -0.761   3.048  3.2574 -0.9876  0.8511
  636MOL0     H85842   2.165  -0.562   3.159  0.0841 -0.6818  0.5873
  636MOL0     H85843   1.970  -0.404   3.133  0.4620  0.5693  1.7454
  636MOL0     H85844   1.627  -0.298   3.262 -1.7611  1.6866  4.2605
  636MOL0     H85845   1.459  -0.156   3.349 -1.5549 -0.5382  0.9253
  636MOL0     H85846   1.843   0.711   3.375 -0.1092 -1.6289  1.9827
  636MOL0     H85847   1.906   0.844   3.181 -0.5433  1.1192  0.3533
  636MOL0     H85848   2.258   0.946   2.844 -0.6085  0.2809  0.0298
  636MOL0     H85849   2.289   1.113   2.647  1.9622  2.1182 -0.5692
  636MOL0     H85850   2.204   1.253   2.505  0.7817 -2.3359  3.2139
  636MOL0     H85851   2.226   1.426   2.470  0.6686  3.3496  2.5010
  636MOL0     H85852   2.453   1.243   2.556  0.4425  0.1668  0.2223
  636MOL0     H85853   2.470   1.402   2.528  2.0261 -2.5078  2.0267
  636MOL0     H85854   2.531   1.230   2.335  0.9098  1.2682 -0.9781
  636MOL0     H85855   2.431   1.379   2.290  0.8026 -1.2030 -0.8728
  636MOL0     H85856   2.361   1.220   2.151  1.5494 -1.9564  0.6326
  636MOL0     H85857   2.230   1.238   2.269  0.4588 -0.6131  1.8915
  636MOL0     H85858   2.322   0.832   2.290 -1.6673 -0.0555 -0.7690
  636MOL0     H85859   2.214   1.435   2.923 -3.8597  0.9639  2.0649
  636MOL0     H85860   2.184   1.284   3.105 -1.6703  4.1783 -2.4869
  637MOL0     O85861   7.818   2.500   2.751  0.1153  0.1607  0.0843
  637MOL0     C85862   7.755   2.593   2.805 -0.5484  0.8851  0.5770
  637MOL0     O85863   7.780   2.639   2.928  0.1033 -0.6610  0.5597
  637MOL0     C85864   7.902   2.625   2.987  0.2201 -0.5441  0.0971
  637MOL0     C85865   8.026   2.620   2.919 -0.8939 -0.8086 -0.1796
  637MOL0     C85866   8.149   2.600   2.989 -0.5179 -0.1392 -0.3162
  637MOL0     C85867   8.146   2.605   3.129 -0.1766 -0.3528  0.5449
  637MOL0     O85868   8.251   2.609   3.215 -0.8854 -0.8182 -1.2662
  637MOL0     C85869   8.378   2.579   3.157  0.4477 -0.7995 -0.0281
  637MOL0     C85870   8.472   2.500   3.253 -0.1624  0.3712  0.3699
  637MOL0     C85871   8.609   2.493   3.183 -0.2662  0.2779  0.3663
  637MOL0     C85872   8.717   2.463   3.285 -0.4486  0.1219 -0.0625
  637MOL0     C85873   8.864   2.459   3.233  0.6884  0.5471  0.5922
  637MOL0     C85874   8.874   2.381   3.099  0.6854  0.1179 -0.1376
  637MOL0     C85875   9.017   2.376   3.049  0.3251 -0.0379  0.7551
  637MOL0     C85876   9.032   2.291   2.920 -0.0326  0.6103  0.5295
  637MOL0     N85877   9.168   2.273   2.862  0.0942 -0.6734 -0.0418
  637MOL0     C85878   9.243   2.353   2.770  0.3907  0.4624  0.6513
  637MOL0     C85879   9.360   2.308   2.764 -0.4868  0.0054 -0.6793
  637MOL0     C85880   9.468   2.361   2.676 -0.5137  0.3571 -0.3112
  637MOL0     C85881   9.611   2.333   2.745  0.1780  0.2597 -0.1065
  637MOL0     C85882   9.717   2.399   2.652 -0.1174 -0.5469 -0.5328
  637MOL0     C85883   9.851   2.383   2.714  0.0994 -0.2694 -0.7172
  637MOL0     O85884   9.843   2.413   2.854 -0.1339 -0.0563  0.3696
  637MOL0     C85885   9.932   2.360   2.943 -0.5284  0.4417 -0.7113
  637MOL0     C85886  10.068   2.335   2.913 -0.5341 -0.1092 -0.3795
  637MOL0     C85887  10.153   2.280   3.009  0.8949 -0.4584  0.8722
  637MOL0     C85888  10.293   2.265   2.960  0.4256 -0.2159  0.6150
  637MOL0     C85889  10.095   2.234   3.134  0.0575 -0.9808 -0.6144
  637MOL0     C85890  10.175   2.186   3.246 -0.8023 -0.6907 -0.7111
  637MOL0     O85891  10.300   2.189   3.220 -0.2529  0.0250  0.2150
  637MOL0     C85892  10.388   2.169   3.320 -0.3113 -0.0553 -0.4296
  637MOL0     C85893  10.426   2.043   3.376 -0.5502 -0.3174  0.2567
  637MOL0     C85894  10.518   2.036   3.470 -0.4701  0.2308 -0.5179
  637MOL0     C85895  10.579   2.140   3.537  0.0627 -0.2655 -0.2329
  637MOL0     O85896  10.679   2.109   3.630 -0.3989  0.1373  0.7561
  637MOL0     C85897  10.689   2.194   3.744  0.1628  0.7650 -0.7622
  637MOL0     C85898  10.777   2.137   3.858  0.4033  0.8370  0.1441
  637MOL0     C85899  10.923   2.142   3.820 -0.7482 -0.1204 -0.2159
  637MOL0     C85900  11.006   2.061   3.913  0.1565  1.6839  0.2653
  637MOL0     C85901  11.153   2.107   3.900  0.0981 -0.5437  0.6459
  637MOL0     C85902  11.254   2.028   3.978  0.2050 -0.6464 -0.8568
  637MOL0     C85903  11.395   2.108   3.978 -0.4378  0.5668 -0.9853
  637MOL0     C85904  11.501   2.055   4.077 -0.4787  0.2724  0.0046
  637MOL0    Cl85905  11.461   2.060   4.240 -0.1978 -0.1304 -0.4649
  637MOL0     C85906  10.554   2.271   3.485 -0.3941 -0.4107 -0.4286
  637MOL0     C85907  10.455   2.277   3.385 -0.8557 -0.7116  0.1309
  637MOL0     O85908  10.125   2.139   3.352  0.7577 -0.3137 -0.1115
  637MOL0     C85909   9.963   2.269   3.165  0.0811 -0.3961 -0.3338
  637MOL0     C85910   9.880   2.328   3.070 -0.6634 -0.7061  0.0886
  637MOL0     N85911   9.370   2.202   2.859  0.7076 -1.1737  1.2982
  637MOL0     N85912   9.255   2.188   2.925 -0.2188 -0.1032  0.1046
  637MOL0     C85913   8.020   2.604   3.196 -0.4080  0.0304 -1.0695
  637MOL0     C85914   7.902   2.620   3.128  0.0930 -0.6860 -0.0481
  637MOL0     C85915   7.633   2.616   2.735 -0.5491  0.0704 -0.2011
  637MOL0     C85916   7.577   2.739   2.775 -0.9762  0.5059  0.8772
  637MOL0     C85917   7.458   2.784   2.716  0.1900 -0.2249 -0.1027
  637MOL0     C85918   7.383   2.704   2.622 -0.3268 -0.2252 -0.3365
  637MOL0     O85919   7.267   2.767   2.568  0.3338  0.8890 -0.2854
  637MOL0     C85920   7.192   2.720   2.457  0.3976 -0.1785 -0.5077
  637MOL0     C85921   7.055   2.770   2.446  0.3427 -0.1555 -0.6580
  637MOL0     C85922   7.041   2.921   2.442 -0.9061  0.3453 -0.0505
  637MOL0     C85923   6.900   2.981   2.432  0.8301  1.0272 -0.6623
  637MOL0     C85924   6.841   2.986   2.299  0.1978 -0.7430  0.1581
  637MOL0     C85925   6.788   2.983   2.187  0.5137  0.2265 -0.1875
  637MOL0     C85926   7.444   2.577   2.576  0.1009  0.5682  0.3965
  637MOL0     C85927   7.571   2.542   2.631 -0.2183  0.3964  0.9906
  637MOL0     H85928   8.027   2.626   2.810 -0.7168 -1.9175 -0.2577
  637MOL0     H85929   8.243   2.607   2.935  0.5311  3.2422  1.7029
  637MOL0     H85930   8.373   2.510   3.073  2.1779  3.8903 -4.5242
  637MOL0     H85931   8.437   2.668   3.132  2.1130 -1.9581 -0.3611
  637MOL0     H85932   8.482   2.541   3.354  2.7673  1.3983 -0.2433
  637MOL0     H85933   8.433   2.401   3.277  0.0198 -0.1538 -1.3403
  637MOL0     H85934   8.599   2.418   3.104 -0.6315  0.6041  0.0985
  637MOL0     H85935   8.638   2.585   3.130  2.3809 -0.1091  1.0198
  637MOL0     H85936   8.715   2.526   3.374  1.2480  0.5921 -0.3169
  637MOL0     H85937   8.695   2.358   3.310  0.7040 -0.8235 -2.6616
  637MOL0     H85938   8.890   2.563   3.214 -3.6046  1.6688 -0.0791
  637MOL0     H85939   8.920   2.400   3.307  1.5811  1.1915  0.4365
  637MOL0     H85940   8.837   2.281   3.125 -2.4514  0.8588 -1.2861
  637MOL0     H85941   8.816   2.430   3.020 -0.6712  0.4711  1.0131
  637MOL0     H85942   9.065   2.474   3.037 -1.4023  1.2624  3.4828
  637MOL0     H85943   9.064   2.319   3.129 -0.4042 -0.2037  1.0708
  637MOL0     H85944   8.963   2.333   2.846  1.0217  1.8551  0.2084
  637MOL0     H85945   8.987   2.194   2.943 -2.0031  2.0441  3.3196
  637MOL0     H85946   9.202   2.430   2.706  1.2431  1.7673  1.6089
  637MOL0     H85947   9.453   2.307   2.582  2.8601  2.2106 -2.0862
  637MOL0     H85948   9.448   2.468   2.660 -1.0270  0.1606 -1.0742
  637MOL0     H85949   9.634   2.226   2.751 -1.0988 -0.0587 -0.6443
  637MOL0     H85950   9.607   2.366   2.849 -0.8563 -0.2635  0.0401
  637MOL0     H85951   9.691   2.504   2.638 -0.3152 -0.7938 -2.1823
  637MOL0     H85952   9.713   2.345   2.557  1.7158  2.3844 -2.4199
  637MOL0     H85953   9.924   2.447   2.662 -0.9230 -1.1925 -3.4502
  637MOL0     H85954   9.885   2.280   2.706  2.5685  0.5128 -1.0908
  637MOL0     H85955  10.092   2.377   2.816 -0.8072 -1.5742 -1.0980
  637MOL0     H85956  10.361   2.330   3.016  0.9509  1.1287 -1.4697
  637MOL0     H85957  10.336   2.169   2.988  0.0396 -0.2263  1.1926
  637MOL0     H85958  10.314   2.261   2.853 -2.2200 -1.1923  0.0565
  637MOL0     H85959  10.388   1.950   3.336  0.2716 -2.0284  3.1746
  637MOL0     H85960  10.526   1.936   3.511  2.8536  1.1233  1.3987
  637MOL0     H85961  10.732   2.293   3.727  0.9075  0.6458  0.3532
  637MOL0     H85962  10.586   2.215   3.774 -0.8190 -0.5062 -2.9932
  637MOL0     H85963  10.765   2.201   3.946 -0.9362 -2.5900  2.6752
  637MOL0     H85964  10.747   2.034   3.879  0.7641  1.2191  2.9058
  637MOL0     H85965  10.957   2.245   3.833  0.9932 -1.0616  4.7225
  637MOL0     H85966  10.941   2.109   3.717  2.4934  2.4152 -0.6318
  637MOL0     H85967  10.977   2.081   4.016 -0.0435 -0.0798  0.5742
  637MOL0     H85968  10.991   1.956   3.889 -0.1651  1.2142  2.3762
  637MOL0     H85969  11.157   2.210   3.939  0.5403 -0.6092  0.7729
  637MOL0     H85970  11.186   2.114   3.796  0.4895  1.8006  0.8638
  637MOL0     H85971  11.208   2.011   4.076 -0.8052 -0.9938 -1.3776
  637MOL0     H85972  11.278   1.929   3.939  1.7999 -0.3852 -0.5955
  637MOL0     H85973  11.374   2.209   4.014 -1.2633 -0.9020  3.1617
  637MOL0     H85974  11.436   2.095   3.877 -1.3135 -0.0069 -1.2719
  637MOL0     H85975  11.588   2.120   4.060 -0.7810  0.7961  0.4259
  637MOL0     H85976  11.548   1.959   4.053 -2.5513 -0.8372  0.1916
  637MOL0     H85977  10.612   2.358   3.511 -2.6697  0.6552  1.4109
  637MOL0     H85978  10.435   2.381   3.359  4.6316  0.2246 -1.7241
  637MOL0     H85979   9.907   2.236   3.252 -1.9605  0.6434 -1.1623
  637MOL0     H85980   9.773   2.338   3.084 -0.7912  0.8208 -1.5620
  637MOL0     H85981   8.026   2.594   3.304 -1.3946 -4.2037 -1.2309
  637MOL0     H85982   7.810   2.638   3.182 -0.4376  2.5422 -1.7615
  637MOL0     H85983   7.629   2.791   2.855  0.3071  0.6261 -0.0211
  637MOL0     H85984   7.424   2.885   2.738 -1.5636 -0.7249 -0.2977
  637MOL0     H85985   7.255   2.737   2.370  1.0557 -1.3639 -0.2862
  637MOL0     H85986   7.187   2.611   2.460  0.8252 -0.2243 -1.4399
  637MOL0     H85987   7.007   2.724   2.533  1.9254 -1.0989 -0.2260
  637MOL0     H85988   7.001   2.719   2.365 -2.2194 -2.5261  2.2931
  637MOL0     H85989   7.086   2.975   2.358  0.2199 -1.4513 -0.6484
  637MOL0     H85990   7.089   2.964   2.530 -0.3705  0.2688 -0.3009
  637MOL0     H85991   6.902   3.087   2.458 -0.1440  0.7936  0.4639
  637MOL0     H85992   6.822   2.947   2.501 -1.4876  2.9880 -2.1787
  637MOL0     H85993   6.751   2.965   2.088  1.4519 -0.3395 -0.4490
  637MOL0     H85994   7.397   2.506   2.509  0.6617  0.5453  0.0238
  637MOL0     H85995   7.615   2.447   2.600  0.8406  0.8033  1.2122
  638MOL0     O85996   0.577   7.287   8.193 -0.2502  0.8654  0.2781
  638MOL0     C85997   0.574   7.281   8.074  0.3467  0.1365 -0.1933
  638MOL0     O85998   0.460   7.267   7.999 -0.2402  0.2277  0.2628
  638MOL0     C85999   0.340   7.239   8.056  0.3555 -0.5988 -0.4106
  638MOL0     C86000   0.264   7.127   8.008 -0.4981  0.0161 -0.0397
  638MOL0     C86001   0.134   7.095   8.055  0.3670 -0.0202  0.4194
  638MOL0     C86002   0.074   7.177   8.153 -0.4442  0.0855  0.9754
  638MOL0     O86003  -0.039   7.146   8.218 -0.3270 -0.1904  0.2078
  638MOL0     C86004  -0.131   7.058   8.157 -0.0613  0.0715 -0.3472
  638MOL0     C86005  -0.255   7.063   8.243  0.1565  0.5277 -0.1374
  638MOL0     C86006  -0.380   6.981   8.184 -0.0113 -1.1071  0.6846
  638MOL0     C86007  -0.398   6.852   8.262 -1.4768  0.1244 -0.0011
  638MOL0     C86008  -0.479   6.755   8.191  0.7237 -0.0347 -0.3925
  638MOL0     C86009  -0.446   6.621   8.251 -1.4412 -0.1859  0.5597
  638MOL0     C86010  -0.559   6.520   8.223  0.1104 -0.2304  0.2088
  638MOL0     C86011  -0.534   6.381   8.264 -0.8480  0.0353  0.5479
  638MOL0     N86012  -0.418   6.327   8.195 -0.5510  0.1273 -0.8287
  638MOL0     C86013  -0.282   6.330   8.239  0.7975 -0.1533 -0.1800
  638MOL0     C86014  -0.207   6.275   8.136  0.6644 -0.5578  0.5846
  638MOL0     C86015  -0.060   6.261   8.146 -0.2432  0.5663 -0.1272
  638MOL0     C86016   0.003   6.310   8.012 -0.0728 -0.3200  0.3733
  638MOL0     C86017   0.008   6.462   7.997  0.0001  0.2308  0.1637
  638MOL0     C86018   0.098   6.509   7.877 -0.0777  0.6641  0.4611
  638MOL0     O86019   0.157   6.633   7.904 -0.1804 -0.0552 -0.3670
  638MOL0     C86020   0.106   6.729   7.827 -0.0021  0.1028 -0.2095
  638MOL0     C86021   0.140   6.743   7.694  0.0987  0.8571 -0.0739
  638MOL0     C86022   0.083   6.841   7.610  0.4972 -0.0892  0.9016
  638MOL0     C86023   0.120   6.836   7.463  0.1563 -0.5012 -0.3945
  638MOL0     C86024  -0.021   6.928   7.660 -0.4823 -0.0591 -0.3414
  638MOL0     C86025  -0.073   7.049   7.585 -0.4016  0.4021  0.3726
  638MOL0     O86026  -0.118   7.150   7.664 -0.0206  0.7313  0.1567
  638MOL0     C86027  -0.163   7.273   7.609 -0.1144  0.8149 -0.6220
  638MOL0     C86028  -0.105   7.338   7.494  0.4557  0.7363 -0.2228
  638MOL0     C86029  -0.155   7.458   7.450 -0.1699  0.6176  0.1023
  638MOL0     C86030  -0.255   7.529   7.525  0.2374 -0.2055  0.7327
  638MOL0     O86031  -0.307   7.635   7.459  0.3462  0.8045  0.0171
  638MOL0     C86032  -0.271   7.750   7.529 -0.5780 -0.1773 -0.2002
  638MOL0     C86033  -0.344   7.863   7.454  0.4440  0.4315  0.7954
  638MOL0     C86034  -0.282   7.896   7.318 -0.4974  1.1027 -0.1843
  638MOL0     C86035  -0.365   7.998   7.237  0.0617  0.6063  0.0286
  638MOL0     C86036  -0.335   7.985   7.093 -0.2924  0.0021  1.0905
  638MOL0     C86037  -0.323   8.124   7.039 -0.7920  0.1948 -0.2085
  638MOL0     C86038  -0.323   8.121   6.886  0.6140  0.0589  0.0279
  638MOL0     C86039  -0.348   8.262   6.835 -0.8920 -0.6824  0.0312
  638MOL0    Cl86040  -0.187   8.351   6.825 -0.0666 -0.3163  0.1278
  638MOL0     C86041  -0.312   7.469   7.641 -1.0582  0.4452 -0.2992
  638MOL0     C86042  -0.251   7.344   7.688  0.0937 -0.2448  0.0447
  638MOL0     O86043  -0.055   7.055   7.470  0.0709  0.3563  0.2227
  638MOL0     C86044  -0.060   6.910   7.794 -0.1173  0.5316 -0.3170
  638MOL0     C86045   0.004   6.802   7.873  1.1393 -0.2954 -0.0189
  638MOL0     N86046  -0.296   6.234   8.038 -0.1493  1.1374 -0.1409
  638MOL0     N86047  -0.412   6.252   8.078  0.0821  0.1514  0.7281
  638MOL0     C86048   0.140   7.293   8.193 -0.1429  0.2647  0.9039
  638MOL0     C86049   0.270   7.320   8.148  0.3454 -0.5962 -0.1921
  638MOL0     C86050   0.708   7.292   8.000 -0.3463 -0.1846 -0.5706
  638MOL0     C86051   0.828   7.327   8.071 -0.5261  0.4314  0.7244
  638MOL0     C86052   0.950   7.325   8.002  0.4252  0.0629 -0.5049
  638MOL0     C86053   0.962   7.298   7.866  0.2913  0.1461 -0.1397
  638MOL0     O86054   1.087   7.292   7.803  0.3773 -0.2193  0.1398
  638MOL0     C86055   1.106   7.279   7.657 -0.8069  0.5242 -0.1919
  638MOL0     C86056   1.078   7.412   7.576 -0.0782 -0.2256  1.1276
  638MOL0     C86057   1.152   7.540   7.613 -0.2353  0.0743  0.6304
  638MOL0     C86058   1.107   7.607   7.738  0.5227  0.1658  0.5343
  638MOL0     C86059   0.969   7.644   7.740  0.5082  0.4830  0.8989
  638MOL0     C86060   0.852   7.681   7.745 -0.5470  0.8932  0.2774
  638MOL0     C86061   0.843   7.267   7.801  0.4706 -0.2451  1.2670
  638MOL0     C86062   0.719   7.265   7.865 -0.2458 -0.2330  0.2870
  638MOL0     H86063   0.308   7.053   7.941 -0.1857 -0.3443  0.5573
  638MOL0     H86064   0.076   7.003   8.046 -3.4080  1.9107  2.4228
  638MOL0     H86065  -0.159   7.093   8.057 -0.6960 -4.1176 -1.8438
  638MOL0     H86066  -0.093   6.956   8.149 -2.0969 -0.7836  0.1098
  638MOL0     H86067  -0.218   7.016   8.335 -2.7652 -0.4153  0.6764
  638MOL0     H86068  -0.288   7.165   8.264  0.1794  0.4201  0.4633
  638MOL0     H86069  -0.462   7.052   8.197  1.9698  1.0783  2.1225
  638MOL0     H86070  -0.364   6.964   8.077  2.0832  0.4313  0.6865
  638MOL0     H86071  -0.302   6.801   8.272 -2.1820 -1.1671  0.3825
  638MOL0     H86072  -0.444   6.875   8.359 -0.0294  0.1875  0.6992
  638MOL0     H86073  -0.587   6.776   8.195  0.9733  1.4094 -0.5512
  638MOL0     H86074  -0.445   6.756   8.087  0.8145 -0.8378 -0.3735
  638MOL0     H86075  -0.349   6.602   8.203 -0.2720  4.8200  0.4036
  638MOL0     H86076  -0.427   6.633   8.358  0.7857  1.8502  0.0362
  638MOL0     H86077  -0.649   6.547   8.279 -1.3731  0.4302 -2.3154
  638MOL0     H86078  -0.598   6.528   8.121 -1.8284  2.2976  1.0385
  638MOL0     H86079  -0.612   6.313   8.228 -0.0841  0.6695 -2.5923
  638MOL0     H86080  -0.532   6.376   8.374  0.5484 -0.3021  0.5288
  638MOL0     H86081  -0.247   6.368   8.335 -3.4642  0.7734  1.2182
  638MOL0     H86082  -0.020   6.315   8.231  1.8447 -2.2332  0.8356
  638MOL0     H86083  -0.023   6.160   8.169  2.4793  1.9382  2.1795
  638MOL0     H86084  -0.030   6.247   7.929  1.7002 -0.1628 -0.4968
  638MOL0     H86085   0.110   6.289   8.026  0.4121  1.7456  0.0688
  638MOL0     H86086   0.057   6.493   8.090  0.7185 -2.1546  0.6459
  638MOL0     H86087  -0.089   6.511   7.988  0.2342  1.1642  2.1678
  638MOL0     H86088   0.036   6.507   7.787 -0.2821  0.6744  0.5998
  638MOL0     H86089   0.169   6.430   7.853 -0.2810 -0.0734  2.1717
  638MOL0     H86090   0.208   6.672   7.647 -0.6535 -1.3810  2.0377
  638MOL0     H86091   0.164   6.929   7.427 -3.8228  1.1795 -1.3944
  638MOL0     H86092   0.190   6.753   7.447  3.7322  1.9018  1.3614
  638MOL0     H86093   0.039   6.814   7.393 -1.9190 -1.1974  2.0516
  638MOL0     H86094  -0.020   7.289   7.448  1.8897 -3.8814  6.0357
  638MOL0     H86095  -0.136   7.496   7.350 -0.9005 -2.9248 -1.5567
  638MOL0     H86096  -0.312   7.732   7.630  0.1172 -2.3136 -0.2370
  638MOL0     H86097  -0.163   7.765   7.531 -1.0122  3.9419 -0.3868
  638MOL0     H86098  -0.446   7.828   7.435  0.7096  0.6747 -1.2797
  638MOL0     H86099  -0.335   7.956   7.510  3.5609 -0.6609  2.3726
  638MOL0     H86100  -0.251   7.810   7.259 -1.0855  0.0266  1.0178
  638MOL0     H86101  -0.183   7.940   7.327  0.3029 -0.8592  1.3857
  638MOL0     H86102  -0.473   7.981   7.242  0.3772 -1.8728 -0.2106
  638MOL0     H86103  -0.348   8.098   7.278 -0.3301  1.4850 -1.8401
  638MOL0     H86104  -0.418   7.937   7.039 -0.6071  0.6420  0.9949
  638MOL0     H86105  -0.251   7.917   7.077 -0.9831 -0.3897 -1.3764
  638MOL0     H86106  -0.406   8.184   7.077  1.1607  0.6056  4.0590
  638MOL0     H86107  -0.224   8.156   7.073 -0.5981  1.3394 -1.7277
  638MOL0     H86108  -0.413   8.073   6.846  1.4105  0.4284 -2.3641
  638MOL0     H86109  -0.228   8.087   6.845  0.9256  2.2351 -1.2110
  638MOL0     H86110  -0.409   8.318   6.905  1.1402  2.6655 -0.6790
  638MOL0     H86111  -0.396   8.273   6.737 -1.4829  4.1238  0.6646
  638MOL0     H86112  -0.396   7.516   7.692 -1.7393 -3.0859  2.1814
  638MOL0     H86113  -0.280   7.311   7.787 -1.6687  2.3195  0.4846
  638MOL0     H86114  -0.145   6.965   7.832  2.1857  3.4329  1.1154
  638MOL0     H86115  -0.038   6.790   7.972  2.7678 -1.2511  0.5917
  638MOL0     H86116   0.087   7.355   8.265 -0.0139 -0.5905  1.7590
  638MOL0     H86117   0.316   7.404   8.200 -3.4779  1.2609  0.5578
  638MOL0     H86118   0.823   7.373   8.170  2.2047  2.3942  0.0857
  638MOL0     H86119   1.043   7.352   8.052 -0.6017  0.1130  1.4817
  638MOL0     H86120   1.211   7.255   7.637  0.1045  2.4278  1.8901
  638MOL0     H86121   1.045   7.198   7.615 -1.2250  0.7252  0.0223
  638MOL0     H86122   0.969   7.422   7.581  0.1011  1.3328  3.2811
  638MOL0     H86123   1.112   7.398   7.473  2.5433  1.5264  1.6499
  638MOL0     H86124   1.142   7.608   7.528 -0.5500 -0.0225  0.5911
  638MOL0     H86125   1.259   7.518   7.624 -0.1042  0.8035  0.8235
  638MOL0     H86126   1.150   7.707   7.751 -2.7317  1.5500  1.6094
  638MOL0     H86127   1.131   7.552   7.830 -2.3978  2.2871  2.7429
  638MOL0     H86128   0.752   7.716   7.763 -1.0318  2.5319 -4.3409
  638MOL0     H86129   0.849   7.242   7.696  3.9210 -1.1585  1.5747
  638MOL0     H86130   0.639   7.234   7.799 -0.4369 -2.5373  1.4912
  639MOL0     O86131   2.182   9.073   8.817 -0.4606  0.1036  0.5467
  639MOL0     C86132   2.100   9.041   8.734 -0.2077  0.0463 -0.4215
  639MOL0     O86133   1.964   9.048   8.752  0.2371 -0.1794 -0.1066
  639MOL0     C86134   1.930   9.112   8.870 -0.7300 -0.0031 -0.1478
  639MOL0     C86135   1.941   9.047   8.995 -0.1479 -0.1566  0.8538
  639MOL0     C86136   1.897   9.113   9.111 -0.1748  0.3931 -0.2549
  639MOL0     C86137   1.864   9.251   9.102  0.2128  0.6818  0.1527
  639MOL0     O86138   1.839   9.318   9.218  0.1364 -0.7336  0.1753
  639MOL0     C86139   1.946   9.343   9.307 -0.2505  0.1182  0.2617
  639MOL0     C86140   1.901   9.451   9.411  0.1520  0.4050  0.5375
  639MOL0     C86141   2.015   9.471   9.497  0.3996  0.2528 -0.5020
  639MOL0     C86142   1.986   9.579   9.607 -0.4563 -0.5313 -0.5547
  639MOL0     C86143   2.118   9.606   9.685 -1.1534 -0.4765 -0.1656
  639MOL0     C86144   2.099   9.694   9.811  0.1515  1.0659  0.1791
  639MOL0     C86145   2.211   9.670   9.909 -0.1018 -0.4453  0.7829
  639MOL0     C86146   2.183   9.542   9.997  0.8059  0.0750  0.0896
  639MOL0     N86147   2.293   9.521  10.081 -0.0841 -0.5510 -0.3512
  639MOL0     C86148   2.407   9.596  10.101 -0.2085 -0.4701  0.6503
  639MOL0     C86149   2.488   9.516  10.162 -0.1748  0.0585 -0.4116
  639MOL0     C86150   2.638   9.551  10.179  0.2793  0.5629  0.0403
  639MOL0     C86151   2.697   9.494  10.307  0.1721 -0.3932 -1.1048
  639MOL0     C86152   2.846   9.528  10.315  0.6661  0.2919  0.4812
  639MOL0     C86153   2.916   9.451  10.433  0.1763  0.2510 -0.0086
  639MOL0     O86154   3.054   9.470  10.446  0.8936  0.3274 -0.2909
  639MOL0     C86155   3.139   9.407  10.361 -0.7473 -0.5494 -0.9351
  639MOL0     C86156   3.118   9.279  10.312 -0.4907 -0.3680 -0.4010
  639MOL0     C86157   3.214   9.236  10.221 -0.1945  0.6407 -0.1857
  639MOL0     C86158   3.192   9.090  10.186 -0.2177 -0.7020  0.4416
  639MOL0     C86159   3.327   9.312  10.168  0.3718  0.5227 -0.8028
  639MOL0     C86160   3.420   9.268  10.058 -0.2715 -0.0726  0.0829
  639MOL0     O86161   3.376   9.185   9.955  0.5466 -0.0552 -0.7048
  639MOL0     C86162   3.463   9.133   9.865  0.3765  1.3532  0.1771
  639MOL0     C86163   3.487   9.000   9.877 -0.2318  0.1864 -0.6168
  639MOL0     C86164   3.575   8.938   9.792  0.2407 -0.0063  0.0884
  639MOL0     C86165   3.644   9.006   9.691 -0.3248  0.5270  0.1163
  639MOL0     O86166   3.737   8.938   9.615  0.5873 -0.1576  0.4282
  639MOL0     C86167   3.850   8.903   9.697  0.2943  0.8566  0.6219
  639MOL0     C86168   3.942   8.813   9.611 -0.3441 -0.1610 -0.5673
  639MOL0     C86169   3.888   8.669   9.607 -0.7194 -0.7068  0.0028
  639MOL0     C86170   3.976   8.596   9.510 -0.0258  0.3215  0.4319
  639MOL0     C86171   3.924   8.459   9.487 -0.0157 -0.8584  0.6126
  639MOL0     C86172   3.896   8.371   9.614 -0.6773 -0.7451  0.1380
  639MOL0     C86173   4.033   8.369   9.697  0.9272  0.2341  0.4246
  639MOL0     C86174   4.026   8.264   9.812  0.4826 -0.5713  0.6000
  639MOL0    Cl86175   4.096   8.120   9.747  0.2615  0.9992 -0.0384
  639MOL0     C86176   3.608   9.142   9.677 -1.1172  0.0628  0.0585
  639MOL0     C86177   3.518   9.203   9.762 -0.0411 -0.4683 -0.6290
  639MOL0     O86178   3.536   9.317  10.066  0.5191  0.4308  0.5483
  639MOL0     C86179   3.341   9.440  10.228 -1.0514  0.5195  0.9507
  639MOL0     C86180   3.244   9.487  10.317 -1.3039  0.1018  0.5063
  639MOL0     N86181   2.421   9.407  10.195  0.0906  0.1790 -0.4825
  639MOL0     N86182   2.298   9.412  10.155  1.3022  0.2445 -1.1631
  639MOL0     C86183   1.845   9.305   8.982  0.0048  1.2919  0.4364
  639MOL0     C86184   1.875   9.232   8.869  1.0387 -0.0421 -0.7591
  639MOL0     C86185   2.141   9.018   8.597  0.6386 -0.6913  0.2505
  639MOL0     C86186   2.047   9.018   8.492 -0.6566 -0.3617  0.6677
  639MOL0     C86187   2.088   8.983   8.365 -0.1090  0.2554 -0.2823
  639MOL0     C86188   2.222   8.955   8.335 -0.0717  0.6871  0.4237
  639MOL0     O86189   2.262   8.914   8.207 -0.1895 -0.1439 -0.0675
  639MOL0     C86190   2.216   8.787   8.165  0.4336 -0.3277  0.6692
  639MOL0     C86191   2.334   8.726   8.097 -0.3334 -0.0134  0.3774
  639MOL0     C86192   2.450   8.680   8.190  0.4379 -0.1576 -0.0972
  639MOL0     C86193   2.429   8.556   8.276 -0.3973 -0.3058  0.3290
  639MOL0     C86194   2.343   8.450   8.217  0.0203 -0.5563  0.4479
  639MOL0     C86195   2.268   8.371   8.159  0.7181  0.1453  0.3476
  639MOL0     C86196   2.319   8.971   8.437  1.5349  0.3494  0.8640
  639MOL0     C86197   2.277   8.999   8.567 -0.0361  0.3904 -0.2446
  639MOL0     H86198   1.987   8.950   9.005  0.1389 -0.0585  0.5077
  639MOL0     H86199   1.889   9.060   9.206 -0.3924  2.5367  1.0001
  639MOL0     H86200   1.981   9.248   9.348  2.6727  0.4290 -1.2388
  639MOL0     H86201   2.034   9.384   9.257 -0.3408  1.0155  0.8145
  639MOL0     H86202   1.864   9.545   9.369  1.3041 -0.0356 -1.6017
  639MOL0     H86203   1.818   9.407   9.467  0.5322  0.3276  1.0537
  639MOL0     H86204   2.035   9.380   9.554 -2.7521 -1.0649 -1.2357
  639MOL0     H86205   2.111   9.489   9.448  1.1136 -0.7529  0.4706
  639MOL0     H86206   1.953   9.669   9.554 -2.9868 -2.0914 -1.7922
  639MOL0     H86207   1.907   9.552   9.678 -0.1053  0.1731  0.1268
  639MOL0     H86208   2.161   9.515   9.728 -1.7678  1.1017  4.2437
  639MOL0     H86209   2.193   9.647   9.617 -0.6076  1.2705  1.4311
  639MOL0     H86210   2.105   9.801   9.790 -0.0815  1.5382  2.3313
  639MOL0     H86211   2.005   9.670   9.862 -1.3935  1.5586 -2.2755
  639MOL0     H86212   2.287   9.634   9.839 -1.1575 -0.3471 -0.4509
  639MOL0     H86213   2.244   9.759   9.964  3.3772 -1.9981  1.5037
  639MOL0     H86214   2.181   9.463   9.921 -3.8299  1.8659 -2.0315
  639MOL0     H86215   2.085   9.549  10.045  1.0391  0.7063  0.4974
  639MOL0     H86216   2.430   9.694  10.060 -1.2976  0.1614  1.4851
  639MOL0     H86217   2.692   9.500  10.098  0.0965 -1.4744  1.1290
  639MOL0     H86218   2.655   9.656  10.156  1.3540  0.5668  0.7652
  639MOL0     H86219   2.694   9.385  10.304 -2.6962 -0.3684 -1.1993
  639MOL0     H86220   2.658   9.546  10.395  3.4977  0.5558 -0.0059
  639MOL0     H86221   2.858   9.636  10.328  0.0948  0.3219  0.8103
  639MOL0     H86222   2.894   9.501  10.221  0.8458 -0.3456  0.7462
  639MOL0     H86223   2.903   9.344  10.418  0.6161  0.4454 -2.0086
  639MOL0     H86224   2.863   9.481  10.524 -2.3609  2.4705 -2.0735
  639MOL0     H86225   3.040   9.208  10.335 -1.6628  1.2293  0.7262
  639MOL0     H86226   3.282   9.034  10.214  0.2374 -0.6428 -0.8390
  639MOL0     H86227   3.105   9.050  10.239 -2.2945  1.4702 -1.1221
  639MOL0     H86228   3.176   9.081  10.078 -2.7238 -2.1044  0.8519
  639MOL0     H86229   3.441   8.944   9.957 -0.4121 -2.2698 -2.3076
  639MOL0     H86230   3.602   8.834   9.807  2.0076  0.4209  0.1247
  639MOL0     H86231   3.901   8.994   9.729  0.6717  0.5250  0.9692
  639MOL0     H86232   3.814   8.849   9.785 -0.6100 -1.0478 -0.8352
  639MOL0     H86233   3.963   8.861   9.515  2.2718  1.2702  0.6274
  639MOL0     H86234   4.042   8.798   9.651  0.4050  2.1190 -1.4329
  639MOL0     H86235   3.785   8.668   9.569 -1.3976 -1.8102  1.7223
  639MOL0     H86236   3.882   8.634   9.711 -2.1842  0.1287  0.2337
  639MOL0     H86237   3.979   8.650   9.415  0.4745 -1.5196 -0.6456
  639MOL0     H86238   4.079   8.574   9.540 -0.1942 -0.0866  0.7209
  639MOL0     H86239   3.992   8.401   9.423 -0.0873  1.5563 -1.8799
  639MOL0     H86240   3.834   8.469   9.426 -1.5279 -2.4629  2.4563
  639MOL0     H86241   3.818   8.412   9.679 -1.5181 -1.1042 -0.6208
  639MOL0     H86242   3.863   8.267   9.599 -0.7091 -0.6938 -0.1551
  639MOL0     H86243   4.036   8.466   9.748  0.6899 -0.5860  2.0599
  639MOL0     H86244   4.116   8.345   9.630 -0.2300 -3.2246  0.0422
  639MOL0     H86245   3.924   8.245   9.845  0.1111 -1.5249 -0.9669
  639MOL0     H86246   4.088   8.292   9.897  2.2575 -1.5876 -0.3024
  639MOL0     H86247   3.655   9.200   9.598  0.7142 -0.8487  0.4168
  639MOL0     H86248   3.482   9.305   9.754 -3.2588 -1.4744 -0.2209
  639MOL0     H86249   3.420   9.505  10.190  0.4568  0.2439  3.4234
  639MOL0     H86250   3.241   9.592  10.345 -1.7982 -0.1179  1.2763
  639MOL0     H86251   1.837   9.412   8.972  1.3444  1.3796 -0.0272
  639MOL0     H86252   1.843   9.280   8.778 -0.0224 -0.8229 -0.8193
  639MOL0     H86253   1.944   9.052   8.502  0.3038  5.4799 -3.6179
  639MOL0     H86254   2.017   8.982   8.283 -0.4371 -1.9881 -0.0150
  639MOL0     H86255   2.192   8.729   8.255  2.6722  0.4577  1.8489
  639MOL0     H86256   2.136   8.811   8.095  0.7232  1.5167  0.9274
  639MOL0     H86257   2.378   8.796   8.026 -0.4171 -0.2093  0.1284
  639MOL0     H86258   2.298   8.641   8.037 -1.4043  0.2312  0.6484
  639MOL0     H86259   2.480   8.756   8.263  1.8432 -0.4594 -0.3362
  639MOL0     H86260   2.533   8.662   8.121  2.4548  1.5883  1.7194
  639MOL0     H86261   2.374   8.583   8.366  1.6451 -0.6616  1.7400
  639MOL0     H86262   2.528   8.519   8.302 -0.2902 -0.5455 -0.3872
  639MOL0     H86263   2.198   8.317   8.099 -1.4849  1.8721  1.2264
  639MOL0     H86264   2.423   8.949   8.418  2.0408  3.4081 -0.4427
  639MOL0     H86265   2.352   8.999   8.646 -1.1819 -2.2218  0.9557
  640MOL0     O86266   9.186   0.373   9.950 -0.1206 -0.2833  0.0260
  640MOL0     C86267   9.243   0.443   9.864  0.4806 -0.0990 -0.5559
  640MOL0     O86268   9.293   0.402   9.736  0.6872 -0.0709 -0.3018
  640MOL0     C86269   9.303   0.273   9.695 -0.0808  0.1299 -0.0799
  640MOL0     C86270   9.262   0.242   9.572 -1.6568  0.0387 -0.3447
  640MOL0     C86271   9.277   0.112   9.522 -0.3305 -0.2914 -0.5727
  640MOL0     C86272   9.322   0.006   9.599 -0.2093 -0.4377 -0.2008
  640MOL0     O86273   9.348  -0.119   9.542  0.6404  0.3668 -0.0714
  640MOL0     C86274   9.287  -0.159   9.425  0.1833  0.0375 -0.3592
  640MOL0     C86275   9.311  -0.318   9.417 -0.5346 -1.4309 -0.2972
  640MOL0     C86276   9.226  -0.375   9.307  0.3492  0.1903 -0.9679
  640MOL0     C86277   9.075  -0.395   9.351 -0.0631  0.0031  0.1172
  640MOL0     C86278   9.001  -0.482   9.250 -0.2828  0.0644 -0.5224
  640MOL0     C86279   8.852  -0.467   9.286  0.4569 -0.1730 -0.1553
  640MOL0     C86280   8.766  -0.561   9.199 -0.3617 -0.3786 -0.3045
  640MOL0     C86281   8.779  -0.706   9.247  0.3932 -0.6440  0.8137
  640MOL0     N86282   8.728  -0.797   9.142 -0.4411 -0.1402 -0.5336
  640MOL0     C86283   8.613  -0.877   9.152  0.2680  1.2212 -0.1095
  640MOL0     C86284   8.611  -0.960   9.049  0.6412  0.9747 -0.1030
  640MOL0     C86285   8.504  -1.062   9.020  0.0946  1.0955  0.2042
  640MOL0     C86286   8.378  -1.002   8.965  0.2003 -0.2248 -1.1675
  640MOL0     C86287   8.388  -0.926   8.829 -0.0011  0.2997 -0.8612
  640MOL0     C86288   8.250  -0.907   8.758  0.7627  0.0544 -0.2299
  640MOL0     O86289   8.199  -1.035   8.719  0.4141 -0.1598  0.3242
  640MOL0     C86290   8.075  -1.048   8.662  0.6979 -0.9383  0.4860
  640MOL0     C86291   7.996  -0.936   8.623  0.3726 -0.1901 -0.7253
  640MOL0     C86292   7.868  -0.963   8.565  1.2813  0.0356 -0.7441
  640MOL0     C86293   7.789  -0.847   8.525  0.3813  0.3357 -0.7704
  640MOL0     C86294   7.821  -1.095   8.543 -1.0331 -0.1363  0.2388
  640MOL0     C86295   7.696  -1.117   8.484 -0.0728 -0.4764 -0.5798
  640MOL0     O86296   7.597  -1.034   8.511 -0.5557  0.2095  0.3453
  640MOL0     C86297   7.483  -1.048   8.440 -0.8110 -0.4032  0.3285
  640MOL0     C86298   7.388  -1.151   8.467 -0.3267 -0.2949  0.6129
  640MOL0     C86299   7.271  -1.172   8.380 -1.0136  0.3401 -0.1710
  640MOL0     C86300   7.247  -1.085   8.279 -0.1929  0.3799  0.3240
  640MOL0     O86301   7.136  -1.113   8.204 -0.1582  0.5329 -0.1369
  640MOL0     C86302   7.088  -0.994   8.130  0.1558 -0.3269 -0.8892
  640MOL0     C86303   6.947  -1.005   8.058  0.6322 -0.6306 -0.1128
  640MOL0     C86304   6.931  -0.902   7.945 -0.5334  0.1156 -0.1495
  640MOL0     C86305   6.813  -0.948   7.856 -0.6009 -0.4171 -0.7023
  640MOL0     C86306   6.769  -0.831   7.766  0.5362 -0.9764 -0.2463
  640MOL0     C86307   6.648  -0.880   7.689 -0.2580  0.6093 -0.7275
  640MOL0     C86308   6.608  -0.772   7.593 -0.1429 -0.4473 -0.7095
  640MOL0     C86309   6.536  -0.819   7.471 -0.6674  0.0915 -0.0720
  640MOL0    Cl86310   6.372  -0.757   7.448  0.2104 -0.4367 -0.0817
  640MOL0     C86311   7.340  -0.980   8.254  0.0877 -0.8969 -0.3732
  640MOL0     C86312   7.457  -0.966   8.323  0.0593  1.3432  0.1299
  640MOL0     O86313   7.689  -1.223   8.425  0.0641 -0.2478 -0.2238
  640MOL0     C86314   7.900  -1.202   8.586 -0.3238  0.0568 -0.5852
  640MOL0     C86315   8.031  -1.177   8.631 -0.6126 -0.0204 -0.2662
  640MOL0     N86316   8.723  -0.943   8.976 -0.8274 -0.6004 -0.3563
  640MOL0     N86317   8.798  -0.840   9.028 -0.6994  0.0462 -0.4408
  640MOL0     C86318   9.366   0.043   9.726  0.5665  1.0427  0.1751
  640MOL0     C86319   9.347   0.170   9.774 -0.6924  0.0708 -0.1786
  640MOL0     C86320   9.252   0.592   9.901 -0.7841 -0.1315  0.7059
  640MOL0     C86321   9.197   0.648  10.015 -0.3620  0.6050 -0.6725
  640MOL0     C86322   9.199   0.782  10.034  0.4589  0.5540  0.0670
  640MOL0     C86323   9.264   0.866   9.945 -0.4015 -0.0163 -0.7340
  640MOL0     O86324   9.251   0.997   9.977  0.3841  0.3846 -0.1614
  640MOL0     C86325   9.333   1.091   9.906 -0.3837  0.7181  0.5223
  640MOL0     C86326   9.329   1.218   9.980  0.4036  0.4528  0.8725
  640MOL0     C86327   9.430   1.321   9.928 -0.3200  0.0519  0.4587
  640MOL0     C86328   9.383   1.447  10.010  0.4508  0.5530  1.2839
  640MOL0     C86329   9.458   1.563   9.972 -0.5466  0.8504  1.1391
  640MOL0     C86330   9.523   1.660   9.938  0.4634 -0.2648  0.0523
  640MOL0     C86331   9.332   0.809   9.835 -0.2624  0.0763 -0.1716
  640MOL0     C86332   9.325   0.675   9.809  1.1928 -0.7850  0.9027
  640MOL0     H86333   9.217   0.326   9.520 -2.2415  1.6132  2.4987
  640MOL0     H86334   9.248   0.095   9.418 -2.9994  2.6978 -0.4747
  640MOL0     H86335   9.180  -0.137   9.435  0.3206 -0.0684  1.5680
  640MOL0     H86336   9.338  -0.108   9.342  1.4965  0.0485  0.4361
  640MOL0     H86337   9.418  -0.321   9.393 -0.2923 -1.4678  0.7079
  640MOL0     H86338   9.314  -0.383   9.506  1.7446 -1.1248 -0.0932
  640MOL0     H86339   9.217  -0.300   9.227 -0.6298  2.4381  1.1008
  640MOL0     H86340   9.271  -0.462   9.260  1.4478 -0.9778  2.0069
  640MOL0     H86341   9.070  -0.424   9.457 -0.7736  2.0601  0.6884
  640MOL0     H86342   9.018  -0.302   9.354 -2.0799 -1.1053 -1.5325
  640MOL0     H86343   9.021  -0.458   9.145 -0.7553  0.6452 -0.4887
  640MOL0     H86344   9.038  -0.583   9.269  0.6703  0.7469  1.4904
  640MOL0     H86345   8.825  -0.498   9.387 -0.4849 -0.8534 -0.6087
  640MOL0     H86346   8.827  -0.361   9.275  1.4845 -0.0166 -1.2791
  640MOL0     H86347   8.658  -0.543   9.195 -0.7685 -2.6189 -1.8256
  640MOL0     H86348   8.811  -0.562   9.099  1.5100  1.0767  0.4614
  640MOL0     H86349   8.713  -0.716   9.334  0.7433 -0.4874  1.0964
  640MOL0     H86350   8.880  -0.729   9.280 -0.0530  0.4709  3.1715
  640MOL0     H86351   8.550  -0.891   9.239  0.8182 -2.0307 -0.1369
  640MOL0     H86352   8.544  -1.137   8.951  3.8323  2.3107  0.8618
  640MOL0     H86353   8.462  -1.107   9.111 -2.1436 -0.8710 -1.6599
  640MOL0     H86354   8.336  -0.940   9.045 -2.0235 -0.5093 -2.0435
  640MOL0     H86355   8.299  -1.073   8.941 -0.0534 -0.4664  0.2813
  640MOL0     H86356   8.436  -0.993   8.757 -0.4206 -1.1841  0.2204
  640MOL0     H86357   8.441  -0.832   8.846  2.3897 -0.9346 -1.0887
  640MOL0     H86358   8.250  -0.850   8.665 -1.0633  1.1943  0.3975
  640MOL0     H86359   8.176  -0.865   8.827  0.4363 -2.7554  1.2794
  640MOL0     H86360   8.036  -0.836   8.630  4.3448 -1.4640 -2.3680
  640MOL0     H86361   7.849  -0.759   8.549 -0.5782  1.5435 -2.5812
  640MOL0     H86362   7.765  -0.852   8.419  0.5348 -0.8948 -0.7614
  640MOL0     H86363   7.697  -0.849   8.584  0.8677  1.1060  0.0435
  640MOL0     H86364   7.395  -1.215   8.554 -4.1113 -0.3491  1.0333
  640MOL0     H86365   7.212  -1.263   8.390  1.3089 -1.2151 -0.0289
  640MOL0     H86366   7.077  -0.908   8.198 -2.0492 -0.3486 -1.1502
  640MOL0     H86367   7.156  -0.954   8.054  1.2590 -0.4695 -0.0097
  640MOL0     H86368   6.943  -1.105   8.016 -1.2358  0.4697 -2.8142
  640MOL0     H86369   6.867  -0.989   8.131  0.0934  1.0076 -1.0028
  640MOL0     H86370   7.017  -0.892   7.878 -2.0217  1.7532 -1.9374
  640MOL0     H86371   6.909  -0.804   7.990  0.1689  0.8738 -1.3923
  640MOL0     H86372   6.847  -1.035   7.799  0.0305 -2.7455  2.9427
  640MOL0     H86373   6.724  -0.985   7.909  0.2297 -1.1010  0.2345
  640MOL0     H86374   6.853  -0.815   7.698  2.4458 -1.0269  1.9879
  640MOL0     H86375   6.743  -0.745   7.827 -1.4069 -1.6406 -0.0717
  640MOL0     H86376   6.674  -0.972   7.635  1.5040  0.4741  0.3010
  640MOL0     H86377   6.565  -0.893   7.760 -0.1631 -1.8786 -0.9575
  640MOL0     H86378   6.692  -0.708   7.564  2.0094 -3.3365 -1.3798
  640MOL0     H86379   6.544  -0.701   7.645  0.5945  1.4131 -2.2274
  640MOL0     H86380   6.539  -0.927   7.458 -2.1630  0.0538 -0.2711
  640MOL0     H86381   6.592  -0.791   7.382 -2.2852 -1.5422 -1.6925
  640MOL0     H86382   7.319  -0.914   8.170 -1.7793 -2.3437 -1.1307
  640MOL0     H86383   7.518  -0.877   8.313  0.4998  0.9389 -0.9216
  640MOL0     H86384   7.873  -1.307   8.572  0.3008 -0.1817 -0.0705
  640MOL0     H86385   8.090  -1.260   8.670  0.3188  1.4766  1.6723
  640MOL0     H86386   9.409  -0.039   9.783 -3.4444 -2.8730 -1.7366
  640MOL0     H86387   9.379   0.196   9.875  0.7771 -3.8259  0.5511
  640MOL0     H86388   9.154   0.577  10.086  0.1838  1.1182  0.1917
  640MOL0     H86389   9.158   0.833  10.121  2.4734  1.9580  0.2725
  640MOL0     H86390   9.440   1.066   9.914 -0.6878 -0.8546 -0.0890
  640MOL0     H86391   9.304   1.097   9.801 -1.6743 -2.7247  0.5413
  640MOL0     H86392   9.334   1.189  10.085 -3.3426 -1.1412  0.7751
  640MOL0     H86393   9.228   1.259   9.974  1.1340  2.3200  0.7508
  640MOL0     H86394   9.424   1.333   9.819  1.9857 -0.0118  0.2861
  640MOL0     H86395   9.530   1.286   9.953 -0.6351 -2.1303 -1.0055
  640MOL0     H86396   9.397   1.443  10.118  0.8096  2.0228  1.3162
  640MOL0     H86397   9.279   1.462   9.978  1.3472  4.0974 -0.5694
  640MOL0     H86398   9.585   1.741   9.904  0.8852 -0.2172  0.9103
  640MOL0     H86399   9.384   0.873   9.764  0.0992 -0.9486 -0.8527
  640MOL0     H86400   9.364   0.630   9.719  2.0960 -2.0765  1.9033
  641MOL0     O86401   4.969   3.983   2.543  0.3815 -0.2252  0.1315
  641MOL0     C86402   5.017   4.045   2.638 -0.6875  0.3070 -0.7281
  641MOL0     O86403   4.957   4.150   2.696  0.1435  0.0524 -0.5903
  641MOL0     C86404   4.836   4.194   2.651 -0.0574 -0.4402 -0.5097
  641MOL0     C86405   4.831   4.312   2.573  0.3261 -0.6400 -0.3203
  641MOL0     C86406   4.714   4.381   2.542  0.0214  0.3873  0.3675
  641MOL0     C86407   4.594   4.334   2.594  0.7752 -0.1697  0.7608
  641MOL0     O86408   4.479   4.407   2.566 -0.0456 -0.3186  0.1471
  641MOL0     C86409   4.360   4.361   2.623 -0.8651  0.8008 -0.4251
  641MOL0     C86410   4.248   4.445   2.561 -0.8257  0.8550  0.4483
  641MOL0     C86411   4.116   4.364   2.574  0.7171 -0.2786  0.1726
  641MOL0     C86412   4.000   4.443   2.504 -0.6567 -0.3561 -0.2617
  641MOL0     C86413   3.960   4.375   2.373  0.5536  0.2631  0.2762
  641MOL0     C86414   3.903   4.229   2.385  0.2647 -0.2654 -0.3033
  641MOL0     C86415   3.808   4.196   2.272 -0.0182  0.2448  0.2046
  641MOL0     C86416   3.662   4.233   2.313  0.5744 -0.1295 -0.0041
  641MOL0     N86417   3.596   4.139   2.407 -0.0275 -0.3459  0.7014
  641MOL0     C86418   3.520   4.030   2.367 -0.2627 -0.1905 -0.1347
  641MOL0     C86419   3.515   3.963   2.486  0.2020 -0.5005 -0.0816
  641MOL0     C86420   3.459   3.819   2.497 -0.1255 -0.4406 -0.3547
  641MOL0     C86421   3.307   3.814   2.524  0.1484  0.5113 -0.4521
  641MOL0     C86422   3.270   3.855   2.671  0.4882  0.4350 -0.2844
  641MOL0     C86423   3.126   3.790   2.687 -0.0907 -0.3324  0.4405
  641MOL0     O86424   3.076   3.851   2.803 -0.0406  0.3582  0.2981
  641MOL0     C86425   2.949   3.816   2.840 -0.3087 -0.6520  0.4023
  641MOL0     C86426   2.875   3.712   2.792 -0.1932  0.0322  0.4145
  641MOL0     C86427   2.746   3.676   2.842 -0.1464 -0.0375  1.0741
  641MOL0     C86428   2.686   3.548   2.793  0.4996 -0.2824 -0.1986
  641MOL0     C86429   2.687   3.750   2.949  0.7733  0.6613  0.0708
  641MOL0     C86430   2.561   3.720   3.019 -0.4162  0.3889  0.4053
  641MOL0     O86431   2.503   3.598   2.983  0.7203  0.1609 -0.0148
  641MOL0     C86432   2.372   3.561   3.022  0.3602 -0.8586 -0.0149
  641MOL0     C86433   2.348   3.429   3.070  0.7887  0.0104 -0.2565
  641MOL0     C86434   2.226   3.387   3.132 -0.5480  0.0774 -0.1862
  641MOL0     C86435   2.115   3.472   3.110 -0.2631  0.0412  0.2570
  641MOL0     O86436   2.000   3.438   3.185 -0.6107  0.0433 -0.8245
  641MOL0     C86437   1.883   3.521   3.177 -0.6177 -0.9918 -0.0157
  641MOL0     C86438   1.761   3.447   3.223  0.4814  0.0204 -0.3224
  641MOL0     C86439   1.631   3.524   3.208  0.2118 -0.1081  0.3139
  641MOL0     C86440   1.609   3.604   3.334  0.7372  0.4371  0.4949
  641MOL0     C86441   1.468   3.670   3.316  0.4812 -0.6263  0.4547
  641MOL0     C86442   1.356   3.568   3.350 -1.6117 -0.6514 -0.8407
  641MOL0     C86443   1.236   3.631   3.395 -0.1567  0.5622  0.5096
  641MOL0     C86444   1.106   3.538   3.383  1.2823  0.6727 -0.0527
  641MOL0    Cl86445   1.030   3.494   3.542  0.0695  0.1199  0.2194
  641MOL0     C86446   2.127   3.595   3.033 -0.2918 -0.7542 -0.2429
  641MOL0     C86447   2.258   3.644   3.008 -0.0402 -0.0651 -0.6971
  641MOL0     O86448   2.519   3.793   3.113 -0.5636  0.0306  0.1641
  641MOL0     C86449   2.762   3.860   3.000  0.1047 -0.5310 -0.7476
  641MOL0     C86450   2.885   3.891   2.942 -0.0007  0.4379 -0.0744
  641MOL0     N86451   3.546   4.048   2.592 -0.1401 -0.3068  0.4498
  641MOL0     N86452   3.603   4.153   2.543  0.3640 -0.9447  0.2577
  641MOL0     C86453   4.594   4.216   2.671  0.2389 -0.4077 -0.4654
  641MOL0     C86454   4.715   4.152   2.706  0.8011 -0.5124  0.1355
  641MOL0     C86455   5.133   3.976   2.702 -0.7543 -0.2753 -0.1161
  641MOL0     C86456   5.190   4.032   2.821 -0.3872  0.8902  0.9546
  641MOL0     C86457   5.295   3.962   2.885 -0.0810  0.0800  0.0291
  641MOL0     C86458   5.333   3.833   2.845 -0.2211 -0.6659 -0.3448
  641MOL0     O86459   5.431   3.757   2.909 -0.3454 -0.5283  0.6598
  641MOL0     C86460   5.434   3.757   3.053 -0.1187  0.0605 -0.5521
  641MOL0     C86461   5.543   3.656   3.107  0.6367 -0.2183 -0.3280
  641MOL0     C86462   5.566   3.670   3.251  0.2059  0.3167  0.0356
  641MOL0     C86463   5.703   3.601   3.301  0.2950 -0.6333  0.2860
  641MOL0     C86464   5.710   3.592   3.444  0.1776 -0.0692  0.1243
  641MOL0     C86465   5.722   3.600   3.569 -0.3017 -0.8358  0.2955
  641MOL0     C86466   5.291   3.793   2.713 -1.2379 -0.1918 -0.0027
  641MOL0     C86467   5.194   3.860   2.641 -0.0870  0.5264 -0.3648
  641MOL0     H86468   4.917   4.364   2.531  0.2910  0.2736  0.6859
  641MOL0     H86469   4.713   4.474   2.485 -2.3229 -0.4444 -1.0518
  641MOL0     H86470   4.346   4.260   2.584  0.1161  0.5482 -0.1342
  641MOL0     H86471   4.352   4.364   2.732 -3.1032 -0.9375 -0.4630
  641MOL0     H86472   4.250   4.532   2.628  2.7811 -0.9651  3.0341
  641MOL0     H86473   4.274   4.465   2.457 -0.8771  0.6868  0.4031
  641MOL0     H86474   4.130   4.267   2.526  3.0561  1.0875 -2.2233
  641MOL0     H86475   4.106   4.354   2.682 -0.1386 -0.5520  0.0737
  641MOL0     H86476   3.905   4.455   2.556 -2.0765 -0.9140 -2.5496
  641MOL0     H86477   4.041   4.543   2.488  3.0630 -1.6905 -0.1138
  641MOL0     H86478   3.886   4.442   2.327  0.6884  0.7330  0.7304
  641MOL0     H86479   4.040   4.376   2.298  0.6925  2.7205  0.3546
  641MOL0     H86480   3.987   4.160   2.392  1.6540  1.4310  0.3689
  641MOL0     H86481   3.851   4.217   2.481  1.3821 -1.6020  0.1701
  641MOL0     H86482   3.846   4.249   2.184  0.8041  3.6276  2.4121
  641MOL0     H86483   3.813   4.089   2.250  0.2278  0.7438 -2.5086
  641MOL0     H86484   3.599   4.254   2.227  1.7486  0.2756 -0.7847
  641MOL0     H86485   3.658   4.331   2.362 -1.1781 -0.9107  1.5821
  641MOL0     H86486   3.486   3.991   2.272 -0.4053 -1.3723  0.3802
  641MOL0     H86487   3.454   3.769   2.400  2.4362  0.0183 -0.7965
  641MOL0     H86488   3.528   3.768   2.565  0.8972  2.9395  1.3528
  641MOL0     H86489   3.272   3.718   2.484  1.7341  1.0524 -3.4111
  641MOL0     H86490   3.250   3.879   2.457 -1.9279 -0.1495  0.5883
  641MOL0     H86491   3.268   3.964   2.671 -2.8943  0.5106 -1.4830
  641MOL0     H86492   3.346   3.816   2.740  0.5151  1.0752  0.0458
  641MOL0     H86493   3.136   3.682   2.673  0.0787 -0.5768  2.1317
  641MOL0     H86494   3.064   3.825   2.604  2.2057  2.2344 -0.3486
  641MOL0     H86495   2.909   3.660   2.704 -1.5548  1.4177 -0.9976
  641MOL0     H86496   2.690   3.473   2.873  0.8743  0.2070  0.2452
  641MOL0     H86497   2.584   3.566   2.759 -0.4386 -0.1993  2.4231
  641MOL0     H86498   2.751   3.506   2.716  2.5143  0.7249  0.8850
  641MOL0     H86499   2.439   3.374   3.093  1.1110 -0.6536 -2.7586
  641MOL0     H86500   2.224   3.290   3.181  1.6346 -0.3073 -0.7091
  641MOL0     H86501   1.908   3.608   3.238  0.5402 -1.2762 -0.0442
  641MOL0     H86502   1.865   3.548   3.072 -0.3455 -0.5228  0.0568
  641MOL0     H86503   1.748   3.363   3.154  2.0620 -0.4510 -0.0780
  641MOL0     H86504   1.764   3.400   3.321  0.2843  0.7295  0.0248
  641MOL0     H86505   1.552   3.449   3.195  0.3945 -0.3635  0.6693
  641MOL0     H86506   1.625   3.585   3.117  1.1472  1.7758  1.4704
  641MOL0     H86507   1.613   3.536   3.420  0.1092 -2.5751 -1.6922
  641MOL0     H86508   1.681   3.686   3.340 -1.4206  2.3438  2.7472
  641MOL0     H86509   1.456   3.709   3.214  0.9939 -3.1397 -0.6623
  641MOL0     H86510   1.460   3.743   3.397 -1.3550  1.3253 -1.3513
  641MOL0     H86511   1.331   3.512   3.259  0.0271 -2.3249 -0.3173
  641MOL0     H86512   1.384   3.496   3.428  1.0771  1.7208  0.5261
  641MOL0     H86513   1.216   3.708   3.319  1.7156  0.0100 -0.6189
  641MOL0     H86514   1.255   3.678   3.491  0.8249  1.1003  0.0708
  641MOL0     H86515   1.137   3.445   3.334  1.8098  0.9350 -0.2258
  641MOL0     H86516   1.028   3.579   3.318  2.3875  4.3889  0.7662
  641MOL0     H86517   2.039   3.653   3.005 -0.3981 -1.8156 -2.2520
  641MOL0     H86518   2.266   3.743   2.964  3.8403  0.2686  0.3582
  641MOL0     H86519   2.723   3.929   3.074 -0.1531 -0.8932 -0.5379
  641MOL0     H86520   2.942   3.973   2.984 -0.6289  1.0024 -0.3116
  641MOL0     H86521   4.504   4.182   2.720 -0.0353  0.6879 -0.1676
  641MOL0     H86522   4.726   4.056   2.756  0.0345  0.6074  2.5768
  641MOL0     H86523   5.159   4.133   2.847 -1.7288  0.3511  1.5367
  641MOL0     H86524   5.336   4.011   2.973  2.3682 -1.0251 -0.4134
  641MOL0     H86525   5.449   3.858   3.091 -0.0375 -0.8235  1.9516
  641MOL0     H86526   5.337   3.726   3.093 -0.7289  2.9499  0.4497
  641MOL0     H86527   5.634   3.682   3.053 -0.3294  0.6069 -1.6231
  641MOL0     H86528   5.519   3.554   3.078  1.3937 -0.5869  0.3072
  641MOL0     H86529   5.479   3.627   3.303  2.6818 -6.1099 -0.3084
  641MOL0     H86530   5.584   3.777   3.266 -0.3426  0.6985 -1.7466
  641MOL0     H86531   5.792   3.655   3.267  0.1668 -1.5068 -1.5471
  641MOL0     H86532   5.726   3.506   3.253  1.5850 -1.4083  2.3421
  641MOL0     H86533   5.730   3.629   3.672  0.4815 -0.0643  0.0279
  641MOL0     H86534   5.331   3.702   2.668 -3.3736 -1.9033  1.3158
  641MOL0     H86535   5.159   3.816   2.548  0.6438 -0.6586 -0.1073
  642MOL0     O86536   3.375   0.700   9.086 -0.9536  0.3658  0.1123
  642MOL0     C86537   3.450   0.693   8.986  0.7598  0.0292  1.0682
  642MOL0     O86538   3.521   0.791   8.924 -0.2885 -0.0159 -0.5371
  642MOL0     C86539   3.499   0.921   8.954 -1.0213 -0.1298 -0.0931
  642MOL0     C86540   3.617   0.990   9.001  0.3787  0.3624  0.4253
  642MOL0     C86541   3.619   1.123   9.024  0.5922 -0.0284 -0.2826
  642MOL0     C86542   3.492   1.195   9.012 -0.8065 -0.2056 -0.5627
  642MOL0     O86543   3.473   1.331   9.020  0.1911 -0.1066 -0.6612
  642MOL0     C86544   3.547   1.393   9.127  0.1055 -0.2614  0.9972
  642MOL0     C86545   3.483   1.517   9.185  0.0111 -0.1900  1.3814
  642MOL0     C86546   3.353   1.480   9.255 -0.5468  0.0081  0.3489
  642MOL0     C86547   3.225   1.573   9.235  0.3963 -0.4015  0.4108
  642MOL0     C86548   3.100   1.495   9.186  0.5397 -1.0147 -1.1693
  642MOL0     C86549   2.978   1.517   9.278 -0.9686  0.2621 -0.1249
  642MOL0     C86550   2.850   1.499   9.191  0.3997 -0.5921  0.8030
  642MOL0     C86551   2.821   1.373   9.113  0.2195 -0.1592  0.4960
  642MOL0     N86552   2.758   1.260   9.186  0.0391  0.1347  0.2617
  642MOL0     C86553   2.700   1.145   9.132  0.0977 -0.4532  0.3435
  642MOL0     C86554   2.661   1.077   9.244  0.0768 -0.3116  0.3187
  642MOL0     C86555   2.602   0.941   9.257  0.0130  0.7012  0.1637
  642MOL0     C86556   2.708   0.831   9.266  0.3008  0.5864 -0.6146
  642MOL0     C86557   2.649   0.695   9.319  0.6956 -0.3908  1.6797
  642MOL0     C86558   2.739   0.580   9.301 -0.0696  0.3860  0.6052
  642MOL0     O86559   2.746   0.560   9.160  0.3975  0.1177 -0.2491
  642MOL0     C86560   2.851   0.479   9.122 -0.3130 -0.3211  0.5770
  642MOL0     C86561   2.829   0.433   8.993  0.0474  0.0960 -0.2735
  642MOL0     C86562   2.903   0.325   8.942 -1.0773 -0.0237 -0.5158
  642MOL0     C86563   2.855   0.257   8.819 -0.8453  1.1820 -0.6801
  642MOL0     C86564   3.029   0.288   9.006  0.4725 -0.0564 -0.2183
  642MOL0     C86565   3.116   0.185   8.958 -0.2731 -0.1584 -0.4581
  642MOL0     O86566   3.138   0.166   8.823 -0.4160  0.7577  0.5806
  642MOL0     C86567   3.164   0.034   8.785 -0.1168 -0.2716 -0.0684
  642MOL0     C86568   3.293  -0.003   8.760  0.0658 -1.1981  0.2333
  642MOL0     C86569   3.320  -0.139   8.744 -0.2892  0.2763  0.2371
  642MOL0     C86570   3.227  -0.244   8.757 -0.0647  0.4222  0.8736
  642MOL0     O86571   3.251  -0.374   8.731  0.1949  0.5907 -0.8717
  642MOL0     C86572   3.383  -0.422   8.762 -0.4740 -0.0437  0.0969
  642MOL0     C86573   3.389  -0.572   8.780  0.2099  0.7318  0.6762
  642MOL0     C86574   3.347  -0.646   8.651 -0.2715 -0.0262  0.6790
  642MOL0     C86575   3.348  -0.793   8.695  0.0222  0.2305 -0.0115
  642MOL0     C86576   3.265  -0.867   8.588 -0.2895  0.0455  0.3960
  642MOL0     C86577   3.304  -1.010   8.602  0.4905 -0.2144  0.0887
  642MOL0     C86578   3.208  -1.108   8.531  0.5284 -0.5576  0.1865
  642MOL0     C86579   3.107  -1.172   8.632  0.0351 -0.2482 -0.0054
  642MOL0    Cl86580   3.182  -1.269   8.781  0.2646  0.3291  0.0088
  642MOL0     C86581   3.094  -0.196   8.772 -0.3640  0.0739  0.3405
  642MOL0     C86582   3.066  -0.064   8.778  0.7457  0.3804 -0.2412
  642MOL0     O86583   3.183   0.139   9.049  0.4979  0.1756 -0.7848
  642MOL0     C86584   3.063   0.353   9.129 -0.2005 -0.8955  0.5888
  642MOL0     C86585   2.974   0.442   9.188  0.5546  0.0856 -0.3152
  642MOL0     N86586   2.708   1.141   9.348 -0.8641 -0.0624 -0.3447
  642MOL0     N86587   2.776   1.246   9.316 -0.0822 -0.5460 -0.4317
  642MOL0     C86588   3.376   1.123   8.965 -0.0805  0.0003  0.4349
  642MOL0     C86589   3.383   0.989   8.934 -0.7616 -0.5292 -0.1381
  642MOL0     C86590   3.478   0.552   8.937  0.2107  0.0566 -0.1348
  642MOL0     C86591   3.561   0.528   8.832  0.3233  0.3572  0.2903
  642MOL0     C86592   3.608   0.399   8.801  0.7479 -0.4649 -0.4602
  642MOL0     C86593   3.568   0.286   8.870  0.1320 -0.4977  0.2980
  642MOL0     O86594   3.596   0.154   8.838 -0.0411  0.0976 -0.3342
  642MOL0     C86595   3.731   0.115   8.815 -0.1265 -0.3088 -0.7014
  642MOL0     C86596   3.712  -0.033   8.770  0.2474 -0.1785 -0.1387
  642MOL0     C86597   3.841  -0.103   8.736 -0.0804  0.2705  0.2630
  642MOL0     C86598   3.844  -0.246   8.799 -0.3763 -0.4840  0.1099
  642MOL0     C86599   3.977  -0.308   8.783 -0.3652  0.1707 -0.5522
  642MOL0     C86600   4.092  -0.353   8.776 -0.8907  0.1591 -0.4058
  642MOL0     C86601   3.473   0.316   8.974 -0.4627  0.0897  0.3526
  642MOL0     C86602   3.428   0.443   9.006  0.5979 -0.4779  0.6897
  642MOL0     H86603   3.705   0.927   9.009 -1.2360 -2.9904 -4.2314
  642MOL0     H86604   3.713   1.174   9.042  0.2577  1.1785 -1.7055
  642MOL0     H86605   3.573   1.318   9.202  0.2469 -0.2937  0.9160
  642MOL0     H86606   3.648   1.424   9.099  0.2314 -0.0259  1.6981
  642MOL0     H86607   3.546   1.574   9.254 -0.5315  3.0962 -0.6532
  642MOL0     H86608   3.455   1.588   9.107 -1.7127 -0.8409  1.3611
  642MOL0     H86609   3.321   1.382   9.216 -2.1414  1.5314 -2.5065
  642MOL0     H86610   3.377   1.486   9.361 -0.2394  0.5286  0.2540
  642MOL0     H86611   3.209   1.618   9.333 -1.0191 -0.2970  0.1488
  642MOL0     H86612   3.248   1.654   9.164 -1.8232  2.2530  2.4820
  642MOL0     H86613   3.083   1.537   9.086 -1.1015  1.8871  0.2197
  642MOL0     H86614   3.119   1.388   9.174 -1.7821 -1.6616  0.3227
  642MOL0     H86615   2.980   1.438   9.353 -1.7306  1.2135  0.9443
  642MOL0     H86616   2.980   1.614   9.330  1.6253  0.6576 -0.8266
  642MOL0     H86617   2.759   1.527   9.245 -0.1487  0.7526 -0.7499
  642MOL0     H86618   2.858   1.573   9.112  0.7443 -0.1077  1.2891
  642MOL0     H86619   2.909   1.338   9.058  1.3287  1.0679  1.4267
  642MOL0     H86620   2.743   1.400   9.041  0.7872 -2.5251 -1.1306
  642MOL0     H86621   2.695   1.101   9.032 -4.4354  0.8378 -0.2037
  642MOL0     H86622   2.534   0.937   9.342 -0.1922 -0.4184 -0.0450
  642MOL0     H86623   2.548   0.928   9.162  0.1314 -1.2875  0.3377
  642MOL0     H86624   2.790   0.854   9.335  0.3515  1.9679 -1.1033
  642MOL0     H86625   2.747   0.810   9.165  1.6567 -0.0649  0.0141
  642MOL0     H86626   2.561   0.668   9.260  1.8176 -4.4918  1.6020
  642MOL0     H86627   2.622   0.714   9.423  0.1901  4.4806  0.8999
  642MOL0     H86628   2.699   0.490   9.348 -1.1303  2.0389  3.0375
  642MOL0     H86629   2.837   0.607   9.341  0.1108  0.6328  0.0096
  642MOL0     H86630   2.739   0.475   8.950  1.3138  2.5467 -0.6840
  642MOL0     H86631   2.886   0.312   8.730 -0.7678 -0.9197 -2.0162
  642MOL0     H86632   2.890   0.154   8.814 -1.7139  0.9290 -1.7546
  642MOL0     H86633   2.746   0.250   8.817 -0.8646 -0.8604  1.9724
  642MOL0     H86634   3.370   0.070   8.738 -2.1868  1.3694  0.4247
  642MOL0     H86635   3.416  -0.165   8.701 -0.7629 -2.1928  0.5503
  642MOL0     H86636   3.450  -0.409   8.677  1.1455 -1.4744  1.0791
  642MOL0     H86637   3.423  -0.370   8.849  2.4325 -2.4608  0.3609
  642MOL0     H86638   3.491  -0.594   8.814 -0.8056 -0.2523  3.3375
  642MOL0     H86639   3.323  -0.590   8.866  0.9929 -2.7103  0.6938
  642MOL0     H86640   3.430  -0.634   8.581 -1.3145 -4.9499 -1.8090
  642MOL0     H86641   3.251  -0.618   8.608  0.2267  0.2875 -0.2503
  642MOL0     H86642   3.454  -0.819   8.699 -0.0838 -0.0893  1.9714
  642MOL0     H86643   3.301  -0.812   8.792  0.1331 -1.3569 -0.2396
  642MOL0     H86644   3.295  -0.841   8.486  0.9483 -0.5503  0.5885
  642MOL0     H86645   3.158  -0.849   8.600 -0.5574  0.0016 -1.5889
  642MOL0     H86646   3.399  -1.010   8.547  0.0578  1.6491 -0.7329
  642MOL0     H86647   3.311  -1.037   8.708 -2.0282 -1.9451 -0.1118
  642MOL0     H86648   3.267  -1.187   8.484 -1.3654 -1.4498 -0.8157
  642MOL0     H86649   3.151  -1.061   8.450 -0.4518  2.0907  2.2485
  642MOL0     H86650   3.036  -1.233   8.577  1.4246  0.0586 -2.2577
  642MOL0     H86651   3.050  -1.088   8.672  0.6320  1.2058 -2.0520
  642MOL0     H86652   3.016  -0.271   8.781  0.5889 -0.7962  1.7042
  642MOL0     H86653   2.961  -0.040   8.795  0.2446  0.3201 -2.7965
  642MOL0     H86654   3.156   0.323   9.176 -0.4681 -1.9641  0.4668
  642MOL0     H86655   2.994   0.487   9.284  0.3448 -1.3677  0.4365
  642MOL0     H86656   3.292   1.182   8.931 -0.7657 -1.0244  0.3119
  642MOL0     H86657   3.289   0.943   8.904 -2.0270  1.2974  0.8508
  642MOL0     H86658   3.592   0.612   8.770 -1.1789 -0.6899 -1.9891
  642MOL0     H86659   3.663   0.401   8.707  1.0234  3.3633 -0.3540
  642MOL0     H86660   3.783   0.175   8.740  1.2045  2.8757  2.5388
  642MOL0     H86661   3.794   0.126   8.903 -0.7200 -0.7614 -0.2033
  642MOL0     H86662   3.662  -0.030   8.673  1.9248 -3.1077 -1.2392
  642MOL0     H86663   3.636  -0.085   8.829 -0.8599 -0.3564 -1.6800
  642MOL0     H86664   3.934  -0.051   8.760  0.6334 -0.0194 -1.6578
  642MOL0     H86665   3.834  -0.118   8.628  0.0566  3.8752 -0.3498
  642MOL0     H86666   3.768  -0.311   8.755  2.8116 -2.5341 -2.9066
  642MOL0     H86667   3.838  -0.237   8.908 -1.0488  1.0135 -0.0237
  642MOL0     H86668   4.189  -0.398   8.774 -1.3531 -0.8368 -2.0896
  642MOL0     H86669   3.424   0.237   9.030 -3.1623  1.6993  0.4759
  642MOL0     H86670   3.352   0.452   9.082 -1.8721 -2.5629 -1.3312
  643MOL0     O86671   3.435   4.587   2.271 -0.4245  0.3812  0.2124
  643MOL0     C86672   3.508   4.583   2.373  0.5559 -0.9384  0.3960
  643MOL0     O86673   3.491   4.510   2.481 -0.3291  0.1365 -0.0360
  643MOL0     C86674   3.375   4.434   2.488 -0.5133 -0.1166 -0.1371
  643MOL0     C86675   3.313   4.449   2.607  0.2677 -0.9555  0.6380
  643MOL0     C86676   3.209   4.360   2.643  0.0660 -0.1498  0.4151
  643MOL0     C86677   3.163   4.261   2.547 -0.4377 -0.1161  0.3015
  643MOL0     O86678   3.066   4.170   2.560  1.0690 -0.4895  0.8665
  643MOL0     C86679   3.008   4.168   2.688 -0.1378 -0.0233  0.0792
  643MOL0     C86680   2.893   4.274   2.699 -0.0352  0.1516 -0.0215
  643MOL0     C86681   2.849   4.309   2.844 -0.5033 -0.4520 -0.1319
  643MOL0     C86682   2.717   4.246   2.904  0.2754  0.4364  0.5231
  643MOL0     C86683   2.674   4.316   3.028 -0.0701 -0.7983 -0.0601
  643MOL0     C86684   2.553   4.242   3.090 -0.5471  0.1317 -0.1689
  643MOL0     C86685   2.497   4.316   3.214 -0.0198  0.7047  0.5492
  643MOL0     C86686   2.387   4.223   3.275  0.4703 -0.8263  0.3143
  643MOL0     N86687   2.334   4.288   3.381 -0.6570  0.7400 -0.2489
  643MOL0     C86688   2.207   4.342   3.395 -0.5698 -0.5462  0.2661
  643MOL0     C86689   2.190   4.358   3.525 -0.1425 -0.0366  0.2901
  643MOL0     C86690   2.070   4.419   3.577  0.3100 -0.3458  0.2203
  643MOL0     C86691   2.078   4.573   3.553  0.5149 -0.2824 -0.3885
  643MOL0     C86692   1.943   4.647   3.563  0.2894 -0.8287  0.8601
  643MOL0     C86693   1.966   4.800   3.561 -0.5989  0.8361 -0.5325
  643MOL0     O86694   1.833   4.854   3.573  0.4036  0.5767 -0.2303
  643MOL0     C86695   1.819   4.988   3.550  0.0764  0.1959 -0.8510
  643MOL0     C86696   1.681   5.018   3.546 -0.0950  0.1088 -1.1942
  643MOL0     C86697   1.629   5.141   3.489  0.2615  0.1813 -0.0042
  643MOL0     C86698   1.480   5.151   3.473  0.1751  0.0328  0.5340
  643MOL0     C86699   1.723   5.241   3.459  1.2127  0.0060 -0.2088
  643MOL0     C86700   1.681   5.371   3.399  0.2626  0.0227  0.2174
  643MOL0     O86701   1.544   5.405   3.395 -0.0455 -0.4758  0.7320
  643MOL0     C86702   1.492   5.474   3.295  0.5025 -0.3263  1.1355
  643MOL0     C86703   1.545   5.502   3.166 -0.1209 -0.4909 -0.4833
  643MOL0     C86704   1.473   5.585   3.077 -0.0650  0.5746 -0.2276
  643MOL0     C86705   1.351   5.636   3.110  1.3258 -0.8998  0.0318
  643MOL0     O86706   1.278   5.721   3.026  0.5732  0.5196  1.0506
  643MOL0     C86707   1.307   5.731   2.887  0.4242 -0.3236  0.5153
  643MOL0     C86708   1.174   5.752   2.812  0.7558  0.3016 -0.0250
  643MOL0     C86709   1.195   5.741   2.656 -0.1569 -0.0125  0.7518
  643MOL0     C86710   1.075   5.791   2.575  0.0545  0.2010 -0.0704
  643MOL0     C86711   0.940   5.724   2.601  0.3540  0.2938 -0.2107
  643MOL0     C86712   0.839   5.810   2.531  1.2508 -0.5402  0.1462
  643MOL0     C86713   0.697   5.748   2.509 -1.0119  0.3336 -0.2108
  643MOL0     C86714   0.603   5.846   2.438  0.2460 -0.8549 -0.4286
  643MOL0    Cl86715   0.665   5.888   2.273 -0.0654  0.0770 -0.0880
  643MOL0     C86716   1.294   5.616   3.236  0.7550 -0.0462 -0.0411
  643MOL0     C86717   1.366   5.540   3.326 -0.1605  1.2647  0.7148
  643MOL0     O86718   1.778   5.448   3.376  0.2952  0.2830  0.4611
  643MOL0     C86719   1.857   5.212   3.483 -0.6406 -0.8881  0.2718
  643MOL0     C86720   1.911   5.084   3.513 -0.1333 -0.3961 -0.1507
  643MOL0     N86721   2.304   4.329   3.591 -0.2047  0.8470  0.0762
  643MOL0     N86722   2.394   4.293   3.502  0.3162  0.0592 -0.0475
  643MOL0     C86723   3.228   4.247   2.430  0.3595  0.4583 -0.2184
  643MOL0     C86724   3.341   4.330   2.401  0.2368 -0.3370 -0.5319
  643MOL0     C86725   3.632   4.666   2.374 -0.1610 -0.3355  0.1077
  643MOL0     C86726   3.690   4.734   2.268  0.9570 -1.1248  0.1469
  643MOL0     C86727   3.813   4.814   2.285 -0.5852 -0.0991 -0.5292
  643MOL0     C86728   3.880   4.821   2.400 -0.4819  0.1254 -0.8194
  643MOL0     O86729   4.000   4.896   2.436  0.1860 -0.7692  0.4892
  643MOL0     C86730   4.057   4.991   2.346 -0.0936  0.5152 -0.2016
  643MOL0     C86731   4.181   5.057   2.412 -0.0522 -0.2487 -0.2858
  643MOL0     C86732   4.159   5.124   2.546 -0.5329 -0.0080  0.5824
  643MOL0     C86733   4.253   5.240   2.585 -0.7893  0.4197 -0.1322
  643MOL0     C86734   4.384   5.231   2.534  0.1219 -1.1632  0.3017
  643MOL0     C86735   4.500   5.228   2.481  0.9598 -0.9549 -0.2183
  643MOL0     C86736   3.824   4.745   2.505 -0.2619  0.5508 -0.0761
  643MOL0     C86737   3.709   4.673   2.487 -0.6304  0.6508 -0.8060
  643MOL0     H86738   3.341   4.526   2.678  1.9019 -0.5420 -0.4014
  643MOL0     H86739   3.158   4.372   2.738  1.3168  1.9732  0.8771
  643MOL0     H86740   2.963   4.070   2.710 -0.4770  0.3616  1.1291
  643MOL0     H86741   3.088   4.167   2.762  0.9805  0.8440 -1.0845
  643MOL0     H86742   2.920   4.358   2.634  1.2761 -1.8520 -2.2709
  643MOL0     H86743   2.812   4.227   2.643 -0.7822 -1.0853  1.9890
  643MOL0     H86744   2.932   4.284   2.911 -0.5211 -1.1564 -0.3710
  643MOL0     H86745   2.829   4.417   2.846  1.6302  0.0497  3.6583
  643MOL0     H86746   2.626   4.247   2.843 -0.4584  1.2067  1.6090
  643MOL0     H86747   2.743   4.141   2.924  3.5557  0.8498 -0.9151
  643MOL0     H86748   2.762   4.317   3.093 -0.6983 -0.8269  0.8053
  643MOL0     H86749   2.648   4.420   3.004  0.7031  0.2845  3.2349
  643MOL0     H86750   2.475   4.235   3.013  1.0270 -4.8237 -1.6935
  643MOL0     H86751   2.585   4.147   3.133  1.7269  1.5056  1.3832
  643MOL0     H86752   2.570   4.338   3.292  1.5351  0.1980 -0.7128
  643MOL0     H86753   2.441   4.406   3.184  3.0470  2.5039 -0.3087
  643MOL0     H86754   2.425   4.124   3.303  1.8840 -0.1121  1.0293
  643MOL0     H86755   2.310   4.202   3.201  0.8198 -0.1695 -0.2445
  643MOL0     H86756   2.126   4.364   3.326 -1.0378 -0.7155  0.7574
  643MOL0     H86757   1.977   4.384   3.530 -1.5818  1.6981  2.1820
  643MOL0     H86758   2.063   4.389   3.682  2.6186 -1.9790 -0.0145
  643MOL0     H86759   2.112   4.587   3.450 -0.9797 -3.4433 -1.4588
  643MOL0     H86760   2.156   4.616   3.615 -1.6957  1.1417  1.5937
  643MOL0     H86761   1.902   4.620   3.661  1.9075 -2.3009  1.1745
  643MOL0     H86762   1.876   4.606   3.486  2.1956 -2.1366 -0.1931
  643MOL0     H86763   2.017   4.816   3.466  1.7161 -1.5323  0.1446
  643MOL0     H86764   2.038   4.834   3.637  0.2346  0.2680 -1.0408
  643MOL0     H86765   1.612   4.943   3.583  0.3072  1.6407  3.2385
  643MOL0     H86766   1.433   5.062   3.514 -1.5812 -1.2525 -3.7393
  643MOL0     H86767   1.439   5.236   3.529  3.2100  1.1510  1.2628
  643MOL0     H86768   1.452   5.164   3.368  1.2897  2.5090  0.4547
  643MOL0     H86769   1.649   5.475   3.149  0.3858  1.6548 -1.0655
  643MOL0     H86770   1.520   5.629   2.990  0.7337 -0.0742 -0.1365
  643MOL0     H86771   1.371   5.814   2.856  0.0427 -0.9748 -2.2604
  643MOL0     H86772   1.349   5.640   2.845 -1.4471 -0.8201 -0.3951
  643MOL0     H86773   1.110   5.673   2.851 -0.5284  1.1015 -0.4577
  643MOL0     H86774   1.127   5.846   2.842 -0.5095 -1.0301  2.4411
  643MOL0     H86775   1.200   5.634   2.637  0.4570  0.0486  0.5682
  643MOL0     H86776   1.285   5.792   2.619 -0.0577  1.2167  2.5287
  643MOL0     H86777   1.056   5.894   2.608 -2.9318  0.3010 -1.7010
  643MOL0     H86778   1.107   5.786   2.470  2.7003 -2.8441  0.7297
  643MOL0     H86779   0.934   5.714   2.710  1.3593 -3.1686 -0.3605
  643MOL0     H86780   0.944   5.625   2.556  0.0476  0.5561 -0.8259
  643MOL0     H86781   0.819   5.901   2.588  0.6443 -1.2600  1.1148
  643MOL0     H86782   0.874   5.834   2.430  0.9055  0.5748  0.2781
  643MOL0     H86783   0.642   5.716   2.598 -2.8075  0.8494 -1.0767
  643MOL0     H86784   0.709   5.657   2.449 -1.6906 -1.7808  2.6469
  643MOL0     H86785   0.599   5.937   2.498  3.8600 -0.4656 -0.5786
  643MOL0     H86786   0.504   5.802   2.424  0.5411 -1.9636  0.7444
  643MOL0     H86787   1.199   5.663   3.260 -0.1727 -1.4229 -0.8861
  643MOL0     H86788   1.332   5.522   3.428 -2.5964 -0.1822 -0.2706
  643MOL0     H86789   1.932   5.282   3.450 -2.1431  0.9958  0.6396
  643MOL0     H86790   2.019   5.073   3.512 -0.2219 -1.6615  1.2378
  643MOL0     H86791   3.200   4.173   2.356  0.7624 -0.7722  0.8275
  643MOL0     H86792   3.401   4.338   2.311  1.6271  0.5463  0.4249
  643MOL0     H86793   3.626   4.719   2.182 -4.5944 -2.5629  3.9775
  643MOL0     H86794   3.865   4.866   2.205 -3.1691  1.6031 -1.2442
  643MOL0     H86795   4.093   4.942   2.255  1.3410 -0.2581  0.7449
  643MOL0     H86796   3.992   5.071   2.309  1.0605  0.4977 -2.4442
  643MOL0     H86797   4.227   5.135   2.351 -0.5197  0.8553  0.7301
  643MOL0     H86798   4.262   4.985   2.424  1.3837  1.0821 -1.4771
  643MOL0     H86799   4.166   5.052   2.629 -1.4217  1.0989  1.6470
  643MOL0     H86800   4.063   5.175   2.554  0.5953  2.1297  1.0612
  643MOL0     H86801   4.263   5.227   2.693  1.7021  0.0913 -0.3671
  643MOL0     H86802   4.214   5.341   2.566 -1.0251  0.0963 -1.5205
  643MOL0     H86803   4.597   5.224   2.436  0.5981 -1.4964 -0.9892
  643MOL0     H86804   3.878   4.740   2.599 -2.5101  1.0038  1.3231
  643MOL0     H86805   3.674   4.618   2.574 -2.6851 -0.2636 -2.1307
  644MOL0     O86806   5.949  10.666   2.218  0.5126 -0.5173 -0.0260
  644MOL0     C86807   5.838  10.700   2.181 -0.5856  0.2638 -0.3949
  644MOL0     O86808   5.811  10.741   2.054  0.4003  0.1580  0.2530
  644MOL0     C86809   5.909  10.715   1.958  0.1728  0.1200  0.4383
  644MOL0     C86810   6.033  10.773   1.948 -0.7960  0.5541  0.1343
  644MOL0     C86811   6.133  10.724   1.862 -0.0490 -0.1776  0.4225
  644MOL0     C86812   6.094  10.632   1.772 -1.5407 -1.1671  0.0412
  644MOL0     O86813   6.186  10.593   1.673  0.1726  0.3585 -0.0438
  644MOL0     C86814   6.173  10.456   1.622  0.0175 -0.0095  0.6449
  644MOL0     C86815   6.319  10.414   1.581 -0.2838  0.7341  0.2018
  644MOL0     C86816   6.310  10.296   1.473 -0.3422  0.2744 -0.2172
  644MOL0     C86817   6.279  10.167   1.563  0.0965 -0.2075 -0.1115
  644MOL0     C86818   6.374  10.057   1.521 -0.4600 -0.1146 -0.2078
  644MOL0     C86819   6.362   9.929   1.615  0.0103 -0.9154  1.2473
  644MOL0     C86820   6.227   9.852   1.605  0.5772 -0.3913 -0.4021
  644MOL0     C86821   6.217   9.762   1.482  0.4844  0.3687  0.4793
  644MOL0     N86822   6.080   9.700   1.494  0.2330 -0.2556 -0.6618
  644MOL0     C86823   6.035   9.606   1.583  0.3104 -0.6531 -0.0797
  644MOL0     C86824   5.900   9.597   1.552 -0.0735  0.4753  0.0763
  644MOL0     C86825   5.793   9.521   1.626  0.0181  0.2290 -0.2410
  644MOL0     C86826   5.690   9.622   1.683  0.6948 -0.2691 -1.3252
  644MOL0     C86827   5.573   9.539   1.744  0.1872 -0.4394  0.0752
  644MOL0     C86828   5.465   9.632   1.796  0.1253  0.1239 -0.4383
  644MOL0     O86829   5.491   9.664   1.926 -0.5786 -0.5003  0.9167
  644MOL0     C86830   5.385   9.698   2.000 -0.3458 -0.4381 -1.7360
  644MOL0     C86831   5.296   9.599   2.037  0.0940 -0.2914  0.0703
  644MOL0     C86832   5.180   9.639   2.112 -0.0605  0.2001  0.1094
  644MOL0     C86833   5.093   9.526   2.155  0.7918 -0.0740 -0.6207
  644MOL0     C86834   5.152   9.774   2.153 -0.5480  0.5131  0.3587
  644MOL0     C86835   5.028   9.823   2.221  0.4702  0.1832 -0.3223
  644MOL0     O86836   4.995   9.946   2.190  0.0438 -0.5787 -0.2181
  644MOL0     C86837   4.885   9.995   2.257  0.0830  0.5379 -0.0165
  644MOL0     C86838   4.878  10.111   2.316  0.9963  0.1641 -0.1821
  644MOL0     C86839   4.755  10.179   2.354 -0.6499 -0.4642  0.4971
  644MOL0     C86840   4.631  10.131   2.326  0.2625  0.5935  0.2141
  644MOL0     O86841   4.508  10.196   2.342 -0.6700 -0.6731  0.7910
  644MOL0     C86842   4.392  10.163   2.271 -0.2252 -0.6537  0.1958
  644MOL0     C86843   4.291  10.074   2.343 -0.4817  0.0705  0.3560
  644MOL0     C86844   4.164  10.025   2.272  1.2146  0.0383  1.2319
  644MOL0     C86845   4.052  10.136   2.273  1.2388 -0.1432  0.3998
  644MOL0     C86846   3.931  10.111   2.185 -0.0813 -0.3737  0.1918
  644MOL0     C86847   3.820  10.225   2.177 -0.6055 -0.2864 -0.2324
  644MOL0     C86848   3.743  10.245   2.305 -0.0379  0.0566  0.0964
  644MOL0     C86849   3.648  10.363   2.304 -0.1086 -0.2858  0.4015
  644MOL0    Cl86850   3.515  10.325   2.189 -0.0591 -0.3033 -0.1814
  644MOL0     C86851   4.636  10.004   2.262  1.0862  0.1793 -0.3205
  644MOL0     C86852   4.759   9.938   2.223  0.6128 -0.1522 -0.2103
  644MOL0     O86853   4.971   9.746   2.294 -0.4777  0.3470  0.8910
  644MOL0     C86854   5.251   9.867   2.128 -0.5936  0.1919 -0.1261
  644MOL0     C86855   5.365   9.831   2.057  1.1503 -0.6141 -0.5088
  644MOL0     N86856   5.869   9.685   1.460  0.5135 -0.9447 -0.0410
  644MOL0     N86857   5.981   9.739   1.414 -0.2191  0.1339 -0.1515
  644MOL0     C86858   5.964  10.573   1.772 -0.9343 -0.3791  0.4241
  644MOL0     C86859   5.873  10.614   1.866  0.2028  0.7979  0.4519
  644MOL0     C86860   5.729  10.697   2.279  0.4083  0.9983  0.6041
  644MOL0     C86861   5.594  10.718   2.247  0.1420  0.3205 -0.3651
  644MOL0     C86862   5.498  10.682   2.331  0.3553  0.1256 -1.1228
  644MOL0     C86863   5.518  10.647   2.467 -0.9796  0.3422 -0.1222
  644MOL0     O86864   5.413  10.598   2.549  0.3123 -0.4201 -0.0765
  644MOL0     C86865   5.422  10.586   2.689 -0.2811 -0.1330  0.3222
  644MOL0     C86866   5.289  10.535   2.748  0.0518 -0.3586 -0.3999
  644MOL0     C86867   5.272  10.564   2.903 -0.3928 -0.1411  0.1918
  644MOL0     C86868   5.157  10.485   2.959 -0.4504 -0.4478  0.8181
  644MOL0     C86869   5.029  10.554   2.929 -0.9074 -1.0934  0.6098
  644MOL0     C86870   4.936  10.632   2.906 -0.4435 -0.2106 -0.6077
  644MOL0     C86871   5.652  10.646   2.512 -0.2174  0.9233  0.7248
  644MOL0     C86872   5.748  10.659   2.414 -1.1211  0.3970 -0.6741
  644MOL0     H86873   6.053  10.838   2.033 -2.3083  0.1442  0.8239
  644MOL0     H86874   6.237  10.755   1.864  0.6395 -2.3340  2.7866
  644MOL0     H86875   6.140  10.380   1.694 -0.1755  0.3381  0.9250
  644MOL0     H86876   6.103  10.460   1.538  1.2692 -0.7258 -0.4669
  644MOL0     H86877   6.376  10.498   1.540  2.5714 -1.1037  0.1271
  644MOL0     H86878   6.386  10.380   1.661 -0.2834 -3.4444 -1.3235
  644MOL0     H86879   6.238  10.302   1.391 -0.0187 -0.0227 -0.5273
  644MOL0     H86880   6.411  10.299   1.432 -0.4099  0.6159 -0.3604
  644MOL0     H86881   6.303  10.182   1.669  0.6219  2.3850 -0.5347
  644MOL0     H86882   6.176  10.134   1.544 -0.4014  1.5013 -0.4956
  644MOL0     H86883   6.350  10.020   1.420  1.0061  0.9682 -1.0018
  644MOL0     H86884   6.478  10.092   1.517 -0.5440  0.1741 -4.2284
  644MOL0     H86885   6.441   9.856   1.593  2.6747  1.4254  2.4300
  644MOL0     H86886   6.380   9.956   1.719  1.3503  2.2309  0.3191
  644MOL0     H86887   6.213   9.791   1.695 -0.0930 -3.5076 -2.4579
  644MOL0     H86888   6.147   9.925   1.617  0.0824 -0.2963 -3.4582
  644MOL0     H86889   6.301   9.692   1.482 -0.5189 -0.9026  0.9159
  644MOL0     H86890   6.221   9.832   1.399 -0.3597  1.6331  1.4601
  644MOL0     H86891   6.086   9.558   1.666 -1.2860  0.2264  1.4851
  644MOL0     H86892   5.746   9.447   1.561 -0.5712  1.4510 -1.2505
  644MOL0     H86893   5.843   9.472   1.710 -2.3259 -1.5338  0.1999
  644MOL0     H86894   5.644   9.687   1.608  0.9949  1.9999  0.3640
  644MOL0     H86895   5.732   9.688   1.759 -2.7313 -1.3267  1.8146
  644MOL0     H86896   5.617   9.483   1.827  0.9328  2.1537  1.5508
  644MOL0     H86897   5.534   9.484   1.658 -2.2378 -1.8517  1.9426
  644MOL0     H86898   5.364   9.590   1.792 -1.1772  2.6438  2.6827
  644MOL0     H86899   5.449   9.719   1.732 -0.8197 -0.0633 -0.4667
  644MOL0     H86900   5.311   9.493   2.020 -1.2120 -0.4996  0.1013
  644MOL0     H86901   5.138   9.432   2.121  2.2956  1.0682 -1.9650
  644MOL0     H86902   5.107   9.532   2.263  0.8110 -1.8012 -0.5122
  644MOL0     H86903   4.988   9.540   2.127  0.1460  1.2480  2.1118
  644MOL0     H86904   4.964  10.177   2.324  0.9460  0.0292  2.0472
  644MOL0     H86905   4.748  10.279   2.394  1.3972  0.4116 -1.1353
  644MOL0     H86906   4.329  10.249   2.247 -0.2066 -1.0267 -1.2942
  644MOL0     H86907   4.407  10.123   2.170  0.0031 -0.9651  0.3528
  644MOL0     H86908   4.356   9.987   2.355  1.9010  1.2136 -2.6360
  644MOL0     H86909   4.267  10.117   2.441 -1.9492  2.5300 -0.9686
  644MOL0     H86910   4.134   9.933   2.324 -1.4033 -2.0020 -3.2586
  644MOL0     H86911   4.173  10.000   2.166 -0.4755  3.3688  0.1700
  644MOL0     H86912   4.011  10.165   2.370 -0.5763 -0.2513 -0.2882
  644MOL0     H86913   4.103  10.221   2.226  2.1260 -0.1795  1.2850
  644MOL0     H86914   3.877  10.019   2.210 -0.0017 -1.6233 -3.5773
  644MOL0     H86915   3.968  10.105   2.082 -2.1192  2.6752 -0.8657
  644MOL0     H86916   3.875  10.317   2.157 -1.2740 -0.1468 -1.4612
  644MOL0     H86917   3.752  10.216   2.092  0.5173 -0.7672 -1.1093
  644MOL0     H86918   3.829  10.254   2.373  2.3928 -3.3942 -2.1384
  644MOL0     H86919   3.687  10.152   2.323 -0.1593 -0.3219 -2.0367
  644MOL0     H86920   3.704  10.450   2.270 -1.3595 -0.6956 -3.0433
  644MOL0     H86921   3.601  10.385   2.401 -0.7549 -0.3956  0.1138
  644MOL0     H86922   4.548   9.953   2.224 -0.2940 -0.5232  3.3904
  644MOL0     H86923   4.760   9.844   2.170  0.7421 -0.8752  1.0322
  644MOL0     H86924   5.249   9.973   2.153 -1.4099  1.1714 -3.7488
  644MOL0     H86925   5.447   9.899   2.039  0.3596  1.0631  1.8370
  644MOL0     H86926   5.930  10.497   1.703  0.0117  0.4667 -1.0202
  644MOL0     H86927   5.774  10.571   1.876  1.4211 -2.3986  0.0011
  644MOL0     H86928   5.561  10.748   2.148 -2.2987  0.5039  0.4603
  644MOL0     H86929   5.394  10.694   2.301 -0.0663 -2.5091 -0.9287
  644MOL0     H86930   5.499  10.520   2.730 -2.2020 -2.5885  0.2165
  644MOL0     H86931   5.429  10.685   2.735  3.6290  0.5617 -1.3452
  644MOL0     H86932   5.289  10.428   2.728  2.0422 -0.7683  1.3819
  644MOL0     H86933   5.204  10.581   2.698  0.8042  0.1733 -1.2254
  644MOL0     H86934   5.238  10.666   2.921 -3.5606 -0.4765 -2.8829
  644MOL0     H86935   5.364  10.535   2.955  0.0373 -2.6921 -1.7896
  644MOL0     H86936   5.163  10.480   3.068 -3.9782  0.0666  1.1593
  644MOL0     H86937   5.164  10.378   2.934  0.3119 -0.4471  1.0137
  644MOL0     H86938   4.868  10.711   2.883  3.2928  3.3790 -0.6026
  644MOL0     H86939   5.674  10.623   2.616 -1.6115 -2.7213  0.3659
  644MOL0     H86940   5.848  10.647   2.454 -1.6425  0.6821  0.7521
  645MOL0     O86941   0.088   5.255   0.544  0.2151 -1.3583  0.1264
  645MOL0     C86942   0.017   5.342   0.587  0.1368 -0.8136 -0.2406
  645MOL0     O86943   0.060   5.463   0.653 -1.0400  0.2871 -0.3218
  645MOL0     C86944   0.199   5.500   0.643  0.8865 -0.6245  0.7767
  645MOL0     C86945   0.303   5.418   0.677 -0.2462 -0.4236 -1.3267
  645MOL0     C86946   0.441   5.461   0.666 -0.1824  0.0353  0.0289
  645MOL0     C86947   0.466   5.592   0.614  0.2734  0.6389  0.2567
  645MOL0     O86948   0.596   5.637   0.588 -0.4832  0.4893 -0.5798
  645MOL0     C86949   0.641   5.744   0.674  0.2010  0.7533 -0.3376
  645MOL0     C86950   0.608   5.874   0.596  0.3517 -0.0030 -0.9303
  645MOL0     C86951   0.681   5.873   0.456 -0.5564  0.0719 -0.6970
  645MOL0     C86952   0.616   5.981   0.378  0.7722 -0.2611 -0.3292
  645MOL0     C86953   0.694   5.990   0.246  0.2830 -0.2692  0.0583
  645MOL0     C86954   0.860   5.998   0.241 -0.4606 -0.1586  0.0095
  645MOL0     C86955   0.902   6.031   0.103  0.4237  0.3601  0.2342
  645MOL0     C86956   0.879   5.908   0.006 -0.4709 -0.0664 -0.0741
  645MOL0     N86957   0.944   5.937  -0.122 -0.4120  0.7409  0.5175
  645MOL0     C86958   0.879   5.951  -0.237 -1.1089  1.1496  0.5737
  645MOL0     C86959   0.972   5.987  -0.331 -0.4918  0.2231 -0.3562
  645MOL0     C86960   0.946   5.991  -0.475 -0.1740  0.1544 -0.0852
  645MOL0     C86961   0.810   6.026  -0.534  0.4763 -0.1259 -0.5406
  645MOL0     C86962   0.721   5.904  -0.565 -0.1145 -0.3844 -0.8334
  645MOL0     C86963   0.581   5.950  -0.601  1.0759  0.3502 -0.2395
  645MOL0     O86964   0.493   5.833  -0.616 -0.8358 -0.6738 -0.2373
  645MOL0     C86965   0.356   5.840  -0.603 -0.6513 -0.3222 -0.4814
  645MOL0     C86966   0.282   5.954  -0.563 -0.9617 -1.0562  0.2610
  645MOL0     C86967   0.138   5.953  -0.547 -0.0223  0.1743 -0.2517
  645MOL0     C86968   0.066   6.076  -0.511  0.4748  0.4612 -0.8229
  645MOL0     C86969   0.063   5.826  -0.549 -0.3822  0.6723 -0.8044
  645MOL0     C86970  -0.085   5.801  -0.527  0.8220 -0.3823 -0.1457
  645MOL0     O86971  -0.123   5.665  -0.540  0.7637  0.4698 -0.6826
  645MOL0     C86972  -0.245   5.622  -0.501 -0.2857  0.8898  0.7001
  645MOL0     C86973  -0.256   5.609  -0.363  0.2349  1.0474  0.5226
  645MOL0     C86974  -0.378   5.546  -0.311 -0.9898  0.3109  0.0342
  645MOL0     C86975  -0.476   5.524  -0.399  0.3066  1.3564 -0.4988
  645MOL0     O86976  -0.597   5.477  -0.344 -0.2844 -0.1729 -0.0681
  645MOL0     C86977  -0.701   5.572  -0.332 -0.6501  0.7060 -0.4636
  645MOL0     C86978  -0.829   5.495  -0.297 -0.5990 -0.0709  0.4926
  645MOL0     C86979  -0.950   5.586  -0.252  0.0168 -0.6372 -0.1469
  645MOL0     C86980  -1.044   5.631  -0.352 -0.0827  0.1854  0.1119
  645MOL0     C86981  -1.177   5.683  -0.296  0.2593 -0.2895  0.2520
  645MOL0     C86982  -1.175   5.756  -0.163  0.0829 -0.1019  0.1345
  645MOL0     C86983  -1.296   5.853  -0.155  0.2086 -0.0031 -0.3600
  645MOL0     C86984  -1.275   5.993  -0.220 -0.6415  0.2726 -0.0585
  645MOL0    Cl86985  -1.155   6.075  -0.112  0.2299  0.3080 -0.2630
  645MOL0     C86986  -0.465   5.543  -0.533  0.4714 -0.5997  0.1686
  645MOL0     C86987  -0.341   5.584  -0.593  0.7416 -0.4197  0.3076
  645MOL0     O86988  -0.164   5.892  -0.487 -0.4663  0.3019 -0.2738
  645MOL0     C86989   0.140   5.711  -0.580  0.0746 -0.4653  0.5768
  645MOL0     C86990   0.277   5.723  -0.625  0.6092  0.3996  0.3869
  645MOL0     N86991   1.099   5.998  -0.274 -1.0233 -0.1292 -1.1606
  645MOL0     N86992   1.075   5.961  -0.155  0.3228  0.3569 -0.2102
  645MOL0     C86993   0.355   5.668   0.576  0.2627 -0.4794  0.0278
  645MOL0     C86994   0.224   5.625   0.604 -0.3914 -0.1025  1.0531
  645MOL0     C86995  -0.130   5.308   0.592 -0.5474  0.4017  0.0215
  645MOL0     C86996  -0.222   5.409   0.624  0.0982  0.2646  0.6203
  645MOL0     C86997  -0.356   5.373   0.634  0.4077  0.3308 -0.3145
  645MOL0     C86998  -0.399   5.245   0.613 -0.2997  0.2276 -0.9829
  645MOL0     O86999  -0.527   5.208   0.647  0.2648 -0.3718  0.4965
  645MOL0     C87000  -0.635   5.215   0.544 -0.6549 -0.4193  0.4232
  645MOL0     C87001  -0.772   5.243   0.594  0.1724  1.2496 -0.0454
  645MOL0     C87002  -0.826   5.128   0.686 -0.0267 -0.0387  0.6391
  645MOL0     C87003  -0.961   5.158   0.744 -0.0194 -0.8218 -0.1346
  645MOL0     C87004  -1.054   5.176   0.636 -0.8620  0.0107  1.5974
  645MOL0     C87005  -1.121   5.198   0.539 -0.4453  0.5344 -0.7623
  645MOL0     C87006  -0.307   5.141   0.592 -0.8084 -0.0404 -0.2133
  645MOL0     C87007  -0.172   5.168   0.577 -0.4711 -0.2265  1.1299
  645MOL0     H87008   0.282   5.313   0.695  2.0395 -0.4820  1.6599
  645MOL0     H87009   0.516   5.388   0.694 -0.4397  0.1994  1.1979
  645MOL0     H87010   0.587   5.751   0.769 -1.6718 -1.7515 -1.1256
  645MOL0     H87011   0.748   5.731   0.689 -0.0634 -1.7621 -0.2047
  645MOL0     H87012   0.500   5.877   0.577 -0.0284 -0.5017  0.9472
  645MOL0     H87013   0.637   5.963   0.652 -2.7114 -0.3674  1.4838
  645MOL0     H87014   0.788   5.891   0.467 -0.6948  1.3745 -1.3292
  645MOL0     H87015   0.670   5.777   0.406  1.2782 -1.9405  2.4411
  645MOL0     H87016   0.510   5.967   0.355  1.1420 -1.5868 -1.3630
  645MOL0     H87017   0.630   6.071   0.439 -0.0508 -1.4573  1.7166
  645MOL0     H87018   0.660   5.907   0.185 -1.1191 -0.5230  1.1274
  645MOL0     H87019   0.649   6.074   0.192 -0.6415 -2.8371 -3.4442
  645MOL0     H87020   0.879   6.079   0.312 -1.9118  0.2425 -0.0203
  645MOL0     H87021   0.886   5.897   0.273 -2.4117 -0.7126 -0.0052
  645MOL0     H87022   0.861   6.124   0.063  0.8923  0.4735  0.0123
  645MOL0     H87023   1.010   6.047   0.095  0.0979  2.5972 -0.3011
  645MOL0     H87024   0.772   5.899  -0.016 -0.5008  1.7615 -0.9437
  645MOL0     H87025   0.925   5.819   0.048 -0.9173 -0.8091 -1.1105
  645MOL0     H87026   0.779   5.911  -0.255 -0.1853 -0.5669 -1.1983
  645MOL0     H87027   1.019   6.064  -0.513 -1.5694  1.6045 -0.1090
  645MOL0     H87028   0.972   5.891  -0.511  1.9566 -0.0725  1.8739
  645MOL0     H87029   0.832   6.079  -0.627  2.0116  1.7951  0.8307
  645MOL0     H87030   0.766   6.096  -0.463  0.8449  3.2641 -3.4085
  645MOL0     H87031   0.726   5.839  -0.478 -2.1088 -0.2745 -0.5953
  645MOL0     H87032   0.765   5.848  -0.648  0.5607 -3.0369  1.1879
  645MOL0     H87033   0.565   6.023  -0.681 -3.8146  1.5018  1.4450
  645MOL0     H87034   0.547   6.009  -0.515  2.2026  1.3149 -0.4195
  645MOL0     H87035   0.345   6.041  -0.551  0.6858 -2.3728  1.6732
  645MOL0     H87036   0.003   6.106  -0.596  0.5128  2.7114 -0.1185
  645MOL0     H87037   0.020   6.069  -0.412  1.8223  0.6250 -0.1679
  645MOL0     H87038   0.149   6.146  -0.499 -0.2027  1.1730 -0.0647
  645MOL0     H87039  -0.180   5.643  -0.294 -0.5526  0.0889  1.9166
  645MOL0     H87040  -0.397   5.545  -0.204  1.8896 -1.5674  0.6224
  645MOL0     H87041  -0.697   5.639  -0.246 -3.4318  1.7762 -1.0700
  645MOL0     H87042  -0.714   5.628  -0.425 -1.1129 -1.9416 -2.1086
  645MOL0     H87043  -0.860   5.429  -0.379 -4.0646 -2.4350  3.4029
  645MOL0     H87044  -0.802   5.417  -0.225 -0.4486 -1.7427 -1.2808
  645MOL0     H87045  -0.908   5.673  -0.201 -1.0334 -1.2015  1.7840
  645MOL0     H87046  -1.017   5.528  -0.189 -1.4673 -1.6063 -2.4899
  645MOL0     H87047  -0.998   5.722  -0.391 -0.1669  0.2469  0.1557
  645MOL0     H87048  -1.068   5.555  -0.427  1.6878  0.2346 -0.5549
  645MOL0     H87049  -1.254   5.606  -0.303 -2.7619  2.5700 -0.8369
  645MOL0     H87050  -1.203   5.757  -0.373 -0.7400 -0.2167  0.6460
  645MOL0     H87051  -1.163   5.695  -0.073  0.4469 -0.4570 -0.1523
  645MOL0     H87052  -1.090   5.825  -0.168 -0.4325  0.5377  0.1307
  645MOL0     H87053  -1.323   5.865  -0.050 -2.0517  0.2753 -0.9069
  645MOL0     H87054  -1.378   5.812  -0.216  2.0497 -0.4142 -2.6920
  645MOL0     H87055  -1.367   6.053  -0.220 -0.3354  0.7686  1.0997
  645MOL0     H87056  -1.225   5.972  -0.315 -0.9853  1.2013 -0.4598
  645MOL0     H87057  -0.550   5.529  -0.599  1.2053  0.9199 -1.1739
  645MOL0     H87058  -0.311   5.599  -0.696  0.6627  1.6372  0.5408
  645MOL0     H87059   0.096   5.615  -0.602 -2.5219  0.6359  0.6183
  645MOL0     H87060   0.303   5.631  -0.676 -0.2325  0.6402 -0.5022
  645MOL0     H87061   0.367   5.760   0.520  1.3737  0.3724  1.5746
  645MOL0     H87062   0.142   5.684   0.566  0.9025  0.6059 -0.7927
  645MOL0     H87063  -0.197   5.512   0.647 -2.5113  0.6676  2.0945
  645MOL0     H87064  -0.438   5.440   0.658  0.4525  0.4464 -0.4895
  645MOL0     H87065  -0.604   5.288   0.469 -1.7502 -1.1088 -0.7512
  645MOL0     H87066  -0.638   5.115   0.500  1.8592  0.0888 -1.0707
  645MOL0     H87067  -0.843   5.249   0.511 -1.4228  1.2092  1.2573
  645MOL0     H87068  -0.769   5.338   0.647 -0.4959  1.7909 -0.9441
  645MOL0     H87069  -0.757   5.092   0.763  0.5504 -3.8688 -1.4075
  645MOL0     H87070  -0.832   5.034   0.632  1.3742 -0.7791  1.6954
  645MOL0     H87071  -0.971   5.258   0.788 -0.0239  0.5525 -3.0184
  645MOL0     H87072  -0.990   5.084   0.818  2.2613  0.5968  2.3509
  645MOL0     H87073  -1.181   5.230   0.455 -2.9384 -1.4424  0.1322
  645MOL0     H87074  -0.346   5.040   0.588 -0.5450 -0.1143 -2.3480
  645MOL0     H87075  -0.107   5.089   0.543  2.5704  2.2287  0.7330
  646MOL0     O87076   2.292   0.684  10.366 -0.0284  0.6364 -0.2993
  646MOL0     C87077   2.287   0.641  10.253 -0.4832 -0.0077  0.5331
  646MOL0     O87078   2.171   0.619  10.185  0.0810 -0.2007  0.0492
  646MOL0     C87079   2.045   0.635  10.240 -0.6929 -0.0241  1.0105
  646MOL0     C87080   1.998   0.617  10.371  0.8630 -0.2926 -0.6565
  646MOL0     C87081   1.869   0.640  10.408  0.5272  0.3423 -0.0709
  646MOL0     C87082   1.775   0.671  10.313 -0.1225  0.3915  0.3981
  646MOL0     O87083   1.643   0.694  10.344 -0.4374 -0.6423  0.1499
  646MOL0     C87084   1.582   0.568  10.384  0.3585  0.2796 -0.0117
  646MOL0     C87085   1.473   0.532  10.286  0.6446  0.2624  0.0124
  646MOL0     C87086   1.381   0.419  10.343  0.9518 -0.4381  0.4232
  646MOL0     C87087   1.440   0.281  10.345  0.8232  0.9731 -0.1440
  646MOL0     C87088   1.336   0.174  10.390 -0.0671  0.1870 -0.6974
  646MOL0     C87089   1.235   0.214  10.494 -1.0487  0.2357  1.0812
  646MOL0     C87090   1.169   0.089  10.554  0.4215 -0.5457 -0.0929
  646MOL0     C87091   1.060   0.134  10.652  0.3627 -0.5458  0.5248
  646MOL0     N87092   1.047   0.025  10.744 -0.0441  0.6298  0.4380
  646MOL0     C87093   0.943  -0.066  10.711 -1.0716  0.7133 -0.5138
  646MOL0     C87094   0.925  -0.132  10.827  0.0807 -0.3118 -0.7185
  646MOL0     C87095   0.836  -0.245  10.847  0.2658  0.1233  0.4488
  646MOL0     C87096   0.684  -0.210  10.851  0.1865  0.2402 -0.1872
  646MOL0     C87097   0.626  -0.193  11.001 -0.6753 -0.2067 -0.3573
  646MOL0     C87098   0.471  -0.176  10.985  1.0586  0.5486 -0.3716
  646MOL0     O87099   0.439  -0.174  11.124 -0.5049 -0.5182 -0.2090
  646MOL0     C87100   0.311  -0.193  11.154  1.3568 -0.2160 -0.5335
  646MOL0     C87101   0.273  -0.222  11.289 -0.5503 -0.8554  0.4974
  646MOL0     C87102   0.144  -0.231  11.338  0.7429  0.7704  1.0355
  646MOL0     C87103   0.126  -0.252  11.483 -0.3703 -0.5891  0.4364
  646MOL0     C87104   0.037  -0.195  11.252 -0.4228  0.7896  0.9260
  646MOL0     C87105  -0.107  -0.213  11.268 -0.2098 -0.6402 -0.1166
  646MOL0     O87106  -0.155  -0.212  11.392  0.2165  0.1905  0.5755
  646MOL0     C87107  -0.288  -0.242  11.438  0.3015 -0.9465 -0.1487
  646MOL0     C87108  -0.398  -0.288  11.361  0.0395  0.5497 -0.7172
  646MOL0     C87109  -0.530  -0.312  11.408  0.0717 -0.6102 -0.5651
  646MOL0     C87110  -0.544  -0.300  11.552 -0.3723  0.1167 -0.1508
  646MOL0     O87111  -0.664  -0.325  11.606 -0.0390 -0.1281  0.2157
  646MOL0     C87112  -0.723  -0.449  11.571 -0.1913  1.0055 -0.1791
  646MOL0     C87113  -0.866  -0.418  11.588  0.2537 -0.2974 -0.1416
  646MOL0     C87114  -0.950  -0.547  11.556 -0.0184  0.5447 -0.5125
  646MOL0     C87115  -0.997  -0.550  11.405 -0.5959 -0.6074 -0.3817
  646MOL0     C87116  -1.144  -0.502  11.384 -0.2717 -0.0249  0.2005
  646MOL0     C87117  -1.167  -0.352  11.401 -0.0721 -0.0972 -0.0290
  646MOL0     C87118  -1.306  -0.306  11.364  0.7222  0.4957 -0.6118
  646MOL0     C87119  -1.323  -0.146  11.386  0.8112 -0.6379 -0.7480
  646MOL0    Cl87120  -1.236  -0.075  11.254  0.5162  0.3506 -0.1109
  646MOL0     C87121  -0.437  -0.273  11.638 -1.4764 -0.0296 -0.1725
  646MOL0     C87122  -0.307  -0.238  11.578  0.9499 -0.9121  0.0419
  646MOL0     O87123  -0.181  -0.230  11.169  0.6347 -0.1946  0.4098
  646MOL0     C87124   0.072  -0.139  11.123 -0.4041  0.5023 -0.0910
  646MOL0     C87125   0.206  -0.139  11.073 -0.1978 -0.2891  0.6355
  646MOL0     N87126   1.025  -0.086  10.923  0.2705  0.3273  0.1157
  646MOL0     N87127   1.092   0.008  10.876 -0.0030 -0.3305  0.4606
  646MOL0     C87128   1.819   0.680  10.179  0.6429  0.6788 -0.2592
  646MOL0     C87129   1.952   0.670  10.146  0.1837  0.0004 -0.0556
  646MOL0     C87130   2.403   0.594  10.181 -0.5043 -0.4105 -0.0792
  646MOL0     C87131   2.529   0.580  10.244  0.1898  0.1421 -0.0150
  646MOL0     C87132   2.633   0.541  10.159  0.0230 -0.1391  0.0789
  646MOL0     C87133   2.627   0.513  10.016  0.1218  0.2797 -0.2726
  646MOL0     O87134   2.748   0.490   9.961 -0.1423 -0.2873  0.2741
  646MOL0     C87135   2.755   0.465   9.821 -0.5986  0.0787 -0.3068
  646MOL0     C87136   2.777   0.593   9.744 -0.6434  1.0945  0.2525
  646MOL0     C87137   2.897   0.678   9.787 -0.0961  0.1824 -0.3206
  646MOL0     C87138   2.942   0.765   9.674 -0.2211  0.3970  0.9848
  646MOL0     C87139   2.846   0.863   9.625  0.8392  0.2576  0.1462
  646MOL0     C87140   2.766   0.951   9.587  0.0183 -0.8981 -0.7129
  646MOL0     C87141   2.494   0.530   9.965  0.3193  0.9322 -0.4897
  646MOL0     C87142   2.389   0.570  10.046 -0.1167 -0.0399 -0.1808
  646MOL0     H87143   2.058   0.588  10.456 -1.0840 -3.1903 -0.1332
  646MOL0     H87144   1.845   0.621  10.512  2.1198  1.7618  0.6236
  646MOL0     H87145   1.651   0.483  10.385 -0.2202 -0.2051  1.0343
  646MOL0     H87146   1.550   0.566  10.489 -1.3232  1.7138 -0.4515
  646MOL0     H87147   1.419   0.621  10.253  0.4597 -0.5025 -1.8791
  646MOL0     H87148   1.523   0.499  10.194  0.2287 -1.7129  0.4616
  646MOL0     H87149   1.330   0.453  10.433  0.8273  2.0642 -0.5105
  646MOL0     H87150   1.296   0.409  10.274  1.2674  1.3443 -0.2895
  646MOL0     H87151   1.455   0.250  10.241 -1.7260 -0.8966 -0.0663
  646MOL0     H87152   1.534   0.286  10.399  0.8172  0.8194 -0.1163
  646MOL0     H87153   1.271   0.139  10.309 -1.6943 -1.2005  1.1287
  646MOL0     H87154   1.396   0.092  10.433 -1.8981 -2.0482 -2.1468
  646MOL0     H87155   1.283   0.271  10.574  0.7805  2.2190 -1.2730
  646MOL0     H87156   1.154   0.274  10.451 -1.3914  0.1424  1.5829
  646MOL0     H87157   1.120   0.031  10.476 -1.9261  0.0039  0.8809
  646MOL0     H87158   1.243   0.028  10.605 -0.8245 -1.0834  1.1178
  646MOL0     H87159   0.973   0.159  10.590  1.2607  2.8526  0.4249
  646MOL0     H87160   1.085   0.221  10.713  2.3918 -1.9654  1.8531
  646MOL0     H87161   0.887  -0.073  10.618 -0.5681  0.4248 -0.8013
  646MOL0     H87162   0.856  -0.323  10.773 -1.5340 -1.8812  1.9487
  646MOL0     H87163   0.872  -0.283  10.943 -0.8469 -1.7540  0.1673
  646MOL0     H87164   0.620  -0.267  10.783 -0.1983  1.1354 -0.5868
  646MOL0     H87165   0.668  -0.108  10.815 -1.3897 -0.9169 -3.1022
  646MOL0     H87166   0.656  -0.103  11.057 -0.7045  0.3828 -1.2630
  646MOL0     H87167   0.655  -0.273  11.070  0.3264  2.7734  2.9971
  646MOL0     H87168   0.432  -0.261  10.928 -0.5227  1.1008 -0.1724
  646MOL0     H87169   0.450  -0.081  10.933 -3.0988 -2.1435 -4.4388
  646MOL0     H87170   0.358  -0.247  11.351 -2.2936 -1.2414  2.8698
  646MOL0     H87171   0.218  -0.290  11.528  0.7436  0.7354 -0.6059
  646MOL0     H87172   0.090  -0.162  11.533 -0.9887 -0.2652 -0.5508
  646MOL0     H87173   0.048  -0.327  11.502 -2.1595  1.1821  0.4099
  646MOL0     H87174  -0.392  -0.297  11.253  2.0942  1.0682 -0.6890
  646MOL0     H87175  -0.603  -0.348  11.336  0.0445 -1.8528  0.0745
  646MOL0     H87176  -0.688  -0.485  11.473  0.6474  0.4080  0.3292
  646MOL0     H87177  -0.693  -0.525  11.643  0.2489 -1.0549 -2.3788
  646MOL0     H87178  -0.887  -0.383  11.689 -2.7754 -2.8712  0.2649
  646MOL0     H87179  -0.889  -0.334  11.521 -2.1049 -1.2859 -0.6580
  646MOL0     H87180  -1.035  -0.559  11.624  0.8910 -0.2818  0.4963
  646MOL0     H87181  -0.891  -0.638  11.570 -1.7309 -1.1106 -3.1726
  646MOL0     H87182  -0.945  -0.478  11.342  0.5030 -1.3198 -0.3121
  646MOL0     H87183  -0.987  -0.649  11.360  1.3197  0.1828 -1.8195
  646MOL0     H87184  -1.209  -0.554  11.454  1.6140 -1.2655  1.1209
  646MOL0     H87185  -1.185  -0.538  11.289 -2.7214  1.0193  0.7782
  646MOL0     H87186  -1.149  -0.329  11.506 -3.3830  0.6079  0.5025
  646MOL0     H87187  -1.093  -0.301  11.338  0.8034 -1.3808 -0.0877
  646MOL0     H87188  -1.379  -0.358  11.428 -1.9674  2.3097 -1.9920
  646MOL0     H87189  -1.334  -0.335  11.263 -2.0050 -4.1179  1.1406
  646MOL0     H87190  -1.283  -0.117  11.483  2.0551 -0.7582 -1.2067
  646MOL0     H87191  -1.424  -0.104  11.396  1.2788  0.3027  0.0543
  646MOL0     H87192  -0.442  -0.279  11.746  1.8721  0.3624  0.1065
  646MOL0     H87193  -0.228  -0.210  11.646  0.4453 -1.4559  0.8669
  646MOL0     H87194  -0.007  -0.096  11.062 -1.0045 -0.1766  0.1873
  646MOL0     H87195   0.212  -0.098  10.973 -2.5614 -0.6433  0.2970
  646MOL0     H87196   1.743   0.702  10.104 -0.9110 -2.9723  0.0350
  646MOL0     H87197   1.970   0.684  10.040 -2.4779 -2.8867 -1.0416
  646MOL0     H87198   2.536   0.604  10.349 -1.5654 -2.8889  0.9267
  646MOL0     H87199   2.729   0.534  10.210  0.0986 -0.2520 -0.0754
  646MOL0     H87200   2.840   0.399   9.802 -1.8051 -0.6927 -3.6527
  646MOL0     H87201   2.669   0.409   9.783  0.4707 -1.0980 -1.0589
  646MOL0     H87202   2.685   0.652   9.748 -0.5445  1.3635 -1.0098
  646MOL0     H87203   2.781   0.559   9.640 -4.8119 -1.0737  0.5883
  646MOL0     H87204   2.971   0.611   9.833 -0.0794  1.7179  2.0875
  646MOL0     H87205   2.859   0.744   9.866 -1.4358 -0.3286 -0.5170
  646MOL0     H87206   2.986   0.693   9.605  2.3873  2.1051  0.7124
  646MOL0     H87207   3.028   0.826   9.705 -1.2139  2.4959 -0.2174
  646MOL0     H87208   2.694   1.029   9.574  2.6119  2.7194  3.6513
  646MOL0     H87209   2.470   0.499   9.864  2.6040 -0.1223 -0.7817
  646MOL0     H87210   2.296   0.581   9.991 -0.3706  0.4941  0.3469
  647MOL0     O87211   5.837   7.872  11.243  0.2653 -0.3691 -0.1097
  647MOL0     C87212   5.828   7.791  11.331 -0.3274 -0.9189 -0.3144
  647MOL0     O87213   5.941   7.729  11.405  0.1333 -0.3229  0.3197
  647MOL0     C87214   6.073   7.760  11.368  0.7915 -0.3281 -1.3017
  647MOL0     C87215   6.174   7.677  11.416 -0.4154 -0.0001  0.4710
  647MOL0     C87216   6.314   7.696  11.380 -0.9783  0.5014  0.1427
  647MOL0     C87217   6.353   7.804  11.290  0.5264  0.6255  0.1604
  647MOL0     O87218   6.477   7.834  11.239 -0.7235  0.4445 -0.2029
  647MOL0     C87219   6.593   7.748  11.270  0.9875  0.0612  0.1878
  647MOL0     C87220   6.714   7.787  11.191 -0.0710  1.1722  0.1223
  647MOL0     C87221   6.764   7.920  11.201  0.4410 -0.0367  1.1350
  647MOL0     C87222   6.907   7.915  11.238 -1.0366 -0.0919 -0.5192
  647MOL0     C87223   6.978   8.047  11.241  0.2802 -0.4906  0.1449
  647MOL0     C87224   7.092   8.059  11.342 -0.3380  0.2057 -0.1587
  647MOL0     C87225   7.178   7.942  11.336  0.9134 -0.7952 -0.4243
  647MOL0     C87226   7.307   7.973  11.411 -0.5155  0.5354 -1.1114
  647MOL0     N87227   7.373   7.851  11.469  0.2120 -0.8566  0.4152
  647MOL0     C87228   7.446   7.851  11.590  0.3451  0.0531  0.0828
  647MOL0     C87229   7.474   7.724  11.604  0.2708  0.1640 -1.0307
  647MOL0     C87230   7.544   7.646  11.712 -0.1319 -0.4033  0.9411
  647MOL0     C87231   7.689   7.614  11.678 -1.1067  0.2945  0.3930
  647MOL0     C87232   7.789   7.736  11.696  1.1151  0.0897  0.3733
  647MOL0     C87233   7.824   7.741  11.844  0.2777 -1.0248 -0.3963
  647MOL0     O87234   7.948   7.674  11.870 -0.1316 -0.5085  0.8040
  647MOL0     C87235   8.071   7.743  11.861 -0.0144 -0.8420  0.2190
  647MOL0     C87236   8.098   7.860  11.789  0.9456  0.1618 -0.0033
  647MOL0     C87237   8.220   7.918  11.790 -0.3829  0.5883  0.9322
  647MOL0     C87238   8.237   8.042  11.703 -0.2983  0.1067 -0.0617
  647MOL0     C87239   8.320   7.866  11.870 -0.2169 -0.3324  0.1193
  647MOL0     C87240   8.453   7.921  11.867 -0.0540  0.4048  0.2918
  647MOL0     O87241   8.459   8.033  11.940  0.2728  0.3939 -0.2613
  647MOL0     C87242   8.593   8.079  11.949 -0.2257 -0.2786  0.4110
  647MOL0     C87243   8.680   8.047  12.048  0.6821 -1.0551  0.0558
  647MOL0     C87244   8.812   8.099  12.060  0.2238  0.1720  0.6439
  647MOL0     C87245   8.864   8.179  11.954 -0.2386 -0.0256  0.4982
  647MOL0     O87246   8.993   8.235  11.943 -0.5691  0.1044 -0.6260
  647MOL0     C87247   9.104   8.188  12.029  0.9477 -0.5680  0.3003
  647MOL0     C87248   9.233   8.269  12.005  0.3281 -0.0212 -0.0591
  647MOL0     C87249   9.296   8.274  11.876 -0.4438  0.2541  0.1432
  647MOL0     C87250   9.427   8.352  11.880 -0.9174  1.1531 -0.6215
  647MOL0     C87251   9.485   8.377  11.747  0.3559  0.5046  0.2712
  647MOL0     C87252   9.614   8.459  11.761 -0.1978 -0.6298  0.0702
  647MOL0     C87253   9.689   8.486  11.631 -0.1789  0.5748 -0.1260
  647MOL0     C87254   9.808   8.572  11.643  0.5873 -0.1850  0.0803
  647MOL0    Cl87255   9.869   8.621  11.483 -0.6368  0.3801  0.1115
  647MOL0     C87256   8.774   8.217  11.858 -0.1649 -0.6651  0.3159
  647MOL0     C87257   8.640   8.165  11.848 -0.8511  0.0032 -0.1327
  647MOL0     O87258   8.546   7.852  11.823 -0.3670  0.1216  0.1888
  647MOL0     C87259   8.306   7.745  11.930  0.0302 -0.4587 -0.1360
  647MOL0     C87260   8.182   7.683  11.928 -1.4036 -0.5598  0.1112
  647MOL0     N87261   7.432   7.656  11.491 -0.5145 -0.5106 -0.5892
  647MOL0     N87262   7.382   7.732  11.409 -0.3532 -0.8736  0.4044
  647MOL0     C87263   6.249   7.881  11.235 -0.5185  0.1217  0.1756
  647MOL0     C87264   6.117   7.854  11.273  0.4472 -0.8520 -0.5666
  647MOL0     C87265   5.695   7.737  11.348  0.1058 -0.4387  0.5971
  647MOL0     C87266   5.675   7.629  11.440 -0.2662  0.0663  0.2065
  647MOL0     C87267   5.541   7.566  11.460 -0.6066  0.1315  0.6716
  647MOL0     C87268   5.432   7.622  11.386  1.2221  0.2093 -0.0789
  647MOL0     O87269   5.303   7.564  11.401 -0.1704  0.4002  0.2086
  647MOL0     C87270   5.191   7.615  11.329 -0.1227  0.0599 -1.3757
  647MOL0     C87271   5.189   7.574  11.180 -0.0546  0.7157  0.3896
  647MOL0     C87272   5.130   7.428  11.161 -0.3104 -0.4311  0.2379
  647MOL0     C87273   5.115   7.380  11.012  0.3396 -0.2847  0.3665
  647MOL0     C87274   5.037   7.479  10.926 -0.5873 -0.0787  0.5525
  647MOL0     C87275   4.985   7.564  10.866 -0.2885  0.5161 -0.4290
  647MOL0     C87276   5.460   7.721  11.282 -1.2932  0.0026 -0.1504
  647MOL0     C87277   5.587   7.781  11.273 -0.1331  0.5267  1.2271
  647MOL0     H87278   6.147   7.597  11.485 -1.3067  0.7640  1.0198
  647MOL0     H87279   6.384   7.626  11.425 -1.0671 -0.8007 -1.6058
  647MOL0     H87280   6.618   7.775  11.373  1.5530 -0.4680  0.1913
  647MOL0     H87281   6.561   7.646  11.247  1.3903  0.0658 -0.4046
  647MOL0     H87282   6.795   7.721  11.224  0.8651  2.7428  1.1054
  647MOL0     H87283   6.692   7.766  11.086 -0.9538 -0.5471  0.5988
  647MOL0     H87284   6.763   7.962  11.099 -1.1143  0.2777  1.2479
  647MOL0     H87285   6.699   7.973  11.272 -1.2439 -1.2643  0.5779
  647MOL0     H87286   6.904   7.876  11.341 -3.6597  0.4897 -0.3028
  647MOL0     H87287   6.968   7.844  11.182  0.6850  1.6292 -0.9292
  647MOL0     H87288   7.009   8.056  11.137 -0.1498  0.5969  0.0906
  647MOL0     H87289   6.911   8.132  11.260  1.5910  0.3134  1.4533
  647MOL0     H87290   7.153   8.144  11.309 -1.0071  0.7582  0.0122
  647MOL0     H87291   7.055   8.063  11.445 -0.2721  1.4774 -0.1689
  647MOL0     H87292   7.134   7.856  11.389 -0.2513 -0.9597 -1.5910
  647MOL0     H87293   7.203   7.928  11.231  1.4188 -1.0625 -0.2719
  647MOL0     H87294   7.307   8.042  11.495  2.4559  0.5726 -1.0211
  647MOL0     H87295   7.384   8.022  11.351  0.6327  1.8701  1.2945
  647MOL0     H87296   7.463   7.928  11.665 -1.8959  2.4348 -1.6641
  647MOL0     H87297   7.545   7.719  11.794  1.5925  0.4661  0.2137
  647MOL0     H87298   7.497   7.552  11.742  0.1796 -0.3365  1.6514
  647MOL0     H87299   7.699   7.592  11.571 -1.7778 -0.2655  0.4380
  647MOL0     H87300   7.715   7.531  11.744 -1.0812  0.3631  0.4693
  647MOL0     H87301   7.727   7.817  11.658 -4.3364 -3.3179  0.8967
  647MOL0     H87302   7.870   7.718  11.624  2.2166 -0.9421  1.8160
  647MOL0     H87303   7.750   7.698  11.912  1.3297 -2.5584 -0.1713
  647MOL0     H87304   7.835   7.846  11.873 -1.0057 -0.8538 -0.4658
  647MOL0     H87305   8.018   7.907  11.733  0.2309 -2.0831 -0.9526
  647MOL0     H87306   8.151   8.110  11.711 -0.2904 -0.0814  2.0561
  647MOL0     H87307   8.309   8.110  11.749 -1.3209 -0.6611  2.9002
  647MOL0     H87308   8.243   8.021  11.596  0.2225  0.9156 -0.1994
  647MOL0     H87309   8.654   7.971  12.121  2.3437 -0.1739  1.6434
  647MOL0     H87310   8.877   8.071  12.142 -0.9244 -1.8589  0.9354
  647MOL0     H87311   9.067   8.197  12.132  1.3167  0.2295  0.3750
  647MOL0     H87312   9.117   8.083  12.004  0.1022 -1.1505  2.0746
  647MOL0     H87313   9.208   8.370  12.037 -0.5595  0.0225 -0.8507
  647MOL0     H87314   9.300   8.221  12.077 -1.3821 -1.9961  0.3253
  647MOL0     H87315   9.227   8.324  11.806 -3.0888  0.2273  2.5684
  647MOL0     H87316   9.315   8.178  11.828  1.5156  1.3947 -1.5322
  647MOL0     H87317   9.423   8.444  11.939 -0.6178 -0.6227  2.3775
  647MOL0     H87318   9.504   8.292  11.930 -1.7544 -0.9999 -1.8109
  647MOL0     H87319   9.410   8.430  11.688 -0.1032 -1.5032 -1.0521
  647MOL0     H87320   9.513   8.280  11.705  1.6670  1.1372 -0.3660
  647MOL0     H87321   9.586   8.551  11.812 -0.7820 -1.7084  1.8078
  647MOL0     H87322   9.684   8.406  11.827  0.1084 -1.7259 -1.0835
  647MOL0     H87323   9.614   8.538  11.571 -1.9030 -0.7023  0.8276
  647MOL0     H87324   9.720   8.393  11.582  2.2538  1.4734 -0.4331
  647MOL0     H87325   9.885   8.519  11.700  1.5772 -1.6914 -2.4809
  647MOL0     H87326   9.772   8.664  11.690  1.7538 -0.1059  0.8554
  647MOL0     H87327   8.814   8.287  11.786  1.1523  0.2396  1.8711
  647MOL0     H87328   8.576   8.197  11.767  0.3412  2.5606 -0.1394
  647MOL0     H87329   8.386   7.699  11.989  1.0172 -1.0862 -1.8800
  647MOL0     H87330   8.168   7.588  11.979  2.6181 -1.5244 -0.2542
  647MOL0     H87331   6.266   7.953  11.156  1.7374 -0.9979 -0.4250
  647MOL0     H87332   6.055   7.933  11.231  0.6615 -0.4818 -0.1959
  647MOL0     H87333   5.758   7.599  11.504  1.9335  3.4666 -0.7585
  647MOL0     H87334   5.529   7.485  11.531  1.3855  0.9203  1.9939
  647MOL0     H87335   5.096   7.588  11.374 -1.1400  2.8588 -1.6105
  647MOL0     H87336   5.181   7.724  11.341 -0.5272  0.1198 -2.1518
  647MOL0     H87337   5.288   7.578  11.133 -0.1864 -0.0588  0.0300
  647MOL0     H87338   5.117   7.642  11.133 -1.2811  0.0272  1.2010
  647MOL0     H87339   5.039   7.426  11.221  2.0383  1.8849  4.2573
  647MOL0     H87340   5.211   7.369  11.203  0.7122  0.5527 -0.3037
  647MOL0     H87341   5.061   7.285  11.012  0.4356 -0.3389  0.6286
  647MOL0     H87342   5.211   7.373  10.959 -1.1622  0.8446 -2.7685
  647MOL0     H87343   4.936   7.630  10.797 -1.2099 -0.4864 -0.7694
  647MOL0     H87344   5.384   7.772  11.224 -2.2651  1.0849  1.9452
  647MOL0     H87345   5.591   7.858  11.197 -1.7275 -2.5017 -2.2144
  648MOL0     O87346   1.640   9.991   7.146 -0.3987  1.5763 -0.1646
  648MOL0     C87347   1.521   9.975   7.159  0.0828 -1.5704  0.6568
  648MOL0     O87348   1.431   9.919   7.068 -0.8253 -0.9515 -0.2028
  648MOL0     C87349   1.481   9.902   6.942  1.2448 -0.6318  0.0554
  648MOL0     C87350   1.541  10.003   6.869  0.4915 -0.1519 -0.4813
  648MOL0     C87351   1.571   9.979   6.736  0.7139  0.0465  0.0401
  648MOL0     C87352   1.562   9.851   6.675 -0.3356  0.7588 -0.4032
  648MOL0     O87353   1.587   9.812   6.542  0.4276  0.4232 -0.2124
  648MOL0     C87354   1.662   9.898   6.460 -0.6343 -0.8456 -0.7674
  648MOL0     C87355   1.818   9.912   6.492 -0.5149  0.3287  0.0450
  648MOL0     C87356   1.892   9.795   6.419 -0.5140 -0.1665 -0.9184
  648MOL0     C87357   2.052   9.800   6.421  0.0165  0.8894  0.5445
  648MOL0     C87358   2.113   9.680   6.342  1.4893 -0.1517  0.8730
  648MOL0     C87359   2.260   9.679   6.330  0.0969  0.7421  0.0099
  648MOL0     C87360   2.307   9.572   6.230 -0.9301  0.6075  0.5452
  648MOL0     C87361   2.459   9.533   6.244  0.6479  0.2214  0.8736
  648MOL0     N87362   2.500   9.415   6.174 -0.4368 -0.0056 -0.9187
  648MOL0     C87363   2.503   9.287   6.223 -0.5267 -1.1531  0.0195
  648MOL0     C87364   2.554   9.212   6.120 -0.1207  0.3676  0.8683
  648MOL0     C87365   2.604   9.073   6.147  0.1753 -0.8658  0.6354
  648MOL0     C87366   2.527   8.982   6.049  0.6737  0.3242  0.5550
  648MOL0     C87367   2.540   8.832   6.090 -0.3272  0.3373  0.3168
  648MOL0     C87368   2.680   8.787   6.050  0.2675 -0.5094 -0.0467
  648MOL0     O87369   2.758   8.773   6.169  0.0511 -0.4151  0.6148
  648MOL0     C87370   2.900   8.758   6.148  0.4208 -0.7861  1.0428
  648MOL0     C87371   2.972   8.716   6.262  0.2586 -0.0753  0.3156
  648MOL0     C87372   3.108   8.680   6.248 -1.2731 -0.2953  0.4097
  648MOL0     C87373   3.190   8.648   6.380  0.7484 -0.1867  0.6625
  648MOL0     C87374   3.166   8.676   6.119  0.1037  0.1574 -0.1372
  648MOL0     C87375   3.307   8.630   6.087 -0.7579 -0.0152  0.1372
  648MOL0     O87376   3.396   8.610   6.190 -0.3571 -0.0121 -0.0106
  648MOL0     C87377   3.514   8.535   6.182  0.3955  0.0998 -0.1743
  648MOL0     C87378   3.530   8.404   6.239  0.5516 -0.1382  0.6273
  648MOL0     C87379   3.657   8.347   6.239  0.0571 -0.0622  0.2466
  648MOL0     C87380   3.775   8.407   6.191 -0.5252 -0.7432  1.1811
  648MOL0     O87381   3.896   8.349   6.167 -0.3620  0.1280 -0.3616
  648MOL0     C87382   3.958   8.288   6.288  0.0157  0.3316  0.6460
  648MOL0     C87383   4.085   8.235   6.240  0.5455 -0.2565  0.1352
  648MOL0     C87384   4.165   8.180   6.354  1.5077 -0.3130 -0.3768
  648MOL0     C87385   4.286   8.103   6.296  0.7970 -1.2220  0.2725
  648MOL0     C87386   4.374   8.048   6.410  0.0007  0.2853  1.3775
  648MOL0     C87387   4.450   8.156   6.475  0.2747  0.2028  0.3802
  648MOL0     C87388   4.561   8.108   6.571 -0.4396 -0.3745 -1.2742
  648MOL0     C87389   4.688   8.182   6.570 -0.1796 -0.0623  0.2999
  648MOL0    Cl87390   4.813   8.123   6.686 -0.0467  0.6358  0.4959
  648MOL0     C87391   3.757   8.542   6.140 -0.1461  0.4436  0.3742
  648MOL0     C87392   3.634   8.600   6.143  0.6111 -0.7108 -0.5445
  648MOL0     O87393   3.327   8.590   5.971  0.5526 -0.0370 -0.2442
  648MOL0     C87394   3.097   8.731   6.006  0.0989  0.3376 -0.4200
  648MOL0     C87395   2.965   8.768   6.027  0.3890  0.0867 -0.1846
  648MOL0     N87396   2.560   9.278   5.998 -1.2077 -0.0642 -1.1228
  648MOL0     N87397   2.524   9.403   6.038 -0.3941 -0.4437  0.5336
  648MOL0     C87398   1.508   9.757   6.754 -0.9340  0.2380  0.5315
  648MOL0     C87399   1.463   9.777   6.886  0.1083 -0.8081 -0.3313
  648MOL0     C87400   1.466  10.018   7.290  0.7898  0.5828  0.9598
  648MOL0     C87401   1.543  10.084   7.388  0.3218 -0.2578 -0.3951
  648MOL0     C87402   1.486  10.131   7.509  0.3429  0.4494 -0.2416
  648MOL0     C87403   1.349  10.114   7.541 -0.0411  0.4321  0.0844
  648MOL0     O87404   1.296  10.172   7.648 -0.5588  1.0918  0.5269
  648MOL0     C87405   1.186  10.107   7.726 -0.0879  0.2530 -1.0725
  648MOL0     C87406   1.112  10.221   7.795 -0.3906  0.3550 -0.3575
  648MOL0     C87407   1.008  10.165   7.899 -0.1605  0.2241  1.1786
  648MOL0     C87408   1.069  10.146   8.042 -0.0109  0.4153 -0.2663
  648MOL0     C87409   0.969  10.098   8.135 -0.2725 -0.3202 -0.2413
  648MOL0     C87410   0.885  10.071   8.214 -0.0213  0.0238 -0.0423
  648MOL0     C87411   1.267  10.053   7.443  0.2256  0.4400  0.9017
  648MOL0     C87412   1.330   9.998   7.314 -0.7053 -0.0922 -0.8811
  648MOL0     H87413   1.555  10.100   6.915  1.5192 -0.3017 -0.4439
  648MOL0     H87414   1.616  10.056   6.674 -0.2679 -0.5359 -1.4647
  648MOL0     H87415   1.650   9.857   6.360  0.4181 -2.0885 -0.4136
  648MOL0     H87416   1.617   9.998   6.462 -1.6093 -1.2771  0.0875
  648MOL0     H87417   1.860  10.006   6.455  2.7555 -1.3658 -1.0294
  648MOL0     H87418   1.825   9.902   6.601 -4.7526 -1.0562  0.3549
  648MOL0     H87419   1.853   9.704   6.467 -0.9447  0.4909  0.0096
  648MOL0     H87420   1.862   9.793   6.314  1.2955 -1.1138 -1.4540
  648MOL0     H87421   2.079   9.892   6.369  1.8834  1.3800  2.2678
  648MOL0     H87422   2.095   9.809   6.521  0.1000 -0.1952  0.6180
  648MOL0     H87423   2.079   9.586   6.386  2.2842 -0.9298 -0.1169
  648MOL0     H87424   2.065   9.679   6.244 -1.4957 -0.4367  2.2498
  648MOL0     H87425   2.293   9.780   6.303  1.5483  0.8475  1.9572
  648MOL0     H87426   2.310   9.655   6.424 -0.9727  0.3518  0.5016
  648MOL0     H87427   2.247   9.482   6.248 -0.8958 -0.0931 -2.3092
  648MOL0     H87428   2.289   9.612   6.129  2.0052  0.7394 -0.0010
  648MOL0     H87429   2.481   9.535   6.351  1.5380  1.1220  0.6861
  648MOL0     H87430   2.507   9.622   6.204 -1.7757  1.4693  0.5588
  648MOL0     H87431   2.495   9.260   6.327 -0.8580 -1.5962 -0.1173
  648MOL0     H87432   2.711   9.082   6.130  0.0889 -0.8366  0.0776
  648MOL0     H87433   2.590   9.048   6.253 -0.0852  1.3708  1.1756
  648MOL0     H87434   2.561   9.000   5.947  1.9228 -0.4221  0.8178
  648MOL0     H87435   2.420   9.003   6.040  0.8061  0.1647 -2.9654
  648MOL0     H87436   2.457   8.775   6.047  0.6243 -1.2005  0.4393
  648MOL0     H87437   2.530   8.815   6.198 -0.1285 -1.5254  0.0813
  648MOL0     H87438   2.723   8.862   5.984  3.1306 -1.3532  0.7117
  648MOL0     H87439   2.668   8.694   5.993  0.3841  0.3247 -1.4687
  648MOL0     H87440   2.917   8.707   6.355  0.1640 -0.5375  0.2160
  648MOL0     H87441   3.120   8.654   6.464 -2.0804  2.2638 -1.6833
  648MOL0     H87442   3.226   8.545   6.368  1.8853  0.4333 -2.0743
  648MOL0     H87443   3.278   8.711   6.396  0.0814  1.0606 -0.4058
  648MOL0     H87444   3.444   8.356   6.286 -0.1963 -0.5635 -1.0747
  648MOL0     H87445   3.650   8.247   6.281 -1.2838  0.4364  1.3288
  648MOL0     H87446   3.981   8.359   6.368 -1.3151 -1.8002  3.0689
  648MOL0     H87447   3.887   8.210   6.317 -0.9809  0.6415 -0.8584
  648MOL0     H87448   4.060   8.156   6.168 -2.1805 -0.3350  1.0622
  648MOL0     H87449   4.136   8.319   6.192 -0.4086  1.2258  1.6350
  648MOL0     H87450   4.101   8.114   6.412  0.1402 -1.9339 -3.4726
  648MOL0     H87451   4.183   8.273   6.408 -0.8948  0.0720 -0.1134
  648MOL0     H87452   4.253   8.028   6.224  0.3400 -0.1418 -0.6666
  648MOL0     H87453   4.350   8.178   6.249 -0.8189  0.3245  0.4365
  648MOL0     H87454   4.441   7.969   6.375 -1.2809 -0.6086  0.9007
  648MOL0     H87455   4.306   8.004   6.483  0.6199 -0.9345  1.2477
  648MOL0     H87456   4.503   8.211   6.396 -2.2459 -0.5717 -2.0078
  648MOL0     H87457   4.381   8.231   6.516 -0.3373 -0.9187  1.4452
  648MOL0     H87458   4.585   8.007   6.537  0.8589 -0.7312  0.5666
  648MOL0     H87459   4.530   8.116   6.676  1.1537  0.4217 -0.8398
  648MOL0     H87460   4.664   8.287   6.590 -3.5596 -0.5914 -0.4497
  648MOL0     H87461   4.735   8.181   6.471  0.0968 -3.0855  0.3694
  648MOL0     H87462   3.849   8.585   6.101 -0.0586  1.4338  1.5927
  648MOL0     H87463   3.622   8.704   6.112  1.1258 -0.6214 -0.4488
  648MOL0     H87464   3.142   8.749   5.909  1.9857  0.5074  0.4459
  648MOL0     H87465   2.907   8.793   5.939 -1.1168  0.7497  0.9657
  648MOL0     H87466   1.492   9.654   6.723 -1.6577  0.7500 -0.9140
  648MOL0     H87467   1.410   9.697   6.938 -1.3591  0.5756  0.3814
  648MOL0     H87468   1.651  10.089   7.374  0.2346 -1.0747 -1.5242
  648MOL0     H87469   1.548  10.182   7.581  0.9202 -2.5358  1.5645
  648MOL0     H87470   1.118  10.050   7.661 -0.1663 -0.0714 -0.7114
  648MOL0     H87471   1.225  10.046   7.808  0.2899  0.3967 -1.1454
  648MOL0     H87472   1.055  10.281   7.724  0.7284  1.4013 -0.3945
  648MOL0     H87473   1.192  10.271   7.850  2.2900 -1.2710 -2.5384
  648MOL0     H87474   0.970  10.073   7.853  1.8208 -1.4821  2.7844
  648MOL0     H87475   0.929  10.240   7.914  0.4435  0.7622  1.6919
  648MOL0     H87476   1.116  10.234   8.088 -0.6329 -0.8114  2.9804
  648MOL0     H87477   1.153  10.078   8.027 -1.5219 -1.8602  1.0278
  648MOL0     H87478   0.803  10.062   8.283 -0.3109 -1.6264 -0.5586
  648MOL0     H87479   1.162  10.028   7.451 -0.4797  2.9041  0.1087
  648MOL0     H87480   1.265   9.947   7.243 -0.1498 -1.5274 -0.3864
  649MOL0     O87481   6.482   0.802  10.727 -0.6400 -0.5871  0.3816
  649MOL0     C87482   6.587   0.799  10.795  0.0122 -0.2217  0.2509
  649MOL0     O87483   6.609   0.730  10.911  0.0434 -0.5870 -0.2518
  649MOL0     C87484   6.515   0.633  10.939 -0.1496  0.2781  0.5936
  649MOL0     C87485   6.551   0.499  10.954 -0.0097 -0.3444  0.6977
  649MOL0     C87486   6.451   0.404  10.968  0.2964 -0.5452 -0.0029
  649MOL0     C87487   6.319   0.441  10.985  0.2865  0.8798  0.0215
  649MOL0     O87488   6.222   0.341  11.005 -0.1678  0.0539  0.2470
  649MOL0     C87489   6.102   0.341  10.915  0.6697  0.1546  0.4403
  649MOL0     C87490   5.971   0.286  10.975 -0.9322 -0.5614  0.1518
  649MOL0     C87491   5.860   0.280  10.876  0.6213  0.1637  0.7222
  649MOL0     C87492   5.727   0.230  10.939  0.4751  0.8158 -0.6199
  649MOL0     C87493   5.602   0.234  10.858  0.5074 -0.4927  0.4550
  649MOL0     C87494   5.473   0.187  10.927 -0.4506  0.1440 -0.4175
  649MOL0     C87495   5.426   0.283  11.040 -1.1929 -0.2138  0.1797
  649MOL0     C87496   5.307   0.245  11.121  0.3048 -0.6839  0.7124
  649MOL0     N87497   5.185   0.222  11.048 -0.6986 -0.1891  0.5714
  649MOL0     C87498   5.094   0.130  11.073 -0.3230  0.4262 -0.0438
  649MOL0     C87499   4.986   0.134  10.987  0.0631 -0.3633  0.7867
  649MOL0     C87500   4.860   0.045  10.981  0.2652  0.1531 -0.2961
  649MOL0     C87501   4.869  -0.069  10.888 -0.1853 -0.0956 -0.0851
  649MOL0     C87502   4.737  -0.138  10.861  0.8232  1.2435 -0.5975
  649MOL0     C87503   4.671  -0.213  10.980 -0.3392 -0.6422  0.9073
  649MOL0     O87504   4.533  -0.207  10.963  0.4530 -0.1816  0.0311
  649MOL0     C87505   4.466  -0.267  11.069  0.5317 -0.4865 -0.8606
  649MOL0     C87506   4.325  -0.256  11.067  0.2912  0.1232 -0.0424
  649MOL0     C87507   4.249  -0.322  11.158 -0.2387  0.2315 -0.1450
  649MOL0     C87508   4.106  -0.338  11.120 -0.0665 -0.1830 -0.4011
  649MOL0     C87509   4.307  -0.385  11.272 -0.0132 -0.2664  0.4438
  649MOL0     C87510   4.223  -0.448  11.380  0.6238 -0.2344 -0.5058
  649MOL0     O87511   4.293  -0.489  11.488 -0.2848  0.5160  0.1429
  649MOL0     C87512   4.230  -0.568  11.581 -0.2014  0.0224 -0.5841
  649MOL0     C87513   4.195  -0.703  11.551 -0.0860  0.8999 -0.7318
  649MOL0     C87514   4.127  -0.776  11.651 -0.2391 -0.0046 -0.0613
  649MOL0     C87515   4.095  -0.711  11.772  0.3988  0.2113 -0.7329
  649MOL0     O87516   4.009  -0.762  11.871 -0.5513  0.3158  0.1339
  649MOL0     C87517   3.928  -0.881  11.842 -0.1023 -0.2239  0.5533
  649MOL0     C87518   3.778  -0.848  11.815  0.0035  0.2272  0.5767
  649MOL0     C87519   3.757  -0.797  11.671 -0.8752 -1.2451 -0.0102
  649MOL0     C87520   3.616  -0.724  11.669 -0.1288  0.0447 -0.3321
  649MOL0     C87521   3.486  -0.827  11.684 -0.1129 -1.0827 -0.1286
  649MOL0     C87522   3.360  -0.747  11.673 -0.3465 -0.0223 -0.7189
  649MOL0     C87523   3.335  -0.677  11.811  0.2664 -0.2126 -0.0040
  649MOL0     C87524   3.194  -0.628  11.789  0.1136 -0.1825  0.4832
  649MOL0    Cl87525   3.144  -0.557  11.958 -0.2275  0.0477  0.3190
  649MOL0     C87526   4.147  -0.586  11.795 -0.6639 -0.5317 -0.3793
  649MOL0     C87527   4.213  -0.505  11.703 -0.7690  0.6570  0.5593
  649MOL0     O87528   4.099  -0.466  11.366 -0.4012  0.7305 -0.1153
  649MOL0     C87529   4.450  -0.380  11.280  0.0601  0.1052  0.1264
  649MOL0     C87530   4.526  -0.331  11.174 -0.0229  0.3061 -0.2502
  649MOL0     N87531   5.024   0.234  10.900  0.3635 -0.0511 -0.9149
  649MOL0     N87532   5.139   0.288  10.938 -0.1146  0.6000  0.4628
  649MOL0     C87533   6.286   0.575  10.981  0.5508  0.1091  0.2748
  649MOL0     C87534   6.389   0.669  10.957  0.6591  0.2481  0.2992
  649MOL0     C87535   6.694   0.892  10.751 -0.2110 -1.6101 -0.2630
  649MOL0     C87536   6.709   0.928  10.609  0.2745 -0.1230 -0.2870
  649MOL0     C87537   6.819   0.984  10.561 -0.9575 -0.0751 -0.1902
  649MOL0     C87538   6.914   1.024  10.648  0.1101 -0.0614  0.0752
  649MOL0     O87539   7.015   1.100  10.590  0.1647 -0.0483 -0.2256
  649MOL0     C87540   7.095   1.181  10.684  0.4498 -0.6338  0.0187
  649MOL0     C87541   7.235   1.121  10.703 -0.6730  0.3546  0.2779
  649MOL0     C87542   7.327   1.247  10.723 -1.0040 -0.3594  0.3899
  649MOL0     C87543   7.474   1.206  10.723  0.8716  0.4455  0.1398
  649MOL0     C87544   7.558   1.301  10.663  0.5277  0.2219  0.4186
  649MOL0     C87545   7.634   1.388  10.618 -0.0588 -0.1424 -0.9757
  649MOL0     C87546   6.908   0.994  10.788 -0.9391 -1.2909 -0.4606
  649MOL0     C87547   6.786   0.937  10.838 -0.5392  0.7897 -0.1029
  649MOL0     H87548   6.653   0.468  10.933 -0.8953 -1.8291 -1.8335
  649MOL0     H87549   6.499   0.312  10.999  3.1759  1.7981  3.2797
  649MOL0     H87550   6.086   0.443  10.882  0.9843 -0.2322 -0.9516
  649MOL0     H87551   6.139   0.288  10.827  1.2112  1.9880 -0.4640
  649MOL0     H87552   5.994   0.183  11.002 -0.0317 -0.6640 -0.9528
  649MOL0     H87553   5.939   0.338  11.066  1.8305  0.1608  0.8069
  649MOL0     H87554   5.845   0.376  10.826  0.0982 -1.1839 -1.9042
  649MOL0     H87555   5.891   0.211  10.797 -2.2709  0.4235 -0.7802
  649MOL0     H87556   5.750   0.128  10.971  1.9321  1.5289  0.7676
  649MOL0     H87557   5.706   0.288  11.030 -3.2746  0.0022 -0.8162
  649MOL0     H87558   5.587   0.329  10.806 -0.4982 -0.9309 -0.0999
  649MOL0     H87559   5.634   0.162  10.782  0.5887  2.2475 -2.2598
  649MOL0     H87560   5.385   0.179  10.862 -1.6653  2.5009  0.7866
  649MOL0     H87561   5.500   0.096  10.981  0.1682  2.0109  2.6628
  649MOL0     H87562   5.508   0.293  11.112 -1.2810 -0.8476  0.3726
  649MOL0     H87563   5.400   0.384  11.007 -3.1988 -0.7940 -0.1258
  649MOL0     H87564   5.284   0.331  11.185 -2.3200  0.2673 -1.3187
  649MOL0     H87565   5.338   0.158  11.180  0.3495 -1.6109 -0.6291
  649MOL0     H87566   5.094   0.060  11.155 -3.6268  0.8740  0.4910
  649MOL0     H87567   4.846   0.013  11.085 -2.6503  0.4800 -0.5227
  649MOL0     H87568   4.773   0.107  10.959  0.4710  1.3480  2.0064
  649MOL0     H87569   4.944  -0.133  10.936  2.5101  3.1211  0.4238
  649MOL0     H87570   4.914  -0.044  10.791  1.5365 -0.4819  0.5800
  649MOL0     H87571   4.753  -0.212  10.781 -1.9213 -1.1171  0.8523
  649MOL0     H87572   4.676  -0.057  10.820 -2.2707 -0.2161  0.7571
  649MOL0     H87573   4.687  -0.144  11.063  0.9370  0.1329  0.0593
  649MOL0     H87574   4.721  -0.307  11.005 -0.7841 -0.3045  3.3132
  649MOL0     H87575   4.288  -0.190  10.989 -0.2239  0.9699  0.9015
  649MOL0     H87576   4.091  -0.294  11.020 -1.1561  2.2785  0.7494
  649MOL0     H87577   4.072  -0.441  11.117  1.6193 -0.9483 -5.8312
  649MOL0     H87578   4.045  -0.267  11.177  1.2882  0.9908 -0.3515
  649MOL0     H87579   4.206  -0.759  11.459  0.0021 -2.0687  0.9558
  649MOL0     H87580   4.095  -0.877  11.628 -2.0835  0.1748  1.4710
  649MOL0     H87581   3.969  -0.950  11.768 -2.3343  0.4114 -1.4274
  649MOL0     H87582   3.918  -0.931  11.939  1.5227  0.0673  0.8944
  649MOL0     H87583   3.717  -0.937  11.830  1.0902 -0.1888  2.9762
  649MOL0     H87584   3.751  -0.766  11.882 -1.4928 -0.0641  0.3647
  649MOL0     H87585   3.755  -0.887  11.609  0.5888 -0.1193 -1.8068
  649MOL0     H87586   3.828  -0.720  11.638  1.4981 -1.9936  2.8883
  649MOL0     H87587   3.619  -0.644  11.744 -1.3436  0.8396 -1.1098
  649MOL0     H87588   3.602  -0.671  11.575  1.1159  1.3765  0.1975
  649MOL0     H87589   3.498  -0.874  11.782  1.6581 -1.0782 -0.3092
  649MOL0     H87590   3.482  -0.901  11.604 -3.0729 -2.1856  0.9207
  649MOL0     H87591   3.354  -0.671  11.594 -2.3240  0.0872 -0.5231
  649MOL0     H87592   3.289  -0.826  11.646 -1.0067 -0.1712  1.2865
  649MOL0     H87593   3.407  -0.598  11.836 -0.2373  0.0560  0.6439
  649MOL0     H87594   3.331  -0.757  11.885  0.9962  0.9041  1.2814
  649MOL0     H87595   3.128  -0.704  11.745 -1.2549  2.1613 -1.7736
  649MOL0     H87596   3.196  -0.547  11.716  0.3260 -0.8847 -0.3095
  649MOL0     H87597   4.133  -0.533  11.889  1.4649 -0.8428  0.1598
  649MOL0     H87598   4.258  -0.407  11.708 -1.0158  0.7758  0.4336
  649MOL0     H87599   4.497  -0.422  11.369 -1.0459 -1.0557  0.1840
  649MOL0     H87600   4.631  -0.357  11.185 -0.7082 -2.0153  1.7527
  649MOL0     H87601   6.185   0.611  11.001 -0.2035 -0.8412 -1.5822
  649MOL0     H87602   6.357   0.772  10.947  1.8065  0.5556 -0.3625
  649MOL0     H87603   6.644   0.900  10.527  1.8156 -1.8968 -0.9903
  649MOL0     H87604   6.842   1.007  10.458  0.6576 -0.0545  0.1454
  649MOL0     H87605   7.094   1.279  10.634  0.0616 -1.4754 -1.7038
  649MOL0     H87606   7.043   1.200  10.778 -1.9946 -2.8021 -0.7612
  649MOL0     H87607   7.266   1.065  10.614  1.2737 -0.5631  1.4645
  649MOL0     H87608   7.234   1.058  10.792 -1.4489 -0.0538 -0.0163
  649MOL0     H87609   7.296   1.306  10.809  0.5139 -0.3161  0.9375
  649MOL0     H87610   7.296   1.313  10.641  0.5452  1.1493  0.9649
  649MOL0     H87611   7.489   1.116  10.662  0.3317  1.4837 -1.5728
  649MOL0     H87612   7.514   1.186  10.823 -0.1107 -2.6277  0.0237
  649MOL0     H87613   7.713   1.456  10.594 -0.0150  0.0609 -0.2539
  649MOL0     H87614   6.988   0.999  10.862  0.6019 -0.5277 -2.1097
  649MOL0     H87615   6.783   0.903  10.941  1.8946 -1.3521 -0.6102
  650MOL0     O87616  11.413   2.086   1.375  0.2479  0.2943 -0.4841
  650MOL0     C87617  11.441   2.208   1.349 -0.0024 -0.8032 -0.1294
  650MOL0     O87618  11.345   2.315   1.355 -0.0123 -0.7228 -0.2501
  650MOL0     C87619  11.216   2.272   1.381  0.2924 -0.4488 -0.0829
  650MOL0     C87620  11.140   2.201   1.303 -0.6283  0.0558  0.2808
  650MOL0     C87621  11.004   2.169   1.325  0.8798  0.4208 -0.1365
  650MOL0     C87622  10.937   2.215   1.443  0.9003  0.1494  0.1131
  650MOL0     O87623  10.809   2.191   1.487  0.5535  0.3051  0.0307
  650MOL0     C87624  10.744   2.089   1.414  0.8330 -0.4836  0.0281
  650MOL0     C87625  10.601   2.061   1.458  0.5857 -0.3053  0.4571
  650MOL0     C87626  10.505   2.173   1.433  0.0033  0.2955  0.5301
  650MOL0     C87627  10.365   2.121   1.426 -0.7849 -0.9606 -0.0277
  650MOL0     C87628  10.259   2.227   1.449 -0.1765 -0.6318  0.2350
  650MOL0     C87629  10.126   2.168   1.477  0.0621 -0.1751  0.6981
  650MOL0     C87630  10.027   2.278   1.533 -0.4069 -0.1153  0.2704
  650MOL0     C87631   9.917   2.219   1.613  0.0035  0.2795  0.2206
  650MOL0     N87632   9.803   2.309   1.654  0.0342  1.0388 -0.6103
  650MOL0     C87633   9.674   2.264   1.674 -0.7104  0.1831  0.1853
  650MOL0     C87634   9.599   2.377   1.660  0.1160  0.2179  0.1380
  650MOL0     C87635   9.451   2.408   1.676 -0.3568 -0.3773 -1.1933
  650MOL0     C87636   9.382   2.277   1.726 -0.1233  0.2577 -0.8451
  650MOL0     C87637   9.388   2.263   1.879  0.8760  0.5657  0.4699
  650MOL0     C87638   9.262   2.328   1.946 -0.7808  0.2274 -0.7709
  650MOL0     O87639   9.135   2.297   1.889  0.2950  0.4931 -0.2845
  650MOL0     C87640   9.101   2.165   1.903 -0.0270  0.4608 -0.5039
  650MOL0     C87641   9.074   2.112   2.021 -0.2393  0.4187  0.4643
  650MOL0     C87642   9.040   1.976   2.040  0.1349 -0.3317  0.3345
  650MOL0     C87643   9.011   1.933   2.181 -0.4442 -0.0157 -0.5431
  650MOL0     C87644   9.019   1.896   1.922  0.0442  1.0011 -0.7958
  650MOL0     C87645   8.955   1.760   1.929 -0.0322 -0.0657 -0.3933
  650MOL0     O87646   8.880   1.721   1.817 -0.1133 -0.2531  0.6689
  650MOL0     C87647   8.772   1.633   1.821  0.5070  0.0069  1.3771
  650MOL0     C87648   8.716   1.584   1.942 -0.2983  0.6019 -0.6355
  650MOL0     C87649   8.605   1.501   1.944  0.7429  0.1231  0.3224
  650MOL0     C87650   8.540   1.469   1.824 -0.2421  0.2925 -0.5398
  650MOL0     O87651   8.439   1.385   1.831 -0.5345  0.1048 -0.6036
  650MOL0     C87652   8.328   1.408   1.756  0.1315  0.3699  0.0411
  650MOL0     C87653   8.210   1.321   1.796  0.1454  0.0336  0.4214
  650MOL0     C87654   8.237   1.180   1.723  0.1136  0.3340  0.6685
  650MOL0     C87655   8.189   1.066   1.801  0.7542  0.5869 -0.8650
  650MOL0     C87656   8.179   0.933   1.722  0.1265  0.0468  0.7113
  650MOL0     C87657   8.295   0.899   1.629  0.0479  0.7853 -0.9200
  650MOL0     C87658   8.297   0.748   1.606  0.4168  0.3016  1.0500
  650MOL0     C87659   8.400   0.705   1.490 -0.0957 -0.5515  0.4845
  650MOL0    Cl87660   8.572   0.688   1.552  0.0553  0.0023  0.1533
  650MOL0     C87661   8.588   1.529   1.708 -0.2686 -0.4556 -0.0329
  650MOL0     C87662   8.711   1.603   1.698  1.1004 -0.0240  1.2055
  650MOL0     O87663   8.971   1.683   2.027  0.4121 -0.2438  0.1053
  650MOL0     C87664   9.050   1.955   1.796  0.2559  0.5665 -0.5587
  650MOL0     C87665   9.089   2.086   1.791 -0.1534  0.4196 -0.0951
  650MOL0     N87666   9.684   2.480   1.638  0.8080  0.0603 -0.5325
  650MOL0     N87667   9.801   2.439   1.640 -0.0937 -0.3540  0.4086
  650MOL0     C87668  11.018   2.291   1.526 -0.1307  0.4687 -0.9187
  650MOL0     C87669  11.153   2.316   1.493  0.1007  0.5882 -0.1498
  650MOL0     C87670  11.574   2.243   1.306 -0.2766  1.2343 -0.4091
  650MOL0     C87671  11.683   2.151   1.307 -0.0057  0.7375 -0.5889
  650MOL0     C87672  11.805   2.189   1.269 -0.5720 -0.2310  0.3608
  650MOL0     C87673  11.836   2.320   1.240  0.3080 -0.3598  0.8480
  650MOL0     O87674  11.955   2.366   1.180  0.2121 -0.4335 -0.0864
  650MOL0     C87675  12.065   2.370   1.260  0.7034 -0.1296  1.2413
  650MOL0     C87676  12.059   2.476   1.370 -0.7142 -0.2868 -0.1346
  650MOL0     C87677  12.162   2.437   1.484  0.1176  0.2074  0.0190
  650MOL0     C87678  12.305   2.468   1.434 -0.5887  0.1991 -0.3239
  650MOL0     C87679  12.405   2.432   1.539 -0.0654  0.2160 -0.4743
  650MOL0     C87680  12.480   2.401   1.633 -0.4634 -0.8690  0.0768
  650MOL0     C87681  11.740   2.419   1.252 -0.3785  1.1803  0.6197
  650MOL0     C87682  11.612   2.373   1.276 -0.3328  0.3417 -0.1804
  650MOL0     H87683  11.189   2.164   1.213  3.6566 -0.7665  2.7111
  650MOL0     H87684  10.943   2.111   1.256 -0.3432  2.3858 -0.7969
  650MOL0     H87685  10.718   2.119   1.312  1.4803 -0.5452 -0.1634
  650MOL0     H87686  10.805   1.999   1.405 -1.0956 -2.0429  1.5825
  650MOL0     H87687  10.570   1.978   1.393 -1.6924 -0.1140  1.2297
  650MOL0     H87688  10.611   2.020   1.559  0.7867 -0.8930  0.2079
  650MOL0     H87689  10.512   2.242   1.517  1.3192 -0.3343  0.9792
  650MOL0     H87690  10.532   2.230   1.343 -4.6673  2.0270 -0.0174
  650MOL0     H87691  10.346   2.075   1.328 -1.6414  0.1750 -0.4238
  650MOL0     H87692  10.347   2.053   1.509 -2.4861 -0.0861  0.3764
  650MOL0     H87693  10.289   2.304   1.521  0.4658  1.6415 -2.2855
  650MOL0     H87694  10.253   2.284   1.356 -0.7623 -3.0177 -1.2914
  650MOL0     H87695  10.073   2.109   1.402  0.2015  2.0930 -1.2921
  650MOL0     H87696  10.132   2.106   1.567 -1.2708  0.3893  1.1984
  650MOL0     H87697  10.072   2.351   1.602  0.1805 -1.0761  0.9239
  650MOL0     H87698   9.979   2.329   1.449 -0.0341 -0.8206 -0.3787
  650MOL0     H87699   9.963   2.167   1.698 -2.0378 -0.8488  0.7219
  650MOL0     H87700   9.877   2.142   1.546  1.2762 -1.2815  1.1937
  650MOL0     H87701   9.645   2.161   1.689 -0.7917  0.1184 -0.3888
  650MOL0     H87702   9.439   2.486   1.752  0.9567 -1.3385  0.0649
  650MOL0     H87703   9.405   2.429   1.580  1.0318  0.7363 -1.6497
  650MOL0     H87704   9.429   2.196   1.670  1.8947  0.5574  0.3289
  650MOL0     H87705   9.278   2.287   1.695 -0.1167  4.9966 -0.1734
  650MOL0     H87706   9.491   2.283   1.910  0.7719 -0.1840  1.3253
  650MOL0     H87707   9.373   2.158   1.904  1.9436  0.4985  0.8703
  650MOL0     H87708   9.283   2.435   1.945  0.7212 -0.0517 -1.3342
  650MOL0     H87709   9.262   2.306   2.053 -2.3924  0.8928 -0.6018
  650MOL0     H87710   9.090   2.180   2.104  2.3165 -0.6606  0.9513
  650MOL0     H87711   9.070   1.842   2.197  1.9987  1.2470 -1.7301
  650MOL0     H87712   9.038   2.009   2.255  3.3384 -1.7089  0.0963
  650MOL0     H87713   8.905   1.907   2.189 -2.2321  5.9495 -0.2902
  650MOL0     H87714   8.762   1.610   2.037 -4.0847  1.2221  1.2211
  650MOL0     H87715   8.576   1.466   2.043  1.3809  0.6964  0.7230
  650MOL0     H87716   8.301   1.514   1.760 -0.0785  0.3182  0.0010
  650MOL0     H87717   8.347   1.395   1.649 -2.5492  0.1874 -0.4889
  650MOL0     H87718   8.185   1.312   1.902 -0.6796 -1.7474  0.1092
  650MOL0     H87719   8.123   1.360   1.742 -1.5141 -1.6013  1.8005
  650MOL0     H87720   8.345   1.173   1.712  1.0671  0.9399  6.5465
  650MOL0     H87721   8.182   1.179   1.628 -2.6467 -0.1392  2.1667
  650MOL0     H87722   8.253   1.043   1.887 -1.7443 -0.3488  0.8874
  650MOL0     H87723   8.092   1.081   1.850  2.3475  2.9744  1.9385
  650MOL0     H87724   8.089   0.926   1.660 -0.7402 -2.1941  2.1119
  650MOL0     H87725   8.167   0.852   1.794 -3.6988  1.3395  1.7636
  650MOL0     H87726   8.284   0.952   1.534 -1.0105  1.9876 -0.1713
  650MOL0     H87727   8.386   0.939   1.676 -0.1128 -0.3459  0.4374
  650MOL0     H87728   8.192   0.724   1.586  0.7502 -1.1586  0.9362
  650MOL0     H87729   8.322   0.686   1.692  0.9199 -1.9402 -0.6335
  650MOL0     H87730   8.391   0.782   1.413 -1.3426  0.5531  1.6654
  650MOL0     H87731   8.360   0.612   1.449 -0.8000 -1.3041  2.6952
  650MOL0     H87732   8.543   1.497   1.614  1.7755 -2.0412 -0.5387
  650MOL0     H87733   8.750   1.643   1.606  0.9252 -0.6097  0.8719
  650MOL0     H87734   9.043   1.889   1.711 -1.8701 -0.7775  0.5620
  650MOL0     H87735   9.099   2.125   1.690  1.3067 -1.3850 -0.7084
  650MOL0     H87736  10.970   2.326   1.616  0.2535 -1.3994  0.0575
  650MOL0     H87737  11.217   2.373   1.559 -0.5981  1.9915 -0.6453
  650MOL0     H87738  11.668   2.048   1.337  0.8806 -0.1144 -2.8265
  650MOL0     H87739  11.876   2.107   1.262  0.2890  0.1316  3.4232
  650MOL0     H87740  12.073   2.271   1.306 -0.5448 -0.9389 -0.1926
  650MOL0     H87741  12.158   2.384   1.204 -0.1179  0.9403  0.1005
  650MOL0     H87742  11.959   2.472   1.413 -2.6912 -2.3200 -4.3540
  650MOL0     H87743  12.082   2.575   1.330 -0.2261 -0.6086 -0.6865
  650MOL0     H87744  12.153   2.330   1.504  1.9814  0.3201  1.7529
  650MOL0     H87745  12.142   2.494   1.575  0.1948  2.3927 -1.2700
  650MOL0     H87746  12.318   2.575   1.416 -1.7705 -0.0069 -2.7909
  650MOL0     H87747  12.331   2.432   1.334  0.0564  1.7970 -0.7627
  650MOL0     H87748  12.543   2.367   1.712 -0.4874 -1.4538 -0.1487
  650MOL0     H87749  11.771   2.521   1.235 -1.9369  1.6623  0.4751
  650MOL0     H87750  11.536   2.449   1.263  0.9068  1.8019  0.7988
  651MOL0     O87751   8.252   8.892   6.443 -0.1475 -0.2589  0.3429
  651MOL0     C87752   8.283   8.904   6.326  0.0284 -0.5407 -0.2431
  651MOL0     O87753   8.210   8.873   6.214  0.2878  0.1217  0.1505
  651MOL0     C87754   8.079   8.836   6.225  0.4966 -0.1645 -0.6507
  651MOL0     C87755   7.989   8.854   6.331  0.7053  0.5675  0.9794
  651MOL0     C87756   7.854   8.809   6.321  0.1209  0.8136 -0.0585
  651MOL0     C87757   7.808   8.743   6.209 -0.0879  1.2715 -0.1822
  651MOL0     O87758   7.680   8.704   6.187  0.0693 -0.1854 -0.8008
  651MOL0     C87759   7.599   8.668   6.297 -0.4899  0.1663  0.5576
  651MOL0     C87760   7.500   8.572   6.237 -0.3443 -0.2294 -0.0161
  651MOL0     C87761   7.394   8.506   6.328 -0.7102  0.2411  1.3139
  651MOL0     C87762   7.333   8.388   6.264  0.0333  0.0685  0.0606
  651MOL0     C87763   7.245   8.310   6.361 -0.5011  0.8515 -0.5410
  651MOL0     C87764   7.324   8.210   6.448  0.0826 -0.6654  0.2252
  651MOL0     C87765   7.224   8.115   6.513 -0.3788 -0.3102  0.0135
  651MOL0     C87766   7.280   7.998   6.589 -0.0327 -0.2661  0.3254
  651MOL0     N87767   7.360   8.049   6.708  0.1218 -1.0645  0.0497
  651MOL0     C87768   7.497   8.044   6.698 -0.0693  0.4569 -0.4046
  651MOL0     C87769   7.531   8.085   6.830 -0.3569  0.0361 -0.1733
  651MOL0     C87770   7.671   8.117   6.881 -0.1424  0.5585  0.0409
  651MOL0     C87771   7.690   8.261   6.928  0.6139 -0.5743 -0.5829
  651MOL0     C87772   7.679   8.370   6.819  0.0658 -0.0965  0.6518
  651MOL0     C87773   7.704   8.508   6.879 -0.0715 -0.0381  0.0288
  651MOL0     O87774   7.597   8.565   6.955  0.5440  0.9648  1.2726
  651MOL0     C87775   7.594   8.692   6.995 -0.1094 -0.0518  0.6692
  651MOL0     C87776   7.703   8.776   6.999 -1.0908  0.4249 -0.5006
  651MOL0     C87777   7.691   8.906   7.046 -0.0921  0.9809  0.3560
  651MOL0     C87778   7.819   8.984   7.070  0.7588  0.0193 -0.8307
  651MOL0     C87779   7.561   8.958   7.056 -0.6813  0.6813 -0.2301
  651MOL0     C87780   7.541   9.095   7.088 -0.2363 -0.1762 -1.4690
  651MOL0     O87781   7.441   9.122   7.176  0.2200 -0.0975  0.3995
  651MOL0     C87782   7.428   9.254   7.212  0.6892 -0.3651  0.3515
  651MOL0     C87783   7.314   9.320   7.169 -0.0918  0.2626 -0.0576
  651MOL0     C87784   7.289   9.450   7.198  0.7723  1.0423 -0.4788
  651MOL0     C87785   7.371   9.515   7.288  0.1366 -0.4913  0.6452
  651MOL0     O87786   7.343   9.641   7.324 -0.0885  0.6474 -0.8859
  651MOL0     C87787   7.447   9.730   7.371  0.4468  0.0969  0.9927
  651MOL0     C87788   7.445   9.783   7.511  0.0056  0.8472 -0.9267
  651MOL0     C87789   7.475   9.684   7.638  0.3406  0.3054 -0.3084
  651MOL0     C87790   7.427   9.732   7.784  0.2457  0.4266  0.2322
  651MOL0     C87791   7.533   9.820   7.867  0.0755 -0.8291  0.4488
  651MOL0     C87792   7.675   9.759   7.861 -0.6545 -0.6684 -0.3726
  651MOL0     C87793   7.745   9.782   7.996  0.0172 -0.4580 -0.7049
  651MOL0     C87794   7.895   9.767   7.976  0.9310  0.1306 -0.2385
  651MOL0    Cl87795   7.974   9.909   7.901 -0.1214 -0.0202 -0.0913
  651MOL0     C87796   7.491   9.451   7.337  1.4548  0.1088 -0.5187
  651MOL0     C87797   7.519   9.324   7.293 -0.4073  0.2861 -0.4739
  651MOL0     O87798   7.604   9.179   7.029  0.1000 -0.2117 -0.1712
  651MOL0     C87799   7.455   8.873   7.047  0.1478 -1.0078  0.3471
  651MOL0     C87800   7.470   8.744   7.018  0.0818  0.8758 -0.3692
  651MOL0     N87801   7.418   8.086   6.906  0.0670 -0.1170  0.4199
  651MOL0     N87802   7.315   8.065   6.838  0.3010 -0.6329  0.2817
  651MOL0     C87803   7.896   8.723   6.102 -0.6196 -0.0207  0.5412
  651MOL0     C87804   8.026   8.776   6.103 -0.2193  0.0159  0.1831
  651MOL0     C87805   8.406   8.988   6.305 -0.1961 -0.0298  0.0169
  651MOL0     C87806   8.514   8.981   6.396  0.5345  0.5360  0.3803
  651MOL0     C87807   8.634   9.051   6.376 -0.0802 -1.2795 -0.4044
  651MOL0     C87808   8.644   9.144   6.270 -0.7796 -0.1038  0.5463
  651MOL0     O87809   8.759   9.225   6.285 -0.0451  0.7238 -0.4429
  651MOL0     C87810   8.775   9.336   6.199 -0.5775 -0.6777  0.0482
  651MOL0     C87811   8.864   9.317   6.073  0.9925 -0.2804 -0.0096
  651MOL0     C87812   8.850   9.444   5.985 -0.4796 -0.4377 -0.9752
  651MOL0     C87813   8.941   9.432   5.862 -0.6527  0.1842  0.2784
  651MOL0     C87814   8.911   9.304   5.796 -0.1430  0.0764 -0.3540
  651MOL0     C87815   8.887   9.206   5.734  0.0080  0.0239  0.3141
  651MOL0     C87816   8.536   9.148   6.175 -0.3843  0.5242  1.0923
  651MOL0     C87817   8.416   9.074   6.193  0.1456  0.1705 -0.3742
  651MOL0     H87818   8.009   8.894   6.430  0.3496 -1.8085  2.0955
  651MOL0     H87819   7.795   8.823   6.411  0.7241  3.1636  0.0332
  651MOL0     H87820   7.653   8.602   6.366  0.7912 -1.1066 -1.5680
  651MOL0     H87821   7.548   8.758   6.333  0.6120  1.2243 -0.4354
  651MOL0     H87822   7.438   8.629   6.168  0.5643  0.8502  0.0278
  651MOL0     H87823   7.559   8.501   6.179  3.2285  1.1414  1.6352
  651MOL0     H87824   7.451   8.480   6.418  1.3831 -1.3622 -0.3668
  651MOL0     H87825   7.312   8.576   6.345 -2.9691 -1.7788 -0.5384
  651MOL0     H87826   7.266   8.424   6.185  0.4359  0.5197 -0.0810
  651MOL0     H87827   7.403   8.322   6.210  0.0846  1.0005 -1.0490
  651MOL0     H87828   7.188   8.373   6.430  0.3104  1.5913 -0.5320
  651MOL0     H87829   7.171   8.253   6.303 -0.5022 -0.9895  1.1445
  651MOL0     H87830   7.398   8.150   6.394 -0.9589 -0.4132 -1.6026
  651MOL0     H87831   7.382   8.260   6.525 -0.7767 -1.6968  1.5781
  651MOL0     H87832   7.162   8.174   6.581  1.0234 -0.2462  1.2967
  651MOL0     H87833   7.155   8.068   6.443  0.1833 -2.9224  1.0848
  651MOL0     H87834   7.340   7.940   6.519 -1.1086  0.2197 -1.0520
  651MOL0     H87835   7.195   7.938   6.624  0.0806 -0.9534 -0.5480
  651MOL0     H87836   7.567   8.028   6.616 -0.4722 -0.6331 -0.5502
  651MOL0     H87837   7.695   8.041   6.957 -4.3072  0.2908  1.3509
  651MOL0     H87838   7.742   8.108   6.799 -0.5835  3.3396 -0.7402
  651MOL0     H87839   7.789   8.278   6.970 -0.2924  2.1933  0.7094
  651MOL0     H87840   7.619   8.277   7.010  2.1262  0.4640  0.5677
  651MOL0     H87841   7.582   8.375   6.768 -0.0744  0.7902  0.9961
  651MOL0     H87842   7.751   8.337   6.743 -0.1738 -2.1700  1.2695
  651MOL0     H87843   7.735   8.580   6.803  1.7343  3.4617  3.6865
  651MOL0     H87844   7.782   8.510   6.956 -0.0547  0.1172  0.0062
  651MOL0     H87845   7.802   8.738   6.979 -0.6348  2.3874 -2.3895
  651MOL0     H87846   7.817   9.052   7.155 -2.1355  0.5605 -1.2413
  651MOL0     H87847   7.903   8.914   7.076  0.8262  0.2150  0.8257
  651MOL0     H87848   7.844   9.041   6.979 -1.8645  0.7985 -1.1463
  651MOL0     H87849   7.243   9.263   7.110  0.7780 -0.5684 -0.3271
  651MOL0     H87850   7.204   9.494   7.148  2.2993  0.8966 -3.4208
  651MOL0     H87851   7.542   9.696   7.329  0.3968 -0.3738  1.2509
  651MOL0     H87852   7.424   9.824   7.319  1.7117  0.5494  1.2136
  651MOL0     H87853   7.508   9.871   7.520 -0.3152  0.8903  2.1672
  651MOL0     H87854   7.342   9.810   7.534  0.0292 -1.1994  2.3122
  651MOL0     H87855   7.575   9.641   7.633  0.0222 -0.8496  1.8338
  651MOL0     H87856   7.412   9.596   7.624  0.7745 -0.4641  2.0178
  651MOL0     H87857   7.336   9.790   7.765 -0.7406 -1.7108 -2.2970
  651MOL0     H87858   7.394   9.650   7.849  0.3980  0.3104  0.1653
  651MOL0     H87859   7.487   9.817   7.967  2.4043  0.1908  1.6383
  651MOL0     H87860   7.526   9.923   7.830  1.3694 -1.1620 -0.7983
  651MOL0     H87861   7.674   9.652   7.836  3.6614 -0.6749 -1.3749
  651MOL0     H87862   7.728   9.808   7.779 -1.6456 -0.1757 -0.7340
  651MOL0     H87863   7.708   9.702   8.061 -3.9092 -0.1020 -2.1927
  651MOL0     H87864   7.722   9.878   8.042  0.4584 -1.2773  1.3201
  651MOL0     H87865   7.913   9.673   7.922  0.3023  0.2618 -0.6942
  651MOL0     H87866   7.946   9.753   8.071  0.8354  1.3303 -0.0008
  651MOL0     H87867   7.551   9.493   7.416  0.4793  1.6268 -0.5599
  651MOL0     H87868   7.606   9.273   7.331  1.1696  2.0451 -1.5751
  651MOL0     H87869   7.355   8.915   7.048 -0.0840 -1.5401  0.7814
  651MOL0     H87870   7.385   8.679   7.002 -0.8124  1.9378 -0.0271
  651MOL0     H87871   7.860   8.655   6.025 -1.0528 -0.3004  0.9845
  651MOL0     H87872   8.091   8.787   6.017  1.4722  1.5425  1.5714
  651MOL0     H87873   8.511   8.916   6.483  0.7228  3.1153  2.4487
  651MOL0     H87874   8.722   9.046   6.440  0.4139  1.3640 -0.7764
  651MOL0     H87875   8.677   9.371   6.167  1.2114  3.2324 -1.9219
  651MOL0     H87876   8.828   9.417   6.251  0.9983 -1.1520 -0.7632
  651MOL0     H87877   8.817   9.232   6.022  0.5005  2.0238 -3.7910
  651MOL0     H87878   8.964   9.281   6.098  0.4719 -3.6078 -2.0040
  651MOL0     H87879   8.880   9.530   6.046 -2.9074 -0.9995  1.2234
  651MOL0     H87880   8.744   9.453   5.957 -1.3261  0.0632  2.0179
  651MOL0     H87881   9.040   9.413   5.904  0.6837  0.7344 -2.3850
  651MOL0     H87882   8.943   9.522   5.800  4.0455 -0.2330 -0.5400
  651MOL0     H87883   8.883   9.115   5.678  1.4820 -0.3457  0.7734
  651MOL0     H87884   8.551   9.199   6.081  1.0210  0.4878  1.2681
  651MOL0     H87885   8.335   9.073   6.121  0.7904 -1.4310 -1.1120
  652MOL0     O87886   1.464   3.848   4.602 -0.1735  0.2874  0.5548
  652MOL0     C87887   1.367   3.843   4.678 -0.1168  1.0827 -0.3328
  652MOL0     O87888   1.330   3.936   4.771  0.3982 -0.5417  0.3418
  652MOL0     C87889   1.351   4.074   4.773 -0.4849  0.4668 -0.6871
  652MOL0     C87890   1.300   4.139   4.880  0.6758  0.0416  0.3936
  652MOL0     C87891   1.305   4.281   4.889 -0.3854  0.3922  0.8287
  652MOL0     C87892   1.371   4.350   4.779  0.1684 -0.3354 -0.3756
  652MOL0     O87893   1.381   4.491   4.778  0.1120 -0.8465 -0.4233
  652MOL0     C87894   1.288   4.564   4.703  0.0284 -0.7077  0.0983
  652MOL0     C87895   1.359   4.696   4.666  1.1656 -0.2162  0.1027
  652MOL0     C87896   1.273   4.799   4.589  0.5195  0.3591  0.1445
  652MOL0     C87897   1.176   4.851   4.689  0.4952  0.0560  0.1007
  652MOL0     C87898   1.134   4.999   4.653 -0.9318  0.4124 -0.3354
  652MOL0     C87899   1.233   5.092   4.729 -0.3330  0.0658  0.5974
  652MOL0     C87900   1.186   5.237   4.724 -0.9078 -0.0097  1.2604
  652MOL0     C87901   1.251   5.335   4.622 -0.2772  0.8066  0.2664
  652MOL0     N87902   1.225   5.295   4.482 -0.3912 -0.3127 -0.5299
  652MOL0     C87903   1.303   5.236   4.389  0.1624 -0.8220  0.3014
  652MOL0     C87904   1.224   5.195   4.285  0.2561  0.5741 -0.1354
  652MOL0     C87905   1.244   5.107   4.171  0.2791  0.7043  0.5846
  652MOL0     C87906   1.175   4.971   4.206  0.1404 -0.3271 -0.0633
  652MOL0     C87907   1.223   4.849   4.122  0.2064 -0.2106 -0.1184
  652MOL0     C87908   1.368   4.811   4.145 -0.3828 -0.9283  0.1855
  652MOL0     O87909   1.453   4.882   4.053  0.2577 -0.2308  0.0976
  652MOL0     C87910   1.589   4.848   4.065  0.2902  0.1051  0.1954
  652MOL0     C87911   1.650   4.798   4.179  0.4076 -0.1637 -0.4983
  652MOL0     C87912   1.789   4.775   4.189  1.0910 -0.6414 -0.3550
  652MOL0     C87913   1.846   4.707   4.313 -0.0349  0.3411  0.2147
  652MOL0     C87914   1.873   4.803   4.071  0.1893  0.1427  0.4234
  652MOL0     C87915   2.028   4.810   4.085 -0.0134  0.0194  0.2751
  652MOL0     O87916   2.090   4.872   3.974 -0.1540 -0.4217  0.4419
  652MOL0     C87917   2.224   4.856   3.944  0.3883  0.6581  0.0150
  652MOL0     C87918   2.276   4.932   3.831  0.4101 -0.4935  1.1080
  652MOL0     C87919   2.410   4.910   3.791 -0.0539  0.1503  0.1828
  652MOL0     C87920   2.504   4.831   3.863 -0.0388 -0.3020  0.1613
  652MOL0     O87921   2.642   4.811   3.837  0.0968 -0.5160  0.0078
  652MOL0     C87922   2.727   4.886   3.926  0.5876 -0.5748 -0.7077
  652MOL0     C87923   2.876   4.851   3.914 -0.2958  0.4520  0.2406
  652MOL0     C87924   2.956   4.912   4.032  0.5786  0.2080 -0.7110
  652MOL0     C87925   3.103   4.921   4.010 -0.2272 -0.1462  0.4355
  652MOL0     C87926   3.182   4.961   4.131  0.1781  0.7698 -0.0527
  652MOL0     C87927   3.155   5.100   4.188  0.0412  0.6747  0.5767
  652MOL0     C87928   3.274   5.155   4.277  0.5088  0.5364 -0.6257
  652MOL0     C87929   3.401   5.147   4.197  0.6685 -0.5204 -0.2655
  652MOL0    Cl87930   3.534   5.252   4.266  0.7888  0.1426 -0.4496
  652MOL0     C87931   2.450   4.770   3.973 -0.0464  0.5057 -0.8113
  652MOL0     C87932   2.314   4.770   4.013 -0.2434  0.1061  0.5817
  652MOL0     O87933   2.083   4.775   4.190  0.6759 -0.2556  0.2692
  652MOL0     C87934   1.805   4.854   3.958  0.7392  0.2342  0.7122
  652MOL0     C87935   1.669   4.864   3.949 -0.9940  0.5140  0.3261
  652MOL0     N87936   1.092   5.227   4.322 -0.7261  0.2737  0.3367
  652MOL0     N87937   1.100   5.297   4.425 -0.2615  0.3009  0.4513
  652MOL0     C87938   1.426   4.283   4.669  0.4934  0.6192 -0.3478
  652MOL0     C87939   1.412   4.142   4.668  1.0539 -0.1723 -0.0851
  652MOL0     C87940   1.277   3.726   4.676  0.3862  0.2804  0.5632
  652MOL0     C87941   1.133   3.730   4.714  0.0491  0.3881  0.0498
  652MOL0     C87942   1.063   3.611   4.711  0.6891  0.2701 -0.0834
  652MOL0     C87943   1.111   3.484   4.674  0.4014  0.4329  1.2973
  652MOL0     O87944   1.040   3.369   4.657 -0.4468  0.7835 -0.1754
  652MOL0     C87945   0.906   3.345   4.708  0.3673  0.0841  0.3074
  652MOL0     C87946   0.904   3.221   4.804 -0.6536  0.1775  0.2331
  652MOL0     C87947   0.898   3.098   4.708 -0.1493  0.2442 -1.2179
  652MOL0     C87948   0.920   2.964   4.771  0.1978  1.3902 -0.3348
  652MOL0     C87949   0.800   2.920   4.851  0.9514  1.1214  0.3734
  652MOL0     C87950   0.709   2.901   4.932 -0.4094  0.0778  0.1420
  652MOL0     C87951   1.238   3.484   4.633 -0.0353  0.6946  0.2878
  652MOL0     C87952   1.325   3.595   4.631 -0.0138 -0.3014 -0.0314
  652MOL0     H87953   1.237   4.071   4.937 -1.5491 -1.0602 -3.0756
  652MOL0     H87954   1.263   4.347   4.963 -1.9928 -0.7991  1.0288
  652MOL0     H87955   1.257   4.509   4.614  4.8527 -0.2707 -2.1876
  652MOL0     H87956   1.198   4.588   4.760 -0.2256  2.7593 -1.4693
  652MOL0     H87957   1.410   4.729   4.756  0.6786  2.3971 -0.5018
  652MOL0     H87958   1.430   4.664   4.588  1.2293 -1.0245  0.4820
  652MOL0     H87959   1.341   4.874   4.549  1.6347 -1.5162 -1.6693
  652MOL0     H87960   1.233   4.759   4.495 -1.6361  0.3167  1.0029
  652MOL0     H87961   1.091   4.783   4.685  1.0944 -0.6292 -2.3346
  652MOL0     H87962   1.224   4.846   4.788  3.1244  2.8669 -0.8531
  652MOL0     H87963   1.140   5.005   4.544 -0.2763  1.7605 -0.2446
  652MOL0     H87964   1.028   5.006   4.682 -1.4018 -1.9077 -1.2407
  652MOL0     H87965   1.245   5.063   4.834  2.5803 -0.9605  0.0652
  652MOL0     H87966   1.334   5.093   4.687 -0.5980  0.7928 -0.0402
  652MOL0     H87967   1.077   5.251   4.718 -0.8866 -0.3860 -3.4211
  652MOL0     H87968   1.219   5.288   4.815  2.1193 -1.0433  0.8302
  652MOL0     H87969   1.358   5.329   4.645 -0.3134 -2.0484 -0.0560
  652MOL0     H87970   1.212   5.437   4.634 -1.3897  0.7866 -2.4639
  652MOL0     H87971   1.411   5.222   4.394 -0.2120 -5.1085  0.2668
  652MOL0     H87972   1.202   5.151   4.080  0.6762  1.7654  0.9049
  652MOL0     H87973   1.348   5.104   4.137 -0.3663 -1.2752 -1.4920
  652MOL0     H87974   1.067   4.975   4.194 -0.2331 -2.3829  1.9245
  652MOL0     H87975   1.196   4.960   4.312 -1.0779  2.9943  0.6475
  652MOL0     H87976   1.207   4.867   4.015 -0.5883  1.4001  0.2354
  652MOL0     H87977   1.160   4.762   4.144 -3.3122  1.7781 -1.3829
  652MOL0     H87978   1.392   4.704   4.140  2.6229 -0.3580  0.7257
  652MOL0     H87979   1.399   4.843   4.245 -1.8412 -1.6925  0.9230
  652MOL0     H87980   1.591   4.768   4.265 -0.2445  0.3812 -0.7508
  652MOL0     H87981   1.763   4.675   4.376  1.0176  1.9183  2.5555
  652MOL0     H87982   1.915   4.622   4.303 -1.9267 -1.0890 -1.9519
  652MOL0     H87983   1.891   4.784   4.376  0.1752 -1.0484  1.8581
  652MOL0     H87984   2.209   4.996   3.775  0.5920 -2.0548 -1.0334
  652MOL0     H87985   2.454   4.950   3.700 -0.5022 -1.7877 -0.9421
  652MOL0     H87986   2.711   4.994   3.924 -0.5483 -0.7009 -3.2327
  652MOL0     H87987   2.698   4.856   4.027  0.5015  0.0139 -0.5553
  652MOL0     H87988   2.897   4.744   3.929 -0.8701  0.1869 -0.7317
  652MOL0     H87989   2.913   4.887   3.818  0.2474  0.8511  0.6016
  652MOL0     H87990   2.944   4.855   4.125 -1.9277  2.7902  0.7103
  652MOL0     H87991   2.912   5.009   4.055  0.3864 -0.3062  1.2512
  652MOL0     H87992   3.132   4.821   3.978 -1.1697 -0.4955  0.6209
  652MOL0     H87993   3.125   4.992   3.930 -1.8030  0.9402  0.8942
  652MOL0     H87994   3.289   4.949   4.110  0.2089  1.2221 -0.1689
  652MOL0     H87995   3.152   4.890   4.208 -1.4443 -1.4170 -2.5368
  652MOL0     H87996   3.136   5.163   4.101 -1.8636  2.8158  2.3824
  652MOL0     H87997   3.058   5.096   4.240  0.3857 -0.8438  1.1455
  652MOL0     H87998   3.292   5.099   4.369 -0.9349  1.3344  0.1610
  652MOL0     H87999   3.253   5.257   4.309 -2.6884 -0.4956  0.8820
  652MOL0     H88000   3.387   5.185   4.095 -3.4988  0.0802  0.3717
  652MOL0     H88001   3.440   5.045   4.190  0.6796 -0.4498 -1.6146
  652MOL0     H88002   2.513   4.700   4.027  0.1793  0.3078 -1.3286
  652MOL0     H88003   2.273   4.702   4.087  1.8654 -1.5448  0.3033
  652MOL0     H88004   1.863   4.886   3.872 -1.4829  1.4915 -0.4194
  652MOL0     H88005   1.631   4.909   3.858  0.1173 -1.3094 -1.0937
  652MOL0     H88006   1.474   4.345   4.595 -2.0245 -0.4394 -3.0617
  652MOL0     H88007   1.462   4.091   4.586  2.8698 -0.4429  1.1370
  652MOL0     H88008   1.083   3.823   4.739  1.4206  1.8021 -2.1032
  652MOL0     H88009   0.963   3.605   4.753  1.2973 -0.4997  1.3169
  652MOL0     H88010   0.873   3.432   4.766  0.4014 -1.3969  2.6850
  652MOL0     H88011   0.828   3.342   4.631 -1.6480  1.3620  2.1915
  652MOL0     H88012   0.821   3.227   4.874  2.2542 -0.7633  4.0979
  652MOL0     H88013   0.993   3.229   4.867 -2.1194  0.7083  2.3058
  652MOL0     H88014   0.971   3.106   4.627  0.4311  3.9517 -0.5250
  652MOL0     H88015   0.801   3.104   4.657 -0.0475  0.6001 -1.3739
  652MOL0     H88016   1.004   2.963   4.841 -0.3129 -0.6763  0.3235
  652MOL0     H88017   0.930   2.886   4.695 -0.5329  1.6322 -0.6963
  652MOL0     H88018   0.622   2.885   4.993  0.6099 -2.6957  1.0426
  652MOL0     H88019   1.275   3.390   4.595 -0.9649  1.0180 -1.5254
  652MOL0     H88020   1.429   3.575   4.610  1.3216  2.7981  2.7676
  653MOL0     O88021  10.522  10.323   1.162 -0.6568  0.4291 -0.0480
  653MOL0     C88022  10.552  10.355   1.046  0.6599 -0.0414 -0.1573
  653MOL0     O88023  10.460  10.350   0.947  0.0663  0.1988 -0.2294
  653MOL0     C88024  10.335  10.305   0.982 -0.2621  0.1115 -0.2356
  653MOL0     C88025  10.317  10.178   1.006  0.9125  0.3728  1.1363
  653MOL0     C88026  10.200  10.134   1.062 -0.0641  0.0326  0.4434
  653MOL0     C88027  10.099  10.223   1.097  0.6121 -0.0112 -0.5455
  653MOL0     O88028   9.974  10.191   1.148  0.0638 -0.4628 -0.0976
  653MOL0     C88029   9.912  10.069   1.092 -0.9794  0.1200 -0.0915
  653MOL0     C88030   9.762  10.087   1.072  0.0732 -0.6300 -0.5817
  653MOL0     C88031   9.679  10.108   1.199  1.0325 -0.4652  0.2893
  653MOL0     C88032   9.533  10.101   1.165  0.5323 -0.0733  0.4597
  653MOL0     C88033   9.457  10.127   1.288  1.2713  0.2866  0.1646
  653MOL0     C88034   9.310  10.116   1.251  0.1435 -0.0351 -0.2456
  653MOL0     C88035   9.208  10.146   1.365  0.2209 -0.7459  0.5260
  653MOL0     C88036   9.150  10.018   1.425  0.6036 -1.2244  0.6805
  653MOL0     N88037   9.078  10.034   1.554  1.2123 -0.2016  0.0526
  653MOL0     C88038   9.132  10.053   1.676  0.1877 -0.4846  0.1464
  653MOL0     C88039   9.036  10.053   1.766 -0.1322  0.7452  0.0645
  653MOL0     C88040   9.056  10.074   1.915  0.6875  0.0375 -0.0991
  653MOL0     C88041   9.167   9.991   1.980  0.3705 -0.5736  0.1160
  653MOL0     C88042   9.234  10.060   2.097  0.5679 -0.0458 -0.4126
  653MOL0     C88043   9.135  10.067   2.212  0.1973 -0.9337 -0.2427
  653MOL0     O88044   9.206  10.105   2.330 -0.8094 -0.3644  0.2543
  653MOL0     C88045   9.129  10.134   2.445  0.2745  0.5998 -1.1531
  653MOL0     C88046   9.189  10.217   2.542 -0.1852 -1.3243 -0.3558
  653MOL0     C88047   9.111  10.264   2.650  0.2886  0.3254 -0.2572
  653MOL0     C88048   9.191  10.360   2.729  0.3040  0.2382  0.2041
  653MOL0     C88049   8.984  10.215   2.689  0.3532 -0.3627  0.3295
  653MOL0     C88050   8.908  10.262   2.803 -1.2990 -0.2628  0.5444
  653MOL0     O88051   8.817  10.168   2.853  0.0349  0.4255  0.2752
  653MOL0     C88052   8.716  10.199   2.942 -0.1639  0.1475  0.7206
  653MOL0     C88053   8.743  10.289   3.050 -0.3112 -0.1190 -0.1526
  653MOL0     C88054   8.637  10.335   3.121  0.7125 -1.1106  0.0869
  653MOL0     C88055   8.506  10.287   3.099 -1.0133  0.3307 -0.4043
  653MOL0     O88056   8.404  10.337   3.182 -0.4164 -0.8855  0.5162
  653MOL0     C88057   8.369  10.246   3.282 -0.0763  0.1469 -0.4051
  653MOL0     C88058   8.253  10.277   3.378  0.0014  0.6005 -0.3748
  653MOL0     C88059   8.293  10.390   3.481 -0.1992  0.5972 -0.0029
  653MOL0     C88060   8.176  10.409   3.580 -0.1813  0.4543  0.1900
  653MOL0     C88061   8.199  10.512   3.697 -0.0075  0.5126  0.2655
  653MOL0     C88062   8.330  10.485   3.780 -0.4313  0.5046 -0.1324
  653MOL0     C88063   8.342  10.596   3.895  0.5331  0.6048 -0.0013
  653MOL0     C88064   8.353  10.733   3.832  0.5701  0.1095 -0.3350
  653MOL0    Cl88065   8.438  10.850   3.950 -0.0072  0.3745  0.1572
  653MOL0     C88066   8.486  10.186   3.006  0.4844  0.7616 -1.2126
  653MOL0     C88067   8.594  10.135   2.925  0.6765 -0.1125 -0.7324
  653MOL0     O88068   8.919  10.379   2.842 -0.7874  0.5792 -0.4046
  653MOL0     C88069   8.935  10.122   2.596 -0.1509 -0.4671  0.2813
  653MOL0     C88070   9.007  10.085   2.480  0.3540 -0.2876  0.2244
  653MOL0     N88071   8.919  10.028   1.691 -0.5149  0.3015  0.3511
  653MOL0     N88072   8.943  10.019   1.573  0.9364 -0.5356 -0.0071
  653MOL0     C88073  10.120  10.357   1.073  0.6718 -0.0823 -0.2771
  653MOL0     C88074  10.238  10.402   1.009  0.3768  0.7278 -0.1373
  653MOL0     C88075  10.687  10.403   1.023  0.5702  0.3999  0.5394
  653MOL0     C88076  10.725  10.456   0.895  0.7208 -0.0648 -0.3875
  653MOL0     C88077  10.851  10.503   0.868 -0.3478 -0.0642  0.3235
  653MOL0     C88078  10.949  10.504   0.968  0.2300  1.0842  0.6368
  653MOL0     O88079  11.070  10.554   0.929 -0.5715  0.1804 -0.0666
  653MOL0     C88080  11.180  10.560   1.023  0.6255  0.3870  0.2339
  653MOL0     C88081  11.307  10.594   0.951  0.0565  0.6828 -0.0301
  653MOL0     C88082  11.429  10.627   1.050  0.1353  1.1522 -0.1348
  653MOL0     C88083  11.455  10.525   1.159 -0.1794 -0.6276  0.5209
  653MOL0     C88084  11.568  10.557   1.248 -0.6896 -0.5198  0.5966
  653MOL0     C88085  11.663  10.580   1.323 -0.0376  0.0887  0.0527
  653MOL0     C88086  10.910  10.454   1.094 -0.5039  0.3941 -0.1295
  653MOL0     C88087  10.785  10.406   1.118  0.0005 -0.0474 -0.5474
  653MOL0     H88088  10.396  10.103   0.997 -2.1590 -2.9589 -0.6730
  653MOL0     H88089  10.186  10.026   1.059  0.8996 -0.1125  0.5954
  653MOL0     H88090   9.965  10.028   1.005  0.2222  2.0090 -0.2952
  653MOL0     H88091   9.928   9.994   1.170  0.0947 -1.1817 -1.5072
  653MOL0     H88092   9.752  10.170   1.002  2.2943  1.4593  1.4105
  653MOL0     H88093   9.725  10.000   1.017 -0.7424 -2.1332  2.1591
  653MOL0     H88094   9.700  10.044   1.285  0.4452 -1.2209 -0.1162
  653MOL0     H88095   9.706  10.212   1.217  0.6419  0.2271 -2.6106
  653MOL0     H88096   9.509  10.164   1.079 -0.1909  0.8631  1.3248
  653MOL0     H88097   9.507  10.000   1.132 -2.3367  1.8116 -4.1201
  653MOL0     H88098   9.478  10.066   1.376 -1.0130  0.1445  0.6868
  653MOL0     H88099   9.488  10.229   1.313 -3.2233  1.8650  0.2105
  653MOL0     H88100   9.288  10.187   1.171 -4.9488  0.5835  1.3311
  653MOL0     H88101   9.284  10.016   1.215  3.2676 -1.2146  0.4336
  653MOL0     H88102   9.261  10.195   1.448  0.9236  0.9739 -0.8706
  653MOL0     H88103   9.131  10.216   1.332  0.3921 -0.0251  1.6097
  653MOL0     H88104   9.231   9.947   1.442 -0.2331 -2.6626 -1.0411
  653MOL0     H88105   9.084   9.966   1.355  0.9590 -1.5990  0.6193
  653MOL0     H88106   9.240  10.057   1.688  0.4682 -1.4988 -1.7181
  653MOL0     H88107   9.076  10.182   1.923  0.8405  0.0494 -0.6207
  653MOL0     H88108   8.958  10.050   1.956  1.5509 -2.8180  0.5134
  653MOL0     H88109   9.243   9.962   1.907  1.1378  0.3301  0.5352
  653MOL0     H88110   9.124   9.899   2.021 -2.9513  1.0000  0.4768
  653MOL0     H88111   9.275  10.155   2.061  0.6379 -0.3425 -1.1468
  653MOL0     H88112   9.316  10.002   2.141 -0.4045  1.0003  3.0842
  653MOL0     H88113   9.088   9.968   2.219 -0.8702 -0.4011  0.5457
  653MOL0     H88114   9.054  10.135   2.185 -0.5233 -2.8752 -3.5824
  653MOL0     H88115   9.281  10.267   2.514 -0.3659 -1.5857 -1.4465
  653MOL0     H88116   9.169  10.333   2.833 -1.6496  1.8263  0.2597
  653MOL0     H88117   9.299  10.353   2.715  0.3470 -0.1114  0.6769
  653MOL0     H88118   9.162  10.463   2.712  0.5078  0.2469 -0.1016
  653MOL0     H88119   8.838  10.343   3.051  0.6227 -1.4403 -3.3130
  653MOL0     H88120   8.651  10.409   3.199 -2.5363 -2.1508  1.8636
  653MOL0     H88121   8.350  10.151   3.231  2.9350 -0.5440 -0.4365
  653MOL0     H88122   8.455  10.217   3.343 -0.2401 -2.4527 -1.2645
  653MOL0     H88123   8.166  10.311   3.320 -0.4581 -2.2197 -1.5142
  653MOL0     H88124   8.218  10.193   3.438 -1.2383  1.2492 -0.1729
  653MOL0     H88125   8.312  10.489   3.438 -2.1422 -0.1377 -2.8129
  653MOL0     H88126   8.385  10.359   3.532  1.7945  1.0799 -3.0401
  653MOL0     H88127   8.083  10.445   3.536 -0.3355  1.3044  1.1687
  653MOL0     H88128   8.166  10.310   3.626  1.7869  0.4478  0.7176
  653MOL0     H88129   8.116  10.516   3.768 -1.2092 -0.0521 -1.0851
  653MOL0     H88130   8.202  10.615   3.659  2.6227  0.2699 -0.3844
  653MOL0     H88131   8.334  10.381   3.814  0.4172  0.7774  0.6407
  653MOL0     H88132   8.419  10.496   3.717  0.1993  0.7337  0.7720
  653MOL0     H88133   8.428  10.572   3.958 -0.1887 -1.1992  0.3596
  653MOL0     H88134   8.252  10.600   3.959 -1.2342  0.3744 -2.3444
  653MOL0     H88135   8.261  10.782   3.799 -0.2399 -0.6584  0.7119
  653MOL0     H88136   8.413  10.732   3.741  1.2754  0.0380  0.1210
  653MOL0     H88137   8.388  10.143   2.989  1.8517 -2.7758 -0.9572
  653MOL0     H88138   8.575  10.057   2.853 -0.8002  0.1197 -0.6184
  653MOL0     H88139   8.834  10.085   2.612 -1.2504  2.7600  1.7305
  653MOL0     H88140   8.947  10.031   2.408 -0.2086 -0.2299  0.6431
  653MOL0     H88141  10.037  10.425   1.089 -1.3756 -2.0332 -1.8915
  653MOL0     H88142  10.275  10.498   0.977  2.3805 -0.6686 -2.3864
  653MOL0     H88143  10.642  10.454   0.824  2.6725  1.0729 -2.8654
  653MOL0     H88144  10.888  10.528   0.769 -1.3447 -0.2879 -0.1150
  653MOL0     H88145  11.163  10.653   1.078 -1.0867 -0.8735  1.9592
  653MOL0     H88146  11.182  10.475   1.091  2.4723 -0.7436 -1.1364
  653MOL0     H88147  11.283  10.671   0.877  1.3747  0.4281 -0.7526
  653MOL0     H88148  11.340  10.507   0.894 -0.8701 -0.6927  1.4468
  653MOL0     H88149  11.412  10.724   1.099  2.5444  1.3812  0.3490
  653MOL0     H88150  11.520  10.640   0.991  2.0893 -1.4643  2.0521
  653MOL0     H88151  11.475  10.431   1.107  2.0643  0.8083 -1.4289
  653MOL0     H88152  11.367  10.521   1.224 -1.2702  1.8203 -0.6953
  653MOL0     H88153  11.759  10.596   1.366 -0.5056  1.6858  0.5786
  653MOL0     H88154  10.987  10.453   1.170 -2.0595  1.2841  1.5449
  653MOL0     H88155  10.771  10.352   1.211  1.8233 -3.4838 -2.0667
  654MOL0     O88156   2.904   5.925  10.926  0.6520 -0.6349 -0.3552
  654MOL0     C88157   2.929   6.041  10.894 -0.4339  0.4420 -0.6187
  654MOL0     O88158   2.831   6.133  10.853 -0.2906 -0.2341 -0.1453
  654MOL0     C88159   2.697   6.102  10.874 -0.7464  0.3397 -0.2522
  654MOL0     C88160   2.605   6.093  10.766  0.1507 -0.2384 -0.6522
  654MOL0     C88161   2.467   6.081  10.780  0.5082  0.2116 -0.6119
  654MOL0     C88162   2.424   6.050  10.914  0.5791  0.8721 -0.6581
  654MOL0     O88163   2.289   6.027  10.920 -0.1559  0.0356 -0.0153
  654MOL0     C88164   2.216   6.048  11.038 -0.8920  0.3054 -0.4127
  654MOL0     C88165   2.093   5.973  11.040 -0.3250 -0.2263  0.1111
  654MOL0     C88166   1.987   6.014  11.141 -0.2428  0.1431 -0.5643
  654MOL0     C88167   1.869   5.925  11.137  0.5316  0.5130  0.1208
  654MOL0     C88168   1.781   5.936  11.263  0.3550  0.3688  0.3692
  654MOL0     C88169   1.691   6.063  11.287 -0.3610 -0.6669 -0.2531
  654MOL0     C88170   1.552   6.044  11.229  0.3433  0.1357  0.3354
  654MOL0     C88171   1.490   6.180  11.222  0.3977 -0.3851  0.2506
  654MOL0     N88172   1.448   6.224  11.352 -0.0186  0.1756 -0.2908
  654MOL0     C88173   1.333   6.178  11.407 -0.0236 -0.5372  0.3865
  654MOL0     C88174   1.328   6.240  11.526 -0.2645  0.9941 -0.2999
  654MOL0     C88175   1.222   6.227  11.633 -0.9818 -0.3908 -0.2800
  654MOL0     C88176   1.245   6.096  11.721 -0.1370 -0.4702 -0.6155
  654MOL0     C88177   1.388   6.098  11.791  0.3067 -0.1523  0.9426
  654MOL0     C88178   1.407   5.993  11.888 -0.2165  0.6866  0.0875
  654MOL0     O88179   1.456   5.879  11.817  0.0540  0.1637  0.2730
  654MOL0     C88180   1.506   5.773  11.898 -0.1336  0.1896  0.4480
  654MOL0     C88181   1.500   5.761  12.032  0.5510 -1.1973  0.0365
  654MOL0     C88182   1.554   5.653  12.103 -1.2302 -0.6213  0.4220
  654MOL0     C88183   1.531   5.645  12.251 -0.6709  0.0818 -0.1584
  654MOL0     C88184   1.626   5.556  12.030  0.2081  0.5613  1.0017
  654MOL0     C88185   1.691   5.433  12.089 -0.2074  0.0986  0.1812
  654MOL0     O88186   1.683   5.320  12.001  0.6825 -0.0809  0.5951
  654MOL0     C88187   1.733   5.198  12.050 -0.7117  0.5551 -0.1371
  654MOL0     C88188   1.822   5.123  11.969  0.4959  0.6174 -0.1786
  654MOL0     C88189   1.853   4.992  12.004  1.1469 -0.3060 -0.7311
  654MOL0     C88190   1.815   4.944  12.139  0.5672 -0.0936 -0.8516
  654MOL0     O88191   1.844   4.825  12.211 -0.7604 -0.6856  0.3729
  654MOL0     C88192   1.967   4.752  12.171 -0.0228 -0.0280 -0.2724
  654MOL0     C88193   1.963   4.621  12.247  0.1331 -0.3136  0.5037
  654MOL0     C88194   2.090   4.551  12.219 -0.0082  0.2808 -0.3684
  654MOL0     C88195   2.091   4.418  12.283 -0.6522 -0.1579 -0.3137
  654MOL0     C88196   2.219   4.338  12.266  0.2878 -0.4450  0.5269
  654MOL0     C88197   2.345   4.393  12.339  0.0724 -0.0635 -0.6857
  654MOL0     C88198   2.465   4.288  12.328 -0.6735  0.7120  0.2104
  654MOL0     C88199   2.564   4.296  12.446 -0.3942 -1.1338  0.2930
  654MOL0    Cl88200   2.644   4.455  12.430  0.0901  0.6146 -0.4055
  654MOL0     C88201   1.734   5.026  12.215 -0.7584  0.1181 -0.0250
  654MOL0     C88202   1.692   5.147  12.161  0.2121 -0.0955 -0.2613
  654MOL0     O88203   1.752   5.431  12.194 -0.3007 -0.1514 -0.9172
  654MOL0     C88204   1.627   5.566  11.889 -0.0728  0.1198 -1.2416
  654MOL0     C88205   1.565   5.670  11.825  0.7854 -0.5559  0.7047
  654MOL0     N88206   1.439   6.327  11.535  0.6460 -0.3317 -0.0555
  654MOL0     N88207   1.507   6.309  11.432  0.3257  0.1768  0.3699
  654MOL0     C88208   2.513   6.054  11.016 -0.5513  0.8407 -0.3453
  654MOL0     C88209   2.642   6.088  11.006 -0.1662  0.1675 -0.0414
  654MOL0     C88210   3.074   6.090  10.905 -0.5658 -0.6783  0.1165
  654MOL0     C88211   3.185   6.003  10.947  0.6985 -0.3080 -0.2534
  654MOL0     C88212   3.310   6.061  10.969  0.6826 -0.3087  0.6867
  654MOL0     C88213   3.344   6.190  10.938  0.4021 -0.8331 -0.0073
  654MOL0     O88214   3.476   6.237  10.944 -0.2238  0.4779  0.4102
  654MOL0     C88215   3.509   6.370  10.894 -0.7867  0.4055 -0.0025
  654MOL0     C88216   3.659   6.376  10.914  0.0142  0.7386 -0.1151
  654MOL0     C88217   3.734   6.500  10.880  0.3321  0.3740  0.6977
  654MOL0     C88218   3.744   6.538  10.726 -0.0788 -0.7975  0.6864
  654MOL0     C88219   3.633   6.614  10.674  0.2581 -0.4146  0.1943
  654MOL0     C88220   3.528   6.669  10.633 -0.0921 -0.7211  0.2643
  654MOL0     C88221   3.245   6.271  10.890 -0.6078 -0.9034  0.1127
  654MOL0     C88222   3.112   6.220  10.872  0.1234  1.0392 -0.3746
  654MOL0     H88223   2.654   6.117  10.672  0.7487 -3.2605 -1.2085
  654MOL0     H88224   2.399   6.098  10.698  0.3008  2.6601  0.0053
  654MOL0     H88225   2.275   6.020  11.127  0.8081 -0.5472 -1.7378
  654MOL0     H88226   2.189   6.153  11.046  0.7209  0.6236  1.9440
  654MOL0     H88227   2.042   5.978  10.943 -1.0054 -0.3587  0.4588
  654MOL0     H88228   2.135   5.873  11.059 -0.5404 -0.8470 -2.3444
  654MOL0     H88229   2.025   6.009  11.243 -1.3438 -1.9134 -0.2087
  654MOL0     H88230   1.957   6.116  11.114  0.0734  0.0633 -1.2334
  654MOL0     H88231   1.809   5.939  11.046 -1.2839 -2.0284  0.8123
  654MOL0     H88232   1.897   5.819  11.132 -0.8332  0.1032  0.7391
  654MOL0     H88233   1.715   5.849  11.254  0.7862  0.1837 -1.1446
  654MOL0     H88234   1.833   5.940  11.360 -2.7246 -0.5314  2.1977
  654MOL0     H88235   1.687   6.101  11.390  2.0463  1.8395 -0.9597
  654MOL0     H88236   1.726   6.153  11.236  1.3558 -0.3202  1.4129
  654MOL0     H88237   1.555   6.016  11.123  1.2718  2.2409 -0.2468
  654MOL0     H88238   1.495   5.974  11.290  1.2667 -0.9469 -0.0065
  654MOL0     H88239   1.401   6.179  11.158  0.9804 -0.7575 -0.5769
  654MOL0     H88240   1.560   6.253  11.181 -0.6352  0.2560 -0.4147
  654MOL0     H88241   1.261   6.112  11.361  0.3034 -0.3307 -0.4290
  654MOL0     H88242   1.224   6.323  11.686  0.6267  0.6896 -2.1704
  654MOL0     H88243   1.125   6.207  11.587 -1.4587 -2.4244  1.4299
  654MOL0     H88244   1.226   6.007  11.661  0.2455 -1.1362  0.2355
  654MOL0     H88245   1.175   6.084  11.804  2.7345 -1.8159  1.7980
  654MOL0     H88246   1.399   6.192  11.846 -0.7601  0.4578  0.1467
  654MOL0     H88247   1.461   6.094  11.710  0.5601 -3.7378  1.2164
  654MOL0     H88248   1.313   5.964  11.937 -0.5812 -2.0027 -1.9216
  654MOL0     H88249   1.482   6.027  11.960  0.1584 -0.3885  0.2300
  654MOL0     H88250   1.455   5.837  12.096  1.2813 -1.1967  0.5639
  654MOL0     H88251   1.475   5.731  12.290 -1.8406 -0.6029 -0.2915
  654MOL0     H88252   1.461   5.563  12.269  0.0105 -0.6364 -0.7240
  654MOL0     H88253   1.624   5.635  12.308 -0.9357  1.0469  0.4754
  654MOL0     H88254   1.861   5.152  11.872 -0.0538  0.9763 -0.2995
  654MOL0     H88255   1.921   4.937  11.940  1.7573  1.9033 -2.0699
  654MOL0     H88256   1.973   4.742  12.062  0.2045 -0.1190 -0.2527
  654MOL0     H88257   2.053   4.814  12.199  0.8110 -0.0637 -2.5596
  654MOL0     H88258   1.946   4.644  12.352 -3.6598 -0.4011  0.0408
  654MOL0     H88259   1.887   4.555  12.203  1.6070 -1.0262 -1.1043
  654MOL0     H88260   2.163   4.623  12.257 -0.3670 -0.3182  1.5886
  654MOL0     H88261   2.114   4.545  12.112  3.5318 -0.4902  0.3494
  654MOL0     H88262   2.066   4.416  12.390  0.7111  0.0495  0.0315
  654MOL0     H88263   2.013   4.351  12.246 -0.0933 -2.4748  2.2669
  654MOL0     H88264   2.239   4.318  12.160  0.4149 -2.2336  0.8551
  654MOL0     H88265   2.192   4.243  12.313 -1.6981  0.2147  0.7911
  654MOL0     H88266   2.381   4.481  12.285 -1.3397 -0.1090 -1.7487
  654MOL0     H88267   2.325   4.434  12.439  1.0635  5.6024 -2.4969
  654MOL0     H88268   2.517   4.300  12.232  1.8042 -1.2730  1.1965
  654MOL0     H88269   2.433   4.183  12.324 -0.4285  0.5330  2.2094
  654MOL0     H88270   2.635   4.214  12.430  1.5590  1.0018 -3.1233
  654MOL0     H88271   2.509   4.287  12.540 -0.0990 -1.9856  0.3923
  654MOL0     H88272   1.712   5.011  12.321 -0.6183 -0.2098 -0.0419
  654MOL0     H88273   1.613   5.204  12.207  1.6791  2.6304 -0.9222
  654MOL0     H88274   1.695   5.508  11.828  1.3892 -0.5175  0.8583
  654MOL0     H88275   1.576   5.678  11.717 -1.2411  0.9313  0.5558
  654MOL0     H88276   2.481   6.038  11.118 -3.1302  2.2643 -0.8466
  654MOL0     H88277   2.715   6.100  11.085  0.1203 -0.3452 -0.2189
  654MOL0     H88278   3.153   5.902  10.972 -0.6137  0.6549  2.3331
  654MOL0     H88279   3.384   5.992  11.009  1.4558 -0.7755 -1.4096
  654MOL0     H88280   3.479   6.404  10.795  0.7942  2.4787  0.1586
  654MOL0     H88281   3.463   6.440  10.964  1.4637  1.6560  0.3209
  654MOL0     H88282   3.703   6.294  10.857  1.4479  0.5206  1.2342
  654MOL0     H88283   3.676   6.360  11.021  1.7317 -2.5213 -0.7452
  654MOL0     H88284   3.838   6.482  10.908  1.4603  0.1404 -3.0643
  654MOL0     H88285   3.695   6.587  10.932  0.9218 -0.0002  1.7989
  654MOL0     H88286   3.762   6.445  10.671  3.8971  0.3879 -0.3408
  654MOL0     H88287   3.834   6.596  10.705 -0.7998  0.5664  1.2688
  654MOL0     H88288   3.425   6.683  10.607  0.0556  0.4355  0.2361
  654MOL0     H88289   3.265   6.371  10.854 -3.5157  0.0609  0.9207
  654MOL0     H88290   3.036   6.291  10.844 -1.7269  0.2105  2.1923
  655MOL0     O88291   2.707   9.540   8.442 -0.2975 -0.0158  0.0945
  655MOL0     C88292   2.831   9.526   8.437 -0.2250 -0.0479 -0.0420
  655MOL0     O88293   2.919   9.562   8.532 -0.4116  0.7799 -0.2506
  655MOL0     C88294   2.886   9.658   8.632 -0.0469  0.0867  0.3004
  655MOL0     C88295   2.779   9.752   8.631  0.0331  0.7455  0.7659
  655MOL0     C88296   2.773   9.863   8.728 -0.0165  0.8034 -0.7415
  655MOL0     C88297   2.867   9.868   8.835 -0.3372 -0.1447 -0.4395
  655MOL0     O88298   2.859   9.962   8.941 -0.0920  0.0624 -0.6958
  655MOL0     C88299   2.743  10.047   8.940  0.8742  0.4590 -0.8148
  655MOL0     C88300   2.762  10.174   9.030 -0.3987  0.4956 -0.3999
  655MOL0     C88301   2.907  10.223   8.999  0.5421  0.2086  0.4513
  655MOL0     C88302   2.923  10.357   9.063  0.0888 -0.3660 -0.0220
  655MOL0     C88303   2.878  10.471   8.962  1.2570 -0.1119  0.4498
  655MOL0     C88304   2.897  10.610   9.020 -0.2120 -0.0803 -0.8899
  655MOL0     C88305   2.819  10.629   9.149 -0.1211  0.2433 -0.2515
  655MOL0     C88306   2.840  10.767   9.203  0.4604 -0.6043 -0.0062
  655MOL0     N88307   2.758  10.810   9.314 -0.0679 -0.3608  0.2281
  655MOL0     C88308   2.741  10.944   9.344  0.8539 -1.0911  0.0509
  655MOL0     C88309   2.626  10.952   9.413  0.6948 -0.2337 -0.8846
  655MOL0     C88310   2.567  11.083   9.469  0.7394  0.1820  0.3339
  655MOL0     C88311   2.414  11.074   9.515  0.3797  0.2074 -1.0917
  655MOL0     C88312   2.394  10.996   9.639 -0.1657 -0.1785 -0.0729
  655MOL0     C88313   2.252  10.981   9.686 -0.7226 -0.8816 -0.7907
  655MOL0     O88314   2.189  11.110   9.714  0.0813 -0.1369 -0.4796
  655MOL0     C88315   2.073  11.099   9.779  0.9199 -0.8611  0.5373
  655MOL0     C88316   2.034  11.195   9.869 -0.1510  1.0935 -0.1464
  655MOL0     C88317   1.902  11.190   9.929  0.5362 -0.0094  0.6809
  655MOL0     C88318   1.867  11.311  10.022  0.1412 -0.8790 -0.4468
  655MOL0     C88319   1.816  11.080   9.901  1.0492  0.3241 -0.4557
  655MOL0     C88320   1.692  11.044   9.982 -0.7815 -0.2056 -0.7400
  655MOL0     O88321   1.599  10.970   9.916 -0.2788  0.0768  0.1531
  655MOL0     C88322   1.476  10.938   9.954  0.3979  0.8362 -0.6843
  655MOL0     C88323   1.364  11.029   9.952  0.1989  0.0706 -0.7723
  655MOL0     C88324   1.234  10.980   9.976 -0.0163 -0.3792 -0.3463
  655MOL0     C88325   1.207  10.855  10.007  0.2561 -0.2962 -0.1614
  655MOL0     O88326   1.074  10.824  10.035  0.2040 -0.2777  0.2673
  655MOL0     C88327   1.056  10.771  10.171 -0.2357 -0.2746 -0.1552
  655MOL0     C88328   0.906  10.785  10.208  0.1807  0.0996  0.0416
  655MOL0     C88329   0.825  10.694  10.111 -0.3432 -0.9847 -0.1670
  655MOL0     C88330   0.688  10.678  10.176  0.5782 -0.4419 -0.2945
  655MOL0     C88331   0.594  10.630  10.076  0.0454  0.2267 -0.5104
  655MOL0     C88332   0.457  10.587  10.127  0.0509  0.0959 -0.3046
  655MOL0     C88333   0.452  10.504  10.258 -0.6017 -0.1857 -0.7426
  655MOL0     C88334   0.315  10.479  10.304 -0.1412 -1.0889  1.2006
  655MOL0    Cl88335   0.306  10.346  10.422 -0.3211 -0.4335 -0.5490
  655MOL0     C88336   1.314  10.760  10.001  0.2419 -0.0364 -1.3066
  655MOL0     C88337   1.445  10.800   9.975 -0.1044  0.6013 -0.5529
  655MOL0     O88338   1.675  11.089  10.103 -0.4101 -0.5434 -0.4316
  655MOL0     C88339   1.854  10.990   9.804 -0.4477  0.2544  0.5911
  655MOL0     C88340   1.983  10.989   9.749 -0.0089 -0.3045 -0.1202
  655MOL0     N88341   2.567  10.828   9.416 -0.7212 -0.1859 -0.2396
  655MOL0     N88342   2.649  10.746   9.354  0.3502  1.1465 -0.1379
  655MOL0     C88343   2.969   9.774   8.843  0.9586 -1.0067  0.3024
  655MOL0     C88344   2.977   9.679   8.740 -0.3096  0.5507 -0.1968
  655MOL0     C88345   2.882   9.458   8.315 -0.1545  0.5912 -0.2130
  655MOL0     C88346   3.014   9.414   8.294  0.3438  0.5885  0.4103
  655MOL0     C88347   3.060   9.376   8.169  0.7179  0.1876  0.3351
  655MOL0     C88348   2.963   9.357   8.062  0.0286  0.8862  0.6350
  655MOL0     O88349   3.009   9.286   7.950 -1.0046 -0.7640  0.3064
  655MOL0     C88350   2.950   9.307   7.820 -0.8426  0.0076  0.3671
  655MOL0     C88351   3.048   9.376   7.719  0.6263 -0.6138  0.1953
  655MOL0     C88352   3.187   9.327   7.725  0.4257 -0.0067  0.8920
  655MOL0     C88353   3.197   9.192   7.656  0.2478  0.1835  0.0856
  655MOL0     C88354   3.344   9.163   7.655  0.5135  0.6698 -0.0423
  655MOL0     C88355   3.467   9.136   7.662  0.8537 -0.2306  0.1597
  655MOL0     C88356   2.834   9.394   8.081 -0.1811  1.3006  0.5689
  655MOL0     C88357   2.797   9.453   8.203  0.9960 -0.0627  0.1738
  655MOL0     H88358   2.711   9.765   8.548  1.1875 -0.1421 -0.3564
  655MOL0     H88359   2.694   9.931   8.696 -0.6515  0.6087  0.3580
  655MOL0     H88360   2.728  10.081   8.837  2.2646 -0.6444 -1.4081
  655MOL0     H88361   2.658   9.989   8.976  2.7847 -1.8109  0.2653
  655MOL0     H88362   2.685  10.249   9.006 -0.8599  0.8803  2.0242
  655MOL0     H88363   2.758  10.145   9.135 -0.6329  0.1880 -0.4917
  655MOL0     H88364   2.974  10.147   9.041  1.0421 -0.0175 -0.7211
  655MOL0     H88365   2.931  10.227   8.892 -1.4650 -1.5474 -0.1485
  655MOL0     H88366   2.871  10.353   9.159 -3.2906  1.1923 -1.6197
  655MOL0     H88367   3.031  10.368   9.080  0.3847 -0.8874 -1.4049
  655MOL0     H88368   2.938  10.460   8.871 -3.4125 -1.2766 -2.8764
  655MOL0     H88369   2.777  10.454   8.924  0.3678  1.2785  2.0758
  655MOL0     H88370   3.003  10.622   9.045  0.1044  0.1589 -2.2547
  655MOL0     H88371   2.874  10.692   8.951 -0.2859  2.4873  1.9515
  655MOL0     H88372   2.711  10.631   9.131 -0.3411  1.2364  1.0919
  655MOL0     H88373   2.846  10.563   9.232  1.6128  0.2816 -0.7502
  655MOL0     H88374   2.809  10.836   9.124  0.4405  0.8762  1.2391
  655MOL0     H88375   2.944  10.783   9.232  0.7631  2.1827 -2.1932
  655MOL0     H88376   2.810  11.021   9.314 -1.6148  0.5316 -1.8757
  655MOL0     H88377   2.627  11.113   9.556  0.3959  2.1443 -0.0532
  655MOL0     H88378   2.574  11.171   9.405  1.3990 -0.8567 -1.0549
  655MOL0     H88379   2.370  11.011   9.437  1.4120 -1.1248 -0.6328
  655MOL0     H88380   2.371  11.174   9.521  1.4837  0.6360  0.4079
  655MOL0     H88381   2.434  11.058   9.720  0.3388  2.3204 -2.1324
  655MOL0     H88382   2.447  10.900   9.640  1.7950  0.8589  0.1800
  655MOL0     H88383   2.248  10.921   9.777 -2.7333  0.1483 -0.1525
  655MOL0     H88384   2.204  10.925   9.605 -1.1345 -0.8781 -0.5489
  655MOL0     H88385   2.089  11.289   9.877 -1.5356  1.8721  0.6181
  655MOL0     H88386   1.920  11.404  10.002  1.5967 -1.9981 -2.2208
  655MOL0     H88387   1.761  11.337  10.019 -0.1486 -1.8948  0.2435
  655MOL0     H88388   1.887  11.280  10.125 -0.9915 -0.7371 -0.1724
  655MOL0     H88389   1.394  11.130   9.926  3.5797 -0.7611 -0.6437
  655MOL0     H88390   1.150  11.049   9.970 -0.5170 -1.0542 -1.5119
  655MOL0     H88391   1.096  10.669  10.176  4.8122  1.4592  1.0872
  655MOL0     H88392   1.125  10.826  10.236 -0.1743 -1.5036  0.8581
  655MOL0     H88393   0.890  10.748  10.310  1.8000  0.9015  0.6150
  655MOL0     H88394   0.874  10.890  10.209  1.6193  0.5584 -0.0008
  655MOL0     H88395   0.872  10.596  10.096  0.2348 -0.4454 -2.0535
  655MOL0     H88396   0.813  10.740  10.013  2.0164 -1.1939 -0.6076
  655MOL0     H88397   0.708  10.618  10.265 -1.4866 -0.0712  0.4683
  655MOL0     H88398   0.652  10.773  10.218  1.1036 -0.6197  0.5940
  655MOL0     H88399   0.640  10.544  10.025  1.3349  1.3667 -1.3168
  655MOL0     H88400   0.578  10.710  10.003  5.2359  0.3698 -1.8794
  655MOL0     H88401   0.402  10.677  10.157  1.2008  0.7886 -0.1745
  655MOL0     H88402   0.406  10.531  10.048 -0.6118 -1.0810  0.9204
  655MOL0     H88403   0.509  10.554  10.338  0.1113  1.5238 -2.2614
  655MOL0     H88404   0.502  10.411  10.228  1.9747  1.0567 -0.6199
  655MOL0     H88405   0.255  10.453  10.216  0.3419  0.8206  0.2581
  655MOL0     H88406   0.269  10.569  10.346 -0.4502  0.0801 -1.4314
  655MOL0     H88407   1.294  10.653  10.006 -0.7394  0.1363 -1.3877
  655MOL0     H88408   1.516  10.720   9.961 -1.8734 -0.9790 -0.7968
  655MOL0     H88409   1.799  10.902   9.774 -0.3701  0.7885 -1.2020
  655MOL0     H88410   1.997  10.918   9.668 -2.0689  1.3879 -2.0794
  655MOL0     H88411   3.028   9.768   8.934  2.0840  2.1551 -0.0813
  655MOL0     H88412   3.055   9.604   8.737 -0.6090  0.1249 -4.8244
  655MOL0     H88413   3.083   9.411   8.378 -0.8754  2.3039  1.5616
  655MOL0     H88414   3.164   9.351   8.153  0.6980 -0.0191  0.5328
  655MOL0     H88415   2.933   9.210   7.772  0.0750  1.0753 -2.3114
  655MOL0     H88416   2.849   9.350   7.827 -0.2264  1.2608  2.2364
  655MOL0     H88417   3.051   9.481   7.747  0.8294 -0.3110 -0.9086
  655MOL0     H88418   3.001   9.363   7.621  0.7819  3.5371 -0.5854
  655MOL0     H88419   3.228   9.339   7.826  3.5746  0.9957 -0.3866
  655MOL0     H88420   3.240   9.405   7.670 -3.7618  3.5865  1.3002
  655MOL0     H88421   3.158   9.191   7.553  1.7875 -0.3027 -0.5130
  655MOL0     H88422   3.151   9.113   7.716  1.2424 -1.0341 -0.7100
  655MOL0     H88423   3.573   9.123   7.663  1.0887  1.5440 -0.0226
  655MOL0     H88424   2.754   9.372   8.011  1.7171 -3.8737 -0.3821
  655MOL0     H88425   2.702   9.505   8.214  1.1222 -0.4329  4.4849
  656MOL0     O88426   8.953   3.923   0.839  0.4066 -0.9186  0.3258
  656MOL0     C88427   8.992   4.037   0.809  0.3419  0.0958 -0.5891
  656MOL0     O88428   8.909   4.140   0.791  0.3528 -0.1399  0.6002
  656MOL0     C88429   8.784   4.130   0.839  1.0438  0.6959  0.0083
  656MOL0     C88430   8.673   4.163   0.764  0.0497 -0.0655 -0.0171
  656MOL0     C88431   8.547   4.151   0.814  0.2467  0.4413 -0.1188
  656MOL0     C88432   8.522   4.100   0.941  0.1433  0.0332  0.6403
  656MOL0     O88433   8.392   4.088   0.994 -0.8157 -0.4893 -0.6397
  656MOL0     C88434   8.285   4.061   0.901  0.1833  0.4978  0.1968
  656MOL0     C88435   8.144   4.066   0.952 -0.3783 -0.3277 -0.6287
  656MOL0     C88436   8.105   4.195   1.019  0.0935 -0.1143 -0.3068
  656MOL0     C88437   7.955   4.186   1.055  0.9738  0.8933 -0.0257
  656MOL0     C88438   7.915   4.297   1.154  0.7190 -0.6554  0.6322
  656MOL0     C88439   7.770   4.309   1.203  0.1296 -0.5855 -0.4408
  656MOL0     C88440   7.750   4.227   1.334 -1.1880  0.1500 -0.4166
  656MOL0     C88441   7.605   4.221   1.393 -0.0581  0.5107 -0.8821
  656MOL0     N88442   7.519   4.146   1.307  0.0804  0.4408 -0.0948
  656MOL0     C88443   7.502   4.007   1.318  0.9233  0.2729 -0.4631
  656MOL0     C88444   7.397   3.986   1.236  0.4679 -0.5731  0.7588
  656MOL0     C88445   7.315   3.860   1.228 -0.2254 -0.2542  0.4057
  656MOL0     C88446   7.243   3.822   1.359  0.4221  0.3987  0.6761
  656MOL0     C88447   7.132   3.708   1.328  0.7118 -0.1120 -0.0698
  656MOL0     C88448   7.051   3.680   1.455  0.8659  0.3731 -0.3714
  656MOL0     O88449   6.972   3.561   1.453 -0.7994 -0.3209 -0.0715
  656MOL0     C88450   6.837   3.554   1.419  0.0806  1.1241  0.1070
  656MOL0     C88451   6.766   3.433   1.437 -0.2025 -0.3904  0.1732
  656MOL0     C88452   6.639   3.408   1.404  0.1220 -0.0703  0.4019
  656MOL0     C88453   6.587   3.269   1.414  0.3396 -0.3500 -0.4508
  656MOL0     C88454   6.565   3.517   1.338  0.1990  0.4076  0.3673
  656MOL0     C88455   6.418   3.507   1.302  0.4624  0.2692  0.5802
  656MOL0     O88456   6.372   3.609   1.223  0.5658  1.0722  0.0592
  656MOL0     C88457   6.238   3.611   1.183 -0.2378  0.9198  0.5123
  656MOL0     C88458   6.165   3.726   1.209 -0.0336 -0.5132  0.8213
  656MOL0     C88459   6.028   3.737   1.171  0.1967 -0.6449 -0.5526
  656MOL0     C88460   5.962   3.627   1.135  0.0668 -0.6730  0.0820
  656MOL0     O88461   5.826   3.641   1.110 -0.9071 -0.6298 -0.3575
  656MOL0     C88462   5.746   3.543   1.044 -0.6990 -0.0946 -0.1507
  656MOL0     C88463   5.601   3.602   1.040  0.0096 -0.5423  0.0846
  656MOL0     C88464   5.550   3.641   1.173 -0.0132 -1.1994 -0.3802
  656MOL0     C88465   5.400   3.665   1.199  0.3143  0.0804 -0.0162
  656MOL0     C88466   5.392   3.720   1.344  0.5118  0.8144 -0.0525
  656MOL0     C88467   5.248   3.767   1.367 -0.3328 -0.3149 -0.1083
  656MOL0     C88468   5.143   3.656   1.386  0.0217 -0.6358  0.2052
  656MOL0     C88469   5.008   3.721   1.443 -0.5033 -1.3572  0.3862
  656MOL0    Cl88470   4.919   3.786   1.312 -0.3724 -0.2679  0.2659
  656MOL0     C88471   6.032   3.507   1.126 -0.1607 -0.0430 -0.1904
  656MOL0     C88472   6.166   3.498   1.144 -0.3666 -0.3656 -0.3539
  656MOL0     O88473   6.347   3.426   1.355  0.8944 -0.1079 -0.2832
  656MOL0     C88474   6.630   3.643   1.328  0.6731  0.7315 -0.2004
  656MOL0     C88475   6.763   3.656   1.364  0.5499  0.3752 -0.3251
  656MOL0     N88476   7.363   4.108   1.176 -0.3742  0.4686 -0.2067
  656MOL0     N88477   7.430   4.202   1.219  0.0088 -0.1004 -0.7303
  656MOL0     C88478   8.630   4.067   1.019 -0.3132  0.3071 -0.2082
  656MOL0     C88479   8.760   4.086   0.977  0.5461 -0.8300 -0.2576
  656MOL0     C88480   9.137   4.060   0.783  0.6990 -0.7363 -0.0405
  656MOL0     C88481   9.187   4.186   0.818 -0.0588 -0.1851  0.5455
  656MOL0     C88482   9.324   4.217   0.791 -0.7397  0.0776  0.3138
  656MOL0     C88483   9.410   4.121   0.743  0.3405  0.2415  0.1910
  656MOL0     O88484   9.535   4.157   0.714  0.7560 -0.9013  0.4874
  656MOL0     C88485   9.632   4.148   0.824  0.1238  1.1711 -0.8059
  656MOL0     C88486   9.765   4.223   0.814  0.0729  0.6819 -0.1163
  656MOL0     C88487   9.842   4.185   0.682  0.6026 -0.6078 -0.8639
  656MOL0     C88488   9.976   4.243   0.700 -0.1160  1.1944  0.3960
  656MOL0     C88489  10.059   4.250   0.580 -0.2148 -0.0680 -0.2098
  656MOL0     C88490  10.132   4.258   0.480  0.7435  0.6447 -0.0196
  656MOL0     C88491   9.361   3.995   0.712  0.2977 -0.2428 -0.1580
  656MOL0     C88492   9.230   3.957   0.736  1.0245 -0.1736 -0.9042
  656MOL0     H88493   8.679   4.206   0.665  0.6707  0.3804  0.2052
  656MOL0     H88494   8.467   4.190   0.752 -0.1627 -2.3031 -1.4356
  656MOL0     H88495   8.286   4.129   0.815 -1.8491 -0.7089 -0.8838
  656MOL0     H88496   8.290   3.963   0.852 -1.6685  1.6505 -2.5577
  656MOL0     H88497   8.078   4.050   0.866 -0.8488 -1.0847 -0.1391
  656MOL0     H88498   8.141   3.981   1.021  2.8650  0.6695  0.9105
  656MOL0     H88499   8.165   4.205   1.110  0.6642 -2.1305 -0.4228
  656MOL0     H88500   8.118   4.282   0.954  0.1850  0.8578  0.9831
  656MOL0     H88501   7.905   4.191   0.958  0.8464  1.5152  0.0735
  656MOL0     H88502   7.932   4.085   1.090 -0.4950  0.9875 -0.6661
  656MOL0     H88503   7.978   4.300   1.243 -0.9764 -1.9362  1.9262
  656MOL0     H88504   7.931   4.391   1.100 -2.3581  0.2990  1.1756
  656MOL0     H88505   7.748   4.413   1.231  2.2446 -0.7469  2.2983
  656MOL0     H88506   7.699   4.272   1.129  0.3790 -1.4914 -0.2366
  656MOL0     H88507   7.781   4.124   1.316 -1.6464 -0.3234  1.2758
  656MOL0     H88508   7.818   4.264   1.411 -0.0366 -0.6262 -1.0262
  656MOL0     H88509   7.571   4.322   1.417  0.8543  0.2643  1.7437
  656MOL0     H88510   7.602   4.170   1.490 -2.8824 -0.4291 -1.3614
  656MOL0     H88511   7.554   3.932   1.377 -0.0280  0.0881  0.1569
  656MOL0     H88512   7.243   3.874   1.148  0.5559  1.7558 -0.0330
  656MOL0     H88513   7.385   3.779   1.206  0.2238 -0.9199  3.6485
  656MOL0     H88514   7.196   3.909   1.406 -0.4021 -1.0201  2.6286
  656MOL0     H88515   7.322   3.787   1.426  1.8186 -3.6793 -2.6611
  656MOL0     H88516   7.193   3.623   1.297  0.8222 -0.3472  0.7653
  656MOL0     H88517   7.061   3.735   1.249  1.3224  0.2186 -0.5195
  656MOL0     H88518   6.991   3.768   1.480  1.2896 -0.0760  2.6021
  656MOL0     H88519   7.126   3.665   1.532  1.1658  1.4227 -0.4469
  656MOL0     H88520   6.821   3.357   1.491  0.4868  1.1965  1.8371
  656MOL0     H88521   6.545   3.249   1.513  3.9932 -1.4425  1.0728
  656MOL0     H88522   6.511   3.243   1.340 -1.4022 -1.4038  1.5815
  656MOL0     H88523   6.675   3.204   1.401  0.8227  0.4423 -1.2226
  656MOL0     H88524   6.223   3.804   1.259  1.3332 -0.7399 -0.3438
  656MOL0     H88525   5.980   3.835   1.179  2.1287  0.3665 -0.7765
  656MOL0     H88526   5.789   3.525   0.945  0.7995 -1.1678  0.6516
  656MOL0     H88527   5.739   3.451   1.103  0.0384 -0.6033 -0.8226
  656MOL0     H88528   5.599   3.681   0.965 -0.9695 -1.6592 -1.1091
  656MOL0     H88529   5.534   3.527   0.997 -1.7212  0.9588  0.0677
  656MOL0     H88530   5.599   3.735   1.203 -1.0188 -0.9740  0.6279
  656MOL0     H88531   5.592   3.568   1.243  1.1450  1.7375  2.2462
  656MOL0     H88532   5.352   3.725   1.122 -0.1563  0.6960  0.7382
  656MOL0     H88533   5.353   3.566   1.195  2.5765 -1.3572  3.4542
  656MOL0     H88534   5.461   3.802   1.365 -1.1659  2.0117  1.0418
  656MOL0     H88535   5.423   3.642   1.415  1.2198 -0.1721 -1.3999
  656MOL0     H88536   5.251   3.838   1.450  1.7315 -0.4925  0.0261
  656MOL0     H88537   5.217   3.821   1.277 -1.2785  1.1893  1.0824
  656MOL0     H88538   5.176   3.579   1.456  0.4188 -1.0691 -0.4579
  656MOL0     H88539   5.117   3.598   1.297  1.2688 -0.8984 -0.0052
  656MOL0     H88540   5.037   3.804   1.508  2.3675 -0.8264 -1.3865
  656MOL0     H88541   4.952   3.643   1.496 -3.6447  1.2483  1.1829
  656MOL0     H88542   5.964   3.423   1.113 -0.9598  0.5643 -0.0795
  656MOL0     H88543   6.211   3.400   1.137 -0.4992 -0.3632 -1.5346
  656MOL0     H88544   6.575   3.729   1.292  1.8683  1.2988 -0.7466
  656MOL0     H88545   6.812   3.753   1.366 -0.4180  0.9161 -1.4129
  656MOL0     H88546   8.592   4.022   1.110 -1.8281  2.4453  0.2837
  656MOL0     H88547   8.827   4.057   1.057 -2.2457 -0.8427  2.2286
  656MOL0     H88548   9.134   4.266   0.869  0.5490  1.0045 -0.6311
  656MOL0     H88549   9.373   4.314   0.797 -2.8967  1.1446  2.4277
  656MOL0     H88550   9.587   4.184   0.917 -1.3428 -0.6083 -0.7828
  656MOL0     H88551   9.650   4.043   0.847 -0.5124  1.3326  0.5247
  656MOL0     H88552   9.808   4.171   0.900 -2.3137 -1.9768 -0.4013
  656MOL0     H88553   9.749   4.330   0.833 -0.3451  0.0918  3.5658
  656MOL0     H88554   9.793   4.224   0.592  0.4551 -0.3485 -0.6733
  656MOL0     H88555   9.860   4.078   0.690  0.8962 -0.4168  2.9752
  656MOL0     H88556  10.025   4.187   0.780 -1.7538 -1.6250 -0.4395
  656MOL0     H88557   9.964   4.345   0.737 -2.3435  1.1473 -0.0616
  656MOL0     H88558  10.198   4.275   0.397 -1.7195 -0.6546 -2.3822
  656MOL0     H88559   9.428   3.924   0.665 -0.9927 -1.2844 -0.4850
  656MOL0     H88560   9.182   3.861   0.724 -1.0851  0.2815  2.3796
  657MOL0     O88561   6.883   7.649   1.170  0.4426 -0.4056 -0.8556
  657MOL0     C88562   6.965   7.598   1.100  0.8848  0.0892  0.5161
  657MOL0     O88563   7.073   7.653   1.038 -0.3008 -0.8103 -0.4035
  657MOL0     C88564   7.062   7.784   1.003  0.0201  0.1945  0.6757
  657MOL0     C88565   7.051   7.884   1.104  0.3040 -0.2024 -0.8718
  657MOL0     C88566   7.019   8.018   1.071  0.6769  1.0147 -0.5430
  657MOL0     C88567   6.993   8.059   0.936  0.2365  0.8854  0.9603
  657MOL0     O88568   6.966   8.191   0.907 -0.3215  0.0418 -0.3338
  657MOL0     C88569   6.933   8.242   0.768  0.5750  0.2508 -0.1219
  657MOL0     C88570   6.789   8.219   0.733  0.0146  0.7909  0.2841
  657MOL0     C88571   6.699   8.288   0.839 -0.3960  0.5447  0.7657
  657MOL0     C88572   6.559   8.281   0.784 -0.3891 -0.4350  0.2603
  657MOL0     C88573   6.461   8.330   0.898  0.3771  0.2991 -0.2659
  657MOL0     C88574   6.319   8.367   0.848 -0.2614  0.3545  0.3127
  657MOL0     C88575   6.225   8.248   0.825  0.2564 -0.3084  0.3926
  657MOL0     C88576   6.092   8.280   0.751  0.2731  0.4829 -0.7352
  657MOL0     N88577   6.008   8.375   0.826  0.1658 -1.2944  0.2043
  657MOL0     C88578   5.926   8.347   0.932 -0.4569  0.3437 -0.5665
  657MOL0     C88579   5.872   8.462   0.976 -0.0894 -0.3794  0.0086
  657MOL0     C88580   5.775   8.476   1.086  0.3139 -0.6419  0.5175
  657MOL0     C88581   5.661   8.377   1.083  0.1574 -0.1727  0.2674
  657MOL0     C88582   5.554   8.402   1.191  0.5641 -1.1807  0.4596
  657MOL0     C88583   5.492   8.542   1.177  0.2427 -0.3432 -0.2088
  657MOL0     O88584   5.351   8.515   1.182 -0.4290 -0.3660 -0.2003
  657MOL0     C88585   5.276   8.624   1.228  0.3268  0.1214  0.6203
  657MOL0     C88586   5.278   8.752   1.178 -0.9063 -0.4231 -0.0588
  657MOL0     C88587   5.211   8.860   1.235  0.7569 -0.1623  1.0147
  657MOL0     C88588   5.226   8.990   1.158  0.3787  0.1894  0.2552
  657MOL0     C88589   5.135   8.839   1.351 -0.1454 -0.0034 -0.9382
  657MOL0     C88590   5.055   8.950   1.413  0.5085  0.6163  0.1860
  657MOL0     O88591   5.016   8.925   1.537  0.2996  0.1743  0.1328
  657MOL0     C88592   4.922   9.004   1.597 -0.2203 -1.7964  0.4144
  657MOL0     C88593   4.910   9.148   1.582  0.7246  0.5043  0.3698
  657MOL0     C88594   4.804   9.216   1.650 -0.7160 -0.4721 -0.3584
  657MOL0     C88595   4.712   9.138   1.728  0.0545  0.0167  0.9701
  657MOL0     O88596   4.600   9.192   1.788 -0.2028  0.3178 -0.4377
  657MOL0     C88597   4.536   9.295   1.711 -0.2364  0.6579 -0.0568
  657MOL0     C88598   4.427   9.355   1.804  0.0721 -0.1023 -0.8270
  657MOL0     C88599   4.302   9.267   1.801  0.6665  0.7061 -0.3290
  657MOL0     C88600   4.219   9.266   1.932 -0.7757  0.4727 -0.1517
  657MOL0     C88601   4.156   9.395   1.960  1.6298 -0.0493 -0.3829
  657MOL0     C88602   4.060   9.391   2.079  0.3771  0.3030  0.4010
  657MOL0     C88603   4.000   9.523   2.110 -0.8015 -0.5976 -1.0312
  657MOL0     C88604   3.932   9.603   1.989  0.3785 -0.1375  0.1627
  657MOL0    Cl88605   3.853   9.750   2.057  0.4398 -0.3148 -0.1459
  657MOL0     C88606   4.724   8.996   1.732  0.1147 -0.2277 -0.5172
  657MOL0     C88607   4.832   8.934   1.676 -0.0254 -1.4900  1.0263
  657MOL0     O88608   5.026   9.041   1.348 -0.8249 -0.3105  0.0817
  657MOL0     C88609   5.129   8.707   1.397 -0.9160  0.5394 -0.6730
  657MOL0     C88610   5.196   8.604   1.335  0.3109 -0.1919 -0.1392
  657MOL0     N88611   5.933   8.561   0.902  0.0197 -0.0503 -0.3386
  657MOL0     N88612   6.019   8.509   0.812  1.0344  0.3788  0.4452
  657MOL0     C88613   7.001   7.953   0.838 -0.3701  0.4070  1.0404
  657MOL0     C88614   7.036   7.820   0.868 -0.2634  0.2830 -0.7365
  657MOL0     C88615   6.961   7.452   1.101  0.1298 -0.1362 -0.3450
  657MOL0     C88616   7.013   7.374   1.005 -0.1529  0.2724  0.4729
  657MOL0     C88617   7.016   7.230   1.017 -0.7206 -0.6404  0.4969
  657MOL0     C88618   6.960   7.160   1.122  0.6603  0.1314  0.1894
  657MOL0     O88619   6.987   7.024   1.137 -0.0397  0.1423 -0.3124
  657MOL0     C88620   6.934   6.925   1.049 -0.4052 -1.0324 -0.3724
  657MOL0     C88621   6.792   6.886   1.092  0.8899  0.8486 -0.1694
  657MOL0     C88622   6.736   6.769   1.006 -0.8364 -0.1121  0.1285
  657MOL0     C88623   6.625   6.695   1.055  0.2251 -0.4270 -0.3557
  657MOL0     C88624   6.650   6.615   1.182 -0.3302 -0.8551 -0.8660
  657MOL0     C88625   6.668   6.558   1.287 -1.0143  0.5908  0.4944
  657MOL0     C88626   6.900   7.237   1.218 -0.0940 -0.3814 -0.4341
  657MOL0     C88627   6.896   7.378   1.208 -0.2068 -0.5821 -0.5751
  657MOL0     H88628   7.088   7.853   1.201 -0.9261  1.9711  0.3738
  657MOL0     H88629   7.028   8.098   1.144  3.3584  3.7787 -3.5861
  657MOL0     H88630   6.947   8.349   0.748 -0.8648  0.4084 -0.4252
  657MOL0     H88631   6.995   8.190   0.695  2.2724  2.1043 -0.1124
  657MOL0     H88632   6.765   8.227   0.627  0.0723 -1.0967  0.1091
  657MOL0     H88633   6.774   8.112   0.743  0.3044  0.4554 -2.2376
  657MOL0     H88634   6.711   8.242   0.937 -0.3245  2.9873  1.9847
  657MOL0     H88635   6.733   8.391   0.854  1.1293 -0.1336  2.3525
  657MOL0     H88636   6.543   8.323   0.685  2.1287  1.3167  0.5059
  657MOL0     H88637   6.531   8.177   0.763 -0.9125  0.1652 -2.3140
  657MOL0     H88638   6.464   8.268   0.988  0.5418  0.5877 -0.0714
  657MOL0     H88639   6.495   8.426   0.937 -1.2871 -0.0970  2.4851
  657MOL0     H88640   6.275   8.432   0.925 -2.0851  0.4496 -0.7293
  657MOL0     H88641   6.333   8.426   0.757 -0.7454  1.0632  0.6890
  657MOL0     H88642   6.265   8.180   0.750  0.2054  1.1163 -0.9942
  657MOL0     H88643   6.225   8.200   0.923 -0.4271  2.4793  1.8782
  657MOL0     H88644   6.032   8.192   0.725  1.5049 -0.6287  0.0421
  657MOL0     H88645   6.118   8.328   0.656 -2.4236  0.0395 -1.7841
  657MOL0     H88646   5.912   8.248   0.974 -0.7347  0.0242 -1.3870
  657MOL0     H88647   5.838   8.463   1.174 -1.0514 -0.3185  1.5819
  657MOL0     H88648   5.748   8.582   1.096  2.0761 -0.2801  1.8292
  657MOL0     H88649   5.706   8.278   1.091  1.4777  0.1972 -1.7276
  657MOL0     H88650   5.624   8.386   0.981 -0.7042  3.0705  0.7375
  657MOL0     H88651   5.593   8.392   1.293 -1.9072  1.0280  1.7673
  657MOL0     H88652   5.479   8.322   1.185  0.8976 -1.4795  0.3094
  657MOL0     H88653   5.514   8.588   1.080  2.1894 -1.2145 -0.2201
  657MOL0     H88654   5.512   8.614   1.257  0.2513  0.4542 -0.9141
  657MOL0     H88655   5.337   8.759   1.087 -1.9355 -0.6316 -0.7633
  657MOL0     H88656   5.128   9.034   1.140 -0.3749 -0.9287  1.5006
  657MOL0     H88657   5.288   9.066   1.208  0.3995  0.7092 -0.5470
  657MOL0     H88658   5.271   8.973   1.060 -1.0331  1.4070 -0.6318
  657MOL0     H88659   4.975   9.204   1.515 -0.3593  1.4803  0.1106
  657MOL0     H88660   4.792   9.322   1.636 -1.4433 -0.1891  1.9647
  657MOL0     H88661   4.604   9.374   1.678 -0.3572  1.5749  1.7339
  657MOL0     H88662   4.486   9.250   1.624  0.9468  3.2723 -2.2290
  657MOL0     H88663   4.471   9.364   1.904  0.6729 -2.9299 -0.7703
  657MOL0     H88664   4.390   9.456   1.782 -0.3555 -0.1561 -0.3739
  657MOL0     H88665   4.339   9.165   1.784 -1.1763 -0.5749  2.4152
  657MOL0     H88666   4.238   9.287   1.715  0.1185 -1.0469 -0.3886
  657MOL0     H88667   4.154   9.179   1.922 -0.3947  0.1707 -0.0523
  657MOL0     H88668   4.281   9.238   2.018 -0.0604 -0.7149 -1.0233
  657MOL0     H88669   4.118   9.429   1.863  5.7530  0.1541 -2.1039
  657MOL0     H88670   4.227   9.472   1.991 -0.2063  1.1574  1.0197
  657MOL0     H88671   3.984   9.319   2.049  2.6043 -1.4201 -1.5357
  657MOL0     H88672   4.112   9.353   2.168  1.7209 -0.8024 -0.7995
  657MOL0     H88673   4.071   9.590   2.160 -3.5005  0.3678  1.8385
  657MOL0     H88674   3.918   9.511   2.181  0.3103  0.5236  0.5146
  657MOL0     H88675   3.865   9.541   1.928  3.1533 -4.2521  0.8729
  657MOL0     H88676   4.007   9.634   1.915 -0.7252  0.5209 -0.7169
  657MOL0     H88677   4.644   8.944   1.784 -0.0456  1.4339  1.0229
  657MOL0     H88678   4.847   8.829   1.701  2.9623 -1.0447  1.4908
  657MOL0     H88679   5.074   8.692   1.489 -0.6977 -1.0184 -0.7776
  657MOL0     H88680   5.177   8.506   1.378  1.4453  0.6744  2.5422
  657MOL0     H88681   6.978   7.977   0.735  2.0269 -0.2814  0.2625
  657MOL0     H88682   7.046   7.740   0.795  0.3217 -1.7926  1.4824
  657MOL0     H88683   7.058   7.412   0.913 -1.6305 -2.0065 -1.3017
  657MOL0     H88684   7.074   7.176   0.942  0.7609  0.0053  1.1284
  657MOL0     H88685   6.939   6.954   0.944 -2.5483  2.9720  0.4480
  657MOL0     H88686   7.004   6.841   1.060  0.9779  0.2605  1.1507
  657MOL0     H88687   6.720   6.969   1.088 -2.0853 -1.5515 -0.2967
  657MOL0     H88688   6.791   6.859   1.198  0.7457  1.7107  0.0623
  657MOL0     H88689   6.821   6.700   1.002  1.1602  2.1018  1.4160
  657MOL0     H88690   6.714   6.809   0.907  3.0037  0.8181 -0.5229
  657MOL0     H88691   6.596   6.628   0.974  1.4533  0.4378 -1.5496
  657MOL0     H88692   6.541   6.762   1.074 -0.0190 -0.9859  0.5953
  657MOL0     H88693   6.688   6.508   1.380 -0.5723  1.9513  1.1552
  657MOL0     H88694   6.859   7.194   1.309 -0.8825 -0.0547 -0.6234
  657MOL0     H88695   6.864   7.425   1.300  0.6853 -2.4369  0.7637
  658MOL0     O88696   9.907   3.587   8.020  0.2841  0.4615  0.1590
  658MOL0     C88697   9.908   3.482   7.958 -0.1843  0.8859  0.1102
  658MOL0     O88698   9.805   3.419   7.892 -0.8170  0.5593  0.3360
  658MOL0     C88699   9.683   3.479   7.886  0.2710  0.0992  0.0577
  658MOL0     C88700   9.568   3.406   7.931  0.4771 -0.3142  0.2878
  658MOL0     C88701   9.447   3.478   7.939  0.0708  0.7646  0.3355
  658MOL0     C88702   9.436   3.616   7.893 -0.4564  0.3441 -1.4600
  658MOL0     O88703   9.317   3.687   7.916  0.5224  0.0082  0.1983
  658MOL0     C88704   9.287   3.802   7.828 -0.8671  0.5555  0.5030
  658MOL0     C88705   9.155   3.860   7.876  0.0545 -0.1917 -0.5489
  658MOL0     C88706   9.096   3.952   7.762 -0.8204 -0.6786  0.6790
  658MOL0     C88707   8.952   3.982   7.789 -0.3422 -0.4307  0.2703
  658MOL0     C88708   8.908   4.077   7.676  0.4259 -0.1427  0.9123
  658MOL0     C88709   8.760   4.091   7.692  0.6845  1.0584  0.6388
  658MOL0     C88710   8.683   4.217   7.644  0.0120 -0.2585 -0.2774
  658MOL0     C88711   8.680   4.245   7.494  0.3366  1.0079 -0.1522
  658MOL0     N88712   8.640   4.123   7.420 -0.4842 -0.1741  0.3176
  658MOL0     C88713   8.521   4.087   7.375 -0.4332 -0.8632  0.6667
  658MOL0     C88714   8.534   3.962   7.323 -0.3220  0.7567 -1.1736
  658MOL0     C88715   8.435   3.860   7.279  0.1804 -0.0955  0.7636
  658MOL0     C88716   8.305   3.925   7.226 -0.1021 -0.1745  0.0354
  658MOL0     C88717   8.197   3.821   7.213 -0.3653 -0.2978 -0.1695
  658MOL0     C88718   8.082   3.876   7.125 -0.2044  0.8200  0.0950
  658MOL0     O88719   7.998   3.767   7.082 -0.2885  0.3436 -0.5180
  658MOL0     C88720   7.874   3.799   7.031 -0.0725 -0.1988 -0.4031
  658MOL0     C88721   7.852   3.913   6.962  0.5985  0.4728  0.3408
  658MOL0     C88722   7.730   3.929   6.897  1.1554 -0.4515 -0.6479
  658MOL0     C88723   7.725   4.056   6.812  0.1188  0.3183 -1.2679
  658MOL0     C88724   7.614   3.845   6.919 -0.6075 -0.6712 -0.3690
  658MOL0     C88725   7.472   3.871   6.878  0.2897  0.3356 -0.2992
  658MOL0     O88726   7.432   3.994   6.824 -0.5768 -0.1540 -0.1983
  658MOL0     C88727   7.298   3.994   6.790  0.1922 -0.4201  0.3624
  658MOL0     C88728   7.215   4.082   6.869  0.4178  0.6855 -0.4061
  658MOL0     C88729   7.075   4.074   6.848 -0.9794 -1.4472 -0.0977
  658MOL0     C88730   7.019   4.012   6.736  0.9162 -0.5646  0.0435
  658MOL0     O88731   6.885   4.024   6.695 -0.1045  0.6411  0.4848
  658MOL0     C88732   6.802   4.138   6.729  1.0439 -0.2681  0.1882
  658MOL0     C88733   6.654   4.108   6.753 -0.7671  0.1502  0.2864
  658MOL0     C88734   6.598   4.009   6.647 -0.3646  0.1367  0.2276
  658MOL0     C88735   6.524   4.082   6.525 -0.2424 -0.4963 -0.4689
  658MOL0     C88736   6.444   3.982   6.428 -0.8556  0.0666 -0.2446
  658MOL0     C88737   6.538   3.913   6.323 -0.3381 -0.0395  0.3656
  658MOL0     C88738   6.588   4.007   6.213  1.4295  0.2801 -0.5965
  658MOL0     C88739   6.732   3.976   6.176 -0.4333 -1.2647 -0.5145
  658MOL0    Cl88740   6.843   4.047   6.309 -0.2473  0.4111  0.3204
  658MOL0     C88741   7.103   3.936   6.665  0.1066 -0.4895  0.4012
  658MOL0     C88742   7.240   3.921   6.682 -0.8599 -0.5058 -0.0818
  658MOL0     O88743   7.393   3.771   6.891 -0.2152 -0.2986  0.4947
  658MOL0     C88744   7.646   3.732   6.992  0.3382 -0.5093  0.0003
  658MOL0     C88745   7.774   3.704   7.039 -0.2828  0.6107 -0.3391
  658MOL0     N88746   8.667   3.931   7.312  0.4015 -0.1038  0.0359
  658MOL0     N88747   8.729   4.022   7.384 -0.1744 -0.3092  0.5176
  658MOL0     C88748   9.543   3.679   7.835  0.2688 -0.1922  0.1531
  658MOL0     C88749   9.668   3.609   7.826  0.2401 -0.0608 -0.2960
  658MOL0     C88750  10.042   3.418   7.946  0.0144 -0.1191  0.9027
  658MOL0     C88751  10.065   3.320   7.846  0.0058 -1.1241  0.0915
  658MOL0     C88752  10.188   3.261   7.825 -0.3505  0.0821 -0.8843
  658MOL0     C88753  10.298   3.291   7.898 -0.2025  0.4001 -0.1894
  658MOL0     O88754  10.421   3.242   7.880 -0.2137  0.2865  0.0392
  658MOL0     C88755  10.489   3.164   7.988  0.1965  0.0990 -1.0593
  658MOL0     C88756  10.413   3.034   8.005 -1.0528  0.5530 -0.5477
  658MOL0     C88757  10.488   2.941   8.108  0.6764 -1.0464  0.8821
  658MOL0     C88758  10.396   2.822   8.141  0.2937 -0.4585  0.3123
  658MOL0     C88759  10.304   2.853   8.250 -0.0264  0.1213  1.0759
  658MOL0     C88760  10.231   2.878   8.340  1.1221 -0.0505  0.2616
  658MOL0     C88761  10.282   3.387   7.999  0.3874  0.1677 -0.5224
  658MOL0     C88762  10.154   3.448   8.022 -0.6721  0.6794 -0.6399
  658MOL0     H88763   9.570   3.305   7.970  3.1226 -0.4873 -0.0994
  658MOL0     H88764   9.355   3.426   7.961  1.0353  0.3360  3.8662
  658MOL0     H88765   9.369   3.874   7.839  1.8357 -2.2833  0.5183
  658MOL0     H88766   9.275   3.755   7.730 -3.9313  1.1650  0.5115
  658MOL0     H88767   9.085   3.777   7.894  0.7472 -0.8188 -0.6806
  658MOL0     H88768   9.181   3.914   7.967 -0.9788 -0.5283 -0.0386
  658MOL0     H88769   9.157   4.042   7.751  2.2188 -2.4191  1.8156
  658MOL0     H88770   9.098   3.894   7.669  0.2895  1.1700 -0.5116
  658MOL0     H88771   8.887   3.895   7.779  0.2773 -1.1926  2.3835
  658MOL0     H88772   8.939   4.023   7.889 -0.9404  0.4968 -0.1748
  658MOL0     H88773   8.955   4.176   7.680  0.9264 -0.3265 -0.1389
  658MOL0     H88774   8.927   4.027   7.581  1.8070  0.5414  0.8055
  658MOL0     H88775   8.718   4.001   7.647 -0.5326  1.0589  1.7187
  658MOL0     H88776   8.733   4.091   7.798  0.1386  0.3880  0.5053
  658MOL0     H88777   8.579   4.214   7.680  0.6226 -0.5190  1.5724
  658MOL0     H88778   8.718   4.307   7.695 -1.0638 -0.8938  1.6866
  658MOL0     H88779   8.785   4.262   7.469  0.7716 -0.2699  0.6734
  658MOL0     H88780   8.623   4.333   7.466  1.4677  0.8460 -3.4160
  658MOL0     H88781   8.427   4.140   7.382 -1.5119 -2.7363  0.9963
  658MOL0     H88782   8.482   3.806   7.196  0.7692  1.4436  0.0505
  658MOL0     H88783   8.418   3.778   7.350  0.6789  0.1771  1.2037
  658MOL0     H88784   8.331   3.976   7.133 -1.2958  3.3094  1.4677
  658MOL0     H88785   8.266   4.000   7.295 -0.5360 -0.5793  0.2313
  658MOL0     H88786   8.173   3.784   7.314  3.1932  0.3368  1.0581
  658MOL0     H88787   8.238   3.738   7.154  2.5468  1.4282 -0.7465
  658MOL0     H88788   8.116   3.934   7.038  0.8454  2.0055  1.2415
  658MOL0     H88789   8.021   3.937   7.192 -2.8027 -2.3849  0.8744
  658MOL0     H88790   7.938   3.977   6.952  1.0553 -0.0364  0.8910
  658MOL0     H88791   7.635   4.070   6.751  0.1195  2.3806 -0.8787
  658MOL0     H88792   7.727   4.138   6.884  3.5536  0.1632 -1.0085
  658MOL0     H88793   7.810   4.060   6.743  1.7009  1.9970  0.6381
  658MOL0     H88794   7.263   4.141   6.947  1.1069 -1.9877  1.3436
  658MOL0     H88795   7.008   4.142   6.900  0.9457 -1.0483  2.0186
  658MOL0     H88796   6.831   4.192   6.819  0.8267  0.1074  0.0355
  658MOL0     H88797   6.801   4.201   6.639 -0.0463 -3.4566 -2.2228
  658MOL0     H88798   6.651   4.056   6.850  1.8012 -1.3962 -0.3855
  658MOL0     H88799   6.582   4.190   6.766 -0.4793  0.4298  0.1457
  658MOL0     H88800   6.516   3.943   6.678  1.0042 -1.1876  1.1706
  658MOL0     H88801   6.680   3.944   6.614  0.9400  1.2413  1.2031
  658MOL0     H88802   6.440   4.137   6.570  0.4173 -1.4787  2.1304
  658MOL0     H88803   6.598   4.146   6.475  1.6785 -0.5136  2.1333
  658MOL0     H88804   6.367   4.037   6.374  0.2141  1.3363 -0.5450
  658MOL0     H88805   6.387   3.915   6.493 -1.9397  0.8470 -0.3841
  658MOL0     H88806   6.628   3.867   6.364 -0.4178  0.4929  1.1539
  658MOL0     H88807   6.484   3.837   6.265  1.6943 -0.4528 -1.1134
  658MOL0     H88808   6.576   4.108   6.254  1.0224 -0.6764  1.8460
  658MOL0     H88809   6.521   3.998   6.127  0.8302 -0.3955 -0.0754
  658MOL0     H88810   6.759   4.010   6.075 -1.6307 -3.2628 -1.5637
  658MOL0     H88811   6.741   3.869   6.153 -2.4392 -1.2866 -1.3745
  658MOL0     H88812   7.059   3.883   6.581 -0.1168 -0.3669  0.4418
  658MOL0     H88813   7.299   3.861   6.614  1.2947 -1.2164  2.2390
  658MOL0     H88814   7.573   3.655   7.014  0.7736 -1.3927 -1.4877
  658MOL0     H88815   7.784   3.614   7.100 -1.7456  0.4850 -0.2697
  658MOL0     H88816   9.544   3.785   7.812 -2.2644  0.5209  2.8206
  658MOL0     H88817   9.750   3.667   7.784 -0.6050  1.9611  0.6894
  658MOL0     H88818   9.975   3.286   7.796 -0.8871  0.9384  0.1950
  658MOL0     H88819  10.189   3.192   7.741 -0.0199  1.1440 -1.7806
  658MOL0     H88820  10.597   3.159   7.971 -0.1411  2.4634 -5.4032
  658MOL0     H88821  10.474   3.221   8.080 -2.3262 -3.5101  0.9757
  658MOL0     H88822  10.416   2.994   7.904  0.2705  2.8471 -1.4866
  658MOL0     H88823  10.311   3.052   8.039 -0.4938  0.1390  1.5641
  658MOL0     H88824  10.515   2.990   8.202  1.3353 -1.3788  0.8686
  658MOL0     H88825  10.570   2.902   8.047  0.2197  0.1916 -0.5770
  658MOL0     H88826  10.467   2.750   8.183  0.7191 -1.2229 -1.6272
  658MOL0     H88827  10.348   2.771   8.057  2.2517  2.7673 -3.0688
  658MOL0     H88828  10.152   2.888   8.411 -1.6109 -0.2273 -2.5548
  658MOL0     H88829  10.361   3.426   8.063 -0.4943  1.4991 -0.1966
  658MOL0     H88830  10.140   3.514   8.108  0.8489  1.5337 -1.0120
  659MOL0     O88831  10.884  10.667   2.649  0.8686  0.2369 -0.2232
  659MOL0     C88832  10.873  10.636   2.771  0.4812 -0.7632  0.6833
  659MOL0     O88833  10.972  10.559   2.837 -0.2779 -0.0995  0.2356
  659MOL0     C88834  11.092  10.551   2.778 -0.7453 -0.3666  0.4013
  659MOL0     C88835  11.177  10.438   2.796  0.2147  0.3474 -0.2643
  659MOL0     C88836  11.306  10.444   2.738  1.0877 -0.2672 -0.3476
  659MOL0     C88837  11.360  10.549   2.668 -0.4873  0.2772  0.5335
  659MOL0     O88838  11.489  10.548   2.622  0.6115  0.3038 -0.5509
  659MOL0     C88839  11.532  10.418   2.558  0.4509 -0.5065  0.3189
  659MOL0     C88840  11.672  10.446   2.503 -0.3885  0.0882 -0.8277
  659MOL0     C88841  11.755  10.324   2.470 -0.2255  0.4135  0.1458
  659MOL0     C88842  11.905  10.348   2.442  0.5452  0.4119 -0.2526
  659MOL0     C88843  11.975  10.214   2.427  0.3619  0.9247 -0.5553
  659MOL0     C88844  12.111  10.214   2.363 -1.4804  0.7192 -0.3059
  659MOL0     C88845  12.173  10.086   2.305  0.0392  0.3686  0.1040
  659MOL0     C88846  12.086  10.009   2.200 -0.5315 -0.0407  0.7657
  659MOL0     N88847  12.158   9.876   2.197  0.5190 -0.4736  0.0540
  659MOL0     C88848  12.102   9.759   2.224 -0.3479 -1.0574 -0.1162
  659MOL0     C88849  12.167   9.669   2.153 -0.1572  0.5951 -0.3200
  659MOL0     C88850  12.138   9.519   2.130 -0.6496  0.3332  0.2392
  659MOL0     C88851  12.216   9.431   2.229  0.2700 -0.0264 -0.1573
  659MOL0     C88852  12.208   9.284   2.193 -0.4816 -0.2935  0.5424
  659MOL0     C88853  12.079   9.206   2.239  0.0162  0.4318  0.3687
  659MOL0     O88854  11.952   9.255   2.183 -0.4320  0.9903  0.4732
  659MOL0     C88855  11.913   9.214   2.054  0.0133 -0.5974 -0.2090
  659MOL0     C88856  11.946   9.109   1.979  0.1686 -0.4862  0.1852
  659MOL0     C88857  11.912   9.090   1.842 -0.3718  0.5374 -0.3732
  659MOL0     C88858  11.942   8.959   1.784  0.1156  0.3441 -0.0533
  659MOL0     C88859  11.844   9.189   1.771  0.0810 -0.0256 -0.8013
  659MOL0     C88860  11.800   9.184   1.631  0.4189 -0.6440  0.7582
  659MOL0     O88861  11.869   9.093   1.561 -0.6355  0.3706  0.3225
  659MOL0     C88862  11.829   9.065   1.432  0.1170  0.0039  0.2113
  659MOL0     C88863  11.929   9.047   1.339 -0.5604 -0.7698  0.9740
  659MOL0     C88864  11.903   9.024   1.202  0.3089 -0.1279  1.1586
  659MOL0     C88865  11.768   9.016   1.162  0.0688  0.2574 -0.0042
  659MOL0     O88866  11.725   9.007   1.036 -1.0327  0.1257 -0.8780
  659MOL0     C88867  11.792   8.904   0.961 -0.5614  0.3949  0.0319
  659MOL0     C88868  11.718   8.882   0.835  0.8724 -0.1998  0.4263
  659MOL0     C88869  11.581   8.856   0.868  0.9809 -0.1563 -0.1848
  659MOL0     C88870  11.509   8.789   0.744 -0.0257 -0.4076 -0.8088
  659MOL0     C88871  11.370   8.741   0.777 -0.6163  0.4918 -0.4912
  659MOL0     C88872  11.363   8.649   0.900 -0.3024  0.5182 -0.4262
  659MOL0     C88873  11.223   8.606   0.932  0.5479  0.5853 -0.4638
  659MOL0     C88874  11.138   8.513   0.839  0.2418 -0.2263 -0.5056
  659MOL0    Cl88875  11.233   8.383   0.771  0.3459 -0.0787  0.2192
  659MOL0     C88876  11.668   9.029   1.256  0.2309  0.0162 -0.5434
  659MOL0     C88877  11.693   9.055   1.390 -0.2044 -1.2650  0.0221
  659MOL0     O88878  11.712   9.263   1.586 -0.1282  0.3133 -0.3684
  659MOL0     C88879  11.814   9.303   1.845  1.1006 -0.2277 -0.5061
  659MOL0     C88880  11.844   9.310   1.983 -0.1508 -0.2509  1.5380
  659MOL0     N88881  12.279   9.725   2.091  0.5355  0.5415 -0.8488
  659MOL0     N88882  12.268   9.852   2.119  0.3821  0.1086 -0.1902
  659MOL0     C88883  11.285  10.660   2.661 -0.1021  0.4249 -0.2715
  659MOL0     C88884  11.153  10.661   2.710  0.1881  0.6078 -0.8809
  659MOL0     C88885  10.746  10.655   2.843  0.6882  0.2887 -1.3667
  659MOL0     C88886  10.736  10.616   2.981 -0.3893 -0.1787  0.5645
  659MOL0     C88887  10.614  10.587   3.039  0.6222 -0.1274  0.2845
  659MOL0     C88888  10.496  10.601   2.969  0.1952 -1.4214 -0.3407
  659MOL0     O88889  10.381  10.575   3.040  0.3532  0.0758 -0.6796
  659MOL0     C88890  10.251  10.620   2.983 -0.5017  0.5525  0.3056
  659MOL0     C88891  10.147  10.586   3.084  0.0305  0.7351 -0.5109
  659MOL0     C88892  10.119  10.433   3.091 -0.2371  0.3952  0.7207
  659MOL0     C88893  10.134  10.374   3.230 -0.0667  0.0297 -0.4473
  659MOL0     C88894  10.051  10.450   3.329 -0.6236 -0.1200 -0.2741
  659MOL0     C88895   9.989  10.514   3.421 -0.9656 -0.7514 -0.1023
  659MOL0     C88896  10.508  10.636   2.831  0.1399 -0.7763  0.1444
  659MOL0     C88897  10.630  10.672   2.768  0.1594  0.7846 -0.5865
  659MOL0     H88898  11.136  10.347   2.837  2.4516 -1.2987 -1.4335
  659MOL0     H88899  11.371  10.361   2.764  1.9687  0.6864  0.6196
  659MOL0     H88900  11.534  10.336   2.630  3.8541  1.3078  2.5903
  659MOL0     H88901  11.463  10.381   2.482  0.1092 -0.7770  0.7531
  659MOL0     H88902  11.672  10.508   2.412 -0.8216 -0.0867 -0.9509
  659MOL0     H88903  11.723  10.492   2.588 -0.8830  1.6923 -1.3502
  659MOL0     H88904  11.730  10.253   2.549 -1.8692 -3.2487 -3.3227
  659MOL0     H88905  11.693  10.275   2.394 -1.6950  3.0559 -0.4888
  659MOL0     H88906  11.914  10.384   2.339 -0.4052 -1.0005 -0.8677
  659MOL0     H88907  11.964  10.408   2.512  0.8035  0.3761 -0.4376
  659MOL0     H88908  11.965  10.156   2.519 -1.6739 -2.2216 -2.5653
  659MOL0     H88909  11.908  10.157   2.362  2.0295 -0.7137 -0.9324
  659MOL0     H88910  12.109  10.287   2.281  1.6628 -1.4441 -2.4925
  659MOL0     H88911  12.179  10.264   2.433 -1.1460  2.5023 -1.8190
  659MOL0     H88912  12.266  10.106   2.250  0.0467 -0.9623 -0.4196
  659MOL0     H88913  12.193  10.016   2.387 -1.5207 -2.2405 -1.5829
  659MOL0     H88914  12.070  10.060   2.105  1.9977  1.2564  0.9478
  659MOL0     H88915  11.987   9.982   2.239 -1.9652  1.3997 -1.6422
  659MOL0     H88916  12.019   9.739   2.291 -0.4339  1.7982  0.7743
  659MOL0     H88917  12.029   9.504   2.127 -0.9358  1.3506  3.0147
  659MOL0     H88918  12.163   9.495   2.026 -2.2805 -3.6015  0.5534
  659MOL0     H88919  12.179   9.437   2.332  0.7790 -3.7816  0.3870
  659MOL0     H88920  12.318   9.469   2.222  0.2564  0.1295  0.4206
  659MOL0     H88921  12.290   9.228   2.239 -0.7806 -3.0259 -1.9801
  659MOL0     H88922  12.215   9.273   2.085  2.0844 -1.0758  0.7179
  659MOL0     H88923  12.074   9.227   2.346  0.7109 -0.4177  0.5742
  659MOL0     H88924  12.095   9.099   2.231 -0.6417  0.3798 -0.4905
  659MOL0     H88925  12.015   9.037   2.022  0.2163  0.2300  1.3669
  659MOL0     H88926  11.987   8.889   1.855 -0.0725 -2.5990 -2.5842
  659MOL0     H88927  11.862   8.909   1.728  3.1739 -3.7136 -1.3680
  659MOL0     H88928  12.018   8.964   1.705 -1.6143 -0.2498 -1.8605
  659MOL0     H88929  12.034   9.038   1.364  0.7272  2.5802 -2.4251
  659MOL0     H88930  11.988   9.009   1.137 -2.3687  0.9040 -2.9728
  659MOL0     H88931  11.895   8.924   0.930 -1.1423 -1.0784 -3.3671
  659MOL0     H88932  11.799   8.817   1.026  5.1917  1.3965  1.2787
  659MOL0     H88933  11.708   8.977   0.781 -1.7823 -1.3149 -1.2699
  659MOL0     H88934  11.766   8.808   0.770  1.3296 -0.7635  1.4001
  659MOL0     H88935  11.514   8.941   0.876  1.1982 -0.0161  0.1399
  659MOL0     H88936  11.583   8.799   0.961  2.0482 -2.2686 -1.3997
  659MOL0     H88937  11.522   8.858   0.660  0.4161 -0.7732 -1.0487
  659MOL0     H88938  11.569   8.702   0.715  0.3961 -1.2871  2.3382
  659MOL0     H88939  11.329   8.688   0.691 -0.6107  0.4726 -0.4814
  659MOL0     H88940  11.306   8.826   0.800  0.0281  0.4656  1.6467
  659MOL0     H88941  11.415   8.555   0.882 -3.1210 -1.2460  0.0208
  659MOL0     H88942  11.408   8.688   0.991 -2.1264  1.3752  0.1638
  659MOL0     H88943  11.155   8.683   0.970 -0.4146 -0.8288  0.7869
  659MOL0     H88944  11.225   8.548   1.025 -1.6034  1.0041 -0.0954
  659MOL0     H88945  11.083   8.573   0.767 -1.2403  1.2544  1.7198
  659MOL0     H88946  11.055   8.468   0.894  0.5154  1.9668  1.8858
  659MOL0     H88947  11.569   9.054   1.221 -0.7581  2.0479  3.1172
  659MOL0     H88948  11.622   9.058   1.472  0.4937  0.3179  0.6087
  659MOL0     H88949  11.769   9.388   1.794  0.0104 -0.2821  0.3250
  659MOL0     H88950  11.821   9.400   2.040 -2.0829  0.0733  0.3296
  659MOL0     H88951  11.321  10.750   2.613 -3.0177  1.0079 -1.5863
  659MOL0     H88952  11.107  10.759   2.702 -1.0818  0.1921  0.8082
  659MOL0     H88953  10.832  10.607   3.032  0.6060  2.8291 -0.5647
  659MOL0     H88954  10.616  10.550   3.141 -0.0364 -0.4903  0.1701
  659MOL0     H88955  10.249  10.729   2.972 -0.8520  0.3131 -2.8017
  659MOL0     H88956  10.240  10.570   2.886  2.1360 -2.2136  1.2664
  659MOL0     H88957  10.056  10.641   3.057 -1.6553 -1.1566  0.9798
  659MOL0     H88958  10.172  10.620   3.184 -1.0474 -0.3033  0.1344
  659MOL0     H88959  10.186  10.374   3.028 -0.9419  0.5813 -0.2164
  659MOL0     H88960  10.023  10.418   3.041  0.5960  1.2077 -1.2191
  659MOL0     H88961  10.240  10.384   3.254  0.3123 -0.5221 -1.8050
  659MOL0     H88962  10.114  10.266   3.223 -0.7211 -0.0634  1.9068
  659MOL0     H88963   9.935  10.556   3.503 -0.2240 -0.1069  0.0632
  659MOL0     H88964  10.421  10.653   2.769  0.5064 -1.6686 -0.6353
  659MOL0     H88965  10.637  10.699   2.663 -1.5636  1.0989 -0.6458
  660MOL0     O88966   1.568   2.805   2.231  0.5022  0.2154 -0.1436
  660MOL0     C88967   1.473   2.756   2.285 -1.0804  0.6917  0.7926
  660MOL0     O88968   1.485   2.645   2.366  0.0811  0.2932  0.1898
  660MOL0     C88969   1.603   2.585   2.371  0.4710 -0.2440 -0.5531
  660MOL0     C88970   1.651   2.552   2.501 -0.1388  0.4821 -0.2227
  660MOL0     C88971   1.784   2.501   2.522  0.0611  0.3266 -0.0384
  660MOL0     C88972   1.857   2.460   2.411 -0.3731  0.6660 -0.5333
  660MOL0     O88973   1.981   2.401   2.426 -0.2679 -0.4328 -0.2776
  660MOL0     C88974   1.991   2.283   2.340  1.3972 -0.7403 -0.3824
  660MOL0     C88975   2.099   2.191   2.387  1.0479  0.8305 -0.4973
  660MOL0     C88976   2.056   2.130   2.531 -0.1912 -0.9364  0.6947
  660MOL0     C88977   2.026   1.984   2.532 -0.1069  0.3892  0.2075
  660MOL0     C88978   2.138   1.883   2.499  0.7709 -0.4163 -0.0995
  660MOL0     C88979   2.103   1.746   2.501 -0.6453 -0.3927 -0.0402
  660MOL0     C88980   2.086   1.697   2.649 -0.0902  0.2530  0.0008
  660MOL0     C88981   1.968   1.606   2.662  0.4939 -0.2387  0.1487
  660MOL0     N88982   1.839   1.677   2.663 -0.3685  0.3647 -0.1697
  660MOL0     C88983   1.788   1.762   2.764  0.1587 -0.5741  0.0206
  660MOL0     C88984   1.670   1.811   2.700 -0.5447 -0.1683 -0.2236
  660MOL0     C88985   1.563   1.887   2.767  1.2396  0.5193 -0.2651
  660MOL0     C88986   1.432   1.915   2.690  0.1272  0.4948  0.3812
  660MOL0     C88987   1.331   1.977   2.772 -0.3551 -0.0402 -0.4417
  660MOL0     C88988   1.229   1.884   2.835  0.1967  0.8391 -0.4861
  660MOL0     O88989   1.147   1.973   2.914 -0.0050  0.9586 -0.2605
  660MOL0     C88990   1.004   1.976   2.918 -0.3621  0.1262  0.5478
  660MOL0     C88991   0.916   1.876   2.864  0.2652  0.4948 -0.1845
  660MOL0     C88992   0.780   1.879   2.889 -0.0926 -0.1188 -0.3255
  660MOL0     C88993   0.708   1.756   2.847 -0.4154  0.5563  0.2876
  660MOL0     C88994   0.733   1.995   2.944 -0.1385 -0.1211 -0.7965
  660MOL0     C88995   0.585   2.014   2.969  0.8467 -0.6571 -0.3804
  660MOL0     O88996   0.550   2.143   2.982 -0.5879 -0.8989 -0.2580
  660MOL0     C88997   0.416   2.164   3.007 -0.3153 -0.2826  0.0744
  660MOL0     C88998   0.386   2.267   3.097 -0.8630 -0.4671 -0.1466
  660MOL0     C88999   0.255   2.310   3.122  0.5491  0.7628 -0.0664
  660MOL0     C89000   0.148   2.239   3.070  0.6997 -0.4538 -0.0083
  660MOL0     O89001   0.015   2.251   3.076 -0.0649 -0.0099 -0.5408
  660MOL0     C89002  -0.041   2.372   3.113 -0.0257 -0.3551  0.1471
  660MOL0     C89003  -0.196   2.367   3.123  0.0373  0.1222 -0.2308
  660MOL0     C89004  -0.243   2.282   3.246 -0.0416 -0.4929  0.0073
  660MOL0     C89005  -0.400   2.298   3.285 -0.3418 -0.1053  0.5669
  660MOL0     C89006  -0.439   2.198   3.400 -0.8434  0.7304 -0.5105
  660MOL0     C89007  -0.424   2.043   3.349  0.3698  0.1277 -0.2675
  660MOL0     C89008  -0.542   1.960   3.398  0.7260  0.4055  0.0786
  660MOL0     C89009  -0.531   1.821   3.337 -0.1703  0.1366  0.0212
  660MOL0    Cl89010  -0.676   1.718   3.375 -0.0743  0.0952 -0.3676
  660MOL0     C89011   0.185   2.140   2.978 -0.0903  0.3398  0.1664
  660MOL0     C89012   0.310   2.103   2.944 -0.8681  1.1462 -0.0402
  660MOL0     O89013   0.521   1.914   3.023 -0.0331 -0.4123  0.7546
  660MOL0     C89014   0.812   2.097   2.993  0.8441 -1.1189  0.1230
  660MOL0     C89015   0.952   2.076   2.986 -0.2300  0.8358  0.4058
  660MOL0     N89016   1.669   1.770   2.568  0.0843  0.3636  0.0610
  660MOL0     N89017   1.761   1.692   2.548  0.0586  0.9676 -1.0061
  660MOL0     C89018   1.814   2.490   2.285  0.5499 -0.5393  0.7059
  660MOL0     C89019   1.679   2.556   2.261  0.3504 -0.9164  0.2914
  660MOL0     C89020   1.351   2.833   2.293  0.4733  0.4797  0.3773
  660MOL0     C89021   1.349   2.966   2.242 -1.2030  0.0538 -0.4372
  660MOL0     C89022   1.232   3.037   2.253 -0.2983 -0.0685 -0.2272
  660MOL0     C89023   1.113   2.977   2.306  0.0152  0.4462  0.7406
  660MOL0     O89024   1.001   3.051   2.306 -0.1302  0.0913 -0.2027
  660MOL0     C89025   0.900   3.006   2.211 -0.3438 -0.2001 -0.7924
  660MOL0     C89026   0.896   3.084   2.085  0.3984  0.0123  0.0570
  660MOL0     C89027   1.009   3.062   1.994 -0.8535 -0.7147 -0.4580
  660MOL0     C89028   1.094   3.195   1.982  0.8557 -0.0776  0.4668
  660MOL0     C89029   1.235   3.180   1.952 -0.0813 -0.6928  0.1296
  660MOL0     C89030   1.355   3.171   1.931 -0.2069  0.1875  1.1119
  660MOL0     C89031   1.109   2.847   2.352 -0.9645  0.3157 -0.6536
  660MOL0     C89032   1.234   2.777   2.351  0.0346  0.1979 -0.4661
  660MOL0     H89033   1.577   2.565   2.580  2.1673 -1.8793  2.5134
  660MOL0     H89034   1.826   2.481   2.620  0.8430 -0.8252 -0.5855
  660MOL0     H89035   1.897   2.227   2.344  1.2072 -0.4265 -0.4333
  660MOL0     H89036   2.025   2.296   2.237  2.2143  0.5410  0.0275
  660MOL0     H89037   2.104   2.106   2.318  2.8573 -1.4313  2.1692
  660MOL0     H89038   2.199   2.233   2.402  1.4388 -0.2881  0.2109
  660MOL0     H89039   2.128   2.140   2.613  2.0514 -1.7804 -1.0516
  660MOL0     H89040   1.961   2.176   2.557  0.6468  1.1721  0.2038
  660MOL0     H89041   2.000   1.966   2.637  1.8809  2.2714  1.1279
  660MOL0     H89042   1.942   1.958   2.468  0.8483  0.6978 -1.2140
  660MOL0     H89043   2.152   1.919   2.396  0.1542  0.9893  0.2884
  660MOL0     H89044   2.231   1.902   2.554 -1.1790  0.6965  3.0648
  660MOL0     H89045   2.015   1.728   2.439 -0.2598 -1.4004 -0.3242
  660MOL0     H89046   2.178   1.689   2.445  0.0221 -0.3229  0.7606
  660MOL0     H89047   2.172   1.644   2.692  0.6139  1.0747 -0.3613
  660MOL0     H89048   2.071   1.780   2.718  1.4244  2.9446 -2.6891
  660MOL0     H89049   1.984   1.549   2.754 -0.0076 -0.3976  0.1386
  660MOL0     H89050   1.958   1.527   2.587 -2.6007  0.6607 -0.5211
  660MOL0     H89051   1.832   1.787   2.859  2.3151  2.0441 -1.5111
  660MOL0     H89052   1.538   1.821   2.850  0.7413 -0.4763 -1.1779
  660MOL0     H89053   1.604   1.980   2.807  0.8782  1.5892 -2.2728
  660MOL0     H89054   1.395   1.817   2.659 -0.2827  0.8962 -0.4309
  660MOL0     H89055   1.454   1.968   2.597 -0.1642 -2.8897 -1.8075
  660MOL0     H89056   1.282   2.044   2.701  0.1012  2.2377  1.2580
  660MOL0     H89057   1.382   2.043   2.843  0.1373  0.1396 -0.9603
  660MOL0     H89058   1.263   1.804   2.901  0.0752  2.2367  1.3566
  660MOL0     H89059   1.163   1.839   2.760 -1.4205  3.3073 -0.6633
  660MOL0     H89060   0.967   1.787   2.830 -0.4511 -1.7256  3.9257
  660MOL0     H89061   0.762   1.708   2.764  1.6680  3.3900 -0.1193
  660MOL0     H89062   0.687   1.697   2.937 -2.2612  2.2615  1.0386
  660MOL0     H89063   0.606   1.772   2.811 -0.7391  2.1576  1.8024
  660MOL0     H89064   0.462   2.329   3.142 -0.9917  0.6313 -1.3668
  660MOL0     H89065   0.245   2.399   3.183 -0.6438  0.3236  0.3999
  660MOL0     H89066  -0.001   2.397   3.211  0.5618  0.5467 -0.3173
  660MOL0     H89067  -0.005   2.450   3.045 -2.2184  2.0746  1.6145
  660MOL0     H89068  -0.233   2.469   3.137 -0.3659  0.4079 -2.8894
  660MOL0     H89069  -0.245   2.333   3.031 -3.4388  2.2242  0.6771
  660MOL0     H89070  -0.182   2.303   3.335 -1.0246  1.9684  0.2026
  660MOL0     H89071  -0.231   2.178   3.218  0.3950 -1.4585  3.2731
  660MOL0     H89072  -0.438   2.399   3.301 -1.5563 -0.6747  1.4804
  660MOL0     H89073  -0.468   2.273   3.204 -4.0633  4.8207  1.7088
  660MOL0     H89074  -0.546   2.220   3.409 -0.2076  3.8519  0.8939
  660MOL0     H89075  -0.396   2.214   3.499 -3.1941 -1.8006  1.0575
  660MOL0     H89076  -0.416   2.033   3.240  3.2682 -2.3606  0.0334
  660MOL0     H89077  -0.326   2.007   3.382  0.0909 -0.7958 -0.4041
  660MOL0     H89078  -0.633   2.013   3.368  1.9170  1.7114 -1.4663
  660MOL0     H89079  -0.541   1.957   3.508  0.1690 -0.3805  0.0680
  660MOL0     H89080  -0.440   1.778   3.377 -0.3891  2.1148  2.9254
  660MOL0     H89081  -0.516   1.830   3.229  0.0014 -0.3570  0.0010
  660MOL0     H89082   0.105   2.090   2.925 -0.7710  0.2678  1.2303
  660MOL0     H89083   0.317   2.018   2.877 -0.3115 -0.9547  2.5360
  660MOL0     H89084   0.776   2.183   3.048  0.9128 -0.5547 -0.6904
  660MOL0     H89085   1.024   2.157   2.996  2.1247 -0.9229 -1.1834
  660MOL0     H89086   1.881   2.474   2.201  1.0079  1.2880  0.6691
  660MOL0     H89087   1.627   2.554   2.166 -3.1221 -3.4550  1.9979
  660MOL0     H89088   1.438   3.012   2.199 -0.8751  0.7882  0.9691
  660MOL0     H89089   1.230   3.142   2.227 -2.2710 -0.9477 -4.3818
  660MOL0     H89090   0.906   2.898   2.199 -3.6809 -0.4629 -1.0945
  660MOL0     H89091   0.808   3.015   2.270  0.6619 -3.6236  1.6330
  660MOL0     H89092   0.879   3.190   2.107  0.0948 -0.8444  5.2201
  660MOL0     H89093   0.809   3.055   2.027  1.9368  2.8188 -4.0952
  660MOL0     H89094   0.974   3.043   1.892  1.4194 -0.2715 -1.3731
  660MOL0     H89095   1.073   2.976   2.016  1.7918  1.5432  1.2368
  660MOL0     H89096   1.083   3.248   2.077 -0.2984 -2.4006  1.7150
  660MOL0     H89097   1.033   3.259   1.918  0.9507  1.3304  1.7294
  660MOL0     H89098   1.459   3.177   1.906 -0.8248  2.4404 -1.4104
  660MOL0     H89099   1.019   2.810   2.399  0.1262  0.2920  1.5326
  660MOL0     H89100   1.236   2.676   2.392 -0.3667  0.0606 -0.7725
  661MOL0     O89101   8.008   6.001   4.852 -0.2968  0.6082 -0.3389
  661MOL0     C89102   8.093   5.918   4.889  0.7577  0.1727  0.2484
  661MOL0     O89103   8.121   5.885   5.018 -0.1431  0.8072 -0.9668
  661MOL0     C89104   8.030   5.944   5.110 -0.7835 -0.0095  0.0698
  661MOL0     C89105   7.906   5.896   5.129  0.5202 -0.8916  0.2716
  661MOL0     C89106   7.835   5.945   5.239  0.1553 -0.0075  0.2251
  661MOL0     C89107   7.879   6.053   5.320 -0.4054  0.8752 -0.1635
  661MOL0     O89108   7.805   6.107   5.418 -0.0887 -0.0698  0.3739
  661MOL0     C89109   7.708   6.207   5.378 -0.0214  0.5529  0.4663
  661MOL0     C89110   7.724   6.341   5.443 -0.4735 -0.5528 -0.2152
  661MOL0     C89111   7.647   6.347   5.586 -0.0223 -0.1112  0.2208
  661MOL0     C89112   7.711   6.247   5.678 -0.4843  0.8674 -0.4530
  661MOL0     C89113   7.663   6.256   5.820  0.8454 -1.0202 -0.3845
  661MOL0     C89114   7.747   6.351   5.905 -0.1673  1.3025  0.6665
  661MOL0     C89115   7.697   6.385   6.038  0.1565  0.2333 -0.1908
  661MOL0     C89116   7.700   6.262   6.134  0.0552  0.0161 -0.0220
  661MOL0     N89117   7.828   6.209   6.184  0.1233 -0.4826  0.1951
  661MOL0     C89118   7.918   6.123   6.122  0.4566 -0.1180 -0.2361
  661MOL0     C89119   8.005   6.088   6.216 -0.2393 -0.5067 -0.4646
  661MOL0     C89120   8.137   6.012   6.188  0.2445  0.8319 -0.2901
  661MOL0     C89121   8.110   5.855   6.194 -0.9021 -0.2920  0.5238
  661MOL0     C89122   8.073   5.799   6.325 -1.1334  0.1801  0.6745
  661MOL0     C89123   8.026   5.659   6.308  0.7717  0.0748 -0.6349
  661MOL0     O89124   8.119   5.578   6.228 -0.0719  0.0958 -0.8428
  661MOL0     C89125   8.235   5.529   6.281  1.0565 -0.5479  0.0615
  661MOL0     C89126   8.326   5.483   6.188 -0.3883  0.3380  0.1989
  661MOL0     C89127   8.447   5.436   6.224 -0.7585  0.2929 -0.5968
  661MOL0     C89128   8.529   5.389   6.106 -0.5039 -0.1139  0.3477
  661MOL0     C89129   8.489   5.448   6.364 -1.4668  0.0505 -0.3436
  661MOL0     C89130   8.631   5.429   6.414 -0.5470  0.4491  0.5250
  661MOL0     O89131   8.720   5.383   6.325  0.2838  0.3366  1.0863
  661MOL0     C89132   8.853   5.351   6.343 -0.9564  0.4514  0.2786
  661MOL0     C89133   8.924   5.305   6.223  0.1778  0.0731 -0.7065
  661MOL0     C89134   9.061   5.270   6.224  0.3705  0.0903 -0.8591
  661MOL0     C89135   9.128   5.282   6.349 -0.4171  0.0436 -0.3347
  661MOL0     O89136   9.266   5.250   6.356  0.2023 -0.0087 -0.2479
  661MOL0     C89137   9.357   5.354   6.392  0.1422 -0.1957 -0.3282
  661MOL0     C89138   9.347   5.479   6.302 -0.3303 -0.0730  0.3336
  661MOL0     C89139   9.372   5.465   6.152 -0.7995 -0.0293 -0.5312
  661MOL0     C89140   9.281   5.543   6.065  0.3519  0.6564  0.2651
  661MOL0     C89141   9.335   5.552   5.922 -0.5327  0.0516  0.0785
  661MOL0     C89142   9.233   5.559   5.813 -0.0698  0.1788 -0.6156
  661MOL0     C89143   9.295   5.535   5.676  0.0913 -0.6438  0.1247
  661MOL0     C89144   9.194   5.504   5.568 -0.1218 -0.7208 -0.6703
  661MOL0    Cl89145   9.129   5.331   5.592 -0.1147 -0.0296 -0.7452
  661MOL0     C89146   9.062   5.314   6.464  1.4624  0.1230  0.0804
  661MOL0     C89147   8.927   5.358   6.462  0.2312 -0.2676 -0.3518
  661MOL0     O89148   8.652   5.442   6.527  0.3055  0.2135  0.0630
  661MOL0     C89149   8.397   5.493   6.457 -0.1860  0.0315 -0.2203
  661MOL0     C89150   8.270   5.531   6.413  0.1558 -0.7657  1.3193
  661MOL0     N89151   7.964   6.144   6.342 -0.2004 -0.0823 -0.1571
  661MOL0     N89152   7.861   6.216   6.317  0.1369  0.1341 -0.7406
  661MOL0     C89153   8.013   6.092   5.299  0.1441  0.2167  0.3452
  661MOL0     C89154   8.085   6.045   5.193  0.6937 -0.8360  0.2940
  661MOL0     C89155   8.169   5.836   4.788 -0.2803 -1.0909  0.5595
  661MOL0     C89156   8.193   5.882   4.661  0.7083 -1.3670  0.0417
  661MOL0     C89157   8.261   5.809   4.563  0.4983  0.5812 -0.1859
  661MOL0     C89158   8.318   5.689   4.599 -0.1486 -1.0706 -0.0164
  661MOL0     O89159   8.396   5.616   4.519 -0.5685 -0.3503  0.1943
  661MOL0     C89160   8.426   5.669   4.391 -0.0197  0.1038 -0.1678
  661MOL0     C89161   8.542   5.588   4.326  0.0222  0.4935 -0.2336
  661MOL0     C89162   8.607   5.647   4.202  0.2743  0.3189 -0.0574
  661MOL0     C89163   8.546   5.608   4.073 -0.3643  0.7075 -0.1871
  661MOL0     C89164   8.624   5.672   3.964  1.3712 -0.6865 -0.8895
  661MOL0     C89165   8.689   5.725   3.880 -0.3370 -0.5338  0.2837
  661MOL0     C89166   8.284   5.638   4.722  0.4235  0.5514 -0.1993
  661MOL0     C89167   8.215   5.711   4.818  0.2330  0.5330  0.0367
  661MOL0     H89168   7.877   5.806   5.076  0.8941 -0.6834 -0.3008
  661MOL0     H89169   7.737   5.902   5.255 -0.3736 -0.4161 -3.4207
  661MOL0     H89170   7.713   6.229   5.271 -0.4297 -0.6850  0.1735
  661MOL0     H89171   7.608   6.166   5.398  0.3661 -1.1700 -0.8431
  661MOL0     H89172   7.831   6.361   5.460 -0.7294 -0.9471  2.2571
  661MOL0     H89173   7.706   6.426   5.377  0.1765 -0.3555 -0.1534
  661MOL0     H89174   7.663   6.443   5.636 -1.7449 -0.8078  2.2528
  661MOL0     H89175   7.541   6.325   5.574  0.2185 -0.2900 -2.1426
  661MOL0     H89176   7.670   6.150   5.650 -0.8659  1.0428 -0.4993
  661MOL0     H89177   7.820   6.250   5.674 -0.3166 -2.5170 -1.4649
  661MOL0     H89178   7.557   6.284   5.824  0.8408 -0.5738 -2.3806
  661MOL0     H89179   7.666   6.160   5.871 -3.7677  0.1174  2.6335
  661MOL0     H89180   7.848   6.312   5.913 -0.9394 -0.7735  0.8462
  661MOL0     H89181   7.746   6.443   5.846  0.9140  0.4753 -0.6958
  661MOL0     H89182   7.771   6.456   6.077 -0.5007  1.7256 -1.5197
  661MOL0     H89183   7.602   6.439   6.029  1.3896  2.4675 -0.6311
  661MOL0     H89184   7.641   6.185   6.083 -0.7930  1.6940 -1.7276
  661MOL0     H89185   7.649   6.297   6.224  0.2389 -2.2553  1.0315
  661MOL0     H89186   7.915   6.105   6.015  1.5426  0.3800 -0.3705
  661MOL0     H89187   8.190   6.033   6.095  2.2817 -0.8696  0.4085
  661MOL0     H89188   8.218   6.032   6.259  1.1303 -1.6115 -0.5138
  661MOL0     H89189   8.193   5.799   6.151 -0.8802  1.3806 -1.7848
  661MOL0     H89190   8.022   5.844   6.130  0.1096 -0.4918 -0.8740
  661MOL0     H89191   7.995   5.859   6.372 -1.7933 -1.5595  1.8903
  661MOL0     H89192   8.163   5.805   6.388  0.3152 -0.0308 -1.2916
  661MOL0     H89193   7.931   5.671   6.255  0.9443  2.5491 -0.4759
  661MOL0     H89194   8.007   5.616   6.407 -3.9870  3.1718  0.1277
  661MOL0     H89195   8.311   5.496   6.081  0.1473  0.0501  0.0813
  661MOL0     H89196   8.619   5.451   6.109 -0.2125 -0.5527  2.0174
  661MOL0     H89197   8.551   5.282   6.111 -0.8369 -0.2168 -0.3315
  661MOL0     H89198   8.471   5.409   6.016  0.0176 -1.5236 -0.3278
  661MOL0     H89199   8.873   5.297   6.128  0.7254 -0.8546 -0.9254
  661MOL0     H89200   9.116   5.238   6.136 -0.8899  0.1395 -1.6885
  661MOL0     H89201   9.334   5.383   6.495  4.0271  0.3900  0.5118
  661MOL0     H89202   9.464   5.332   6.392  0.0372 -0.7141 -0.4536
  661MOL0     H89203   9.249   5.528   6.312 -1.2447 -0.9043 -3.2001
  661MOL0     H89204   9.418   5.551   6.345  1.2757 -2.1015  1.2485
  661MOL0     H89205   9.394   5.364   6.116  4.4729  0.3337  0.8102
  661MOL0     H89206   9.474   5.505   6.146 -0.9297  0.3937  0.0190
  661MOL0     H89207   9.182   5.498   6.049  0.2847  1.0648 -0.4994
  661MOL0     H89208   9.268   5.639   6.116 -1.9361  0.9715 -0.7837
  661MOL0     H89209   9.401   5.469   5.892 -1.3590 -0.4498 -0.4082
  661MOL0     H89210   9.406   5.635   5.919  1.0002 -1.0891  2.0134
  661MOL0     H89211   9.156   5.484   5.832  1.4597 -0.8856  1.8328
  661MOL0     H89212   9.188   5.658   5.826  1.8481  1.0157  0.0451
  661MOL0     H89213   9.373   5.459   5.677  0.3282 -0.4462 -1.2174
  661MOL0     H89214   9.351   5.623   5.641  0.8912 -1.4389 -0.6344
  661MOL0     H89215   9.238   5.507   5.468  2.4464 -1.6849  0.3355
  661MOL0     H89216   9.118   5.582   5.574 -0.4848 -0.8991 -2.4462
  661MOL0     H89217   9.113   5.297   6.558  0.5991 -0.6046  0.4335
  661MOL0     H89218   8.879   5.382   6.556  1.9968  1.1653  0.2272
  661MOL0     H89219   8.414   5.513   6.562 -0.2060  2.0423 -0.5552
  661MOL0     H89220   8.212   5.579   6.491  2.1532  2.1362  1.1745
  661MOL0     H89221   8.064   6.153   5.373  0.8070 -0.8920  0.8302
  661MOL0     H89222   8.190   6.070   5.182  0.5351  1.0740  2.3860
  661MOL0     H89223   8.157   5.981   4.636 -0.7497 -1.5316  1.3423
  661MOL0     H89224   8.278   5.860   4.469 -0.9785  4.5721  1.4708
  661MOL0     H89225   8.340   5.653   4.325 -0.9846  5.4823 -0.6765
  661MOL0     H89226   8.451   5.776   4.393 -0.2510  0.1466  1.0077
  661MOL0     H89227   8.498   5.489   4.310  0.3465  0.3120 -0.0130
  661MOL0     H89228   8.616   5.577   4.406  1.3420 -0.2079 -1.5076
  661MOL0     H89229   8.714   5.625   4.204  0.2611  0.2391 -0.2079
  661MOL0     H89230   8.602   5.755   4.219  0.4658  0.2540  0.4398
  661MOL0     H89231   8.440   5.629   4.086 -0.2317  1.9627 -0.9323
  661MOL0     H89232   8.566   5.501   4.064 -1.7076  0.5535 -1.8694
  661MOL0     H89233   8.747   5.771   3.803 -1.9658 -0.6912 -1.0966
  661MOL0     H89234   8.313   5.537   4.750  0.8899 -0.0809 -2.7544
  661MOL0     H89235   8.195   5.676   4.919  0.5537  0.3534  0.0375
  662MOL0     O89236   0.921   9.479  10.772  0.5788  0.0430 -1.1448
  662MOL0     C89237   1.005   9.428  10.854 -0.6829 -0.1717 -0.1902
  662MOL0     O89238   0.985   9.416  10.991 -0.3508  0.2107  0.0659
  662MOL0     C89239   0.879   9.473  11.058  0.0506  0.5322  0.5787
  662MOL0     C89240   0.906   9.541  11.178 -0.1756  0.4753 -0.2937
  662MOL0     C89241   0.799   9.606  11.246  0.2198 -0.1950  0.1373
  662MOL0     C89242   0.674   9.623  11.183 -1.1809  0.6612  0.2934
  662MOL0     O89243   0.575   9.685  11.249  0.0651  0.1732  0.1558
  662MOL0     C89244   0.548   9.816  11.198 -0.6880  0.6169  0.0905
  662MOL0     C89245   0.390   9.824  11.211  0.6078  0.1707  0.3722
  662MOL0     C89246   0.336   9.959  11.174  0.6209  0.2253  0.6964
  662MOL0     C89247   0.181   9.965  11.173 -0.0087  0.0948 -0.2496
  662MOL0     C89248   0.134  10.112  11.158 -0.1482  0.5806 -0.0369
  662MOL0     C89249  -0.022  10.122  11.179 -1.1595  0.3187  0.2803
  662MOL0     C89250  -0.107  10.023  11.103  1.1786  0.5353 -0.5482
  662MOL0     C89251  -0.092  10.065  10.951  1.0738 -0.0900  0.1942
  662MOL0     N89252  -0.230  10.101  10.901  0.2622 -0.8960 -0.5245
  662MOL0     C89253  -0.257  10.221  10.843 -0.3309 -0.3276 -0.1926
  662MOL0     C89254  -0.375  10.198  10.776 -1.1525  0.5164  0.2624
  662MOL0     C89255  -0.452  10.294  10.693  0.3190 -0.2923  0.2636
  662MOL0     C89256  -0.507  10.237  10.559 -1.5858  0.2231  0.7514
  662MOL0     C89257  -0.639  10.156  10.575  0.0272 -0.5419 -0.3433
  662MOL0     C89258  -0.699  10.135  10.435  0.3993 -0.4745  0.1541
  662MOL0     O89259  -0.835  10.113  10.441  0.2691 -0.4239  0.2491
  662MOL0     C89260  -0.884   9.992  10.478 -0.2080  0.1997 -1.2069
  662MOL0     C89261  -0.804   9.881  10.499 -0.1766 -0.0300 -0.5315
  662MOL0     C89262  -0.853   9.745  10.517  0.0688  0.2621 -0.2240
  662MOL0     C89263  -0.749   9.635  10.527  0.0019  0.2272  0.3719
  662MOL0     C89264  -0.998   9.734  10.518 -1.1728  0.1946  0.1487
  662MOL0     C89265  -1.049   9.593  10.553 -0.1831  0.1507  0.0835
  662MOL0     O89266  -1.172   9.560  10.516  0.4786  0.1153  0.0409
  662MOL0     C89267  -1.223   9.431  10.501 -0.4106  0.4102 -0.1142
  662MOL0     C89268  -1.359   9.419  10.485  0.9079 -0.0844  0.1732
  662MOL0     C89269  -1.412   9.300  10.465 -0.4683 -0.4659  0.1255
  662MOL0     C89270  -1.332   9.184  10.454 -0.4576  0.7273 -0.7611
  662MOL0     O89271  -1.397   9.066  10.433  0.7958  0.1375 -0.4846
  662MOL0     C89272  -1.318   8.939  10.432  0.2246 -0.1944 -0.1517
  662MOL0     C89273  -1.423   8.833  10.384 -0.1677 -0.2190 -0.3158
  662MOL0     C89274  -1.567   8.844  10.456 -0.1805  0.2578 -0.0831
  662MOL0     C89275  -1.663   8.730  10.406 -0.4694  0.4295  0.4120
  662MOL0     C89276  -1.807   8.720  10.478 -0.0098  0.9836  0.4224
  662MOL0     C89277  -1.896   8.841  10.456  0.5214 -1.6829  0.9951
  662MOL0     C89278  -2.036   8.812  10.515  0.0654 -0.4275 -0.6877
  662MOL0     C89279  -2.042   8.843  10.669 -1.2060 -0.5027  0.5921
  662MOL0    Cl89280  -1.979   9.023  10.710  0.0476 -0.1792  0.3059
  662MOL0     C89281  -1.193   9.194  10.475 -0.4712  0.5849 -0.8311
  662MOL0     C89282  -1.134   9.316  10.505 -0.0337 -0.1213  0.0131
  662MOL0     O89283  -0.979   9.522  10.629  0.7595 -1.2540  0.2209
  662MOL0     C89284  -1.080   9.842  10.506  0.0750 -0.2526  0.2770
  662MOL0     C89285  -1.022   9.967  10.473 -0.6268 -0.6097  0.4249
  662MOL0     N89286  -0.406  10.065  10.783 -0.5565  0.3086  0.3351
  662MOL0     N89287  -0.304  10.007  10.842 -0.2971  0.0484  1.0104
  662MOL0     C89288   0.652   9.539  11.070  0.2724 -0.5189  0.1450
  662MOL0     C89289   0.756   9.481  11.004  0.5463  0.0390 -0.7551
  662MOL0     C89290   1.105   9.329  10.800 -0.7597  0.2996  0.4522
  662MOL0     C89291   1.120   9.320  10.656  0.2169 -0.3988 -0.2577
  662MOL0     C89292   1.214   9.241  10.599 -0.3626 -0.7140  0.2382
  662MOL0     C89293   1.300   9.161  10.667  1.0440 -0.1067  0.3746
  662MOL0     O89294   1.388   9.091  10.593 -0.1844  0.5445 -0.5828
  662MOL0     C89295   1.522   9.118  10.641 -0.5097  0.2439 -0.6689
  662MOL0     C89296   1.627   9.050  10.551  1.4833  0.0789  0.5250
  662MOL0     C89297   1.609   8.893  10.544  1.1036  0.4889 -0.3983
  662MOL0     C89298   1.731   8.829  10.468 -0.0551  0.8959 -0.5277
  662MOL0     C89299   1.848   8.827  10.556  0.0012 -0.5183 -0.2057
  662MOL0     C89300   1.947   8.838  10.627  0.3446 -0.1911 -0.5679
  662MOL0     C89301   1.286   9.163  10.808 -0.3334  0.4151 -0.1060
  662MOL0     C89302   1.189   9.243  10.869  0.0953 -0.4630 -0.4623
  662MOL0     H89303   1.005   9.562  11.217  0.7671  0.7961 -2.6427
  662MOL0     H89304   0.819   9.646  11.346 -2.1806  0.4118  0.4224
  662MOL0     H89305   0.593   9.888  11.267 -0.6128 -2.4436  3.5409
  662MOL0     H89306   0.583   9.835  11.096  3.4331  1.8702  1.5286
  662MOL0     H89307   0.353   9.747  11.143  1.1055 -0.4875  0.8366
  662MOL0     H89308   0.361   9.789  11.311 -1.8690 -2.2753 -1.0664
  662MOL0     H89309   0.372  10.028  11.251 -0.9327  1.8217  0.0553
  662MOL0     H89310   0.385   9.988  11.080  3.6975  0.2194  2.1875
  662MOL0     H89311   0.147   9.910  11.084  0.9402  0.3811 -0.7951
  662MOL0     H89312   0.135   9.923  11.263 -2.6774 -2.3063 -2.5263
  662MOL0     H89313   0.181  10.167  11.239 -0.9666 -0.8825  1.4961
  662MOL0     H89314   0.156  10.159  11.062  1.0133  0.0891 -0.0264
  662MOL0     H89315  -0.037  10.120  11.287  3.0417 -1.3194  1.0242
  662MOL0     H89316  -0.057  10.222  11.150  1.1242  1.4986  1.2784
  662MOL0     H89317  -0.067   9.921  11.110 -0.2601 -0.1189 -1.2258
  662MOL0     H89318  -0.209  10.023  11.142  0.0587  0.6529 -3.2311
  662MOL0     H89319  -0.056   9.982  10.888 -1.3268 -0.1528 -1.2338
  662MOL0     H89320  -0.037  10.156  10.926 -0.8681  0.8037 -1.0844
  662MOL0     H89321  -0.204  10.315  10.841  1.5662 -1.3184  0.8384
  662MOL0     H89322  -0.531  10.330  10.760  2.4463  0.9735  2.2460
  662MOL0     H89323  -0.393  10.382  10.665 -2.1396  1.2691 -0.3397
  662MOL0     H89324  -0.436  10.170  10.511 -1.8862  0.4110  0.0390
  662MOL0     H89325  -0.528  10.324  10.496 -0.7960 -2.5259 -3.7413
  662MOL0     H89326  -0.699  10.215  10.644  2.6499  1.3810  0.4745
  662MOL0     H89327  -0.616  10.059  10.621 -2.8908  0.0642  2.7898
  662MOL0     H89328  -0.638  10.055  10.391 -0.7861 -0.4445 -1.6327
  662MOL0     H89329  -0.684  10.220  10.367 -1.2412  1.2375  1.8179
  662MOL0     H89330  -0.696   9.886  10.503 -0.1773 -0.6084  0.5495
  662MOL0     H89331  -0.787   9.540  10.488 -4.0924  1.5500  0.6864
  662MOL0     H89332  -0.655   9.651  10.473 -1.5175  0.5156 -2.3460
  662MOL0     H89333  -0.732   9.614  10.633 -1.3980 -2.7188  0.1194
  662MOL0     H89334  -1.423   9.506  10.483 -0.9169 -1.3474  1.2124
  662MOL0     H89335  -1.516   9.286  10.438 -0.8677  0.6290  0.9935
  662MOL0     H89336  -1.226   8.952  10.373 -0.2111 -3.5496 -1.8012
  662MOL0     H89337  -1.286   8.915  10.534  0.8102 -0.8521 -0.4789
  662MOL0     H89338  -1.438   8.839  10.276 -0.2360 -0.0138 -0.2954
  662MOL0     H89339  -1.382   8.739  10.421 -0.0853  0.9812  2.9941
  662MOL0     H89340  -1.610   8.944  10.446  0.8885  0.6687 -0.7163
  662MOL0     H89341  -1.560   8.819  10.562 -2.7606 -1.6354 -0.2490
  662MOL0     H89342  -1.683   8.726  10.298 -1.2042  1.6731  0.4764
  662MOL0     H89343  -1.606   8.642  10.436 -0.0887  0.6630  0.3842
  662MOL0     H89344  -1.786   8.721  10.585  1.0861  0.4711  0.2248
  662MOL0     H89345  -1.864   8.632  10.448  0.0370  1.0896  0.0161
  662MOL0     H89346  -1.846   8.928  10.500  1.1702 -1.5489  0.0069
  662MOL0     H89347  -1.908   8.861  10.350 -0.6012 -0.2555  1.3603
  662MOL0     H89348  -2.066   8.708  10.498 -0.5907 -0.8215  2.2489
  662MOL0     H89349  -2.112   8.872  10.464 -1.0105 -0.1090  1.1834
  662MOL0     H89350  -1.966   8.776  10.711 -1.2878  0.2610  1.9950
  662MOL0     H89351  -2.139   8.819  10.713 -1.9414  1.3292  0.0585
  662MOL0     H89352  -1.126   9.110  10.490  1.1545  2.2518  2.6458
  662MOL0     H89353  -1.028   9.312  10.528  0.4440 -3.4779 -2.1079
  662MOL0     H89354  -1.188   9.831  10.515 -0.2869  2.7350  0.3753
  662MOL0     H89355  -1.085  10.048  10.437  0.3992  0.1788  0.3456
  662MOL0     H89356   0.559   9.548  11.015 -0.0502 -1.4642  0.5255
  662MOL0     H89357   0.733   9.436  10.908  2.6044 -0.9652 -0.8257
  662MOL0     H89358   1.048   9.373  10.594 -0.7166  2.2685  2.8118
  662MOL0     H89359   1.233   9.258  10.494  0.0682  1.7103  0.6440
  662MOL0     H89360   1.541   9.225  10.647 -0.7760  0.2249  1.8191
  662MOL0     H89361   1.544   9.070  10.737 -0.7112  2.1546  0.3786
  662MOL0     H89362   1.723   9.087  10.590  0.6164  3.1776 -0.0181
  662MOL0     H89363   1.613   9.102  10.456 -0.0148  2.2613  1.8506
  662MOL0     H89364   1.519   8.844  10.507  1.7383 -0.0477 -1.2903
  662MOL0     H89365   1.617   8.849  10.643  1.5517  0.9790 -0.2129
  662MOL0     H89366   1.747   8.893  10.381  0.7722 -1.2896 -2.0445
  662MOL0     H89367   1.705   8.728  10.437  2.0499  0.6808 -1.7292
  662MOL0     H89368   2.035   8.853  10.686  0.0979 -3.5773  0.9073
  662MOL0     H89369   1.345   9.099  10.872  0.7053  1.1699 -0.2855
  662MOL0     H89370   1.177   9.235  10.976 -1.3181  2.0881 -0.3514
  663MOL0     O89371   4.342   9.647   1.605 -0.2765  0.4037  0.5571
  663MOL0     C89372   4.351   9.744   1.533  0.1508  0.0761 -0.9240
  663MOL0     O89373   4.244   9.818   1.486 -0.1568  0.0944  0.7062
  663MOL0     C89374   4.107   9.774   1.491 -1.4086  0.3575 -0.1618
  663MOL0     C89375   4.044   9.692   1.578 -0.7135 -0.1191 -0.1674
  663MOL0     C89376   3.909   9.667   1.573  0.3766  0.5413  0.5159
  663MOL0     C89377   3.824   9.731   1.485 -0.7531 -0.2727  0.9791
  663MOL0     O89378   3.694   9.700   1.482 -0.1014 -0.4160 -0.1244
  663MOL0     C89379   3.602   9.794   1.436 -0.9193  0.0150  0.0632
  663MOL0     C89380   3.454   9.781   1.468 -0.0159  0.1714 -0.7202
  663MOL0     C89381   3.429   9.686   1.589 -0.3781 -0.3392  0.1559
  663MOL0     C89382   3.282   9.682   1.642 -0.8148  0.2616 -0.2271
  663MOL0     C89383   3.194   9.603   1.541  0.3240 -0.2952 -0.1415
  663MOL0     C89384   3.050   9.575   1.591  0.8856 -0.0217  1.1031
  663MOL0     C89385   2.953   9.694   1.606  0.1688 -0.2442 -0.0872
  663MOL0     C89386   2.811   9.655   1.639  0.2062 -0.4794  1.1188
  663MOL0     N89387   2.741   9.589   1.528 -0.1868 -0.4549 -0.1955
  663MOL0     C89388   2.733   9.457   1.503 -0.7832 -0.9470 -0.6854
  663MOL0     C89389   2.625   9.447   1.431  0.3496 -0.1411 -0.4542
  663MOL0     C89390   2.570   9.332   1.370  0.5300  0.5851  0.0730
  663MOL0     C89391   2.483   9.268   1.468  1.3575  0.7403 -0.2071
  663MOL0     C89392   2.370   9.174   1.417 -0.5263 -0.0175  0.2040
  663MOL0     C89393   2.321   9.088   1.539 -0.6133 -0.0953  0.5682
  663MOL0     O89394   2.413   8.977   1.553  0.2567  0.0401  0.2293
  663MOL0     C89395   2.353   8.855   1.571 -0.6078  0.5096 -0.0477
  663MOL0     C89396   2.225   8.823   1.619 -0.6323 -0.2463  0.0001
  663MOL0     C89397   2.190   8.692   1.651 -0.0332  0.3245  0.2625
  663MOL0     C89398   2.075   8.667   1.739 -0.1270  0.2823 -0.5848
  663MOL0     C89399   2.279   8.587   1.611 -1.1726  1.5426  0.0972
  663MOL0     C89400   2.260   8.440   1.651 -0.4896  0.7705  0.7204
  663MOL0     O89401   2.270   8.414   1.785 -0.5221  0.3509  0.7802
  663MOL0     C89402   2.270   8.280   1.827  0.3205 -0.0956 -0.1197
  663MOL0     C89403   2.157   8.220   1.882 -0.7834 -0.3569  0.3539
  663MOL0     C89404   2.174   8.089   1.907  0.0377 -0.2197 -0.0647
  663MOL0     C89405   2.285   8.012   1.883  0.3902 -0.7329  0.7217
  663MOL0     O89406   2.269   7.875   1.914 -0.4558  0.0558  0.2419
  663MOL0     C89407   2.361   7.780   1.856  0.6849 -0.5235  0.5370
  663MOL0     C89408   2.319   7.636   1.898 -0.9764  0.1022 -0.5897
  663MOL0     C89409   2.420   7.528   1.861  0.1719  1.1837 -0.2210
  663MOL0     C89410   2.569   7.562   1.886  0.0778  0.2353 -0.1333
  663MOL0     C89411   2.674   7.459   1.827  0.0374 -0.2247 -0.3836
  663MOL0     C89412   2.813   7.526   1.832 -0.3894 -0.7785 -0.1210
  663MOL0     C89413   2.925   7.426   1.828  0.4847  0.7497 -0.0043
  663MOL0     C89414   2.958   7.364   1.701 -0.5450  0.5305  0.7457
  663MOL0    Cl89415   3.036   7.479   1.584 -0.0852 -0.2151  0.3477
  663MOL0     C89416   2.389   8.070   1.814 -1.0249  1.3414 -0.1414
  663MOL0     C89417   2.381   8.205   1.792 -0.6848  0.6893 -0.3310
  663MOL0     O89418   2.244   8.352   1.567  0.7759 -0.1129  0.4096
  663MOL0     C89419   2.402   8.613   1.552 -0.5701 -0.1820 -0.1892
  663MOL0     C89420   2.437   8.750   1.539  1.5617 -1.2439  0.1285
  663MOL0     N89421   2.562   9.573   1.424  0.1279  0.8945 -0.3964
  663MOL0     N89422   2.634   9.658   1.484 -0.5423 -0.2660  0.1983
  663MOL0     C89423   3.892   9.823   1.390  0.6786  1.8693 -0.1495
  663MOL0     C89424   4.028   9.846   1.399 -0.0947  0.7071 -1.2092
  663MOL0     C89425   4.487   9.801   1.518 -0.1975 -0.1525  0.7359
  663MOL0     C89426   4.594   9.747   1.575  0.3042 -0.0362 -0.0436
  663MOL0     C89427   4.725   9.783   1.539  0.0613  0.1087 -0.8762
  663MOL0     C89428   4.749   9.875   1.442 -0.0407  0.3224 -0.0447
  663MOL0     O89429   4.877   9.926   1.408  0.1821 -0.7411 -0.5853
  663MOL0     C89430   4.984   9.828   1.411 -0.7333 -0.3054 -0.0279
  663MOL0     C89431   5.094   9.917   1.351 -1.1623  0.5224  0.9603
  663MOL0     C89432   5.230   9.846   1.359  0.2519  0.4679 -0.2146
  663MOL0     C89433   5.332   9.880   1.245  0.3139 -1.0701 -0.2394
  663MOL0     C89434   5.460   9.814   1.268  0.5458  0.2690 -0.7219
  663MOL0     C89435   5.573   9.763   1.294  0.0131  0.1493 -0.2957
  663MOL0     C89436   4.631   9.943   1.389 -0.7210  0.4718 -0.1275
  663MOL0     C89437   4.506   9.892   1.417  0.9639 -0.5255  0.0291
  663MOL0     H89438   4.102   9.660   1.664  2.4536  3.2464 -0.8116
  663MOL0     H89439   3.867   9.599   1.647  2.0215  0.5948  1.5420
  663MOL0     H89440   3.618   9.888   1.490 -1.2571 -1.2526  2.5087
  663MOL0     H89441   3.615   9.812   1.329  2.3510  1.4302  0.5890
  663MOL0     H89442   3.411   9.881   1.480 -3.0258 -1.2020  1.4135
  663MOL0     H89443   3.408   9.726   1.386 -0.6039 -2.6096  1.3265
  663MOL0     H89444   3.470   9.586   1.569  1.8709  0.5541 -0.0590
  663MOL0     H89445   3.489   9.723   1.673 -3.6303  1.5534  1.8363
  663MOL0     H89446   3.276   9.637   1.742  0.6958 -3.2404 -1.5536
  663MOL0     H89447   3.250   9.786   1.652 -0.5628  0.3034  0.1741
  663MOL0     H89448   3.183   9.658   1.447  2.8916  1.3391  0.4424
  663MOL0     H89449   3.238   9.506   1.515 -0.8334 -1.1825  1.0442
  663MOL0     H89450   3.015   9.508   1.512  1.8443  0.1123  0.5437
  663MOL0     H89451   3.058   9.522   1.687 -1.4535 -1.8833  0.3665
  663MOL0     H89452   2.991   9.765   1.680 -0.1933  0.5972 -0.6966
  663MOL0     H89453   2.939   9.750   1.513 -0.5169  1.5530  1.0452
  663MOL0     H89454   2.759   9.750   1.658 -0.8686 -0.4794 -1.3837
  663MOL0     H89455   2.792   9.590   1.724 -1.5785 -1.1074  0.2905
  663MOL0     H89456   2.790   9.367   1.525  3.0701  1.8705  2.2520
  663MOL0     H89457   2.506   9.355   1.284 -1.0902  1.2088  1.3850
  663MOL0     H89458   2.643   9.259   1.333  0.8990 -0.3475  2.4324
  663MOL0     H89459   2.423   9.335   1.530 -0.4401 -0.8872 -0.0899
  663MOL0     H89460   2.548   9.211   1.536 -3.4631 -2.6489  2.1511
  663MOL0     H89461   2.407   9.100   1.345  0.1856 -0.0127  0.5575
  663MOL0     H89462   2.285   9.231   1.378 -0.4735  0.2062  0.4132
  663MOL0     H89463   2.222   9.053   1.506 -0.0078  0.1466 -1.6541
  663MOL0     H89464   2.303   9.154   1.624 -1.7466  1.4157 -0.7894
  663MOL0     H89465   2.156   8.904   1.640  0.5854  0.6247  0.7789
  663MOL0     H89466   2.081   8.582   1.807  2.4949  0.8113 -0.0499
  663MOL0     H89467   2.059   8.754   1.803  0.5987 -1.0768  1.5477
  663MOL0     H89468   1.980   8.661   1.684 -0.9946  1.5706  0.6932
  663MOL0     H89469   2.072   8.274   1.922 -0.8488 -0.1793 -0.0169
  663MOL0     H89470   2.098   8.036   1.964  0.6864  0.8142  1.8258
  663MOL0     H89471   2.355   7.792   1.748  0.2298 -1.2791  0.4709
  663MOL0     H89472   2.463   7.812   1.878 -0.0712  1.5749  1.2279
  663MOL0     H89473   2.311   7.638   2.007 -2.2076 -2.2084 -0.5750
  663MOL0     H89474   2.217   7.624   1.863 -1.7442  2.4529  0.6511
  663MOL0     H89475   2.409   7.499   1.756  0.0098 -0.4798  0.2285
  663MOL0     H89476   2.381   7.441   1.915  1.4777  0.8050  0.1523
  663MOL0     H89477   2.596   7.656   1.837  3.4688  0.2192  1.4579
  663MOL0     H89478   2.573   7.584   1.993  0.6672 -0.6029  0.0297
  663MOL0     H89479   2.644   7.436   1.724 -2.4612  2.1934 -0.3462
  663MOL0     H89480   2.673   7.369   1.889  2.1883 -0.2767 -0.3633
  663MOL0     H89481   2.820   7.599   1.751 -3.8977  0.9979  0.9323
  663MOL0     H89482   2.828   7.583   1.924  4.1925 -0.5795 -0.7761
  663MOL0     H89483   2.909   7.346   1.901 -0.3715  0.3607 -0.6039
  663MOL0     H89484   3.016   7.475   1.865  2.2048 -2.5711  0.5292
  663MOL0     H89485   2.870   7.320   1.653  1.4217 -0.5182 -2.2140
  663MOL0     H89486   3.030   7.282   1.709  1.8604  2.6694  3.9983
  663MOL0     H89487   2.483   8.020   1.794 -0.8778 -0.1000  3.4011
  663MOL0     H89488   2.461   8.262   1.747 -1.4995  2.2704  0.1617
  663MOL0     H89489   2.472   8.533   1.532 -1.1708 -1.0151  0.9705
  663MOL0     H89490   2.527   8.790   1.495  2.1439 -4.0595 -1.4834
  663MOL0     H89491   3.834   9.864   1.309  0.0892 -1.1276 -1.3683
  663MOL0     H89492   4.073   9.916   1.330 -0.4374  0.2428 -1.9147
  663MOL0     H89493   4.586   9.658   1.637  0.1272 -0.4250 -0.6147
  663MOL0     H89494   4.799   9.725   1.592 -1.3376 -3.1137 -2.1759
  663MOL0     H89495   5.016   9.794   1.509  2.6110  0.7249 -0.6218
  663MOL0     H89496   4.951   9.743   1.352 -1.6777 -0.4721  0.7198
  663MOL0     H89497   5.107  10.011   1.405  1.7848  0.5359  0.4172
  663MOL0     H89498   5.068   9.939   1.247 -0.6438 -2.6705  0.0447
  663MOL0     H89499   5.199   9.741   1.362 -2.4713  1.1201 -2.0596
  663MOL0     H89500   5.276   9.868   1.456 -0.5289  0.0951  0.2530
  663MOL0     H89501   5.344   9.988   1.234 -2.7480 -0.8365 -2.6253
  663MOL0     H89502   5.286   9.841   1.154 -0.0557  0.9127 -0.9353
  663MOL0     H89503   5.666   9.714   1.314  0.8854  0.9694 -2.1047
  663MOL0     H89504   4.636  10.030   1.324  1.7522 -0.9648 -2.0350
  663MOL0     H89505   4.427   9.955   1.377  2.7240  2.6295  1.1135
  664MOL0     O89506   6.632  10.718   4.007 -0.4213  0.3579  0.0608
  664MOL0     C89507   6.623  10.820   3.941  0.6621  0.0493 -0.0740
  664MOL0     O89508   6.667  10.835   3.817  0.7707 -0.2774 -0.0540
  664MOL0     C89509   6.711  10.732   3.739  0.6493  0.2890  0.0700
  664MOL0     C89510   6.834  10.750   3.683  1.1916  0.3227  0.1017
  664MOL0     C89511   6.903  10.650   3.612  0.0376  0.4202  0.0151
  664MOL0     C89512   6.842  10.520   3.586  1.0983 -0.0712 -0.2778
  664MOL0     O89513   6.884  10.418   3.501 -0.4285  0.0714 -1.3453
  664MOL0     C89514   6.981  10.450   3.397  0.2825  0.0599  0.3302
  664MOL0     C89515   6.996  10.326   3.307 -1.1355  0.7452  0.0400
  664MOL0     C89516   7.081  10.335   3.188 -0.2251  0.4163  0.9764
  664MOL0     C89517   7.073  10.214   3.086  0.8856  0.2843 -0.3139
  664MOL0     C89518   7.180  10.216   2.967  0.1157  0.0561 -0.4930
  664MOL0     C89519   7.319  10.210   3.013 -0.2100  0.2001  0.1952
  664MOL0     C89520   7.345  10.101   3.118 -0.6203  1.0430  0.3131
  664MOL0     C89521   7.292   9.957   3.073 -1.2167 -0.2926  0.0742
  664MOL0     N89522   7.371   9.901   2.956 -0.5751 -0.1311  0.1946
  664MOL0     C89523   7.319   9.848   2.843 -0.7317  0.8751 -0.1939
  664MOL0     C89524   7.417   9.765   2.804 -0.0524  0.0379  0.5595
  664MOL0     C89525   7.411   9.664   2.693  0.6043  0.0280  0.6309
  664MOL0     C89526   7.302   9.557   2.710  0.0025 -0.1522 -0.1192
  664MOL0     C89527   7.284   9.461   2.599 -0.3117  0.0557 -0.4632
  664MOL0     C89528   7.193   9.509   2.486  0.0845 -0.5697  0.4597
  664MOL0     O89529   7.068   9.506   2.548 -0.1789 -0.0878  0.4289
  664MOL0     C89530   6.959   9.545   2.471 -0.5363  0.8533 -0.2289
  664MOL0     C89531   6.849   9.558   2.557 -0.5618  0.9479 -0.3295
  664MOL0     C89532   6.726   9.580   2.493 -0.5335  0.9866 -0.4528
  664MOL0     C89533   6.610   9.607   2.589  0.1946 -1.1103 -0.1488
  664MOL0     C89534   6.717   9.589   2.358 -0.1231  0.2310  0.3471
  664MOL0     C89535   6.587   9.606   2.282  0.5154 -0.2006  0.1048
  664MOL0     O89536   6.570   9.724   2.203 -0.9098 -0.2528 -0.6526
  664MOL0     C89537   6.452   9.745   2.142 -0.4046  0.4200 -0.1868
  664MOL0     C89538   6.446   9.710   2.010  0.2494 -0.3307 -0.8662
  664MOL0     C89539   6.321   9.727   1.946  0.3628 -0.0215  0.5101
  664MOL0     C89540   6.201   9.763   2.013  0.1624 -0.5848 -0.6864
  664MOL0     O89541   6.086   9.773   1.941  0.2578 -1.1135 -0.3164
  664MOL0     C89542   5.966   9.718   2.003 -0.0176 -0.5511  0.3103
  664MOL0     C89543   5.984   9.562   2.024  0.3615  0.1999  0.4200
  664MOL0     C89544   5.846   9.500   2.071  0.1338 -0.1710  0.0244
  664MOL0     C89545   5.805   9.571   2.206 -0.8837 -0.0181 -0.0547
  664MOL0     C89546   5.679   9.515   2.255 -0.6810 -1.4467 -0.9911
  664MOL0     C89547   5.636   9.585   2.388  0.4483  0.5020  0.3242
  664MOL0     C89548   5.503   9.523   2.439 -0.4276 -0.3339  0.9593
  664MOL0     C89549   5.432   9.588   2.564 -0.2665 -0.4258  0.4141
  664MOL0    Cl89550   5.275   9.512   2.571  0.4925  0.2731  0.2847
  664MOL0     C89551   6.218   9.803   2.145 -0.0016 -0.3760  0.2007
  664MOL0     C89552   6.343   9.788   2.215 -0.0834  0.3732 -0.8742
  664MOL0     O89553   6.500   9.523   2.309  0.2512 -0.9836  0.4911
  664MOL0     C89554   6.835   9.563   2.278 -0.2586  0.1450  0.2706
  664MOL0     C89555   6.962   9.547   2.339  0.7780 -0.3402  0.4624
  664MOL0     N89556   7.526   9.779   2.885 -0.2411  0.1588 -0.4921
  664MOL0     N89557   7.498   9.862   2.972 -0.6976 -0.0779 -0.1535
  664MOL0     C89558   6.706  10.510   3.645 -0.3336  0.0736  0.8768
  664MOL0     C89559   6.652  10.605   3.724 -0.1635 -0.6223  0.1372
  664MOL0     C89560   6.540  10.941   3.994 -0.2892  1.1215  0.0368
  664MOL0     C89561   6.467  10.928   4.111 -0.3275  0.7552 -0.5657
  664MOL0     C89562   6.384  11.034   4.144 -0.3338 -0.0415 -0.9630
  664MOL0     C89563   6.350  11.149   4.067 -0.4127  0.3907  0.2597
  664MOL0     O89564   6.254  11.235   4.108  0.2032 -0.5374  0.1542
  664MOL0     C89565   6.246  11.370   4.061  0.5225  1.0445 -1.1673
  664MOL0     C89566   6.179  11.455   4.168  0.3255  0.4567  0.2149
  664MOL0     C89567   6.185  11.610   4.148 -0.3720 -0.4611 -0.8946
  664MOL0     C89568   6.113  11.661   4.021 -0.8877 -0.6652 -1.1520
  664MOL0     C89569   5.977  11.626   4.035 -0.7432  0.0944  0.0198
  664MOL0     C89570   5.858  11.593   4.025 -0.1246  0.5741  0.0114
  664MOL0     C89571   6.420  11.148   3.940 -0.2724  0.5495 -0.1716
  664MOL0     C89572   6.527  11.051   3.913  0.6235  0.5014 -0.6935
  664MOL0     H89573   6.887  10.843   3.703  0.7670  0.2750  1.6110
  664MOL0     H89574   7.003  10.663   3.571 -1.5913  2.2173 -3.8883
  664MOL0     H89575   6.939  10.533   3.338  1.7660 -0.6179 -1.8303
  664MOL0     H89576   7.073  10.492   3.438 -0.1427  2.3966 -0.9588
  664MOL0     H89577   7.031  10.245   3.371 -0.4709 -0.6478 -1.9805
  664MOL0     H89578   6.892  10.301   3.281 -2.1361  1.0492  3.2823
  664MOL0     H89579   7.034  10.417   3.134 -3.1755 -1.2458  0.8150
  664MOL0     H89580   7.184  10.348   3.223 -0.3252 -0.9982  1.8546
  664MOL0     H89581   7.088  10.126   3.150  1.5765  0.4795 -0.2018
  664MOL0     H89582   6.978  10.207   3.032  2.2316 -0.4089 -2.7444
  664MOL0     H89583   7.165  10.127   2.905  1.3910 -1.1337  0.8341
  664MOL0     H89584   7.157  10.299   2.900 -1.0832  0.7228  0.6835
  664MOL0     H89585   7.381  10.180   2.928  0.5920 -2.1509  1.4942
  664MOL0     H89586   7.349  10.305   3.058  0.1688  0.0453  0.2809
  664MOL0     H89587   7.453  10.098   3.139 -0.6608  0.6433  0.4698
  664MOL0     H89588   7.306  10.136   3.214 -0.6744  2.4971 -0.2147
  664MOL0     H89589   7.186   9.976   3.053 -1.7596 -2.2122  0.8947
  664MOL0     H89590   7.298   9.891   3.160  0.4204  2.7888  2.5340
  664MOL0     H89591   7.215   9.842   2.810 -0.5090 -2.1203 -0.6431
  664MOL0     H89592   7.398   9.717   2.598  4.8720 -1.5581 -1.0613
  664MOL0     H89593   7.501   9.603   2.699 -0.4316 -1.7557 -0.8840
  664MOL0     H89594   7.201   9.601   2.706  0.9632  2.1210 -1.8534
  664MOL0     H89595   7.313   9.505   2.806  0.6118  0.2347  0.0250
  664MOL0     H89596   7.251   9.362   2.630  3.2582 -1.5299 -1.2015
  664MOL0     H89597   7.383   9.447   2.553 -0.3539  0.3184 -0.6366
  664MOL0     H89598   7.204   9.457   2.391  3.2169 -0.1198  0.4767
  664MOL0     H89599   7.214   9.614   2.463  1.8770 -1.4291 -2.3186
  664MOL0     H89600   6.868   9.560   2.664 -0.0182  0.0034 -0.3984
  664MOL0     H89601   6.581   9.712   2.601 -1.6257 -1.6835  1.0122
  664MOL0     H89602   6.522   9.547   2.563 -0.7153 -0.5918  1.5558
  664MOL0     H89603   6.638   9.581   2.692  3.0689  4.2404  0.7733
  664MOL0     H89604   6.546   9.688   1.974  0.9961  0.2035  0.7556
  664MOL0     H89605   6.315   9.718   1.838 -1.3485 -2.5004  0.7322
  664MOL0     H89606   5.939   9.764   2.099 -2.2840 -2.7336  0.8166
  664MOL0     H89607   5.875   9.744   1.948  0.7254 -1.7243 -1.5897
  664MOL0     H89608   6.022   9.521   1.930  1.4319  1.7337  0.1508
  664MOL0     H89609   6.071   9.547   2.090  0.2225  0.6822  0.7157
  664MOL0     H89610   5.859   9.392   2.064 -1.5579 -0.2991 -2.5897
  664MOL0     H89611   5.764   9.528   2.003 -0.2971  1.1012  1.0174
  664MOL0     H89612   5.886   9.564   2.279  0.1491 -2.1759 -1.3136
  664MOL0     H89613   5.768   9.673   2.191 -1.7787 -0.2046  0.7960
  664MOL0     H89614   5.697   9.411   2.285  0.8749 -0.9821 -0.2435
  664MOL0     H89615   5.596   9.522   2.184 -1.2958 -1.9762 -0.3400
  664MOL0     H89616   5.709   9.565   2.467 -0.8307 -0.3703  1.3393
  664MOL0     H89617   5.625   9.693   2.382  3.2874  0.9434  1.6057
  664MOL0     H89618   5.515   9.416   2.454  1.6391 -0.1159  1.0680
  664MOL0     H89619   5.437   9.532   2.352  1.2141  1.2050 -0.2110
  664MOL0     H89620   5.433   9.697   2.568  0.0259 -0.4437  0.9598
  664MOL0     H89621   5.491   9.566   2.654  0.1821 -1.9993 -0.2281
  664MOL0     H89622   6.128   9.844   2.189 -0.7957  0.4372 -2.0714
  664MOL0     H89623   6.371   9.822   2.314  2.0791 -2.5633 -0.3410
  664MOL0     H89624   6.839   9.552   2.171 -2.3005 -0.4037  0.2042
  664MOL0     H89625   7.054   9.538   2.282  1.5456  3.2074  0.9088
  664MOL0     H89626   6.649  10.418   3.639 -1.2829  0.6157  1.4500
  664MOL0     H89627   6.557  10.597   3.776 -0.7141 -0.8611 -0.8847
  664MOL0     H89628   6.493  10.843   4.172 -1.5822  0.3930 -0.4931
  664MOL0     H89629   6.332  11.021   4.238 -0.6897  3.2027 -0.5933
  664MOL0     H89630   6.348  11.408   4.047  0.5361  1.0728 -0.9898
  664MOL0     H89631   6.201  11.385   3.962 -1.6885 -0.5156 -0.4553
  664MOL0     H89632   6.211  11.431   4.270 -0.7346 -2.2048  0.0189
  664MOL0     H89633   6.080  11.408   4.162  2.7494 -5.8810  1.5494
  664MOL0     H89634   6.290  11.637   4.163  0.0822 -3.5929  3.2906
  664MOL0     H89635   6.137  11.650   4.237  0.6406  2.4272 -1.5297
  664MOL0     H89636   6.148  11.616   3.927 -1.5184 -3.3407 -0.1862
  664MOL0     H89637   6.131  11.769   4.027  0.1644 -0.9158  1.1489
  664MOL0     H89638   5.756  11.561   4.012  0.8970 -2.1848 -2.0371
  664MOL0     H89639   6.401  11.226   3.867 -0.5748 -0.6250 -1.3981
  664MOL0     H89640   6.583  11.055   3.821 -0.7905  1.6178 -1.5394
  665MOL0     O89641   3.656   6.698   1.895 -0.0641 -0.0384 -0.1525
  665MOL0     C89642   3.676   6.717   2.019  0.5639 -0.2956 -0.0344
  665MOL0     O89643   3.665   6.842   2.073 -0.3837  0.0416 -0.2687
  665MOL0     C89644   3.635   6.951   1.988 -0.5922 -1.1798  0.7151
  665MOL0     C89645   3.505   6.977   1.973 -0.4273 -0.5448  0.5518
  665MOL0     C89646   3.456   7.068   1.878 -0.3658 -0.3594  0.3726
  665MOL0     C89647   3.548   7.130   1.788 -0.3538 -0.0736  0.1720
  665MOL0     O89648   3.511   7.220   1.696 -0.0827  0.7813 -0.4885
  665MOL0     C89649   3.458   7.351   1.725  0.2899  0.5843  0.3063
  665MOL0     C89650   3.401   7.422   1.595  0.3285  0.4547  0.4060
  665MOL0     C89651   3.338   7.553   1.622 -0.5254 -0.8136 -0.5978
  665MOL0     C89652   3.429   7.661   1.670  0.9175 -0.0894  0.0181
  665MOL0     C89653   3.383   7.803   1.632 -0.0929  0.7355  0.2012
  665MOL0     C89654   3.464   7.896   1.724 -0.1286 -0.7565 -0.1774
  665MOL0     C89655   3.420   8.047   1.706 -0.0739 -0.2249 -0.8571
  665MOL0     C89656   3.442   8.124   1.836  0.8915 -0.2335 -0.2460
  665MOL0     N89657   3.582   8.162   1.850  0.3321  0.1701  0.8739
  665MOL0     C89658   3.647   8.263   1.795 -0.4293 -0.6329 -0.8084
  665MOL0     C89659   3.780   8.228   1.825  0.1632 -0.5307  0.3820
  665MOL0     C89660   3.910   8.306   1.792  0.3034 -0.1120  1.5590
  665MOL0     C89661   3.916   8.371   1.649  0.0405 -0.3808  0.1593
  665MOL0     C89662   4.007   8.486   1.639  0.4987  0.0882 -0.1168
  665MOL0     C89663   4.149   8.463   1.685  0.2681 -0.2431 -0.1572
  665MOL0     O89664   4.217   8.375   1.600  0.4508  0.4759  0.4585
  665MOL0     C89665   4.350   8.358   1.599  0.5131 -0.0721  0.2057
  665MOL0     C89666   4.393   8.248   1.532  0.5521 -1.1240 -0.1578
  665MOL0     C89667   4.529   8.224   1.502 -1.0262 -0.6042 -0.4009
  665MOL0     C89668   4.557   8.103   1.407 -0.5612 -0.6176 -0.0180
  665MOL0     C89669   4.635   8.305   1.563  1.1459  0.2400 -0.2852
  665MOL0     C89670   4.783   8.285   1.542 -0.0317  0.3028 -0.3617
  665MOL0     O89671   4.866   8.371   1.606  0.5796  0.0424  0.2733
  665MOL0     C89672   5.000   8.349   1.610  0.3243 -0.1798  0.6413
  665MOL0     C89673   5.050   8.431   1.707  0.6677 -1.0478 -0.8656
  665MOL0     C89674   5.189   8.433   1.725 -0.6254 -0.1387 -0.6183
  665MOL0     C89675   5.282   8.350   1.649  0.7208 -0.7534 -1.5449
  665MOL0     O89676   5.414   8.363   1.685 -0.1194  0.7636  0.0089
  665MOL0     C89677   5.500   8.375   1.573 -0.8262  0.8138  0.7617
  665MOL0     C89678   5.600   8.252   1.575  0.4701 -0.1283  0.1893
  665MOL0     C89679   5.696   8.245   1.694 -0.5018 -0.0353 -0.0449
  665MOL0     C89680   5.645   8.166   1.817 -0.3051 -0.1703  0.4934
  665MOL0     C89681   5.727   8.176   1.944  0.2868  0.1330 -1.2199
  665MOL0     C89682   5.863   8.098   1.926  0.2094 -0.0728 -0.7863
  665MOL0     C89683   5.961   8.120   2.046  0.7739  0.2208 -0.7086
  665MOL0     C89684   5.908   8.096   2.191  0.8002  0.4987  0.1796
  665MOL0    Cl89685   6.038   8.050   2.291 -0.1678  0.4679  0.1823
  665MOL0     C89686   5.220   8.271   1.546  0.0344  0.0021 -0.2404
  665MOL0     C89687   5.086   8.269   1.524 -0.0867 -0.9117  0.1890
  665MOL0     O89688   4.813   8.200   1.465 -0.8668  0.1551 -0.6920
  665MOL0     C89689   4.583   8.413   1.633 -0.4404  0.7146 -0.4386
  665MOL0     C89690   4.450   8.444   1.655  0.9068 -0.1472 -0.0018
  665MOL0     N89691   3.786   8.115   1.896 -0.4204 -1.4990 -0.0535
  665MOL0     N89692   3.669   8.076   1.913 -0.2058  0.5217 -0.2586
  665MOL0     C89693   3.680   7.088   1.786 -0.9353  0.0267 -0.0712
  665MOL0     C89694   3.723   7.012   1.895  0.3923  0.1676 -0.2984
  665MOL0     C89695   3.686   6.594   2.102 -0.7344 -0.6816  0.0246
  665MOL0     C89696   3.713   6.604   2.239  0.2285  0.5945 -0.4023
  665MOL0     C89697   3.731   6.480   2.312 -0.4641 -0.1516 -0.0920
  665MOL0     C89698   3.726   6.356   2.259  0.2005  0.8737  1.0378
  665MOL0     O89699   3.766   6.245   2.317 -0.1136  0.4314 -0.0693
  665MOL0     C89700   3.664   6.153   2.353  0.3206  0.1785  0.7691
  665MOL0     C89701   3.712   6.032   2.421 -0.2641  0.5126 -0.0758
  665MOL0     C89702   3.782   6.058   2.557 -0.1615 -0.3044 -0.2525
  665MOL0     C89703   3.779   5.933   2.642 -0.5238  0.6893 -0.4944
  665MOL0     C89704   3.856   5.813   2.596  0.5574 -0.0989 -0.4714
  665MOL0     C89705   3.904   5.716   2.542 -0.1400  0.1565 -0.0961
  665MOL0     C89706   3.695   6.347   2.126 -0.7696  0.0544  0.8117
  665MOL0     C89707   3.679   6.460   2.042  0.5144 -0.3990 -0.0316
  665MOL0     H89708   3.433   6.932   2.041 -0.6815 -1.3845 -0.2609
  665MOL0     H89709   3.353   7.101   1.872  0.6206  3.7579  2.3876
  665MOL0     H89710   3.377   7.357   1.798  0.1524  1.1233  0.1144
  665MOL0     H89711   3.534   7.411   1.774  0.1412  2.7144 -1.8626
  665MOL0     H89712   3.476   7.443   1.518 -1.5900  0.7775 -1.4713
  665MOL0     H89713   3.328   7.355   1.550  0.4772 -0.6735  1.7404
  665MOL0     H89714   3.286   7.582   1.531  1.9205  3.2293 -0.9528
  665MOL0     H89715   3.259   7.545   1.697  0.1322  2.5643  0.6486
  665MOL0     H89716   3.436   7.667   1.779  1.0631 -0.4862  0.0330
  665MOL0     H89717   3.529   7.641   1.628  1.3218  2.5184 -0.4376
  665MOL0     H89718   3.398   7.809   1.524  1.4893 -0.1451  0.3406
  665MOL0     H89719   3.277   7.818   1.657 -0.3348 -0.1149 -0.2751
  665MOL0     H89720   3.457   7.873   1.830  3.0765 -1.3562 -0.0048
  665MOL0     H89721   3.572   7.888   1.709  0.7726  1.9217  3.4634
  665MOL0     H89722   3.470   8.102   1.626 -2.3921  3.7268  0.1555
  665MOL0     H89723   3.314   8.046   1.681 -0.9069  2.3074  2.0355
  665MOL0     H89724   3.414   8.068   1.925  2.4836  1.3292  1.3366
  665MOL0     H89725   3.379   8.213   1.837  2.1369  0.7381  2.4662
  665MOL0     H89726   3.617   8.355   1.745  0.7555 -1.1435 -2.5585
  665MOL0     H89727   3.915   8.383   1.869  3.4949  1.2558  0.1876
  665MOL0     H89728   3.996   8.240   1.805 -0.0780 -0.2694  3.4737
  665MOL0     H89729   3.815   8.409   1.629 -0.3146 -1.1530  0.4178
  665MOL0     H89730   3.952   8.304   1.570  1.0950  2.3836 -1.8274
  665MOL0     H89731   3.972   8.565   1.706  2.1091  1.6621 -1.0596
  665MOL0     H89732   4.001   8.530   1.539  0.3713 -1.1201 -0.6602
  665MOL0     H89733   4.151   8.425   1.787  0.6700  1.3768  0.4766
  665MOL0     H89734   4.201   8.559   1.674  2.6344 -1.5340 -1.0243
  665MOL0     H89735   4.316   8.186   1.486  1.6531 -1.2304 -1.9660
  665MOL0     H89736   4.628   8.135   1.331  0.8514 -1.7649  0.7691
  665MOL0     H89737   4.604   8.019   1.458 -0.0139 -1.1778 -1.3769
  665MOL0     H89738   4.461   8.064   1.371 -3.0874  1.6555  3.6188
  665MOL0     H89739   4.986   8.502   1.758  1.5361 -0.5535 -0.4431
  665MOL0     H89740   5.243   8.500   1.792  0.2055 -0.5419 -0.8641
  665MOL0     H89741   5.444   8.378   1.480 -2.1180  1.3547  1.5290
  665MOL0     H89742   5.549   8.471   1.590  0.5320  0.4749 -0.9614
  665MOL0     H89743   5.548   8.157   1.559 -0.3007  0.3982 -0.5306
  665MOL0     H89744   5.658   8.271   1.484 -1.7313  2.9840 -0.7222
  665MOL0     H89745   5.718   8.344   1.733 -2.2304  0.0677  0.7460
  665MOL0     H89746   5.781   8.191   1.651 -0.7190  0.9903 -1.8526
  665MOL0     H89747   5.540   8.191   1.833 -0.7043 -0.5411 -1.3279
  665MOL0     H89748   5.641   8.060   1.794  0.9379 -0.0007 -0.6336
  665MOL0     H89749   5.664   8.132   2.022 -1.0314  0.9972 -1.7662
  665MOL0     H89750   5.742   8.282   1.969  0.4460  0.0346 -0.8906
  665MOL0     H89751   5.840   7.992   1.911 -0.4986  0.1743 -1.5627
  665MOL0     H89752   5.908   8.129   1.832  0.9211  1.8570  0.1521
  665MOL0     H89753   5.998   8.223   2.036  0.5219  0.0928 -3.7663
  665MOL0     H89754   6.045   8.056   2.020 -0.6321 -2.9707  1.8648
  665MOL0     H89755   5.830   8.021   2.206  0.2154  1.5881  3.4319
  665MOL0     H89756   5.863   8.181   2.243 -2.4557 -0.2917 -1.1338
  665MOL0     H89757   5.290   8.213   1.486  0.2766  0.4331 -0.3817
  665MOL0     H89758   5.044   8.228   1.433 -0.7497  2.6649 -1.3112
  665MOL0     H89759   4.646   8.488   1.678 -0.9881  1.4388 -0.8558
  665MOL0     H89760   4.414   8.524   1.719  2.1381  1.4891 -1.2664
  665MOL0     H89761   3.755   7.117   1.713 -1.9335  2.1991 -0.3045
  665MOL0     H89762   3.830   6.995   1.904  0.1322 -0.7697  1.3245
  665MOL0     H89763   3.732   6.698   2.289  0.0222  0.5154 -0.1718
  665MOL0     H89764   3.736   6.478   2.420  0.2838 -1.6910 -0.1315
  665MOL0     H89765   3.599   6.213   2.417 -2.8854 -1.4571 -0.6859
  665MOL0     H89766   3.607   6.126   2.264  1.3322 -3.1371  0.9810
  665MOL0     H89767   3.777   5.969   2.360  0.3459  0.8521  0.2163
  665MOL0     H89768   3.625   5.970   2.444  0.1974 -0.2056 -0.2316
  665MOL0     H89769   3.721   6.137   2.604  1.2943  0.5280  0.3021
  665MOL0     H89770   3.887   6.087   2.546 -0.0597 -1.1952 -1.9494
  665MOL0     H89771   3.675   5.901   2.654  0.0374 -0.6475  1.2378
  665MOL0     H89772   3.806   5.952   2.746  1.1246  0.5950 -0.8810
  665MOL0     H89773   3.939   5.629   2.491 -1.5771 -2.0173  2.3703
  665MOL0     H89774   3.701   6.251   2.075  0.8198  0.0850  0.8878
  665MOL0     H89775   3.671   6.444   1.935  2.8044 -0.6734 -0.2082
  666MOL0     O89776   5.312   0.532   7.178 -0.4591  1.0128 -0.3946
  666MOL0     C89777   5.315   0.649   7.173  0.4815 -0.8097 -0.7962
  666MOL0     O89778   5.208   0.731   7.185  0.9322 -0.3682 -0.1208
  666MOL0     C89779   5.082   0.682   7.166  0.0648 -0.1808  0.4922
  666MOL0     C89780   5.019   0.704   7.045 -0.3571 -0.9840  0.3711
  666MOL0     C89781   4.888   0.671   7.021 -0.1483  0.1873 -0.7231
  666MOL0     C89782   4.808   0.630   7.135 -0.4292  0.5237 -0.9251
  666MOL0     O89783   4.669   0.613   7.113 -0.0906 -0.2308  0.2676
  666MOL0     C89784   4.585   0.637   7.222  0.2557 -0.5336 -0.0280
  666MOL0     C89785   4.446   0.610   7.186  0.6720  0.2511  0.3070
  666MOL0     C89786   4.347   0.642   7.299 -0.5395 -0.0199 -0.4414
  666MOL0     C89787   4.208   0.579   7.279  1.0281  0.9739 -0.3663
  666MOL0     C89788   4.097   0.680   7.258 -1.4586  0.0025  0.3298
  666MOL0     C89789   3.965   0.620   7.293 -0.3024 -0.3246 -0.2489
  666MOL0     C89790   3.860   0.714   7.226 -0.4396  0.4705 -0.2489
  666MOL0     C89791   3.894   0.862   7.267 -0.0296 -0.2794  0.4739
  666MOL0     N89792   3.778   0.941   7.247 -0.8621 -0.0862  0.3372
  666MOL0     C89793   3.700   0.935   7.133  0.1777  0.5349 -1.8310
  666MOL0     C89794   3.609   1.037   7.155 -0.8450  0.3042 -0.0761
  666MOL0     C89795   3.488   1.074   7.065 -0.1019 -0.4982  0.6226
  666MOL0     C89796   3.487   1.229   7.067  0.6312  0.7875  0.7809
  666MOL0     C89797   3.403   1.291   6.953  0.1918 -0.3707 -0.3343
  666MOL0     C89798   3.254   1.279   6.956  0.3085  0.9123  0.4713
  666MOL0     O89799   3.204   1.146   6.920  0.2688  0.4805  0.4107
  666MOL0     C89800   3.078   1.127   6.973  0.4457  0.3887  0.3186
  666MOL0     C89801   3.054   1.001   7.031 -0.2732 -0.1722  0.0802
  666MOL0     C89802   2.927   0.961   7.072  0.1037 -0.1658  0.6340
  666MOL0     C89803   2.917   0.810   7.121 -0.1045 -0.1725  0.9240
  666MOL0     C89804   2.815   1.050   7.059  0.0684  0.4084  0.9117
  666MOL0     C89805   2.677   1.021   7.109 -0.6562 -1.0579 -0.7191
  666MOL0     O89806   2.595   1.126   7.104 -0.1515  0.6289  0.4453
  666MOL0     C89807   2.482   1.130   7.182 -0.4022  0.3702  0.4647
  666MOL0     C89808   2.495   1.178   7.311  0.6689  0.3552  0.0249
  666MOL0     C89809   2.379   1.200   7.384 -0.0840 -0.7701  0.7605
  666MOL0     C89810   2.252   1.176   7.325  0.2080  0.0275 -0.9135
  666MOL0     O89811   2.150   1.201   7.405  0.3743  0.1819  0.5645
  666MOL0     C89812   2.047   1.104   7.398 -0.0222  1.1882 -1.1360
  666MOL0     C89813   2.026   1.054   7.542 -0.1135  1.4925 -0.4119
  666MOL0     C89814   2.094   0.914   7.559 -0.9170  0.1633  0.5398
  666MOL0     C89815   2.243   0.928   7.565  0.2617  1.0569  0.1620
  666MOL0     C89816   2.313   0.790   7.564 -0.3466  0.0491  0.0825
  666MOL0     C89817   2.333   0.729   7.428 -0.4823 -0.7411  0.0589
  666MOL0     C89818   2.432   0.613   7.437 -0.8464  0.2655  0.6422
  666MOL0     C89819   2.576   0.663   7.438  0.5977 -0.5947 -0.3498
  666MOL0    Cl89820   2.678   0.522   7.403  0.4868  0.2236  0.1742
  666MOL0     C89821   2.250   1.106   7.196 -0.0019  0.6621 -0.3535
  666MOL0     C89822   2.364   1.091   7.119 -0.1406  0.0551 -0.0108
  666MOL0     O89823   2.646   0.912   7.150 -0.0409  0.4601 -0.5325
  666MOL0     C89824   2.831   1.170   6.986 -0.2772 -0.5560  0.7459
  666MOL0     C89825   2.964   1.207   6.949  0.2707  1.1743 -0.3354
  666MOL0     N89826   3.631   1.095   7.279 -0.7259  0.3811 -0.0119
  666MOL0     N89827   3.731   1.029   7.333 -0.3565  0.0279  0.2859
  666MOL0     C89828   4.862   0.624   7.256 -0.7792 -0.1099  0.0935
  666MOL0     C89829   5.008   0.645   7.270  0.1645 -0.2881  0.3810
  666MOL0     C89830   5.442   0.726   7.177  0.3025 -0.5133  0.7716
  666MOL0     C89831   5.450   0.863   7.183 -0.5239 -0.8930 -0.5030
  666MOL0     C89832   5.564   0.926   7.148  0.3668 -1.1339  0.6644
  666MOL0     C89833   5.686   0.856   7.124  0.5183  0.0154 -0.4688
  666MOL0     O89834   5.807   0.919   7.101 -0.0690  0.1462 -0.0246
  666MOL0     C89835   5.825   1.052   7.136  0.1823  0.4960 -0.7675
  666MOL0     C89836   5.955   1.112   7.085 -0.8716  0.2957  0.3007
  666MOL0     C89837   6.000   1.074   6.952 -1.0000 -0.3751 -0.2365
  666MOL0     C89838   6.113   1.156   6.895 -0.7368  0.4406  0.5037
  666MOL0     C89839   6.176   1.081   6.784 -0.3587  0.1088 -0.4711
  666MOL0     C89840   6.244   1.045   6.688 -0.2700  0.1209  0.6946
  666MOL0     C89841   5.673   0.725   7.133  0.3348 -0.6222  0.4310
  666MOL0     C89842   5.557   0.653   7.151  0.1219 -0.0257  0.9890
  666MOL0     H89843   5.082   0.745   6.966 -0.8097 -0.3947  0.3058
  666MOL0     H89844   4.841   0.704   6.930 -0.8510  3.4677  0.6987
  666MOL0     H89845   4.612   0.573   7.307  5.0264  0.7695 -0.2642
  666MOL0     H89846   4.599   0.737   7.264 -0.3098 -0.1401 -0.7554
  666MOL0     H89847   4.422   0.671   7.099  0.6284  0.0592  0.1832
  666MOL0     H89848   4.444   0.503   7.162  2.8771 -0.2405  1.9263
  666MOL0     H89849   4.381   0.613   7.399 -2.3718  0.5866  0.3967
  666MOL0     H89850   4.345   0.752   7.304 -2.5309 -0.0358 -0.1408
  666MOL0     H89851   4.199   0.511   7.193  2.0022  1.9620 -1.2872
  666MOL0     H89852   4.178   0.516   7.363 -0.8665 -1.3678 -2.6334
  666MOL0     H89853   4.124   0.770   7.315 -0.4061  0.8553 -1.3991
  666MOL0     H89854   4.108   0.716   7.155 -0.8330  3.0530  1.3461
  666MOL0     H89855   3.957   0.522   7.244  1.3878  1.0831 -3.7170
  666MOL0     H89856   3.965   0.613   7.402  1.9409 -0.7874 -0.2291
  666MOL0     H89857   3.863   0.703   7.118  3.1929  0.9618 -0.3247
  666MOL0     H89858   3.759   0.683   7.257 -0.8639  0.3900 -1.6304
  666MOL0     H89859   3.970   0.902   7.199 -1.0730 -0.4193 -0.8080
  666MOL0     H89860   3.927   0.881   7.370  1.8251 -1.5105  0.1536
  666MOL0     H89861   3.699   0.876   7.041 -0.5336  2.2687 -2.9918
  666MOL0     H89862   3.489   1.023   6.968 -0.2583 -1.0566  0.9117
  666MOL0     H89863   3.396   1.032   7.108  0.7995 -3.1301  0.1967
  666MOL0     H89864   3.585   1.277   7.071  0.5425  0.9575  4.9022
  666MOL0     H89865   3.435   1.251   7.161  0.8440  0.9860  0.8511
  666MOL0     H89866   3.438   1.261   6.854  1.8731  1.9045 -0.4911
  666MOL0     H89867   3.432   1.396   6.950  1.6180 -0.7652 -1.6283
  666MOL0     H89868   3.220   1.355   6.886  0.4549 -0.3206 -0.9997
  666MOL0     H89869   3.220   1.301   7.057  0.8757 -2.7616  1.6031
  666MOL0     H89870   3.140   0.936   7.044  1.7802  2.4100  0.0984
  666MOL0     H89871   2.829   0.768   7.072  0.5392 -0.3827 -0.0791
  666MOL0     H89872   3.007   0.755   7.093 -1.2670 -0.8853 -1.6670
  666MOL0     H89873   2.903   0.806   7.229  3.1301 -0.4126  1.4262
  666MOL0     H89874   2.593   1.211   7.343  0.6728  0.6973 -0.3439
  666MOL0     H89875   2.381   1.248   7.481  0.8140  0.8443 -0.0279
  666MOL0     H89876   1.954   1.158   7.377 -0.1306  1.6688  0.4638
  666MOL0     H89877   2.053   1.018   7.331  0.7933 -0.3676  0.8421
  666MOL0     H89878   2.071   1.117   7.619  1.2514 -0.1872  0.2362
  666MOL0     H89879   1.921   1.035   7.565  0.4211 -3.3796 -0.9329
  666MOL0     H89880   2.076   0.849   7.473 -1.2538 -1.1043  1.5363
  666MOL0     H89881   2.069   0.854   7.648  0.3966  2.3117  2.4613
  666MOL0     H89882   2.289   0.982   7.482 -1.1178  2.6731  0.3944
  666MOL0     H89883   2.276   0.980   7.656 -2.2033 -1.4354  2.7063
  666MOL0     H89884   2.256   0.718   7.624 -0.9077  1.1629  0.9376
  666MOL0     H89885   2.408   0.821   7.609 -1.1827  1.3526  1.0456
  666MOL0     H89886   2.237   0.689   7.395 -1.0061  0.9872 -0.6310
  666MOL0     H89887   2.364   0.805   7.356 -1.5259 -1.2759 -0.9668
  666MOL0     H89888   2.420   0.543   7.354  4.1344 -0.5765  0.3200
  666MOL0     H89889   2.404   0.569   7.533 -4.1283  2.8821  1.0964
  666MOL0     H89890   2.597   0.703   7.538 -0.3197 -1.4762  0.2172
  666MOL0     H89891   2.606   0.749   7.377 -1.1084  1.6104  1.7417
  666MOL0     H89892   2.158   1.071   7.151  0.4447 -1.3431  0.1580
  666MOL0     H89893   2.376   1.051   7.019  3.6095  2.1966 -0.6042
  666MOL0     H89894   2.761   1.249   6.959  2.3422  2.0750  1.1062
  666MOL0     H89895   2.975   1.288   6.877 -0.0436  0.6496 -0.9843
  666MOL0     H89896   4.820   0.602   7.354  1.8490 -0.9600  1.1124
  666MOL0     H89897   5.065   0.630   7.361  1.6230 -1.3908 -0.6803
  666MOL0     H89898   5.365   0.924   7.211 -1.5752 -2.4622 -0.1531
  666MOL0     H89899   5.550   1.033   7.138  2.2434 -1.0962 -2.8050
  666MOL0     H89900   5.742   1.109   7.092 -0.1357 -0.2223 -1.1170
  666MOL0     H89901   5.832   1.070   7.244  1.5544  0.8984 -0.9043
  666MOL0     H89902   6.036   1.087   7.153 -0.5505 -2.0073 -0.8370
  666MOL0     H89903   5.941   1.220   7.093 -0.3360  0.6983 -3.0073
  666MOL0     H89904   5.907   1.097   6.899 -0.7733  1.2060 -0.0255
  666MOL0     H89905   6.027   0.969   6.954 -1.7796 -0.5987 -1.0001
  666MOL0     H89906   6.179   1.185   6.977 -0.8478  1.8619  0.1177
  666MOL0     H89907   6.088   1.251   6.846  0.6549  0.2795 -0.5892
  666MOL0     H89908   6.298   0.997   6.608 -0.5621 -1.8712  1.6465
  666MOL0     H89909   5.768   0.676   7.112  1.0650  1.6797 -2.2731
  666MOL0     H89910   5.557   0.545   7.148 -0.2053 -0.0138  0.4570
  667MOL0     O89911   7.140  11.068  10.432  0.8874  0.2991 -0.2306
  667MOL0     C89912   7.142  10.953  10.384 -0.8015  0.6179 -0.7384
  667MOL0     O89913   7.035  10.880  10.340 -0.1852  0.9769 -1.3421
  667MOL0     C89914   6.909  10.943  10.328 -0.0589  0.0137 -0.6882
  667MOL0     C89915   6.814  10.875  10.251  0.0733  0.2970  0.4364
  667MOL0     C89916   6.679  10.918  10.237 -0.0095 -0.1557  0.2846
  667MOL0     C89917   6.628  11.022  10.320 -0.2823 -0.1929  0.3526
  667MOL0     O89918   6.496  11.057  10.320 -0.1061  0.0939 -0.0451
  667MOL0     C89919   6.394  10.989  10.243  0.0890 -0.2184 -1.0814
  667MOL0     C89920   6.250  11.032  10.274 -0.9994  0.9055  0.4081
  667MOL0     C89921   6.240  11.188  10.287 -0.4283  0.8152 -0.8668
  667MOL0     C89922   6.126  11.216  10.386  0.7954 -0.2597 -0.2234
  667MOL0     C89923   5.978  11.180  10.367  0.4264  0.6008  0.3258
  667MOL0     C89924   5.922  11.211  10.228  0.1180  0.3111  0.8792
  667MOL0     C89925   5.785  11.155  10.175 -0.5426 -0.4712 -0.0298
  667MOL0     C89926   5.776  11.188  10.025 -1.1695  0.4492  0.4747
  667MOL0     N89927   5.662  11.144   9.958  0.1156 -0.8942  0.8129
  667MOL0     C89928   5.536  11.169   9.989  0.1375  0.0130  1.1834
  667MOL0     C89929   5.463  11.118   9.893  0.6050 -0.1748  0.5834
  667MOL0     C89930   5.317  11.115   9.854  1.0490 -0.5254  0.1679
  667MOL0     C89931   5.219  11.128   9.979 -0.0242  0.2273 -0.0636
  667MOL0     C89932   5.071  11.133   9.916 -0.2332  0.1370  0.2392
  667MOL0     C89933   4.961  11.148  10.020 -0.6080 -0.1660  0.5171
  667MOL0     O89934   4.834  11.127   9.956 -0.1774 -1.1205  0.3846
  667MOL0     C89935   4.743  11.232   9.960 -0.0949  0.5416  0.0736
  667MOL0     C89936   4.626  11.214  10.033 -0.6670  0.1573 -0.6727
  667MOL0     C89937   4.529  11.314  10.048  0.5169  0.0817  0.0785
  667MOL0     C89938   4.422  11.286  10.155  0.1647 -0.2556 -0.0747
  667MOL0     C89939   4.545  11.432   9.972  0.1470 -0.3853 -0.2409
  667MOL0     C89940   4.455  11.548   9.985  0.2901  0.6658  0.4320
  667MOL0     O89941   4.316  11.526   9.995  0.4534  0.2110  0.2322
  667MOL0     C89942   4.230  11.633   9.991 -0.0174  0.0272  0.8953
  667MOL0     C89943   4.257  11.757  10.036 -0.1045 -0.2834 -0.9288
  667MOL0     C89944   4.174  11.866  10.035  0.9336 -0.7086  0.2704
  667MOL0     C89945   4.038  11.842  10.003 -0.5169  0.9216 -0.5501
  667MOL0     O89946   3.944  11.949   9.991 -0.7021  0.0029 -0.6713
  667MOL0     C89947   3.986  12.075  10.040 -0.3286  0.1696 -0.0334
  667MOL0     C89948   3.882  12.174  10.002 -0.5490  0.0995  0.0859
  667MOL0     C89949   3.936  12.322   9.989  0.2188  0.4843 -0.1643
  667MOL0     C89950   3.826  12.421   9.940 -0.4564 -1.0335  0.3041
  667MOL0     C89951   3.881  12.558   9.906 -0.8622 -0.1523  0.3680
  667MOL0     C89952   3.774  12.664   9.879  1.5454 -0.0362  0.4856
  667MOL0     C89953   3.683  12.647   9.757 -0.0290  0.2721  0.5133
  667MOL0     C89954   3.717  12.722   9.631 -0.6046 -1.0697 -0.0789
  667MOL0    Cl89955   3.576  12.710   9.515  0.0583 -0.0461  0.1761
  667MOL0     C89956   3.994  11.713   9.968 -0.0922  0.0311  0.7705
  667MOL0     C89957   4.089  11.612   9.945 -0.9314 -0.4290  0.5915
  667MOL0     O89958   4.509  11.659   9.968  0.5187 -0.2271  0.5497
  667MOL0     C89959   4.670  11.447   9.900  0.3318 -0.3619 -1.3717
  667MOL0     C89960   4.759  11.352   9.893 -0.0222 -0.5755  0.4191
  667MOL0     N89961   5.540  11.053   9.804 -0.3484  0.5464  0.5758
  667MOL0     N89962   5.664  11.063   9.849 -0.7137  0.0632  0.1892
  667MOL0     C89963   6.714  11.083  10.408  0.0820  0.3574  0.3133
  667MOL0     C89964   6.853  11.049  10.414  0.5790 -0.0065 -0.0009
  667MOL0     C89965   7.270  10.881  10.373  0.0457 -1.3859 -0.2196
  667MOL0     C89966   7.282  10.743  10.364  0.1731  0.7437 -0.4557
  667MOL0     C89967   7.410  10.683  10.347  0.1598  0.5455  0.3221
  667MOL0     C89968   7.531  10.760  10.356  0.7956 -0.1315  0.0149
  667MOL0     O89969   7.653  10.708  10.355 -0.2229 -0.4439 -0.4401
  667MOL0     C89970   7.673  10.570  10.393 -0.0348 -0.3386 -0.1177
  667MOL0     C89971   7.643  10.544  10.536 -0.4389 -0.3473 -1.2063
  667MOL0     C89972   7.701  10.640  10.637 -0.0250  0.0995  0.1809
  667MOL0     C89973   7.722  10.588  10.778 -0.9426  0.3580  0.0593
  667MOL0     C89974   7.590  10.528  10.824  0.4456  0.0369  1.1882
  667MOL0     C89975   7.484  10.475  10.846 -0.2860  0.5394 -0.1874
  667MOL0     C89976   7.514  10.902  10.356 -0.2165  0.6712  1.2345
  667MOL0     C89977   7.392  10.960  10.370  0.0927  0.0320  0.7711
  667MOL0     H89978   6.856  10.800  10.186  0.0912 -2.5121  3.4067
  667MOL0     H89979   6.606  10.876  10.168  1.7483  0.8148 -2.2921
  667MOL0     H89980   6.404  11.010  10.137 -4.6290  1.4530 -1.4596
  667MOL0     H89981   6.395  10.881  10.261 -1.8039 -0.1807 -0.5433
  667MOL0     H89982   6.191  10.991  10.192  0.0228 -0.7731  0.4592
  667MOL0     H89983   6.211  10.994  10.369  1.5374  0.7905  1.4956
  667MOL0     H89984   6.334  11.241  10.307  1.1513 -2.1654  0.2810
  667MOL0     H89985   6.210  11.226  10.189  0.7145 -0.3431 -1.7085
  667MOL0     H89986   6.158  11.167  10.478 -0.2199 -3.1874 -1.3332
  667MOL0     H89987   6.140  11.324  10.402 -1.4707  0.6831 -3.5594
  667MOL0     H89988   5.981  11.071  10.377  2.7449  0.5890 -0.0574
  667MOL0     H89989   5.927  11.216  10.457 -1.0651  0.3916 -0.4032
  667MOL0     H89990   5.918  11.321  10.224  1.5673  0.4110  1.4507
  667MOL0     H89991   5.989  11.169  10.153  0.4824  3.1099 -0.5022
  667MOL0     H89992   5.784  11.049  10.203  0.7917  0.2947  3.3590
  667MOL0     H89993   5.699  11.196  10.228 -0.3420 -0.7523  0.5194
  667MOL0     H89994   5.867  11.150   9.979 -1.6030 -0.1019  0.0546
  667MOL0     H89995   5.781  11.298  10.029 -0.7627  0.4043  2.2060
  667MOL0     H89996   5.491  11.230  10.067  0.5334  1.6761  0.1622
  667MOL0     H89997   5.297  11.202   9.791 -0.5683 -1.2679 -0.3930
  667MOL0     H89998   5.292  11.020   9.805 -0.7113 -0.1999  0.3539
  667MOL0     H89999   5.249  11.224  10.022  0.0004  0.5572 -0.7966
  667MOL0     H90000   5.228  11.038  10.039  1.8555 -0.0073 -0.6518
  667MOL0     H90001   5.056  11.052   9.844  0.7693  1.7853 -1.9193
  667MOL0     H90002   5.057  11.223   9.856 -1.1892  0.9162  1.5646
  667MOL0     H90003   4.971  11.239  10.079  0.3761  0.6779 -0.8945
  667MOL0     H90004   4.980  11.070  10.094 -2.6474  1.0169  2.3843
  667MOL0     H90005   4.627  11.120  10.087  3.6028  1.2063  1.4765
  667MOL0     H90006   4.461  11.215  10.229  2.3849  1.7430  0.7944
  667MOL0     H90007   4.408  11.382  10.205 -0.1224  0.8960 -2.2575
  667MOL0     H90008   4.324  11.251  10.121  1.1958 -2.6422 -0.7778
  667MOL0     H90009   4.354  11.787  10.076 -0.6652  1.9802 -1.1111
  667MOL0     H90010   4.213  11.958  10.077 -1.8067  0.5111  0.3430
  667MOL0     H90011   4.005  12.070  10.148 -1.9447 -3.8753  0.2338
  667MOL0     H90012   4.080  12.097   9.988  0.8996 -3.6788  0.2418
  667MOL0     H90013   3.838  12.146   9.905  2.0579  2.5469 -1.9913
  667MOL0     H90014   3.801  12.167  10.074 -0.1933 -0.0972  0.4698
  667MOL0     H90015   4.023  12.334   9.923 -0.1847  0.4980 -0.6935
  667MOL0     H90016   3.983  12.345  10.086 -1.6760 -0.9025  1.1571
  667MOL0     H90017   3.783  12.379   9.849  0.7723 -1.2026 -0.2226
  667MOL0     H90018   3.756  12.430  10.023  1.2814  2.3176  1.6287
  667MOL0     H90019   3.946  12.544   9.819 -0.0110 -1.5433  1.1961
  667MOL0     H90020   3.944  12.587   9.991  0.1817  1.1287 -0.7707
  667MOL0     H90021   3.709  12.650   9.966  1.6450  2.2174  0.9830
  667MOL0     H90022   3.823  12.762   9.877  2.8812 -0.6916  0.4520
  667MOL0     H90023   3.580  12.675   9.785 -0.9783  0.8980 -3.1244
  667MOL0     H90024   3.690  12.540   9.734  1.3950  0.1638  1.3870
  667MOL0     H90025   3.807  12.683   9.582 -1.2272  1.1980 -3.3997
  667MOL0     H90026   3.736  12.829   9.644  2.1800 -1.5619  0.5962
  667MOL0     H90027   3.890  11.698   9.939  0.2008 -2.4320  0.8075
  667MOL0     H90028   4.057  11.520   9.898  0.6205  0.4282 -2.3602
  667MOL0     H90029   4.703  11.542   9.858  0.9217  0.5824  1.0070
  667MOL0     H90030   4.854  11.372   9.843  0.8189 -2.9840  0.9400
  667MOL0     H90031   6.683  11.159  10.478  0.1153 -0.6552  1.4468
  667MOL0     H90032   6.908  11.115  10.480  0.1382 -0.1677  0.5388
  667MOL0     H90033   7.188  10.689  10.366 -0.3025  1.4959 -1.6905
  667MOL0     H90034   7.405  10.578  10.320  0.8084  0.6070 -0.0511
  667MOL0     H90035   7.601  10.507  10.339 -2.5552  2.8974 -0.8653
  667MOL0     H90036   7.776  10.538  10.376  0.6586  2.1636 -1.1138
  667MOL0     H90037   7.687  10.447  10.560 -1.6971 -0.9455 -1.2761
  667MOL0     H90038   7.535  10.546  10.549 -0.2415  0.0112  0.7476
  667MOL0     H90039   7.646  10.735  10.635 -0.2679 -0.0455 -0.8047
  667MOL0     H90040   7.805  10.670  10.620 -0.2230  0.1602 -1.0201
  667MOL0     H90041   7.758  10.674  10.835 -1.9113 -0.7225  2.4444
  667MOL0     H90042   7.798  10.509  10.779 -1.3561 -0.1057  2.8051
  667MOL0     H90043   7.399  10.416  10.876  1.5238 -0.6748  3.1256
  667MOL0     H90044   7.599  10.970  10.355  0.0309  0.3867  2.1913
  667MOL0     H90045   7.399  11.068  10.384 -1.8462  0.3270 -0.2039
  668MOL0     O90046   0.285   5.265   1.367 -0.5881  0.5423  0.4437
  668MOL0     C90047   0.243   5.150   1.383 -0.8452  0.0311 -0.0508
  668MOL0     O90048   0.280   5.041   1.319  0.1373  0.4435  0.0345
  668MOL0     C90049   0.374   5.045   1.217 -0.1210 -0.3665  0.5452
  668MOL0     C90050   0.392   5.147   1.120 -0.1699 -0.2756 -0.1170
  668MOL0     C90051   0.494   5.136   1.026 -0.2432 -0.0592  0.8167
  668MOL0     C90052   0.580   5.019   1.020  0.6087  1.4699  0.1841
  668MOL0     O90053   0.690   5.013   0.944  0.2386 -0.1003 -0.6633
  668MOL0     C90054   0.758   4.896   0.915  0.1143  0.2970  0.0443
  668MOL0     C90055   0.879   4.934   0.832 -0.5959 -0.3780  0.5579
  668MOL0     C90056   0.832   4.973   0.693  0.0089 -0.2776  0.5100
  668MOL0     C90057   0.956   4.983   0.588  0.2354  0.1140 -0.5269
  668MOL0     C90058   0.915   4.955   0.441  0.3178  0.1652 -0.3542
  668MOL0     C90059   0.914   4.806   0.413 -0.2933  0.3843  0.2839
  668MOL0     C90060   0.872   4.791   0.274  0.8126  0.3164  0.0692
  668MOL0     C90061   0.725   4.832   0.242  0.8095  0.2892  0.3933
  668MOL0     N90062   0.657   4.762   0.131 -0.3713  0.4414 -0.1269
  668MOL0     C90063   0.700   4.754   0.005  0.3311 -0.3286 -1.0959
  668MOL0     C90064   0.616   4.670  -0.060  0.5226 -0.3480  1.0327
  668MOL0     C90065   0.627   4.628  -0.206  0.4190  0.1521 -0.0578
  668MOL0     C90066   0.530   4.691  -0.306  0.3842  0.0060  0.2655
  668MOL0     C90067   0.477   4.595  -0.408 -0.1154 -0.6585 -0.2707
  668MOL0     C90068   0.345   4.648  -0.477  0.0867 -0.0849  0.1476
  668MOL0     O90069   0.289   4.559  -0.574 -0.0548 -0.2444  1.1270
  668MOL0     C90070   0.381   4.538  -0.673 -0.5960  0.2536  0.6915
  668MOL0     C90071   0.425   4.642  -0.748 -0.3169  0.2729 -0.0468
  668MOL0     C90072   0.520   4.632  -0.852  0.2184 -0.5470 -0.2935
  668MOL0     C90073   0.557   4.756  -0.938 -0.1632 -0.1150 -0.1406
  668MOL0     C90074   0.585   4.512  -0.863 -0.1157  0.5784 -0.1286
  668MOL0     C90075   0.684   4.484  -0.970  0.2434 -0.8281  0.4380
  668MOL0     O90076   0.777   4.572  -1.016 -0.2808  0.1947 -0.8775
  668MOL0     C90077   0.871   4.526  -1.103 -0.7426 -0.5132 -0.5069
  668MOL0     C90078   0.836   4.532  -1.243  0.6796  0.6160 -0.4211
  668MOL0     C90079   0.936   4.485  -1.333 -0.9633  0.7381  1.4167
  668MOL0     C90080   1.058   4.442  -1.287 -0.3995  0.5752  0.4322
  668MOL0     O90081   1.152   4.410  -1.380 -0.5737 -0.1977  0.0371
  668MOL0     C90082   1.281   4.363  -1.337  0.3428  0.0108 -0.1050
  668MOL0     C90083   1.362   4.329  -1.459  0.5039 -0.1828  0.4303
  668MOL0     C90084   1.462   4.221  -1.419 -0.1908 -0.7661  0.5745
  668MOL0     C90085   1.484   4.128  -1.534 -0.0998 -0.0225  0.2860
  668MOL0     C90086   1.606   4.041  -1.500 -1.0894 -0.4810 -0.0976
  668MOL0     C90087   1.647   3.973  -1.633  0.4584  0.6141  0.0072
  668MOL0     C90088   1.791   3.929  -1.619 -0.3232 -0.7405  0.0777
  668MOL0     C90089   1.830   3.822  -1.725  0.4491  0.5260 -1.1592
  668MOL0    Cl90090   1.747   3.661  -1.683 -0.1925  0.1318 -0.8778
  668MOL0     C90091   1.090   4.431  -1.148  0.5894 -0.8093  0.4549
  668MOL0     C90092   0.995   4.477  -1.055 -0.5179 -0.1660 -0.8554
  668MOL0     O90093   0.659   4.375  -1.026  0.1146  0.4346  0.0885
  668MOL0     C90094   0.541   4.396  -0.784 -0.0474  0.6836 -0.4075
  668MOL0     C90095   0.442   4.416  -0.683  0.4852  0.2187 -0.8051
  668MOL0     N90096   0.528   4.614   0.035 -0.0923 -0.3731 -0.3637
  668MOL0     N90097   0.550   4.677   0.147 -0.2322 -0.3526  0.3180
  668MOL0     C90098   0.546   4.913   1.109  0.1584  0.9137  0.0191
  668MOL0     C90099   0.449   4.927   1.211  0.0024 -0.0144  0.6960
  668MOL0     C90100   0.113   5.141   1.465  0.0716  0.4055  0.2912
  668MOL0     C90101   0.053   5.246   1.515  0.3769 -0.8401  1.0119
  668MOL0     C90102  -0.048   5.232   1.606  0.3450  0.3122 -0.3206
  668MOL0     C90103  -0.099   5.103   1.641  0.0386  0.3107  0.8111
  668MOL0     O90104  -0.205   5.093   1.725  0.2539  0.4161  0.9220
  668MOL0     C90105  -0.312   5.005   1.679 -0.9374 -0.4139  0.4617
  668MOL0     C90106  -0.437   5.028   1.768  0.9851 -0.7907 -0.3841
  668MOL0     C90107  -0.519   5.157   1.740  0.1514  0.0446  0.1670
  668MOL0     C90108  -0.618   5.204   1.854 -0.9864 -0.8273  0.7458
  668MOL0     C90109  -0.559   5.257   1.971 -0.0460  0.3622 -0.1704
  668MOL0     C90110  -0.519   5.305   2.070 -0.8300  1.0646 -0.3654
  668MOL0     C90111  -0.034   4.991   1.590  0.0323 -0.3909  0.2192
  668MOL0     C90112   0.069   5.010   1.499  0.6515 -0.4524 -0.4827
  668MOL0     H90113   0.320   5.229   1.125 -1.3400 -1.2725 -0.2866
  668MOL0     H90114   0.507   5.217   0.955  0.2637  0.8700  1.9467
  668MOL0     H90115   0.782   4.849   1.011  0.3004  0.6834  0.1884
  668MOL0     H90116   0.691   4.828   0.862 -0.9950  0.6568  0.9481
  668MOL0     H90117   0.945   5.013   0.868  0.9124 -1.0904 -0.5319
  668MOL0     H90118   0.950   4.851   0.825  0.6875  0.8103 -1.4066
  668MOL0     H90119   0.775   4.888   0.654 -0.6506  0.6074 -0.5011
  668MOL0     H90120   0.764   5.058   0.692 -1.2182 -1.1942 -1.6471
  668MOL0     H90121   1.004   5.080   0.603  3.5159 -1.2965 -1.1175
  668MOL0     H90122   1.039   4.920   0.621  0.8271  1.1971  0.1243
  668MOL0     H90123   0.818   5.000   0.415  0.8630  1.4609 -0.2435
  668MOL0     H90124   0.989   5.004   0.376  0.5504  0.6005  0.2290
  668MOL0     H90125   1.016   4.767   0.426 -0.8007 -0.2954  2.9377
  668MOL0     H90126   0.835   4.758   0.471 -0.8162  0.7063 -0.1568
  668MOL0     H90127   0.936   4.853   0.210 -1.7490  0.7822 -2.2156
  668MOL0     H90128   0.895   4.687   0.248  0.1015  0.2030 -0.1370
  668MOL0     H90129   0.720   4.941   0.235  1.3411  0.3445  0.8575
  668MOL0     H90130   0.664   4.809   0.330  0.7924 -2.6976 -0.2847
  668MOL0     H90131   0.788   4.800  -0.039 -0.2389  2.1417  0.1482
  668MOL0     H90132   0.730   4.657  -0.231  0.0915  0.6092 -0.9321
  668MOL0     H90133   0.619   4.519  -0.213  0.4005  0.1764 -0.4538
  668MOL0     H90134   0.585   4.772  -0.356  0.4411 -1.2123 -1.7832
  668MOL0     H90135   0.438   4.724  -0.258  1.5722  1.3402  1.7396
  668MOL0     H90136   0.456   4.500  -0.359  1.3577 -1.1605 -0.5593
  668MOL0     H90137   0.561   4.587  -0.478  0.0918  0.0640 -0.1173
  668MOL0     H90138   0.372   4.744  -0.522 -1.5124 -0.1252 -1.0011
  668MOL0     H90139   0.268   4.669  -0.403  1.7938 -1.3246  2.3932
  668MOL0     H90140   0.381   4.740  -0.733 -0.1618  0.4485 -0.7356
  668MOL0     H90141   0.609   4.737  -1.032 -0.6414  0.9674 -0.6375
  668MOL0     H90142   0.469   4.813  -0.971 -0.6938 -0.6111  0.3969
  668MOL0     H90143   0.626   4.823  -0.885 -2.1372  3.1257 -1.3675
  668MOL0     H90144   0.736   4.561  -1.273  0.3159  0.5816  0.6973
  668MOL0     H90145   0.919   4.515  -1.436  0.1853  2.2319  1.6191
  668MOL0     H90146   1.333   4.426  -1.264 -2.7605  0.2396  2.0662
  668MOL0     H90147   1.257   4.273  -1.280  0.7558 -1.1142 -1.6280
  668MOL0     H90148   1.302   4.292  -1.542 -1.2112  1.2778  0.9456
  668MOL0     H90149   1.397   4.428  -1.488 -2.3559  0.3334 -1.6910
  668MOL0     H90150   1.416   4.156  -1.344 -0.7867 -0.5401  0.4146
  668MOL0     H90151   1.558   4.264  -1.389  0.1567 -0.6759 -0.6131
  668MOL0     H90152   1.397   4.063  -1.547 -0.1394 -0.4764  2.4816
  668MOL0     H90153   1.507   4.186  -1.624  3.4410 -0.4734  0.7346
  668MOL0     H90154   1.578   3.959  -1.434  0.3572 -2.4693 -1.8319
  668MOL0     H90155   1.688   4.102  -1.460 -1.3751  1.4666 -2.2150
  668MOL0     H90156   1.580   3.886  -1.633  0.8618  0.2998  0.3479
  668MOL0     H90157   1.631   4.026  -1.727 -0.2317  2.5791  1.1715
  668MOL0     H90158   1.799   3.882  -1.521 -1.6239 -2.8904 -0.7850
  668MOL0     H90159   1.853   4.018  -1.636  1.7577 -1.3774  3.3818
  668MOL0     H90160   1.936   3.803  -1.704  0.3840  1.6876  0.3128
  668MOL0     H90161   1.814   3.864  -1.825 -2.1324 -0.4537 -1.2336
  668MOL0     H90162   1.190   4.405  -1.115  1.3060  0.0176 -1.0034
  668MOL0     H90163   1.026   4.486  -0.951  0.7138  0.2113 -1.2456
  668MOL0     H90164   0.598   4.304  -0.788  3.6453  2.8036 -0.5366
  668MOL0     H90165   0.413   4.341  -0.610 -0.3762  1.3651  0.0507
  668MOL0     H90166   0.604   4.821   1.116  1.5866  1.8878  1.7051
  668MOL0     H90167   0.428   4.852   1.286 -2.3865 -0.9534 -0.7981
  668MOL0     H90168   0.091   5.345   1.492  0.1945 -0.7990  0.8869
  668MOL0     H90169  -0.104   5.316   1.646  1.5480 -0.0361  2.3493
  668MOL0     H90170  -0.330   5.016   1.572  1.1089  1.4034  0.2195
  668MOL0     H90171  -0.283   4.902   1.701 -0.0724 -0.0765  0.9665
  668MOL0     H90172  -0.404   5.021   1.872 -0.1288 -2.9506 -0.1295
  668MOL0     H90173  -0.513   4.953   1.744  1.2620 -0.6918 -1.6221
  668MOL0     H90174  -0.572   5.138   1.647 -0.5777 -0.9524  0.7717
  668MOL0     H90175  -0.453   5.242   1.719 -0.9004  1.0035  0.6457
  668MOL0     H90176  -0.688   5.125   1.883 -1.1296 -0.4886  1.3417
  668MOL0     H90177  -0.675   5.283   1.804 -2.2162 -2.7034 -0.9545
  668MOL0     H90178  -0.466   5.338   2.157  0.1773  1.3058 -1.0601
  668MOL0     H90179  -0.065   4.888   1.600 -6.2508  0.6658 -3.1770
  668MOL0     H90180   0.135   4.928   1.473  1.7314 -0.2652  1.4372
  669MOL0     O90181   9.570   3.633   8.741 -0.1589 -0.3367 -0.0595
  669MOL0     C90182   9.508   3.553   8.675 -0.2202  0.6604 -0.0442
  669MOL0     O90183   9.563   3.440   8.620  0.9465 -0.8532  0.1346
  669MOL0     C90184   9.697   3.412   8.643  0.0081 -0.9960  0.4400
  669MOL0     C90185   9.794   3.511   8.618 -0.1206 -0.1187  0.0060
  669MOL0     C90186   9.934   3.467   8.636  1.3582 -0.5710 -0.2562
  669MOL0     C90187   9.958   3.335   8.667 -0.0414  0.5249 -0.6451
  669MOL0     O90188  10.095   3.292   8.679  0.1248 -0.6009 -0.7806
  669MOL0     C90189  10.194   3.352   8.581  0.5686 -0.5014 -0.1511
  669MOL0     C90190  10.150   3.341   8.425  0.7865 -0.9122  0.1214
  669MOL0     C90191  10.132   3.198   8.382  0.6475  0.2638  0.6309
  669MOL0     C90192  10.040   3.184   8.268  0.8810 -0.4840  0.2381
  669MOL0     C90193   9.887   3.187   8.313 -0.3877  1.0460 -0.2886
  669MOL0     C90194   9.797   3.199   8.198 -0.8392 -0.3155 -0.3047
  669MOL0     C90195   9.656   3.161   8.233  0.1393  0.1782  0.1361
  669MOL0     C90196   9.574   3.247   8.330 -0.7646  0.0803 -0.0898
  669MOL0     N90197   9.437   3.191   8.354 -0.3626 -0.2346  0.3892
  669MOL0     C90198   9.402   3.084   8.439 -0.1525 -1.0054  0.2189
  669MOL0     C90199   9.266   3.079   8.444 -0.2047  0.3117  0.4374
  669MOL0     C90200   9.175   2.993   8.539 -1.1920  0.3948  0.2315
  669MOL0     C90201   9.022   2.999   8.519  0.0036 -0.4205 -1.0417
  669MOL0     C90202   8.941   2.879   8.573 -0.3437 -0.0355 -0.2281
  669MOL0     C90203   8.794   2.902   8.566  0.2193  0.5011  0.7920
  669MOL0     O90204   8.748   2.861   8.432  0.4457 -0.2583  0.2346
  669MOL0     C90205   8.615   2.860   8.407  0.5433 -0.4260 -0.1901
  669MOL0     C90206   8.570   2.854   8.272 -0.0970  0.1106 -0.6249
  669MOL0     C90207   8.435   2.836   8.240  0.3255 -0.1643 -0.3823
  669MOL0     C90208   8.389   2.817   8.102  0.4317  0.0550  0.9338
  669MOL0     C90209   8.339   2.831   8.351  0.0768 -0.1094  0.2873
  669MOL0     C90210   8.194   2.832   8.329  0.0186  0.1370  0.6763
  669MOL0     O90211   8.118   2.906   8.414 -0.0607  0.1647  0.5477
  669MOL0     C90212   7.983   2.904   8.410 -0.2349 -0.7476 -0.2352
  669MOL0     C90213   7.912   2.948   8.292 -0.3940 -0.5468  0.5540
  669MOL0     C90214   7.774   2.953   8.297 -0.0119 -0.4219  0.5467
  669MOL0     C90215   7.703   2.931   8.411 -0.3666 -0.4763 -0.8673
  669MOL0     O90216   7.571   2.963   8.413 -0.0515  0.0663 -0.6633
  669MOL0     C90217   7.474   2.920   8.515 -0.4033  0.9440  0.7897
  669MOL0     C90218   7.330   2.931   8.470 -0.1782 -0.0113  0.2929
  669MOL0     C90219   7.272   3.068   8.485  0.4964 -0.1921  0.4629
  669MOL0     C90220   7.136   3.081   8.406  0.3566 -0.7967  0.5327
  669MOL0     C90221   7.056   3.215   8.402  0.3621 -0.3908  0.5562
  669MOL0     C90222   6.917   3.190   8.333  0.8586 -0.6908  0.0453
  669MOL0     C90223   6.916   3.206   8.186 -0.5468 -0.2905  0.5715
  669MOL0     C90224   6.764   3.181   8.137 -0.6330 -0.1357 -0.5733
  669MOL0    Cl90225   6.731   3.000   8.119 -0.0513  0.1525  0.1472
  669MOL0     C90226   7.769   2.882   8.531  0.1694  0.2500  0.4044
  669MOL0     C90227   7.911   2.870   8.524 -0.0550  0.7230  0.6856
  669MOL0     O90228   8.147   2.760   8.235  0.7360 -0.7371 -0.2386
  669MOL0     C90229   8.377   2.835   8.482 -0.1106  0.2498  0.3378
  669MOL0     C90230   8.518   2.849   8.512 -0.1319 -0.3246 -0.0381
  669MOL0     N90231   9.223   3.188   8.359 -0.1809 -0.0304 -0.5390
  669MOL0     N90232   9.322   3.252   8.313  0.6754 -0.5645 -0.0844
  669MOL0     C90233   9.858   3.243   8.694  0.3442  0.4378  0.3975
  669MOL0     C90234   9.731   3.278   8.674  1.2260  0.0004 -0.8724
  669MOL0     C90235   9.361   3.537   8.695  1.0559 -0.3088  0.4284
  669MOL0     C90236   9.284   3.424   8.664 -0.8763 -0.0600  1.1152
  669MOL0     C90237   9.145   3.427   8.658 -0.8164 -0.5686 -1.5061
  669MOL0     C90238   9.072   3.540   8.681 -0.0701  0.9380  0.0677
  669MOL0     O90239   8.933   3.556   8.657 -0.0592 -0.0157 -0.4365
  669MOL0     C90240   8.847   3.465   8.731 -0.1089 -0.5735  0.1197
  669MOL0     C90241   8.868   3.467   8.879 -0.9674  0.6263  0.3866
  669MOL0     C90242   8.842   3.609   8.922  0.2495  0.2775  0.3603
  669MOL0     C90243   8.807   3.626   9.067  0.4349 -0.4165 -0.6210
  669MOL0     C90244   8.670   3.582   9.111 -0.0845 -0.5968 -0.3808
  669MOL0     C90245   8.545   3.558   9.124 -0.6574  0.3152  0.3078
  669MOL0     C90246   9.147   3.653   8.724 -0.2492  0.1042 -0.2004
  669MOL0     C90247   9.287   3.646   8.731 -0.3129 -0.1709 -0.8166
  669MOL0     H90248   9.767   3.609   8.582 -2.4625 -1.9791 -4.0610
  669MOL0     H90249  10.007   3.542   8.608 -1.4085  1.0589 -3.8323
  669MOL0     H90250  10.224   3.451   8.615 -0.2108  0.3731 -1.9107
  669MOL0     H90251  10.280   3.285   8.589  1.2681  0.3512 -0.3794
  669MOL0     H90252  10.060   3.401   8.410  2.7877  1.6169 -3.0820
  669MOL0     H90253  10.229   3.387   8.366 -0.4952  3.1718  1.3111
  669MOL0     H90254  10.224   3.151   8.344  0.0252 -1.5221  1.2275
  669MOL0     H90255  10.097   3.135   8.464 -1.4866  2.7816  1.7938
  669MOL0     H90256  10.050   3.257   8.187 -0.8362 -1.4112 -0.8737
  669MOL0     H90257  10.059   3.083   8.230  0.3429 -0.9356  1.1298
  669MOL0     H90258   9.871   3.089   8.359  0.9083  1.5197  1.2855
  669MOL0     H90259   9.861   3.265   8.385 -2.4220  0.6854 -0.5765
  669MOL0     H90260   9.804   3.301   8.160  2.2252 -0.4817 -0.4048
  669MOL0     H90261   9.832   3.137   8.115  1.7394  1.0172 -0.3153
  669MOL0     H90262   9.608   3.163   8.135  0.1070  3.5149  0.1068
  669MOL0     H90263   9.647   3.059   8.270 -1.1102  0.2179 -0.0168
  669MOL0     H90264   9.566   3.352   8.301  0.9146  0.6015  1.1734
  669MOL0     H90265   9.617   3.251   8.431 -1.5735 -0.2762  0.2716
  669MOL0     H90266   9.477   3.022   8.486  0.6812 -0.0687  0.1694
  669MOL0     H90267   9.219   2.895   8.518  1.7283  1.4475  0.9456
  669MOL0     H90268   9.212   3.017   8.640  0.7400 -2.8078  0.4470
  669MOL0     H90269   9.000   3.011   8.412  0.6337  0.0391 -1.1254
  669MOL0     H90270   8.984   3.092   8.561 -1.0212 -0.4712 -1.8218
  669MOL0     H90271   8.977   2.851   8.673 -1.9766 -0.7652  0.1845
  669MOL0     H90272   8.974   2.789   8.522 -4.8008 -2.9101  1.3542
  669MOL0     H90273   8.773   3.008   8.580  3.4619  1.3635  0.0241
  669MOL0     H90274   8.748   2.845   8.647 -1.8588 -2.6144 -2.2854
  669MOL0     H90275   8.641   2.850   8.190 -1.2253 -1.6095 -1.5629
  669MOL0     H90276   8.471   2.846   8.035 -0.2879  2.6577  1.0813
  669MOL0     H90277   8.361   2.712   8.089 -1.7675 -0.3285  6.1956
  669MOL0     H90278   8.306   2.879   8.067  3.0028  1.3829 -3.6900
  669MOL0     H90279   7.957   2.960   8.194  1.5228 -0.0747  1.4620
  669MOL0     H90280   7.718   2.990   8.212 -1.2559  0.1783  1.6154
  669MOL0     H90281   7.488   2.813   8.529 -1.7714  0.2528 -2.3312
  669MOL0     H90282   7.495   2.969   8.611 -3.5267 -1.7654  3.0700
  669MOL0     H90283   7.328   2.889   8.369  1.7927 -0.3990  0.3755
  669MOL0     H90284   7.281   2.854   8.531 -0.7228 -1.2234 -1.5656
  669MOL0     H90285   7.339   3.148   8.452 -1.4599  1.0467 -0.6832
  669MOL0     H90286   7.251   3.085   8.591 -0.4138  0.6398  0.1619
  669MOL0     H90287   7.141   3.050   8.301  0.8671 -0.0626  0.3311
  669MOL0     H90288   7.077   3.008   8.462  0.6733 -0.6333  1.0976
  669MOL0     H90289   7.103   3.296   8.346  0.6863 -0.9965 -0.0554
  669MOL0     H90290   7.037   3.247   8.505  0.4791 -0.6717  0.6657
  669MOL0     H90291   6.881   3.090   8.358 -2.0889 -0.6557 -3.2099
  669MOL0     H90292   6.844   3.264   8.368 -0.1162 -0.9130 -1.4135
  669MOL0     H90293   6.972   3.123   8.140 -0.0499  1.1986 -1.7079
  669MOL0     H90294   6.951   3.305   8.157 -3.3958  0.4170 -0.8317
  669MOL0     H90295   6.748   3.234   8.043  0.8806  1.0048 -0.2270
  669MOL0     H90296   6.694   3.237   8.199 -0.7754 -0.1964 -0.6794
  669MOL0     H90297   7.719   2.850   8.622  1.4653 -0.8190  0.7844
  669MOL0     H90298   7.964   2.827   8.608 -2.7550  0.1995  2.2698
  669MOL0     H90299   8.305   2.828   8.563 -0.2759 -1.9674  0.0497
  669MOL0     H90300   8.556   2.834   8.612 -0.2377  0.1508  0.0800
  669MOL0     H90301   9.893   3.141   8.707 -0.0294  0.2720  0.1137
  669MOL0     H90302   9.653   3.202   8.672  3.8450 -2.8689 -2.0822
  669MOL0     H90303   9.330   3.331   8.633  0.1081  1.0043 -0.7575
  669MOL0     H90304   9.089   3.340   8.625  0.3290 -2.6412  1.5425
  669MOL0     H90305   8.741   3.487   8.712  0.3567  0.4161 -1.6124
  669MOL0     H90306   8.871   3.362   8.704 -1.5044 -1.4500  1.9883
  669MOL0     H90307   8.973   3.448   8.903 -1.5109 -3.0672  0.4109
  669MOL0     H90308   8.802   3.398   8.931 -0.9254  1.1475  1.1467
  669MOL0     H90309   8.758   3.649   8.864  1.8168  2.9805 -0.2402
  669MOL0     H90310   8.925   3.676   8.901 -0.0027  2.4205  5.1261
  669MOL0     H90311   8.812   3.733   9.088  0.2086 -0.4319 -0.4797
  669MOL0     H90312   8.878   3.570   9.130 -0.2914 -0.3131  0.3201
  669MOL0     H90313   8.446   3.517   9.130  0.0889 -1.6142 -0.0220
  669MOL0     H90314   9.086   3.740   8.747 -0.2048 -0.7105  3.5770
  669MOL0     H90315   9.323   3.746   8.749 -2.8410  1.0808 -2.1078
  670MOL0     O90316  11.352   3.682   9.947  0.0801  1.0878  0.2040
  670MOL0     C90317  11.402   3.658  10.059 -0.3635 -0.3283  0.1011
  670MOL0     O90318  11.370   3.705  10.183  0.3753  0.2829  0.8002
  670MOL0     C90319  11.262   3.785  10.181 -0.1957  0.3938 -0.6122
  670MOL0     C90320  11.133   3.739  10.175 -0.3870 -0.2305 -0.7312
  670MOL0     C90321  11.030   3.819  10.218 -0.6787 -0.1593 -0.0069
  670MOL0     C90322  11.053   3.947  10.275 -0.6114  0.2463 -0.9086
  670MOL0     O90323  10.956   4.006  10.347 -0.5598 -0.5280  0.0042
  670MOL0     C90324  11.010   4.098  10.449 -0.7238  0.1684  0.2565
  670MOL0     C90325  10.915   4.110  10.560  0.0883 -0.1625  0.3581
  670MOL0     C90326  10.772   4.137  10.513 -0.0304  0.8255  1.0830
  670MOL0     C90327  10.691   4.220  10.608 -0.1751  0.7958  0.3953
  670MOL0     C90328  10.535   4.211  10.592 -0.5457  0.8047 -0.7642
  670MOL0     C90329  10.477   4.276  10.718 -0.0237 -0.2075  0.5973
  670MOL0     C90330  10.328   4.233  10.737 -0.0996  0.0855 -0.2676
  670MOL0     C90331  10.273   4.306  10.859 -0.6979  0.2329 -0.2765
  670MOL0     N90332  10.149   4.237  10.891 -0.0113 -0.2127  1.0147
  670MOL0     C90333  10.112   4.183  11.011 -0.2296 -0.1719 -0.6420
  670MOL0     C90334  10.003   4.112  10.987 -0.7182  0.0424 -0.8956
  670MOL0     C90335   9.923   4.047  11.091 -0.2018  0.2251 -0.7279
  670MOL0     C90336   9.779   4.113  11.101  0.1005  0.0029 -0.0322
  670MOL0     C90337   9.684   4.032  11.012 -0.3035 -0.2856 -0.4432
  670MOL0     C90338   9.538   4.076  11.017  0.1679  0.2084 -0.7018
  670MOL0     O90339   9.481   4.030  10.895 -0.5532  0.3773 -0.2304
  670MOL0     C90340   9.341   4.048  10.879  0.4002 -0.4704  1.3660
  670MOL0     C90341   9.279   3.983  10.772  0.2148  0.0598 -0.6221
  670MOL0     C90342   9.146   4.002  10.750  0.4338 -0.5882  0.1480
  670MOL0     C90343   9.094   3.933  10.635  0.2514  1.3047 -0.6476
  670MOL0     C90344   9.072   4.091  10.832  1.1511  1.0415 -0.4755
  670MOL0     C90345   8.912   4.101  10.824  1.0735 -0.4315  0.1446
  670MOL0     O90346   8.861   4.187  10.916 -0.5069 -0.2745 -0.3355
  670MOL0     C90347   8.726   4.217  10.928 -0.4707 -0.3557  1.0182
  670MOL0     C90348   8.690   4.354  10.932  0.0377 -0.3788 -0.0417
  670MOL0     C90349   8.554   4.390  10.943 -0.0109  0.2465 -0.5154
  670MOL0     C90350   8.453   4.292  10.928  0.9235 -0.2914  0.0459
  670MOL0     O90351   8.312   4.300  10.919 -0.5205 -0.5140 -0.0129
  670MOL0     C90352   8.257   4.430  10.901  0.2880  0.0567  0.1038
  670MOL0     C90353   8.104   4.413  10.888  0.0435  0.8733  0.9534
  670MOL0     C90354   8.060   4.344  10.757  0.3401  0.3110 -0.2480
  670MOL0     C90355   7.907   4.350  10.745  1.2110  0.0116 -0.9017
  670MOL0     C90356   7.858   4.352  10.601  0.5900  1.3043 -0.1591
  670MOL0     C90357   7.839   4.206  10.541 -0.1191  0.5535  0.5534
  670MOL0     C90358   7.806   4.217  10.392  0.5349  0.1006  0.5119
  670MOL0     C90359   7.797   4.082  10.322  0.6035  0.2263 -0.3603
  670MOL0    Cl90360   7.762   4.108  10.150  0.0373  0.4367 -0.1313
  670MOL0     C90361   8.491   4.156  10.924  0.9904  0.0677  0.6238
  670MOL0     C90362   8.623   4.121  10.925 -0.2378 -0.1500  0.4024
  670MOL0     O90363   8.848   4.038  10.735 -0.2675 -0.4259  0.1332
  670MOL0     C90364   9.137   4.153  10.933  0.7772  0.1156  0.3424
  670MOL0     C90365   9.270   4.138  10.956  0.4347  0.2072  0.5083
  670MOL0     N90366   9.971   4.126  10.856 -0.3255 -0.1275 -0.8905
  670MOL0     N90367  10.052   4.207  10.802 -0.3777  0.3949 -0.1878
  670MOL0     C90368  11.174   4.010  10.245 -0.5093  0.2433  0.1175
  670MOL0     C90369  11.284   3.925  10.207  0.5959  0.0458  0.7771
  670MOL0     C90370  11.521   3.570  10.063  0.2104 -0.3311  0.4103
  670MOL0     C90371  11.572   3.506   9.942  0.4448 -0.6388 -0.0684
  670MOL0     C90372  11.688   3.425   9.954  0.6051  0.3924 -0.0068
  670MOL0     C90373  11.755   3.415  10.076 -1.1896  0.0409  1.2778
  670MOL0     O90374  11.882   3.367  10.065 -0.1841 -0.3752 -0.7002
  670MOL0     C90375  11.915   3.256  10.152 -0.1326 -0.2228 -1.1142
  670MOL0     C90376  11.838   3.127  10.117 -0.1403  0.1104 -0.1329
  670MOL0     C90377  11.837   3.093   9.969  0.6135  0.0829 -1.1202
  670MOL0     C90378  11.777   2.953   9.941 -0.4559 -0.1640 -0.3381
  670MOL0     C90379  11.789   2.930   9.800  0.4929  0.9471 -0.1653
  670MOL0     C90380  11.797   2.898   9.680  0.3162 -0.0388 -0.1637
  670MOL0     C90381  11.708   3.472  10.195  1.0269 -0.3030 -0.2664
  670MOL0     C90382  11.591   3.544  10.183 -0.4942 -1.0502  0.8895
  670MOL0     H90383  11.099   3.637  10.155 -3.1571  0.8584 -2.0232
  670MOL0     H90384  10.926   3.792  10.235 -0.3947 -1.0581  0.3599
  670MOL0     H90385  11.104   4.063  10.492  0.1486 -0.1846 -1.7806
  670MOL0     H90386  11.023   4.197  10.404  0.2706  0.9610  2.1674
  670MOL0     H90387  10.919   4.021  10.624  1.3689 -0.3068  0.0913
  670MOL0     H90388  10.948   4.202  10.608  1.7378  0.0177 -1.0375
  670MOL0     H90389  10.766   4.194  10.420 -0.0287  2.5883  2.1226
  670MOL0     H90390  10.723   4.043  10.486 -1.0751  2.2810 -2.6604
  670MOL0     H90391  10.713   4.185  10.709 -0.7054 -1.9388 -0.3569
  670MOL0     H90392  10.722   4.325  10.615 -4.0412  2.0966  0.1659
  670MOL0     H90393  10.505   4.256  10.496 -2.5900 -0.3145 -0.6982
  670MOL0     H90394  10.502   4.107  10.599 -0.9173  1.0202  1.0029
  670MOL0     H90395  10.532   4.246  10.807  0.1510 -1.6229  0.0428
  670MOL0     H90396  10.479   4.384  10.700  1.3002 -0.5033 -1.3818
  670MOL0     H90397  10.277   4.252  10.643  1.5642  0.6768 -1.0949
  670MOL0     H90398  10.317   4.129  10.767  0.1000  0.3442  0.7593
  670MOL0     H90399  10.255   4.409  10.827 -1.0074  0.1580 -0.3403
  670MOL0     H90400  10.341   4.308  10.945  0.1364 -1.5709 -0.8528
  670MOL0     H90401  10.152   4.207  11.109 -0.3162  0.1393 -0.6840
  670MOL0     H90402   9.906   3.940  11.077  0.5431  0.2775 -2.2546
  670MOL0     H90403   9.985   4.049  11.181 -2.5353  1.2492  0.9781
  670MOL0     H90404   9.771   4.220  11.083  0.6339  0.3939  1.8002
  670MOL0     H90405   9.740   4.094  11.202  0.9434  1.3942  0.5944
  670MOL0     H90406   9.686   3.927  11.043  0.7327 -0.8304 -2.1652
  670MOL0     H90407   9.720   4.038  10.909 -0.5093  0.9884 -0.4582
  670MOL0     H90408   9.538   4.184  11.036 -0.5770 -0.4013  4.1953
  670MOL0     H90409   9.494   4.027  11.105  0.4822 -1.2919 -1.3510
  670MOL0     H90410   9.337   3.902  10.729  2.4756  0.0091  2.2349
  670MOL0     H90411   9.076   4.002  10.551 -1.2833 -0.8388 -2.2109
  670MOL0     H90412   9.165   3.858  10.601 -1.6637  0.1073 -2.2008
  670MOL0     H90413   9.006   3.875  10.662  2.2772 -3.5822 -3.3569
  670MOL0     H90414   8.758   4.438  10.935  0.7295 -0.9406  3.0576
  670MOL0     H90415   8.545   4.498  10.951 -1.3070  0.4071 -3.2449
  670MOL0     H90416   8.270   4.495  10.987 -0.0360  0.9883 -0.5319
  670MOL0     H90417   8.320   4.473  10.822 -1.3629 -0.1013 -1.3545
  670MOL0     H90418   8.053   4.360  10.969 -0.3044  0.0157  0.1858
  670MOL0     H90419   8.059   4.512  10.892 -2.4641 -0.2074  2.5050
  670MOL0     H90420   8.084   4.237  10.758 -0.0477  0.1756 -1.9928
  670MOL0     H90421   8.108   4.383  10.668  0.8888 -0.6536 -0.3963
  670MOL0     H90422   7.857   4.266  10.794  0.6129 -0.8066 -2.8279
  670MOL0     H90423   7.867   4.435  10.800  0.3669 -1.2232  0.4506
  670MOL0     H90424   7.924   4.413  10.540  3.0349  1.4669  2.4286
  670MOL0     H90425   7.756   4.390  10.594 -0.1888 -0.8293 -1.6156
  670MOL0     H90426   7.936   4.162  10.566  0.1913  0.6838 -0.4061
  670MOL0     H90427   7.760   4.143  10.584 -0.3536  0.7637  0.4309
  670MOL0     H90428   7.885   4.271  10.340  2.4095 -2.7785  0.1504
  670MOL0     H90429   7.712   4.269  10.373  0.5408 -0.6937 -1.9938
  670MOL0     H90430   7.719   4.019  10.366  0.4233  0.9722  0.4271
  670MOL0     H90431   7.894   4.031  10.331  0.3847  0.0338  1.4388
  670MOL0     H90432   8.416   4.080  10.904  0.0198  1.8741 -3.4809
  670MOL0     H90433   8.655   4.018  10.921 -2.1571 -0.7509 -1.8215
  670MOL0     H90434   9.076   4.217  10.996 -1.6582 -0.8773 -0.9072
  670MOL0     H90435   9.320   4.203  11.028 -0.0132  0.9681  0.1499
  670MOL0     H90436  11.192   4.115  10.267  1.5089 -0.5627  2.8931
  670MOL0     H90437  11.388   3.956  10.198  1.6314 -3.4061 -1.0266
  670MOL0     H90438  11.518   3.529   9.851  0.6105  1.2962  0.2779
  670MOL0     H90439  11.727   3.389   9.860 -3.2735  1.1905 -2.1624
  670MOL0     H90440  12.024   3.253  10.149 -0.0573  0.7918  0.1565
  670MOL0     H90441  11.880   3.270  10.254 -0.9299 -1.9409 -1.1073
  670MOL0     H90442  11.739   3.124  10.165 -1.0143 -1.6946 -1.8879
  670MOL0     H90443  11.904   3.058  10.170 -0.0277 -0.1344 -0.5858
  670MOL0     H90444  11.939   3.090   9.930  0.7037 -0.5441 -0.8469
  670MOL0     H90445  11.777   3.172   9.922  1.1653  2.6746  2.2157
  670MOL0     H90446  11.673   2.957   9.976  0.1622  0.7655  1.5497
  670MOL0     H90447  11.823   2.875  10.002 -2.8913 -1.0741  0.4712
  670MOL0     H90448  11.789   2.861   9.580 -4.9014  2.0395 -0.8750
  670MOL0     H90449  11.773   3.469  10.282 -0.0148  0.5266  0.5703
  670MOL0     H90450  11.546   3.602  10.264 -2.5603 -0.0227 -0.8844
  671MOL0     O90451   9.474   5.610   9.234 -0.4645  0.7751 -0.1420
  671MOL0     C90452   9.365   5.675   9.224  0.5862 -0.0251 -0.6974
  671MOL0     O90453   9.362   5.809   9.224 -0.4771 -0.9677  0.6831
  671MOL0     C90454   9.476   5.891   9.239 -0.4345  0.4109 -0.7740
  671MOL0     C90455   9.553   5.894   9.349 -0.0117  0.6942 -0.4992
  671MOL0     C90456   9.675   5.968   9.344  0.2239  0.0973 -0.2162
  671MOL0     C90457   9.720   6.053   9.240  0.2553 -0.0114  0.3882
  671MOL0     O90458   9.831   6.127   9.259 -0.2578 -0.1954  0.1471
  671MOL0     C90459   9.878   6.192   9.144  0.0084  0.6518 -0.1683
  671MOL0     C90460   9.993   6.282   9.194  0.3130  0.1989 -0.6185
  671MOL0     C90461  10.080   6.335   9.079 -0.2137  0.2682 -0.0737
  671MOL0     C90462  10.169   6.451   9.115 -0.9483 -1.1493 -0.3031
  671MOL0     C90463  10.248   6.524   8.995 -0.3391 -0.1368 -0.2771
  671MOL0     C90464  10.355   6.441   8.920  0.2774 -0.8857  0.0703
  671MOL0     C90465  10.410   6.507   8.794 -0.0868 -0.5115 -0.6630
  671MOL0     C90466  10.468   6.651   8.829 -0.7222 -0.5975 -0.8891
  671MOL0     N90467  10.539   6.699   8.707 -0.4925  0.6376  0.4146
  671MOL0     C90468  10.504   6.807   8.635  0.3674  0.1230  0.0324
  671MOL0     C90469  10.602   6.811   8.540  0.1266  0.5651 -0.2495
  671MOL0     C90470  10.604   6.912   8.427  0.1916 -0.9453 -0.0211
  671MOL0     C90471  10.682   7.043   8.458 -0.8816 -0.1901 -0.4904
  671MOL0     C90472  10.594   7.152   8.527  0.1914 -1.0040  0.6088
  671MOL0     C90473  10.664   7.275   8.588 -0.0161  0.3209  0.9063
  671MOL0     O90474  10.729   7.347   8.487 -0.0343  0.4196 -0.5979
  671MOL0     C90475  10.860   7.383   8.505 -0.6779  0.4951 -0.4994
  671MOL0     C90476  10.924   7.435   8.622 -0.0894  0.0596  0.0270
  671MOL0     C90477  11.057   7.480   8.616  0.5635 -0.4430 -0.0327
  671MOL0     C90478  11.111   7.540   8.744 -0.6499 -0.1175  0.7337
  671MOL0     C90479  11.129   7.495   8.492 -0.2478  0.0428 -0.4385
  671MOL0     C90480  11.258   7.546   8.472 -0.8365  0.3242 -0.1005
  671MOL0     O90481  11.308   7.627   8.571 -0.7286 -0.1658  0.4652
  671MOL0     C90482  11.439   7.671   8.551  0.3083  0.3826 -0.1223
  671MOL0     C90483  11.551   7.587   8.540  0.3222  0.3722  0.8520
  671MOL0     C90484  11.680   7.640   8.512  0.3768 -0.1125 -0.5038
  671MOL0     C90485  11.707   7.772   8.501 -0.6531  0.0323  0.5970
  671MOL0     O90486  11.841   7.800   8.495  0.5725  0.5473 -0.5872
  671MOL0     C90487  11.874   7.930   8.451  0.1511 -0.2898 -0.3706
  671MOL0     C90488  12.024   7.938   8.449  0.3980  0.0967 -0.6861
  671MOL0     C90489  12.088   7.843   8.349  0.0631  0.3459  0.4893
  671MOL0     C90490  12.243   7.843   8.360 -0.0721 -0.1157  0.5394
  671MOL0     C90491  12.315   7.753   8.257  0.6654 -0.9066 -0.3853
  671MOL0     C90492  12.295   7.609   8.301  0.4912 -0.2022 -0.0143
  671MOL0     C90493  12.335   7.579   8.448  0.0433  0.1064 -0.5966
  671MOL0     C90494  12.332   7.431   8.480 -0.0995  0.0047  0.2822
  671MOL0    Cl90495  12.486   7.363   8.401  0.2515  0.1180  0.1760
  671MOL0     C90496  11.595   7.858   8.522 -0.3506 -0.1085  0.4990
  671MOL0     C90497  11.463   7.814   8.538  0.4568  0.4292  0.1315
  671MOL0     O90498  11.318   7.529   8.365 -0.1414 -0.4776  0.0546
  671MOL0     C90499  11.060   7.439   8.379  0.4766  0.1811 -1.2515
  671MOL0     C90500  10.936   7.382   8.393  0.4543  0.8137  0.8395
  671MOL0     N90501  10.700   6.718   8.567  0.0961 -0.2201 -0.2176
  671MOL0     N90502  10.657   6.653   8.661 -0.4556 -0.3981 -0.0401
  671MOL0     C90503   9.635   6.043   9.124  0.0126 -0.5316  0.4384
  671MOL0     C90504   9.514   5.974   9.127  0.9980  0.5712 -0.0744
  671MOL0     C90505   9.239   5.600   9.223  0.3296  0.2305 -0.4155
  671MOL0     C90506   9.240   5.460   9.200  0.4167 -0.2386 -1.0826
  671MOL0     C90507   9.113   5.397   9.194 -0.3338  0.3122 -0.1017
  671MOL0     C90508   8.999   5.456   9.244  0.4375 -0.0050 -0.1883
  671MOL0     O90509   8.874   5.394   9.264  0.1031 -0.2375  0.0267
  671MOL0     C90510   8.839   5.272   9.195  1.4042 -0.3798 -0.6857
  671MOL0     C90511   8.691   5.243   9.184  0.2223  0.0988 -0.1930
  671MOL0     C90512   8.613   5.358   9.108 -0.1886  0.1395 -0.2406
  671MOL0     C90513   8.462   5.350   9.073 -0.7869 -0.1288 -0.4909
  671MOL0     C90514   8.431   5.229   9.001  0.1900 -0.1886  0.5023
  671MOL0     C90515   8.405   5.130   8.943  0.4570 -0.3705 -0.1425
  671MOL0     C90516   9.007   5.588   9.283 -0.1349  0.7169  0.9915
  671MOL0     C90517   9.120   5.665   9.262  0.0901  0.0706  0.3462
  671MOL0     H90518   9.523   5.854   9.446  1.9697  0.9174  0.2401
  671MOL0     H90519   9.730   5.960   9.437  0.7817 -2.3577 -0.6741
  671MOL0     H90520   9.909   6.124   9.065 -0.5353 -0.3080  0.4213
  671MOL0     H90521   9.805   6.262   9.102  0.5225  1.2088 -0.1457
  671MOL0     H90522   9.952   6.360   9.259  0.4123  0.5335 -0.9499
  671MOL0     H90523  10.054   6.221   9.261 -2.4367 -0.1276  1.7760
  671MOL0     H90524  10.133   6.251   9.033 -0.1504  0.0705  0.3598
  671MOL0     H90525  10.007   6.377   9.009  1.0273  3.0654  0.1591
  671MOL0     H90526  10.107   6.530   9.158 -0.7627 -0.3520 -1.4373
  671MOL0     H90527  10.242   6.431   9.193  0.5510 -0.0657 -1.3681
  671MOL0     H90528  10.178   6.545   8.914  2.5109  0.6979 -2.6996
  671MOL0     H90529  10.290   6.621   9.022 -2.6741  1.2501 -1.3459
  671MOL0     H90530  10.441   6.423   8.986  1.6071  0.6575 -1.1709
  671MOL0     H90531  10.309   6.345   8.896  0.2652 -1.7939  3.2177
  671MOL0     H90532  10.485   6.449   8.740  0.3851 -0.5547  0.0265
  671MOL0     H90533  10.330   6.521   8.721 -0.6240  2.5132  0.3574
  671MOL0     H90534  10.534   6.629   8.914  3.2537  0.8945 -3.2895
  671MOL0     H90535  10.407   6.736   8.858  2.4970  1.4823  0.3501
  671MOL0     H90536  10.416   6.869   8.625 -1.3705 -2.3397 -1.1074
  671MOL0     H90537  10.648   6.861   8.341  1.3177 -1.4949  0.8403
  671MOL0     H90538  10.498   6.934   8.411  0.3315 -1.3127 -1.5957
  671MOL0     H90539  10.719   7.080   8.362  1.9706 -0.8608  0.2716
  671MOL0     H90540  10.765   7.014   8.523 -2.0944 -0.8440  0.8071
  671MOL0     H90541  10.541   7.109   8.612  0.8805  0.9125  2.0826
  671MOL0     H90542  10.519   7.188   8.455  0.2573  0.5785  1.2882
  671MOL0     H90543  10.747   7.246   8.654  1.6007 -1.7170 -1.7913
  671MOL0     H90544  10.593   7.340   8.638  1.0259 -0.1629  3.1306
  671MOL0     H90545  10.875   7.446   8.718  2.0076  0.5343  1.0885
  671MOL0     H90546  11.213   7.506   8.765 -0.0036  0.0981 -1.7696
  671MOL0     H90547  11.113   7.649   8.729  1.2635 -0.3310 -0.9771
  671MOL0     H90548  11.050   7.510   8.830  1.1527 -1.1250  1.7214
  671MOL0     H90549  11.548   7.481   8.564 -0.6017  0.7204  2.3969
  671MOL0     H90550  11.768   7.578   8.500 -1.4073 -2.6754 -1.1816
  671MOL0     H90551  11.856   7.946   8.344  2.8202 -0.2582 -0.8930
  671MOL0     H90552  11.835   8.015   8.507 -0.1780 -1.3092  1.0190
  671MOL0     H90553  12.061   8.039   8.428  1.3953 -0.1563 -0.2253
  671MOL0     H90554  12.058   7.905   8.548 -5.6477 -3.4202  0.7210
  671MOL0     H90555  12.047   7.880   8.254 -2.6659 -0.2441  1.3520
  671MOL0     H90556  12.046   7.743   8.365 -1.0268  0.4631 -1.3113
  671MOL0     H90557  12.276   7.945   8.338 -1.9472  0.7175  1.3220
  671MOL0     H90558  12.272   7.820   8.463  0.6590 -2.2919 -0.0909
  671MOL0     H90559  12.418   7.783   8.237 -0.2954  1.8582 -1.6367
  671MOL0     H90560  12.258   7.764   8.164 -1.9586 -0.8173  1.1482
  671MOL0     H90561  12.189   7.585   8.284 -1.1238  4.0265  2.2927
  671MOL0     H90562  12.364   7.552   8.240  1.4320  2.7977 -1.9737
  671MOL0     H90563  12.263   7.625   8.516 -0.0400 -1.1598  0.1879
  671MOL0     H90564  12.437   7.608   8.474 -0.0230 -1.7219  2.1406
  671MOL0     H90565  12.246   7.383   8.432  0.4837 -0.3527 -0.4401
  671MOL0     H90566  12.329   7.412   8.587 -1.1784  1.0467  0.4509
  671MOL0     H90567  11.609   7.966   8.528  1.5788 -0.3493  0.9997
  671MOL0     H90568  11.394   7.897   8.540  0.4092  0.4287  2.9305
  671MOL0     H90569  11.101   7.435   8.279  1.2351 -0.6265 -0.9238
  671MOL0     H90570  10.884   7.339   8.309  0.0884 -0.7966  1.8559
  671MOL0     H90571   9.654   6.105   9.037 -0.9563 -0.7857  0.0410
  671MOL0     H90572   9.454   5.973   9.036  3.7834 -4.9958 -2.3509
  671MOL0     H90573   9.329   5.410   9.164  0.5106  1.2533 -3.1180
  671MOL0     H90574   9.116   5.290   9.180 -3.6257 -0.2145  2.1229
  671MOL0     H90575   8.872   5.275   9.091 -1.2570  2.3591 -1.5900
  671MOL0     H90576   8.891   5.184   9.234 -0.0196 -0.5174  1.0075
  671MOL0     H90577   8.656   5.237   9.288  1.0331  1.2307  0.1649
  671MOL0     H90578   8.678   5.148   9.132 -1.1130  1.0642 -1.7556
  671MOL0     H90579   8.670   5.383   9.017  3.2473  1.2487  2.0353
  671MOL0     H90580   8.631   5.444   9.173  0.1045  0.6651 -0.9986
  671MOL0     H90581   8.430   5.436   9.013 -3.2960  1.0153  2.2516
  671MOL0     H90582   8.404   5.360   9.165 -1.7617  2.8971 -1.3068
  671MOL0     H90583   8.383   5.028   8.918 -2.2246 -0.3710  1.8230
  671MOL0     H90584   8.916   5.639   9.314 -0.8694  0.0586 -0.0148
  671MOL0     H90585   9.114   5.771   9.282 -1.1177  0.5777 -2.2783
  672MOL0     O90586   4.109   6.632   8.290  1.0509  0.0627 -0.5354
  672MOL0     C90587   4.069   6.518   8.265 -0.8622 -0.4356 -0.2747
  672MOL0     O90588   3.938   6.473   8.270 -1.2694 -0.0956  0.5299
  672MOL0     C90589   3.826   6.554   8.295 -0.4771 -0.6259  0.1256
  672MOL0     C90590   3.826   6.653   8.392 -0.7226  0.0789  0.3622
  672MOL0     C90591   3.708   6.727   8.414 -0.5607 -0.3481  0.2583
  672MOL0     C90592   3.593   6.684   8.359 -0.2740 -0.4425 -0.2485
  672MOL0     O90593   3.481   6.732   8.416 -0.7459 -0.3693  0.2729
  672MOL0     C90594   3.464   6.871   8.402  0.1683 -1.0776 -0.3727
  672MOL0     C90595   3.312   6.902   8.416 -0.2329  0.0819  0.2037
  672MOL0     C90596   3.212   6.809   8.339 -0.0838  0.2813  0.9376
  672MOL0     C90597   3.080   6.883   8.330 -0.6600  0.0628  0.5197
  672MOL0     C90598   2.967   6.780   8.301  0.4147  0.3978  1.1935
  672MOL0     C90599   2.817   6.817   8.307 -0.2192  0.1587 -0.2814
  672MOL0     C90600   2.770   6.945   8.223  0.3558 -0.0096  0.2218
  672MOL0     C90601   2.630   6.951   8.182  0.4807 -1.0101  0.0357
  672MOL0     N90602   2.535   6.938   8.299  0.9955  0.3550 -0.0889
  672MOL0     C90603   2.450   6.834   8.305  0.1428  0.3621 -0.0116
  672MOL0     C90604   2.386   6.819   8.427 -0.8913 -0.3573  0.2508
  672MOL0     C90605   2.330   6.688   8.485  0.0231  0.1939 -0.1668
  672MOL0     C90606   2.219   6.712   8.584  0.3151 -0.4724  0.0769
  672MOL0     C90607   2.111   6.808   8.522 -0.3613  0.7213  0.5443
  672MOL0     C90608   1.991   6.821   8.623  0.3012 -0.4827 -0.8027
  672MOL0     O90609   2.036   6.851   8.760  0.3089  0.4173  0.0126
  672MOL0     C90610   1.985   6.784   8.866 -0.3246 -0.1210 -0.4049
  672MOL0     C90611   1.863   6.722   8.860 -0.4624  0.6710 -0.0578
  672MOL0     C90612   1.809   6.644   8.958  0.1638  0.0976 -0.6283
  672MOL0     C90613   1.693   6.549   8.917  0.3478  0.1643  0.3045
  672MOL0     C90614   1.865   6.660   9.083  0.2657  0.3025 -0.3312
  672MOL0     C90615   1.800   6.597   9.205  0.5572  0.5584  0.0060
  672MOL0     O90616   1.889   6.562   9.310  0.4357  0.5585 -0.0328
  672MOL0     C90617   1.851   6.481   9.414  0.2329  0.3379 -0.3444
  672MOL0     C90618   1.912   6.487   9.537 -0.0873 -0.1102 -0.3543
  672MOL0     C90619   1.908   6.385   9.636  1.0475 -0.3551 -0.2577
  672MOL0     C90620   1.825   6.280   9.619  0.6303 -0.4389  0.1884
  672MOL0     O90621   1.814   6.181   9.717  0.0649  0.0816  0.9323
  672MOL0     C90622   1.685   6.122   9.731  0.3345  0.2202  0.3429
  672MOL0     C90623   1.668   6.087   9.873  0.1455 -0.0278 -1.6365
  672MOL0     C90624   1.668   6.203   9.963 -0.7419  0.7622 -0.3654
  672MOL0     C90625   1.542   6.289   9.934 -0.3112 -0.0359  0.0573
  672MOL0     C90626   1.515   6.363  10.067 -0.4626 -0.5640 -0.1444
  672MOL0     C90627   1.412   6.483  10.067 -0.0972 -0.1786  0.0019
  672MOL0     C90628   1.272   6.430  10.068  0.1770  0.5244  0.7881
  672MOL0     C90629   1.157   6.535  10.086 -0.0662  0.0600  0.0243
  672MOL0    Cl90630   1.166   6.682   9.977 -0.0333 -0.2139 -0.8057
  672MOL0     C90631   1.759   6.267   9.496 -0.7006 -1.6269 -0.7597
  672MOL0     C90632   1.773   6.360   9.391 -0.1652 -0.5109  0.0323
  672MOL0     O90633   1.681   6.589   9.205  0.2158  0.8702 -0.0146
  672MOL0     C90634   1.985   6.723   9.099  0.3429 -0.6049 -0.7749
  672MOL0     C90635   2.046   6.784   8.987  0.2562  0.8925  0.7333
  672MOL0     N90636   2.428   6.940   8.490  0.7273  0.4694 -0.3186
  672MOL0     N90637   2.506   7.014   8.412  0.4463  0.3248 -0.1441
  672MOL0     C90638   3.588   6.587   8.263 -0.0617  0.0114 -0.3819
  672MOL0     C90639   3.707   6.521   8.231 -0.2777  0.2405  0.6979
  672MOL0     C90640   4.174   6.420   8.221 -0.7083  0.6710  0.1374
  672MOL0     C90641   4.149   6.284   8.192 -0.2627  0.2189 -0.6102
  672MOL0     C90642   4.256   6.205   8.157 -1.1433  0.2639 -0.5509
  672MOL0     C90643   4.390   6.246   8.152  0.1069 -0.9276 -0.7744
  672MOL0     O90644   4.485   6.148   8.131 -0.6065  0.1000 -0.2833
  672MOL0     C90645   4.624   6.185   8.151 -0.1838  0.7678 -0.1555
  672MOL0     C90646   4.656   6.224   8.294  0.0322 -0.0258  0.9524
  672MOL0     C90647   4.623   6.124   8.401 -0.0401  0.4371  0.0570
  672MOL0     C90648   4.544   6.187   8.518  0.8037 -0.2178  0.1069
  672MOL0     C90649   4.627   6.286   8.594  0.7577  0.1969 -0.1697
  672MOL0     C90650   4.690   6.361   8.658 -0.3449  0.3273  0.0112
  672MOL0     C90651   4.415   6.385   8.181  0.6777  0.9379  0.0740
  672MOL0     C90652   4.313   6.465   8.216  1.0375 -0.0094 -0.6964
  672MOL0     H90653   3.918   6.686   8.439  0.9279 -0.9275 -1.9534
  672MOL0     H90654   3.698   6.812   8.481 -2.0655  0.3513 -0.7881
  672MOL0     H90655   3.506   6.921   8.489 -1.2865  1.3462 -0.9652
  672MOL0     H90656   3.501   6.922   8.313 -1.3928 -0.5498 -0.7504
  672MOL0     H90657   3.291   6.883   8.521 -1.9836  0.0495 -0.1255
  672MOL0     H90658   3.297   7.006   8.384  1.4589  0.3465  0.1861
  672MOL0     H90659   3.242   6.784   8.236  1.4377 -0.3658  1.5143
  672MOL0     H90660   3.199   6.716   8.396 -2.3657  0.2904  0.5144
  672MOL0     H90661   3.067   6.928   8.429  0.6247  1.3017  0.1575
  672MOL0     H90662   3.092   6.959   8.252 -2.5562  3.0102  2.8752
  672MOL0     H90663   2.978   6.739   8.200 -1.7786 -1.5368  1.6617
  672MOL0     H90664   2.981   6.697   8.370 -2.4872  0.2297  1.6869
  672MOL0     H90665   2.757   6.733   8.270 -1.0503  2.1906 -4.0387
  672MOL0     H90666   2.788   6.835   8.411  2.9411 -2.0556  1.1606
  672MOL0     H90667   2.796   7.033   8.283 -0.0673 -0.2997  0.8392
  672MOL0     H90668   2.837   6.963   8.138  1.9541  3.0401  1.9390
  672MOL0     H90669   2.613   6.873   8.107  0.2628 -1.7273  0.8180
  672MOL0     H90670   2.611   7.048   8.135  1.8922 -0.3438  0.7679
  672MOL0     H90671   2.449   6.759   8.227  0.2945 -0.4544  0.7421
  672MOL0     H90672   2.285   6.621   8.410 -0.7728  2.7801 -2.1331
  672MOL0     H90673   2.410   6.627   8.528  0.8653 -0.1823 -2.1389
  672MOL0     H90674   2.261   6.767   8.668  2.4532 -0.6641 -0.7954
  672MOL0     H90675   2.177   6.617   8.618 -1.0582 -1.4994 -3.9096
  672MOL0     H90676   2.072   6.755   8.434 -2.9427  1.8689  0.8971
  672MOL0     H90677   2.157   6.902   8.492  1.3984 -0.1830  0.2878
  672MOL0     H90678   1.933   6.729   8.623 -1.6212  0.5773  1.9731
  672MOL0     H90679   1.919   6.901   8.605  0.2762 -0.0365  1.0350
  672MOL0     H90680   1.809   6.739   8.767  2.9561  2.4514 -1.9231
  672MOL0     H90681   1.598   6.571   8.967  0.2851  0.3768  0.0915
  672MOL0     H90682   1.675   6.573   8.812 -0.8159  1.9325  0.8621
  672MOL0     H90683   1.731   6.448   8.931  0.7167  0.4849  1.8075
  672MOL0     H90684   1.986   6.566   9.545 -0.5563  0.3787 -0.7918
  672MOL0     H90685   1.967   6.395   9.726  0.9649  1.3560 -0.3653
  672MOL0     H90686   1.607   6.177   9.678 -2.1833 -1.8658  1.6514
  672MOL0     H90687   1.690   6.025   9.682 -3.1728 -0.1237  0.4388
  672MOL0     H90688   1.576   6.039   9.905  2.0219 -1.7102  1.7776
  672MOL0     H90689   1.749   6.023   9.910 -0.7636 -0.6909 -0.7804
  672MOL0     H90690   1.752   6.272   9.951  1.1909 -1.2511  0.8913
  672MOL0     H90691   1.656   6.167  10.066 -2.2136  0.1632 -0.7136
  672MOL0     H90692   1.557   6.358   9.851 -0.4432 -1.2561 -1.0106
  672MOL0     H90693   1.449   6.232   9.924 -0.6652  0.4413  0.5769
  672MOL0     H90694   1.612   6.406  10.092 -0.9946  0.1726  0.7370
  672MOL0     H90695   1.481   6.296  10.147 -1.0018  0.6379  0.6683
  672MOL0     H90696   1.430   6.545  10.155  3.0942 -2.2129  0.9759
  672MOL0     H90697   1.438   6.549   9.984 -0.4430 -0.2621 -0.1734
  672MOL0     H90698   1.261   6.351  10.143 -1.2722 -0.3622 -0.3058
  672MOL0     H90699   1.246   6.393   9.969  3.5978 -0.5451  0.1467
  672MOL0     H90700   1.160   6.575  10.188  0.7284 -0.2635  0.1357
  672MOL0     H90701   1.060   6.485  10.088  0.7340 -1.5733  1.6580
  672MOL0     H90702   1.702   6.176   9.479 -1.4369 -1.0944 -1.1834
  672MOL0     H90703   1.732   6.346   9.292 -1.3069  0.3153  0.3645
  672MOL0     H90704   2.043   6.722   9.190  2.4407 -1.0326 -2.0357
  672MOL0     H90705   2.145   6.830   8.985  0.3970  0.6070  0.9721
  672MOL0     H90706   3.496   6.568   8.209  0.6713 -0.6232 -1.4527
  672MOL0     H90707   3.701   6.443   8.155  2.2965  1.7818 -1.2880
  672MOL0     H90708   4.047   6.249   8.187 -0.2949  0.3459 -0.8944
  672MOL0     H90709   4.240   6.103   8.125  1.4558  0.6705 -3.5877
  672MOL0     H90710   4.681   6.094   8.129 -2.0531 -0.3397 -0.6978
  672MOL0     H90711   4.650   6.269   8.085  0.3532 -1.0857 -2.4451
  672MOL0     H90712   4.630   6.329   8.310 -0.2081  0.7277 -3.2644
  672MOL0     H90713   4.765   6.228   8.288 -0.0146  1.7674 -4.5245
  672MOL0     H90714   4.715   6.089   8.449 -0.1229 -0.1263 -0.1864
  672MOL0     H90715   4.571   6.037   8.359  0.5554 -0.9963  2.1680
  672MOL0     H90716   4.487   6.122   8.586 -1.6461  1.3568 -0.3153
  672MOL0     H90717   4.463   6.241   8.468  1.3906  0.7408  0.1856
  672MOL0     H90718   4.729   6.440   8.719  1.5989  1.0243 -1.9801
  672MOL0     H90719   4.509   6.436   8.164  2.0204 -1.9759 -2.1166
  672MOL0     H90720   4.321   6.572   8.232  0.8756  0.0542 -1.0231
  673MOL0     O90721   4.937   8.864   0.244  0.8051  0.0049 -0.3494
  673MOL0     C90722   4.885   8.807   0.336 -0.3701 -0.5453 -0.3761
  673MOL0     O90723   4.945   8.712   0.415  0.0349 -0.6662 -0.2527
  673MOL0     C90724   5.063   8.653   0.367  0.5515 -0.0614 -0.3678
  673MOL0     C90725   5.086   8.517   0.365  0.3960 -0.2734  0.3157
  673MOL0     C90726   5.213   8.470   0.335  0.5100 -0.3764  0.2609
  673MOL0     C90727   5.325   8.552   0.314 -0.3202 -0.7524  0.3263
  673MOL0     O90728   5.446   8.489   0.289 -0.1338 -1.0691  0.6633
  673MOL0     C90729   5.528   8.567   0.201 -1.1914 -0.3730 -0.3502
  673MOL0     C90730   5.656   8.495   0.164  0.1301 -0.5133  0.1554
  673MOL0     C90731   5.634   8.368   0.075 -0.0515 -0.7188  0.3852
  673MOL0     C90732   5.522   8.392  -0.040  0.4997 -0.3549 -0.1172
  673MOL0     C90733   5.549   8.278  -0.140  0.3057  0.3820 -0.0908
  673MOL0     C90734   5.441   8.282  -0.255 -0.6485  0.2196 -0.3652
  673MOL0     C90735   5.502   8.219  -0.377 -0.2026 -0.6589  0.2612
  673MOL0     C90736   5.402   8.205  -0.491 -0.3587 -0.8156  0.0820
  673MOL0     N90737   5.314   8.091  -0.471 -0.7245 -0.3296 -0.6869
  673MOL0     C90738   5.183   8.098  -0.420 -0.1958  0.4930 -0.1969
  673MOL0     C90739   5.128   7.979  -0.415  0.2885  0.8279 -1.0437
  673MOL0     C90740   4.993   7.944  -0.364  0.9488  0.4208 -0.2873
  673MOL0     C90741   4.863   8.007  -0.419 -0.3935  0.3151  0.2382
  673MOL0     C90742   4.853   8.000  -0.570  0.1204 -0.1155  0.3583
  673MOL0     C90743   4.735   8.095  -0.606  0.5140  0.1706 -0.5493
  673MOL0     O90744   4.620   8.048  -0.531 -0.0384 -0.1728 -0.4173
  673MOL0     C90745   4.545   8.150  -0.491 -0.0946  0.1589  0.5070
  673MOL0     C90746   4.534   8.182  -0.358  0.5117  0.5941 -0.1882
  673MOL0     C90747   4.448   8.285  -0.311  1.2220  0.1443 -1.1754
  673MOL0     C90748   4.456   8.300  -0.162  0.6459 -0.2839 -0.2307
  673MOL0     C90749   4.382   8.362  -0.406  0.4904 -0.2419 -0.0628
  673MOL0     C90750   4.276   8.463  -0.362 -0.1946  1.6487  0.5418
  673MOL0     O90751   4.222   8.541  -0.465  0.2498  0.0824 -0.5573
  673MOL0     C90752   4.121   8.630  -0.437  0.4521  0.5129 -0.5505
  673MOL0     C90753   4.089   8.690  -0.308  0.6403  0.7801  0.0325
  673MOL0     C90754   3.980   8.788  -0.301  0.7079  0.4467 -0.5609
  673MOL0     C90755   3.919   8.838  -0.411  0.2833 -0.0586 -0.8951
  673MOL0     O90756   3.820   8.930  -0.404  0.3336  0.8061  0.2720
  673MOL0     C90757   3.717   8.912  -0.505 -0.7903  1.1477  0.5659
  673MOL0     C90758   3.582   8.953  -0.455 -0.0360 -0.2044  0.5910
  673MOL0     C90759   3.552   8.881  -0.324  0.9280 -0.4605 -0.2274
  673MOL0     C90760   3.404   8.895  -0.303  0.9299 -1.1112 -0.3152
  673MOL0     C90761   3.372   8.817  -0.176 -0.7697 -0.4791  0.2165
  673MOL0     C90762   3.224   8.833  -0.130  0.0875 -0.3480 -0.5344
  673MOL0     C90763   3.173   8.719  -0.046 -0.6228 -0.2336  0.3578
  673MOL0     C90764   3.071   8.769   0.057  0.3465  0.1904 -0.6587
  673MOL0    Cl90765   2.925   8.846  -0.030  0.0558  0.0525  0.3675
  673MOL0     C90766   3.955   8.780  -0.536 -1.2383 -0.8861  0.1402
  673MOL0     C90767   4.049   8.678  -0.544  0.1687  0.8233 -0.2352
  673MOL0     O90768   4.230   8.454  -0.249  0.1528  0.1275  0.6614
  673MOL0     C90769   4.391   8.339  -0.541  0.0311 -0.1587 -0.1557
  673MOL0     C90770   4.473   8.235  -0.578 -0.8373  0.8945 -0.6190
  673MOL0     N90771   5.229   7.896  -0.454 -0.6133  0.4983  0.2072
  673MOL0     N90772   5.336   7.961  -0.481 -0.5726  0.0886 -0.7509
  673MOL0     C90773   5.295   8.691   0.317 -0.7243  0.3260  0.3702
  673MOL0     C90774   5.171   8.739   0.339 -0.0804 -0.6443 -0.2137
  673MOL0     C90775   4.738   8.843   0.358  0.1552 -0.4539  0.2893
  673MOL0     C90776   4.684   8.959   0.296 -0.7312  0.0255  0.7770
  673MOL0     C90777   4.555   9.000   0.320  0.2153  0.8263 -0.0150
  673MOL0     C90778   4.472   8.932   0.403 -0.2838 -0.2301 -0.4345
  673MOL0     O90779   4.348   8.995   0.421  0.3977  0.5580 -0.6983
  673MOL0     C90780   4.273   8.990   0.547 -0.2036  0.3056  0.0655
  673MOL0     C90781   4.150   9.076   0.553 -0.2562 -0.2930  0.6897
  673MOL0     C90782   4.047   9.037   0.450 -0.2731  0.2241 -0.4967
  673MOL0     C90783   4.013   8.883   0.467 -0.2632 -0.9444 -0.1377
  673MOL0     C90784   3.943   8.848   0.586 -0.3790 -0.4797  0.1212
  673MOL0     C90785   3.871   8.832   0.695  0.0087 -0.0836  0.3961
  673MOL0     C90786   4.524   8.812   0.468  0.4123 -0.4044 -0.5375
  673MOL0     C90787   4.660   8.777   0.447 -0.1919  0.2020  0.0649
  673MOL0     H90788   5.002   8.457   0.399 -1.8223  1.2070 -2.1504
  673MOL0     H90789   5.226   8.363   0.351 -1.0556 -0.6625 -0.2574
  673MOL0     H90790   5.481   8.610   0.112 -2.0263 -2.8625 -1.1873
  673MOL0     H90791   5.561   8.652   0.262  0.9446 -1.2308 -0.1900
  673MOL0     H90792   5.722   8.567   0.115 -0.2581 -0.7161 -0.6810
  673MOL0     H90793   5.717   8.467   0.250 -1.2205 -3.8951  0.1893
  673MOL0     H90794   5.736   8.364   0.036  0.4727  0.4529  1.5502
  673MOL0     H90795   5.615   8.276   0.131 -2.4814  0.4530  1.6350
  673MOL0     H90796   5.424   8.380   0.005  0.4702 -2.3802 -0.6007
  673MOL0     H90797   5.522   8.492  -0.084  1.4106  1.2926  3.2816
  673MOL0     H90798   5.650   8.292  -0.179  0.6846 -2.1567 -0.1822
  673MOL0     H90799   5.543   8.179  -0.094 -0.9139 -0.2093 -1.4725
  673MOL0     H90800   5.352   8.226  -0.224 -1.3768  0.5698 -1.7291
  673MOL0     H90801   5.402   8.382  -0.275  0.0520  0.5452 -0.1413
  673MOL0     H90802   5.576   8.290  -0.416 -1.8414  0.0529 -1.7373
  673MOL0     H90803   5.550   8.129  -0.338 -1.2046 -0.4990  1.9544
  673MOL0     H90804   5.453   8.170  -0.581 -1.8226  0.4508 -1.3169
  673MOL0     H90805   5.353   8.301  -0.508 -3.2353 -2.1883  0.0572
  673MOL0     H90806   5.131   8.190  -0.397  1.5481  2.2226 -2.6792
  673MOL0     H90807   4.973   7.837  -0.364  0.4067  0.4898  1.7941
  673MOL0     H90808   5.005   7.968  -0.258  1.0670  3.6034 -0.9014
  673MOL0     H90809   4.871   8.112  -0.390  1.4816  1.2449 -3.1044
  673MOL0     H90810   4.772   7.967  -0.374 -1.5088  0.5357 -1.7149
  673MOL0     H90811   4.829   7.898  -0.600 -2.7754  0.4091  0.6363
  673MOL0     H90812   4.947   8.040  -0.609 -0.0552  2.2435  2.0772
  673MOL0     H90813   4.721   8.085  -0.714 -0.2527  0.9766 -0.5385
  673MOL0     H90814   4.764   8.198  -0.584  2.1529  0.3008 -2.9956
  673MOL0     H90815   4.596   8.127  -0.289 -0.2153 -2.3153 -1.7207
  673MOL0     H90816   4.449   8.407  -0.142  0.3515 -0.2630 -0.4360
  673MOL0     H90817   4.376   8.244  -0.115  2.4742 -1.0974  2.0899
  673MOL0     H90818   4.544   8.256  -0.114  1.1671  0.1773 -0.7459
  673MOL0     H90819   4.141   8.661  -0.217 -1.0093  0.1350  0.8163
  673MOL0     H90820   3.952   8.814  -0.199  0.1071 -1.9919 -0.0279
  673MOL0     H90821   3.746   8.982  -0.584 -0.4586 -1.9015 -2.2445
  673MOL0     H90822   3.712   8.808  -0.536 -1.0607  1.2899  0.1129
  673MOL0     H90823   3.594   9.061  -0.441  3.3599 -0.3468 -0.3133
  673MOL0     H90824   3.508   8.940  -0.534  0.9061  0.7776 -0.4771
  673MOL0     H90825   3.603   8.923  -0.237 -1.9912  1.5004  0.6544
  673MOL0     H90826   3.576   8.774  -0.328  0.7472 -0.4727 -1.3548
  673MOL0     H90827   3.370   8.999  -0.296 -0.0010 -1.4278  0.1265
  673MOL0     H90828   3.348   8.851  -0.386  1.8976 -2.0674 -0.4874
  673MOL0     H90829   3.437   8.853  -0.096  3.2861 -3.0268 -1.6128
  673MOL0     H90830   3.398   8.714  -0.203 -2.2593 -0.0985 -3.1197
  673MOL0     H90831   3.205   8.930  -0.083  0.4403 -0.5169 -0.0451
  673MOL0     H90832   3.157   8.836  -0.217 -0.6157 -0.2832  0.0021
  673MOL0     H90833   3.256   8.684   0.017 -0.3807 -0.0216  0.1572
  673MOL0     H90834   3.128   8.645  -0.113  0.4702  0.7380 -1.5046
  673MOL0     H90835   3.114   8.838   0.129  1.0469 -0.2068 -0.6892
  673MOL0     H90836   3.027   8.686   0.115  1.7473 -0.6859 -0.8110
  673MOL0     H90837   3.917   8.830  -0.624  1.3715 -1.4181 -1.4042
  673MOL0     H90838   4.063   8.652  -0.649 -1.9260  0.8935 -0.5616
  673MOL0     H90839   4.349   8.410  -0.611 -0.1827 -1.6211 -1.5597
  673MOL0     H90840   4.475   8.216  -0.685  0.5190 -0.2643 -0.4214
  673MOL0     H90841   5.383   8.754   0.307 -0.3035 -0.5199 -2.0245
  673MOL0     H90842   5.164   8.846   0.355 -2.3623 -0.7809  0.0033
  673MOL0     H90843   4.746   9.024   0.235 -0.0211 -2.7705 -1.7180
  673MOL0     H90844   4.508   9.083   0.268  1.2047  0.6304 -1.2801
  673MOL0     H90845   4.237   8.888   0.568 -1.7810  0.7356 -0.4349
  673MOL0     H90846   4.342   9.008   0.630 -1.1767  1.4340  0.6559
  673MOL0     H90847   4.186   9.177   0.531  3.0910 -1.1910  1.5564
  673MOL0     H90848   4.102   9.076   0.651  0.2740 -2.7041  1.0045
  673MOL0     H90849   4.093   9.039   0.350 -0.4973 -0.8792 -0.6347
  673MOL0     H90850   3.975   9.118   0.459 -0.9165 -0.5271  1.5913
  673MOL0     H90851   4.099   8.816   0.460  1.0697  0.5519  1.0952
  673MOL0     H90852   3.946   8.862   0.383  0.0758 -0.7112 -0.4689
  673MOL0     H90853   3.809   8.802   0.777 -1.4117  0.7522 -0.3456
  673MOL0     H90854   4.467   8.766   0.547 -0.9173 -0.8511 -1.7045
  673MOL0     H90855   4.710   8.699   0.505  2.3553 -0.8040 -3.1830
  674MOL0     O90856  10.012   6.069   0.504 -0.2916  0.2440  0.8505
  674MOL0     C90857  10.022   5.951   0.463  0.2194  1.3699  0.2571
  674MOL0     O90858  10.135   5.881   0.446  0.6124 -1.3202  0.4731
  674MOL0     C90859  10.240   5.950   0.393  0.7884  0.0820 -0.3912
  674MOL0     C90860  10.295   6.066   0.454 -0.7736  0.4429 -0.1522
  674MOL0     C90861  10.389   6.138   0.374 -0.5149  0.1239 -0.5444
  674MOL0     C90862  10.440   6.090   0.252 -0.8560 -0.0200  0.2198
  674MOL0     O90863  10.541   6.150   0.186  0.4584 -0.4893  0.1888
  674MOL0     C90864  10.545   6.290   0.175  1.1231  0.2814 -0.5553
  674MOL0     C90865  10.654   6.348   0.081 -0.1126 -0.5336 -0.3548
  674MOL0     C90866  10.644   6.284  -0.053 -1.3999  0.0679 -0.0446
  674MOL0     C90867  10.713   6.361  -0.162  0.4746  0.2590  0.0141
  674MOL0     C90868  10.863   6.337  -0.171 -0.2635 -0.0789 -0.1908
  674MOL0     C90869  10.913   6.421  -0.291 -0.1774  0.3479  0.1937
  674MOL0     C90870  11.059   6.390  -0.311 -1.4230 -0.6462 -0.7713
  674MOL0     C90871  11.109   6.486  -0.431 -0.0263  0.2441 -0.9540
  674MOL0     N90872  11.248   6.530  -0.434 -0.4774  0.3567  0.3236
  674MOL0     C90873  11.347   6.513  -0.342 -0.1876  0.2794 -1.0905
  674MOL0     C90874  11.467   6.545  -0.409 -0.0830 -0.1627 -0.2431
  674MOL0     C90875  11.600   6.520  -0.347 -0.5029 -0.5378  0.3375
  674MOL0     C90876  11.662   6.648  -0.299  0.0385 -0.1048  0.6501
  674MOL0     C90877  11.728   6.739  -0.405 -0.2875  1.0439 -0.9694
  674MOL0     C90878  11.808   6.859  -0.361 -0.3057  0.1786 -0.9478
  674MOL0     O90879  11.941   6.820  -0.354 -0.7718 -0.2693  0.2339
  674MOL0     C90880  12.039   6.916  -0.336 -0.2168  0.7397 -0.2264
  674MOL0     C90881  12.152   6.870  -0.272 -0.0430 -0.4448  0.4246
  674MOL0     C90882  12.270   6.949  -0.254  0.4163  0.3989 -0.0948
  674MOL0     C90883  12.397   6.886  -0.198  0.0146 -0.1187 -0.0703
  674MOL0     C90884  12.249   7.084  -0.279  0.3550 -0.3027 -1.1445
  674MOL0     C90885  12.354   7.184  -0.233  0.3252 -0.6366  0.2168
  674MOL0     O90886  12.368   7.280  -0.329  0.2516  0.5368 -0.0076
  674MOL0     C90887  12.495   7.344  -0.336 -0.2211  0.2603 -0.8645
  674MOL0     C90888  12.623   7.276  -0.355  0.1695 -0.5305  0.3069
  674MOL0     C90889  12.739   7.356  -0.373 -0.2340 -0.4728  0.4178
  674MOL0     C90890  12.737   7.497  -0.379  0.3685 -0.8496 -0.5598
  674MOL0     O90891  12.845   7.589  -0.398 -0.4525  0.6120 -0.5702
  674MOL0     C90892  12.973   7.527  -0.397 -0.4722  0.5634 -0.5222
  674MOL0     C90893  13.081   7.630  -0.400  0.5940 -0.9723 -0.0561
  674MOL0     C90894  13.090   7.748  -0.294 -0.8457  0.0191 -0.7483
  674MOL0     C90895  13.217   7.841  -0.306  0.1953  0.2973  0.5684
  674MOL0     C90896  13.215   7.931  -0.426 -0.1681  0.0075  0.5645
  674MOL0     C90897  13.277   8.064  -0.387 -0.4492 -0.0709 -0.5606
  674MOL0     C90898  13.174   8.149  -0.323 -0.0507  0.4026  0.0108
  674MOL0     C90899  13.239   8.274  -0.264  0.0814  0.6961  0.9852
  674MOL0    Cl90900  13.106   8.393  -0.228 -0.4440 -0.3614 -0.0057
  674MOL0     C90901  12.611   7.556  -0.396  0.6949 -0.5935 -0.1729
  674MOL0     C90902  12.493   7.482  -0.368 -0.0574  0.0298 -0.8263
  674MOL0     O90903  12.414   7.174  -0.128 -0.1132  1.6171  0.2729
  674MOL0     C90904  12.128   7.125  -0.345  0.1957  0.1242  0.2877
  674MOL0     C90905  12.025   7.047  -0.369 -0.0609 -0.6587 -0.0676
  674MOL0     N90906  11.431   6.592  -0.534 -0.2909 -0.0152 -0.1809
  674MOL0     N90907  11.309   6.579  -0.551  0.2526 -0.0090 -0.5312
  674MOL0     C90908  10.392   5.972   0.211 -0.2705 -0.3046 -0.1984
  674MOL0     C90909  10.299   5.900   0.277 -0.3878 -0.7792  0.4500
  674MOL0     C90910   9.902   5.867   0.444  0.2633  0.3461  0.3300
  674MOL0     C90911   9.904   5.763   0.340  0.2770 -0.1485  0.2319
  674MOL0     C90912   9.785   5.690   0.325  0.2109 -0.3853  1.0568
  674MOL0     C90913   9.662   5.721   0.391  0.3416  0.8360  0.3960
  674MOL0     O90914   9.556   5.638   0.359  0.0547  0.0890  0.0851
  674MOL0     C90915   9.422   5.700   0.378  0.2378 -0.2950  0.2929
  674MOL0     C90916   9.316   5.631   0.287  0.7382  0.1883  0.6811
  674MOL0     C90917   9.232   5.525   0.365 -1.2656  0.3713 -0.4321
  674MOL0     C90918   9.159   5.420   0.270  0.1355  0.7740 -1.0038
  674MOL0     C90919   9.037   5.476   0.231  0.4655 -0.5797  0.6297
  674MOL0     C90920   8.929   5.528   0.207 -0.2900 -0.6998  0.2317
  674MOL0     C90921   9.658   5.823   0.485 -0.0100  0.3018  0.1351
  674MOL0     C90922   9.778   5.893   0.513 -0.3337  0.8081 -0.7694
  674MOL0     H90923  10.278   6.101   0.555 -0.3100 -0.1023  0.1207
  674MOL0     H90924  10.425   6.231   0.417 -1.3754  0.3777 -0.3322
  674MOL0     H90925  10.448   6.328   0.141  1.2641 -1.8743 -3.8772
  674MOL0     H90926  10.565   6.329   0.275  1.9528 -1.0133 -0.1995
  674MOL0     H90927  10.644   6.456   0.065 -0.5888 -0.4841  0.2545
  674MOL0     H90928  10.754   6.331   0.122 -0.5156  0.9181  1.3332
  674MOL0     H90929  10.689   6.184  -0.049 -1.2217  0.1684  0.9058
  674MOL0     H90930  10.537   6.280  -0.077 -1.3907 -1.3659  0.0386
  674MOL0     H90931  10.661   6.332  -0.253 -1.4386  2.7576  0.2053
  674MOL0     H90932  10.691   6.468  -0.157  0.2890  0.2973 -1.1891
  674MOL0     H90933  10.913   6.368  -0.078 -1.3337 -1.6922  0.9933
  674MOL0     H90934  10.899   6.235  -0.189  2.4078  1.1629 -2.5262
  674MOL0     H90935  10.861   6.392  -0.382 -1.1953 -0.2451  0.9334
  674MOL0     H90936  10.891   6.528  -0.285 -2.2305  0.0068 -0.2962
  674MOL0     H90937  11.106   6.427  -0.219 -2.8049 -2.4603  0.7465
  674MOL0     H90938  11.086   6.290  -0.345 -0.9629 -0.4805 -0.8958
  674MOL0     H90939  11.057   6.581  -0.413 -0.2112 -0.2484  1.4317
  674MOL0     H90940  11.078   6.441  -0.525 -5.1676  1.8036 -0.2939
  674MOL0     H90941  11.332   6.474  -0.242  2.4919  2.3010  0.2245
  674MOL0     H90942  11.598   6.452  -0.262  2.2908  0.4746  1.3058
  674MOL0     H90943  11.658   6.469  -0.425 -0.9777 -2.8516  1.4334
  674MOL0     H90944  11.745   6.623  -0.232  2.8189  1.9852 -1.7364
  674MOL0     H90945  11.586   6.700  -0.240 -1.0361 -0.0216 -0.7618
  674MOL0     H90946  11.643   6.773  -0.465  0.5672  1.9850 -1.6707
  674MOL0     H90947  11.790   6.676  -0.470  1.1467  1.9593 -0.5189
  674MOL0     H90948  11.766   6.898  -0.268  0.3643  1.8962 -1.3342
  674MOL0     H90949  11.794   6.932  -0.442 -2.3284 -0.3317 -1.1285
  674MOL0     H90950  12.157   6.765  -0.249 -0.2919 -0.1281  2.0536
  674MOL0     H90951  12.485   6.937  -0.237  2.3516 -3.7174 -0.0144
  674MOL0     H90952  12.396   6.898  -0.089  0.5936  1.2491 -0.2032
  674MOL0     H90953  12.417   6.783  -0.229  2.9923  0.8009 -1.4795
  674MOL0     H90954  12.632   7.168  -0.354  0.7471 -0.5330 -1.0871
  674MOL0     H90955  12.835   7.306  -0.367 -0.5932 -1.1617  0.5110
  674MOL0     H90956  12.989   7.458  -0.313  0.1211 -1.2563 -2.0416
  674MOL0     H90957  12.976   7.464  -0.487 -1.1649 -0.3944  0.0992
  674MOL0     H90958  13.179   7.582  -0.408  1.5875  1.1921 -2.6660
  674MOL0     H90959  13.085   7.681  -0.497  1.5003 -0.0304  0.4566
  674MOL0     H90960  13.089   7.698  -0.197 -0.7745  2.5444  0.6523
  674MOL0     H90961  12.995   7.804  -0.297 -2.2127 -2.1890 -3.1590
  674MOL0     H90962  13.207   7.900  -0.215 -0.7887 -1.1627  1.4356
  674MOL0     H90963  13.311   7.784  -0.310 -0.4392 -0.7108 -1.0724
  674MOL0     H90964  13.110   7.950  -0.452 -0.1693  0.8486  1.1273
  674MOL0     H90965  13.273   7.897  -0.512  1.9536 -0.2302  2.0117
  674MOL0     H90966  13.353   8.047  -0.310 -2.8887  0.5765  2.1962
  674MOL0     H90967  13.309   8.122  -0.473  2.5226 -1.4602 -0.5376
  674MOL0     H90968  13.113   8.093  -0.252  1.2344 -1.3803 -0.2144
  674MOL0     H90969  13.103   8.167  -0.405  0.6212 -1.8236 -1.1519
  674MOL0     H90970  13.310   8.321  -0.332 -1.7357  0.9017 -0.8854
  674MOL0     H90971  13.290   8.239  -0.174 -1.3525 -0.5437  1.3686
  674MOL0     H90972  12.604   7.662  -0.420 -1.0534 -0.9441 -1.3930
  674MOL0     H90973  12.407   7.546  -0.356  1.1330  1.3473  1.2816
  674MOL0     H90974  12.111   7.232  -0.350 -3.5060 -0.2726  1.3005
  674MOL0     H90975  11.934   7.084  -0.416 -1.3009 -2.9343  0.3783
  674MOL0     H90976  10.438   5.930   0.122  0.0903  0.9282 -0.6074
  674MOL0     H90977  10.267   5.810   0.226  3.6723  0.2251 -4.6958
  674MOL0     H90978   9.986   5.739   0.274 -0.7507 -0.9610 -0.7919
  674MOL0     H90979   9.780   5.621   0.241  3.4156  0.1735  0.2725
  674MOL0     H90980   9.397   5.706   0.485 -2.0177 -1.6234 -0.1046
  674MOL0     H90981   9.422   5.800   0.333  0.7198 -0.4108  0.0332
  674MOL0     H90982   9.345   5.579   0.196 -1.7104 -0.4292  0.1649
  674MOL0     H90983   9.235   5.698   0.257 -0.7164 -2.1323 -0.9595
  674MOL0     H90984   9.161   5.587   0.421 -2.1264  0.8001 -1.9435
  674MOL0     H90985   9.298   5.478   0.439  1.0238  2.5192 -0.9753
  674MOL0     H90986   9.132   5.329   0.325 -0.1692 -0.1135 -2.5657
  674MOL0     H90987   9.224   5.397   0.186  1.5831  1.7842 -0.1998
  674MOL0     H90988   8.827   5.552   0.184  0.1187 -1.0367 -2.1465
  674MOL0     H90989   9.574   5.875   0.530  1.3604  3.4187 -0.6207
  674MOL0     H90990   9.780   5.974   0.585 -1.0497  1.3594 -1.3584
  675MOL0     O90991   8.477   2.934   5.107 -0.5182  0.6547  0.6196
  675MOL0     C90992   8.402   2.998   5.029  0.1146  0.4468  0.2859
  675MOL0     O90993   8.437   3.122   4.973 -0.4961 -0.2085 -0.4315
  675MOL0     C90994   8.571   3.148   4.973  0.0472  0.5419  0.6040
  675MOL0     C90995   8.668   3.051   4.941 -0.1706 -0.0113  0.1880
  675MOL0     C90996   8.806   3.078   4.928 -0.5041 -0.2819  0.2171
  675MOL0     C90997   8.850   3.210   4.967 -0.0559  0.2304  0.3821
  675MOL0     O90998   8.981   3.242   4.958 -0.0964  0.0481 -0.5552
  675MOL0     C90999   9.040   3.202   4.836 -1.2807  0.2674  0.6316
  675MOL0     C91000   9.182   3.259   4.815 -0.1977  0.3607  0.5152
  675MOL0     C91001   9.230   3.245   4.665 -0.7157 -1.1254  0.3550
  675MOL0     C91002   9.371   3.305   4.635  0.5540  0.2727 -0.0615
  675MOL0     C91003   9.398   3.310   4.478 -0.2354  0.8579 -0.3160
  675MOL0     C91004   9.495   3.431   4.439 -0.2876  0.1996 -0.5089
  675MOL0     C91005   9.516   3.425   4.289 -0.2715  0.1790  1.0400
  675MOL0     C91006   9.606   3.547   4.253 -0.4761 -0.0306  0.5332
  675MOL0     N91007   9.633   3.569   4.112  0.4520  0.0546  0.2315
  675MOL0     C91008   9.753   3.575   4.052 -0.7167  0.1510 -0.3694
  675MOL0     C91009   9.723   3.582   3.919 -0.1765 -0.6267  0.9357
  675MOL0     C91010   9.816   3.595   3.799  0.4836  0.2744  1.0632
  675MOL0     C91011   9.971   3.600   3.841 -0.1677 -0.2899  0.5917
  675MOL0     C91012  10.006   3.741   3.886  0.6345 -1.2047 -0.4596
  675MOL0     C91013  10.037   3.840   3.772 -0.3052 -0.4440 -0.1195
  675MOL0     O91014  10.158   3.801   3.696  0.6279 -0.1437  0.0599
  675MOL0     C91015  10.283   3.858   3.720 -1.1627  0.1424  0.1325
  675MOL0     C91016  10.312   3.942   3.828 -0.0270 -0.5598  0.8761
  675MOL0     C91017  10.439   4.013   3.828  0.5092  0.2003 -0.3902
  675MOL0     C91018  10.461   4.098   3.946 -0.2668 -0.1514 -0.7509
  675MOL0     C91019  10.529   4.008   3.715  0.5744 -0.1145  0.4791
  675MOL0     C91020  10.654   4.084   3.699  0.5880  0.5763 -0.5914
  675MOL0     O91021  10.746   4.025   3.615  0.1174  0.3420 -0.1831
  675MOL0     C91022  10.844   4.100   3.574 -1.2405  0.0871  0.1371
  675MOL0     C91023  10.962   4.121   3.644 -0.1966 -0.3093 -0.2420
  675MOL0     C91024  11.074   4.187   3.589 -0.2459 -0.4753 -1.4679
  675MOL0     C91025  11.070   4.237   3.461  0.1585  0.3936  0.4519
  675MOL0     O91026  11.184   4.285   3.407  0.6152 -0.2440  0.3932
  675MOL0     C91027  11.259   4.185   3.339  0.3145 -0.4810 -0.4265
  675MOL0     C91028  11.401   4.234   3.306 -0.0313 -0.0360  0.1235
  675MOL0     C91029  11.477   4.105   3.255 -0.6205 -0.5632  0.2790
  675MOL0     C91030  11.635   4.134   3.236  0.0462  0.6299 -0.0090
  675MOL0     C91031  11.718   4.003   3.210  0.7159 -0.6452 -0.1226
  675MOL0     C91032  11.868   4.036   3.217  0.6662  0.4629 -0.0406
  675MOL0     C91033  11.941   3.913   3.226 -0.1949 -0.1406 -0.1006
  675MOL0     C91034  12.085   3.940   3.223  0.7034 -0.9214  0.1602
  675MOL0    Cl91035  12.157   3.779   3.253 -0.0688  0.4529  0.4279
  675MOL0     C91036  10.950   4.241   3.387 -0.0741  0.1479  0.1467
  675MOL0     C91037  10.840   4.168   3.446 -0.0565  0.4110 -0.5633
  675MOL0     O91038  10.673   4.181   3.772  0.4632 -0.7076  0.0261
  675MOL0     C91039  10.492   3.914   3.617 -0.2970  0.0898  0.1086
  675MOL0     C91040  10.383   3.827   3.626 -0.4386 -0.5941  0.1292
  675MOL0     N91041   9.587   3.592   3.894 -0.8216  0.4122  0.0101
  675MOL0     N91042   9.537   3.565   4.010 -0.0840  0.4249 -0.3860
  675MOL0     C91043   8.756   3.305   5.012 -0.2595 -0.1828  0.0904
  675MOL0     C91044   8.620   3.278   5.006  0.0388  0.1135 -0.0379
  675MOL0     C91045   8.266   2.935   5.007  0.9666 -0.4876 -0.5722
  675MOL0     C91046   8.231   2.805   5.053  0.6522 -0.2803  0.6654
  675MOL0     C91047   8.100   2.760   5.062 -0.3241 -1.2887 -0.4661
  675MOL0     C91048   8.003   2.852   5.025 -0.1904 -0.5332  0.2141
  675MOL0     O91049   7.870   2.802   5.044 -0.4236 -0.3562 -0.1510
  675MOL0     C91050   7.773   2.821   4.941  0.5023 -0.8178  0.2457
  675MOL0     C91051   7.637   2.844   4.996 -1.3274 -0.1562 -0.0074
  675MOL0     C91052   7.509   2.836   4.895 -1.2106 -1.0838 -0.0619
  675MOL0     C91053   7.443   2.694   4.898 -0.0189  0.6320 -0.1883
  675MOL0     C91054   7.396   2.648   5.030  0.4963 -0.4357  0.6085
  675MOL0     C91055   7.346   2.620   5.137  0.2935 -0.2047  0.8487
  675MOL0     C91056   8.027   2.983   4.981  0.4431  0.3603 -0.1004
  675MOL0     C91057   8.157   3.028   4.984  0.1563  0.5467 -0.5277
  675MOL0     H91058   8.648   2.947   4.917 -1.0591  0.9912 -4.2503
  675MOL0     H91059   8.865   2.991   4.903 -0.4269 -0.5750  1.3830
  675MOL0     H91060   9.052   3.094   4.820  0.6724  0.8590 -2.9459
  675MOL0     H91061   8.982   3.239   4.751  0.4179 -0.5738 -0.9537
  675MOL0     H91062   9.189   3.366   4.837 -0.6553  0.3028  0.9470
  675MOL0     H91063   9.265   3.208   4.865  1.7022  2.1154 -0.6743
  675MOL0     H91064   9.236   3.139   4.639  0.4536 -1.2508  1.0469
  675MOL0     H91065   9.155   3.297   4.604 -1.0421  0.0933  1.7424
  675MOL0     H91066   9.374   3.407   4.673 -0.6183  0.1752  0.3162
  675MOL0     H91067   9.445   3.240   4.684  0.8614 -0.5630 -1.5756
  675MOL0     H91068   9.432   3.216   4.432 -0.8991  0.3198  0.2688
  675MOL0     H91069   9.306   3.335   4.424 -1.6734  4.5941  3.3947
  675MOL0     H91070   9.465   3.528   4.481 -1.2397 -1.3950  2.7844
  675MOL0     H91071   9.594   3.410   4.481 -0.0620  2.6106  0.3216
  675MOL0     H91072   9.552   3.330   4.250  1.5374  1.5624 -0.8715
  675MOL0     H91073   9.425   3.455   4.235 -0.1877  0.0824  0.8474
  675MOL0     H91074   9.708   3.525   4.289  0.0778 -1.3004 -1.6131
  675MOL0     H91075   9.565   3.633   4.305 -0.8892 -1.4263  2.6344
  675MOL0     H91076   9.847   3.560   4.106 -1.2273 -0.1094  0.4704
  675MOL0     H91077   9.802   3.511   3.731 -2.0442  0.3897  1.3581
  675MOL0     H91078   9.787   3.681   3.739 -0.6161 -1.2216 -0.6460
  675MOL0     H91079  10.038   3.558   3.765  2.5554 -1.5971  3.4774
  675MOL0     H91080   9.979   3.530   3.924  0.7632 -1.6531 -0.5872
  675MOL0     H91081  10.092   3.738   3.954 -0.7396  0.5556  1.4854
  675MOL0     H91082   9.933   3.783   3.956  0.8614  1.2779 -1.5943
  675MOL0     H91083  10.043   3.937   3.823  0.7982 -0.3930 -0.3203
  675MOL0     H91084   9.955   3.842   3.699 -0.6078 -1.7171  0.1584
  675MOL0     H91085  10.242   3.961   3.909  1.4804 -0.0756  2.1301
  675MOL0     H91086  10.441   4.199   3.909  1.2380 -0.2492 -1.9378
  675MOL0     H91087  10.388   4.070   4.023 -1.6482 -3.5223 -3.0405
  675MOL0     H91088  10.563   4.113   3.980 -0.1123 -3.1703  0.3854
  675MOL0     H91089  10.984   4.069   3.737 -2.2773 -0.5227  0.1906
  675MOL0     H91090  11.163   4.197   3.651 -1.6566  2.5824  0.3293
  675MOL0     H91091  11.262   4.098   3.405  1.7793 -1.2128 -1.3989
  675MOL0     H91092  11.211   4.142   3.250  0.5880  0.3647 -0.9869
  675MOL0     H91093  11.385   4.313   3.232 -1.8244  0.4678  0.9985
  675MOL0     H91094  11.456   4.274   3.392 -0.9659 -2.8306  2.1748
  675MOL0     H91095  11.434   4.082   3.157 -1.6397  2.3495 -0.0643
  675MOL0     H91096  11.460   4.016   3.316  5.3799 -0.3112  3.1176
  675MOL0     H91097  11.641   4.197   3.147  0.3181  2.3590  1.1828
  675MOL0     H91098  11.675   4.197   3.316 -1.1002 -0.7888  1.7615
  675MOL0     H91099  11.697   3.953   3.115 -0.1065  1.6402 -1.2124
  675MOL0     H91100  11.691   3.934   3.290 -1.1028 -0.5594 -0.6077
  675MOL0     H91101  11.907   4.100   3.137  3.2141 -1.4958 -0.4806
  675MOL0     H91102  11.891   4.086   3.312  0.4520  1.3725 -0.4571
  675MOL0     H91103  11.932   3.842   3.144  1.2347  0.3875 -0.7528
  675MOL0     H91104  11.909   3.871   3.322  1.0407 -0.4705  0.1978
  675MOL0     H91105  12.100   4.004   3.310 -0.8309 -1.0266  0.5375
  675MOL0     H91106  12.107   3.992   3.129 -0.0855  0.7215  0.8415
  675MOL0     H91107  10.948   4.303   3.299 -2.5203  0.2564  0.2214
  675MOL0     H91108  10.749   4.163   3.387 -0.5500 -1.7862  0.2971
  675MOL0     H91109  10.553   3.888   3.531  2.0865 -2.1564  2.2862
  675MOL0     H91110  10.370   3.748   3.553  1.1903 -0.9438  0.1951
  675MOL0     H91111   8.792   3.399   5.055 -2.7135  0.0072  1.9913
  675MOL0     H91112   8.554   3.357   5.041 -0.9606 -0.0969 -1.3642
  675MOL0     H91113   8.306   2.730   5.076  0.6453 -0.7058 -0.6182
  675MOL0     H91114   8.076   2.660   5.096 -3.9723  0.2618  2.1561
  675MOL0     H91115   7.787   2.907   4.875  1.7309 -0.8338  0.4521
  675MOL0     H91116   7.773   2.725   4.889 -1.8676 -1.5208  1.4155
  675MOL0     H91117   7.640   2.941   5.046  1.0150 -1.3681  2.4535
  675MOL0     H91118   7.629   2.765   5.071 -3.1691 -0.8073 -0.8363
  675MOL0     H91119   7.537   2.877   4.797  0.4532  6.3841  2.8053
  675MOL0     H91120   7.428   2.900   4.931 -2.5977 -1.3252 -2.5279
  675MOL0     H91121   7.503   2.619   4.846 -1.3571  1.6105 -3.3994
  675MOL0     H91122   7.348   2.692   4.842 -0.8177  1.0802  1.0958
  675MOL0     H91123   7.284   2.589   5.218 -3.0129  1.9373 -0.6327
  675MOL0     H91124   7.949   3.056   4.965  1.6683  1.7412 -0.0086
  675MOL0     H91125   8.193   3.127   4.957 -1.4127  0.8199 -1.8282
  676MOL0     O91126   7.116   4.555   2.439  0.3356  0.5734 -0.1510
  676MOL0     C91127   7.000   4.565   2.476  0.0897  1.3119  0.1142
  676MOL0     O91128   6.945   4.675   2.530  0.5502 -0.0573 -0.2967
  676MOL0     C91129   7.023   4.783   2.559 -0.0368 -0.4175  0.9465
  676MOL0     C91130   7.110   4.795   2.669  0.3908  0.0580  0.8428
  676MOL0     C91131   7.179   4.912   2.696 -0.2933 -0.1145 -0.3917
  676MOL0     C91132   7.153   5.031   2.624  0.4527 -0.3539  0.0738
  676MOL0     O91133   7.233   5.141   2.652  0.2546 -0.3235  0.3808
  676MOL0     C91134   7.167   5.262   2.672  0.2985 -0.5427 -0.4343
  676MOL0     C91135   7.118   5.275   2.817 -0.4433 -0.0109 -0.3408
  676MOL0     C91136   7.232   5.261   2.917 -0.1352 -0.7782 -0.4661
  676MOL0     C91137   7.196   5.324   3.049  0.2142 -0.1195 -0.6984
  676MOL0     C91138   7.311   5.343   3.150 -0.2612  0.9563 -0.3827
  676MOL0     C91139   7.366   5.209   3.204 -0.4589 -1.0600 -0.0764
  676MOL0     C91140   7.478   5.225   3.303 -0.0753  0.6129 -0.5239
  676MOL0     C91141   7.432   5.297   3.432  0.0333  0.9716 -0.2193
  676MOL0     N91142   7.316   5.233   3.504 -0.2850  0.7392 -0.8522
  676MOL0     C91143   7.309   5.112   3.577 -0.5904  0.0284  0.9202
  676MOL0     C91144   7.194   5.116   3.640  0.7111 -0.6204 -0.1325
  676MOL0     C91145   7.156   5.020   3.740  0.3515  0.3665  0.6578
  676MOL0     C91146   7.008   4.985   3.741 -0.1262  0.3784  0.4340
  676MOL0     C91147   6.975   4.845   3.799  0.1224 -0.4988  0.4992
  676MOL0     C91148   6.835   4.798   3.755  0.9846 -0.1757 -0.8905
  676MOL0     O91149   6.732   4.861   3.836 -0.5556 -0.7422 -0.3412
  676MOL0     C91150   6.604   4.876   3.773  0.2081  0.6470 -0.4763
  676MOL0     C91151   6.558   4.769   3.689 -0.0871 -0.3288 -0.9065
  676MOL0     C91152   6.431   4.774   3.645  0.9665  0.3151  0.1726
  676MOL0     C91153   6.382   4.659   3.563  0.2771 -0.2588 -0.6333
  676MOL0     C91154   6.346   4.881   3.681 -0.5937 -0.3566 -0.3949
  676MOL0     C91155   6.217   4.903   3.615  0.4855  0.5791 -0.9912
  676MOL0     O91156   6.172   4.825   3.513  0.1693  0.0873  0.4419
  676MOL0     C91157   6.069   4.880   3.440  0.3968 -0.3449  0.8065
  676MOL0     C91158   5.943   4.834   3.459  0.5641  0.1220 -0.1987
  676MOL0     C91159   5.838   4.878   3.380  0.6207 -0.2398  0.1841
  676MOL0     C91160   5.855   4.965   3.284 -0.3265 -0.1187  0.3994
  676MOL0     O91161   5.743   5.001   3.210 -0.2780 -0.1055  0.1241
  676MOL0     C91162   5.640   5.073   3.271  0.9369  0.4101 -0.2112
  676MOL0     C91163   5.493   5.059   3.221 -0.2227 -0.8702 -0.2363
  676MOL0     C91164   5.461   4.912   3.194 -0.1878 -0.2995 -0.2425
  676MOL0     C91165   5.321   4.893   3.142 -0.0268 -0.4898 -0.3071
  676MOL0     C91166   5.290   4.751   3.136  0.1202 -0.8866  0.7741
  676MOL0     C91167   5.153   4.711   3.090 -0.5752  0.0981 -0.4661
  676MOL0     C91168   5.125   4.748   2.940  0.0221  0.4576 -0.2057
  676MOL0     C91169   4.975   4.740   2.909  0.8757 -0.1786  0.2002
  676MOL0    Cl91170   4.921   4.564   2.904 -0.2534 -0.1987  0.5822
  676MOL0     C91171   5.989   5.000   3.250 -0.3825 -0.1345 -0.4016
  676MOL0     C91172   6.097   4.959   3.332  0.3456  0.1071  0.1303
  676MOL0     O91173   6.156   4.997   3.664  0.2889  0.1361  0.3902
  676MOL0     C91174   6.390   4.969   3.781 -0.6447  0.6100 -0.2554
  676MOL0     C91175   6.521   4.968   3.829 -0.1356 -0.5066  0.9990
  676MOL0     N91176   7.123   5.227   3.607 -0.5521 -0.1393 -0.4269
  676MOL0     N91177   7.196   5.300   3.533 -0.6083  0.2085  0.6134
  676MOL0     C91178   7.072   5.022   2.507 -0.1932 -0.1943 -0.4970
  676MOL0     C91179   7.008   4.899   2.476  0.9841  0.1834 -0.1125
  676MOL0     C91180   6.921   4.440   2.480 -0.5306  0.0074 -0.0306
  676MOL0     C91181   6.782   4.451   2.521  0.1279 -0.0118 -0.0290
  676MOL0     C91182   6.694   4.344   2.527  0.3983  0.2349  0.2598
  676MOL0     C91183   6.746   4.225   2.479  0.5030  0.1401 -0.0418
  676MOL0     O91184   6.662   4.109   2.468  0.3980 -0.5033  0.3454
  676MOL0     C91185   6.528   4.138   2.419  0.5004 -0.4209 -0.3240
  676MOL0     C91186   6.513   4.057   2.296  1.1531 -0.3762 -0.0107
  676MOL0     C91187   6.386   4.081   2.215 -0.3677  0.1558 -0.4748
  676MOL0     C91188   6.352   3.971   2.108 -0.5060  0.7280 -0.1989
  676MOL0     C91189   6.451   3.979   1.998 -0.0362 -0.7806 -0.1432
  676MOL0     C91190   6.515   4.002   1.898 -0.4635  0.1772 -0.0407
  676MOL0     C91191   6.874   4.210   2.426  1.2447 -0.7683  0.3701
  676MOL0     C91192   6.964   4.314   2.433 -0.4734 -1.2959  0.4752
  676MOL0     H91193   7.121   4.702   2.724 -0.4058 -2.3663 -2.7329
  676MOL0     H91194   7.248   4.893   2.777  0.9370  1.8301 -0.9227
  676MOL0     H91195   7.227   5.349   2.646 -2.2715  0.5866 -3.3387
  676MOL0     H91196   7.093   5.276   2.592 -2.2452 -1.6501  1.5710
  676MOL0     H91197   7.086   5.379   2.832  0.5268  0.3298 -0.5271
  676MOL0     H91198   7.040   5.205   2.847 -0.4291 -0.0173 -0.3178
  676MOL0     H91199   7.262   5.157   2.927 -0.1564 -0.9333 -1.7678
  676MOL0     H91200   7.324   5.307   2.878  0.7094 -0.3985  1.8411
  676MOL0     H91201   7.174   5.427   3.019 -2.6482 -0.3185  0.3419
  676MOL0     H91202   7.107   5.281   3.098  0.3059 -2.5632 -2.4831
  676MOL0     H91203   7.400   5.386   3.102 -1.6288  3.1048 -1.1224
  676MOL0     H91204   7.266   5.399   3.233  1.9687 -1.2800  2.5594
  676MOL0     H91205   7.283   5.151   3.246 -0.6328 -2.6680 -2.4856
  676MOL0     H91206   7.408   5.159   3.117  0.7134 -0.3058  0.0344
  676MOL0     H91207   7.523   5.136   3.347  0.3531  0.9658 -0.2352
  676MOL0     H91208   7.549   5.285   3.244  0.1941  1.5263  0.6867
  676MOL0     H91209   7.410   5.400   3.401 -0.3301  0.6068 -1.2365
  676MOL0     H91210   7.513   5.313   3.504 -1.3862  0.6196  1.5181
  676MOL0     H91211   7.392   5.046   3.597 -1.7252 -1.2112  1.6598
  676MOL0     H91212   7.199   4.927   3.700  2.8151  2.6254 -2.3803
  676MOL0     H91213   7.201   5.058   3.833  0.7405 -0.6304  0.8979
  676MOL0     H91214   6.983   4.980   3.635 -1.1850  2.4601  0.5382
  676MOL0     H91215   6.938   5.053   3.791 -2.0412 -0.8564 -0.4471
  676MOL0     H91216   6.981   4.837   3.908  4.2547 -1.1255  0.3849
  676MOL0     H91217   7.050   4.774   3.762 -0.5282 -1.4113  0.9017
  676MOL0     H91218   6.826   4.691   3.775 -0.6474  0.3374  1.5895
  676MOL0     H91219   6.838   4.814   3.647 -1.2249 -0.8723 -1.1060
  676MOL0     H91220   6.620   4.691   3.647  0.7815 -0.2282  0.1523
  676MOL0     H91221   6.376   4.689   3.458  0.3908  0.6966 -0.3725
  676MOL0     H91222   6.443   4.571   3.538 -1.0644 -0.5082 -3.5256
  676MOL0     H91223   6.290   4.626   3.612  1.0329  0.1877  1.1618
  676MOL0     H91224   5.924   4.765   3.541 -0.6844  0.1159 -0.4699
  676MOL0     H91225   5.742   4.837   3.410 -1.1817  2.2888 -1.6755
  676MOL0     H91226   5.630   5.035   3.373 -1.4729  1.6844  0.1224
  676MOL0     H91227   5.674   5.176   3.286 -1.1687  1.1030  0.2308
  676MOL0     H91228   5.424   5.098   3.296  1.8888  0.3800  1.1333
  676MOL0     H91229   5.477   5.112   3.126 -0.1059  1.9912  1.2399
  676MOL0     H91230   5.476   4.865   3.291  0.7367 -0.5680 -0.5086
  676MOL0     H91231   5.536   4.860   3.134  1.1211  0.4560  0.6963
  676MOL0     H91232   5.242   4.941   3.200  1.0582  1.3471 -0.2424
  676MOL0     H91233   5.315   4.938   3.042  0.5711 -1.0550 -0.6084
  676MOL0     H91234   5.287   4.734   3.244  2.6326  2.5686  1.5724
  676MOL0     H91235   5.367   4.690   3.088 -0.9613 -0.5729 -1.4781
  676MOL0     H91236   5.143   4.604   3.110  1.7517 -0.5641 -2.3478
  676MOL0     H91237   5.082   4.756   3.160 -0.6125 -2.8268  1.5179
  676MOL0     H91238   5.183   4.676   2.882  0.1792  1.5670 -1.4775
  676MOL0     H91239   5.147   4.852   2.916 -1.6935  2.0147  4.0485
  676MOL0     H91240   4.945   4.791   2.817  1.9223 -1.9351 -1.1762
  676MOL0     H91241   4.913   4.797   2.979  1.6727 -0.2347  0.9575
  676MOL0     H91242   6.018   5.060   3.164  1.4218 -3.4193 -2.2719
  676MOL0     H91243   6.198   4.994   3.314 -0.0087  0.7756 -0.6343
  676MOL0     H91244   6.317   5.040   3.818 -1.4250  0.5305 -1.5634
  676MOL0     H91245   6.558   5.048   3.893  1.3679 -1.6739  1.6772
  676MOL0     H91246   7.072   5.101   2.432  0.4457 -2.2411 -2.8045
  676MOL0     H91247   6.924   4.903   2.407  0.7674  2.4879  0.1999
  676MOL0     H91248   6.736   4.545   2.547  1.8193  0.7171  0.4715
  676MOL0     H91249   6.595   4.355   2.570 -0.7603  2.2389 -2.5969
  676MOL0     H91250   6.459   4.114   2.502  3.0399  3.2001  3.2366
  676MOL0     H91251   6.524   4.242   2.386 -0.4669  0.3768  2.0722
  676MOL0     H91252   6.508   3.955   2.332  2.4652  0.2898  2.2322
  676MOL0     H91253   6.597   4.068   2.226  3.0504 -1.1805  2.0412
  676MOL0     H91254   6.378   4.180   2.170 -4.4491 -0.8159 -2.3543
  676MOL0     H91255   6.302   4.082   2.284 -0.0914  1.6400 -0.1285
  676MOL0     H91256   6.250   3.984   2.071 -0.6076  2.6117  0.6476
  676MOL0     H91257   6.359   3.875   2.161 -0.8426  0.0609 -1.3346
  676MOL0     H91258   6.564   4.031   1.808  0.2884  1.8148  0.8398
  676MOL0     H91259   6.906   4.110   2.396  1.3276 -0.6585  0.0923
  676MOL0     H91260   7.063   4.297   2.392 -0.8516 -1.8025 -0.2722
  677MOL0     O91261   1.815   9.400   2.334  0.8196 -0.2373  0.1394
  677MOL0     C91262   1.701   9.393   2.395 -0.9220 -0.2227 -0.5467
  677MOL0     O91263   1.575   9.404   2.345  0.0819  0.5662 -1.4344
  677MOL0     C91264   1.565   9.436   2.206  0.1329  0.7708 -1.2565
  677MOL0     C91265   1.499   9.542   2.151  0.3872 -0.5959  0.5472
  677MOL0     C91266   1.472   9.550   2.014 -0.1950 -0.1798  0.9973
  677MOL0     C91267   1.541   9.465   1.928  0.3781 -0.0273  0.3483
  677MOL0     O91268   1.526   9.496   1.798  0.6424  0.0327  0.0344
  677MOL0     C91269   1.484   9.389   1.708 -0.3706  0.6226  0.4322
  677MOL0     C91270   1.583   9.350   1.611  0.4190  0.3050  0.6082
  677MOL0     C91271   1.557   9.429   1.475 -0.4293 -0.0915 -0.2001
  677MOL0     C91272   1.674   9.400   1.383  0.6206 -0.9670  0.8047
  677MOL0     C91273   1.672   9.475   1.248 -0.4406 -0.1516 -0.8548
  677MOL0     C91274   1.766   9.400   1.153  0.4937  0.3406 -0.4830
  677MOL0     C91275   1.809   9.489   1.034 -0.2526 -0.4777  0.6374
  677MOL0     C91276   1.910   9.418   0.939  0.6184  0.7441  0.5070
  677MOL0     N91277   2.050   9.449   0.975 -0.2885  0.4164  0.1465
  677MOL0     C91278   2.124   9.537   0.902  1.1999 -0.7945  0.0990
  677MOL0     C91279   2.236   9.544   0.969  0.0190  0.3283 -0.4403
  677MOL0     C91280   2.360   9.604   0.909 -0.2082 -0.0609  0.1509
  677MOL0     C91281   2.376   9.754   0.933  0.4768 -0.6000 -0.9398
  677MOL0     C91282   2.419   9.786   1.079  0.2873  0.3763  0.6356
  677MOL0     C91283   2.564   9.737   1.104 -0.8061  0.7709  0.0232
  677MOL0     O91284   2.660   9.791   1.015  0.1797  0.1501  0.8765
  677MOL0     C91285   2.794   9.773   1.054 -0.3378 -0.1263 -0.4023
  677MOL0     C91286   2.892   9.818   0.964 -1.5236 -0.0480  0.3769
  677MOL0     C91287   3.025   9.784   0.979 -0.5166  0.5017  0.2891
  677MOL0     C91288   3.124   9.837   0.875  0.6580 -0.4119 -0.4755
  677MOL0     C91289   3.072   9.705   1.077  0.7843  0.3275 -0.6008
  677MOL0     C91290   3.209   9.654   1.100  0.0931 -0.2217  0.0895
  677MOL0     O91291   3.291   9.634   0.996  0.3824  0.1129  0.4743
  677MOL0     C91292   3.424   9.627   1.019 -0.3159  0.2214 -0.1835
  677MOL0     C91293   3.486   9.502   1.032  0.2513 -0.4630 -0.0722
  677MOL0     C91294   3.625   9.483   1.044 -0.1037  0.5664  0.8704
  677MOL0     C91295   3.710   9.599   1.058  0.6940  0.9046  0.2210
  677MOL0     O91296   3.842   9.577   1.068 -0.6608 -0.1979  0.2773
  677MOL0     C91297   3.939   9.678   1.032  0.3658 -0.1471 -0.2578
  677MOL0     C91298   4.079   9.623   1.079  0.2941  0.3691  0.1907
  677MOL0     C91299   4.194   9.709   1.027 -0.6109 -1.0186  1.3804
  677MOL0     C91300   4.313   9.725   1.124  0.4112  0.5159  0.1393
  677MOL0     C91301   4.390   9.595   1.124 -0.0118  0.9238 -0.5895
  677MOL0     C91302   4.536   9.587   1.183 -0.2270 -0.5684  0.5521
  677MOL0     C91303   4.636   9.660   1.092  0.8568 -0.6591  0.2446
  677MOL0     C91304   4.779   9.670   1.147  0.2835  0.1634  0.5505
  677MOL0    Cl91305   4.889   9.759   1.041 -0.2491 -0.1778 -0.3272
  677MOL0     C91306   3.652   9.718   1.055  0.4322 -0.3992 -0.4158
  677MOL0     C91307   3.513   9.739   1.032  1.1210 -0.0280  0.7247
  677MOL0     O91308   3.224   9.610   1.214  0.3104  0.3374  0.0010
  677MOL0     C91309   2.977   9.660   1.173  0.2027 -0.6193  0.5498
  677MOL0     C91310   2.838   9.687   1.156  0.0549  0.0982 -0.1222
  677MOL0     N91311   2.238   9.462   1.078  1.1462 -0.8351 -0.6716
  677MOL0     N91312   2.122   9.403   1.087  0.4160  0.0802 -0.3924
  677MOL0     C91313   1.608   9.357   1.983  0.1626 -0.2725 -0.3000
  677MOL0     C91314   1.612   9.340   2.122 -0.1045  0.2519 -0.3501
  677MOL0     C91315   1.702   9.369   2.540 -0.2383  1.0655  0.8664
  677MOL0     C91316   1.619   9.450   2.628 -0.1797  0.2630 -0.2985
  677MOL0     C91317   1.611   9.427   2.769  0.3189 -0.2418  0.9439
  677MOL0     C91318   1.681   9.325   2.823 -0.4412  0.3137 -0.6209
  677MOL0     O91319   1.683   9.314   2.964 -0.5632 -0.0867 -0.6793
  677MOL0     C91320   1.764   9.210   3.035  0.5928  0.7943  0.6864
  677MOL0     C91321   1.765   9.219   3.184  0.2450  0.6020  0.5707
  677MOL0     C91322   1.862   9.129   3.243  0.5781  0.3459  0.0961
  677MOL0     C91323   1.849   8.974   3.226  0.2447  0.5616  0.1293
  677MOL0     C91324   1.710   8.936   3.259 -0.6096 -0.1440 -0.9617
  677MOL0     C91325   1.596   8.927   3.298  0.0676  0.9751  0.2060
  677MOL0     C91326   1.775   9.249   2.738  0.2364  0.2363 -0.5818
  677MOL0     C91327   1.780   9.275   2.603  0.0708  0.5929 -0.0548
  677MOL0     H91328   1.441   9.606   2.216  0.5998  0.2679 -0.0943
  677MOL0     H91329   1.401   9.620   1.972  1.5492  2.1513  1.7399
  677MOL0     H91330   1.445   9.296   1.752 -2.4751  0.5312 -1.4288
  677MOL0     H91331   1.395   9.432   1.662 -2.6929  0.3314  4.2291
  677MOL0     H91332   1.685   9.378   1.639  1.7370 -0.6368 -2.8260
  677MOL0     H91333   1.590   9.244   1.585 -0.1520  0.1672  0.9883
  677MOL0     H91334   1.462   9.401   1.428  0.0063 -1.9086 -0.0731
  677MOL0     H91335   1.555   9.535   1.500 -1.8318  0.1251 -1.1271
  677MOL0     H91336   1.761   9.427   1.443 -0.9429  1.1911  2.2633
  677MOL0     H91337   1.671   9.292   1.365 -1.9485 -0.8635  0.3009
  677MOL0     H91338   1.570   9.490   1.212 -0.3610  0.9406 -0.6632
  677MOL0     H91339   1.721   9.572   1.260  0.0375 -0.5148  0.3077
  677MOL0     H91340   1.864   9.388   1.201  0.6200  2.8977  0.0464
  677MOL0     H91341   1.715   9.311   1.114 -1.0997  1.8319 -1.9823
  677MOL0     H91342   1.719   9.509   0.975 -0.4278 -1.0359  0.7175
  677MOL0     H91343   1.860   9.578   1.072 -0.1717 -0.4900  0.5560
  677MOL0     H91344   1.893   9.444   0.834  2.2642 -2.4054 -0.6666
  677MOL0     H91345   1.903   9.309   0.949  0.0957  0.5304 -1.6684
  677MOL0     H91346   2.101   9.575   0.803 -0.9955 -0.6856  0.6044
  677MOL0     H91347   2.447   9.548   0.945  0.4501 -0.2704 -1.6823
  677MOL0     H91348   2.362   9.582   0.802  1.6611 -2.0053  0.5085
  677MOL0     H91349   2.277   9.798   0.913 -0.3486 -1.4009  1.1080
  677MOL0     H91350   2.444   9.803   0.863 -0.3061 -0.1889 -1.4332
  677MOL0     H91351   2.354   9.740   1.153  1.1950 -0.1501  1.1215
  677MOL0     H91352   2.410   9.895   1.089 -3.5594  0.3359 -0.8160
  677MOL0     H91353   2.560   9.627   1.106  0.5373  0.6609 -1.4936
  677MOL0     H91354   2.593   9.767   1.205  0.2700  1.2231 -0.4102
  677MOL0     H91355   2.859   9.877   0.879  0.9465  2.6030  1.0949
  677MOL0     H91356   3.076   9.928   0.837 -0.7680  0.5878  3.2679
  677MOL0     H91357   3.225   9.853   0.916  1.5910 -3.2236 -1.4364
  677MOL0     H91358   3.139   9.760   0.799 -1.0083 -1.3282  0.0757
  677MOL0     H91359   3.417   9.431   0.986 -0.2884  1.0706 -1.7348
  677MOL0     H91360   3.669   9.384   1.036  0.5134  0.9944 -3.2823
  677MOL0     H91361   3.941   9.704   0.925  0.2654  1.7057  0.1581
  677MOL0     H91362   3.932   9.768   1.094  2.5874  0.2444 -0.4746
  677MOL0     H91363   4.078   9.624   1.189 -3.7055  2.0847  0.3157
  677MOL0     H91364   4.084   9.518   1.050 -1.5371  0.4810 -0.6966
  677MOL0     H91365   4.165   9.814   1.010 -1.5373 -1.3512  0.8562
  677MOL0     H91366   4.234   9.665   0.935 -3.1375  0.2838 -0.4629
  677MOL0     H91367   4.377   9.809   1.096 -1.1343  1.3608 -1.0026
  677MOL0     H91368   4.267   9.745   1.222  0.6879 -1.8380  0.8100
  677MOL0     H91369   4.398   9.552   1.024  1.6375  0.6209 -0.3707
  677MOL0     H91370   4.331   9.521   1.178  0.8729  0.9584  0.4692
  677MOL0     H91371   4.546   9.622   1.286  1.0750 -0.6250  0.4622
  677MOL0     H91372   4.566   9.482   1.178  2.3772  0.1550 -2.2963
  677MOL0     H91373   4.606   9.763   1.070 -0.2767  0.3753  5.3274
  677MOL0     H91374   4.642   9.607   0.996  0.3695 -0.0869 -0.1096
  677MOL0     H91375   4.816   9.567   1.152 -1.7897 -0.7155 -0.5898
  677MOL0     H91376   4.782   9.721   1.244  1.4697 -0.8779  1.0936
  677MOL0     H91377   3.716   9.805   1.065  1.4553 -1.0742 -0.8043
  677MOL0     H91378   3.486   9.843   1.025  2.0762  0.1092 -1.4242
  677MOL0     H91379   2.994   9.609   1.267  0.2819  2.2648  2.2311
  677MOL0     H91380   2.778   9.649   1.238  1.1768 -0.0703  0.6479
  677MOL0     H91381   1.667   9.295   1.916  0.3811  1.3257 -1.6549
  677MOL0     H91382   1.676   9.258   2.154  1.2397  1.4738  0.2391
  677MOL0     H91383   1.569   9.536   2.585  1.3520  1.4925  0.2717
  677MOL0     H91384   1.549   9.483   2.838  0.4919  1.8520 -0.4953
  677MOL0     H91385   1.719   9.113   3.015 -1.6579  1.1165  3.6045
  677MOL0     H91386   1.866   9.217   2.995 -0.0114  2.4838 -0.7176
  677MOL0     H91387   1.663   9.192   3.214  0.8785 -1.1128  1.2794
  677MOL0     H91388   1.801   9.316   3.220  0.7105 -0.3842  2.9484
  677MOL0     H91389   1.863   9.154   3.350 -1.0136  2.2899 -0.2936
  677MOL0     H91390   1.958   9.160   3.201 -0.4786 -0.2658 -3.0082
  677MOL0     H91391   1.926   8.919   3.281  1.6316  1.1903 -1.0881
  677MOL0     H91392   1.864   8.944   3.122 -1.1816 -0.2034  0.1294
  677MOL0     H91393   1.491   8.919   3.322 -0.6237  0.1158 -2.7020
  677MOL0     H91394   1.827   9.161   2.773  3.9149  2.2203 -0.5239
  677MOL0     H91395   1.843   9.214   2.539  0.9268 -0.1102  1.4042
  678MOL0     O91396   0.000   4.091   8.950  0.3714  0.0851  0.2107
  678MOL0     C91397   0.058   4.193   8.990  0.1217 -0.8257 -0.1526
  678MOL0     O91398  -0.005   4.298   9.051  0.5977 -0.6155  0.6999
  678MOL0     C91399  -0.135   4.292   9.078 -0.5755  0.2025 -1.0027
  678MOL0     C91400  -0.217   4.329   8.972  0.8051 -0.7909  1.4206
  678MOL0     C91401  -0.350   4.311   8.984  0.6964 -0.3699  0.6315
  678MOL0     C91402  -0.406   4.271   9.102 -0.1028  0.0535  0.2498
  678MOL0     O91403  -0.542   4.261   9.117 -0.1495  0.1020 -0.1711
  678MOL0     C91404  -0.634   4.260   9.003 -0.1615 -0.2715 -0.3719
  678MOL0     C91405  -0.765   4.204   9.049 -0.7211  0.2245  0.2362
  678MOL0     C91406  -0.847   4.290   9.148  0.2082  0.5055 -0.2692
  678MOL0     C91407  -0.924   4.413   9.098 -0.0335  0.7424 -0.0791
  678MOL0     C91408  -0.992   4.488   9.213  0.0660 -0.3945 -0.0941
  678MOL0     C91409  -1.024   4.635   9.155 -0.1598 -0.5043 -0.4398
  678MOL0     C91410  -1.080   4.724   9.265  0.1282  0.5956  0.3110
  678MOL0     C91411  -1.220   4.678   9.305  0.3691 -0.9335  0.3826
  678MOL0     N91412  -1.318   4.688   9.199 -0.1744 -0.8199  0.2759
  678MOL0     C91413  -1.424   4.606   9.176 -1.2547 -1.1788 -0.3100
  678MOL0     C91414  -1.512   4.686   9.110  0.3248  0.8518 -0.6887
  678MOL0     C91415  -1.665   4.650   9.073 -0.4441 -0.3932 -0.3905
  678MOL0     C91416  -1.774   4.710   9.161 -0.0269 -1.0698 -1.0891
  678MOL0     C91417  -1.905   4.724   9.091  0.9157  0.7402 -0.0168
  678MOL0     C91418  -2.026   4.754   9.181 -0.4598  0.4067 -0.3819
  678MOL0     O91419  -2.115   4.649   9.170 -0.1659 -0.0688  0.5175
  678MOL0     C91420  -2.248   4.678   9.179  0.3529 -0.3612  0.9375
  678MOL0     C91421  -2.306   4.781   9.259  0.1773  0.2910 -0.1567
  678MOL0     C91422  -2.448   4.806   9.251  0.5584  0.3238  0.2734
  678MOL0     C91423  -2.494   4.906   9.354  0.1441 -0.7433 -1.1838
  678MOL0     C91424  -2.534   4.721   9.170 -0.3339 -0.0554 -0.3423
  678MOL0     C91425  -2.677   4.746   9.143  0.7614 -0.2245 -0.9735
  678MOL0     O91426  -2.753   4.644   9.101 -0.0052  0.5270  0.4472
  678MOL0     C91427  -2.888   4.656   9.086 -0.3568  1.1151  0.8180
  678MOL0     C91428  -2.943   4.687   8.958 -0.7772  0.0617 -0.6639
  678MOL0     C91429  -3.078   4.698   8.942  0.5908 -0.7784 -0.3816
  678MOL0     C91430  -3.169   4.693   9.057 -0.3603 -0.4281 -0.7081
  678MOL0     O91431  -3.299   4.723   9.045 -0.3923 -0.5226  0.7357
  678MOL0     C91432  -3.360   4.773   8.923 -0.0605 -0.5589 -0.0539
  678MOL0     C91433  -3.502   4.794   8.964 -0.1476 -0.7675 -0.3756
  678MOL0     C91434  -3.578   4.863   8.853  0.8047 -0.1946  0.0272
  678MOL0     C91435  -3.721   4.879   8.905  0.5036  0.0610  0.1421
  678MOL0     C91436  -3.827   4.942   8.813 -0.0195 -0.5348  0.3416
  678MOL0     C91437  -3.968   4.934   8.873 -0.0620 -0.0412  1.3326
  678MOL0     C91438  -4.053   4.960   8.753  0.5749  0.1512 -0.0032
  678MOL0     C91439  -4.199   4.973   8.801  0.0946  0.2710  0.5584
  678MOL0    Cl91440  -4.313   4.910   8.679 -0.7352  0.2754 -0.2220
  678MOL0     C91441  -3.115   4.675   9.182 -0.0989 -0.2132 -0.0085
  678MOL0     C91442  -2.978   4.658   9.199  0.9400 -0.1300  0.2295
  678MOL0     O91443  -2.718   4.860   9.152  0.1300 -1.2785 -0.3937
  678MOL0     C91444  -2.473   4.614   9.108 -0.2572 -0.6432 -0.4075
  678MOL0     C91445  -2.337   4.597   9.107 -0.1863  0.9652  0.7078
  678MOL0     N91446  -1.466   4.815   9.094 -0.3563  0.3714  0.0132
  678MOL0     N91447  -1.354   4.812   9.154 -0.1176 -0.5738 -0.5135
  678MOL0     C91448  -0.331   4.239   9.215 -0.3719 -0.1234 -0.6339
  678MOL0     C91449  -0.189   4.248   9.200  1.1170  0.4068  0.1889
  678MOL0     C91450   0.211   4.204   8.976 -0.4150 -0.2679  0.6368
  678MOL0     C91451   0.273   4.307   9.044 -0.7583 -0.7626  0.6364
  678MOL0     C91452   0.411   4.329   9.032 -0.6967  0.3254 -0.6253
  678MOL0     C91453   0.497   4.235   8.978  0.3882  0.1179 -0.6888
  678MOL0     O91454   0.636   4.234   8.978 -0.0549  0.4781 -0.3621
  678MOL0     C91455   0.712   4.304   9.070  0.0326  0.3280 -0.2985
  678MOL0     C91456   0.857   4.283   9.037 -0.4088  0.2569  0.2749
  678MOL0     C91457   0.909   4.160   9.116 -0.1239 -0.1984  0.1624
  678MOL0     C91458   1.059   4.126   9.091  0.5034  0.2288  0.4215
  678MOL0     C91459   1.101   4.151   8.954  1.5070 -1.2443  0.7101
  678MOL0     C91460   1.134   4.166   8.841 -0.2689  0.6774 -0.4206
  678MOL0     C91461   0.434   4.126   8.912  0.0174 -0.3559  0.2307
  678MOL0     C91462   0.294   4.110   8.915  0.5063  0.3570 -0.5430
  678MOL0     H91463  -0.167   4.371   8.885  2.0690 -0.6410  2.1947
  678MOL0     H91464  -0.408   4.330   8.895  1.2535  2.2787  0.7429
  678MOL0     H91465  -0.646   4.365   8.974  0.5564 -0.6484 -2.1340
  678MOL0     H91466  -0.600   4.185   8.931 -1.1981 -0.0028 -1.1680
  678MOL0     H91467  -0.828   4.174   8.965 -1.4737 -2.2602  1.5601
  678MOL0     H91468  -0.742   4.108   9.096  2.0372  1.7085  2.1927
  678MOL0     H91469  -0.917   4.218   9.192  1.9763 -0.3293  1.3239
  678MOL0     H91470  -0.790   4.320   9.236  0.2449 -1.5959  0.4745
  678MOL0     H91471  -0.854   4.471   9.038 -0.3547 -0.3913 -1.6225
  678MOL0     H91472  -0.996   4.374   9.025 -1.3795  0.3016  1.4339
  678MOL0     H91473  -1.086   4.441   9.243  0.5391 -2.0725 -1.1137
  678MOL0     H91474  -0.919   4.491   9.295 -1.3205 -0.7754  1.1867
  678MOL0     H91475  -0.934   4.691   9.127 -0.2689  0.4805  1.0338
  678MOL0     H91476  -1.097   4.636   9.074  0.0289  1.4162 -0.6164
  678MOL0     H91477  -1.013   4.714   9.351  0.0251  3.4624  0.8275
  678MOL0     H91478  -1.066   4.831   9.248  1.4983  0.2617 -0.9012
  678MOL0     H91479  -1.256   4.728   9.396  0.3185 -1.2748  0.5527
  678MOL0     H91480  -1.219   4.577   9.346 -1.4079 -0.5944  1.3529
  678MOL0     H91481  -1.432   4.500   9.194 -2.0039 -1.0636  0.0914
  678MOL0     H91482  -1.678   4.682   8.969 -0.0876 -0.0050 -0.3176
  678MOL0     H91483  -1.686   4.543   9.067 -2.2285 -0.1389  0.6721
  678MOL0     H91484  -1.726   4.802   9.197  2.0544 -2.2902 -0.5723
  678MOL0     H91485  -1.791   4.649   9.251 -0.2406 -1.1937 -1.2134
  678MOL0     H91486  -1.935   4.641   9.027 -2.3038  2.8313 -1.5105
  678MOL0     H91487  -1.884   4.806   9.021 -2.1966  0.8783 -0.9893
  678MOL0     H91488  -2.063   4.850   9.143  2.3858  2.4420  1.4760
  678MOL0     H91489  -1.989   4.775   9.282 -0.8411  1.4102 -0.4315
  678MOL0     H91490  -2.256   4.848   9.329 -2.1947  0.4066  1.5264
  678MOL0     H91491  -2.489   4.863   9.455  1.8588  1.1370 -0.4193
  678MOL0     H91492  -2.444   5.002   9.350  1.5738 -1.4194 -0.2934
  678MOL0     H91493  -2.602   4.923   9.358 -0.2318 -2.9262  0.5807
  678MOL0     H91494  -2.871   4.711   8.880  0.2082 -2.1611 -0.5269
  678MOL0     H91495  -3.106   4.724   8.840 -0.4679 -1.4871 -0.2927
  678MOL0     H91496  -3.320   4.872   8.899  0.5744 -0.4600  1.3281
  678MOL0     H91497  -3.350   4.703   8.840 -1.7149 -1.5748  0.5373
  678MOL0     H91498  -3.529   4.690   8.984  2.4939 -1.1285  1.9100
  678MOL0     H91499  -3.508   4.851   9.058  1.3620 -1.3791  0.1134
  678MOL0     H91500  -3.573   4.796   8.766 -1.4958  0.8043 -0.9438
  678MOL0     H91501  -3.540   4.962   8.827 -0.1071  0.8506  2.4435
  678MOL0     H91502  -3.763   4.785   8.943 -3.6464  2.0135  0.8793
  678MOL0     H91503  -3.728   4.940   8.996 -0.1102  1.1597 -0.6280
  678MOL0     H91504  -3.814   4.903   8.711 -2.2459  0.0533 -0.2110
  678MOL0     H91505  -3.791   5.044   8.799  3.3151 -1.8406 -2.0375
  678MOL0     H91506  -3.996   4.839   8.919  1.9182 -1.5575 -0.4353
  678MOL0     H91507  -3.979   5.008   8.953 -3.1096  1.3677 -0.1917
  678MOL0     H91508  -4.055   4.889   8.669  0.0905 -0.6711  0.6925
  678MOL0     H91509  -4.026   5.058   8.712  0.6110  0.7812  1.4692
  678MOL0     H91510  -4.227   5.074   8.834 -0.1632  0.7761 -1.1025
  678MOL0     H91511  -4.205   4.917   8.895 -0.4069 -0.8734 -0.1347
  678MOL0     H91512  -3.180   4.683   9.268 -0.4394  0.1455 -0.2986
  678MOL0     H91513  -2.945   4.646   9.302 -2.8741 -1.9879  1.4147
  678MOL0     H91514  -2.536   4.556   9.041 -1.2473  2.5850 -2.4872
  678MOL0     H91515  -2.286   4.526   9.042  0.2387  3.1709 -1.5364
  678MOL0     H91516  -0.383   4.206   9.304 -0.7599  0.6803 -0.5481
  678MOL0     H91517  -0.133   4.222   9.289  0.6440 -0.8346  0.1337
  678MOL0     H91518   0.215   4.383   9.096 -1.7826 -1.0053 -0.1199
  678MOL0     H91519   0.463   4.411   9.082  0.9577 -0.4262 -1.0597
  678MOL0     H91520   0.680   4.409   9.064  2.0854  0.9917 -0.2334
  678MOL0     H91521   0.683   4.269   9.169 -2.7047  0.6388 -0.9113
  678MOL0     H91522   0.912   4.374   9.061 -1.3012  0.1461  3.0698
  678MOL0     H91523   0.869   4.273   8.928 -0.5230  2.8385 -0.0204
  678MOL0     H91524   0.847   4.072   9.094  0.5958 -0.8734  0.7597
  678MOL0     H91525   0.897   4.185   9.222  2.3300 -0.1588  0.4776
  678MOL0     H91526   1.062   4.019   9.114 -0.6431  0.8060  3.9307
  678MOL0     H91527   1.118   4.189   9.159 -0.1610  0.5877  0.6763
  678MOL0     H91528   1.152   4.180   8.737 -1.8373 -2.6219 -1.2551
  678MOL0     H91529   0.486   4.060   8.844 -0.7862  0.6030 -1.3814
  678MOL0     H91530   0.248   4.024   8.866 -1.9345  0.9261  0.6409
  679MOL0     O91531   3.920   7.642  10.229 -0.1670  0.5228  0.7445
  679MOL0     C91532   3.799   7.640  10.238  0.6089  0.2517  1.5945
  679MOL0     O91533   3.719   7.757  10.238  0.1403  0.2560 -0.7618
  679MOL0     C91534   3.779   7.873  10.215  0.1404 -1.5585  0.6289
  679MOL0     C91535   3.831   7.897  10.086  0.4353 -0.1247 -0.3436
  679MOL0     C91536   3.899   8.023  10.062 -0.6053 -0.7149 -0.4669
  679MOL0     C91537   3.896   8.129  10.155  0.6378 -0.6345  0.3827
  679MOL0     O91538   3.943   8.255  10.123 -0.4206 -0.0494  0.0564
  679MOL0     C91539   3.857   8.372  10.153 -0.2426  0.0696  0.5705
  679MOL0     C91540   3.906   8.482  10.059 -0.4473 -0.3685  0.0463
  679MOL0     C91541   3.797   8.594  10.035  0.1707  0.0235 -0.5989
  679MOL0     C91542   3.824   8.703  10.135  0.5494 -0.8416  1.0762
  679MOL0     C91543   3.727   8.827  10.118  0.5482 -0.6555 -0.4694
  679MOL0     C91544   3.714   8.898  10.254  0.1124 -0.1686 -0.1200
  679MOL0     C91545   3.634   9.022  10.239  0.7506  0.0032 -0.6572
  679MOL0     C91546   3.687   9.146  10.327  0.3135  0.8274  0.0021
  679MOL0     N91547   3.618   9.148  10.450 -0.0477  0.2539 -0.6129
  679MOL0     C91548   3.489   9.181  10.472  0.0240 -0.7809  0.4408
  679MOL0     C91549   3.465   9.125  10.593 -0.2822  0.4898  0.3300
  679MOL0     C91550   3.343   9.105  10.671  0.3307 -0.3838 -0.5851
  679MOL0     C91551   3.322   9.197  10.796  0.0563  0.5681 -0.5474
  679MOL0     C91552   3.334   9.349  10.757  0.1323 -0.0309  0.5197
  679MOL0     C91553   3.329   9.452  10.871  0.6906 -0.5841  0.0071
  679MOL0     O91554   3.221   9.432  10.957 -0.1120 -0.3583 -0.5802
  679MOL0     C91555   3.111   9.520  10.937 -0.0281 -0.0074 -0.9059
  679MOL0     C91556   3.068   9.579  10.816 -0.7827  0.5592  0.3091
  679MOL0     C91557   2.955   9.667  10.803 -1.2719 -0.3705  0.1981
  679MOL0     C91558   2.948   9.739  10.671 -1.2803 -0.0694  0.9051
  679MOL0     C91559   2.874   9.697  10.910 -0.0575  0.0613 -0.2351
  679MOL0     C91560   2.770   9.797  10.913 -0.1602  0.3134 -0.1639
  679MOL0     O91561   2.742   9.860  11.035 -0.2302  0.4855  0.0462
  679MOL0     C91562   2.637   9.950  11.041  0.3963  0.8019  0.5643
  679MOL0     C91563   2.504   9.923  10.991  0.7044 -0.1662 -0.1959
  679MOL0     C91564   2.398  10.008  11.007  0.3884  0.0898  0.1013
  679MOL0     C91565   2.412  10.128  11.073 -0.7773 -0.4041  1.0525
  679MOL0     O91566   2.302  10.209  11.108  0.5908 -0.2485  0.9466
  679MOL0     C91567   2.177  10.183  11.040 -0.0990  0.7122  0.3645
  679MOL0     C91568   2.077  10.281  11.097  0.0926 -0.3267 -0.1041
  679MOL0     C91569   2.117  10.427  11.068  0.3229 -0.1621  0.4327
  679MOL0     C91570   2.018  10.535  11.108  1.1231  0.1204  0.1459
  679MOL0     C91571   2.073  10.681  11.094  0.4039  0.5119 -0.1255
  679MOL0     C91572   2.062  10.735  10.949  0.8465 -0.8130 -0.0218
  679MOL0     C91573   2.127  10.872  10.934  0.7199 -0.0195  0.2321
  679MOL0     C91574   2.038  10.985  10.973  0.3753  0.2997 -1.0105
  679MOL0    Cl91575   2.084  11.137  10.908 -0.1470 -0.0378 -0.1983
  679MOL0     C91576   2.543  10.161  11.126 -1.2180 -0.0861 -0.1977
  679MOL0     C91577   2.648  10.067  11.108 -0.3960  0.2728  0.4688
  679MOL0     O91578   2.715   9.814  10.801 -0.0390 -0.5968  0.1954
  679MOL0     C91579   2.922   9.640  11.034  0.4244  0.6131 -0.6953
  679MOL0     C91580   3.035   9.560  11.047 -0.7605  0.7092  0.4009
  679MOL0     N91581   3.578   9.062  10.641  0.2325 -0.3868 -0.3928
  679MOL0     N91582   3.672   9.067  10.551  0.1661  0.1084 -0.0046
  679MOL0     C91583   3.839   8.100  10.281 -0.1395  0.9461 -0.4090
  679MOL0     C91584   3.789   7.971  10.322  0.0514  1.3662  0.4812
  679MOL0     C91585   3.732   7.505  10.219  0.5067 -0.3489 -0.5103
  679MOL0     C91586   3.810   7.391  10.184  1.6074 -1.0221  1.2495
  679MOL0     C91587   3.757   7.271  10.177 -0.4164 -0.0901 -0.8650
  679MOL0     C91588   3.619   7.253  10.195 -0.0768 -0.5940 -0.0006
  679MOL0     O91589   3.546   7.132  10.182 -0.4335  0.1536  0.4855
  679MOL0     C91590   3.600   7.007  10.201  0.5549  0.4572 -0.0995
  679MOL0     C91591   3.513   6.909  10.274  0.0073  0.0458 -0.4628
  679MOL0     C91592   3.374   6.889  10.208  0.7435 -0.1136  0.2027
  679MOL0     C91593   3.311   6.743  10.228 -0.2597 -0.1100 -0.3862
  679MOL0     C91594   3.180   6.735  10.163  0.4460 -0.7391 -0.0929
  679MOL0     C91595   3.072   6.714  10.104  0.7184 -0.8700  0.9699
  679MOL0     C91596   3.540   7.364  10.229  0.5584 -0.9811 -0.5911
  679MOL0     C91597   3.587   7.495  10.239  0.0069 -0.1634  0.2068
  679MOL0     H91598   3.823   7.809  10.023  2.7320 -3.0504  3.0598
  679MOL0     H91599   3.954   8.041   9.970 -1.0841  0.9726 -0.4572
  679MOL0     H91600   3.755   8.344  10.125  0.8060 -2.1185 -1.3910
  679MOL0     H91601   3.866   8.398  10.258  4.7031 -0.0331  0.3845
  679MOL0     H91602   4.007   8.514  10.088 -0.2412 -1.7853  0.9934
  679MOL0     H91603   3.920   8.434   9.961  1.1743 -2.8812  1.3775
  679MOL0     H91604   3.798   8.641   9.936 -0.7447 -0.0577 -0.6576
  679MOL0     H91605   3.697   8.551  10.039 -0.2840  1.1624  1.6021
  679MOL0     H91606   3.811   8.653  10.232  1.1314  0.3554  1.8004
  679MOL0     H91607   3.930   8.728  10.126  0.2014  1.9115  2.9640
  679MOL0     H91608   3.773   8.893  10.044  1.6399 -3.4082 -2.3836
  679MOL0     H91609   3.636   8.782  10.079 -1.2833  1.3780  1.1649
  679MOL0     H91610   3.658   8.835  10.323 -3.1523  2.2195 -0.3599
  679MOL0     H91611   3.816   8.918  10.288  0.6548 -1.2394 -1.0277
  679MOL0     H91612   3.612   9.047  10.135  0.0421  0.2443 -0.4575
  679MOL0     H91613   3.533   8.999  10.275 -0.2106  2.4134 -1.6160
  679MOL0     H91614   3.658   9.230  10.264 -1.9213  0.2847  0.2380
  679MOL0     H91615   3.796   9.142  10.342  0.0130 -0.3868  2.4629
  679MOL0     H91616   3.426   9.238  10.404  0.1849 -0.8122  0.2641
  679MOL0     H91617   3.262   9.120  10.599 -1.3022  1.6042  1.5138
  679MOL0     H91618   3.325   9.001  10.701 -3.7414 -0.0928 -1.4713
  679MOL0     H91619   3.389   9.170  10.878 -0.6158 -1.6486 -0.6618
  679MOL0     H91620   3.224   9.169  10.836  0.2576 -0.9426 -1.0462
  679MOL0     H91621   3.252   9.370  10.688  0.7080 -4.0460 -1.6966
  679MOL0     H91622   3.431   9.356  10.707 -0.3662 -1.6856 -0.7704
  679MOL0     H91623   3.319   9.552  10.829 -1.7566 -1.0045 -0.5577
  679MOL0     H91624   3.424   9.451  10.926  1.1081  1.0007 -0.6593
  679MOL0     H91625   3.127   9.558  10.727 -2.9431 -4.5797 -0.2164
  679MOL0     H91626   2.848   9.757  10.629 -1.6751 -2.0650  0.8893
  679MOL0     H91627   2.984   9.842  10.682 -0.8309 -0.2924  1.5322
  679MOL0     H91628   3.005   9.690  10.592 -0.5596  2.9248 -0.5971
  679MOL0     H91629   2.491   9.824  10.950  4.6588 -0.5298 -0.9366
  679MOL0     H91630   2.302   9.975  10.967  0.0500  0.7826  0.3222
  679MOL0     H91631   2.184  10.195  10.931 -2.6974  0.3627  0.0896
  679MOL0     H91632   2.140  10.086  11.074  1.3162  0.3403  0.8891
  679MOL0     H91633   1.978  10.253  11.059 -0.7466 -0.5582  2.1007
  679MOL0     H91634   2.061  10.267  11.204 -1.2966 -1.5806 -0.4441
  679MOL0     H91635   2.150  10.433  10.964  1.3350 -1.3163  0.6572
  679MOL0     H91636   2.200  10.451  11.136 -0.5166  0.5150  1.2448
  679MOL0     H91637   1.919  10.520  11.063 -1.2770  0.6003  4.6707
  679MOL0     H91638   2.001  10.521  11.215 -5.1333 -1.4766 -0.6449
  679MOL0     H91639   2.177  10.670  11.124  0.5270 -4.7138 -1.4797
  679MOL0     H91640   2.020  10.757  11.152 -0.7338  1.5000 -2.3197
  679MOL0     H91641   2.114  10.662  10.887  2.9625 -0.8667  1.7020
  679MOL0     H91642   1.954  10.732  10.931  0.3128  0.4934  2.5088
  679MOL0     H91643   2.145  10.891  10.828  1.1277 -0.4240  0.2294
  679MOL0     H91644   2.227  10.878  10.977  1.5704 -2.0174 -1.3077
  679MOL0     H91645   2.035  10.992  11.082 -0.2543  1.2709 -1.0663
  679MOL0     H91646   1.933  10.975  10.943 -0.3878  2.5024  0.6219
  679MOL0     H91647   2.561  10.246  11.190 -1.7607  0.5729 -0.9001
  679MOL0     H91648   2.741  10.097  11.155  0.3287 -2.7612  1.2127
  679MOL0     H91649   2.868   9.662  11.126  1.5664  1.3405 -0.1744
  679MOL0     H91650   3.076   9.535  11.145 -0.3330 -1.6039 -0.3074
  679MOL0     H91651   3.831   8.178  10.356 -0.6120 -0.8976  1.5677
  679MOL0     H91652   3.746   7.951  10.419  1.8205  3.1366  1.6951
  679MOL0     H91653   3.917   7.405  10.174  1.3909  0.9809  1.4267
  679MOL0     H91654   3.820   7.189  10.144 -0.6007 -0.5189 -0.1781
  679MOL0     H91655   3.637   6.970  10.104 -0.7689 -0.5027 -0.2631
  679MOL0     H91656   3.692   7.013  10.259  0.0321  0.6237  0.7244
  679MOL0     H91657   3.497   6.940  10.378  0.8803  0.0555 -0.3279
  679MOL0     H91658   3.582   6.824  10.271 -0.9471 -0.7935  0.3625
  679MOL0     H91659   3.387   6.918  10.103 -1.6126 -0.5107 -0.2483
  679MOL0     H91660   3.295   6.958  10.238 -0.8330 -1.5847 -0.3993
  679MOL0     H91661   3.306   6.720  10.335  1.5271 -0.7184 -0.4097
  679MOL0     H91662   3.373   6.661  10.191 -0.1593 -0.1628 -0.1047
  679MOL0     H91663   2.976   6.723  10.056  1.8583 -0.8664 -1.4467
  679MOL0     H91664   3.442   7.337  10.266  0.0808 -0.2689 -1.3212
  679MOL0     H91665   3.522   7.577  10.268  0.8671  0.8348 -0.6093
  680MOL0     O91666   9.005   0.943  10.884 -0.0064  0.2350  0.3279
  680MOL0     C91667   8.887   0.939  10.859 -0.3729  0.4761  0.4373
  680MOL0     O91668   8.811   1.039  10.810 -0.5413  0.4346  0.5570
  680MOL0     C91669   8.876   1.156  10.799 -0.1418 -0.6645  0.1510
  680MOL0     C91670   8.891   1.247  10.904  0.7159 -0.2457 -1.1293
  680MOL0     C91671   8.955   1.367  10.887 -1.2008  0.4806  0.1293
  680MOL0     C91672   9.003   1.407  10.759  0.4222 -1.0586 -0.4244
  680MOL0     O91673   9.055   1.533  10.750  0.8971 -0.3844 -0.7115
  680MOL0     C91674   9.167   1.585  10.831  0.1200 -0.1278 -0.4617
  680MOL0     C91675   9.122   1.699  10.930 -0.2660 -0.9134  0.2881
  680MOL0     C91676   9.058   1.820  10.854  0.4397 -0.2987 -0.2747
  680MOL0     C91677   9.107   1.955  10.902 -0.6567 -0.7459  0.2481
  680MOL0     C91678   9.058   1.984  11.040 -0.5468  0.1080 -1.6608
  680MOL0     C91679   9.091   2.120  11.101  0.9254 -0.0358  0.1838
  680MOL0     C91680   9.051   2.108  11.247 -0.0256 -0.1113 -0.6112
  680MOL0     C91681   9.104   2.224  11.332  0.0993 -1.0297  0.4484
  680MOL0     N91682   9.248   2.215  11.348  0.1575  0.0897  0.1827
  680MOL0     C91683   9.311   2.123  11.419  0.8810 -0.0547 -0.3366
  680MOL0     C91684   9.435   2.177  11.447 -0.4046 -0.7934  0.4753
  680MOL0     C91685   9.532   2.129  11.547 -0.9346 -0.6417 -0.1872
  680MOL0     C91686   9.631   2.028  11.487  0.2666 -0.3618 -0.3961
  680MOL0     C91687   9.768   2.087  11.444 -0.7695  0.3393 -0.1683
  680MOL0     C91688   9.882   1.979  11.432 -0.2925 -0.6385 -0.0717
  680MOL0     O91689   9.890   1.921  11.563  0.2693 -0.2324  0.0082
  680MOL0     C91690   9.973   1.807  11.581 -0.5462 -1.0798  0.2951
  680MOL0     C91691  10.077   1.776  11.489 -0.5735  0.1360 -0.3462
  680MOL0     C91692  10.163   1.662  11.507 -0.5201 -0.7783 -0.8228
  680MOL0     C91693  10.274   1.634  11.404  0.6362 -0.0395 -0.2097
  680MOL0     C91694  10.140   1.577  11.622 -0.5120 -0.9237 -0.6634
  680MOL0     C91695  10.223   1.456  11.649 -0.3420 -0.3023 -0.0856
  680MOL0     O91696  10.172   1.352  11.714 -0.0574  0.1532 -0.5024
  680MOL0     C91697  10.242   1.242  11.747  0.0741 -0.4107  0.3111
  680MOL0     C91698  10.238   1.118  11.676  0.3524 -0.3025 -0.2742
  680MOL0     C91699  10.306   1.005  11.727 -0.0375 -0.2814  0.0946
  680MOL0     C91700  10.375   1.005  11.837  0.0690 -0.3878  0.3705
  680MOL0     O91701  10.447   0.889  11.854 -0.3145  0.1313  0.5538
  680MOL0     C91702  10.556   0.884  11.945  0.2759 -0.5375 -0.4810
  680MOL0     C91703  10.494   0.848  12.079 -0.1196  0.0635  0.6011
  680MOL0     C91704  10.409   0.721  12.091 -0.1099 -0.2180  0.9156
  680MOL0     C91705  10.358   0.696  12.234  0.4813  1.3057  0.1092
  680MOL0     C91706  10.458   0.635  12.332  0.1110 -0.3894  0.9604
  680MOL0     C91707  10.399   0.630  12.472  0.5614  0.4388 -0.7268
  680MOL0     C91708  10.398   0.769  12.547 -0.3156  0.1428  0.0979
  680MOL0     C91709  10.361   0.758  12.698 -0.8936 -0.2911 -0.6345
  680MOL0    Cl91710  10.439   0.877  12.803 -0.1910  0.3659 -0.6143
  680MOL0     C91711  10.386   1.127  11.907  0.6005  0.2043  0.9488
  680MOL0     C91712  10.321   1.242  11.867 -0.6848  0.9448 -0.3272
  680MOL0     O91713  10.344   1.477  11.636  0.0145  0.0239  0.3732
  680MOL0     C91714  10.040   1.613  11.712 -0.6134 -0.2208  0.5154
  680MOL0     C91715   9.956   1.724  11.699  0.8516  0.6088  0.2637
  680MOL0     N91716   9.449   2.284  11.358 -1.4396 -1.0754  0.5306
  680MOL0     N91717   9.333   2.314  11.307 -0.4842  0.2869 -0.0496
  680MOL0     C91718   8.977   1.320  10.656 -0.1115 -0.2541 -0.1942
  680MOL0     C91719   8.921   1.200  10.675 -0.0343  0.5523  0.2281
  680MOL0     C91720   8.802   0.815  10.871  0.0060  0.1793  0.2056
  680MOL0     C91721   8.862   0.698  10.909 -0.4657 -0.4612  0.0511
  680MOL0     C91722   8.785   0.575  10.904  0.1994  0.6205 -0.2797
  680MOL0     C91723   8.653   0.575  10.872  1.2573 -0.0762 -0.4989
  680MOL0     O91724   8.577   0.465  10.839  1.0088  1.2982 -0.0129
  680MOL0     C91725   8.639   0.331  10.841  0.0976 -0.2220 -0.8584
  680MOL0     C91726   8.724   0.287  10.725 -0.1946 -1.1365  0.6171
  680MOL0     C91727   8.792   0.152  10.744 -0.1999 -0.0395 -0.3253
  680MOL0     C91728   8.905   0.125  10.634 -1.1394 -0.0912 -0.0061
  680MOL0     C91729   8.847   0.079  10.512  0.3429  0.2523  0.4366
  680MOL0     C91730   8.782   0.030  10.427 -0.2888  1.1542 -0.0137
  680MOL0     C91731   8.587   0.697  10.843 -0.7184 -0.4862 -0.2655
  680MOL0     C91732   8.662   0.821  10.862  0.1605  0.1690 -0.7384
  680MOL0     H91733   8.857   1.221  11.004 -1.2347  1.9415 -1.1278
  680MOL0     H91734   8.969   1.430  10.974  0.8230  1.9782 -1.1712
  680MOL0     H91735   9.203   1.508  10.900  1.7684  0.7285 -0.3240
  680MOL0     H91736   9.245   1.622  10.764  0.4257  0.5915  0.2713
  680MOL0     H91737   9.042   1.660  10.994 -0.2620 -1.0771  0.1921
  680MOL0     H91738   9.206   1.724  10.995  1.1798 -1.8266 -1.1590
  680MOL0     H91739   9.085   1.812  10.749 -1.1618 -0.9091 -0.6637
  680MOL0     H91740   8.949   1.825  10.855  0.4287  0.1822 -1.8464
  680MOL0     H91741   9.216   1.956  10.891 -0.8441  2.1016 -3.7714
  680MOL0     H91742   9.068   2.028  10.830  1.0952  1.3892  1.3430
  680MOL0     H91743   8.950   1.967  11.040 -0.4127 -0.8575 -2.3805
  680MOL0     H91744   9.114   1.915  11.104  2.5199  1.1269 -3.0491
  680MOL0     H91745   9.196   2.142  11.079  0.5771  1.7347  0.1586
  680MOL0     H91746   9.018   2.191  11.062 -1.2591 -2.3954 -0.3006
  680MOL0     H91747   8.941   2.111  11.254 -0.1664 -3.0621  0.1708
  680MOL0     H91748   9.076   2.012  11.295 -0.2814 -0.9582 -2.1129
  680MOL0     H91749   9.051   2.223  11.428  0.4665  0.1301  0.6854
  680MOL0     H91750   9.078   2.317  11.280 -0.2305  0.1934  2.6390
  680MOL0     H91751   9.266   2.038  11.469 -0.3161  0.6084 -0.2694
  680MOL0     H91752   9.601   2.207  11.582  0.4273 -2.4532  1.4214
  680MOL0     H91753   9.490   2.096  11.643 -1.7376  0.4960 -0.1327
  680MOL0     H91754   9.582   1.977  11.404 -0.1778  1.0512 -1.0356
  680MOL0     H91755   9.646   1.954  11.566  3.3292  1.0991  0.5483
  680MOL0     H91756   9.785   2.164  11.519 -1.8981  0.9021 -0.4721
  680MOL0     H91757   9.768   2.129  11.343 -0.6434 -3.4647 -1.9255
  680MOL0     H91758   9.973   2.012  11.382 -0.4586 -0.3081 -0.1627
  680MOL0     H91759   9.843   1.893  11.377 -0.5688 -1.9977  2.1255
  680MOL0     H91760  10.090   1.846  11.408 -2.6519  1.3505  0.3038
  680MOL0     H91761  10.288   1.527  11.391 -2.2560 -0.4692 -0.4119
  680MOL0     H91762  10.247   1.682  11.310 -0.0557 -0.2949 -0.1411
  680MOL0     H91763  10.369   1.678  11.437  1.6482 -0.7726 -2.0100
  680MOL0     H91764  10.185   1.120  11.582 -0.2009 -0.3093  0.0346
  680MOL0     H91765  10.307   0.921  11.658 -3.9897 -0.0972 -0.4476
  680MOL0     H91766  10.618   0.797  11.923  2.3871 -0.2766  3.5700
  680MOL0     H91767  10.610   0.979  11.947 -0.9100  0.1471  0.1800
  680MOL0     H91768  10.576   0.834  12.150  1.1869 -0.6142 -0.9908
  680MOL0     H91769  10.442   0.939  12.112 -0.6412 -0.4028  1.0795
  680MOL0     H91770  10.466   0.637  12.049  1.9384  1.7935 -0.5913
  680MOL0     H91771  10.313   0.740  12.041  1.0167  0.1194 -1.2559
  680MOL0     H91772  10.341   0.797  12.273  0.9222  1.2244  0.5174
  680MOL0     H91773  10.266   0.638  12.223  1.7073 -1.0245  1.5085
  680MOL0     H91774  10.554   0.688  12.330  0.9177 -1.8142  0.3611
  680MOL0     H91775  10.470   0.535  12.290 -1.2241 -0.5887  1.0194
  680MOL0     H91776  10.294   0.602  12.461  0.5289 -1.9542  3.4401
  680MOL0     H91777  10.452   0.555  12.532 -0.0232  0.5398 -0.0623
  680MOL0     H91778  10.330   0.835  12.492 -1.3546 -0.8457  0.1604
  680MOL0     H91779  10.499   0.810  12.549  0.1424 -0.9105 -0.4510
  680MOL0     H91780  10.391   0.659  12.735  3.8132  1.2054  0.2718
  680MOL0     H91781  10.256   0.785  12.703 -0.7696  0.4567 -1.7382
  680MOL0     H91782  10.439   1.125  12.002 -1.0834  3.8113  2.1434
  680MOL0     H91783  10.331   1.333  11.925  0.6482  0.9697 -0.5760
  680MOL0     H91784  10.032   1.553  11.802 -0.4484 -1.3647 -0.2169
  680MOL0     H91785   9.869   1.749  11.759 -0.9665 -2.6727 -0.7748
  680MOL0     H91786   9.002   1.365  10.560 -1.9616  1.5181  0.0669
  680MOL0     H91787   8.892   1.132  10.595 -1.1360  0.3150  0.8070
  680MOL0     H91788   8.967   0.699  10.935 -0.0557 -1.7571 -1.4246
  680MOL0     H91789   8.837   0.484  10.932 -0.5058  1.0091  2.6813
  680MOL0     H91790   8.688   0.309  10.937 -1.4787  0.5358  0.1686
  680MOL0     H91791   8.558   0.257  10.847 -0.8649  0.8866  1.8526
  680MOL0     H91792   8.792   0.365  10.690 -1.0960 -0.9338 -0.7801
  680MOL0     H91793   8.652   0.291  10.643  0.2112  3.6141  0.2086
  680MOL0     H91794   8.721   0.070  10.731  0.5200 -0.5695 -1.0137
  680MOL0     H91795   8.834   0.150  10.845 -1.6531 -0.1903  0.2975
  680MOL0     H91796   8.970   0.047  10.675  0.4059 -0.8743 -3.5708
  680MOL0     H91797   8.966   0.212  10.609 -3.2370  0.8031 -2.4297
  680MOL0     H91798   8.735  -0.050  10.372 -0.4832 -0.0682  1.8423
  680MOL0     H91799   8.484   0.698  10.808 -0.3984 -1.8504 -1.3367
  680MOL0     H91800   8.606   0.906  10.825 -0.7278 -1.4020 -3.2792
  681MOL0     O91801   1.447   0.743   5.090  0.3799  0.2365  0.2136
  681MOL0     C91802   1.426   0.676   4.988 -0.2393 -0.0054 -1.2401
  681MOL0     O91803   1.517   0.663   4.882 -0.1590 -0.7686  0.0588
  681MOL0     C91804   1.647   0.722   4.890  0.1023  0.4156 -0.6829
  681MOL0     C91805   1.737   0.689   4.995 -0.0186  0.1537  0.1242
  681MOL0     C91806   1.867   0.736   4.992  0.4230 -0.0982 -0.1977
  681MOL0     C91807   1.914   0.813   4.881  0.1129  0.3200 -0.2592
  681MOL0     O91808   2.051   0.848   4.882 -0.0356 -0.6985  0.5800
  681MOL0     C91809   2.081   0.981   4.842 -0.6677  0.3483 -1.4596
  681MOL0     C91810   2.222   1.005   4.876 -0.0802  0.5170  0.1863
  681MOL0     C91811   2.264   1.142   4.827  0.8147  0.5379 -0.2561
  681MOL0     C91812   2.403   1.192   4.867  1.0716  0.2157 -0.4579
  681MOL0     C91813   2.421   1.326   4.797 -0.5639 -0.7122 -0.6924
  681MOL0     C91814   2.544   1.404   4.851  0.1143 -1.1268  0.6421
  681MOL0     C91815   2.557   1.542   4.764  0.3339 -0.2948  0.1813
  681MOL0     C91816   2.507   1.661   4.849 -0.1911  0.0872  0.2362
  681MOL0     N91817   2.543   1.792   4.797 -0.0188  0.3261 -0.6707
  681MOL0     C91818   2.667   1.854   4.777 -0.1391 -0.7622 -0.2989
  681MOL0     C91819   2.643   1.987   4.738  0.1609 -0.6161 -0.1374
  681MOL0     C91820   2.737   2.099   4.685 -0.2982  0.9346  0.4090
  681MOL0     C91821   2.822   2.054   4.558 -0.3572  0.2982 -0.4889
  681MOL0     C91822   2.903   2.174   4.527 -0.2323  0.9686  0.0940
  681MOL0     C91823   2.991   2.136   4.397 -0.3619 -1.3940 -0.4821
  681MOL0     O91824   2.923   2.074   4.283  0.4222 -0.0747 -0.3962
  681MOL0     C91825   2.990   2.044   4.172  0.0017 -0.4617  0.1938
  681MOL0     C91826   3.127   2.077   4.140  0.4879  0.3381 -1.5527
  681MOL0     C91827   3.190   2.045   4.020 -0.2520  0.0398  0.8550
  681MOL0     C91828   3.338   2.067   4.003  0.7245  0.6322 -0.5016
  681MOL0     C91829   3.109   1.990   3.907  0.6186  0.0464  0.2350
  681MOL0     C91830   3.183   1.967   3.771  0.1014  0.1442 -0.2491
  681MOL0     O91831   3.103   1.888   3.696 -0.1244  0.1064 -0.2504
  681MOL0     C91832   3.137   1.855   3.568  0.7314  0.8324  0.2321
  681MOL0     C91833   3.052   1.893   3.456  0.0129  0.5253 -0.0706
  681MOL0     C91834   3.081   1.854   3.326 -0.5561 -0.5293  1.1171
  681MOL0     C91835   3.207   1.793   3.294 -0.5711 -0.2300  0.1932
  681MOL0     O91836   3.236   1.758   3.165 -0.9536  0.4476  0.6673
  681MOL0     C91837   3.296   1.628   3.161  0.2291 -0.0494 -0.6368
  681MOL0     C91838   3.289   1.562   3.024  0.2421 -0.6894 -0.4254
  681MOL0     C91839   3.150   1.560   2.957  0.1935  0.9543 -0.8401
  681MOL0     C91840   3.041   1.477   3.038 -0.5633 -0.5067 -0.3688
  681MOL0     C91841   2.929   1.424   2.952  0.1177  0.7191  1.1116
  681MOL0     C91842   2.822   1.359   3.041 -0.2380 -0.1876 -0.2778
  681MOL0     C91843   2.690   1.349   2.959 -0.5678 -0.4124 -0.6990
  681MOL0     C91844   2.599   1.471   3.007 -0.1492 -0.1850 -0.3660
  681MOL0    Cl91845   2.675   1.618   2.968  0.3206 -0.3051  0.0364
  681MOL0     C91846   3.296   1.777   3.399 -0.0758  1.1482  0.2749
  681MOL0     C91847   3.259   1.800   3.532  0.0656 -0.5382  0.1080
  681MOL0     O91848   3.292   1.996   3.743 -0.0546  0.4255  0.3822
  681MOL0     C91849   2.975   1.960   3.939 -0.0832 -0.6730 -0.1951
  681MOL0     C91850   2.913   1.987   4.067 -0.1428 -0.4322  0.1251
  681MOL0     N91851   2.507   2.005   4.747  0.5207  0.7074 -0.4319
  681MOL0     N91852   2.451   1.891   4.785 -0.1100  0.3184 -0.2820
  681MOL0     C91853   1.830   0.824   4.768 -0.0743  0.0151 -0.8628
  681MOL0     C91854   1.692   0.778   4.774  0.5018 -0.5353  0.2498
  681MOL0     C91855   1.292   0.619   4.982 -0.9519 -0.5483 -0.2157
  681MOL0     C91856   1.185   0.642   5.069  0.3187  0.3722 -1.1150
  681MOL0     C91857   1.073   0.562   5.070  0.6049  0.0948  0.5530
  681MOL0     C91858   1.051   0.460   4.986  0.1337  0.0874 -0.0323
  681MOL0     O91859   0.937   0.387   5.002  0.5080  0.2197  0.5405
  681MOL0     C91860   0.923   0.268   4.921  0.2704  0.8271  0.2323
  681MOL0     C91861   0.798   0.180   4.960  0.5734 -0.0675 -1.0037
  681MOL0     C91862   0.808   0.123   5.111  0.4533 -0.1232 -0.2344
  681MOL0     C91863   0.789   0.231   5.225  0.6632  0.7461 -0.3963
  681MOL0     C91864   0.785   0.187   5.364  0.0308 -0.1229  0.7307
  681MOL0     C91865   0.780   0.144   5.477  0.0688  0.4205 -0.6793
  681MOL0     C91866   1.152   0.430   4.900  0.3554 -0.8642  0.1298
  681MOL0     C91867   1.276   0.508   4.894 -0.0844  0.0741  0.0305
  681MOL0     H91868   1.698   0.628   5.076  0.4540  0.3482  0.5062
  681MOL0     H91869   1.943   0.726   5.068  2.0712 -1.5250 -1.9162
  681MOL0     H91870   2.072   1.005   4.736  2.1952 -0.5919 -1.9830
  681MOL0     H91871   2.013   1.048   4.896 -2.0717  1.0483 -3.9041
  681MOL0     H91872   2.229   0.993   4.985  0.6514  2.9264  0.4639
  681MOL0     H91873   2.288   0.933   4.826 -0.9831 -0.7033  0.7004
  681MOL0     H91874   2.242   1.131   4.720 -5.2432  1.7819  0.4655
  681MOL0     H91875   2.186   1.208   4.865 -0.6620 -1.4417  0.3651
  681MOL0     H91876   2.393   1.211   4.975 -0.9029  1.0900 -0.7354
  681MOL0     H91877   2.489   1.128   4.850  1.9804  0.8238  1.4973
  681MOL0     H91878   2.456   1.317   4.693  2.5508 -0.9297  0.2593
  681MOL0     H91879   2.328   1.382   4.802 -2.0356 -3.0242 -0.3028
  681MOL0     H91880   2.544   1.422   4.959 -0.3251 -0.5765  0.5577
  681MOL0     H91881   2.638   1.352   4.828 -1.3653 -2.1265 -4.1726
  681MOL0     H91882   2.660   1.568   4.736  0.3798  0.0823  0.6885
  681MOL0     H91883   2.502   1.544   4.670  2.5040  1.5280 -1.1780
  681MOL0     H91884   2.537   1.648   4.953  0.8113 -2.6604 -0.3326
  681MOL0     H91885   2.398   1.654   4.846 -0.1026 -1.7994  0.5352
  681MOL0     H91886   2.766   1.811   4.768  1.0804  1.2486  2.1139
  681MOL0     H91887   2.672   2.180   4.648  1.3997  1.9352 -0.5245
  681MOL0     H91888   2.794   2.136   4.770 -2.3182  0.8431  1.8853
  681MOL0     H91889   2.752   2.031   4.476 -0.9719 -0.3113  0.1943
  681MOL0     H91890   2.888   1.970   4.582  2.2266  2.3516  0.0094
  681MOL0     H91891   2.968   2.205   4.610  0.0738  2.7308 -0.7599
  681MOL0     H91892   2.837   2.260   4.514  2.0338  2.9268  0.6712
  681MOL0     H91893   3.079   2.078   4.427 -0.3870  0.4515  3.9175
  681MOL0     H91894   3.040   2.230   4.370 -2.7626 -0.5246 -2.1493
  681MOL0     H91895   3.192   2.121   4.215  0.0897  0.6642 -1.3981
  681MOL0     H91896   3.378   2.091   4.102 -2.3115  3.1816  0.2526
  681MOL0     H91897   3.394   1.982   3.962 -0.9529 -0.1407 -1.2625
  681MOL0     H91898   3.357   2.155   3.941  0.4103  0.0032 -1.5212
  681MOL0     H91899   2.955   1.940   3.471  0.4784  0.8591  2.2183
  681MOL0     H91900   3.007   1.853   3.247  0.1148 -1.5813  0.4783
  681MOL0     H91901   3.401   1.625   3.193  0.2698  0.2127 -0.7402
  681MOL0     H91902   3.249   1.563   3.234  2.9458 -0.6916  0.6620
  681MOL0     H91903   3.359   1.615   2.960  0.0510 -1.4662 -1.3059
  681MOL0     H91904   3.326   1.459   3.030 -1.2743 -1.1786  1.7831
  681MOL0     H91905   3.152   1.520   2.855  0.3158  0.9836 -0.8499
  681MOL0     H91906   3.117   1.664   2.947  2.8253  1.9724  0.3638
  681MOL0     H91907   3.088   1.387   3.078 -0.4264 -0.1693  0.2367
  681MOL0     H91908   2.996   1.542   3.114  2.7282 -0.6866  1.9366
  681MOL0     H91909   2.959   1.350   2.878 -1.9438  1.1143 -0.2215
  681MOL0     H91910   2.898   1.515   2.900  0.2086 -0.1020 -0.4324
  681MOL0     H91911   2.864   1.259   3.059  4.7174  1.2618 -2.0464
  681MOL0     H91912   2.807   1.422   3.129  3.3443  2.3709 -1.2870
  681MOL0     H91913   2.625   1.263   2.971  1.0943 -1.8596 -1.5676
  681MOL0     H91914   2.721   1.352   2.854  3.0238  0.6983  0.2111
  681MOL0     H91915   2.597   1.460   3.116 -0.5186  0.0163 -0.3523
  681MOL0     H91916   2.498   1.469   2.966 -1.0836 -0.8441  1.8340
  681MOL0     H91917   3.396   1.735   3.388  0.3508  1.5656  2.1907
  681MOL0     H91918   3.342   1.788   3.601 -0.0237  1.8760  0.7083
  681MOL0     H91919   2.921   1.906   3.861  2.6766 -2.3917 -1.0647
  681MOL0     H91920   2.811   1.962   4.094 -0.2982 -0.2107 -0.2492
  681MOL0     H91921   1.876   0.867   4.680 -1.6502  2.2027 -0.7030
  681MOL0     H91922   1.621   0.788   4.693 -1.8813  0.1706  2.3140
  681MOL0     H91923   1.193   0.723   5.140  1.7657 -0.6330 -0.0690
  681MOL0     H91924   0.993   0.592   5.136 -1.3252 -2.5872 -0.3799
  681MOL0     H91925   0.925   0.300   4.816  4.3505  1.0344  0.2115
  681MOL0     H91926   1.013   0.211   4.946 -0.5223  0.0302  1.3665
  681MOL0     H91927   0.801   0.096   4.891 -0.0632  0.9762 -2.3472
  681MOL0     H91928   0.705   0.232   4.934  0.7080 -0.6812 -2.8804
  681MOL0     H91929   0.910   0.088   5.128  0.9247  1.4021  0.2391
  681MOL0     H91930   0.735   0.042   5.115  0.7311 -0.5359 -2.2149
  681MOL0     H91931   0.694   0.284   5.208  0.8143  1.2225  0.2338
  681MOL0     H91932   0.869   0.304   5.209  2.3349 -1.1840 -1.2005
  681MOL0     H91933   0.776   0.122   5.581  0.4509  1.7861 -0.3450
  681MOL0     H91934   1.138   0.335   4.849 -0.9423 -1.6298  1.8224
  681MOL0     H91935   1.344   0.499   4.810 -1.9302 -1.1048 -1.4257
  682MOL0     O91936   6.189   6.892   0.321  0.1560  0.0020  0.0106
  682MOL0     C91937   6.257   6.820   0.246  0.1957  0.3810 -1.1870
  682MOL0     O91938   6.206   6.711   0.194  0.6392 -0.8791  0.7223
  682MOL0     C91939   6.065   6.694   0.205  1.4139 -1.0259  0.8943
  682MOL0     C91940   5.965   6.770   0.136 -0.7617 -0.0308 -0.8277
  682MOL0     C91941   5.828   6.734   0.152  0.5316 -0.5042  0.5386
  682MOL0     C91942   5.795   6.632   0.240 -0.5644  1.1306 -0.1178
  682MOL0     O91943   5.679   6.580   0.260  0.0846 -0.0653 -0.0924
  682MOL0     C91944   5.565   6.653   0.215 -0.7303  0.5340 -0.4755
  682MOL0     C91945   5.433   6.599   0.262  0.2802 -0.9917 -0.7336
  682MOL0     C91946   5.411   6.444   0.265 -0.3981 -0.3838 -0.6349
  682MOL0     C91947   5.262   6.402   0.289  0.6689 -0.0224  0.3150
  682MOL0     C91948   5.254   6.251   0.316  0.4529 -0.8240 -0.2171
  682MOL0     C91949   5.308   6.197   0.444 -0.0858 -0.4423  0.6073
  682MOL0     C91950   5.265   6.279   0.563  0.1175  0.6267  0.7907
  682MOL0     C91951   5.309   6.218   0.701 -0.4915  0.3451 -0.6762
  682MOL0     N91952   5.452   6.231   0.733  1.0696  0.7235  0.8226
  682MOL0     C91953   5.536   6.315   0.666 -0.4938 -0.0131 -0.3629
  682MOL0     C91954   5.658   6.301   0.725 -0.8297  0.4664  0.5744
  682MOL0     C91955   5.794   6.360   0.673  0.0604  0.5419  0.4318
  682MOL0     C91956   5.912   6.262   0.671  0.2965  0.2530  0.4836
  682MOL0     C91957   6.027   6.341   0.618 -0.5807  0.1200  1.3592
  682MOL0     C91958   6.169   6.291   0.651 -0.2213  0.1225  0.1024
  682MOL0     O91959   6.281   6.375   0.586  0.3472  0.3489  0.2911
  682MOL0     C91960   6.296   6.505   0.623 -0.4360 -0.0322  0.6715
  682MOL0     C91961   6.256   6.552   0.750 -0.1688 -0.2789 -1.1077
  682MOL0     C91962   6.276   6.684   0.788 -0.5547  0.3806 -0.1312
  682MOL0     C91963   6.214   6.723   0.922 -0.6807 -0.7521 -0.5033
  682MOL0     C91964   6.338   6.779   0.698 -0.5746  0.6932  0.7361
  682MOL0     C91965   6.375   6.923   0.731 -0.1044 -0.1087  0.6364
  682MOL0     O91966   6.413   7.004   0.626  0.1004 -0.7945 -0.7797
  682MOL0     C91967   6.510   7.101   0.647 -0.7623  0.4150 -0.3179
  682MOL0     C91968   6.626   7.082   0.729  0.0085  0.2370 -0.1007
  682MOL0     C91969   6.729   7.181   0.733  0.5912 -0.0423  0.1540
  682MOL0     C91970   6.725   7.288   0.648  0.2797  0.7264  0.3780
  682MOL0     O91971   6.831   7.372   0.635 -0.0623 -0.2236 -0.6491
  682MOL0     C91972   6.854   7.446   0.518  0.4092 -0.3014  0.0920
  682MOL0     C91973   6.993   7.511   0.533  0.7586  0.2482  0.6813
  682MOL0     C91974   7.034   7.601   0.419  0.1020 -0.3231  0.0386
  682MOL0     C91975   6.984   7.751   0.439 -0.0713  0.6720 -0.4821
  682MOL0     C91976   7.048   7.816   0.318  0.0108 -0.0560  0.8096
  682MOL0     C91977   7.035   7.964   0.326 -0.0775  1.1212  0.0581
  682MOL0     C91978   6.891   8.008   0.303  0.0753 -0.8646  0.3277
  682MOL0     C91979   6.870   8.158   0.295  0.0847 -0.0526  0.1223
  682MOL0    Cl91980   6.973   8.248   0.413  0.5350  0.3454 -0.1506
  682MOL0     C91981   6.607   7.310   0.570  0.0670  0.2929  0.2159
  682MOL0     C91982   6.503   7.218   0.565 -0.9444 -0.6276  0.4722
  682MOL0     O91983   6.381   6.958   0.850 -0.9416 -0.3332 -0.4371
  682MOL0     C91984   6.363   6.728   0.571 -0.3903 -0.5522  0.6443
  682MOL0     C91985   6.344   6.594   0.526  0.0390  0.2201 -0.0685
  682MOL0     N91986   5.642   6.214   0.832 -0.3518  0.4761 -0.2943
  682MOL0     N91987   5.517   6.169   0.834  0.2462 -0.0251  0.1782
  682MOL0     C91988   5.900   6.568   0.313  0.2335  0.5698 -0.5478
  682MOL0     C91989   6.031   6.596   0.299  0.7763 -0.4745  0.4155
  682MOL0     C91990   6.404   6.840   0.227  0.5573 -0.5169 -0.0983
  682MOL0     C91991   6.455   6.957   0.282 -0.0861  0.2010 -0.1587
  682MOL0     C91992   6.595   6.973   0.269  0.0200 -0.0008  0.4938
  682MOL0     C91993   6.680   6.873   0.216 -0.6910  0.3093  0.7469
  682MOL0     O91994   6.818   6.877   0.226  0.2278  0.1318  0.0263
  682MOL0     C91995   6.876   6.950   0.337 -0.3420 -0.3767 -0.9237
  682MOL0     C91996   6.894   7.097   0.313  0.2758 -0.7327 -0.5134
  682MOL0     C91997   7.033   7.146   0.285  0.3815 -0.1313  0.0222
  682MOL0     C91998   7.128   7.163   0.407  0.8386 -0.4805 -1.6019
  682MOL0     C91999   7.184   7.040   0.459 -0.6057 -0.5793  0.5754
  682MOL0     C92000   7.212   6.927   0.497 -0.5155 -0.3314 -0.8792
  682MOL0     C92001   6.619   6.761   0.153 -0.4849 -0.2492  0.4595
  682MOL0     C92002   6.483   6.745   0.153  0.3263  1.3222 -0.7484
  682MOL0     H92003   5.994   6.844   0.063 -1.8559  2.2732  0.9339
  682MOL0     H92004   5.757   6.795   0.097 -1.8034 -3.0826  0.4557
  682MOL0     H92005   5.572   6.755   0.253  1.6042  0.6762 -1.1464
  682MOL0     H92006   5.574   6.659   0.106 -0.7578  0.1684 -0.4993
  682MOL0     H92007   5.424   6.629   0.367 -3.1372  1.5067 -1.5802
  682MOL0     H92008   5.350   6.643   0.207 -0.0508 -2.3936 -1.4084
  682MOL0     H92009   5.441   6.400   0.170 -3.0237  0.0256 -1.7385
  682MOL0     H92010   5.473   6.409   0.348 -2.9678 -0.5543  1.3548
  682MOL0     H92011   5.224   6.466   0.369  3.3870 -0.8081  2.3787
  682MOL0     H92012   5.202   6.423   0.199 -0.1137  2.1097  1.2475
  682MOL0     H92013   5.151   6.215   0.313 -0.5012  1.5930  0.5066
  682MOL0     H92014   5.314   6.209   0.235  1.3832  0.0351  0.0090
  682MOL0     H92015   5.273   6.094   0.449  1.4395 -1.1318 -1.5093
  682MOL0     H92016   5.417   6.205   0.437 -0.2226  0.9083 -0.3635
  682MOL0     H92017   5.305   6.381   0.551 -0.4723  1.1556  2.9113
  682MOL0     H92018   5.156   6.272   0.559 -0.0437  2.6245 -3.1246
  682MOL0     H92019   5.280   6.113   0.712 -2.9534  1.0184  0.0947
  682MOL0     H92020   5.253   6.264   0.783  3.1304  5.5753 -0.6744
  682MOL0     H92021   5.521   6.377   0.578  2.2342 -0.0566 -0.9331
  682MOL0     H92022   5.772   6.386   0.569  3.4660 -0.6731 -0.7229
  682MOL0     H92023   5.812   6.450   0.733 -1.1581  1.0430  0.0733
  682MOL0     H92024   5.892   6.177   0.606 -3.0806  0.4999  1.0114
  682MOL0     H92025   5.927   6.223   0.772 -3.3750  2.1407  1.9668
  682MOL0     H92026   6.019   6.442   0.658 -0.3949  0.1784  1.2497
  682MOL0     H92027   6.010   6.346   0.510  3.8233  1.4440  0.5291
  682MOL0     H92028   6.181   6.185   0.627 -0.2228 -0.5382  2.7727
  682MOL0     H92029   6.178   6.287   0.760 -1.3310  0.7181  0.2355
  682MOL0     H92030   6.211   6.482   0.820 -0.7052 -0.2154 -1.3836
  682MOL0     H92031   6.164   6.641   0.974  0.6947  0.1761  2.4671
  682MOL0     H92032   6.293   6.758   0.990  0.0732 -2.8270 -0.2244
  682MOL0     H92033   6.139   6.801   0.915 -0.4951 -0.2497  2.2090
  682MOL0     H92034   6.637   6.994   0.791  0.1463 -0.3764 -0.9682
  682MOL0     H92035   6.824   7.161   0.780  0.0116 -0.5051  1.1748
  682MOL0     H92036   6.867   7.382   0.430  2.9326 -0.8745  0.7818
  682MOL0     H92037   6.778   7.521   0.496 -1.6998 -2.2394  0.4516
  682MOL0     H92038   6.991   7.565   0.628 -0.3141  0.0510  0.7795
  682MOL0     H92039   7.077   7.441   0.540 -0.6439 -1.8205 -1.7014
  682MOL0     H92040   6.993   7.560   0.326  1.1897 -0.1781 -0.5237
  682MOL0     H92041   7.142   7.603   0.401 -0.3277  1.6237 -3.2199
  682MOL0     H92042   6.875   7.761   0.445 -0.2712 -1.6240  2.1385
  682MOL0     H92043   7.019   7.784   0.538 -0.6001 -1.6847  0.5808
  682MOL0     H92044   7.001   7.778   0.227  1.9548  2.2584 -1.3287
  682MOL0     H92045   7.152   7.781   0.315 -0.7155 -2.4143  1.2284
  682MOL0     H92046   7.080   7.993   0.422  2.0562  0.2175 -0.5961
  682MOL0     H92047   7.092   7.999   0.239  0.0235  2.6088  0.6848
  682MOL0     H92048   6.831   7.984   0.391 -0.9170  0.2261 -0.0341
  682MOL0     H92049   6.835   7.948   0.230 -0.3597  1.4315 -1.3215
  682MOL0     H92050   6.765   8.178   0.318  0.3285  1.9604 -0.2752
  682MOL0     H92051   6.899   8.190   0.194  0.3798  1.2434  0.5951
  682MOL0     H92052   6.592   7.393   0.503 -0.1274  0.7055  0.7597
  682MOL0     H92053   6.427   7.249   0.494 -1.1339  0.7688  1.2448
  682MOL0     H92054   6.402   6.788   0.490  2.4486 -1.9251  0.8547
  682MOL0     H92055   6.377   6.556   0.430 -1.0246 -1.0175  0.0288
  682MOL0     H92056   5.863   6.484   0.372 -0.7871  0.8057 -0.8291
  682MOL0     H92057   6.106   6.566   0.371  0.7078  5.7685  3.8351
  682MOL0     H92058   6.403   7.042   0.327 -0.1777  0.5209 -0.8443
  682MOL0     H92059   6.640   7.068   0.297  1.2379  0.7639 -3.4347
  682MOL0     H92060   6.825   6.943   0.434  2.3734 -0.9498  0.5856
  682MOL0     H92061   6.968   6.899   0.370  0.2487  0.2795 -1.5152
  682MOL0     H92062   6.859   7.147   0.403 -0.4261 -0.6931 -0.8059
  682MOL0     H92063   6.824   7.129   0.236  0.9686  0.1440 -0.7976
  682MOL0     H92064   7.023   7.251   0.256 -1.2932  1.2217  4.6561
  682MOL0     H92065   7.076   7.079   0.211 -3.5549  0.0747 -2.7807
  682MOL0     H92066   7.061   7.195   0.487  1.8197 -1.7987 -0.1935
  682MOL0     H92067   7.210   7.226   0.372  0.9596 -1.5171 -3.3367
  682MOL0     H92068   7.241   6.830   0.534  1.7830 -0.0116 -1.7130
  682MOL0     H92069   6.689   6.694   0.104  1.8118  0.9170  1.9673
  682MOL0     H92070   6.445   6.665   0.091  0.7552 -0.0738  0.7225
  683MOL0     O92071  10.365   0.487  10.284  0.7319 -0.1943  0.6445
  683MOL0     C92072  10.388   0.473  10.166 -0.2192  0.4369  0.1060
  683MOL0     O92073  10.309   0.417  10.067  0.1303  0.4349 -0.5381
  683MOL0     C92074  10.180   0.382  10.084 -0.7986  0.2770  0.5194
  683MOL0     C92075  10.105   0.379  10.196  0.2503  0.1196  0.0047
  683MOL0     C92076   9.967   0.363  10.198  0.1040  0.2765  1.2173
  683MOL0     C92077   9.906   0.329  10.080  0.3798  0.8742  0.0568
  683MOL0     O92078   9.774   0.290  10.078  0.8399  0.1648 -0.8533
  683MOL0     C92079   9.684   0.401  10.045 -0.8691  0.8420  0.8181
  683MOL0     C92080   9.546   0.331  10.059 -0.9741 -0.8956  0.5071
  683MOL0     C92081   9.517   0.294  10.209 -0.2009 -0.4399 -0.5573
  683MOL0     C92082   9.366   0.287  10.233 -1.2722 -0.4026  0.9931
  683MOL0     C92083   9.319   0.281  10.380  1.2799 -0.3110 -0.3596
  683MOL0     C92084   9.352   0.409  10.458 -0.4115 -0.1886 -0.1854
  683MOL0     C92085   9.306   0.403  10.605 -0.0350 -0.6788  0.6377
  683MOL0     C92086   9.177   0.473  10.638 -0.3740  0.4845 -0.1222
  683MOL0     N92087   9.161   0.479  10.782 -0.1668  0.6739 -0.7587
  683MOL0     C92088   9.222   0.574  10.854 -0.1766  0.4364  0.5163
  683MOL0     C92089   9.213   0.538  10.984 -0.5252  0.2773  0.1537
  683MOL0     C92090   9.308   0.590  11.089 -0.1464 -0.4760 -0.5790
  683MOL0     C92091   9.238   0.635  11.223  0.3739  0.1286  0.3324
  683MOL0     C92092   9.336   0.705  11.318 -0.5916 -0.4192  0.8284
  683MOL0     C92093   9.261   0.785  11.429 -0.6400  0.7262  0.3799
  683MOL0     O92094   9.189   0.700  11.521 -0.4875  0.0728 -0.1810
  683MOL0     C92095   9.159   0.757  11.644  0.0613  0.3487  0.4894
  683MOL0     C92096   9.151   0.892  11.675 -0.1392  0.0294 -0.1918
  683MOL0     C92097   9.113   0.948  11.796 -0.1484 -0.1313 -0.2589
  683MOL0     C92098   9.153   1.094  11.804  0.3671  0.5926  0.3809
  683MOL0     C92099   9.056   0.860  11.891  0.9760 -0.3877 -0.2322
  683MOL0     C92100   9.013   0.911  12.021  0.3477 -0.8176 -0.2987
  683MOL0     O92101   8.940   0.819  12.091 -0.4559 -0.5447  0.6161
  683MOL0     C92102   8.866   0.860  12.197  0.0400  1.5739 -0.3841
  683MOL0     C92103   8.725   0.836  12.200 -0.3907 -0.5214 -0.4636
  683MOL0     C92104   8.646   0.867  12.314 -0.0199  1.0529  0.1995
  683MOL0     C92105   8.700   0.928  12.428 -0.5042 -0.4831  0.0783
  683MOL0     O92106   8.631   0.964  12.545 -0.9625 -0.1859 -0.6122
  683MOL0     C92107   8.487   0.931  12.561 -0.5023 -0.6989 -0.7073
  683MOL0     C92108   8.393   1.016  12.477  0.6020 -0.2713  0.2587
  683MOL0     C92109   8.248   0.994  12.498  0.0113 -0.8371 -0.2866
  683MOL0     C92110   8.193   0.860  12.456  0.0177  0.5206 -0.6069
  683MOL0     C92111   8.044   0.841  12.475 -0.6916  0.3969  0.6876
  683MOL0     C92112   7.966   0.952  12.408  0.8101  0.3993  0.3928
  683MOL0     C92113   7.807   0.925  12.410  0.6630  0.7820 -0.4570
  683MOL0     C92114   7.760   0.902  12.556  0.2733 -0.0311 -0.4890
  683MOL0    Cl92115   7.580   0.880  12.537  0.0289 -0.5103 -0.0550
  683MOL0     C92116   8.840   0.959  12.423  0.2191  0.0505  0.0008
  683MOL0     C92117   8.919   0.922  12.314  0.1044 -0.6492 -0.0245
  683MOL0     O92118   9.017   1.034  12.051  0.4215 -0.1180  0.5574
  683MOL0     C92119   9.050   0.723  11.859  0.5169 -0.3072 -0.0351
  683MOL0     C92120   9.105   0.670  11.743 -0.1101 -0.3847  0.3072
  683MOL0     N92121   9.144   0.416  10.993  0.0544  0.6709  0.1536
  683MOL0     N92122   9.119   0.379  10.868 -1.0374  0.1609 -0.8918
  683MOL0     C92123   9.975   0.324   9.967 -0.3691  0.1334  0.1373
  683MOL0     C92124  10.109   0.361   9.964  0.1751 -0.9716 -0.7121
  683MOL0     C92125  10.532   0.511  10.127  0.2621 -0.3887  0.2955
  683MOL0     C92126  10.628   0.576  10.212 -0.0906  0.1647  0.8032
  683MOL0     C92127  10.753   0.597  10.170 -0.1970 -0.1181 -0.0608
  683MOL0     C92128  10.800   0.562  10.042 -0.1151  0.0851 -0.0314
  683MOL0     O92129  10.932   0.570  10.004  0.3251  0.2206 -0.9462
  683MOL0     C92130  11.035   0.614  10.094  0.2357  0.8184 -0.7029
  683MOL0     C92131  11.059   0.758  10.097  0.5873 -1.2520  0.4202
  683MOL0     C92132  11.201   0.791  10.154 -0.1628  0.1206 -0.8312
  683MOL0     C92133  11.305   0.793  10.045  0.3103  0.1401 -0.6768
  683MOL0     C92134  11.437   0.800  10.101  0.0113  1.0994 -0.0865
  683MOL0     C92135  11.547   0.775  10.150  0.2441 -0.1350  0.0791
  683MOL0     C92136  10.702   0.524   9.950  0.3583 -0.3203 -0.0318
  683MOL0     C92137  10.573   0.503   9.992  0.2375  0.0324  0.3168
  683MOL0     H92138  10.150   0.399  10.293 -2.2141 -0.0272  1.2455
  683MOL0     H92139   9.909   0.364  10.290 -1.2477  0.1244  0.3953
  683MOL0     H92140   9.690   0.483  10.117 -1.4791 -1.5756  3.8235
  683MOL0     H92141   9.700   0.439   9.944  0.2454 -0.1303  0.6066
  683MOL0     H92142   9.470   0.397  10.015 -0.8108 -1.4995 -0.7212
  683MOL0     H92143   9.544   0.246   9.989 -2.1147 -0.4362 -0.0490
  683MOL0     H92144   9.554   0.195  10.236 -3.3672 -0.4566  5.2456
  683MOL0     H92145   9.562   0.363  10.281  0.4240  1.1103 -2.3493
  683MOL0     H92146   9.322   0.377  10.188  0.2206  1.1706  2.5078
  683MOL0     H92147   9.334   0.202  10.173  2.6467 -0.1104 -1.8955
  683MOL0     H92148   9.210   0.282  10.390  1.4165 -0.6456  1.5378
  683MOL0     H92149   9.357   0.191  10.428 -0.7873 -1.9846 -1.6549
  683MOL0     H92150   9.461   0.421  10.451 -0.3334 -0.8769 -0.2850
  683MOL0     H92151   9.306   0.500  10.420 -2.7421 -1.3371 -0.2749
  683MOL0     H92152   9.304   0.298  10.634  0.9568 -1.5941 -2.2818
  683MOL0     H92153   9.382   0.457  10.664 -0.7349  0.4846  0.4991
  683MOL0     H92154   9.093   0.420  10.593 -0.1100  0.8490 -1.0707
  683MOL0     H92155   9.180   0.575  10.599 -2.4930  1.9629  3.1595
  683MOL0     H92156   9.269   0.650  10.793 -0.2715 -1.9904 -2.8948
  683MOL0     H92157   9.382   0.512  11.105 -1.8627 -1.7355  1.9004
  683MOL0     H92158   9.366   0.673  11.047 -0.4772  1.4391  2.4037
  683MOL0     H92159   9.184   0.546  11.257  0.0588  0.4976  0.8166
  683MOL0     H92160   9.164   0.710  11.196 -1.3866 -0.6783  2.5181
  683MOL0     H92161   9.413   0.759  11.262 -0.0539 -2.9390 -1.0539
  683MOL0     H92162   9.400   0.625  11.357  1.6697  0.5991 -0.5748
  683MOL0     H92163   9.192   0.860  11.388 -1.2885  0.5810  1.1821
  683MOL0     H92164   9.337   0.835  11.489  0.7265 -2.5616  1.6039
  683MOL0     H92165   9.187   0.958  11.596 -0.2809  1.3501  0.8147
  683MOL0     H92166   9.215   1.122  11.890  2.9327  0.3523 -1.2615
  683MOL0     H92167   9.189   1.123  11.704 -1.6135 -2.3380 -1.3269
  683MOL0     H92168   9.067   1.160  11.811  0.2817  0.4356  0.8435
  683MOL0     H92169   8.688   0.773  12.119  0.2099 -2.0896  0.4293
  683MOL0     H92170   8.538   0.852  12.317  0.2729 -1.5448  0.5880
  683MOL0     H92171   8.471   0.825  12.540 -2.0082 -0.4783 -0.7867
  683MOL0     H92172   8.461   0.947  12.666  5.0354 -2.2640  1.2592
  683MOL0     H92173   8.409   1.124  12.488  1.0469 -0.2867 -0.2001
  683MOL0     H92174   8.407   1.000  12.370  1.0211  0.0288  0.2665
  683MOL0     H92175   8.198   1.072  12.439  0.3742 -0.5299 -0.1900
  683MOL0     H92176   8.237   1.013  12.606  1.3288 -0.0446 -0.2664
  683MOL0     H92177   8.212   0.823  12.355  1.7653  1.2595 -0.5685
  683MOL0     H92178   8.240   0.791  12.527 -1.3099  0.1891 -0.0177
  683MOL0     H92179   8.011   0.852  12.578 -1.4821  0.4506  0.4326
  683MOL0     H92180   8.020   0.743  12.433 -1.2920  0.5685  0.6281
  683MOL0     H92181   7.984   1.050  12.453  0.1002  0.8306 -0.2337
  683MOL0     H92182   7.986   0.960  12.300 -0.7410 -0.3162  0.0142
  683MOL0     H92183   7.784   0.837  12.351  2.0082  0.0850  0.0118
  683MOL0     H92184   7.767   1.019  12.372  0.2922 -0.1924 -2.5890
  683MOL0     H92185   7.787   0.983  12.623 -1.4921 -1.2524  1.8370
  683MOL0     H92186   7.799   0.805  12.590  0.9523  0.3647 -0.1100
  683MOL0     H92187   8.882   1.003  12.512 -0.8225 -1.8738  1.5346
  683MOL0     H92188   9.026   0.938  12.318  0.3083 -1.8729  4.1755
  683MOL0     H92189   8.981   0.655  11.907 -2.2272 -1.6943 -5.2635
  683MOL0     H92190   9.098   0.562  11.744  1.5041 -0.5103  0.4550
  683MOL0     H92191   9.922   0.302   9.874  0.7710 -0.2368 -0.4479
  683MOL0     H92192  10.175   0.353   9.878  1.1321 -2.4712  0.1083
  683MOL0     H92193  10.608   0.599  10.316 -4.5230 -0.0854  0.2194
  683MOL0     H92194  10.822   0.625  10.248 -2.4352 -0.5500  2.2161
  683MOL0     H92195  11.024   0.569  10.193  0.7492  0.3117 -0.8743
  683MOL0     H92196  11.132   0.570  10.069  2.1590  4.6318 -0.7830
  683MOL0     H92197  10.975   0.795  10.158  0.4776  1.1402 -1.0518
  683MOL0     H92198  11.041   0.817  10.007 -2.5294 -0.8857  1.1490
  683MOL0     H92199  11.221   0.712  10.227 -3.7951 -0.1902  0.0005
  683MOL0     H92200  11.213   0.893  10.190  3.5795 -0.9667  1.5353
  683MOL0     H92201  11.284   0.881   9.984 -0.4328  0.7336  0.4193
  683MOL0     H92202  11.297   0.707   9.977  2.1920  1.0854 -2.1811
  683MOL0     H92203  11.641   0.765  10.201  0.2574  1.5174  0.4649
  683MOL0     H92204  10.734   0.521   9.846 -0.9445  1.2927 -0.5305
  683MOL0     H92205  10.506   0.472   9.914 -0.4846  1.2551  0.4179
  684MOL0     O92206   2.090   5.581   6.036 -0.1183 -0.4239 -0.5106
  684MOL0     C92207   2.070   5.474   5.989  0.8239  0.0216 -0.6211
  684MOL0     O92208   1.956   5.431   5.935  0.3854 -0.8428 -0.0862
  684MOL0     C92209   1.871   5.528   5.889  0.1547 -0.3650  0.5938
  684MOL0     C92210   1.906   5.644   5.815 -1.3463  0.4821  0.3119
  684MOL0     C92211   1.812   5.733   5.766  0.1445 -0.4354  0.2214
  684MOL0     C92212   1.674   5.714   5.794  1.5666  0.9838  0.4364
  684MOL0     O92213   1.577   5.801   5.748  0.3430  0.2320 -0.2566
  684MOL0     C92214   1.610   5.924   5.688 -0.5022 -0.5070  0.0694
  684MOL0     C92215   1.499   6.017   5.728 -0.9401  0.1975  1.1975
  684MOL0     C92216   1.368   5.998   5.656  0.3754 -0.3358  0.8334
  684MOL0     C92217   1.262   6.105   5.709  0.1576 -0.3074 -0.7155
  684MOL0     C92218   1.126   6.090   5.636  0.1126  0.8026 -0.0825
  684MOL0     C92219   1.033   6.209   5.665 -0.5833  0.2062  0.2068
  684MOL0     C92220   1.069   6.339   5.585 -0.4674  0.4609 -0.8909
  684MOL0     C92221   1.044   6.323   5.430 -0.0088 -0.2146 -0.0870
  684MOL0     N92222   1.036   6.452   5.364  0.7664 -0.6554 -0.5941
  684MOL0     C92223   1.114   6.564   5.380  0.2780  0.1945 -0.1559
  684MOL0     C92224   1.057   6.662   5.305 -0.8317 -0.0358  0.5736
  684MOL0     C92225   1.124   6.803   5.307 -0.2964  0.5162  0.3836
  684MOL0     C92226   1.071   6.895   5.427  0.2916  0.5343  0.1349
  684MOL0     C92227   0.918   6.928   5.408  0.0136  1.0938 -0.1393
  684MOL0     C92228   0.877   6.995   5.532 -0.6563  0.2243 -1.3179
  684MOL0     O92229   0.738   7.035   5.522 -0.1730  0.4327  0.0483
  684MOL0     C92230   0.667   7.070   5.633  1.1454  0.4582  0.5289
  684MOL0     C92231   0.698   7.063   5.766 -0.2601  0.2108 -0.0388
  684MOL0     C92232   0.603   7.100   5.866  0.6243  0.6228  0.5927
  684MOL0     C92233   0.627   7.066   6.010 -0.0085  0.6217 -0.2061
  684MOL0     C92234   0.475   7.150   5.829 -0.7958  0.2175  0.4054
  684MOL0     C92235   0.374   7.198   5.917  0.6242 -0.0775 -0.6297
  684MOL0     O92236   0.408   7.271   6.026 -0.9585  0.4041  0.4235
  684MOL0     C92237   0.321   7.321   6.119 -0.3302  0.3980 -0.0058
  684MOL0     C92238   0.207   7.257   6.163  0.2710 -0.2238 -0.1664
  684MOL0     C92239   0.117   7.317   6.247 -0.3424 -0.2801  0.0620
  684MOL0     C92240   0.137   7.453   6.290  0.4819 -0.1681 -0.2134
  684MOL0     O92241   0.045   7.506   6.380  0.9106 -0.3901  0.0007
  684MOL0     C92242   0.095   7.598   6.480 -0.0454  0.2456  0.6172
  684MOL0     C92243  -0.020   7.676   6.540 -0.1215 -1.3158  0.6336
  684MOL0     C92244  -0.079   7.593   6.657 -0.2386 -0.5328  0.2751
  684MOL0     C92245  -0.230   7.601   6.667  0.4908 -0.0475  0.2538
  684MOL0     C92246  -0.281   7.738   6.723  0.5993 -0.1998  0.2783
  684MOL0     C92247  -0.433   7.773   6.679 -0.6358  0.8076 -1.3030
  684MOL0     C92248  -0.426   7.819   6.527  0.0231 -0.0664 -1.0535
  684MOL0     C92249  -0.500   7.720   6.426 -1.2191 -0.3958 -0.1097
  684MOL0    Cl92250  -0.539   7.798   6.278 -0.3543 -0.5180  0.0780
  684MOL0     C92251   0.252   7.521   6.255  0.1729  0.6500  0.4311
  684MOL0     C92252   0.343   7.449   6.169  0.6027  0.3123 -0.1799
  684MOL0     O92253   0.257   7.172   5.891  0.7678  0.1341 -0.2621
  684MOL0     C92254   0.448   7.162   5.694 -1.2820  0.4165  0.3678
  684MOL0     C92255   0.539   7.124   5.598 -0.2150 -0.3244  0.3958
  684MOL0     N92256   0.939   6.610   5.256  0.8319  0.2239  0.4461
  684MOL0     N92257   0.925   6.490   5.292 -0.1142  1.0442  0.5468
  684MOL0     C92258   1.643   5.608   5.885 -0.3731  0.8810  0.3901
  684MOL0     C92259   1.738   5.522   5.931  0.0768 -0.2986 -0.8083
  684MOL0     C92260   2.168   5.373   6.001 -0.0882  0.4038 -1.4626
  684MOL0     C92261   2.282   5.399   6.083  0.2035  0.1616 -0.4145
  684MOL0     C92262   2.392   5.314   6.066  0.5921 -0.2121  0.1281
  684MOL0     C92263   2.390   5.202   5.982 -0.9175 -0.1365  0.7179
  684MOL0     O92264   2.504   5.130   5.971  0.2142 -0.7703 -0.3328
  684MOL0     C92265   2.521   5.035   5.861 -0.8905  0.4346 -0.3803
  684MOL0     C92266   2.658   4.994   5.857 -0.0621  0.2031 -0.4955
  684MOL0     C92267   2.698   4.911   5.741 -0.3015 -1.0241 -0.2659
  684MOL0     C92268   2.647   4.769   5.751  0.7073 -0.0064  0.1824
  684MOL0     C92269   2.706   4.680   5.656 -0.8191  0.1381  0.0179
  684MOL0     C92270   2.750   4.589   5.589 -0.8775 -0.3758 -0.0156
  684MOL0     C92271   2.269   5.174   5.909 -1.0236 -0.4203 -0.7331
  684MOL0     C92272   2.164   5.260   5.915  0.0410 -0.9075 -0.4813
  684MOL0     H92273   2.014   5.657   5.805 -1.2775 -0.3662 -0.1524
  684MOL0     H92274   1.849   5.818   5.709 -0.0212  0.1736  0.9938
  684MOL0     H92275   1.697   5.954   5.747 -0.2015 -0.2332 -0.5149
  684MOL0     H92276   1.623   5.914   5.580 -2.7610 -4.7222 -0.0177
  684MOL0     H92277   1.485   6.000   5.835 -0.3312  0.5384  1.3353
  684MOL0     H92278   1.547   6.115   5.726 -0.3856 -0.0840 -0.0647
  684MOL0     H92279   1.368   6.020   5.549 -0.4244 -2.7124  0.2827
  684MOL0     H92280   1.332   5.895   5.672 -2.2765  0.5239  0.8713
  684MOL0     H92281   1.251   6.108   5.817 -0.8957  0.6109 -0.8179
  684MOL0     H92282   1.299   6.207   5.690  0.0517 -0.4698 -1.9279
  684MOL0     H92283   1.141   6.063   5.531  2.6276 -0.9234  0.6189
  684MOL0     H92284   1.068   6.008   5.678 -0.8373  2.0035  1.0342
  684MOL0     H92285   0.930   6.179   5.645 -1.1416  2.7242 -1.1734
  684MOL0     H92286   1.038   6.239   5.770  1.3581  0.2506  0.1323
  684MOL0     H92287   1.018   6.425   5.629  1.9400  0.7131  1.7026
  684MOL0     H92288   1.170   6.375   5.604  0.1191 -2.2145  1.9703
  684MOL0     H92289   0.959   6.257   5.410  3.5813 -5.1010 -1.1579
  684MOL0     H92290   1.131   6.274   5.386 -0.1665  1.5356 -2.5356
  684MOL0     H92291   1.206   6.574   5.436  0.5522 -0.8905 -0.3966
  684MOL0     H92292   1.233   6.794   5.317 -0.3699  0.5028  1.2295
  684MOL0     H92293   1.108   6.854   5.211  0.4624  1.4249  0.7187
  684MOL0     H92294   1.131   6.987   5.432  1.4145 -0.2314  2.1519
  684MOL0     H92295   1.099   6.847   5.521 -3.5949  0.9800  1.6863
  684MOL0     H92296   0.859   6.838   5.390  1.2173  0.7893 -3.0015
  684MOL0     H92297   0.906   6.981   5.314 -2.4147 -1.8947 -1.7119
  684MOL0     H92298   0.934   7.087   5.546 -3.4000  1.9159 -0.5450
  684MOL0     H92299   0.889   6.925   5.616 -0.8660 -1.2668 -2.4887
  684MOL0     H92300   0.793   7.026   5.802 -1.4297 -2.7517  0.2693
  684MOL0     H92301   0.572   6.978   6.045  0.4173  1.4004  2.6602
  684MOL0     H92302   0.735   7.053   6.020 -0.3283 -2.2651  0.5489
  684MOL0     H92303   0.599   7.143   6.082  1.4272  1.1473 -0.1659
  684MOL0     H92304   0.184   7.153   6.147 -0.9404  0.0925 -0.5602
  684MOL0     H92305   0.034   7.255   6.278 -0.6683 -0.0408 -0.3274
  684MOL0     H92306   0.139   7.541   6.562 -2.4399 -2.2912  0.3098
  684MOL0     H92307   0.166   7.673   6.445  0.7641  0.1082  1.9208
  684MOL0     H92308   0.016   7.776   6.567 -1.7154  0.1810 -2.3198
  684MOL0     H92309  -0.094   7.688   6.460  0.5628 -0.2488  0.1443
  684MOL0     H92310  -0.027   7.609   6.752  2.0697 -0.0857 -0.9863
  684MOL0     H92311  -0.066   7.491   6.621 -1.0802 -0.1148 -1.3092
  684MOL0     H92312  -0.279   7.580   6.571 -2.0515  3.5213  0.5652
  684MOL0     H92313  -0.263   7.525   6.739 -0.1723  0.7792  0.8421
  684MOL0     H92314  -0.223   7.826   6.692  1.4478 -1.2560 -1.3088
  684MOL0     H92315  -0.269   7.745   6.831  2.2335  2.7896 -0.0033
  684MOL0     H92316  -0.492   7.683   6.701 -0.6154  1.7156  3.7459
  684MOL0     H92317  -0.478   7.852   6.740 -1.1936  0.2684 -1.0076
  684MOL0     H92318  -0.328   7.832   6.480 -0.3445  3.9038 -1.0482
  684MOL0     H92319  -0.470   7.919   6.525  1.1016  0.5752  2.2825
  684MOL0     H92320  -0.591   7.684   6.476 -0.0227 -3.3116  0.2005
  684MOL0     H92321  -0.451   7.625   6.402  1.6217 -0.0453  3.4179
  684MOL0     H92322   0.272   7.622   6.287  0.1734  0.7051  0.2584
  684MOL0     H92323   0.440   7.491   6.144  0.7647  0.5614  0.7990
  684MOL0     H92324   0.356   7.206   5.657 -0.3014  1.0999 -1.3874
  684MOL0     H92325   0.511   7.123   5.493  0.9566 -0.6339  0.0694
  684MOL0     H92326   1.548   5.578   5.929  0.8376 -2.4530  1.0127
  684MOL0     H92327   1.712   5.449   6.007  2.3346  0.0840  0.4014
  684MOL0     H92328   2.289   5.486   6.147  4.1965  0.3536 -0.9026
  684MOL0     H92329   2.480   5.336   6.126 -1.7277  2.4494  2.9400
  684MOL0     H92330   2.457   4.946   5.864 -1.1908  0.6630  1.5726
  684MOL0     H92331   2.493   5.090   5.771 -0.8272  0.4851 -0.3694
  684MOL0     H92332   2.698   4.940   5.944  0.5670 -2.3279 -2.2681
  684MOL0     H92333   2.702   5.094   5.864 -2.1109  1.1377 -0.0548
  684MOL0     H92334   2.807   4.924   5.735  0.0901 -2.3438  2.3806
  684MOL0     H92335   2.662   4.962   5.651  1.1394  0.0099 -0.3057
  684MOL0     H92336   2.539   4.776   5.731  0.9116  3.1588 -0.2668
  684MOL0     H92337   2.656   4.717   5.847 -3.6680 -0.1256  0.7242
  684MOL0     H92338   2.798   4.514   5.529 -0.1943 -1.2760  1.5840
  684MOL0     H92339   2.251   5.089   5.845  0.5770 -0.3105 -1.3824
  684MOL0     H92340   2.081   5.246   5.847 -0.1530  1.0717 -0.7250
  685MOL0     O92341   9.288   2.120   1.431 -0.1663  0.2370  0.5592
  685MOL0     C92342   9.336   2.054   1.342 -0.4179  0.6600  0.3044
  685MOL0     O92343   9.271   1.955   1.273  0.8144 -0.0597 -0.8739
  685MOL0     C92344   9.142   1.936   1.312 -0.6905 -0.3297 -0.0282
  685MOL0     C92345   9.108   1.844   1.412  0.7771 -0.0564  1.0946
  685MOL0     C92346   8.967   1.838   1.441  0.3431 -1.2152 -0.5013
  685MOL0     C92347   8.865   1.907   1.369 -0.1752  0.6094  0.6720
  685MOL0     O92348   8.731   1.871   1.387  0.2583  0.2799  0.4047
  685MOL0     C92349   8.634   1.876   1.282  0.3572 -0.1349  0.5046
  685MOL0     C92350   8.502   1.905   1.339  0.0576  0.3242  0.0357
  685MOL0     C92351   8.456   1.786   1.413 -0.8592  0.0887  0.4847
  685MOL0     C92352   8.302   1.786   1.428 -0.1303 -0.3065 -0.0986
  685MOL0     C92353   8.259   1.696   1.542  0.1774 -0.2380  0.0611
  685MOL0     C92354   8.109   1.687   1.566 -0.0402  0.1497 -0.0487
  685MOL0     C92355   8.023   1.613   1.466  0.8170 -0.2721 -0.9052
  685MOL0     C92356   7.865   1.630   1.473  0.0846 -0.1823  0.1124
  685MOL0     N92357   7.803   1.527   1.380 -0.2827  0.3316  0.3425
  685MOL0     C92358   7.813   1.504   1.245  0.0308  0.6329  0.3976
  685MOL0     C92359   7.760   1.376   1.231 -0.3569  0.2289  0.0856
  685MOL0     C92360   7.739   1.312   1.098  0.3669 -0.1640 -0.9793
  685MOL0     C92361   7.598   1.339   1.046 -0.1071 -0.8089  0.3351
  685MOL0     C92362   7.518   1.224   1.021  0.5260  0.2017 -0.1527
  685MOL0     C92363   7.382   1.266   0.952  0.0833 -0.6975 -0.0644
  685MOL0     O92364   7.323   1.152   0.905  0.4673 -0.4854  0.5330
  685MOL0     C92365   7.204   1.162   0.837  0.6168  1.3914  0.2486
  685MOL0     C92366   7.170   1.051   0.761 -0.5670  0.3171 -0.4263
  685MOL0     C92367   7.042   1.042   0.703  0.3442 -0.3859  0.4266
  685MOL0     C92368   7.021   0.913   0.627 -0.8078 -0.8254  0.1486
  685MOL0     C92369   6.949   1.146   0.715  0.8780  0.7020 -0.9765
  685MOL0     C92370   6.808   1.141   0.658  0.8120 -0.2382  0.9286
  685MOL0     O92371   6.732   1.241   0.687  0.0358  0.5762 -0.0423
  685MOL0     C92372   6.592   1.205   0.684 -0.9841 -0.3270  0.0755
  685MOL0     C92373   6.504   1.291   0.615 -0.1666  0.6223  1.0030
  685MOL0     C92374   6.366   1.273   0.598 -0.4023 -0.7244 -0.9184
  685MOL0     C92375   6.310   1.169   0.670 -0.6443 -0.1961  0.0102
  685MOL0     O92376   6.174   1.158   0.671  0.4558 -0.4143  0.1026
  685MOL0     C92377   6.127   1.026   0.715 -0.5063  0.3787  0.3582
  685MOL0     C92378   5.981   1.010   0.688  0.3425 -0.3804  0.2218
  685MOL0     C92379   5.916   0.899   0.780  0.5242  0.1112 -0.5927
  685MOL0     C92380   5.769   0.891   0.757  0.3891  0.2575 -1.0250
  685MOL0     C92381   5.712   0.800   0.872 -0.6217  0.3746  1.3546
  685MOL0     C92382   5.567   0.769   0.839 -0.1313  0.4344 -0.1598
  685MOL0     C92383   5.527   0.633   0.898  0.7738 -0.3962  1.0979
  685MOL0     C92384   5.518   0.618   1.051  0.4386  0.6046  0.4334
  685MOL0    Cl92385   5.375   0.699   1.129  0.4631  0.2554  0.2575
  685MOL0     C92386   6.397   1.080   0.741  0.7725 -1.0709  0.1567
  685MOL0     C92387   6.538   1.095   0.749 -0.1809  0.6403 -0.1122
  685MOL0     O92388   6.783   1.053   0.576  0.6010  0.7194 -1.0146
  685MOL0     C92389   6.990   1.258   0.779 -0.9161  0.7196 -0.0471
  685MOL0     C92390   7.116   1.266   0.832 -0.2152 -0.7211  0.1284
  685MOL0     N92391   7.722   1.320   1.350 -0.2765  0.1618 -0.6344
  685MOL0     N92392   7.754   1.410   1.436 -0.0999 -0.5934  0.0833
  685MOL0     C92393   8.914   2.002   1.273 -0.1561 -1.1192 -0.5062
  685MOL0     C92394   9.052   2.015   1.244 -0.5105 -0.0620 -0.0911
  685MOL0     C92395   9.482   2.077   1.310  1.4909  0.8391  0.4741
  685MOL0     C92396   9.537   2.204   1.341 -0.9381  0.2097 -0.4332
  685MOL0     C92397   9.669   2.229   1.296 -0.2544 -0.1369 -0.6362
  685MOL0     C92398   9.750   2.131   1.244 -0.6820  0.5252  0.1779
  685MOL0     O92399   9.884   2.149   1.211 -0.2322  0.2875  0.4710
  685MOL0     C92400   9.901   2.259   1.120  0.4444  0.3788  0.2724
  685MOL0     C92401  10.037   2.246   1.057  0.7097  0.5045  0.2831
  685MOL0     C92402  10.034   2.131   0.954  0.4544  0.1750  0.6057
  685MOL0     C92403  10.069   1.996   1.008  0.3369  0.4280 -0.6994
  685MOL0     C92404  10.214   1.985   1.037  0.8738  0.7505  0.1521
  685MOL0     C92405  10.331   1.970   1.061  0.7101 -0.5496 -0.0437
  685MOL0     C92406   9.696   2.000   1.211 -0.1010 -0.0159 -0.6946
  685MOL0     C92407   9.558   1.979   1.248 -0.9131  0.1328 -1.4727
  685MOL0     H92408   9.179   1.769   1.445 -0.0339 -2.7098 -2.4846
  685MOL0     H92409   8.942   1.762   1.515  1.0319 -0.2825  0.7189
  685MOL0     H92410   8.637   1.959   1.211 -0.2999 -2.0975 -1.9275
  685MOL0     H92411   8.643   1.787   1.220  1.4822  0.9988 -1.0419
  685MOL0     H92412   8.492   2.003   1.386 -1.0544  0.1361  0.2345
  685MOL0     H92413   8.431   1.909   1.256 -0.6680 -2.7848  0.3777
  685MOL0     H92414   8.494   1.700   1.357  0.1156  0.1855  0.9755
  685MOL0     H92415   8.508   1.787   1.510 -0.3181 -2.1774  0.2714
  685MOL0     H92416   8.261   1.886   1.448 -0.6006 -0.7120  1.0286
  685MOL0     H92417   8.257   1.748   1.336 -1.3813  1.1770 -0.1503
  685MOL0     H92418   8.283   1.592   1.516  1.1377  0.3125 -1.4048
  685MOL0     H92419   8.308   1.734   1.632 -0.8076  2.0581 -0.3113
  685MOL0     H92420   8.101   1.629   1.659  0.2081 -1.3165 -0.9168
  685MOL0     H92421   8.066   1.784   1.590 -1.3429 -0.2198 -0.7910
  685MOL0     H92422   8.046   1.644   1.364 -2.9640  3.1156 -0.9890
  685MOL0     H92423   8.037   1.506   1.482 -2.5416 -1.0840 -2.6285
  685MOL0     H92424   7.825   1.729   1.452  1.7840  0.8691  1.5795
  685MOL0     H92425   7.834   1.605   1.575  2.2370 -1.6909  0.4560
  685MOL0     H92426   7.853   1.557   1.159  0.9736  0.3743  0.6661
  685MOL0     H92427   7.807   1.352   1.022  0.8733  2.1968  0.6288
  685MOL0     H92428   7.774   1.211   1.122 -1.1617 -0.8435 -1.4704
  685MOL0     H92429   7.612   1.393   0.952  0.7714 -0.0026  0.9162
  685MOL0     H92430   7.547   1.419   1.100  0.9825  0.2833 -0.2147
  685MOL0     H92431   7.481   1.169   1.108 -3.1302  1.0188 -1.0039
  685MOL0     H92432   7.574   1.150   0.964  0.5174  1.5590 -2.0402
  685MOL0     H92433   7.382   1.343   0.874 -2.7012  2.4922  2.7654
  685MOL0     H92434   7.316   1.320   1.020 -0.8849 -1.9126 -0.0029
  685MOL0     H92435   7.237   0.967   0.760 -1.7168 -0.6942  1.1393
  685MOL0     H92436   7.017   0.922   0.518  0.0382 -3.8769 -0.2374
  685MOL0     H92437   7.091   0.837   0.663 -0.0146 -0.4962 -0.6723
  685MOL0     H92438   6.921   0.881   0.660 -0.9374  1.2629  2.0218
  685MOL0     H92439   6.531   1.383   0.565 -2.1607  0.6494 -0.1235
  685MOL0     H92440   6.314   1.348   0.539 -0.4272  1.4585  1.6700
  685MOL0     H92441   6.179   0.947   0.660  1.5842  1.9823 -0.1117
  685MOL0     H92442   6.147   1.021   0.822 -0.7040  0.7541  0.4158
  685MOL0     H92443   5.931   1.102   0.721 -1.7881 -0.7205 -1.8054
  685MOL0     H92444   5.955   0.990   0.584 -2.0379  0.6535  0.5538
  685MOL0     H92445   5.925   0.918   0.888  1.8225 -0.1133 -0.6515
  685MOL0     H92446   5.968   0.803   0.770 -0.2043 -0.3465 -0.1397
  685MOL0     H92447   5.715   0.986   0.758 -2.2588 -1.0468  3.0515
  685MOL0     H92448   5.752   0.848   0.658 -1.5748 -0.5141 -0.3933
  685MOL0     H92449   5.718   0.849   0.969 -3.1174  2.6514  0.4750
  685MOL0     H92450   5.778   0.713   0.857  2.6227  2.8466  0.0131
  685MOL0     H92451   5.507   0.850   0.882  0.5140 -0.3695  2.4391
  685MOL0     H92452   5.539   0.774   0.733 -3.5498  0.2907  0.6090
  685MOL0     H92453   5.606   0.560   0.880  2.5004  1.2836  1.5910
  685MOL0     H92454   5.445   0.594   0.836 -0.0789  2.7555  0.0285
  685MOL0     H92455   5.608   0.646   1.107  1.6905  0.6358 -1.5162
  685MOL0     H92456   5.505   0.510   1.061 -0.4181  0.6572 -0.0503
  685MOL0     H92457   6.363   0.988   0.786  1.4004 -1.6159 -0.4675
  685MOL0     H92458   6.601   1.022   0.798 -2.1248  0.5512  2.4248
  685MOL0     H92459   6.918   1.339   0.777 -0.9256  0.7367 -2.6992
  685MOL0     H92460   7.126   1.352   0.897 -4.0795 -0.9847  1.3246
  685MOL0     H92461   8.854   2.069   1.213  2.7146 -0.6838 -3.1486
  685MOL0     H92462   9.095   2.092   1.181  0.6338 -0.7066 -0.1304
  685MOL0     H92463   9.482   2.290   1.380 -1.0795  1.7342 -3.6841
  685MOL0     H92464   9.718   2.326   1.305 -2.2278  0.7462  1.8741
  685MOL0     H92465   9.820   2.262   1.046  1.6371 -4.0542 -1.5595
  685MOL0     H92466   9.885   2.354   1.172 -1.6433 -0.5310  1.4200
  685MOL0     H92467  10.108   2.213   1.134  0.5016 -0.3689  0.1151
  685MOL0     H92468  10.078   2.342   1.023  1.6009  0.1194  0.2360
  685MOL0     H92469  10.111   2.157   0.881 -1.3820 -0.8074 -1.7997
  685MOL0     H92470   9.940   2.137   0.899 -0.4791  1.3527  2.2496
  685MOL0     H92471  10.036   1.913   0.945 -1.6058  0.6025  0.0082
  685MOL0     H92472  10.020   1.989   1.106  0.9377  1.0742 -0.3442
  685MOL0     H92473  10.437   1.959   1.065  0.8976  1.0669  0.1095
  685MOL0     H92474   9.762   1.925   1.168  2.9952  1.2528  1.5260
  685MOL0     H92475   9.509   1.885   1.223  1.3274 -1.4806 -0.1574
  686MOL0     O92476   6.047  10.276   4.430  0.2487 -0.5360  0.2423
  686MOL0     C92477   6.138  10.313   4.499  0.1322 -0.6291  0.3033
  686MOL0     O92478   6.123  10.390   4.613  0.3419  0.2629 -0.4466
  686MOL0     C92479   6.010  10.394   4.694 -0.3518  0.6366  1.0168
  686MOL0     C92480   5.904  10.297   4.685  0.2105 -0.3206 -0.2140
  686MOL0     C92481   5.791  10.309   4.779  0.9814 -0.1656 -0.0957
  686MOL0     C92482   5.792  10.406   4.886  0.3395 -0.8151  0.0273
  686MOL0     O92483   5.698  10.416   4.982  0.4511 -1.1708  0.5215
  686MOL0     C92484   5.645  10.297   5.033  0.2328  0.3688 -0.7469
  686MOL0     C92485   5.507  10.278   4.978 -0.2722  0.4425  0.1496
  686MOL0     C92486   5.411  10.189   5.063 -0.1989  0.6271  0.4706
  686MOL0     C92487   5.399  10.233   5.207  0.0483  0.7674  0.8357
  686MOL0     C92488   5.294  10.159   5.283 -0.5786 -0.3792 -0.0932
  686MOL0     C92489   5.252  10.236   5.411  0.4523  0.7189  0.4568
  686MOL0     C92490   5.366  10.296   5.495 -0.3113 -0.0823  0.4875
  686MOL0     C92491   5.325  10.327   5.639  0.1770 -1.3342  0.6141
  686MOL0     N92492   5.234  10.437   5.644 -0.2816  0.1227  0.6582
  686MOL0     C92493   5.271  10.557   5.592  0.8056 -0.4979 -0.1554
  686MOL0     C92494   5.198  10.644   5.666 -1.1459  1.1080 -0.1793
  686MOL0     C92495   5.207  10.788   5.659 -0.1620 -0.0275  1.4512
  686MOL0     C92496   5.079  10.861   5.650 -0.2094  1.1861  0.7299
  686MOL0     C92497   5.094  11.008   5.622  0.7461  0.9328 -0.7979
  686MOL0     C92498   4.963  11.077   5.579 -0.1573 -0.6768  0.7143
  686MOL0     O92499   4.871  11.048   5.683  0.0269  0.0451 -0.3966
  686MOL0     C92500   4.747  11.111   5.653 -0.2711 -0.5619 -0.5697
  686MOL0     C92501   4.652  11.049   5.584 -1.0184 -0.3139 -0.3075
  686MOL0     C92502   4.521  11.097   5.554  0.0385 -0.4942  0.2621
  686MOL0     C92503   4.428  11.030   5.453  0.2791 -0.3331 -0.4405
  686MOL0     C92504   4.485  11.221   5.610  0.0371 -0.2418  0.5023
  686MOL0     C92505   4.345  11.286   5.599  0.3791 -0.8419 -0.0966
  686MOL0     O92506   4.250  11.244   5.512 -0.5864 -0.2004  0.2280
  686MOL0     C92507   4.131  11.298   5.528  1.4562 -0.2013 -1.0656
  686MOL0     C92508   4.026  11.232   5.600 -0.3275  0.7876 -0.2141
  686MOL0     C92509   3.902  11.298   5.614  0.1456 -0.1523  0.3186
  686MOL0     C92510   3.871  11.423   5.554 -0.2496 -0.0248  0.5092
  686MOL0     O92511   3.751  11.487   5.549  0.0436  0.4012  0.1743
  686MOL0     C92512   3.632  11.412   5.588 -0.3067 -0.4592  1.2867
  686MOL0     C92513   3.516  11.503   5.598  0.1031  0.1525 -0.4709
  686MOL0     C92514   3.469  11.536   5.746  0.8504  0.5321 -0.0038
  686MOL0     C92515   3.327  11.593   5.748 -0.6779  0.1970  0.0189
  686MOL0     C92516   3.297  11.652   5.895 -0.1921  0.0977  0.2330
  686MOL0     C92517   3.268  11.536   5.998  0.8894 -0.7989  0.4412
  686MOL0     C92518   3.225  11.595   6.140 -0.7442  0.4412 -0.5263
  686MOL0     C92519   3.251  11.493   6.256  0.3835 -0.8393  0.3644
  686MOL0    Cl92520   3.157  11.342   6.244 -0.6096 -0.2394  0.1951
  686MOL0     C92521   3.969  11.473   5.471 -0.8742  0.9621 -1.1380
  686MOL0     C92522   4.100  11.415   5.463  0.7187 -0.5001  0.2920
  686MOL0     O92523   4.326  11.383   5.671 -0.6985 -0.2619  0.5478
  686MOL0     C92524   4.586  11.294   5.685  0.5477  0.6774  0.5455
  686MOL0     C92525   4.708  11.243   5.704 -0.1261  0.3443  0.5348
  686MOL0     N92526   5.119  10.577   5.761  0.5441 -0.3444  0.5683
  686MOL0     N92527   5.135  10.448   5.736 -0.6617 -0.8129 -0.8449
  686MOL0     C92528   5.896  10.498   4.893  0.4189 -1.3060  0.6206
  686MOL0     C92529   6.005  10.489   4.800  0.2600  0.1112  0.6018
  686MOL0     C92530   6.267  10.298   4.426  0.6854  0.7660  0.2811
  686MOL0     C92531   6.292  10.189   4.337 -0.2422 -0.2813 -0.1843
  686MOL0     C92532   6.418  10.184   4.268  0.0319 -0.3022  0.5550
  686MOL0     C92533   6.526  10.262   4.304 -0.2929 -0.1974  0.1041
  686MOL0     O92534   6.630  10.240   4.223 -0.0037  0.2866 -0.4126
  686MOL0     C92535   6.749  10.328   4.225 -0.4034 -0.0101  0.3999
  686MOL0     C92536   6.880  10.266   4.157 -0.0016 -0.3537 -0.1278
  686MOL0     C92537   6.925  10.136   4.214 -0.5819 -0.1432  0.5165
  686MOL0     C92538   7.074  10.094   4.186 -0.2474 -0.3828  0.2442
  686MOL0     C92539   7.103   9.952   4.171  0.6735 -0.5917 -0.4431
  686MOL0     C92540   7.105   9.833   4.159 -0.3966 -0.4514 -0.9043
  686MOL0     C92541   6.500  10.369   4.389  0.1960  0.2762  1.0107
  686MOL0     C92542   6.372  10.389   4.431 -0.2903 -0.8337 -0.9317
  686MOL0     H92543   5.912  10.209   4.622  1.4113 -1.3973  1.3517
  686MOL0     H92544   5.709  10.240   4.765 -1.2943  2.3750 -0.1359
  686MOL0     H92545   5.707  10.208   5.018 -1.1144 -1.6160  3.7713
  686MOL0     H92546   5.630  10.303   5.141 -1.0292 -0.4764 -0.8569
  686MOL0     H92547   5.460  10.376   4.960  2.4298  1.9198  0.6888
  686MOL0     H92548   5.508  10.231   4.879 -2.2180 -0.0655  0.3128
  686MOL0     H92549   5.318  10.172   5.009  0.2471 -1.4761  0.2684
  686MOL0     H92550   5.452  10.087   5.057 -0.5372  0.3622  2.1404
  686MOL0     H92551   5.496  10.219   5.256  0.1067  0.9951  0.7871
  686MOL0     H92552   5.377  10.339   5.192  0.9241  0.9372  0.6676
  686MOL0     H92553   5.210  10.140   5.215  1.2758  0.0783 -2.6564
  686MOL0     H92554   5.337  10.063   5.312  0.7245  0.5306  1.0632
  686MOL0     H92555   5.184  10.314   5.374 -0.3350 -0.1422  0.0355
  686MOL0     H92556   5.191  10.171   5.474  0.9325 -1.1557 -0.9166
  686MOL0     H92557   5.445  10.221   5.499 -0.9641 -0.7479  1.1377
  686MOL0     H92558   5.398  10.388   5.445 -0.3857 -1.4843 -2.3588
  686MOL0     H92559   5.413  10.371   5.688 -2.4062  3.8293  1.3110
  686MOL0     H92560   5.291  10.232   5.681  2.7085 -2.4078  0.3997
  686MOL0     H92561   5.318  10.586   5.498  0.1753 -2.7874 -1.2241
  686MOL0     H92562   5.266  10.824   5.744  3.4743 -1.2226 -0.3629
  686MOL0     H92563   5.261  10.813   5.568 -2.3456 -0.6064 -0.0794
  686MOL0     H92564   5.011  10.841   5.734  1.5631 -0.4028  1.8632
  686MOL0     H92565   5.037  10.830   5.554  2.2090 -0.2874  0.0711
  686MOL0     H92566   5.178  11.019   5.553  0.4480  1.5708 -1.0624
  686MOL0     H92567   5.128  11.047   5.719 -0.2583 -3.0786  1.4427
  686MOL0     H92568   4.925  11.034   5.485 -1.8698  1.2806  0.4221
  686MOL0     H92569   4.978  11.185   5.574  1.9632 -0.9737 -1.3739
  686MOL0     H92570   4.683  10.957   5.534  1.1513  1.6223 -2.8475
  686MOL0     H92571   4.476  10.936   5.427  2.7249 -0.5135  3.7705
  686MOL0     H92572   4.333  11.003   5.500 -0.1224  0.6642 -0.6449
  686MOL0     H92573   4.413  11.101   5.371  0.7177 -0.7774 -0.9095
  686MOL0     H92574   4.048  11.137   5.647 -0.2014  0.2479 -1.3173
  686MOL0     H92575   3.820  11.245   5.662 -1.7885  2.3745  0.0360
  686MOL0     H92576   3.604  11.330   5.520 -2.1867  1.4069 -0.3193
  686MOL0     H92577   3.644  11.364   5.685 -0.0244 -2.0459  0.5043
  686MOL0     H92578   3.534  11.593   5.539 -0.9974  1.1005  0.6055
  686MOL0     H92579   3.437  11.447   5.548  1.2755 -0.8970 -1.2025
  686MOL0     H92580   3.535  11.605   5.800 -1.8901  3.1742  0.2595
  686MOL0     H92581   3.457  11.449   5.811  1.9031  0.2995 -0.0951
  686MOL0     H92582   3.326  11.672   5.673 -1.1419  1.2680  1.1105
  686MOL0     H92583   3.253  11.515   5.727 -0.9979  0.8782 -1.4908
  686MOL0     H92584   3.209  11.716   5.890  1.3984  2.3999 -0.0082
  686MOL0     H92585   3.375  11.719   5.933 -1.5057 -0.5261  4.6397
  686MOL0     H92586   3.192  11.465   5.967 -0.4503  0.6782  0.2134
  686MOL0     H92587   3.358  11.478   6.017  2.2202  0.4863 -1.5713
  686MOL0     H92588   3.118  11.616   6.138 -1.0216 -0.6447  1.0606
  686MOL0     H92589   3.286  11.684   6.156  2.0073 -1.6409  1.4500
  686MOL0     H92590   3.228  11.535   6.355  0.5652 -0.1350  0.1156
  686MOL0     H92591   3.357  11.468   6.262  1.0438  1.5509 -0.0269
  686MOL0     H92592   3.943  11.561   5.412 -0.0963  2.0034  0.0183
  686MOL0     H92593   4.164  11.473   5.398  0.5515  1.1656  1.5515
  686MOL0     H92594   4.560  11.392   5.723 -1.3556 -0.6157  2.8251
  686MOL0     H92595   4.775  11.295   5.772 -2.1176  2.6997  0.8100
  686MOL0     H92596   5.886  10.580   4.963  3.4679  0.4239 -0.7400
  686MOL0     H92597   6.090  10.557   4.799  0.8297 -0.5375 -1.7964
  686MOL0     H92598   6.218  10.114   4.309  0.2095 -1.1645  0.9081
  686MOL0     H92599   6.441  10.104   4.198 -2.1559  0.7290 -1.4786
  686MOL0     H92600   6.726  10.429   4.191  2.5237  1.6385  2.7690
  686MOL0     H92601   6.780  10.334   4.330  1.8898 -2.5983 -0.0085
  686MOL0     H92602   6.953  10.343   4.182 -2.3328  1.3393  1.9116
  686MOL0     H92603   6.865  10.265   4.048  1.8230 -0.5487 -0.4155
  686MOL0     H92604   6.858  10.060   4.174  2.3099 -2.9249  0.5817
  686MOL0     H92605   6.908  10.134   4.322 -0.6984  1.7697  0.5648
  686MOL0     H92606   7.138  10.131   4.267 -0.9311 -1.2391  1.2061
  686MOL0     H92607   7.099  10.146   4.093  1.2158 -3.4638 -1.2415
  686MOL0     H92608   7.104   9.726   4.157 -1.9007 -0.4904 -0.0243
  686MOL0     H92609   6.574  10.439   4.427 -2.6226  1.4326  5.1615
  686MOL0     H92610   6.353  10.484   4.481 -0.0973 -0.8407 -0.8460
  687MOL0     O92611   3.958   4.740   4.318  0.0881 -0.9107  0.0546
  687MOL0     C92612   3.911   4.627   4.323 -0.1459 -0.3142  1.1359
  687MOL0     O92613   3.982   4.512   4.340 -0.0034 -0.0748 -0.3024
  687MOL0     C92614   4.120   4.520   4.322 -0.0031 -0.4525  0.3356
  687MOL0     C92615   4.216   4.490   4.419  1.1578 -0.6586 -0.1766
  687MOL0     C92616   4.355   4.468   4.395 -0.3678 -0.2735  0.1155
  687MOL0     C92617   4.407   4.492   4.262  0.7733  0.0130  0.1225
  687MOL0     O92618   4.536   4.467   4.220 -0.1948  0.3652 -0.5978
  687MOL0     C92619   4.638   4.442   4.314  0.8504 -0.2363 -0.1223
  687MOL0     C92620   4.772   4.480   4.263  0.3502 -0.8164  0.1627
  687MOL0     C92621   4.832   4.401   4.141  0.1535  0.4195 -0.1400
  687MOL0     C92622   4.928   4.288   4.176 -0.5549  1.0788  0.1364
  687MOL0     C92623   4.966   4.211   4.051 -0.2261  1.1299  0.7465
  687MOL0     C92624   5.055   4.084   4.083 -0.3710 -0.0839 -0.3638
  687MOL0     C92625   5.137   4.029   3.957 -0.2285 -0.0984 -0.7352
  687MOL0     C92626   5.203   3.894   3.977 -0.0071 -0.1842 -0.5465
  687MOL0     N92627   5.103   3.792   3.964 -0.0394 -0.1432  1.2564
  687MOL0     C92628   5.088   3.710   3.855  0.1263 -0.3485 -0.1264
  687MOL0     C92629   4.969   3.644   3.870  0.2447 -1.5297 -0.0384
  687MOL0     C92630   4.913   3.559   3.764  0.2712  0.4442  0.8346
  687MOL0     C92631   4.864   3.626   3.634 -0.6000  0.4064  0.3362
  687MOL0     C92632   4.797   3.764   3.653  0.4478 -0.3587  0.3478
  687MOL0     C92633   4.675   3.767   3.745 -0.2944  0.3715  0.9881
  687MOL0     O92634   4.573   3.720   3.666  0.1276  0.9282 -0.6191
  687MOL0     C92635   4.454   3.682   3.727  0.2926 -0.4023 -0.2323
  687MOL0     C92636   4.377   3.586   3.660 -0.6376  0.2722 -0.5343
  687MOL0     C92637   4.250   3.540   3.703  0.2642 -0.1758 -0.5525
  687MOL0     C92638   4.195   3.425   3.639  0.3216 -0.2977  0.0010
  687MOL0     C92639   4.195   3.592   3.822 -0.2916  0.2947 -0.1214
  687MOL0     C92640   4.066   3.547   3.891 -0.7510  0.2576 -0.2077
  687MOL0     O92641   4.046   3.579   4.028 -0.5667  0.2350  0.7661
  687MOL0     C92642   3.963   3.494   4.110  1.3074  0.0779  1.5273
  687MOL0     C92643   3.820   3.493   4.082  0.4064  0.4860 -0.1483
  687MOL0     C92644   3.734   3.408   4.159 -0.0498  0.0857 -0.1482
  687MOL0     C92645   3.786   3.330   4.265 -1.2993  1.6227  0.6411
  687MOL0     O92646   3.699   3.241   4.333  0.0483  0.5851 -0.0806
  687MOL0     C92647   3.746   3.106   4.332  0.3243 -0.3968  0.0814
  687MOL0     C92648   3.619   3.018   4.302 -0.8682  0.3949  0.1328
  687MOL0     C92649   3.527   3.026   4.424 -0.2825  0.0946 -0.8870
  687MOL0     C92650   3.439   2.900   4.429  0.1956 -1.0358  0.1851
  687MOL0     C92651   3.370   2.900   4.563 -0.1124 -0.3896  0.0264
  687MOL0     C92652   3.293   2.772   4.573  0.4875 -0.1792 -0.3772
  687MOL0     C92653   3.228   2.752   4.709  0.8021 -0.8175  0.4604
  687MOL0     C92654   3.128   2.862   4.756 -0.5450  0.7345  1.0988
  687MOL0    Cl92655   2.979   2.865   4.643 -0.3078 -0.2519  0.0615
  687MOL0     C92656   3.925   3.341   4.290 -0.5222  0.5441  0.4447
  687MOL0     C92657   4.014   3.418   4.211  0.2378 -0.7083  0.0135
  687MOL0     O92658   3.993   3.475   3.831  0.0584 -0.2615  0.6003
  687MOL0     C92659   4.262   3.701   3.875  0.0855 -0.0243  0.4267
  687MOL0     C92660   4.388   3.748   3.839  0.2082 -0.7127  0.2792
  687MOL0     N92661   4.915   3.679   3.999  0.3257 -0.6502  0.3596
  687MOL0     N92662   5.003   3.763   4.051 -0.1952  0.0001 -1.0572
  687MOL0     C92663   4.309   4.530   4.167  0.5237  0.4372 -0.0940
  687MOL0     C92664   4.172   4.549   4.201 -0.2846  0.2981 -0.0056
  687MOL0     C92665   3.768   4.610   4.348  0.3200 -0.7759 -0.2014
  687MOL0     C92666   3.709   4.485   4.351  1.0151 -0.0484 -1.9314
  687MOL0     C92667   3.575   4.471   4.370  0.0157 -1.0494 -0.0702
  687MOL0     C92668   3.492   4.586   4.381 -0.0022 -0.5898 -0.3788
  687MOL0     O92669   3.356   4.557   4.384  0.6329 -0.0751 -0.0902
  687MOL0     C92670   3.257   4.657   4.419  0.0141 -1.3250 -0.0648
  687MOL0     C92671   3.274   4.719   4.571  0.0280  0.1339  0.0700
  687MOL0     C92672   3.161   4.813   4.600  0.3995  0.1060  0.2351
  687MOL0     C92673   3.175   4.885   4.736 -0.7061 -0.0587 -0.1284
  687MOL0     C92674   3.065   4.976   4.752  0.7045 -0.2902 -0.0917
  687MOL0     C92675   2.987   5.065   4.767 -0.1442 -0.1751 -0.2316
  687MOL0     C92676   3.549   4.713   4.388 -0.1113  0.7042  0.5442
  687MOL0     C92677   3.689   4.718   4.363  0.3208 -0.3788 -0.7433
  687MOL0     H92678   4.185   4.469   4.521 -0.2524 -3.8708 -1.1334
  687MOL0     H92679   4.424   4.436   4.472 -1.8857  0.9328  2.0579
  687MOL0     H92680   4.621   4.498   4.406 -1.0595 -1.1161  0.1080
  687MOL0     H92681   4.626   4.336   4.335  1.0107  0.0041  1.3050
  687MOL0     H92682   4.768   4.586   4.238 -1.0727 -1.2337 -1.5661
  687MOL0     H92683   4.846   4.464   4.342  1.9325 -0.4399 -1.1875
  687MOL0     H92684   4.744   4.365   4.088 -1.6035  2.8845  0.8876
  687MOL0     H92685   4.882   4.478   4.080  0.6799  0.5326  0.4140
  687MOL0     H92686   5.023   4.323   4.219  4.2084 -5.6393 -3.0554
  687MOL0     H92687   4.880   4.212   4.238 -0.3952 -0.6117 -1.6956
  687MOL0     H92688   4.884   4.191   3.981 -0.2070  1.2334  0.6936
  687MOL0     H92689   5.031   4.273   3.989 -1.4372  0.9447 -0.7727
  687MOL0     H92690   5.128   4.106   4.161 -2.8224 -1.8365  2.6386
  687MOL0     H92691   4.992   4.008   4.130  3.1387 -3.8161 -1.1667
  687MOL0     H92692   5.072   4.025   3.869  0.4127  0.1867 -1.2307
  687MOL0     H92693   5.213   4.103   3.930  0.7803 -1.4614 -1.7827
  687MOL0     H92694   5.253   3.888   4.074 -1.0178  1.5595  0.1395
  687MOL0     H92695   5.272   3.886   3.893  0.2334  3.1449 -0.7840
  687MOL0     H92696   5.169   3.697   3.784  1.8396  0.3777  1.6095
  687MOL0     H92697   4.984   3.478   3.744 -0.4087  0.5222 -2.4340
  687MOL0     H92698   4.827   3.504   3.802  0.2855 -0.8167 -0.8196
  687MOL0     H92699   4.807   3.550   3.580 -0.6023 -1.3837  2.7087
  687MOL0     H92700   4.942   3.649   3.562 -1.3493  2.6794  0.1762
  687MOL0     H92701   4.758   3.790   3.554 -0.5227  1.1389  1.0902
  687MOL0     H92702   4.869   3.841   3.680 -0.4546 -0.0036  1.8159
  687MOL0     H92703   4.641   3.861   3.790 -1.7924  0.6420 -0.5808
  687MOL0     H92704   4.686   3.706   3.835 -0.1989 -1.1875 -0.0320
  687MOL0     H92705   4.422   3.557   3.566  1.2509  1.1582  0.0477
  687MOL0     H92706   4.096   3.447   3.599 -0.2347 -2.2620  0.1750
  687MOL0     H92707   4.263   3.395   3.558 -0.5613 -0.1131 -0.8336
  687MOL0     H92708   4.183   3.334   3.699  0.7429 -0.2196  0.2094
  687MOL0     H92709   3.769   3.561   4.015 -2.0139  1.0199  2.0689
  687MOL0     H92710   3.627   3.405   4.138  0.0075 -2.2258 -0.4115
  687MOL0     H92711   3.819   3.094   4.251  0.1677  1.3345 -0.3468
  687MOL0     H92712   3.794   3.086   4.429 -1.2459 -1.0435  0.7650
  687MOL0     H92713   3.569   3.052   4.211 -1.6370  0.4778  0.5773
  687MOL0     H92714   3.651   2.914   4.294 -1.0946  0.3793 -0.6891
  687MOL0     H92715   3.476   3.122   4.424 -0.1002  0.2002 -1.5132
  687MOL0     H92716   3.591   3.019   4.512 -2.5040 -3.2303  0.6528
  687MOL0     H92717   3.367   2.892   4.347  0.1914 -2.5450  0.3131
  687MOL0     H92718   3.501   2.812   4.412  1.5813  0.3228 -2.3723
  687MOL0     H92719   3.304   2.986   4.579  0.8453  1.1730 -3.3252
  687MOL0     H92720   3.441   2.885   4.645  0.5694 -0.8070 -0.6213
  687MOL0     H92721   3.207   2.768   4.505 -0.9536 -2.9459  1.3883
  687MOL0     H92722   3.353   2.681   4.566  2.1617  0.7791  0.8273
  687MOL0     H92723   3.312   2.756   4.779  1.4077 -1.1675 -0.2337
  687MOL0     H92724   3.175   2.658   4.724 -0.7026 -0.1194 -0.2350
  687MOL0     H92725   3.175   2.961   4.744 -1.5921  0.9498 -1.8885
  687MOL0     H92726   3.107   2.835   4.860 -0.5494 -1.3405  0.5976
  687MOL0     H92727   3.971   3.282   4.370  2.7835  2.2092 -0.0864
  687MOL0     H92728   4.121   3.423   4.225  0.1318  0.5260  0.5090
  687MOL0     H92729   4.230   3.746   3.968  1.4033 -1.3356  1.5786
  687MOL0     H92730   4.440   3.831   3.885 -0.7759 -1.3480  2.7019
  687MOL0     H92731   4.334   4.549   4.063 -0.9237  1.3286 -0.3087
  687MOL0     H92732   4.103   4.578   4.123  0.9899 -0.2825 -1.3991
  687MOL0     H92733   3.769   4.396   4.334  2.6056  1.0626 -2.3592
  687MOL0     H92734   3.532   4.372   4.375 -3.6849  0.4338  1.0817
  687MOL0     H92735   3.257   4.737   4.345 -0.3995 -1.8977 -0.6998
  687MOL0     H92736   3.159   4.609   4.416 -2.3391  2.9417  0.5411
  687MOL0     H92737   3.376   4.753   4.590  0.6324 -1.9621  0.9118
  687MOL0     H92738   3.269   4.639   4.646 -1.7298  0.6290  0.5259
  687MOL0     H92739   3.063   4.766   4.585  1.0111 -1.5191  1.1601
  687MOL0     H92740   3.171   4.881   4.514  3.2996 -0.2305  0.1977
  687MOL0     H92741   3.269   4.942   4.737 -0.8968  0.3749 -2.1572
  687MOL0     H92742   3.192   4.812   4.816  1.2729 -1.7648 -1.9696
  687MOL0     H92743   2.934   5.157   4.771  1.8040  1.0166 -0.3948
  687MOL0     H92744   3.483   4.798   4.397 -2.0821 -0.6162 -0.6583
  687MOL0     H92745   3.730   4.818   4.378  2.5412 -1.2423 -0.7077
  688MOL0     O92746   9.675   8.950   0.501  0.7135 -0.3606 -0.1161
  688MOL0     C92747   9.685   9.070   0.497 -0.4204 -0.2095  0.3053
  688MOL0     O92748   9.597   9.163   0.552 -0.1590 -0.1600 -0.1952
  688MOL0     C92749   9.497   9.103   0.638 -0.2655 -0.7526  1.0366
  688MOL0     C92750   9.522   9.042   0.763  0.3007  0.2463  1.3995
  688MOL0     C92751   9.428   8.985   0.837 -0.8401 -0.7777  0.2969
  688MOL0     C92752   9.295   9.001   0.820  0.1471  0.4454  0.6005
  688MOL0     O92753   9.217   8.952   0.918 -0.2055 -0.3085  0.2531
  688MOL0     C92754   9.094   9.031   0.934 -0.3952 -0.2468 -0.6835
  688MOL0     C92755   8.978   8.956   0.866  1.1226  0.2364 -0.0622
  688MOL0     C92756   8.842   9.011   0.924  0.0040 -0.1073  1.7387
  688MOL0     C92757   8.823   8.948   1.062  0.2317  0.1475 -0.8128
  688MOL0     C92758   8.683   8.974   1.116  0.2261  0.1855  0.4795
  688MOL0     C92759   8.670   8.920   1.263 -0.0984 -0.7573 -0.0446
  688MOL0     C92760   8.533   8.900   1.321  0.6461 -0.0111  0.0131
  688MOL0     C92761   8.469   9.026   1.375  0.1260 -0.0457  0.2163
  688MOL0     N92762   8.338   9.008   1.438 -0.0093 -0.5991 -0.0332
  688MOL0     C92763   8.216   8.997   1.370 -0.2948  0.2119  0.5608
  688MOL0     C92764   8.124   8.950   1.459  0.1842 -0.0324  0.6255
  688MOL0     C92765   7.986   8.933   1.413  0.3778 -0.2539 -0.6621
  688MOL0     C92766   7.893   8.878   1.517 -1.1641 -0.0945 -0.5422
  688MOL0     C92767   7.761   8.830   1.475 -0.3322  0.5639 -0.4292
  688MOL0     C92768   7.700   8.757   1.592 -0.0714 -0.6598  0.2155
  688MOL0     O92769   7.609   8.649   1.552  0.1161 -0.0933  0.1882
  688MOL0     C92770   7.493   8.694   1.501 -0.1379 -0.2271 -0.2959
  688MOL0     C92771   7.391   8.595   1.490 -0.0743  0.2281 -0.2802
  688MOL0     C92772   7.257   8.621   1.456 -0.5833  0.5852  0.3139
  688MOL0     C92773   7.175   8.496   1.456  0.0148 -0.3760  0.2237
  688MOL0     C92774   7.209   8.757   1.436  0.7798 -0.0322 -0.5340
  688MOL0     C92775   7.072   8.789   1.400  0.5148  0.0562 -0.8695
  688MOL0     O92776   7.019   8.732   1.284  0.0389  0.2118 -0.2179
  688MOL0     C92777   6.893   8.675   1.290 -0.3049  0.2993  0.2191
  688MOL0     C92778   6.833   8.652   1.163  0.6172  1.3244  0.2888
  688MOL0     C92779   6.699   8.617   1.152  0.1498  0.3695 -1.0586
  688MOL0     C92780   6.622   8.590   1.265  0.1868 -0.4299  0.3314
  688MOL0     O92781   6.494   8.543   1.245  0.7273 -0.5779 -0.7553
  688MOL0     C92782   6.396   8.594   1.342 -0.0760 -0.1389  0.4310
  688MOL0     C92783   6.263   8.533   1.310 -0.0229  0.5740 -0.9735
  688MOL0     C92784   6.265   8.377   1.316  0.2947  0.1366 -0.5731
  688MOL0     C92785   6.117   8.333   1.329  0.1969  1.3009  0.1189
  688MOL0     C92786   6.114   8.177   1.319 -0.1873  0.2529 -0.4735
  688MOL0     C92787   5.966   8.134   1.302  1.0164  0.3694  0.1033
  688MOL0     C92788   5.935   7.982   1.312 -1.1342  0.5230  0.6003
  688MOL0     C92789   5.946   7.932   1.457 -0.3300  0.3781  0.3371
  688MOL0    Cl92790   5.789   7.960   1.524  0.2591  0.1033 -0.1212
  688MOL0     C92791   6.684   8.603   1.395  0.6570  0.3764  0.2128
  688MOL0     C92792   6.815   8.645   1.407  0.5092 -0.6227 -0.4161
  688MOL0     O92793   7.014   8.873   1.469  0.3355  0.1784  0.8237
  688MOL0     C92794   7.303   8.856   1.455  0.6438  0.4024  0.8262
  688MOL0     C92795   7.436   8.827   1.482 -0.7231 -0.3523  0.1198
  688MOL0     N92796   8.194   8.924   1.579  0.8138  0.2314 -0.0279
  688MOL0     N92797   8.317   8.953   1.557  0.0895 -0.9170 -0.6289
  688MOL0     C92798   9.257   9.072   0.700  0.9780  0.2405 -0.0483
  688MOL0     C92799   9.359   9.126   0.614  0.5725 -1.0717 -0.5539
  688MOL0     C92800   9.797   9.135   0.419 -0.7432  0.5362 -0.3122
  688MOL0     C92801   9.881   9.063   0.334 -0.0914  0.2044  0.1293
  688MOL0     C92802   9.981   9.122   0.255 -0.6383 -1.7335 -0.2242
  688MOL0     C92803   9.989   9.269   0.244  0.2928  0.7493 -0.4931
  688MOL0     O92804  10.061   9.329   0.147  0.9072 -0.2030  0.1110
  688MOL0     C92805  10.162   9.416   0.187 -0.5087  0.1161  0.6416
  688MOL0     C92806  10.273   9.414   0.079 -1.1074 -0.2171 -0.7883
  688MOL0     C92807  10.307   9.559   0.029 -0.4525 -0.1498 -0.9129
  688MOL0     C92808  10.401   9.636   0.133  0.2658 -0.1211 -0.0273
  688MOL0     C92809  10.347   9.665   0.267 -0.2011 -0.4171 -0.3819
  688MOL0     C92810  10.297   9.701   0.369 -0.4720  0.2668 -0.9036
  688MOL0     C92811   9.905   9.335   0.329  0.0104  0.0804  0.4054
  688MOL0     C92812   9.816   9.273   0.417 -0.1509 -0.4149 -0.1798
  688MOL0     H92813   9.628   9.040   0.790  0.9178  0.5954 -0.8350
  688MOL0     H92814   9.469   8.940   0.927 -3.0108 -0.8595  1.3107
  688MOL0     H92815   9.083   9.029   1.042 -1.4948 -1.3588 -0.7957
  688MOL0     H92816   9.104   9.137   0.906  1.5281 -0.4832 -1.0570
  688MOL0     H92817   8.984   8.970   0.758  0.6675  0.6907 -0.0326
  688MOL0     H92818   8.966   8.851   0.892 -2.1944 -0.0291 -2.1734
  688MOL0     H92819   8.838   9.120   0.923 -1.5417 -0.1438  1.0496
  688MOL0     H92820   8.756   8.982   0.863  0.3950  1.8736  0.1480
  688MOL0     H92821   8.838   8.840   1.064  1.0056  0.2465 -0.4041
  688MOL0     H92822   8.902   8.989   1.127 -0.6622 -0.6742  0.8555
  688MOL0     H92823   8.663   9.081   1.109 -0.0179  0.0697 -0.8282
  688MOL0     H92824   8.608   8.927   1.050  1.4881 -0.1711 -0.7530
  688MOL0     H92825   8.719   8.822   1.264 -0.8601 -1.1421  0.9429
  688MOL0     H92826   8.728   8.991   1.323  0.0475 -0.0621 -0.9780
  688MOL0     H92827   8.464   8.860   1.247  1.2478 -1.5938  0.2691
  688MOL0     H92828   8.538   8.822   1.398 -0.7804 -1.4860 -1.3144
  688MOL0     H92829   8.457   9.092   1.290 -0.9032 -4.3512 -3.3601
  688MOL0     H92830   8.536   9.066   1.452 -1.9944 -0.6044  2.4757
  688MOL0     H92831   8.212   9.027   1.266  2.7885 -2.4328 -0.4645
  688MOL0     H92832   7.940   9.028   1.382 -1.2970 -1.4767 -2.1413
  688MOL0     H92833   7.981   8.878   1.318  3.1690  1.6320 -2.0264
  688MOL0     H92834   7.891   8.957   1.592 -0.2876 -0.1745 -0.4274
  688MOL0     H92835   7.949   8.802   1.573 -1.3268  2.2505  3.1874
  688MOL0     H92836   7.778   8.758   1.395  0.5181 -2.7443  2.4736
  688MOL0     H92837   7.705   8.912   1.427 -1.0931  0.4814  0.2924
  688MOL0     H92838   7.648   8.824   1.661  1.9384  2.0339 -0.7134
  688MOL0     H92839   7.772   8.695   1.645 -2.6219 -4.7045 -0.6304
  688MOL0     H92840   7.424   8.493   1.509 -3.8103 -0.9536  0.6988
  688MOL0     H92841   7.073   8.515   1.490 -1.3004 -2.3258 -2.2528
  688MOL0     H92842   7.184   8.448   1.358 -0.2475 -4.4825  2.0172
  688MOL0     H92843   7.215   8.422   1.526 -0.6159 -1.5383 -0.5973
  688MOL0     H92844   6.882   8.664   1.067  1.6354 -2.1496  0.2291
  688MOL0     H92845   6.649   8.619   1.055 -2.1778  0.6043  0.0742
  688MOL0     H92846   6.415   8.560   1.445 -3.3378  0.2124  1.2459
  688MOL0     H92847   6.388   8.702   1.354  2.2660 -0.0292  1.6300
  688MOL0     H92848   6.194   8.575   1.384 -0.4608 -2.0840  0.2549
  688MOL0     H92849   6.217   8.576   1.220 -2.1295  0.0405 -0.1979
  688MOL0     H92850   6.321   8.344   1.405 -1.4363  0.1210  0.5661
  688MOL0     H92851   6.323   8.344   1.229  0.5985  2.2945 -1.2399
  688MOL0     H92852   6.075   8.376   1.420 -0.3805 -0.5411  0.7697
  688MOL0     H92853   6.051   8.377   1.253 -3.0285 -2.8604  0.1731
  688MOL0     H92854   6.172   8.140   1.404  0.3515 -0.1079 -0.9938
  688MOL0     H92855   6.170   8.140   1.232 -0.3564 -2.0385  0.3221
  688MOL0     H92856   5.911   8.188   1.380 -1.7336 -0.1309 -1.3678
  688MOL0     H92857   5.927   8.178   1.210  0.2468  0.7080  0.5768
  688MOL0     H92858   6.013   7.935   1.251 -2.8440 -0.0585 -1.2314
  688MOL0     H92859   5.843   7.948   1.264 -1.5657  1.1856  0.9438
  688MOL0     H92860   6.027   7.985   1.507  1.2603  0.1708 -1.8412
  688MOL0     H92861   5.969   7.825   1.463 -2.7853 -0.0885  3.1756
  688MOL0     H92862   6.624   8.575   1.480 -4.2970  2.5852 -2.1199
  688MOL0     H92863   6.863   8.659   1.503  0.5615 -1.1586 -0.3596
  688MOL0     H92864   7.263   8.957   1.451  0.3139  0.3149  1.6855
  688MOL0     H92865   7.495   8.918   1.489  0.7911 -1.2878  0.0665
  688MOL0     H92866   9.152   9.090   0.678  1.2729 -0.9858 -2.7143
  688MOL0     H92867   9.341   9.195   0.533  0.7796 -0.1311  0.1804
  688MOL0     H92868   9.863   8.957   0.324 -0.5135  0.4788 -3.9818
  688MOL0     H92869  10.050   9.057   0.202  2.6144 -1.4717  3.2888
  688MOL0     H92870  10.125   9.519   0.194  0.5376  0.4913  0.7459
  688MOL0     H92871  10.202   9.389   0.285 -0.2560 -5.1607 -0.5789
  688MOL0     H92872  10.247   9.348  -0.005 -3.2847  0.0114 -0.3503
  688MOL0     H92873  10.364   9.377   0.128 -1.0729  4.5348  3.4518
  688MOL0     H92874  10.221   9.615  -0.008 -2.2192 -2.7082 -0.9988
  688MOL0     H92875  10.365   9.543  -0.063  1.5652 -4.8577  0.8126
  688MOL0     H92876  10.428   9.734   0.091 -1.0242 -1.1675 -3.7074
  688MOL0     H92877  10.494   9.580   0.137 -0.0348 -0.5775  0.7579
  688MOL0     H92878  10.261   9.744   0.461 -1.7772 -0.3691 -1.1001
  688MOL0     H92879   9.924   9.441   0.334  0.2246  0.1867 -1.8008
  688MOL0     H92880   9.751   9.342   0.471  2.5840  3.7651 -1.7105
  689MOL0     O92881   6.697   7.662   0.197  0.8108  0.4413  0.0864
  689MOL0     C92882   6.695   7.546   0.158 -0.3507 -0.4582  0.4800
  689MOL0     O92883   6.588   7.459   0.169  0.0063 -0.8627 -0.1151
  689MOL0     C92884   6.482   7.471   0.253  0.4349 -0.1461  0.1293
  689MOL0     C92885   6.371   7.387   0.237  0.7508 -0.0201  0.0782
  689MOL0     C92886   6.268   7.383   0.324 -1.1651 -0.6911  0.3683
  689MOL0     C92887   6.258   7.478   0.420  0.2149  0.3660  0.0476
  689MOL0     O92888   6.138   7.479   0.487  0.3111  0.7614 -0.2255
  689MOL0     C92889   6.037   7.552   0.414  0.5468 -0.2788  0.6353
  689MOL0     C92890   5.888   7.511   0.438 -0.0907 -0.1790 -0.3773
  689MOL0     C92891   5.787   7.623   0.458  0.5212  0.2619 -0.5356
  689MOL0     C92892   5.638   7.567   0.489 -0.2971  0.0543 -0.0207
  689MOL0     C92893   5.550   7.673   0.558  0.4637  0.2519 -0.8163
  689MOL0     C92894   5.410   7.658   0.505 -0.4921  0.0154  0.5038
  689MOL0     C92895   5.351   7.515   0.535 -0.5273  0.3338  0.4479
  689MOL0     C92896   5.194   7.504   0.527  0.8519 -0.0824 -0.0769
  689MOL0     N92897   5.122   7.571   0.419 -0.6043 -0.0628  0.3002
  689MOL0     C92898   5.014   7.665   0.431 -0.5786 -0.4001  0.1751
  689MOL0     C92899   5.004   7.717   0.305 -1.3305  0.3255 -0.1196
  689MOL0     C92900   4.900   7.823   0.255  0.1910 -0.6547 -0.8082
  689MOL0     C92901   4.857   7.909   0.378 -0.7449  0.2922 -0.1430
  689MOL0     C92902   4.959   8.015   0.410 -0.4394 -0.4085  0.8366
  689MOL0     C92903   4.938   8.092   0.535 -0.4149 -0.5372 -0.4096
  689MOL0     O92904   5.025   8.201   0.555  0.5158  0.4085  0.7866
  689MOL0     C92905   5.151   8.171   0.599 -0.5222  0.3562  0.4863
  689MOL0     C92906   5.231   8.283   0.636  0.0470  0.2451  1.4793
  689MOL0     C92907   5.359   8.282   0.693  0.5845 -0.2200 -0.3311
  689MOL0     C92908   5.410   8.415   0.736 -0.2823 -0.3028 -0.4526
  689MOL0     C92909   5.402   8.149   0.720  0.0856  0.5824 -0.4556
  689MOL0     C92910   5.540   8.133   0.779 -1.4561  0.1865  0.5700
  689MOL0     O92911   5.587   8.004   0.783  0.6841  0.4452  0.3841
  689MOL0     C92912   5.722   7.988   0.802 -0.6049  0.0420  0.6383
  689MOL0     C92913   5.813   7.945   0.698  0.4712 -0.0763  0.5466
  689MOL0     C92914   5.949   7.913   0.718  0.0964  0.1933  0.4102
  689MOL0     C92915   5.999   7.945   0.840 -0.2954  1.1243 -0.2679
  689MOL0     O92916   6.132   7.940   0.851 -0.1883 -0.0701 -0.2515
  689MOL0     C92917   6.193   7.889   0.974 -0.2678  0.4772  0.2868
  689MOL0     C92918   6.342   7.914   0.964 -0.4408  0.3656  0.3749
  689MOL0     C92919   6.422   7.871   1.092  0.0540 -0.7066  1.1230
  689MOL0     C92920   6.544   7.960   1.102  0.1446 -0.6916 -0.3112
  689MOL0     C92921   6.630   7.924   1.220  0.3227  0.0671  0.5868
  689MOL0     C92922   6.730   8.028   1.253 -0.0598  0.2579 -0.0737
  689MOL0     C92923   6.669   8.137   1.342  0.3655  0.3003 -0.2573
  689MOL0     C92924   6.717   8.285   1.304  0.1190 -0.4077 -0.8783
  689MOL0    Cl92925   6.888   8.301   1.283  0.1009  0.1934 -0.1574
  689MOL0     C92926   5.924   7.979   0.950  0.6440 -1.1965  0.2868
  689MOL0     C92927   5.779   7.990   0.931  0.6705 -0.3622 -0.9228
  689MOL0     O92928   5.611   8.233   0.802 -0.5382 -0.2559  0.1947
  689MOL0     C92929   5.322   8.027   0.690  0.0243  0.1108  1.0100
  689MOL0     C92930   5.203   8.043   0.630  0.1457  0.4951  0.0788
  689MOL0     N92931   5.084   7.643   0.221  0.3229  0.4575  0.4396
  689MOL0     N92932   5.161   7.572   0.292 -1.0623  0.0790  0.1724
  689MOL0     C92933   6.356   7.579   0.425  0.8470 -0.0677  0.9358
  689MOL0     C92934   6.461   7.575   0.342  0.0467  0.1149 -0.2468
  689MOL0     C92935   6.814   7.490   0.086  1.0969  0.4196 -0.3928
  689MOL0     C92936   6.919   7.565   0.050 -0.7498 -0.4300  0.0173
  689MOL0     C92937   7.026   7.512  -0.018 -0.5258  0.0204 -1.0358
  689MOL0     C92938   7.042   7.373  -0.037  0.0904 -0.0434  0.3677
  689MOL0     O92939   7.154   7.312  -0.090  0.2384  0.3611 -0.4461
  689MOL0     C92940   7.282   7.358  -0.045 -0.2828  0.1742  0.2094
  689MOL0     C92941   7.315   7.299   0.093  0.7449 -0.4552 -0.3998
  689MOL0     C92942   7.463   7.303   0.106  1.2006 -0.0595 -0.1985
  689MOL0     C92943   7.518   7.257   0.245  0.1184 -0.2671  0.6239
  689MOL0     C92944   7.486   7.115   0.271  0.1658  0.1212  0.1738
  689MOL0     C92945   7.467   6.993   0.289  0.0030  0.6514  1.0853
  689MOL0     C92946   6.925   7.301  -0.019 -0.6095  0.0278 -0.5035
  689MOL0     C92947   6.815   7.357   0.040 -0.2930  0.3016  0.3747
  689MOL0     H92948   6.389   7.312   0.161  1.3137 -1.7428  1.8298
  689MOL0     H92949   6.181   7.321   0.304 -2.6593  1.6422 -0.7376
  689MOL0     H92950   6.032   7.659   0.435 -0.2565 -0.0813 -0.4884
  689MOL0     H92951   6.063   7.545   0.308  0.4070  0.0105  0.5809
  689MOL0     H92952   5.855   7.477   0.340  1.0592  0.5663 -1.0500
  689MOL0     H92953   5.878   7.432   0.513 -1.6468  2.4527  2.3982
  689MOL0     H92954   5.815   7.691   0.539  0.0746  1.9675 -1.7366
  689MOL0     H92955   5.784   7.685   0.368  3.1029 -0.3970 -1.1514
  689MOL0     H92956   5.589   7.521   0.403 -3.1652 -1.0140  2.0200
  689MOL0     H92957   5.651   7.487   0.562 -0.9735 -0.4423 -0.4351
  689MOL0     H92958   5.552   7.654   0.666 -1.3620 -1.4058 -1.0011
  689MOL0     H92959   5.589   7.770   0.527 -1.8342  0.8510 -2.0370
  689MOL0     H92960   5.354   7.729   0.567  2.0124  0.8331  1.9782
  689MOL0     H92961   5.396   7.678   0.399 -1.0092 -0.6118  0.4502
  689MOL0     H92962   5.384   7.443   0.459  1.5045  0.7522  0.8897
  689MOL0     H92963   5.384   7.476   0.632 -2.4465  0.3467  1.1470
  689MOL0     H92964   5.147   7.533   0.622 -0.1180  0.1342 -0.6174
  689MOL0     H92965   5.160   7.403   0.506 -1.4827  0.9639 -1.6387
  689MOL0     H92966   4.957   7.691   0.520 -1.1839  1.7859 -0.7704
  689MOL0     H92967   4.933   7.878   0.167  1.5463  2.7460  1.6317
  689MOL0     H92968   4.813   7.762   0.228 -2.4234  2.3666  0.1752
  689MOL0     H92969   4.825   7.844   0.461 -0.8158 -1.4919 -1.5053
  689MOL0     H92970   4.764   7.954   0.343 -0.2364  2.4746  1.1724
  689MOL0     H92971   4.956   8.086   0.327 -0.0409 -1.3577 -0.0105
  689MOL0     H92972   5.058   7.968   0.407 -0.5088 -0.5629  0.9481
  689MOL0     H92973   4.925   8.030   0.624  1.3199 -1.2627 -0.6183
  689MOL0     H92974   4.838   8.135   0.527 -0.1172  0.1177 -0.6760
  689MOL0     H92975   5.191   8.382   0.616 -1.9765 -0.9573 -1.1453
  689MOL0     H92976   5.343   8.491   0.695  1.9342  2.5720  0.8844
  689MOL0     H92977   5.417   8.423   0.845  1.0731  0.1148 -0.5531
  689MOL0     H92978   5.511   8.431   0.698  1.3015 -2.0081  2.6019
  689MOL0     H92979   5.759   7.934   0.604 -0.4995 -2.0359  1.2547
  689MOL0     H92980   6.006   7.875   0.633 -1.4358 -0.6282 -0.3036
  689MOL0     H92981   6.147   7.924   1.066 -1.8072 -2.4629  0.7692
  689MOL0     H92982   6.190   7.779   0.978 -1.0206  0.4888  0.1958
  689MOL0     H92983   6.381   7.856   0.881 -1.6900  2.6762 -1.9855
  689MOL0     H92984   6.359   8.021   0.951  3.7102  0.5731  4.7170
  689MOL0     H92985   6.437   7.762   1.090  0.6964 -0.6127  0.2199
  689MOL0     H92986   6.363   7.895   1.181 -5.8849  3.0286 -3.0943
  689MOL0     H92987   6.596   7.960   1.007 -0.2820 -2.9755 -0.6028
  689MOL0     H92988   6.501   8.058   1.124  1.3120  0.2213 -1.9871
  689MOL0     H92989   6.683   7.833   1.189  0.1383  0.6282 -1.5186
  689MOL0     H92990   6.566   7.905   1.306  1.7999 -3.2390  1.1114
  689MOL0     H92991   6.812   7.981   1.308 -1.0284 -1.2574  0.1097
  689MOL0     H92992   6.764   8.065   1.156 -3.1921  0.6667 -1.1231
  689MOL0     H92993   6.702   8.110   1.443  1.2332  0.9919 -0.3357
  689MOL0     H92994   6.560   8.135   1.338  0.3463  0.3260  0.2233
  689MOL0     H92995   6.685   8.344   1.390 -2.3940 -0.3288 -1.7965
  689MOL0     H92996   6.654   8.320   1.222  0.8002  3.5349  0.1060
  689MOL0     H92997   5.958   8.002   1.050  0.3194 -2.4391  0.6940
  689MOL0     H92998   5.705   8.000   1.009  0.6098 -2.8399 -0.5626
  689MOL0     H92999   5.352   7.923   0.685 -2.0613 -0.5002 -0.6812
  689MOL0     H93000   5.146   7.952   0.613 -1.3934  1.6597 -1.3361
  689MOL0     H93001   6.348   7.670   0.484 -2.6623 -0.7572  1.7968
  689MOL0     H93002   6.543   7.645   0.350  0.4946  0.0211 -2.9286
  689MOL0     H93003   6.909   7.673   0.055  2.9665  0.0887 -0.5629
  689MOL0     H93004   7.105   7.580  -0.047  0.1598 -1.0630 -1.7890
  689MOL0     H93005   7.357   7.319  -0.115 -1.6413  0.2584 -1.3551
  689MOL0     H93006   7.288   7.467  -0.045  2.7828  0.1237 -1.5757
  689MOL0     H93007   7.277   7.198   0.110 -1.8253 -0.0317 -2.8614
  689MOL0     H93008   7.277   7.372   0.166  2.2008 -1.1934  1.1591
  689MOL0     H93009   7.504   7.400   0.075 -1.9484  2.0207  1.6226
  689MOL0     H93010   7.509   7.236   0.033 -1.6332 -0.6058 -1.6059
  689MOL0     H93011   7.481   7.326   0.322  0.0353  0.5408 -0.1219
  689MOL0     H93012   7.626   7.271   0.240 -0.1150  1.1818 -2.6468
  689MOL0     H93013   7.436   6.893   0.310  0.1537  0.9054  2.6294
  689MOL0     H93014   6.920   7.195  -0.041  1.5308 -0.4210  0.8651
  689MOL0     H93015   6.733   7.296   0.075  0.0539 -0.8835 -0.7821
  690MOL0     O93016   4.919   0.590   1.550 -0.4109  1.0109 -0.2849
  690MOL0     C93017   4.990   0.629   1.458 -0.3028  0.1877 -0.3343
  690MOL0     O93018   5.108   0.575   1.426  0.8120  0.0910  1.0101
  690MOL0     C93019   5.150   0.456   1.473 -0.0549  0.7322 -0.2659
  690MOL0     C93020   5.283   0.452   1.526 -0.1394 -0.0378 -0.7216
  690MOL0     C93021   5.335   0.342   1.592  0.5094  0.7079  0.1075
  690MOL0     C93022   5.244   0.226   1.608 -0.4046  0.2013 -0.0953
  690MOL0     O93023   5.290   0.115   1.680  0.2798  0.5606 -0.0938
  690MOL0     C93024   5.333   0.008   1.596  1.4169 -0.0859  0.4639
  690MOL0     C93025   5.287  -0.118   1.665  0.5399 -0.2235  0.2980
  690MOL0     C93026   5.391  -0.147   1.783  0.0450 -0.4801 -0.7436
  690MOL0     C93027   5.363  -0.276   1.853 -1.0115 -0.3949  0.4762
  690MOL0     C93028   5.489  -0.363   1.871  0.1145 -0.2841 -0.0090
  690MOL0     C93029   5.551  -0.391   1.737  0.1361  1.0741  0.1246
  690MOL0     C93030   5.644  -0.510   1.744 -0.0919  0.1085  0.9683
  690MOL0     C93031   5.674  -0.553   1.600  0.4379 -0.6021 -0.1461
  690MOL0     N93032   5.740  -0.440   1.519  0.5562 -0.6575 -0.4049
  690MOL0     C93033   5.840  -0.357   1.553 -0.1674  0.2664  0.5720
  690MOL0     C93034   5.849  -0.272   1.452  0.5134 -1.2786  0.0966
  690MOL0     C93035   5.947  -0.160   1.446  0.1134 -0.7452 -0.6053
  690MOL0     C93036   5.883  -0.041   1.523 -0.3206  0.3923  0.6579
  690MOL0     C93037   5.960  -0.019   1.648 -0.1353 -0.5342 -0.2352
  690MOL0     C93038   5.910   0.106   1.725  0.4350 -0.0228  0.5417
  690MOL0     O93039   5.989   0.128   1.835 -0.1754 -0.6784 -0.0355
  690MOL0     C93040   6.111   0.182   1.830  0.3975  0.0902 -0.0740
  690MOL0     C93041   6.174   0.197   1.953 -0.4968 -0.2297 -0.2336
  690MOL0     C93042   6.294   0.263   1.963 -0.0905  0.8770 -0.9058
  690MOL0     C93043   6.348   0.252   2.107  0.4473 -0.3148  0.4210
  690MOL0     C93044   6.367   0.311   1.853  0.4521  0.3339  0.0299
  690MOL0     C93045   6.508   0.353   1.857  0.0481 -0.5441 -0.0595
  690MOL0     O93046   6.537   0.440   1.759 -0.2211 -0.4728 -0.0501
  690MOL0     C93047   6.667   0.469   1.737  0.2627 -0.8008 -0.7753
  690MOL0     C93048   6.735   0.409   1.641  0.7202  0.4541 -0.1463
  690MOL0     C93049   6.864   0.449   1.606  0.3467 -0.2927 -0.0788
  690MOL0     C93050   6.938   0.547   1.686  0.9114 -0.3321  0.3248
  690MOL0     O93051   7.071   0.578   1.664 -0.1230 -0.2289  0.3820
  690MOL0     C93052   7.088   0.662   1.549 -0.6706 -0.5342  0.2715
  690MOL0     C93053   7.205   0.745   1.589  0.0222 -0.7225  0.6700
  690MOL0     C93054   7.252   0.841   1.484  0.5025  0.4847  0.4819
  690MOL0     C93055   7.401   0.846   1.475  0.3156  0.1622  0.3672
  690MOL0     C93056   7.489   0.903   1.589 -0.5101  0.3802  0.0721
  690MOL0     C93057   7.637   0.919   1.541  0.0986  0.4434  0.3825
  690MOL0     C93058   7.727   0.998   1.644 -0.0714  0.9819  0.3315
  690MOL0     C93059   7.816   1.101   1.575  0.1567  0.0221  0.0778
  690MOL0    Cl93060   7.922   1.018   1.457  0.6046  0.2210  0.2430
  690MOL0     C93061   6.867   0.615   1.787  0.4765 -0.8425  0.1499
  690MOL0     C93062   6.732   0.576   1.805  0.3021  0.4579 -0.1375
  690MOL0     O93063   6.586   0.297   1.935  0.2949  0.0412 -0.2197
  690MOL0     C93064   6.302   0.306   1.728 -0.0305  1.2240  0.0222
  690MOL0     C93065   6.181   0.229   1.720 -0.3802  0.1766  0.5142
  690MOL0     N93066   5.744  -0.292   1.368  0.3269 -0.1714 -0.2439
  690MOL0     N93067   5.679  -0.396   1.403  0.0712  0.2172  1.0003
  690MOL0     C93068   5.110   0.229   1.555  0.1398  0.0733 -0.1633
  690MOL0     C93069   5.068   0.342   1.483 -0.3317  0.2529 -0.6489
  690MOL0     C93070   4.936   0.730   1.370 -0.0050 -0.5460  0.1930
  690MOL0     C93071   5.028   0.811   1.295  0.6473 -0.9507  0.5437
  690MOL0     C93072   4.978   0.918   1.218 -0.5443 -0.5585 -0.6516
  690MOL0     C93073   4.841   0.951   1.211 -0.6375 -0.0134 -0.4794
  690MOL0     O93074   4.814   1.055   1.129 -0.2232  0.1497 -0.5825
  690MOL0     C93075   4.678   1.118   1.140 -0.0159 -0.5853  0.9005
  690MOL0     C93076   4.655   1.232   1.034 -0.8961 -0.2356 -0.2569
  690MOL0     C93077   4.650   1.183   0.893  0.0053  0.2563  0.2275
  690MOL0     C93078   4.513   1.206   0.812 -0.1198  0.5801  0.1004
  690MOL0     C93079   4.550   1.211   0.669  0.7475  0.4180  0.3258
  690MOL0     C93080   4.589   1.209   0.556  0.1371 -0.0517 -0.4023
  690MOL0     C93081   4.751   0.863   1.278 -0.4721 -0.3453  0.1273
  690MOL0     C93082   4.802   0.761   1.363  0.2374 -0.4560 -0.4932
  690MOL0     H93083   5.336   0.547   1.524 -0.6324  0.2299 -1.4716
  690MOL0     H93084   5.437   0.333   1.628  0.2619 -0.9170  0.4734
  690MOL0     H93085   5.277   0.003   1.502  1.0063 -1.1023  0.7533
  690MOL0     H93086   5.440   0.016   1.576  0.8645  4.9600 -1.9484
  690MOL0     H93087   5.185  -0.098   1.699  0.0878 -1.1569 -0.4784
  690MOL0     H93088   5.297  -0.202   1.596  5.4444 -0.0037  0.3772
  690MOL0     H93089   5.493  -0.132   1.746 -0.1003 -0.3476 -1.0979
  690MOL0     H93090   5.373  -0.073   1.861 -2.2815 -2.3940  0.6672
  690MOL0     H93091   5.319  -0.256   1.951  2.4088  0.7201  1.9127
  690MOL0     H93092   5.288  -0.332   1.796 -0.2795  1.8546 -2.9945
  690MOL0     H93093   5.565  -0.313   1.932 -2.6580  0.5408  3.0389
  690MOL0     H93094   5.477  -0.456   1.928  1.4567 -0.8358 -0.5896
  690MOL0     H93095   5.469  -0.405   1.665  0.6166  2.6980 -0.8099
  690MOL0     H93096   5.609  -0.306   1.697  3.8097 -2.7638 -3.8017
  690MOL0     H93097   5.735  -0.490   1.802  1.0841 -2.9902  0.3730
  690MOL0     H93098   5.594  -0.596   1.790 -1.7070  0.5568  0.1047
  690MOL0     H93099   5.575  -0.579   1.561  0.1347 -0.1849  0.3264
  690MOL0     H93100   5.734  -0.645   1.593  3.1395  0.9526  1.0475
  690MOL0     H93101   5.904  -0.369   1.639  0.8943  1.1058 -0.0801
  690MOL0     H93102   6.034  -0.193   1.503 -0.1288 -0.2442  0.0683
  690MOL0     H93103   5.977  -0.135   1.343  1.3041  1.7719  0.2731
  690MOL0     H93104   5.777  -0.061   1.544 -0.9274  0.2528 -2.2234
  690MOL0     H93105   5.872   0.045   1.458  2.9603  0.9423  0.6846
  690MOL0     H93106   6.063  -0.004   1.616 -1.6338  1.2151 -5.3236
  690MOL0     H93107   5.947  -0.104   1.715  1.9230 -0.3040  0.5132
  690MOL0     H93108   5.810   0.076   1.758  0.0826 -0.1309 -0.6056
  690MOL0     H93109   5.898   0.192   1.659  2.2243 -0.0729  0.0857
  690MOL0     H93110   6.131   0.162   2.047  0.2785 -1.6459 -0.3718
  690MOL0     H93111   6.410   0.164   2.125  1.1497  0.1566  0.3561
  690MOL0     H93112   6.412   0.340   2.114 -3.2485  2.4831  3.2467
  690MOL0     H93113   6.268   0.249   2.182 -1.4530  2.1045 -1.3393
  690MOL0     H93114   6.691   0.321   1.594  1.1977 -0.3638  0.8877
  690MOL0     H93115   6.922   0.379   1.546 -0.3064 -3.2081  2.4431
  690MOL0     H93116   7.113   0.604   1.460 -0.7772  0.5852 -0.5087
  690MOL0     H93117   7.006   0.730   1.526 -1.2788 -1.4372 -0.3091
  690MOL0     H93118   7.176   0.805   1.676  1.4600 -2.9379  2.7786
  690MOL0     H93119   7.287   0.684   1.627 -0.9967 -1.3451  1.9356
  690MOL0     H93120   7.219   0.941   1.515 -2.5510 -0.0502 -0.7536
  690MOL0     H93121   7.205   0.825   1.387  2.5563  0.8966 -0.6356
  690MOL0     H93122   7.416   0.740   1.454 -2.9069 -0.3592  0.2161
  690MOL0     H93123   7.429   0.899   1.383  1.2639 -0.5281  0.2296
  690MOL0     H93124   7.492   0.834   1.674  0.9364 -1.6874 -1.5571
  690MOL0     H93125   7.462   1.006   1.612  2.2678  1.2641 -0.2839
  690MOL0     H93126   7.680   0.820   1.526  0.0324  0.6716 -1.6606
  690MOL0     H93127   7.633   0.955   1.438 -3.5424 -2.4955 -0.7014
  690MOL0     H93128   7.790   0.924   1.695  2.1614  2.2689 -0.3914
  690MOL0     H93129   7.653   1.041   1.712  0.8440  2.0534  0.6869
  690MOL0     H93130   7.877   1.163   1.642 -2.6271  2.9158  0.1325
  690MOL0     H93131   7.743   1.167   1.528 -0.3630 -3.1769 -4.2646
  690MOL0     H93132   6.918   0.688   1.849  0.1319  2.5093 -3.1805
  690MOL0     H93133   6.676   0.628   1.882  0.0736 -1.0304  0.7226
  690MOL0     H93134   6.360   0.339   1.643  2.7289 -1.5121  0.6913
  690MOL0     H93135   6.135   0.218   1.623 -0.5447 -0.8688  0.6956
  690MOL0     H93136   5.053   0.138   1.573 -1.5054  0.7391 -1.7899
  690MOL0     H93137   4.962   0.350   1.463 -0.3471  0.0556 -0.6451
  690MOL0     H93138   5.134   0.793   1.313  1.2012 -0.4548 -1.8239
  690MOL0     H93139   5.054   0.973   1.164  0.0941 -0.2181  0.5577
  690MOL0     H93140   4.609   1.036   1.115  1.5772 -1.9006  0.6414
  690MOL0     H93141   4.668   1.159   1.241  0.2839  3.4069 -0.5442
  690MOL0     H93142   4.729   1.313   1.041 -0.5051 -0.3904 -1.9685
  690MOL0     H93143   4.565   1.290   1.055  0.6922  2.4498 -0.3230
  690MOL0     H93144   4.659   1.075   0.884 -3.0050 -0.2454  1.9001
  690MOL0     H93145   4.731   1.233   0.838 -0.1521  1.0331  0.6833
  690MOL0     H93146   4.465   1.301   0.841  0.8636  0.8718  0.8218
  690MOL0     H93147   4.425   1.147   0.839  0.6241  0.4544  2.5033
  690MOL0     H93148   4.617   1.191   0.454  0.6730 -2.2627  0.0826
  690MOL0     H93149   4.646   0.886   1.259  0.1168  1.0024 -1.8269
  690MOL0     H93150   4.733   0.706   1.427 -1.1862  0.8703 -0.8131
  691MOL0     O93151   8.597   3.017   8.849 -0.7184 -0.8202 -0.5502
  691MOL0     C93152   8.631   2.962   8.955 -0.2114  0.0604 -0.2226
  691MOL0     O93153   8.563   2.858   9.011 -0.1164 -0.6866  0.6052
  691MOL0     C93154   8.463   2.801   8.943 -0.3561  0.1418 -0.6646
  691MOL0     C93155   8.466   2.671   8.902 -0.1579  0.0599 -0.1631
  691MOL0     C93156   8.369   2.623   8.811  0.6166 -0.5199  0.5352
  691MOL0     C93157   8.249   2.693   8.794 -0.4169 -0.5506 -0.1085
  691MOL0     O93158   8.144   2.648   8.718  0.1458  0.0444  0.0187
  691MOL0     C93159   8.160   2.525   8.647 -0.7557 -0.6096 -0.6716
  691MOL0     C93160   8.069   2.524   8.522  0.2504 -0.6050 -0.3914
  691MOL0     C93161   7.914   2.506   8.549  0.5967 -0.6200 -0.0251
  691MOL0     C93162   7.841   2.522   8.410 -0.5443  0.2543  0.4356
  691MOL0     C93163   7.682   2.506   8.429 -0.5206  0.4480  0.3436
  691MOL0     C93164   7.602   2.521   8.303  0.6738  0.3272 -0.5019
  691MOL0     C93165   7.466   2.459   8.330  0.1480  0.1429  0.3249
  691MOL0     C93166   7.364   2.483   8.212 -0.3810 -0.2812 -0.1848
  691MOL0     N93167   7.271   2.378   8.181  0.2510  0.2619  0.3732
  691MOL0     C93168   7.166   2.336   8.256 -1.1086 -0.3692  0.5978
  691MOL0     C93169   7.097   2.253   8.174  0.5013  0.6591  0.2838
  691MOL0     C93170   6.960   2.180   8.195 -0.2575 -0.6707 -0.5511
  691MOL0     C93171   6.846   2.277   8.226 -1.0691 -0.4136 -0.1451
  691MOL0     C93172   6.843   2.397   8.132  0.8800 -0.7761  1.1332
  691MOL0     C93173   6.703   2.467   8.144  1.0148  0.5322  0.3157
  691MOL0     O93174   6.588   2.383   8.112  0.0731  0.2422  0.2643
  691MOL0     C93175   6.471   2.419   8.167  0.6627 -0.2136 -0.4169
  691MOL0     C93176   6.356   2.345   8.141  0.1173 -0.2325  0.9752
  691MOL0     C93177   6.222   2.377   8.179  0.1290  0.2044  0.9810
  691MOL0     C93178   6.121   2.280   8.108 -0.9643  0.4501 -0.9340
  691MOL0     C93179   6.195   2.504   8.254  0.1395 -0.3526  0.2052
  691MOL0     C93180   6.054   2.562   8.289  0.4342  0.4278 -0.1855
  691MOL0     O93181   5.948   2.478   8.247 -0.5974 -0.8313  0.8741
  691MOL0     C93182   5.814   2.519   8.253 -0.1004  0.2151 -0.0598
  691MOL0     C93183   5.746   2.557   8.136 -0.0735  0.1570 -0.4935
  691MOL0     C93184   5.617   2.585   8.137 -0.0566  0.2334  0.2735
  691MOL0     C93185   5.545   2.575   8.251  0.0518 -0.5254 -0.3617
  691MOL0     O93186   5.405   2.588   8.260  0.7199  0.2551 -0.0348
  691MOL0     C93187   5.336   2.656   8.153  0.0483 -0.4231 -0.2201
  691MOL0     C93188   5.197   2.691   8.193 -0.9033  0.7986  0.2863
  691MOL0     C93189   5.104   2.710   8.075 -0.5282  0.1050  0.0442
  691MOL0     C93190   4.965   2.767   8.098  0.7506 -0.6213  1.2454
  691MOL0     C93191   4.886   2.784   7.969  0.1982  0.0909  0.7123
  691MOL0     C93192   4.930   2.911   7.890 -0.0720  0.6036 -0.0427
  691MOL0     C93193   4.843   2.908   7.766  0.0565 -0.0588  0.9501
  691MOL0     C93194   4.710   2.973   7.785  0.8106 -0.1379 -0.7471
  691MOL0    Cl93195   4.706   3.156   7.745  0.2023  0.2417  0.0117
  691MOL0     C93196   5.605   2.544   8.367  0.5627 -0.0788  0.3692
  691MOL0     C93197   5.741   2.505   8.373 -0.0295 -0.2526 -0.3984
  691MOL0     O93198   6.040   2.668   8.342 -0.6407  0.4876 -0.6295
  691MOL0     C93199   6.314   2.565   8.299  0.3321 -1.2836 -0.1747
  691MOL0     C93200   6.443   2.533   8.248  0.2516 -0.0973  0.4144
  691MOL0     N93201   7.166   2.240   8.051 -0.8546  0.2122  0.2947
  691MOL0     N93202   7.268   2.314   8.061  0.0981 -0.3986  0.8984
  691MOL0     C93203   8.232   2.818   8.854 -0.4504  0.7274  0.3069
  691MOL0     C93204   8.344   2.873   8.920  0.1009 -0.9482  0.6709
  691MOL0     C93205   8.747   3.017   9.018  0.2277 -0.5028 -0.0357
  691MOL0     C93206   8.799   2.971   9.138  0.8474 -0.1281  0.4031
  691MOL0     C93207   8.927   3.010   9.193 -0.3104  0.7398  0.0930
  691MOL0     C93208   8.995   3.106   9.131 -0.5733 -0.0107  0.4040
  691MOL0     O93209   9.115   3.159   9.194  0.2151 -1.2533  0.5214
  691MOL0     C93210   9.160   3.286   9.152 -0.5499 -0.1651  0.7595
  691MOL0     C93211   9.251   3.276   9.029  0.2030 -0.5516 -1.3537
  691MOL0     C93212   9.395   3.241   9.067  0.2538  0.2859 -0.5618
  691MOL0     C93213   9.483   3.247   8.950  0.2738 -0.2718 -1.5451
  691MOL0     C93214   9.453   3.135   8.868 -0.1411  0.0959  0.6351
  691MOL0     C93215   9.438   3.033   8.806 -0.0570  0.0028 -0.3680
  691MOL0     C93216   8.955   3.153   9.001 -0.5778 -0.1219 -0.0256
  691MOL0     C93217   8.830   3.107   8.946  0.4502  0.2745  0.8353
  691MOL0     H93218   8.551   2.612   8.935  2.6952  2.9533 -1.8243
  691MOL0     H93219   8.393   2.523   8.774  2.5405 -0.3519  1.1886
  691MOL0     H93220   8.264   2.517   8.615 -1.2824 -0.7444 -2.4745
  691MOL0     H93221   8.130   2.445   8.717 -1.0526  1.7845  2.1260
  691MOL0     H93222   8.089   2.620   8.474 -0.0259  0.3841  1.3881
  691MOL0     H93223   8.105   2.456   8.444  1.5362  0.3486 -0.6521
  691MOL0     H93224   7.891   2.411   8.598  0.4369  1.2506  3.8175
  691MOL0     H93225   7.887   2.580   8.624  2.9557  1.2760 -0.8995
  691MOL0     H93226   7.852   2.622   8.367  0.5270 -1.5672 -4.1824
  691MOL0     H93227   7.882   2.450   8.338 -2.5529 -1.2024  0.6579
  691MOL0     H93228   7.677   2.404   8.467  0.7392 -0.4344 -1.6914
  691MOL0     H93229   7.645   2.584   8.497  0.5266 -0.0750  1.5463
  691MOL0     H93230   7.586   2.626   8.276  2.2491  0.4098 -1.2253
  691MOL0     H93231   7.658   2.475   8.221  1.3918 -1.0200  0.6942
  691MOL0     H93232   7.479   2.351   8.344 -0.2540  0.1045  0.4014
  691MOL0     H93233   7.418   2.497   8.420 -0.3308  0.2818  0.0167
  691MOL0     H93234   7.419   2.495   8.118  0.2454 -1.8447 -0.0585
  691MOL0     H93235   7.299   2.568   8.235  1.3859  1.0995 -0.1349
  691MOL0     H93236   7.142   2.370   8.357  0.3386  2.2707  0.1581
  691MOL0     H93237   6.945   2.131   8.099  1.4453 -2.8627  0.2117
  691MOL0     H93238   6.975   2.101   8.269  2.1283  1.6744  1.7008
  691MOL0     H93239   6.859   2.322   8.324 -2.1170  2.6753 -1.3113
  691MOL0     H93240   6.753   2.220   8.224 -1.8333  0.8224 -0.5585
  691MOL0     H93241   6.862   2.372   8.027 -1.4194  2.7728 -0.3160
  691MOL0     H93242   6.921   2.471   8.148 -0.9033  1.7602 -1.0268
  691MOL0     H93243   6.696   2.554   8.077  1.3671  0.9818  0.8494
  691MOL0     H93244   6.692   2.509   8.244 -0.9729 -1.2056  0.8721
  691MOL0     H93245   6.385   2.268   8.070 -0.8354 -0.3919  0.7450
  691MOL0     H93246   6.099   2.310   8.005 -0.3481 -0.4434 -1.3382
  691MOL0     H93247   6.162   2.179   8.108  1.6498  1.4242 -0.3115
  691MOL0     H93248   6.026   2.277   8.163  0.8013  3.0442  2.6851
  691MOL0     H93249   5.802   2.554   8.043  0.6115 -0.8000 -0.0617
  691MOL0     H93250   5.564   2.607   8.045 -0.5217 -0.1725  0.4375
  691MOL0     H93251   5.387   2.750   8.127 -3.0194  1.9382  1.5853
  691MOL0     H93252   5.327   2.589   8.067 -0.3699 -1.1515  0.3797
  691MOL0     H93253   5.152   2.605   8.243 -1.6451 -0.7980 -2.8606
  691MOL0     H93254   5.203   2.783   8.251 -0.1566  0.5495  0.6160
  691MOL0     H93255   5.098   2.624   8.006 -1.1699  1.5138 -1.7367
  691MOL0     H93256   5.145   2.795   8.020 -0.2033 -0.0534  0.0395
  691MOL0     H93257   4.900   2.698   8.152 -3.0902  0.5378 -1.4659
  691MOL0     H93258   4.973   2.858   8.159 -1.4371  0.0759  0.5594
  691MOL0     H93259   4.781   2.793   7.999 -0.1414 -1.8183  0.2459
  691MOL0     H93260   4.904   2.695   7.909 -2.0877  0.3205 -0.4021
  691MOL0     H93261   4.921   3.002   7.949  2.0054  0.6794  0.2159
  691MOL0     H93262   5.037   2.898   7.875  0.5073  0.7811  3.1755
  691MOL0     H93263   4.819   2.805   7.736 -2.2828  0.3596  1.2315
  691MOL0     H93264   4.889   2.955   7.679 -0.1314 -0.8513  0.4168
  691MOL0     H93265   4.666   2.951   7.883  0.9686  0.2036 -0.5957
  691MOL0     H93266   4.640   2.932   7.713  1.6789 -1.1395 -1.0500
  691MOL0     H93267   5.544   2.558   8.456  0.5026  1.6810  0.0931
  691MOL0     H93268   5.799   2.483   8.463 -1.5635  3.0699  1.5896
  691MOL0     H93269   6.307   2.653   8.362  1.7847  1.2673 -3.3022
  691MOL0     H93270   6.523   2.599   8.279  2.9878 -2.3003 -1.4535
  691MOL0     H93271   8.137   2.870   8.858 -1.4750 -1.1439  2.0763
  691MOL0     H93272   8.342   2.980   8.937  0.7360 -1.0104  1.1453
  691MOL0     H93273   8.749   2.889   9.188  0.0024 -3.0127 -4.5373
  691MOL0     H93274   8.959   2.958   9.283 -1.0525  1.8889  1.0629
  691MOL0     H93275   9.073   3.348   9.125 -0.4017 -1.3083 -2.9489
  691MOL0     H93276   9.208   3.340   9.235  1.3740  0.1026 -0.4545
  691MOL0     H93277   9.252   3.371   8.975 -3.5762  0.2192 -0.3585
  691MOL0     H93278   9.206   3.197   8.968 -2.7993  0.5979 -0.8509
  691MOL0     H93279   9.401   3.138   9.105  0.5718  1.6089  3.3599
  691MOL0     H93280   9.436   3.298   9.151  3.0503 -3.4711  0.9230
  691MOL0     H93281   9.586   3.246   8.985  0.0065 -1.6456 -0.7277
  691MOL0     H93282   9.473   3.343   8.897 -0.5273 -0.9380 -2.6564
  691MOL0     H93283   9.437   2.944   8.746  5.5400 -1.5148  1.2152
  691MOL0     H93284   9.012   3.208   8.928  0.1088 -0.6280  0.1258
  691MOL0     H93285   8.803   3.152   8.851  0.7527 -0.0207  0.6067
  692MOL0     O93286   0.536   5.216   0.328  0.0669  0.1215  0.1587
  692MOL0     C93287   0.548   5.197   0.450  0.6203  0.8873 -0.9408
  692MOL0     O93288   0.655   5.240   0.528 -0.2741 -0.4920 -0.0782
  692MOL0     C93289   0.749   5.334   0.489  0.4822 -0.4577 -0.9994
  692MOL0     C93290   0.765   5.391   0.363  0.1928  0.2340 -0.4807
  692MOL0     C93291   0.863   5.489   0.346 -0.3040 -0.4516 -0.0030
  692MOL0     C93292   0.944   5.537   0.448  0.0687  0.1651 -0.1298
  692MOL0     O93293   1.056   5.622   0.448  0.0313 -0.4367 -0.1919
  692MOL0     C93294   1.083   5.694   0.327 -0.0728  0.3478  0.0931
  692MOL0     C93295   1.177   5.601   0.235  0.3277 -1.2443 -0.0871
  692MOL0     C93296   1.198   5.678   0.107  0.0325  0.7534  0.1952
  692MOL0     C93297   1.317   5.622   0.031 -0.1558 -0.6047 -0.3966
  692MOL0     C93298   1.321   5.710  -0.103 -0.4006  1.0263 -0.3691
  692MOL0     C93299   1.451   5.684  -0.170  0.1141 -0.1221  0.8970
  692MOL0     C93300   1.458   5.720  -0.324  0.8961 -0.2646 -0.7091
  692MOL0     C93301   1.566   5.665  -0.415 -0.5603  0.0211 -0.0715
  692MOL0     N93302   1.595   5.521  -0.389 -0.4926  0.0680 -0.1551
  692MOL0     C93303   1.713   5.466  -0.338 -0.3175 -1.0212  0.1009
  692MOL0     C93304   1.718   5.333  -0.371 -0.3861 -0.0865  0.1017
  692MOL0     C93305   1.830   5.230  -0.355  0.2504  0.6022 -0.9581
  692MOL0     C93306   1.809   5.087  -0.420 -0.0247 -0.3740 -0.4520
  692MOL0     C93307   1.926   4.996  -0.415 -0.1600 -0.4888  0.1996
  692MOL0     C93308   1.992   4.973  -0.285 -0.5601  0.7325 -0.1881
  692MOL0     O93309   2.076   5.089  -0.255 -0.4033  0.2835 -0.5584
  692MOL0     C93310   2.099   5.120  -0.122  0.5868  0.2862  0.2344
  692MOL0     C93311   2.073   5.036  -0.015 -0.1612  0.9710 -0.2094
  692MOL0     C93312   2.089   5.078   0.118 -0.9135 -0.7251 -0.3733
  692MOL0     C93313   2.059   4.967   0.227  0.1774 -0.2900 -0.2312
  692MOL0     C93314   2.133   5.213   0.144 -0.3240 -0.0859  0.5254
  692MOL0     C93315   2.128   5.273   0.283 -0.5120  0.1307  0.4630
  692MOL0     O93316   2.173   5.404   0.283  0.3148 -0.4500  0.0302
  692MOL0     C93317   2.160   5.484   0.393 -0.6135  0.0746  0.0490
  692MOL0     C93318   2.055   5.468   0.495  0.1102 -0.3493  0.3101
  692MOL0     C93319   2.045   5.572   0.584 -0.1253 -0.0556 -0.7085
  692MOL0     C93320   2.131   5.684   0.589 -0.1092 -0.2517  0.3556
  692MOL0     O93321   2.104   5.775   0.687  0.0514 -0.6894 -0.1083
  692MOL0     C93322   2.211   5.859   0.736  0.0277  0.4661  0.5771
  692MOL0     C93323   2.158   5.930   0.857  0.6304  0.9281 -1.0146
  692MOL0     C93324   2.274   6.017   0.913 -0.8130  0.3987 -0.6354
  692MOL0     C93325   2.251   6.081   1.053 -0.1320  0.1257  0.6001
  692MOL0     C93326   2.352   6.194   1.085 -0.3996 -0.1134 -0.3503
  692MOL0     C93327   2.310   6.302   1.189  0.8632  0.7179 -0.3424
  692MOL0     C93328   2.437   6.373   1.260 -0.3707 -0.1618  0.3634
  692MOL0     C93329   2.386   6.475   1.368  0.2474  0.0258 -0.6219
  692MOL0    Cl93330   2.525   6.577   1.454 -0.1420  1.0043  0.1707
  692MOL0     C93331   2.226   5.698   0.495  0.4475 -0.5303 -0.2581
  692MOL0     C93332   2.243   5.597   0.406 -0.7721 -0.4473 -0.3753
  692MOL0     O93333   2.086   5.205   0.378 -0.3779 -1.1416  0.0096
  692MOL0     C93334   2.154   5.296   0.033 -0.6037  0.6579  0.8436
  692MOL0     C93335   2.140   5.251  -0.102 -0.4582 -0.2163 -0.5936
  692MOL0     N93336   1.607   5.316  -0.454  0.2475 -0.2291 -0.2561
  692MOL0     N93337   1.531   5.422  -0.460 -0.0258 -0.8980 -1.1030
  692MOL0     C93338   0.923   5.487   0.579 -0.4396 -0.3767  0.0399
  692MOL0     C93339   0.825   5.382   0.593  0.2411  0.7442 -0.0866
  692MOL0     C93340   0.449   5.108   0.517 -0.2422  0.8240 -0.6975
  692MOL0     C93341   0.461   5.095   0.660  0.2583 -0.0663  0.6713
  692MOL0     C93342   0.370   5.007   0.727 -0.0545  0.2067  0.0072
  692MOL0     C93343   0.281   4.932   0.661  0.4075  0.4233 -0.2664
  692MOL0     O93344   0.191   4.844   0.726 -0.0742  0.0582  0.1904
  692MOL0     C93345   0.227   4.804   0.860  1.0744  0.4970  0.3729
  692MOL0     C93346   0.167   4.664   0.893  0.3072 -0.0285 -0.6556
  692MOL0     C93347   0.191   4.646   1.043 -0.4427 -0.4151  0.4570
  692MOL0     C93348   0.334   4.617   1.081  0.0405 -0.4353 -0.2359
  692MOL0     C93349   0.369   4.483   1.041 -0.0162  0.4190 -0.4829
  692MOL0     C93350   0.421   4.398   0.972  0.5361  0.1604 -0.3289
  692MOL0     C93351   0.265   4.942   0.519 -0.1020 -0.3421 -0.1196
  692MOL0     C93352   0.345   5.034   0.452 -0.8490  0.4081 -0.6122
  692MOL0     H93353   0.708   5.361   0.276  1.6283  1.8501 -2.0605
  692MOL0     H93354   0.873   5.530   0.246 -0.8159 -0.9192 -0.2520
  692MOL0     H93355   0.993   5.716   0.268 -0.4501  1.1641  0.9514
  692MOL0     H93356   1.127   5.789   0.358 -3.1481  0.9290  3.3702
  692MOL0     H93357   1.273   5.589   0.288  0.2812 -0.9135  0.0731
  692MOL0     H93358   1.136   5.502   0.212  3.1209 -1.9138 -2.9442
  692MOL0     H93359   1.113   5.681   0.037  0.9566  1.8353 -0.9187
  692MOL0     H93360   1.217   5.784   0.123 -1.4397  0.8777  1.3652
  692MOL0     H93361   1.404   5.627   0.098  0.9302 -0.7218 -1.7436
  692MOL0     H93362   1.324   5.516   0.006  1.3145 -0.9441  1.2633
  692MOL0     H93363   1.243   5.678  -0.172  0.1599  3.0646 -2.0522
  692MOL0     H93364   1.296   5.815  -0.086  2.4542  1.7366 -0.0854
  692MOL0     H93365   1.537   5.738  -0.129 -0.5110  0.0923  1.9579
  692MOL0     H93366   1.473   5.577  -0.159  0.0793 -0.7190 -3.1602
  692MOL0     H93367   1.366   5.682  -0.371  0.9359 -0.2597 -0.7897
  692MOL0     H93368   1.461   5.829  -0.315 -0.3672 -0.3692  1.8049
  692MOL0     H93369   1.657   5.722  -0.393 -0.6520  0.3495 -0.5354
  692MOL0     H93370   1.548   5.681  -0.521  0.0251 -5.1177 -1.1934
  692MOL0     H93371   1.768   5.521  -0.262 -1.9487  0.2735  0.3914
  692MOL0     H93372   1.925   5.265  -0.396  2.0630 -1.7502  0.9084
  692MOL0     H93373   1.862   5.213  -0.252 -0.1528 -1.5483 -1.1514
  692MOL0     H93374   1.793   5.109  -0.526  1.9029  2.4909 -0.2804
  692MOL0     H93375   1.715   5.049  -0.379  0.1691  0.9070  1.3304
  692MOL0     H93376   1.998   5.023  -0.493  0.2970 -1.8434  0.1341
  692MOL0     H93377   1.893   4.901  -0.459 -0.4266  0.1243 -0.9612
  692MOL0     H93378   2.050   4.881  -0.292  2.5364  2.4609  0.6850
  692MOL0     H93379   1.918   4.960  -0.206 -0.2110 -0.7871 -0.0780
  692MOL0     H93380   2.043   4.932  -0.027  1.3591  0.3640  0.8956
  692MOL0     H93381   2.094   4.978   0.330 -1.2806 -0.9466  0.3551
  692MOL0     H93382   1.950   4.964   0.230  0.0568 -0.8231 -2.7663
  692MOL0     H93383   2.101   4.876   0.184  2.0821 -0.5855  2.0656
  692MOL0     H93384   1.978   5.392   0.503 -2.0770  1.6887 -0.2973
  692MOL0     H93385   1.960   5.564   0.650  0.7161  1.5705  0.6320
  692MOL0     H93386   2.303   5.802   0.750  1.7597  1.0076 -5.5970
  692MOL0     H93387   2.247   5.935   0.666  3.5575  0.7244  2.4740
  692MOL0     H93388   2.071   5.983   0.817  0.2013  0.0486 -1.2769
  692MOL0     H93389   2.116   5.863   0.934  0.2793  2.2697  0.0071
  692MOL0     H93390   2.304   6.090   0.837  0.7869  2.0099  1.4135
  692MOL0     H93391   2.358   5.951   0.937 -1.6097 -0.4668 -0.1465
  692MOL0     H93392   2.147   6.115   1.060 -0.7958 -2.0617  3.0014
  692MOL0     H93393   2.261   6.000   1.126  1.3871 -1.4985 -1.3053
  692MOL0     H93394   2.357   6.247   0.990  1.0962 -2.2979 -1.5824
  692MOL0     H93395   2.454   6.160   1.105 -0.4263 -0.8650 -1.3832
  692MOL0     H93396   2.241   6.375   1.147 -1.8903 -2.4075 -1.6990
  692MOL0     H93397   2.251   6.245   1.262 -1.4734  3.0861 -0.2552
  692MOL0     H93398   2.507   6.423   1.192 -1.4008 -0.0345 -0.6336
  692MOL0     H93399   2.496   6.296   1.309 -1.5181 -0.6088  1.0845
  692MOL0     H93400   2.357   6.410   1.452  0.8241 -0.9995 -1.1927
  692MOL0     H93401   2.298   6.535   1.342  0.7083  1.6622  1.3589
  692MOL0     H93402   2.285   5.789   0.500  1.6086 -1.2481 -0.4711
  692MOL0     H93403   2.328   5.604   0.339 -0.4462 -2.7496 -0.2967
  692MOL0     H93404   2.191   5.398   0.045  0.2342  0.5287 -0.3667
  692MOL0     H93405   2.170   5.314  -0.185  0.2296  0.2981  0.0331
  692MOL0     H93406   0.969   5.523   0.671  0.4781  0.0680 -0.5841
  692MOL0     H93407   0.814   5.344   0.694 -1.8575 -0.1417 -0.5876
  692MOL0     H93408   0.535   5.155   0.711  1.2058  0.2761 -1.0052
  692MOL0     H93409   0.395   4.989   0.831  1.8475 -0.3140 -0.5052
  692MOL0     H93410   0.335   4.806   0.870  0.9744  3.2115  1.9179
  692MOL0     H93411   0.200   4.886   0.928  4.1463  1.0818  1.0000
  692MOL0     H93412   0.205   4.591   0.822 -1.3759  1.4114 -3.1968
  692MOL0     H93413   0.058   4.663   0.880  0.4460  0.4495 -1.9501
  692MOL0     H93414   0.131   4.560   1.076 -0.7194 -1.7615 -3.1231
  692MOL0     H93415   0.163   4.736   1.097 -0.0530 -1.8243  3.2034
  692MOL0     H93416   0.353   4.641   1.186 -0.7610 -1.8989  0.2786
  692MOL0     H93417   0.410   4.673   1.026  0.9721  1.5524  2.7913
  692MOL0     H93418   0.485   4.320   0.936  1.4630  0.7025  0.0869
  692MOL0     H93419   0.200   4.873   0.465 -1.2962  0.2120  0.5496
  692MOL0     H93420   0.334   5.057   0.346  1.6656  2.4766 -0.5141
  693MOL0     O93421   4.949   9.516   1.576  0.4933  0.4226  0.2682
  693MOL0     C93422   5.048   9.497   1.647 -0.7683  0.1660 -0.4144
  693MOL0     O93423   5.051   9.509   1.783  0.3604  1.3284  0.6030
  693MOL0     C93424   4.942   9.576   1.835  0.0287  0.3633  0.2119
  693MOL0     C93425   4.816   9.519   1.865  0.0491  0.1026 -0.5916
  693MOL0     C93426   4.711   9.601   1.907  0.3069  0.1473 -0.1695
  693MOL0     C93427   4.720   9.737   1.913 -0.8108  0.3432 -0.5485
  693MOL0     O93428   4.616   9.813   1.974  0.1814  0.6042  0.7879
  693MOL0     C93429   4.483   9.780   1.931 -0.1445  0.4569  0.5039
  693MOL0     C93430   4.371   9.882   1.957 -0.0345  0.8053 -0.0231
  693MOL0     C93431   4.372  10.004   1.869 -0.0470  0.1203  0.2972
  693MOL0     C93432   4.501  10.087   1.863 -0.4699  0.7963  0.7289
  693MOL0     C93433   4.490  10.217   1.790 -0.1407  0.4401 -0.0400
  693MOL0     C93434   4.482  10.184   1.638 -0.5024 -0.1059 -0.1820
  693MOL0     C93435   4.439  10.303   1.547 -0.1927  1.4308 -0.0927
  693MOL0     C93436   4.562  10.391   1.545 -0.5377 -0.4517 -0.0644
  693MOL0     N93437   4.627  10.371   1.417 -0.8917  0.1012  0.1674
  693MOL0     C93438   4.749  10.297   1.402 -0.0937 -0.4062 -0.5802
  693MOL0     C93439   4.777  10.299   1.268  0.8587  0.1443 -0.3956
  693MOL0     C93440   4.895  10.234   1.194 -0.2466 -0.1682  0.2891
  693MOL0     C93441   4.863  10.106   1.100 -0.4788 -0.6134  0.1737
  693MOL0     C93442   4.783  10.136   0.976  0.1337  0.2734  0.5233
  693MOL0     C93443   4.780  10.023   0.873 -0.0942 -1.1119 -0.3821
  693MOL0     O93444   4.707  10.075   0.761  0.8230  0.2282 -0.0216
  693MOL0     C93445   4.571  10.050   0.755  0.4191 -0.4571 -0.6650
  693MOL0     C93446   4.492  10.108   0.643 -0.9165  0.2293 -0.3935
  693MOL0     C93447   4.351  10.116   0.642 -0.8618 -0.2453  0.0804
  693MOL0     C93448   4.289  10.176   0.521  0.5638 -0.2184  0.8592
  693MOL0     C93449   4.282  10.075   0.752 -0.3077  1.3704 -0.6279
  693MOL0     C93450   4.136  10.094   0.780 -0.3218  0.0567  0.2637
  693MOL0     O93451   4.066  10.007   0.858  0.2430 -1.1927  0.0297
  693MOL0     C93452   3.936  10.042   0.886 -0.0672 -0.7739  0.7482
  693MOL0     C93453   3.832   9.964   0.842 -0.3139  0.1331 -0.4609
  693MOL0     C93454   3.696   9.992   0.871  0.2217  0.1555 -0.4168
  693MOL0     C93455   3.669  10.100   0.954 -0.3973  0.9529 -0.0736
  693MOL0     O93456   3.533  10.126   0.974  0.3245  0.3121 -0.1974
  693MOL0     C93457   3.500  10.217   1.080  1.7425  0.0133 -0.1628
  693MOL0     C93458   3.343  10.198   1.116 -0.3588  0.5107  0.3741
  693MOL0     C93459   3.246  10.233   0.992 -0.8352  0.8066 -0.1015
  693MOL0     C93460   3.107  10.271   1.045  0.1703 -0.1471  0.4153
  693MOL0     C93461   3.006  10.303   0.937  0.6657 -0.5699  0.0854
  693MOL0     C93462   2.879  10.359   1.007  0.5539 -1.1146 -0.7149
  693MOL0     C93463   2.770  10.377   0.902 -0.1117  0.7097  0.4940
  693MOL0     C93464   2.645  10.441   0.959  0.3238 -0.4322 -1.0838
  693MOL0    Cl93465   2.574  10.325   1.074 -0.1834  0.0450 -0.1613
  693MOL0     C93466   3.778  10.179   1.004  0.0654 -0.4983  0.0426
  693MOL0     C93467   3.911  10.150   0.969 -1.2410  0.3065  0.3692
  693MOL0     O93468   4.082  10.189   0.724  0.3228  0.5013 -0.5484
  693MOL0     C93469   4.359  10.026   0.861  0.9922 -0.6382  0.0635
  693MOL0     C93470   4.496  10.012   0.865  0.3010  0.2961 -0.0896
  693MOL0     N93471   4.688  10.379   1.206 -0.0053 -1.2667 -0.0410
  693MOL0     N93472   4.602  10.424   1.290 -0.0502  0.6982 -0.1375
  693MOL0     C93473   4.844   9.802   1.887 -0.4830  0.3065 -0.9118
  693MOL0     C93474   4.955   9.718   1.852 -0.5655  0.3798 -0.1111
  693MOL0     C93475   5.156   9.417   1.582  0.2340 -0.3904  0.0811
  693MOL0     C93476   5.177   9.422   1.444  0.4364 -0.0138 -0.1066
  693MOL0     C93477   5.285   9.356   1.382  0.4172 -0.8930  0.4820
  693MOL0     C93478   5.369   9.281   1.449  1.1993  1.2263 -0.8164
  693MOL0     O93479   5.458   9.202   1.386  0.5649  0.6263  0.5076
  693MOL0     C93480   5.595   9.211   1.426  0.6037 -0.3632 -0.5710
  693MOL0     C93481   5.679   9.219   1.302 -0.9646  0.8075 -0.4160
  693MOL0     C93482   5.669   9.372   1.257 -0.7880  0.7441 -0.4421
  693MOL0     C93483   5.709   9.386   1.104 -1.5791  0.3743 -0.0679
  693MOL0     C93484   5.613   9.328   1.012  0.4264 -0.3494 -0.7135
  693MOL0     C93485   5.542   9.289   0.921 -0.5141  0.0505  0.7119
  693MOL0     C93486   5.339   9.268   1.588 -0.5124  0.7089 -0.9976
  693MOL0     C93487   5.234   9.326   1.655  0.3884 -0.1828 -0.5874
  693MOL0     H93488   4.791   9.415   1.849 -1.5714 -0.1379  2.6986
  693MOL0     H93489   4.624   9.542   1.933  0.3133 -0.5146 -1.5625
  693MOL0     H93490   4.479   9.758   1.824  0.1103 -0.8776  0.7395
  693MOL0     H93491   4.456   9.689   1.986 -0.8507  0.0176 -0.5503
  693MOL0     H93492   4.279   9.824   1.954  0.6559 -0.2523 -2.3047
  693MOL0     H93493   4.377   9.924   2.059 -0.8505  1.5612 -0.2745
  693MOL0     H93494   4.339   9.980   1.767 -2.3589  0.0496  1.0077
  693MOL0     H93495   4.294  10.070   1.908  1.0203  1.5273  0.1100
  693MOL0     H93496   4.548  10.114   1.958  0.6338  6.6300 -1.0831
  693MOL0     H93497   4.571  10.026   1.805 -2.1946 -0.5022 -0.0651
  693MOL0     H93498   4.404  10.274   1.826 -0.8716 -1.4096  1.2982
  693MOL0     H93499   4.577  10.279   1.816  0.1630  1.0793 -2.3179
  693MOL0     H93500   4.585  10.158   1.613 -0.6105 -2.0493  1.1299
  693MOL0     H93501   4.412  10.104   1.612  0.2398  0.1353 -3.2312
  693MOL0     H93502   4.417  10.274   1.444  3.1564  2.2978 -1.2089
  693MOL0     H93503   4.351  10.342   1.599 -1.4701 -3.0475  1.5625
  693MOL0     H93504   4.623  10.376   1.634 -3.1971 -1.0770  1.8042
  693MOL0     H93505   4.535  10.497   1.550 -0.1029 -0.3752  0.9962
  693MOL0     H93506   4.823  10.246   1.462  0.3074  1.1451  0.2887
  693MOL0     H93507   4.942  10.307   1.128  0.5169 -0.0447  0.9606
  693MOL0     H93508   4.969  10.195   1.264  0.3801 -3.3718 -1.8970
  693MOL0     H93509   4.810  10.041   1.170 -1.0603  1.2232  1.5269
  693MOL0     H93510   4.958  10.060   1.072 -0.4629 -1.9784  2.2404
  693MOL0     H93511   4.828  10.220   0.922 -1.2684 -0.1542 -1.4400
  693MOL0     H93512   4.682  10.168   1.003 -1.3889 -3.1912 -0.5104
  693MOL0     H93513   4.731   9.937   0.920  1.1190 -0.1131  3.0742
  693MOL0     H93514   4.882   9.997   0.845 -1.1884 -3.5404 -2.5237
  693MOL0     H93515   4.550  10.163   0.570  0.9787  2.8035  2.7398
  693MOL0     H93516   4.237  10.270   0.541 -0.0970 -0.1092 -1.1002
  693MOL0     H93517   4.363  10.198   0.444  0.7805 -1.6941  0.6195
  693MOL0     H93518   4.223  10.104   0.471 -0.3254 -0.3748  2.2087
  693MOL0     H93519   3.861   9.880   0.780  4.8915  0.9864  0.3257
  693MOL0     H93520   3.617   9.922   0.848  0.9913 -0.7473 -0.4015
  693MOL0     H93521   3.564  10.190   1.164  4.6255 -0.4205 -2.3457
  693MOL0     H93522   3.511  10.320   1.045 -3.0358  1.8739  2.8359
  693MOL0     H93523   3.330  10.095   1.151  1.5592  0.0755 -0.0490
  693MOL0     H93524   3.313  10.274   1.188  1.3156  3.2891 -1.6480
  693MOL0     H93525   3.242  10.138   0.937  1.8319  1.7250 -2.0660
  693MOL0     H93526   3.291  10.315   0.936  1.7220 -1.2682 -1.2930
  693MOL0     H93527   3.055  10.188   1.093  1.3972 -0.3199  1.4686
  693MOL0     H93528   3.120  10.347   1.122  0.0915  1.0777 -0.7237
  693MOL0     H93529   2.982  10.211   0.883  0.4487 -1.0560  0.9795
  693MOL0     H93530   3.037  10.368   0.855 -5.0645 -0.0803 -2.2032
  693MOL0     H93531   2.843  10.285   1.079  1.0329 -0.9022 -0.2578
  693MOL0     H93532   2.901  10.452   1.059  2.1351 -0.8289 -1.8176
  693MOL0     H93533   2.759  10.278   0.857  0.9330  0.7792  0.0500
  693MOL0     H93534   2.795  10.443   0.818 -1.1292 -1.2748 -1.4966
  693MOL0     H93535   2.568  10.469   0.886  0.0929  2.7727  0.2220
  693MOL0     H93536   2.668  10.531   1.016 -2.9815 -0.2023  0.1258
  693MOL0     H93537   3.771  10.267   1.068 -1.1999  1.2567 -2.3416
  693MOL0     H93538   4.003  10.198   1.003  0.3912  0.4927 -3.7646
  693MOL0     H93539   4.306   9.987   0.947 -1.1410 -1.3887 -1.5088
  693MOL0     H93540   4.527   9.983   0.965  0.3216  0.9620  0.1067
  693MOL0     H93541   4.857   9.907   1.910  1.7965  0.1134 -1.1372
  693MOL0     H93542   5.050   9.764   1.827 -0.9305  0.8617 -0.6338
  693MOL0     H93543   5.107   9.471   1.378  0.8351 -0.6136 -0.9936
  693MOL0     H93544   5.305   9.373   1.276  1.5866  0.9255  0.9457
  693MOL0     H93545   5.610   9.301   1.487 -3.5541  0.1971 -0.0847
  693MOL0     H93546   5.617   9.124   1.489  1.4555 -0.9820 -1.6862
  693MOL0     H93547   5.656   9.144   1.226 -2.1673 -1.3513  1.9340
  693MOL0     H93548   5.779   9.202   1.342 -2.2826 -1.2055  2.4056
  693MOL0     H93549   5.742   9.430   1.314 -2.1536  0.6589  1.4899
  693MOL0     H93550   5.570   9.415   1.278 -1.9869 -2.2436  0.4944
  693MOL0     H93551   5.808   9.340   1.098 -0.4981  2.0552  2.7556
  693MOL0     H93552   5.728   9.488   1.071 -1.7527  0.2158 -0.6679
  693MOL0     H93553   5.482   9.253   0.840  1.0698  2.6176 -1.7844
  693MOL0     H93554   5.404   9.199   1.641 -2.6686 -1.1082 -0.5858
  693MOL0     H93555   5.210   9.307   1.759  2.4862  0.3869  0.0610
  694MOL0     O93556   2.320   8.451   2.873  0.9811 -0.4317  0.0329
  694MOL0     C93557   2.358   8.373   2.957 -0.0253  0.4467  1.5437
  694MOL0     O93558   2.341   8.240   2.954  0.0132  0.0704  0.1434
  694MOL0     C93559   2.243   8.177   2.881  0.4636 -0.0771 -0.0254
  694MOL0     C93560   2.106   8.219   2.881  0.4157  0.7470  0.8274
  694MOL0     C93561   2.010   8.158   2.796 -0.0242 -0.0941 -1.1595
  694MOL0     C93562   2.036   8.038   2.727  0.4398 -1.6002  0.2424
  694MOL0     O93563   1.925   7.980   2.668  0.3607  0.1023 -0.2242
  694MOL0     C93564   1.934   7.835   2.664 -0.5621  0.0028  1.0262
  694MOL0     C93565   1.810   7.778   2.596  1.5305 -0.5451 -1.2313
  694MOL0     C93566   1.777   7.810   2.453  0.0271 -0.1579  0.3895
  694MOL0     C93567   1.627   7.780   2.414 -0.2998 -0.6366  0.0599
  694MOL0     C93568   1.608   7.788   2.258  0.5758 -0.5061 -1.0777
  694MOL0     C93569   1.472   7.742   2.217  0.1526 -0.5578 -0.2325
  694MOL0     C93570   1.448   7.746   2.066  0.0884  0.0226 -0.9039
  694MOL0     C93571   1.430   7.879   1.998 -0.5585 -0.4373 -1.0753
  694MOL0     N93572   1.558   7.946   1.955 -0.1546 -0.2566 -0.3095
  694MOL0     C93573   1.631   7.885   1.855  0.7256 -0.3413  0.1106
  694MOL0     C93574   1.732   7.971   1.836 -0.2943  0.9280  0.2442
  694MOL0     C93575   1.834   7.946   1.718  0.7341  0.4575  0.1243
  694MOL0     C93576   1.943   7.845   1.759 -0.0204  0.3189  0.2505
  694MOL0     C93577   1.894   7.700   1.759 -0.6315  0.8625 -0.2189
  694MOL0     C93578   1.824   7.654   1.629  0.4130 -1.6702 -0.1749
  694MOL0     O93579   1.779   7.516   1.660 -0.6730 -0.5725 -0.2476
  694MOL0     C93580   1.647   7.502   1.699 -0.1513  0.5940 -0.5215
  694MOL0     C93581   1.612   7.426   1.812 -0.5986  0.2317 -0.4430
  694MOL0     C93582   1.481   7.423   1.865 -0.3772 -0.4212  0.8811
  694MOL0     C93583   1.466   7.370   2.011 -0.3074  0.6781  0.9099
  694MOL0     C93584   1.379   7.501   1.803  0.7699  0.0288 -0.4791
  694MOL0     C93585   1.229   7.499   1.843  0.1000  0.7298 -0.8366
  694MOL0     O93586   1.140   7.592   1.786 -0.1710 -0.1890  0.4511
  694MOL0     C93587   1.004   7.562   1.766 -0.5904  0.2440 -1.2661
  694MOL0     C93588   0.916   7.663   1.775  0.5152  0.7168  0.4039
  694MOL0     C93589   0.781   7.668   1.724 -0.9864  0.1257  0.3221
  694MOL0     C93590   0.727   7.552   1.677 -1.1053 -0.3885 -0.4510
  694MOL0     O93591   0.601   7.555   1.636  0.6333 -0.1775  0.8599
  694MOL0     C93592   0.505   7.663   1.674  0.2859  0.3639 -0.6446
  694MOL0     C93593   0.368   7.598   1.656 -0.0027 -0.4875  0.3271
  694MOL0     C93594   0.253   7.696   1.696  0.0131  0.5009 -0.2536
  694MOL0     C93595   0.118   7.621   1.681  0.2915  0.3162 -0.1774
  694MOL0     C93596   0.004   7.723   1.734  0.4832 -0.0551  0.4119
  694MOL0     C93597  -0.123   7.642   1.771 -0.0447 -0.1780  0.0543
  694MOL0     C93598  -0.231   7.747   1.806  0.5498  0.0071  0.7419
  694MOL0     C93599  -0.365   7.674   1.819 -0.3236 -0.0025 -0.2539
  694MOL0    Cl93600  -0.505   7.795   1.812  0.3178 -0.0082 -0.0658
  694MOL0     C93601   0.806   7.433   1.672 -0.4283 -0.2618  0.7139
  694MOL0     C93602   0.946   7.448   1.704 -0.7892 -1.2052  0.0183
  694MOL0     O93603   1.189   7.397   1.902  0.9809  0.4198  0.1514
  694MOL0     C93604   1.420   7.575   1.687 -0.1240  0.0277 -0.9096
  694MOL0     C93605   1.549   7.569   1.635 -0.0992 -1.0214 -0.6632
  694MOL0     N93606   1.733   8.078   1.927 -0.5868 -0.1211 -0.5164
  694MOL0     N93607   1.624   8.063   1.995  0.0758  0.9133  0.4021
  694MOL0     C93608   2.172   7.991   2.732  0.0121 -1.1827 -0.0283
  694MOL0     C93609   2.273   8.065   2.811  0.0421  0.2115  0.0956
  694MOL0     C93610   2.457   8.424   3.041 -0.6582 -0.7123 -0.6853
  694MOL0     C93611   2.481   8.371   3.167  0.4304  0.4235 -0.5102
  694MOL0     C93612   2.574   8.429   3.252 -0.7716  0.6479 -0.8966
  694MOL0     C93613   2.650   8.537   3.208 -0.0112  0.5053  0.6620
  694MOL0     O93614   2.747   8.595   3.291  0.1371  0.5467  0.9983
  694MOL0     C93615   2.800   8.516   3.400  0.6443  0.8780  0.5444
  694MOL0     C93616   2.889   8.401   3.339  0.6381  0.4272 -0.1241
  694MOL0     C93617   3.003   8.451   3.250  0.4067  0.3109 -0.2726
  694MOL0     C93618   3.125   8.500   3.333  0.1548 -0.3723  1.0903
  694MOL0     C93619   3.175   8.400   3.417 -0.5040  0.6975 -0.2784
  694MOL0     C93620   3.223   8.307   3.477 -0.5577  0.3577 -0.0617
  694MOL0     C93621   2.626   8.594   3.085 -0.8551  0.5863 -0.0311
  694MOL0     C93622   2.537   8.537   3.001  0.8774  0.0874  0.4664
  694MOL0     H93623   2.095   8.306   2.944 -0.2342  1.3393 -0.0860
  694MOL0     H93624   1.904   8.181   2.801 -1.0081 -4.1436  2.1287
  694MOL0     H93625   2.014   7.809   2.593 -4.1656 -1.8143 -2.8523
  694MOL0     H93626   1.956   7.790   2.761 -0.7423 -2.5266 -0.0027
  694MOL0     H93627   1.800   7.671   2.617  1.2957 -0.1219  1.1156
  694MOL0     H93628   1.729   7.830   2.647  1.9103 -2.0614  1.0594
  694MOL0     H93629   1.801   7.912   2.422  2.8282 -0.3329  1.6459
  694MOL0     H93630   1.850   7.757   2.392 -2.4647  0.8176 -3.8141
  694MOL0     H93631   1.594   7.680   2.447 -3.6492  0.2636 -0.1521
  694MOL0     H93632   1.566   7.853   2.468  2.4696  1.1318  0.9736
  694MOL0     H93633   1.624   7.896   2.244 -1.5004  0.9764  5.0080
  694MOL0     H93634   1.684   7.727   2.208  1.6662 -0.0887 -0.0046
  694MOL0     H93635   1.440   7.646   2.258 -0.4550  0.5421  1.9889
  694MOL0     H93636   1.403   7.811   2.266  2.4496  0.7987  1.2961
  694MOL0     H93637   1.539   7.692   2.039 -0.1580 -0.6653 -0.4140
  694MOL0     H93638   1.362   7.681   2.047  0.9004 -0.8522 -1.6499
  694MOL0     H93639   1.387   7.945   2.075  0.6244 -0.7298 -0.1351
  694MOL0     H93640   1.357   7.868   1.917 -2.1387 -2.8195  0.5461
  694MOL0     H93641   1.599   7.791   1.810 -4.4513 -0.8613  3.9348
  694MOL0     H93642   1.789   7.922   1.621  1.6358 -1.1850  0.0654
  694MOL0     H93643   1.888   8.041   1.711  1.6998 -0.1552 -1.0422
  694MOL0     H93644   1.983   7.876   1.856 -2.6456  1.6370  1.0104
  694MOL0     H93645   2.030   7.848   1.694 -0.4576  0.6494 -0.3346
  694MOL0     H93646   1.835   7.681   1.849  3.0578  0.2756  2.3176
  694MOL0     H93647   1.989   7.646   1.768 -1.3318 -0.6219 -1.2715
  694MOL0     H93648   1.891   7.660   1.543 -1.9077  2.1483 -1.9568
  694MOL0     H93649   1.746   7.725   1.601 -0.0565 -2.4359 -0.8673
  694MOL0     H93650   1.692   7.372   1.862 -1.6457 -1.1584 -0.1889
  694MOL0     H93651   1.557   7.363   2.071  0.1766 -0.7604  0.0668
  694MOL0     H93652   1.394   7.427   2.069 -0.7879 -0.1852  1.1759
  694MOL0     H93653   1.443   7.263   2.007  0.1101  0.5946  0.7166
  694MOL0     H93654   0.965   7.750   1.818  1.6235  0.6658 -0.7102
  694MOL0     H93655   0.738   7.767   1.730  1.7088  1.3977  0.1878
  694MOL0     H93656   0.528   7.690   1.778  1.9429 -1.3111 -0.5078
  694MOL0     H93657   0.513   7.743   1.600  0.4661  2.3281  1.3844
  694MOL0     H93658   0.352   7.572   1.551  0.7098  0.3549  0.0022
  694MOL0     H93659   0.381   7.502   1.707  0.6062 -1.4998 -1.6196
  694MOL0     H93660   0.264   7.776   1.622 -3.3721  3.2785  1.9571
  694MOL0     H93661   0.264   7.734   1.798 -4.8192 -0.9456  1.0432
  694MOL0     H93662   0.094   7.587   1.579 -1.8020 -0.6093  0.5548
  694MOL0     H93663   0.120   7.528   1.737  0.5516  1.0678  1.1005
  694MOL0     H93664  -0.020   7.794   1.655 -0.9818 -3.1081 -2.1325
  694MOL0     H93665   0.025   7.768   1.831 -3.5837 -2.6065  2.7855
  694MOL0     H93666  -0.143   7.579   1.684  2.3792 -0.4234 -0.3799
  694MOL0     H93667  -0.119   7.568   1.851 -1.4992 -0.8566 -0.4424
  694MOL0     H93668  -0.244   7.830   1.736  0.6543  1.5091  2.4427
  694MOL0     H93669  -0.198   7.784   1.903  0.6428 -0.2743  0.8200
  694MOL0     H93670  -0.373   7.617   1.912 -0.3739  0.2085 -0.1287
  694MOL0     H93671  -0.377   7.597   1.742  1.8472  0.5155 -1.1793
  694MOL0     H93672   0.759   7.336   1.656 -1.8878  0.5465 -0.1096
  694MOL0     H93673   1.022   7.371   1.690  1.2007  0.5392  0.7474
  694MOL0     H93674   1.339   7.628   1.638 -0.9090 -2.7976 -2.9508
  694MOL0     H93675   1.565   7.636   1.550 -1.4213  1.4480  0.9085
  694MOL0     H93676   2.210   7.903   2.681  0.3936 -1.6287  1.0042
  694MOL0     H93677   2.374   8.026   2.802 -0.7655 -2.6449  2.0598
  694MOL0     H93678   2.417   8.291   3.204  0.4903 -0.8066 -2.8761
  694MOL0     H93679   2.573   8.380   3.349  0.4266 -0.3638 -1.3650
  694MOL0     H93680   2.864   8.576   3.464  2.6329  0.9136 -1.3605
  694MOL0     H93681   2.729   8.486   3.478 -0.4292 -0.2929 -0.8235
  694MOL0     H93682   2.827   8.335   3.277 -0.2751  4.2253 -3.7790
  694MOL0     H93683   2.932   8.338   3.416 -1.3420 -0.6250  0.1785
  694MOL0     H93684   2.966   8.539   3.196  1.1141  1.6520  1.3351
  694MOL0     H93685   3.033   8.374   3.178 -2.2301 -0.2009 -0.9322
  694MOL0     H93686   3.083   8.580   3.395 -2.5399 -1.6834  1.1167
  694MOL0     H93687   3.193   8.539   3.257 -0.0160 -0.2781  0.9851
  694MOL0     H93688   3.250   8.212   3.519  0.6056  0.1691 -1.1765
  694MOL0     H93689   2.694   8.676   3.063  1.1251 -0.7905  0.6077
  694MOL0     H93690   2.536   8.574   2.899  0.3870 -0.4171  0.2825
  695MOL0     O93691  10.408   8.111   3.316  0.7955 -0.4430  0.7731
  695MOL0     C93692  10.334   8.209   3.352 -0.2462 -0.3477 -0.7113
  695MOL0     O93693  10.202   8.212   3.388 -0.6987 -0.6782 -0.2941
  695MOL0     C93694  10.107   8.116   3.363 -0.3088 -0.2464  0.2849
  695MOL0     C93695  10.115   8.031   3.244  0.0182 -0.2663 -1.1158
  695MOL0     C93696  10.001   7.960   3.213 -0.2826  0.6375 -0.1584
  695MOL0     C93697   9.891   7.956   3.296 -0.2526 -0.1414 -0.7726
  695MOL0     O93698   9.801   7.858   3.274  0.2683  0.6135  0.0909
  695MOL0     C93699   9.777   7.787   3.395  0.2190  0.3266 -0.3623
  695MOL0     C93700   9.723   7.646   3.369  0.3062 -0.4423  0.2621
  695MOL0     C93701   9.590   7.662   3.293  0.0779  0.6553  0.3481
  695MOL0     C93702   9.476   7.713   3.373  0.2423  0.1801  0.2198
  695MOL0     C93703   9.364   7.746   3.271 -0.2108  0.5162  1.1556
  695MOL0     C93704   9.276   7.614   3.231 -1.4687 -0.1466 -0.7121
  695MOL0     C93705   9.176   7.623   3.118 -0.5085 -0.0967  0.1717
  695MOL0     C93706   9.090   7.503   3.098 -0.6235 -0.2104  0.9297
  695MOL0     N93707   8.979   7.520   2.997 -0.7109  0.2111 -0.1366
  695MOL0     C93708   8.854   7.552   3.037  0.9042 -0.5789 -0.2942
  695MOL0     C93709   8.794   7.592   2.923 -1.1025  0.8954  0.1300
  695MOL0     C93710   8.655   7.639   2.900  0.7083  0.3608 -0.3065
  695MOL0     C93711   8.554   7.530   2.925  0.5444 -0.1744 -0.2913
  695MOL0     C93712   8.417   7.561   2.875 -0.4204  0.2050  0.4913
  695MOL0     C93713   8.415   7.546   2.721  1.0773 -0.2176  0.8573
  695MOL0     O93714   8.296   7.472   2.667 -0.2364 -0.9460  0.0014
  695MOL0     C93715   8.184   7.541   2.613  0.5926  0.4451  0.6320
  695MOL0     C93716   8.192   7.647   2.525  0.4546 -0.2027  0.2192
  695MOL0     C93717   8.086   7.688   2.455  1.0888  0.0968 -0.3284
  695MOL0     C93718   8.114   7.809   2.355  0.8224 -0.5723  0.2037
  695MOL0     C93719   7.956   7.631   2.478  0.2837 -0.2827 -0.0541
  695MOL0     C93720   7.830   7.673   2.403  0.5013 -0.3866 -0.3609
  695MOL0     O93721   7.712   7.628   2.463 -0.2032  0.6976  0.0826
  695MOL0     C93722   7.591   7.686   2.442  0.4962  0.2626 -0.9631
  695MOL0     C93723   7.575   7.808   2.381 -0.2221 -0.4399 -0.4209
  695MOL0     C93724   7.445   7.859   2.371 -0.5499  0.5626 -0.1818
  695MOL0     C93725   7.327   7.793   2.428 -0.7637  0.4272 -1.0176
  695MOL0     O93726   7.201   7.841   2.440  0.4551  0.0817  0.9139
  695MOL0     C93727   7.162   7.924   2.327 -0.3766  0.0784  0.2389
  695MOL0     C93728   7.024   7.979   2.341 -0.0341  0.0985  0.5028
  695MOL0     C93729   6.922   7.870   2.306 -0.8976  0.5361  0.0742
  695MOL0     C93730   6.783   7.940   2.315  0.2331  0.0549 -0.6077
  695MOL0     C93731   6.755   8.054   2.221  0.5943 -0.4131  0.5928
  695MOL0     C93732   6.601   8.099   2.226  0.7035  0.5898  0.0212
  695MOL0     C93733   6.539   8.137   2.081  0.2897  0.3967 -1.3138
  695MOL0     C93734   6.386   8.166   2.084  0.5097 -0.1613  0.2233
  695MOL0    Cl93735   6.352   8.343   2.064 -0.4041 -0.0767  0.2260
  695MOL0     C93736   7.353   7.670   2.485  0.0976 -0.4711 -0.3840
  695MOL0     C93737   7.482   7.619   2.492 -0.8718 -0.3374 -0.2382
  695MOL0     O93738   7.836   7.734   2.297 -0.1642  0.3300  0.0504
  695MOL0     C93739   7.951   7.534   2.576 -0.1704 -0.2875 -0.4526
  695MOL0     C93740   8.062   7.488   2.637  0.0426 -0.1936 -0.5446
  695MOL0     N93741   8.891   7.598   2.824  0.6707 -0.1254 -0.0279
  695MOL0     N93742   9.002   7.555   2.875 -1.0550  0.4826  0.1444
  695MOL0     C93743   9.886   8.036   3.419  0.9580  0.8222 -0.1366
  695MOL0     C93744   9.993   8.117   3.443 -0.2686 -0.0027  0.1289
  695MOL0     C93745  10.413   8.341   3.358  1.3086  0.3777  0.3506
  695MOL0     C93746  10.345   8.465   3.389 -0.4937  0.4742  0.5659
  695MOL0     C93747  10.421   8.582   3.403 -0.3107 -0.4043  0.0994
  695MOL0     C93748  10.556   8.581   3.380 -0.2625 -0.2777  0.3634
  695MOL0     O93749  10.634   8.687   3.391 -0.3745 -0.2467  0.4114
  695MOL0     C93750  10.587   8.797   3.476 -0.5858  0.5907 -0.3030
  695MOL0     C93751  10.712   8.890   3.518 -0.0681 -0.1160  0.5958
  695MOL0     C93752  10.774   8.958   3.396  0.4213  0.3580 -0.2160
  695MOL0     C93753  10.864   9.077   3.427 -1.0247 -0.6586 -0.2358
  695MOL0     C93754  10.791   9.202   3.429  0.4116 -0.2494 -0.3275
  695MOL0     C93755  10.731   9.313   3.443 -0.7222  0.1455 -0.1229
  695MOL0     C93756  10.621   8.464   3.339  0.0985  1.6680 -0.2435
  695MOL0     C93757  10.551   8.340   3.344 -0.5779 -0.3870 -0.0291
  695MOL0     H93758  10.192   8.025   3.168 -0.0568 -2.4284 -1.0855
  695MOL0     H93759   9.980   7.887   3.135 -2.6256  0.8798  0.1547
  695MOL0     H93760   9.870   7.776   3.451 -0.7247  1.5391  1.5707
  695MOL0     H93761   9.706   7.849   3.451 -1.5851 -0.7131 -1.3818
  695MOL0     H93762   9.792   7.597   3.299 -0.1995 -0.1384 -0.4619
  695MOL0     H93763   9.715   7.589   3.462 -0.9201  0.5383  0.7863
  695MOL0     H93764   9.608   7.725   3.205 -1.1015  0.2994 -0.1585
  695MOL0     H93765   9.575   7.560   3.257  2.6359 -0.1147  1.2135
  695MOL0     H93766   9.455   7.636   3.447  2.1444  1.7524  2.5378
  695MOL0     H93767   9.492   7.805   3.429 -3.3033  1.0915 -0.0227
  695MOL0     H93768   9.292   7.810   3.323 -0.1938  2.4214 -0.9788
  695MOL0     H93769   9.407   7.803   3.188  0.3324 -1.2901  0.1506
  695MOL0     H93770   9.346   7.533   3.213  0.5625  0.7994  2.1491
  695MOL0     H93771   9.235   7.588   3.330  0.9720 -0.7669  0.1973
  695MOL0     H93772   9.100   7.699   3.137  0.7947  1.4760 -0.6762
  695MOL0     H93773   9.229   7.630   3.023  0.4356  0.4955  0.7178
  695MOL0     H93774   9.058   7.481   3.200 -0.3973  0.4095  1.1418
  695MOL0     H93775   9.158   7.428   3.056 -2.4238 -0.3234 -2.1012
  695MOL0     H93776   8.814   7.546   3.138  1.6423 -1.5959 -0.0469
  695MOL0     H93777   8.624   7.726   2.957 -0.4137  1.1646 -2.0420
  695MOL0     H93778   8.655   7.681   2.799  0.3203  3.5179  0.8972
  695MOL0     H93779   8.549   7.506   3.032  1.8122 -2.3922 -0.6760
  695MOL0     H93780   8.593   7.435   2.887  2.9694  1.2736 -1.7251
  695MOL0     H93781   8.375   7.653   2.917  0.9654  1.5590 -0.9598
  695MOL0     H93782   8.356   7.475   2.906  2.3353 -1.8168  0.6959
  695MOL0     H93783   8.502   7.487   2.690  0.2587 -0.4125 -1.2337
  695MOL0     H93784   8.414   7.644   2.672 -4.5039 -0.5271 -0.3445
  695MOL0     H93785   8.288   7.693   2.502  0.8169 -0.3231  1.4099
  695MOL0     H93786   8.147   7.770   2.259  1.7775  0.8980 -0.0962
  695MOL0     H93787   8.027   7.871   2.329  1.7999  0.4312 -0.7760
  695MOL0     H93788   8.196   7.872   2.392 -0.5727  0.2089  2.2301
  695MOL0     H93789   7.652   7.871   2.337  1.4247 -2.9716 -1.3614
  695MOL0     H93790   7.431   7.954   2.321  0.3106  1.4934  1.2763
  695MOL0     H93791   7.221   8.016   2.333 -0.6359  0.2142  0.7015
  695MOL0     H93792   7.191   7.888   2.227  2.3530 -0.6986  1.2108
  695MOL0     H93793   6.995   8.012   2.442 -1.5318 -2.3972  0.9717
  695MOL0     H93794   6.999   8.055   2.267 -2.9691 -0.0631  1.1992
  695MOL0     H93795   6.925   7.779   2.367  1.3368 -0.0234 -0.8071
  695MOL0     H93796   6.940   7.834   2.205 -0.5405 -1.4507  0.8017
  695MOL0     H93797   6.709   7.860   2.309 -0.2966  0.3714  1.1102
  695MOL0     H93798   6.772   7.972   2.419 -1.2996  0.5223 -0.8960
  695MOL0     H93799   6.775   8.027   2.117 -0.3886  0.5561  0.1281
  695MOL0     H93800   6.819   8.137   2.250  1.5939 -1.9834  3.1100
  695MOL0     H93801   6.541   8.013   2.259 -1.1234  1.7582 -0.1011
  695MOL0     H93802   6.581   8.184   2.292  0.9033  0.8359 -0.2315
  695MOL0     H93803   6.554   8.044   2.025  0.5830 -0.0224 -0.5488
  695MOL0     H93804   6.602   8.211   2.032 -0.3136  0.6597 -1.7083
  695MOL0     H93805   6.322   8.131   2.166 -4.0790  2.8446 -1.6894
  695MOL0     H93806   6.344   8.105   2.003  2.9441 -3.2408  1.0806
  695MOL0     H93807   7.266   7.615   2.518  1.5396 -2.8627 -0.3665
  695MOL0     H93808   7.506   7.523   2.537 -1.3184 -0.4717 -0.2808
  695MOL0     H93809   7.854   7.493   2.601 -0.1321  0.3685  0.8322
  695MOL0     H93810   8.045   7.412   2.712 -0.6052 -0.3285 -0.8196
  695MOL0     H93811   9.800   8.027   3.484 -1.0837  0.1883 -2.7225
  695MOL0     H93812   9.988   8.190   3.523 -2.2703  1.2524 -1.0893
  695MOL0     H93813  10.242   8.483   3.417 -1.2917 -1.5261 -0.8821
  695MOL0     H93814  10.359   8.668   3.426 -1.2852 -1.9938  4.2795
  695MOL0     H93815  10.510   8.860   3.430 -0.7897 -0.3591 -1.3076
  695MOL0     H93816  10.541   8.752   3.564 -1.9543  1.9010 -0.3185
  695MOL0     H93817  10.779   8.814   3.560 -0.3796  0.0840  1.4939
  695MOL0     H93818  10.686   8.962   3.597  0.9976  0.9969 -0.0386
  695MOL0     H93819  10.686   8.990   3.340  1.1367 -0.1391 -1.6686
  695MOL0     H93820  10.831   8.879   3.348  4.0220  1.4371  1.8872
  695MOL0     H93821  10.939   9.082   3.348 -0.4162  0.2960  0.3879
  695MOL0     H93822  10.912   9.056   3.522  1.1685  0.6758 -0.9753
  695MOL0     H93823  10.693   9.413   3.453  3.6939  2.1248 -0.9384
  695MOL0     H93824  10.730   8.462   3.336  0.4649 -2.8602  3.8516
  695MOL0     H93825  10.599   8.243   3.333  1.3237  0.5162 -0.0550
  696MOL0     O93826   6.776   9.040   6.557  0.4651  0.1991 -0.1250
  696MOL0     C93827   6.826   8.978   6.453  0.4929  0.0538  0.0595
  696MOL0     O93828   6.767   8.873   6.397 -0.0072 -0.1332  0.3438
  696MOL0     C93829   6.651   8.818   6.454  0.0633  1.0543  0.2470
  696MOL0     C93830   6.611   8.816   6.592  0.1111  0.0418 -0.3383
  696MOL0     C93831   6.485   8.766   6.633 -0.0009 -0.0782 -0.0094
  696MOL0     C93832   6.398   8.713   6.540 -0.3190 -0.3437  0.0208
  696MOL0     O93833   6.275   8.668   6.587 -0.0396 -0.4662 -0.6550
  696MOL0     C93834   6.160   8.663   6.494 -0.2738 -0.0821 -0.5549
  696MOL0     C93835   6.042   8.628   6.576  0.1971 -0.4167  0.6841
  696MOL0     C93836   5.924   8.589   6.497  0.1026  0.2426  0.1742
  696MOL0     C93837   5.797   8.576   6.582  0.0259 -0.4601 -0.6494
  696MOL0     C93838   5.694   8.477   6.520  0.1363 -0.2051  0.1150
  696MOL0     C93839   5.658   8.517   6.371  0.4210 -1.3121 -0.0585
  696MOL0     C93840   5.540   8.435   6.331 -0.1487  0.2590 -0.3870
  696MOL0     C93841   5.500   8.438   6.189 -0.5302  0.0558  0.6984
  696MOL0     N93842   5.450   8.574   6.157 -0.3498 -0.4972  0.3497
  696MOL0     C93843   5.325   8.620   6.183 -0.4920 -0.6713 -0.2615
  696MOL0     C93844   5.336   8.749   6.156  1.5103  0.0331  0.1982
  696MOL0     C93845   5.227   8.854   6.161 -1.3920  0.2501 -0.0505
  696MOL0     C93846   5.152   8.864   6.290 -0.4152 -0.0301 -0.3241
  696MOL0     C93847   5.092   9.009   6.307  0.5588 -0.0514  0.5875
  696MOL0     C93848   5.010   9.016   6.429 -0.2373 -0.2392  0.7494
  696MOL0     O93849   4.894   8.936   6.402 -0.0484  0.1332 -0.1362
  696MOL0     C93850   4.790   8.941   6.496  0.0685  0.0471 -0.0920
  696MOL0     C93851   4.688   9.022   6.456  0.7433  1.1971 -0.1543
  696MOL0     C93852   4.569   9.030   6.535 -0.6089 -1.3643 -0.5746
  696MOL0     C93853   4.458   9.097   6.462 -0.0976  0.4237 -0.3504
  696MOL0     C93854   4.570   8.965   6.666  0.0416 -0.5764  0.5545
  696MOL0     C93855   4.446   8.957   6.748  0.5548 -0.3025 -0.7337
  696MOL0     O93856   4.336   9.033   6.712 -0.5069  0.2038 -0.3330
  696MOL0     C93857   4.214   9.031   6.777 -0.6651 -1.1001 -0.0046
  696MOL0     C93858   4.129   9.136   6.725 -0.3992  0.6083 -0.2626
  696MOL0     C93859   3.999   9.151   6.770  0.3317  0.4320  0.2182
  696MOL0     C93860   3.939   9.052   6.854 -0.1069  0.3490  0.3786
  696MOL0     O93861   3.809   9.042   6.888  0.9646  0.1863  0.6780
  696MOL0     C93862   3.735   9.152   6.848  0.0627  1.1839  0.0099
  696MOL0     C93863   3.596   9.123   6.903  0.7487 -0.5571 -1.0768
  696MOL0     C93864   3.587   9.155   7.054 -0.0408  0.2251 -0.3628
  696MOL0     C93865   3.447   9.191   7.107 -0.3894  0.3661 -0.5731
  696MOL0     C93866   3.450   9.228   7.259 -0.6295  0.2926 -0.4918
  696MOL0     C93867   3.329   9.301   7.312 -0.8419  0.7309  0.1668
  696MOL0     C93868   3.304   9.437   7.251  0.2273 -0.1102  0.1980
  696MOL0     C93869   3.203   9.515   7.346 -0.1795 -0.1214  0.1803
  696MOL0    Cl93870   3.051   9.423   7.367 -0.5985 -0.8374  0.7407
  696MOL0     C93871   4.027   8.952   6.901  0.7707  0.4286  0.1786
  696MOL0     C93872   4.161   8.942   6.864 -0.4109 -0.1838  0.4921
  696MOL0     O93873   4.442   8.880   6.843  0.3065 -0.5570  0.7989
  696MOL0     C93874   4.679   8.881   6.706  0.3211 -0.3121 -0.5438
  696MOL0     C93875   4.785   8.868   6.614 -0.5071 -0.1194 -0.1420
  696MOL0     N93876   5.456   8.781   6.098 -0.1450 -0.4238  0.0303
  696MOL0     N93877   5.528   8.678   6.107  0.3236 -0.1163 -0.3624
  696MOL0     C93878   6.435   8.711   6.399  0.4499  0.2211 -0.9689
  696MOL0     C93879   6.554   8.773   6.362  0.1385 -0.1462  0.1133
  696MOL0     C93880   6.956   9.027   6.401 -0.1035  0.5131 -0.2204
  696MOL0     C93881   7.037   9.084   6.493  0.3821 -0.2043  0.0038
  696MOL0     C93882   7.161   9.130   6.454  0.2054 -0.1500 -0.2409
  696MOL0     C93883   7.215   9.109   6.328 -0.1051 -0.2219 -0.3401
  696MOL0     O93884   7.340   9.141   6.282  0.2328  0.6761 -1.0698
  696MOL0     C93885   7.448   9.118   6.369 -1.4515 -0.5155  0.1033
  696MOL0     C93886   7.590   9.176   6.321 -0.1199  0.0998 -0.1343
  696MOL0     C93887   7.636   9.107   6.189 -0.9730  0.6878  0.0373
  696MOL0     C93888   7.781   9.144   6.169  0.1861 -1.2706  0.0541
  696MOL0     C93889   7.817   9.117   6.032 -0.1370  0.4354 -0.4790
  696MOL0     C93890   7.836   9.081   5.921 -0.3488  0.1764  0.4409
  696MOL0     C93891   7.131   9.045   6.237  0.4526 -0.8502 -0.0543
  696MOL0     C93892   7.005   8.997   6.274 -0.9612 -0.6590 -0.1011
  696MOL0     H93893   6.686   8.857   6.660 -1.1371  3.1818 -0.6849
  696MOL0     H93894   6.458   8.764   6.738 -0.4060 -1.0978 -0.1276
  696MOL0     H93895   6.147   8.756   6.437 -1.1842 -0.0041 -0.2368
  696MOL0     H93896   6.180   8.593   6.412  0.8451  0.5028 -0.7997
  696MOL0     H93897   6.066   8.544   6.642 -1.2475  0.1031  1.9330
  696MOL0     H93898   6.022   8.709   6.647 -1.5878 -1.3806  1.3494
  696MOL0     H93899   5.905   8.656   6.413 -1.4882 -0.6242 -0.2061
  696MOL0     H93900   5.944   8.492   6.450 -0.4983 -0.0998  0.6080
  696MOL0     H93901   5.828   8.542   6.681  0.3612 -0.2666 -0.6835
  696MOL0     H93902   5.753   8.675   6.594 -0.6957 -0.4396 -2.9598
  696MOL0     H93903   5.723   8.371   6.511  1.0537  0.1919 -2.5219
  696MOL0     H93904   5.614   8.478   6.595 -0.4126  2.1018 -0.4258
  696MOL0     H93905   5.618   8.619   6.365 -0.7787 -1.7669 -0.0460
  696MOL0     H93906   5.733   8.527   6.292 -1.7173  0.9356 -1.9439
  696MOL0     H93907   5.569   8.331   6.344 -0.2686  0.0878 -1.4037
  696MOL0     H93908   5.461   8.465   6.401  1.6110 -3.1059  3.4253
  696MOL0     H93909   5.432   8.354   6.175 -0.5437  0.2884 -0.7718
  696MOL0     H93910   5.586   8.412   6.127 -1.1159 -0.8246  0.2277
  696MOL0     H93911   5.240   8.561   6.216  1.0956 -1.7106  2.2959
  696MOL0     H93912   5.268   8.953   6.135 -2.3475  0.5649 -0.4182
  696MOL0     H93913   5.157   8.838   6.079  0.4694 -1.5285 -1.3903
  696MOL0     H93914   5.219   8.843   6.373  0.2853  1.0955 -0.5703
  696MOL0     H93915   5.070   8.794   6.306  1.7475 -2.5603  0.2864
  696MOL0     H93916   5.030   9.042   6.223 -0.5978 -0.0103  1.4424
  696MOL0     H93917   5.178   9.075   6.322  1.5129 -0.8398 -1.1303
  696MOL0     H93918   4.990   9.119   6.460  4.9844  2.4280 -3.2359
  696MOL0     H93919   5.060   8.968   6.514 -0.2480 -1.0469  0.3053
  696MOL0     H93920   4.693   9.058   6.354 -0.4602 -3.6156 -2.1993
  696MOL0     H93921   4.450   9.195   6.509 -2.7079  0.5181 -0.8297
  696MOL0     H93922   4.487   9.111   6.357 -0.4852  0.2760 -0.4800
  696MOL0     H93923   4.367   9.037   6.474 -0.4190  0.9815  0.0346
  696MOL0     H93924   4.165   9.207   6.652  0.1158  3.5412  2.6075
  696MOL0     H93925   3.949   9.232   6.718  1.0053  0.8168  0.1669
  696MOL0     H93926   3.783   9.242   6.889  4.6223 -2.1186  2.8497
  696MOL0     H93927   3.718   9.156   6.740  0.9749 -2.2090 -0.3615
  696MOL0     H93928   3.524   9.199   6.870 -1.9253 -1.6151  1.8844
  696MOL0     H93929   3.556   9.023   6.886 -1.9464 -0.4013  2.9782
  696MOL0     H93930   3.654   9.240   7.071 -0.9790  0.9258 -0.0544
  696MOL0     H93931   3.626   9.067   7.107 -3.2221 -1.3987 -0.4641
  696MOL0     H93932   3.402   9.276   7.055  0.9064  1.8730  0.6802
  696MOL0     H93933   3.379   9.105   7.102 -0.7951  0.3014  3.3985
  696MOL0     H93934   3.543   9.286   7.266  1.4159 -2.4272 -2.9181
  696MOL0     H93935   3.474   9.137   7.315 -0.8670  0.2232 -0.5013
  696MOL0     H93936   3.241   9.236   7.305  0.6256 -1.1422 -2.5252
  696MOL0     H93937   3.347   9.317   7.419 -0.0129  1.1961 -0.0402
  696MOL0     H93938   3.256   9.435   7.153  1.5979  1.6761 -0.5552
  696MOL0     H93939   3.396   9.494   7.241 -0.3126  0.4154 -2.5852
  696MOL0     H93940   3.173   9.613   7.309 -0.1879  0.3412  1.3610
  696MOL0     H93941   3.253   9.525   7.443  0.3951 -0.8694 -0.0338
  696MOL0     H93942   3.991   8.881   6.975  0.8865  0.3288  0.1393
  696MOL0     H93943   4.224   8.862   6.903  1.3520  1.2077  0.6501
  696MOL0     H93944   4.665   8.831   6.802 -0.1328 -0.3275 -0.6184
  696MOL0     H93945   4.859   8.794   6.641 -1.3945 -1.2202 -0.6328
  696MOL0     H93946   6.367   8.687   6.318 -1.6792 -0.1596  0.8267
  696MOL0     H93947   6.581   8.778   6.257 -1.7998  0.4622 -0.4025
  696MOL0     H93948   7.008   9.093   6.597 -2.7677  0.1379 -0.7932
  696MOL0     H93949   7.225   9.177   6.527  0.8026  0.6097 -1.2245
  696MOL0     H93950   7.420   9.171   6.460 -2.4195  0.4604 -0.7311
  696MOL0     H93951   7.458   9.011   6.389  1.1966 -0.2254  0.6832
  696MOL0     H93952   7.662   9.151   6.399 -0.6410  0.9445  0.6428
  696MOL0     H93953   7.595   9.286   6.316  0.2148  0.0412 -1.4277
  696MOL0     H93954   7.576   9.137   6.103  1.2633 -0.7084 -2.1359
  696MOL0     H93955   7.623   8.999   6.196  0.5774  0.3506 -1.5960
  696MOL0     H93956   7.856   9.102   6.236 -0.8496 -0.8445  1.5431
  696MOL0     H93957   7.781   9.254   6.173 -0.5391 -1.2084 -1.1378
  696MOL0     H93958   7.858   9.042   5.823  0.7520 -0.4636  0.9243
  696MOL0     H93959   7.165   9.020   6.137 -2.3069 -1.9722 -0.8226
  696MOL0     H93960   6.950   8.930   6.210 -2.2593  0.2249  0.0437
  697MOL0     O93961  10.265   1.684   6.004 -0.0324  0.2409 -0.0546
  697MOL0     C93962  10.143   1.708   6.009  0.0247 -0.5658  0.1623
  697MOL0     O93963  10.066   1.697   6.120  0.3794  0.1753 -0.0145
  697MOL0     C93964  10.106   1.630   6.237  0.2193 -0.0514 -0.2207
  697MOL0     C93965  10.056   1.666   6.364 -0.4420  0.4395 -0.6098
  697MOL0     C93966  10.085   1.592   6.481  0.0212 -1.3023 -0.2912
  697MOL0     C93967  10.172   1.480   6.477  0.2651  0.5268 -0.6312
  697MOL0     O93968  10.208   1.428   6.599  0.1480  0.3509  0.4186
  697MOL0     C93969  10.335   1.360   6.611 -0.5625 -0.6185 -0.1938
  697MOL0     C93970  10.364   1.336   6.760  0.0561  0.3472 -0.1843
  697MOL0     C93971  10.468   1.219   6.769  0.5026 -0.0895  0.3467
  697MOL0     C93972  10.491   1.180   6.921  0.4497  0.3861  0.3534
  697MOL0     C93973  10.603   1.077   6.938 -0.1876 -0.0984 -0.8758
  697MOL0     C93974  10.642   1.061   7.091  0.3856  0.3023 -0.2140
  697MOL0     C93975  10.738   1.167   7.129  0.0576 -0.1034  0.4897
  697MOL0     C93976  10.724   1.195   7.288  0.1006 -0.1641  0.0750
  697MOL0     N93977  10.793   1.088   7.359  0.0106  0.5016 -0.2894
  697MOL0     C93978  10.930   1.082   7.396 -0.3054  0.4034 -0.4295
  697MOL0     C93979  10.942   0.975   7.483  0.5420 -0.2093 -0.9029
  697MOL0     C93980  11.073   0.946   7.554  0.0475  0.5443 -0.3459
  697MOL0     C93981  11.102   1.037   7.675 -0.3229 -0.2162 -0.2998
  697MOL0     C93982  11.189   0.971   7.783 -0.6066 -0.3012 -0.7601
  697MOL0     C93983  11.202   1.054   7.911 -0.0395  0.0063  0.1102
  697MOL0     O93984  11.097   1.151   7.938  0.3265 -0.3396  0.1699
  697MOL0     C93985  10.994   1.121   8.025 -0.4635 -0.1125 -0.6985
  697MOL0     C93986  10.913   1.223   8.071 -0.4797  0.9484 -0.0290
  697MOL0     C93987  10.819   1.194   8.165 -0.0847  0.3327 -0.7451
  697MOL0     C93988  10.758   1.322   8.223 -0.2239  0.3369 -0.0613
  697MOL0     C93989  10.775   1.057   8.203 -0.0849 -0.0318 -0.7561
  697MOL0     C93990  10.662   1.021   8.288 -0.3851  0.7681  0.1726
  697MOL0     O93991  10.629   0.882   8.297  0.1783 -0.5345 -0.1807
  697MOL0     C93992  10.537   0.836   8.385 -0.1016  0.6492 -0.0787
  697MOL0     C93993  10.448   0.750   8.323  0.7375 -0.1527 -1.5396
  697MOL0     C93994  10.362   0.671   8.410 -0.4548 -0.2658  0.5919
  697MOL0     C93995  10.357   0.696   8.545  0.5065  0.5631 -0.8068
  697MOL0     O93996  10.265   0.621   8.621  0.0022 -0.3419 -1.0067
  697MOL0     C93997  10.180   0.705   8.699  0.7154 -0.0231  0.2908
  697MOL0     C93998  10.047   0.628   8.717 -0.9391  0.1656  0.9964
  697MOL0     C93999   9.947   0.624   8.599 -1.0595  0.9925  0.4162
  697MOL0     C94000   9.849   0.503   8.622  0.7973 -0.0664  0.5738
  697MOL0     C94001   9.745   0.512   8.511  0.4588  1.1288 -0.6150
  697MOL0     C94002   9.637   0.608   8.540  0.6780  0.1433 -0.3505
  697MOL0     C94003   9.568   0.629   8.417  0.6017 -0.4793  0.3147
  697MOL0     C94004   9.447   0.727   8.446 -0.3486  1.0135 -0.6814
  697MOL0    Cl94005   9.361   0.781   8.300 -0.0547 -0.3894 -0.3169
  697MOL0     C94006  10.458   0.769   8.606  0.8920 -0.4414 -0.1972
  697MOL0     C94007  10.541   0.848   8.530  0.0760 -0.0196 -0.3091
  697MOL0     O94008  10.617   1.108   8.362  0.2029  0.4660 -0.0332
  697MOL0     C94009  10.853   0.953   8.139 -0.0383  0.1838 -0.9331
  697MOL0     C94010  10.953   0.985   8.049  0.1923  1.0271 -0.0550
  697MOL0     N94011  10.823   0.907   7.485  0.0793  0.3305 -0.0039
  697MOL0     N94012  10.734   0.970   7.403 -0.7692 -1.0668  0.1498
  697MOL0     C94013  10.226   1.442   6.351 -0.1563 -0.6522 -0.2425
  697MOL0     C94014  10.181   1.516   6.236 -0.0362  0.8002 -0.0459
  697MOL0     C94015  10.073   1.743   5.883 -0.9173  0.3834  0.0861
  697MOL0     C94016  10.159   1.751   5.767  0.9631 -0.4376 -0.7922
  697MOL0     C94017  10.097   1.785   5.650 -0.3108  0.7550  0.1653
  697MOL0     C94018   9.967   1.827   5.631  0.8106 -1.1165 -0.9976
  697MOL0     O94019   9.916   1.859   5.507  0.0656  0.1865  0.3880
  697MOL0     C94020   9.773   1.895   5.483 -0.1146  0.4715 -0.0719
  697MOL0     C94021   9.690   1.774   5.438  0.9776  0.4571 -0.4477
  697MOL0     C94022   9.617   1.792   5.303  0.3657  1.6974 -0.1371
  697MOL0     C94023   9.539   1.666   5.260 -0.1757 -0.3621 -0.8676
  697MOL0     C94024   9.468   1.666   5.137  0.2658 -0.1386  0.0981
  697MOL0     C94025   9.400   1.664   5.031  0.1732 -0.9686 -0.5790
  697MOL0     C94026   9.890   1.830   5.753  0.1261 -0.2709 -0.1636
  697MOL0     C94027   9.936   1.778   5.874  0.6534  0.9847 -1.2643
  697MOL0     H94028   9.999   1.758   6.378 -0.4481  0.0183  3.0998
  697MOL0     H94029  10.044   1.636   6.572 -1.6387  1.9726 -2.4320
  697MOL0     H94030  10.331   1.267   6.552  0.6065  1.8800 -4.6538
  697MOL0     H94031  10.422   1.406   6.563 -0.2666 -0.1749  0.7424
  697MOL0     H94032  10.411   1.429   6.795  3.2148 -1.2333  0.1772
  697MOL0     H94033  10.286   1.296   6.824  2.7247 -2.7397  1.4120
  697MOL0     H94034  10.414   1.132   6.731 -1.6307 -0.7977  4.4594
  697MOL0     H94035  10.557   1.236   6.708  1.8939  0.5611  2.4287
  697MOL0     H94036  10.515   1.272   6.975 -0.3512  1.4411 -1.0488
  697MOL0     H94037  10.395   1.144   6.959  0.6005  2.5391  3.1150
  697MOL0     H94038  10.582   0.976   6.899  0.4267 -1.0174  1.0458
  697MOL0     H94039  10.691   1.107   6.880  2.8084 -1.4808  2.5505
  697MOL0     H94040  10.552   1.059   7.154  1.8418 -2.6978  2.0268
  697MOL0     H94041  10.692   0.965   7.108  2.7073  0.9428 -2.6394
  697MOL0     H94042  10.837   1.126   7.111  0.0505  0.6075 -1.3693
  697MOL0     H94043  10.723   1.263   7.078  1.5285 -0.6822 -1.0879
  697MOL0     H94044  10.623   1.200   7.328 -0.7271 -4.9792 -0.8836
  697MOL0     H94045  10.772   1.292   7.309  2.4297 -1.0511 -0.7915
  697MOL0     H94046  11.005   1.157   7.372  1.3055 -1.3687 -1.1842
  697MOL0     H94047  11.070   0.846   7.598 -0.6695  1.7001  2.4727
  697MOL0     H94048  11.157   0.952   7.484 -0.0675 -2.7989 -0.9272
  697MOL0     H94049  11.008   1.076   7.715 -0.6448 -0.9687 -0.3041
  697MOL0     H94050  11.159   1.121   7.634  0.1129 -1.7067 -2.9775
  697MOL0     H94051  11.286   0.937   7.747  1.0983  2.9708  0.2950
  697MOL0     H94052  11.128   0.884   7.809 -1.2833  0.6569  1.0748
  697MOL0     H94053  11.285   1.116   7.875 -0.8012 -0.4342 -2.6468
  697MOL0     H94054  11.225   0.990   7.996  2.9349 -0.1622 -0.7055
  697MOL0     H94055  10.949   1.321   8.041  1.2912 -0.1377 -1.6880
  697MOL0     H94056  10.722   1.384   8.141 -0.6506  4.0901  2.6985
  697MOL0     H94057  10.685   1.305   8.303 -0.2153 -1.6006 -0.4089
  697MOL0     H94058  10.848   1.372   8.261  0.6461 -0.5621 -0.8583
  697MOL0     H94059  10.455   0.730   8.217  0.7759  3.5290 -2.3604
  697MOL0     H94060  10.296   0.594   8.372 -0.0693 -1.2849  1.8855
  697MOL0     H94061  10.219   0.720   8.800 -0.5865  3.6236  0.4229
  697MOL0     H94062  10.168   0.810   8.672  1.2462  1.1761  4.0844
  697MOL0     H94063  10.071   0.527   8.754 -3.2497 -0.3663  1.2396
  697MOL0     H94064   9.988   0.667   8.800 -3.8406  2.9998 -2.1131
  697MOL0     H94065   9.995   0.608   8.502 -1.5566 -1.2446  0.4709
  697MOL0     H94066   9.897   0.721   8.592 -1.2495  0.8777  0.1355
  697MOL0     H94067   9.898   0.406   8.613 -2.9385 -1.9454 -2.4413
  697MOL0     H94068   9.796   0.512   8.717 -1.8831 -0.1849 -0.8261
  697MOL0     H94069   9.711   0.415   8.473 -1.3658  2.2082 -1.9345
  697MOL0     H94070   9.794   0.545   8.419  3.3307 -1.0896 -0.0186
  697MOL0     H94071   9.570   0.566   8.616  0.4549  1.0968 -0.0119
  697MOL0     H94072   9.655   0.705   8.586 -2.5292  1.6264 -1.9291
  697MOL0     H94073   9.526   0.531   8.395 -1.7348  0.2708  1.0847
  697MOL0     H94074   9.626   0.664   8.331  0.2348  1.6746  0.8785
  697MOL0     H94075   9.505   0.812   8.484  0.6754 -0.3959  1.1202
  697MOL0     H94076   9.377   0.699   8.525  1.7113 -2.1927  0.1985
  697MOL0     H94077  10.464   0.774   8.714 -3.4421  0.5029  0.1870
  697MOL0     H94078  10.612   0.922   8.565  0.2663  0.8187 -2.3318
  697MOL0     H94079  10.836   0.854   8.181 -0.2496  0.2524 -0.8570
  697MOL0     H94080  11.004   0.897   8.013  1.4614  2.0437 -0.8409
  697MOL0     H94081  10.300   1.364   6.336  0.9637  0.5624 -1.2852
  697MOL0     H94082  10.212   1.470   6.143  0.0583  0.0784  0.3391
  697MOL0     H94083  10.262   1.717   5.761  1.2924  0.6855 -4.6382
  697MOL0     H94084  10.154   1.760   5.561 -0.8464 -0.0973  0.0565
  697MOL0     H94085   9.735   1.945   5.572  2.6724  2.3159  0.1892
  697MOL0     H94086   9.766   1.966   5.400 -3.6348 -0.2431 -0.5284
  697MOL0     H94087   9.613   1.751   5.512  2.1679 -1.0007  0.4171
  697MOL0     H94088   9.745   1.679   5.432 -1.1169 -0.9689  1.0833
  697MOL0     H94089   9.680   1.812   5.216  0.7686  0.1084 -0.2443
  697MOL0     H94090   9.543   1.868   5.328 -0.7680  0.5100  0.2884
  697MOL0     H94091   9.464   1.635   5.335 -1.3608 -1.6973 -2.5075
  697MOL0     H94092   9.616   1.588   5.254  1.7381  1.2143  1.4148
  697MOL0     H94093   9.345   1.684   4.941 -2.2830  2.9663  1.5297
  697MOL0     H94094   9.786   1.859   5.761 -0.4324 -1.7514 -1.5925
  697MOL0     H94095   9.873   1.766   5.962  1.0733 -2.4507 -1.3106
  698MOL0     O94096   4.362   8.569   6.219 -0.1928  1.1598  0.2860
  698MOL0     C94097   4.362   8.625   6.328  0.1872 -0.1699 -0.4792
  698MOL0     O94098   4.479   8.660   6.389 -0.6896 -0.1591  0.3519
  698MOL0     C94099   4.599   8.616   6.333 -0.5223 -0.4410  0.2619
  698MOL0     C94100   4.632   8.485   6.331 -0.1835  0.8797 -0.0537
  698MOL0     C94101   4.761   8.437   6.292  0.2190  0.6442 -0.3943
  698MOL0     C94102   4.854   8.531   6.240  0.0960  0.0600 -0.0581
  698MOL0     O94103   4.982   8.497   6.187 -0.2419  0.8715  0.6561
  698MOL0     C94104   5.037   8.364   6.186 -0.1500  0.0796 -0.3475
  698MOL0     C94105   5.073   8.321   6.325  0.1672 -0.5690  0.0983
  698MOL0     C94106   5.111   8.165   6.336  0.3883  0.6322 -0.2390
  698MOL0     C94107   5.188   8.152   6.468  1.2253 -1.1215  0.0826
  698MOL0     C94108   5.272   8.022   6.468 -0.2458 -0.3679  0.0287
  698MOL0     C94109   5.342   8.012   6.604 -0.1128  0.8540  0.2712
  698MOL0     C94110   5.413   7.878   6.616  0.2964  0.0963 -0.3644
  698MOL0     C94111   5.492   7.876   6.748  0.3109 -0.2483  0.0201
  698MOL0     N94112   5.595   7.764   6.749  0.3751 -0.1584  0.6885
  698MOL0     C94113   5.571   7.641   6.791  0.5408  0.9126 -0.0317
  698MOL0     C94114   5.673   7.565   6.756 -0.1860 -0.3972 -0.5309
  698MOL0     C94115   5.649   7.419   6.765  0.3913 -0.2013  0.0574
  698MOL0     C94116   5.791   7.351   6.789 -0.3498 -0.1610  0.1766
  698MOL0     C94117   5.783   7.191   6.770  0.4486  0.4571 -0.7217
  698MOL0     C94118   5.723   7.114   6.894  1.0459 -0.0451  0.3569
  698MOL0     O94119   5.731   6.975   6.873  0.0045 -0.0134  0.3200
  698MOL0     C94120   5.859   6.938   6.878  0.2595  0.1635  0.5423
  698MOL0     C94121   5.911   6.888   6.758  0.1080  0.0196 -0.0939
  698MOL0     C94122   6.047   6.866   6.741  0.6345 -0.0897 -0.9163
  698MOL0     C94123   6.081   6.808   6.604 -0.1117  0.3458  0.6780
  698MOL0     C94124   6.132   6.875   6.850 -0.2029  0.0394 -0.0552
  698MOL0     C94125   6.278   6.835   6.855 -0.2527  0.7958  0.0314
  698MOL0     O94126   6.354   6.900   6.954  0.0249  0.3779 -0.1379
  698MOL0     C94127   6.493   6.911   6.957  0.5753 -0.4452  0.9240
  698MOL0     C94128   6.561   6.934   7.079 -0.3331  1.2363 -0.1725
  698MOL0     C94129   6.700   6.921   7.083  0.2950 -0.1139  0.0177
  698MOL0     C94130   6.775   6.901   6.966  0.7542 -0.3679 -0.2145
  698MOL0     O94131   6.913   6.896   6.961  0.8875  0.1395  0.9313
  698MOL0     C94132   6.982   6.942   7.076  0.8156  0.2388  0.3521
  698MOL0     C94133   7.127   6.969   7.038  0.2689 -0.6951 -0.6821
  698MOL0     C94134   7.218   7.010   7.148  0.0263  0.0890 -1.0570
  698MOL0     C94135   7.341   7.077   7.091 -0.3649 -0.0224  0.3611
  698MOL0     C94136   7.437   6.974   7.023  0.3576 -0.2004  0.7272
  698MOL0     C94137   7.570   7.028   6.958  0.5864  0.5340 -0.4172
  698MOL0     C94138   7.634   6.949   6.849 -1.2784  0.1449  0.7287
  698MOL0     C94139   7.753   7.022   6.779 -0.4957 -0.3638  0.3696
  698MOL0    Cl94140   7.675   7.139   6.668  0.2278 -0.4471  0.1178
  698MOL0     C94141   6.709   6.890   6.847  0.4151 -0.0515 -0.1254
  698MOL0     C94142   6.568   6.893   6.845 -0.1028 -0.7715  0.2042
  698MOL0     O94143   6.326   6.753   6.781 -0.2473  0.3542 -0.4612
  698MOL0     C94144   6.077   6.901   6.971  0.5014 -0.2080 -0.1547
  698MOL0     C94145   5.941   6.931   6.992 -0.3738  0.1470  0.8349
  698MOL0     N94146   5.763   7.641   6.676 -0.8520  0.3337 -0.6076
  698MOL0     N94147   5.711   7.761   6.673 -0.1338 -0.5719 -0.2534
  698MOL0     C94148   4.815   8.663   6.234  1.1772 -0.4337 -0.2827
  698MOL0     C94149   4.690   8.707   6.281 -0.3178  0.3142 -0.3283
  698MOL0     C94150   4.238   8.633   6.412  0.3065  0.0176 -0.0902
  698MOL0     C94151   4.107   8.611   6.354  0.4239 -0.0720  0.3161
  698MOL0     C94152   3.988   8.648   6.419  0.2154  0.0826 -0.2040
  698MOL0     C94153   3.990   8.684   6.561  0.0764  0.1951  0.0575
  698MOL0     O94154   3.879   8.717   6.638  0.6869  0.3359 -0.2041
  698MOL0     C94155   3.750   8.706   6.583  0.4968  0.2379 -0.9663
  698MOL0     C94156   3.638   8.730   6.690  0.9172 -0.8643 -0.4511
  698MOL0     C94157   3.502   8.767   6.623  0.1461 -0.0546  0.9669
  698MOL0     C94158   3.376   8.769   6.697  0.2307 -0.7950  0.0248
  698MOL0     C94159   3.342   8.637   6.751  1.1238  0.3522  0.7786
  698MOL0     C94160   3.305   8.526   6.777 -0.1659 -0.2576 -0.4252
  698MOL0     C94161   4.122   8.691   6.614  0.4510 -0.1676  0.5086
  698MOL0     C94162   4.238   8.668   6.543  0.4985  0.3059 -0.5429
  698MOL0     H94163   4.552   8.421   6.367  0.3143  1.8359  3.0458
  698MOL0     H94164   4.773   8.329   6.291  0.0724  0.6131  0.4341
  698MOL0     H94165   4.981   8.299   6.117  3.2478 -3.9236  0.2895
  698MOL0     H94166   5.123   8.379   6.120 -0.3299 -2.1293 -1.1698
  698MOL0     H94167   5.164   8.381   6.332 -0.6193  0.5077  1.6866
  698MOL0     H94168   4.994   8.350   6.395 -0.1549  0.5823 -0.7071
  698MOL0     H94169   5.021   8.104   6.347  0.6169  0.0686 -1.3711
  698MOL0     H94170   5.171   8.137   6.249  0.1505  1.5311 -0.6993
  698MOL0     H94171   5.261   8.233   6.473 -1.0726  1.0234  0.5704
  698MOL0     H94172   5.117   8.162   6.551  0.0733  2.8838 -1.1401
  698MOL0     H94173   5.210   7.933   6.451  0.6432 -0.8803 -0.5788
  698MOL0     H94174   5.346   8.038   6.390  0.6022  0.9679  1.0690
  698MOL0     H94175   5.423   8.086   6.608  1.1903 -0.5386  0.6840
  698MOL0     H94176   5.277   8.044   6.685 -1.4749 -0.3115 -0.3150
  698MOL0     H94177   5.339   7.798   6.623 -1.8988  2.1461  1.3160
  698MOL0     H94178   5.476   7.868   6.527 -2.5435  1.5493 -2.7048
  698MOL0     H94179   5.422   7.845   6.826 -2.5389  0.8029 -1.9916
  698MOL0     H94180   5.536   7.973   6.771  2.2470 -0.6870 -1.5399
  698MOL0     H94181   5.475   7.613   6.834  0.3448  0.0108 -0.9834
  698MOL0     H94182   5.580   7.395   6.847 -2.8039  2.1709 -1.6984
  698MOL0     H94183   5.605   7.385   6.671  0.4293 -1.2133  0.3933
  698MOL0     H94184   5.828   7.376   6.888  0.3615 -0.7570  0.0757
  698MOL0     H94185   5.860   7.398   6.718  0.6781 -0.5808  0.8612
  698MOL0     H94186   5.887   7.159   6.761 -0.0098 -1.5703  0.4155
  698MOL0     H94187   5.730   7.170   6.677  0.1911 -1.5576 -0.1687
  698MOL0     H94188   5.618   7.143   6.900  1.1189 -0.0940  3.0902
  698MOL0     H94189   5.769   7.147   6.987 -1.0859  0.1726  1.4050
  698MOL0     H94190   5.832   6.868   6.686 -1.3055 -1.1728  1.6754
  698MOL0     H94191   6.033   6.712   6.587  0.2436  0.6220 -2.5076
  698MOL0     H94192   6.052   6.878   6.525  1.2961  0.0554 -0.1248
  698MOL0     H94193   6.187   6.784   6.597  0.0007  0.9663  0.1146
  698MOL0     H94194   6.503   6.954   7.169 -0.2843  2.0715 -0.3180
  698MOL0     H94195   6.748   6.930   7.181 -1.1089  0.5768  0.6712
  698MOL0     H94196   6.944   7.038   7.114  0.5311 -1.1159  3.8588
  698MOL0     H94197   6.971   6.863   7.150 -1.1132  0.2467  0.1350
  698MOL0     H94198   7.156   6.868   7.006 -0.2205 -0.5173 -1.7584
  698MOL0     H94199   7.132   7.037   6.952 -1.8614  0.6711  0.1960
  698MOL0     H94200   7.252   6.921   7.202 -1.7313 -0.1794 -0.3184
  698MOL0     H94201   7.176   7.093   7.207 -0.4693 -0.4336 -0.6638
  698MOL0     H94202   7.320   7.149   7.011  1.7668  1.6121  1.1561
  698MOL0     H94203   7.388   7.131   7.174  0.5222  1.3240 -0.9520
  698MOL0     H94204   7.378   6.928   6.943  3.1441 -0.5812 -1.2454
  698MOL0     H94205   7.457   6.895   7.097 -0.2458  2.8299  4.4641
  698MOL0     H94206   7.553   7.131   6.924 -0.1512  0.2604 -0.8873
  698MOL0     H94207   7.642   7.034   7.040 -0.4389  2.2075  0.4304
  698MOL0     H94208   7.560   6.927   6.772 -0.3623  0.8298 -0.3622
  698MOL0     H94209   7.666   6.851   6.885  0.0759  0.7972  1.3805
  698MOL0     H94210   7.804   6.951   6.714 -0.2459 -0.7584  0.9941
  698MOL0     H94211   7.830   7.064   6.844  1.6031 -0.7018 -1.7634
  698MOL0     H94212   6.759   6.865   6.755 -2.1743 -0.9728 -1.3946
  698MOL0     H94213   6.520   6.879   6.748 -0.1778 -0.1934  0.1538
  698MOL0     H94214   6.141   6.906   7.058 -1.3433  0.2498  1.2452
  698MOL0     H94215   5.897   6.968   7.085 -0.8207 -0.2391  0.7850
  698MOL0     H94216   4.883   8.734   6.188  0.7023 -0.2313 -0.6784
  698MOL0     H94217   4.657   8.810   6.276 -0.1906  0.2977 -2.4538
  698MOL0     H94218   4.113   8.555   6.262  0.2177 -2.0143  1.4319
  698MOL0     H94219   3.899   8.641   6.358  1.5453  1.3155 -2.4546
  698MOL0     H94220   3.736   8.786   6.510 -1.3571  0.9324  0.0717
  698MOL0     H94221   3.736   8.613   6.527  0.5230  1.1512 -2.5492
  698MOL0     H94222   3.663   8.811   6.758 -0.2499 -0.3560 -0.5977
  698MOL0     H94223   3.635   8.638   6.749 -0.8652  0.0029  0.8955
  698MOL0     H94224   3.490   8.697   6.539  3.1756  2.1508 -1.5219
  698MOL0     H94225   3.507   8.869   6.583 -2.0098 -0.1250  0.3394
  698MOL0     H94226   3.290   8.800   6.636  1.5041  2.3991 -0.3621
  698MOL0     H94227   3.377   8.841   6.780  4.2760 -1.4625  0.7400
  698MOL0     H94228   3.264   8.429   6.794 -2.6774  0.9192  0.8165
  698MOL0     H94229   4.133   8.736   6.712 -0.4161  1.4242 -0.0851
  698MOL0     H94230   4.332   8.679   6.596  0.3623 -0.0542 -0.2236
  699MOL0     O94231   9.000   4.387  10.465  0.9392 -0.0670  0.6886
  699MOL0     C94232   8.972   4.309  10.376  0.0854  0.2616  0.3669
  699MOL0     O94233   8.846   4.291  10.317 -0.6980  0.1701 -0.1051
  699MOL0     C94234   8.739   4.357  10.370  0.2387 -0.1213 -0.4404
  699MOL0     C94235   8.673   4.458  10.300  0.3242  0.0754  0.5375
  699MOL0     C94236   8.565   4.528  10.355 -0.5469 -0.7778  0.0706
  699MOL0     C94237   8.524   4.491  10.489  0.0882 -1.4678 -0.5647
  699MOL0     O94238   8.424   4.562  10.559  0.0360 -0.0373 -0.4781
  699MOL0     C94239   8.320   4.612  10.482 -1.0550  0.7697 -0.2142
  699MOL0     C94240   8.246   4.513  10.381 -0.2541 -0.3037  0.3637
  699MOL0     C94241   8.141   4.602  10.314 -0.6811 -1.5004 -0.4622
  699MOL0     C94242   8.045   4.524  10.217  0.5284 -0.0618 -0.4442
  699MOL0     C94243   7.924   4.612  10.173 -1.4480  0.0990 -0.1678
  699MOL0     C94244   7.864   4.557  10.038 -0.2573  0.2823 -0.3088
  699MOL0     C94245   7.792   4.416  10.037  0.0833 -0.6121  0.0123
  699MOL0     C94246   7.729   4.387   9.902  0.0963 -1.0993  0.2374
  699MOL0     N94247   7.608   4.477   9.875  0.0349 -0.5055  0.1816
  699MOL0     C94248   7.504   4.504   9.962  0.4469 -0.3328  0.0033
  699MOL0     C94249   7.440   4.611   9.913  0.5904  0.6291  0.3161
  699MOL0     C94250   7.315   4.682   9.964  0.7137 -0.5016 -0.9459
  699MOL0     C94251   7.195   4.579   9.960  0.3845 -0.5467 -0.4459
  699MOL0     C94252   7.184   4.470  10.073 -0.1995  0.2065  0.1471
  699MOL0     C94253   7.226   4.517  10.212 -0.0534 -0.1181 -0.4545
  699MOL0     O94254   7.368   4.522  10.233 -0.5438  0.3728  0.4785
  699MOL0     C94255   7.413   4.557  10.360  0.2028  0.0339 -0.2659
  699MOL0     C94256   7.334   4.554  10.477 -0.9724  0.4208  0.0593
  699MOL0     C94257   7.390   4.594  10.606  0.0527 -0.3431  0.8757
  699MOL0     C94258   7.301   4.592  10.728 -0.2159 -0.6252  0.0551
  699MOL0     C94259   7.528   4.631  10.613  0.5282 -0.2713  0.8301
  699MOL0     C94260   7.591   4.686  10.734  1.1225  0.0935  0.7820
  699MOL0     O94261   7.524   4.775  10.812  0.4359 -0.0890 -0.4775
  699MOL0     C94262   7.607   4.844  10.890  0.3697 -0.8707  0.0226
  699MOL0     C94263   7.650   4.971  10.846  0.3005 -0.8544  0.3463
  699MOL0     C94264   7.738   5.040  10.928  0.1866 -0.0452 -0.3759
  699MOL0     C94265   7.788   4.996  11.049 -0.1978  1.0675 -1.3489
  699MOL0     O94266   7.878   5.068  11.127 -0.6394  0.6649 -1.0568
  699MOL0     C94267   7.919   5.188  11.083  0.2942  0.2698 -0.1188
  699MOL0     C94268   7.992   5.256  11.194  0.4043 -0.3778 -1.2170
  699MOL0     C94269   8.137   5.196  11.239 -0.0233  0.7571 -0.2534
  699MOL0     C94270   8.256   5.258  11.168 -0.2212 -0.4144  1.3575
  699MOL0     C94271   8.385   5.187  11.212  0.0520 -0.3472 -0.2724
  699MOL0     C94272   8.416   5.233  11.359  0.3135 -0.5347  0.4639
  699MOL0     C94273   8.544   5.162  11.401  0.1203 -0.6789  0.3745
  699MOL0     C94274   8.521   5.028  11.479 -1.3337 -0.4814 -0.3177
  699MOL0    Cl94275   8.430   5.029  11.633 -0.2029 -0.2927  0.1484
  699MOL0     C94276   7.739   4.872  11.096 -0.1258  0.8854  0.0763
  699MOL0     C94277   7.640   4.811  11.024 -0.1615 -0.0291 -0.5947
  699MOL0     O94278   7.706   4.646  10.750  0.2717 -0.7485  0.1408
  699MOL0     C94279   7.609   4.622  10.497  0.1798  0.5886  1.1125
  699MOL0     C94280   7.549   4.587  10.372 -0.7238 -0.0121 -0.2732
  699MOL0     N94281   7.492   4.629   9.781 -0.1437  0.1975 -0.6158
  699MOL0     N94282   7.589   4.547   9.765  0.0836 -0.1646  0.3607
  699MOL0     C94283   8.587   4.395  10.562 -0.3749  0.4137  0.4994
  699MOL0     C94284   8.698   4.331  10.504 -0.5535 -0.3588  1.0485
  699MOL0     C94285   9.071   4.200  10.351 -1.2055 -1.1275 -0.1637
  699MOL0     C94286   9.207   4.228  10.376  0.1649 -0.0698 -0.1528
  699MOL0     C94287   9.298   4.132  10.342 -0.6591  0.4562 -1.3572
  699MOL0     C94288   9.271   4.006  10.283  0.6332  0.4063  1.1634
  699MOL0     O94289   9.370   3.926  10.222  0.0344  0.7115 -0.3654
  699MOL0     C94290   9.511   3.943  10.262 -0.6197 -0.6307  0.2396
  699MOL0     C94291   9.594   3.851  10.171 -0.9181 -0.4420 -0.3132
  699MOL0     C94292   9.730   3.911  10.151  0.2056 -0.8446  0.0792
  699MOL0     C94293   9.843   3.816  10.102 -0.8333 -0.2148 -0.1615
  699MOL0     C94294   9.813   3.737   9.978  0.5960  0.0578  0.0802
  699MOL0     C94295   9.793   3.673   9.876 -0.9661  0.0955  0.3354
  699MOL0     C94296   9.136   3.983  10.251 -0.9382  0.3046  0.0273
  699MOL0     C94297   9.037   4.080  10.284  0.2133 -0.0555 -1.0166
  699MOL0     H94298   8.710   4.487  10.202 -0.5829 -2.0993 -0.5013
  699MOL0     H94299   8.529   4.607  10.290 -0.1419 -1.0003 -0.4243
  699MOL0     H94300   8.233   4.636  10.545 -1.2295  2.4790 -1.0527
  699MOL0     H94301   8.354   4.703  10.432 -1.8120  1.5099  0.5817
  699MOL0     H94302   8.312   4.466  10.308 -0.5202 -1.0492  0.5958
  699MOL0     H94303   8.201   4.433  10.440  1.2567  0.2956  2.4746
  699MOL0     H94304   8.089   4.656  10.394 -0.0199  1.6451 -1.9962
  699MOL0     H94305   8.187   4.681  10.254 -0.3420  0.1080  1.7718
  699MOL0     H94306   8.098   4.481  10.131 -1.8694 -0.5122 -1.7625
  699MOL0     H94307   8.000   4.433  10.258  1.5847 -0.2915  0.2506
  699MOL0     H94308   7.844   4.612  10.248 -0.4887  1.8213  0.9155
  699MOL0     H94309   7.952   4.716  10.154  1.0126  0.0514  2.5420
  699MOL0     H94310   7.793   4.633  10.005 -1.8282 -0.3491  1.4367
  699MOL0     H94311   7.941   4.555   9.960 -2.8307  0.8214 -3.0832
  699MOL0     H94312   7.862   4.332  10.051 -0.6779 -1.0749  1.1993
  699MOL0     H94313   7.716   4.425  10.116  0.4791  0.9868  0.2491
  699MOL0     H94314   7.698   4.282   9.896 -0.8758 -0.7496 -1.7183
  699MOL0     H94315   7.801   4.412   9.823 -1.1847 -0.2006 -0.6932
  699MOL0     H94316   7.486   4.457  10.058  3.5326  1.0314  1.3756
  699MOL0     H94317   7.343   4.714  10.065  1.1092  0.0967 -1.2408
  699MOL0     H94318   7.295   4.767   9.898 -2.0475 -0.3572 -0.0762
  699MOL0     H94319   7.193   4.537   9.859  1.7736 -0.3008 -0.5816
  699MOL0     H94320   7.101   4.634   9.973  2.2173  2.2344  2.9850
  699MOL0     H94321   7.243   4.380  10.049 -0.5180  0.7693 -3.2666
  699MOL0     H94322   7.079   4.438  10.079  0.4100 -2.4562 -1.5065
  699MOL0     H94323   7.175   4.445  10.277 -2.4463  0.4719 -1.5413
  699MOL0     H94324   7.164   4.607  10.220 -3.2687 -2.1037 -1.0676
  699MOL0     H94325   7.238   4.504  10.466  0.3372 -1.7618 -2.9803
  699MOL0     H94326   7.373   4.593  10.811  1.4168 -3.0996 -1.1734
  699MOL0     H94327   7.229   4.674  10.728 -1.5468 -1.7454  0.4846
  699MOL0     H94328   7.233   4.506  10.733 -1.9783  0.4755 -2.8249
  699MOL0     H94329   7.625   5.000  10.744 -0.9774 -2.1808  0.2511
  699MOL0     H94330   7.772   5.133  10.883 -3.4460  1.2870 -0.6858
  699MOL0     H94331   7.995   5.175  11.006  0.5683 -0.1367  0.2211
  699MOL0     H94332   7.830   5.243  11.051  1.3244  1.7294 -0.6114
  699MOL0     H94333   7.998   5.364  11.180 -0.3199  0.2924  2.4963
  699MOL0     H94334   7.939   5.242  11.289  0.3061 -2.3831 -1.5374
  699MOL0     H94335   8.149   5.087  11.243  3.8286  1.0477  0.4004
  699MOL0     H94336   8.134   5.225  11.345 -4.7993  1.6575 -0.4385
  699MOL0     H94337   8.238   5.233  11.063  0.1074 -1.9608  1.6399
  699MOL0     H94338   8.266   5.366  11.173  1.6784 -0.4800 -0.0983
  699MOL0     H94339   8.472   5.219  11.152  0.4819  0.5799  0.8176
  699MOL0     H94340   8.370   5.079  11.212  0.2724 -0.3985  1.2047
  699MOL0     H94341   8.427   5.341  11.355  1.7163 -0.5931  1.8536
  699MOL0     H94342   8.332   5.213  11.427  1.2261 -3.8230  0.8237
  699MOL0     H94343   8.598   5.230  11.468  1.3937  1.7517 -2.8557
  699MOL0     H94344   8.608   5.144  11.315 -2.7270 -1.8695 -1.6320
  699MOL0     H94345   8.620   4.985  11.496 -0.8023  0.4255 -1.0710
  699MOL0     H94346   8.467   4.965  11.408 -3.0991  1.8407 -1.1628
  699MOL0     H94347   7.770   4.832  11.193  0.5248 -1.0575 -0.8926
  699MOL0     H94348   7.591   4.723  11.065  0.0813  0.2571  0.3422
  699MOL0     H94349   7.717   4.626  10.501  0.1230  2.8288  1.9923
  699MOL0     H94350   7.609   4.591  10.282  2.4879  1.0562  1.7373
  699MOL0     H94351   8.542   4.370  10.657 -1.3583 -0.4300 -0.1605
  699MOL0     H94352   8.762   4.275  10.571  1.1007 -0.4887 -0.5479
  699MOL0     H94353   9.246   4.326  10.402  1.6292  0.1843 -2.9795
  699MOL0     H94354   9.404   4.146  10.362 -0.9522 -1.0935  1.9303
  699MOL0     H94355   9.559   4.041  10.257  0.1216 -1.0001 -0.0318
  699MOL0     H94356   9.540   3.895  10.356  2.1262  0.2788 -0.0677
  699MOL0     H94357   9.552   3.842  10.070  0.6538  0.2109 -1.0592
  699MOL0     H94358   9.601   3.757  10.226 -0.7475  0.2451  0.8723
  699MOL0     H94359   9.762   3.960  10.243 -1.5533 -0.5656  0.5676
  699MOL0     H94360   9.727   3.990  10.075  0.7067 -1.0215 -0.1263
  699MOL0     H94361   9.883   3.741  10.171  0.0778 -2.0867 -2.5755
  699MOL0     H94362   9.935   3.874  10.084  0.0762 -1.4299  0.4296
  699MOL0     H94363   9.777   3.607   9.793  1.5272 -1.5128  1.0328
  699MOL0     H94364   9.110   3.899  10.187 -1.2275  0.5553 -0.1844
  699MOL0     H94365   8.934   4.077  10.252 -0.7074 -0.1649  1.7227
  700MOL0     O94366   6.849   2.495   9.056  0.7156 -0.1936 -0.4664
  700MOL0     C94367   6.953   2.535   9.109  0.3042 -0.1406  0.3208
  700MOL0     O94368   6.961   2.650   9.194 -0.4594 -0.0121  0.1039
  700MOL0     C94369   6.867   2.753   9.202  0.2694 -0.0932  0.3294
  700MOL0     C94370   6.760   2.767   9.108  0.1924  0.4577 -0.2538
  700MOL0     C94371   6.668   2.872   9.130  0.0786  0.5716  1.0814
  700MOL0     C94372   6.674   2.963   9.237  0.4403 -0.2513  0.4436
  700MOL0     O94373   6.566   3.047   9.262 -1.2850 -0.1203 -0.1759
  700MOL0     C94374   6.580   3.174   9.198 -0.2110 -0.2115 -0.2699
  700MOL0     C94375   6.663   3.258   9.292  0.2737  0.3434  0.1183
  700MOL0     C94376   6.599   3.266   9.432 -1.2257 -0.2026 -0.7475
  700MOL0     C94377   6.646   3.398   9.492 -0.3438  0.6604  0.2716
  700MOL0     C94378   6.632   3.380   9.650  0.1968 -0.8596 -0.1799
  700MOL0     C94379   6.663   3.517   9.722  0.3101 -0.0031  1.6115
  700MOL0     C94380   6.647   3.484   9.873  0.5483 -0.6580  0.0121
  700MOL0     C94381   6.626   3.610   9.958 -0.1639 -0.3583  0.5667
  700MOL0     N94382   6.602   3.577  10.093 -0.5733  0.2675  0.5435
  700MOL0     C94383   6.478   3.585  10.141 -0.0810 -0.1264 -0.1028
  700MOL0     C94384   6.492   3.591  10.280  0.8944 -0.6291 -0.1806
  700MOL0     C94385   6.398   3.601  10.391  0.2433 -0.5129  0.7693
  700MOL0     C94386   6.250   3.597  10.369  0.1850 -0.5111  0.0893
  700MOL0     C94387   6.218   3.726  10.275  0.4409  0.0870 -0.4726
  700MOL0     C94388   6.073   3.763  10.297  0.0999 -0.2109 -0.0750
  700MOL0     O94389   5.987   3.679  10.218 -0.8595  0.0385  0.1509
  700MOL0     C94390   5.847   3.683  10.230  0.3039 -1.0219 -0.0645
  700MOL0     C94391   5.772   3.589  10.155  0.0945 -0.4935  0.0118
  700MOL0     C94392   5.635   3.585  10.160 -1.1491  0.4304  0.9689
  700MOL0     C94393   5.567   3.490  10.069 -0.6005 -0.3738 -0.1947
  700MOL0     C94394   5.567   3.675  10.247  1.2756  0.2088  0.8432
  700MOL0     C94395   5.419   3.672  10.256  0.0240 -0.6832 -0.5868
  700MOL0     O94396   5.362   3.598  10.362  0.7852  0.0887  0.3804
  700MOL0     C94397   5.229   3.631  10.384 -0.2289  0.0897  1.0681
  700MOL0     C94398   5.121   3.542  10.358  0.5078  0.0963 -0.5002
  700MOL0     C94399   4.990   3.576  10.391 -0.7706 -0.1348 -1.0374
  700MOL0     C94400   4.972   3.706  10.441  0.2071 -0.4816  0.1506
  700MOL0     O94401   4.849   3.758  10.458  0.1224 -0.4019  0.0795
  700MOL0     C94402   4.726   3.668  10.461  0.3001  0.1512 -0.8319
  700MOL0     C94403   4.737   3.587  10.592  1.4256 -0.2823  0.6767
  700MOL0     C94404   4.623   3.483  10.604 -1.0933 -0.5399  0.7247
  700MOL0     C94405   4.487   3.539  10.587 -0.3590  0.1131 -0.5571
  700MOL0     C94406   4.367   3.444  10.623  0.4028  0.4697  0.3075
  700MOL0     C94407   4.348   3.343  10.522 -0.2871  0.5719 -0.1665
  700MOL0     C94408   4.239   3.238  10.544 -0.2352 -0.2692 -0.1802
  700MOL0     C94409   4.237   3.136  10.431 -1.5862 -0.4667  0.0862
  700MOL0    Cl94410   4.376   3.018  10.433  0.0445  0.1885 -0.4104
  700MOL0     C94411   5.078   3.788  10.472  0.1720 -0.3669  0.9203
  700MOL0     C94412   5.206   3.753  10.442  0.2438  0.1947  0.7203
  700MOL0     O94413   5.355   3.736  10.170  0.2491  0.1723 -0.3022
  700MOL0     C94414   5.635   3.761  10.324  0.1675  0.5168 -0.0684
  700MOL0     C94415   5.778   3.766  10.311  0.1200  0.1989 -0.0671
  700MOL0     N94416   6.631   3.601  10.300  0.1371  0.1546 -0.5100
  700MOL0     N94417   6.689   3.605  10.193  0.6560  1.1881 -0.0157
  700MOL0     C94418   6.777   2.944   9.328 -1.0069 -0.2641  0.2219
  700MOL0     C94419   6.865   2.844   9.308 -0.4598  0.5024 -0.3523
  700MOL0     C94420   7.069   2.450   9.086  0.2162 -0.4219  0.3844
  700MOL0     C94421   7.062   2.330   9.012 -0.0066  0.4925 -0.9439
  700MOL0     C94422   7.177   2.244   9.004  0.7686 -0.2646  0.1441
  700MOL0     C94423   7.301   2.278   9.057  0.2358 -0.3455 -0.0174
  700MOL0     O94424   7.402   2.186   9.034  0.0742 -0.3521 -0.6009
  700MOL0     C94425   7.535   2.209   9.088  0.0988  0.3930  0.1058
  700MOL0     C94426   7.639   2.191   8.971 -0.1532  0.0331  0.0766
  700MOL0     C94427   7.668   2.044   8.919 -0.3459  0.3208  0.9681
  700MOL0     C94428   7.751   2.056   8.785  0.2215  0.4309 -0.0729
  700MOL0     C94429   7.678   2.104   8.661  0.1750 -0.4073 -0.7485
  700MOL0     C94430   7.614   2.146   8.568  0.1809 -0.3204  0.7791
  700MOL0     C94431   7.310   2.406   9.132 -0.0298 -0.0154  0.1821
  700MOL0     C94432   7.193   2.485   9.143  0.2379  0.5013  0.3791
  700MOL0     H94433   6.753   2.704   9.020  1.6981 -2.4598  1.5613
  700MOL0     H94434   6.595   2.860   9.051  0.5177 -0.8632  0.8555
  700MOL0     H94435   6.619   3.161   9.097  0.9952  2.3475 -0.2134
  700MOL0     H94436   6.485   3.227   9.188 -0.5175 -0.7877 -0.4956
  700MOL0     H94437   6.771   3.238   9.288  0.4572  1.3924 -1.5341
  700MOL0     H94438   6.656   3.355   9.243 -1.9877  0.0711 -0.2128
  700MOL0     H94439   6.490   3.256   9.436 -1.0358 -2.5088  1.8346
  700MOL0     H94440   6.644   3.184   9.490  1.1611  1.0573 -0.7033
  700MOL0     H94441   6.750   3.428   9.473  0.0212  0.3487  1.6314
  700MOL0     H94442   6.595   3.486   9.451  1.2818  1.8906  0.7320
  700MOL0     H94443   6.528   3.350   9.669  0.4312 -0.9846  0.9794
  700MOL0     H94444   6.696   3.301   9.690  0.0311 -1.2234 -0.6284
  700MOL0     H94445   6.769   3.538   9.707  0.1466  0.6002  1.2820
  700MOL0     H94446   6.593   3.589   9.680  1.5404 -0.6013 -1.7686
  700MOL0     H94447   6.567   3.413   9.895 -0.2959  0.0963 -0.5290
  700MOL0     H94448   6.748   3.450   9.898  0.8094 -1.2157 -1.6802
  700MOL0     H94449   6.552   3.681   9.919  1.0803  1.1320  0.8509
  700MOL0     H94450   6.719   3.666   9.945  0.9378 -2.5946 -2.2911
  700MOL0     H94451   6.384   3.580  10.087  1.1034 -2.3033 -2.1411
  700MOL0     H94452   6.430   3.530  10.467  0.3977 -1.2852  0.0025
  700MOL0     H94453   6.424   3.698  10.435 -0.5399 -0.3562  0.9136
  700MOL0     H94454   6.200   3.600  10.466  2.0505  2.3030  1.1250
  700MOL0     H94455   6.220   3.507  10.316 -1.9342  1.9773 -3.3951
  700MOL0     H94456   6.234   3.701  10.170 -0.3230 -2.7355  0.0072
  700MOL0     H94457   6.272   3.818  10.302  1.1143  1.2810 -5.0334
  700MOL0     H94458   6.061   3.869  10.273 -0.3934  0.3787  2.4864
  700MOL0     H94459   6.046   3.748  10.402  0.9034  0.5326  0.2506
  700MOL0     H94460   5.836   3.517  10.106 -3.7681 -2.9560 -1.8899
  700MOL0     H94461   5.462   3.521  10.056 -0.3954  0.1629 -0.6408
  700MOL0     H94462   5.611   3.480   9.969 -0.8455  0.0222 -0.3507
  700MOL0     H94463   5.572   3.387  10.104  1.2624 -1.3079 -2.8315
  700MOL0     H94464   5.134   3.445  10.311 -0.9937  0.5814 -2.0181
  700MOL0     H94465   4.909   3.505  10.375 -0.8029 -0.8485  1.8434
  700MOL0     H94466   4.636   3.731  10.463  0.2123  0.2709 -3.7197
  700MOL0     H94467   4.715   3.608  10.370 -0.6828  1.1212 -1.3752
  700MOL0     H94468   4.836   3.544  10.607  0.6000 -3.3072 -1.4944
  700MOL0     H94469   4.722   3.664  10.668 -0.9868  1.2754 -1.2184
  700MOL0     H94470   4.633   3.432  10.700  3.6791 -2.3075 -0.4340
  700MOL0     H94471   4.643   3.399  10.537  5.2343 -0.4993  1.9456
  700MOL0     H94472   4.475   3.624  10.653  0.9201 -1.9403  2.5643
  700MOL0     H94473   4.474   3.569  10.483  1.6421 -2.4594 -1.6997
  700MOL0     H94474   4.271   3.496  10.633  0.1201 -0.2170  1.3527
  700MOL0     H94475   4.388   3.405  10.724 -1.7817  2.9118  1.8241
  700MOL0     H94476   4.321   3.401  10.433 -0.2532 -0.0958 -0.6183
  700MOL0     H94477   4.440   3.284  10.516 -1.3764 -1.1930 -0.1171
  700MOL0     H94478   4.144   3.291  10.552 -0.7759 -1.0849 -0.9675
  700MOL0     H94479   4.258   3.193  10.641  2.4399 -0.3406 -0.6732
  700MOL0     H94480   4.239   3.198  10.341  1.4055  3.1699  2.3038
  700MOL0     H94481   4.150   3.070  10.428  0.8484 -3.9154 -0.6462
  700MOL0     H94482   5.038   3.880  10.513 -1.5494 -0.1421 -1.1126
  700MOL0     H94483   5.285   3.827  10.454  1.3097 -0.2440 -2.6288
  700MOL0     H94484   5.577   3.824  10.390 -0.5193  1.6670 -1.6964
  700MOL0     H94485   5.828   3.848  10.361 -0.8980 -0.5863  2.4131
  700MOL0     H94486   6.798   3.006   9.414 -1.8908  0.5181 -0.1098
  700MOL0     H94487   6.941   2.831   9.385  0.1271 -0.7079 -1.1115
  700MOL0     H94488   6.972   2.310   8.955 -1.0017  4.1465 -0.9002
  700MOL0     H94489   7.162   2.153   8.947  0.4589  1.5697 -2.9226
  700MOL0     H94490   7.544   2.313   9.122 -3.0318  0.9465 -0.3960
  700MOL0     H94491   7.550   2.141   9.172 -1.0540 -0.8447 -0.6418
  700MOL0     H94492   7.736   2.231   9.000  1.1472 -0.6106 -2.9444
  700MOL0     H94493   7.590   2.246   8.890 -1.5986  1.9955  2.1554
  700MOL0     H94494   7.574   1.993   8.898 -0.8624  1.3235  0.8175
  700MOL0     H94495   7.730   1.989   8.990  2.8811  1.0918 -1.0199
  700MOL0     H94496   7.777   1.954   8.758 -0.0994 -0.3494  2.3039
  700MOL0     H94497   7.846   2.107   8.802 -0.8927  2.6721 -0.1783
  700MOL0     H94498   7.555   2.183   8.487 -0.0928 -0.4022  0.9394
  700MOL0     H94499   7.398   2.441   9.185 -0.5342  1.0089  0.3620
  700MOL0     H94500   7.201   2.574   9.205 -1.7495  1.2067 -0.3079
  701MOL0     O94501   2.215   7.360   8.115  0.2057 -0.5457  0.5620
  701MOL0     C94502   2.234   7.307   8.002  0.1175 -0.6682 -0.5508
  701MOL0     O94503   2.239   7.372   7.890 -0.4806  0.3403 -0.3170
  701MOL0     C94504   2.229   7.508   7.894  0.5174  0.3084  0.1742
  701MOL0     C94505   2.324   7.567   7.811 -1.1861  0.6263  0.9171
  701MOL0     C94506   2.322   7.705   7.805  0.3932 -0.9292  0.3987
  701MOL0     C94507   2.225   7.782   7.866  0.4066 -0.4751 -0.1927
  701MOL0     O94508   2.213   7.919   7.850  0.2811 -0.2715  0.1539
  701MOL0     C94509   2.324   7.995   7.804 -0.2498 -0.0776  0.9192
  701MOL0     C94510   2.304   8.143   7.801 -0.0769 -0.1731 -1.0620
  701MOL0     C94511   2.225   8.191   7.672  0.0090 -0.3985 -0.7598
  701MOL0     C94512   2.080   8.257   7.703  0.3344  0.9511 -0.2106
  701MOL0     C94513   1.989   8.276   7.578  0.0614  0.2539 -0.6479
  701MOL0     C94514   1.856   8.325   7.623  0.6896  0.6976 -0.6516
  701MOL0     C94515   1.745   8.322   7.521  0.4828 -0.3505  0.4519
  701MOL0     C94516   1.603   8.368   7.565  0.0845  0.1790 -0.1059
  701MOL0     N94517   1.576   8.388   7.706  0.1468 -0.4185 -0.7956
  701MOL0     C94518   1.553   8.288   7.805 -0.1146 -0.8904 -0.2412
  701MOL0     C94519   1.501   8.355   7.909 -0.1930 -0.7265  0.3334
  701MOL0     C94520   1.450   8.304   8.042 -0.4023  0.0598  0.2431
  701MOL0     C94521   1.294   8.313   8.053  0.5197  0.8784 -0.3905
  701MOL0     C94522   1.262   8.272   8.199 -0.0897  0.9940 -0.2800
  701MOL0     C94523   1.126   8.320   8.240  0.9577 -0.7311  0.0133
  701MOL0     O94524   1.026   8.265   8.149 -0.2745 -1.2618 -0.7141
  701MOL0     C94525   0.901   8.272   8.196  0.1564 -1.1844  0.4641
  701MOL0     C94526   0.856   8.330   8.318 -1.0917 -0.3104 -0.4696
  701MOL0     C94527   0.723   8.332   8.356  1.4762 -0.8828  0.1309
  701MOL0     C94528   0.695   8.406   8.481 -0.3823  1.0403  0.0329
  701MOL0     C94529   0.628   8.261   8.286  0.2421  0.2319 -0.1423
  701MOL0     C94530   0.496   8.240   8.341  0.9681 -0.0065 -0.4368
  701MOL0     O94531   0.407   8.196   8.247  0.0967 -0.3189 -0.1538
  701MOL0     C94532   0.275   8.170   8.269  1.0691  0.2337 -0.7911
  701MOL0     C94533   0.209   8.097   8.164  1.0958 -0.4744 -0.1131
  701MOL0     C94534   0.077   8.052   8.174  0.9718  0.2525  0.1206
  701MOL0     C94535  -0.001   8.082   8.288  0.9148 -0.4260 -0.4272
  701MOL0     O94536  -0.126   8.032   8.315 -0.3137 -0.1292 -0.2558
  701MOL0     C94537  -0.170   7.917   8.259  0.7650  0.9423 -0.2463
  701MOL0     C94538  -0.316   7.891   8.294  0.1939  0.1132  0.6316
  701MOL0     C94539  -0.326   7.881   8.442 -1.0981  0.0536  0.4863
  701MOL0     C94540  -0.468   7.893   8.493 -0.0944 -0.0781  0.9965
  701MOL0     C94541  -0.556   7.775   8.448 -0.4678  0.8985  0.3946
  701MOL0     C94542  -0.687   7.783   8.522 -0.0426  0.9413 -0.3413
  701MOL0     C94543  -0.779   7.663   8.497  0.5648 -0.3053  0.8036
  701MOL0     C94544  -0.926   7.709   8.487  0.2700  0.1306  1.0635
  701MOL0    Cl94545  -1.008   7.565   8.418  0.0611  0.1242  0.2788
  701MOL0     C94546   0.066   8.155   8.393  0.5268  0.7502 -0.0084
  701MOL0     C94547   0.196   8.202   8.380 -0.1359 -0.0240  1.2849
  701MOL0     O94548   0.470   8.252   8.459  0.5185  0.2040  0.6890
  701MOL0     C94549   0.671   8.200   8.163  0.2087 -0.6845 -0.6355
  701MOL0     C94550   0.805   8.212   8.118  0.1514 -0.6266 -0.0142
  701MOL0     N94551   1.506   8.496   7.876 -0.4777 -0.3316 -0.4497
  701MOL0     N94552   1.549   8.510   7.760 -0.2072 -0.1190  0.1456
  701MOL0     C94553   2.116   7.724   7.936 -1.0883  0.4573  0.5425
  701MOL0     C94554   2.115   7.584   7.953 -0.9422  0.3849 -0.2005
  701MOL0     C94555   2.251   7.162   7.999 -0.0636  0.6211  0.1191
  701MOL0     C94556   2.251   7.088   7.877 -0.4851 -0.5938 -0.7526
  701MOL0     C94557   2.240   6.959   7.873 -0.5815  0.2253 -0.0375
  701MOL0     C94558   2.243   6.883   7.991  0.0329  0.6247  0.7669
  701MOL0     O94559   2.246   6.747   7.992 -0.5255  0.2630 -0.3839
  701MOL0     C94560   2.345   6.690   7.905  0.1107  0.1431 -0.8394
  701MOL0     C94561   2.354   6.550   7.934  0.2034 -0.1630 -0.5423
  701MOL0     C94562   2.442   6.472   7.833 -0.6640  0.6415 -0.5204
  701MOL0     C94563   2.488   6.343   7.901  0.0730 -0.0559 -0.1708
  701MOL0     C94564   2.605   6.284   7.834  0.6910  0.1799  1.1537
  701MOL0     C94565   2.695   6.239   7.774 -0.2559 -0.0657  0.0793
  701MOL0     C94566   2.243   6.948   8.112  0.5909  0.4496  0.4299
  701MOL0     C94567   2.246   7.085   8.121 -0.3785  0.6670  0.6893
  701MOL0     H94568   2.406   7.510   7.770 -2.4897 -0.2563 -0.5685
  701MOL0     H94569   2.391   7.752   7.736 -0.7928  0.6791  0.2450
  701MOL0     H94570   2.408   7.961   7.865 -0.3909 -3.3907 -0.4974
  701MOL0     H94571   2.337   7.960   7.701  1.7871  0.4251  0.9622
  701MOL0     H94572   2.244   8.162   7.890  0.7661  0.1855 -0.5654
  701MOL0     H94573   2.394   8.201   7.820  0.5187 -1.5572  0.5791
  701MOL0     H94574   2.285   8.257   7.608  1.7571 -3.3763 -2.4224
  701MOL0     H94575   2.211   8.106   7.605  1.9442 -2.1340  0.9030
  701MOL0     H94576   2.027   8.184   7.766 -0.8684 -0.2158 -2.4336
  701MOL0     H94577   2.103   8.352   7.752  0.8950  1.2266 -0.9794
  701MOL0     H94578   2.028   8.350   7.508 -0.1833  2.0380  1.0222
  701MOL0     H94579   1.993   8.179   7.527 -0.3876 -0.9411  1.4605
  701MOL0     H94580   1.823   8.270   7.711 -0.3775 -0.1722 -1.5657
  701MOL0     H94581   1.874   8.431   7.647  3.2386  0.1398  0.2528
  701MOL0     H94582   1.778   8.396   7.447 -2.3505 -0.6089 -1.1828
  701MOL0     H94583   1.735   8.221   7.482  0.0759  0.4392 -1.6175
  701MOL0     H94584   1.545   8.283   7.527  3.2551 -0.5360 -4.0686
  701MOL0     H94585   1.578   8.452   7.498  1.1671 -0.5817 -1.5223
  701MOL0     H94586   1.571   8.181   7.800 -0.0125 -0.8237 -2.7954
  701MOL0     H94587   1.483   8.201   8.059 -0.9461 -0.1348  0.1330
  701MOL0     H94588   1.508   8.368   8.109  1.2133  0.1080 -1.1207
  701MOL0     H94589   1.248   8.238   7.988  2.6254 -1.2834  0.4719
  701MOL0     H94590   1.261   8.412   8.018  0.1519  0.4678 -1.2381
  701MOL0     H94591   1.335   8.301   8.275 -0.1934 -2.2499  1.2122
  701MOL0     H94592   1.259   8.163   8.201  0.5930  0.9830  0.8794
  701MOL0     H94593   1.118   8.430   8.243 -0.3282 -0.8105  0.2638
  701MOL0     H94594   1.103   8.283   8.341 -0.0397  3.0611  1.3664
  701MOL0     H94595   0.930   8.377   8.381 -0.1651 -2.8967  0.5170
  701MOL0     H94596   0.712   8.337   8.564  1.5592 -0.2835 -1.3800
  701MOL0     H94597   0.772   8.482   8.499  0.0955  0.2601  1.3829
  701MOL0     H94598   0.599   8.459   8.489 -0.8258  0.0551  1.4547
  701MOL0     H94599   0.271   8.073   8.079  2.3079  1.5557  0.1249
  701MOL0     H94600   0.032   7.986   8.101 -0.3645 -1.5811  2.4338
  701MOL0     H94601  -0.171   7.920   8.150  1.6264 -0.7591 -0.3386
  701MOL0     H94602  -0.097   7.841   8.291 -2.1846 -1.6619  0.7598
  701MOL0     H94603  -0.366   7.981   8.256  0.3864 -0.5549 -1.3042
  701MOL0     H94604  -0.361   7.809   8.239 -0.7847 -0.6924  2.5528
  701MOL0     H94605  -0.261   7.956   8.487  0.8501 -1.6062  0.6083
  701MOL0     H94606  -0.282   7.786   8.474 -0.5656  0.8601  2.2817
  701MOL0     H94607  -0.467   7.889   8.602 -0.4950  0.9501  1.0449
  701MOL0     H94608  -0.505   7.992   8.465 -0.5106  0.1867  2.3860
  701MOL0     H94609  -0.507   7.679   8.465 -3.2008 -0.7856 -0.6563
  701MOL0     H94610  -0.581   7.786   8.343 -1.7144 -0.2056  0.5486
  701MOL0     H94611  -0.682   7.782   8.631 -2.1257  2.5842 -0.1639
  701MOL0     H94612  -0.732   7.879   8.496  1.7164  1.7138 -0.6871
  701MOL0     H94613  -0.763   7.593   8.580 -1.1600 -3.3111 -1.1870
  701MOL0     H94614  -0.740   7.624   8.402 -0.1367  1.9109 -0.4516
  701MOL0     H94615  -0.944   7.797   8.425  1.6594  1.0674  1.9264
  701MOL0     H94616  -0.958   7.726   8.590  2.3283  2.5966  1.4160
  701MOL0     H94617   0.015   8.164   8.489 -0.0654 -2.4855  0.1172
  701MOL0     H94618   0.237   8.261   8.461  5.7408  0.3447 -1.4592
  701MOL0     H94619   0.609   8.138   8.098  0.4242 -0.4869 -1.0361
  701MOL0     H94620   0.832   8.157   8.029 -2.1030 -2.4704  0.3457
  701MOL0     H94621   2.027   7.768   7.978 -2.4005 -2.5649  1.2016
  701MOL0     H94622   2.028   7.537   7.998 -2.2218  2.3154 -0.5087
  701MOL0     H94623   2.239   7.139   7.781  2.8996 -1.9703 -2.0678
  701MOL0     H94624   2.255   6.917   7.774  1.4419  1.0979 -0.1481
  701MOL0     H94625   2.315   6.702   7.800  0.8486  2.1951 -0.8581
  701MOL0     H94626   2.438   6.746   7.920 -0.3408  1.1034 -1.5169
  701MOL0     H94627   2.254   6.506   7.935  0.7045 -1.3713 -1.5544
  701MOL0     H94628   2.404   6.542   8.031  1.7214  0.1834 -1.2594
  701MOL0     H94629   2.538   6.522   7.814 -0.4710  0.7283  0.6520
  701MOL0     H94630   2.394   6.441   7.739  2.3710 -4.0263 -0.8761
  701MOL0     H94631   2.406   6.271   7.904  0.0971 -0.0569  2.1511
  701MOL0     H94632   2.523   6.362   8.003  0.4939  1.6623 -0.6024
  701MOL0     H94633   2.776   6.192   7.722 -0.2950  0.0200 -0.0582
  701MOL0     H94634   2.243   6.879   8.196  2.5896 -1.1712 -0.7924
  701MOL0     H94635   2.251   7.127   8.221 -2.2002 -0.7040  1.4380
  702MOL0     O94636   9.539   6.665   0.216  0.0608  0.6833  0.7420
  702MOL0     C94637   9.640   6.609   0.265 -0.0064  0.5147  0.1127
  702MOL0     O94638   9.672   6.476   0.257  0.1772  0.6670  0.6844
  702MOL0     C94639   9.569   6.402   0.208 -0.3448  0.4524 -0.7506
  702MOL0     C94640   9.501   6.417   0.083  0.5176 -1.0062  0.4275
  702MOL0     C94641   9.405   6.329   0.035  0.4600  0.7189 -0.3186
  702MOL0     C94642   9.379   6.210   0.119  0.3304  0.1303  0.3155
  702MOL0     O94643   9.290   6.107   0.068  0.4235 -0.0363 -0.0580
  702MOL0     C94644   9.234   6.010   0.156  0.2266  0.1696 -0.6154
  702MOL0     C94645   9.129   5.926   0.073  0.0472 -0.7336 -0.4460
  702MOL0     C94646   9.014   6.029   0.032  0.6942  0.4559  0.3751
  702MOL0     C94647   8.909   5.967  -0.069  0.3499  1.0104 -0.3419
  702MOL0     C94648   8.824   6.077  -0.133  0.6042 -0.2055 -0.0581
  702MOL0     C94649   8.709   6.029  -0.223 -0.1520 -0.5499 -0.0969
  702MOL0     C94650   8.623   6.150  -0.271 -0.2299  1.3837  0.8122
  702MOL0     C94651   8.522   6.104  -0.372 -0.1091  0.8895 -0.0347
  702MOL0     N94652   8.390   6.061  -0.318  0.0112 -0.0604 -0.5337
  702MOL0     C94653   8.280   6.121  -0.375  0.8408 -0.2135 -0.6612
  702MOL0     C94654   8.180   6.049  -0.314 -0.4139  0.1144  0.0100
  702MOL0     C94655   8.038   6.062  -0.345 -0.5561  0.4656  0.4897
  702MOL0     C94656   7.975   6.200  -0.284 -0.2841  0.1785 -0.2889
  702MOL0     C94657   8.003   6.218  -0.135  0.1988  0.3193  0.6413
  702MOL0     C94658   7.987   6.363  -0.098 -0.0775  0.2844  0.0567
  702MOL0     O94659   8.109   6.440  -0.136 -0.0453 -0.1103  0.0479
  702MOL0     C94660   8.237   6.410  -0.082  0.4170  0.2809  0.1082
  702MOL0     C94661   8.243   6.345   0.040 -0.1578 -0.2018  1.2136
  702MOL0     C94662   8.366   6.314   0.100 -1.3564 -0.1410 -0.6754
  702MOL0     C94663   8.362   6.240   0.227  0.0028  0.7138 -0.0133
  702MOL0     C94664   8.490   6.352   0.037 -0.1441 -0.6339 -1.6016
  702MOL0     C94665   8.628   6.322   0.087  1.2966  0.6248 -0.1332
  702MOL0     O94666   8.728   6.389   0.027 -0.6540 -1.3936  0.8157
  702MOL0     C94667   8.823   6.427   0.113  0.6373 -0.1926 -0.4381
  702MOL0     C94668   8.948   6.383   0.090 -0.7684  0.6853 -0.1535
  702MOL0     C94669   9.055   6.413   0.181 -0.5188 -0.4593 -0.3814
  702MOL0     C94670   9.033   6.487   0.295 -0.4513 -0.0847  0.6632
  702MOL0     O94671   9.124   6.534   0.384  0.1919  0.0401  0.6234
  702MOL0     C94672   9.261   6.501   0.397 -0.8367 -0.8227 -0.5549
  702MOL0     C94673   9.337   6.595   0.500  0.3451 -0.6571 -0.2063
  702MOL0     C94674   9.287   6.737   0.499  0.0873  0.1719 -0.0960
  702MOL0     C94675   9.391   6.829   0.556 -0.2835 -0.6981 -0.6596
  702MOL0     C94676   9.350   6.968   0.543  0.9347 -0.0829  0.4458
  702MOL0     C94677   9.449   7.086   0.600 -0.2722 -0.4896 -0.1398
  702MOL0     C94678   9.403   7.229   0.569 -0.6059  0.4421 -0.3137
  702MOL0     C94679   9.521   7.324   0.588  0.3055  0.1575  0.0457
  702MOL0    Cl94680   9.571   7.337   0.758 -0.4587  0.3881 -0.1083
  702MOL0     C94681   8.901   6.523   0.317 -0.5268  0.4976 -0.2372
  702MOL0     C94682   8.794   6.513   0.228 -0.3519  0.5450  0.1779
  702MOL0     O94683   8.643   6.240   0.178  0.2739 -0.5450  0.2977
  702MOL0     C94684   8.471   6.401  -0.094  0.3117 -0.4699 -0.0162
  702MOL0     C94685   8.354   6.438  -0.150  0.7793 -0.1035 -0.3545
  702MOL0     N94686   8.242   5.963  -0.222 -0.5049 -0.7112  0.3315
  702MOL0     N94687   8.362   5.963  -0.228 -0.2108  0.1003  0.5644
  702MOL0     C94688   9.437   6.197   0.244  0.7030 -0.1620  0.9617
  702MOL0     C94689   9.532   6.294   0.289  0.2906  0.3878 -0.0391
  702MOL0     C94690   9.733   6.688   0.347  0.0683  0.0470  0.2087
  702MOL0     C94691   9.843   6.619   0.405  0.4013  0.3379 -0.0612
  702MOL0     C94692   9.917   6.687   0.493  0.5009  0.1663 -0.9531
  702MOL0     C94693   9.905   6.830   0.509 -0.0962  0.4200  0.2363
  702MOL0     O94694   9.990   6.911   0.589 -0.2547 -0.3146  0.3614
  702MOL0     C94695  10.121   6.867   0.634 -0.3973 -0.4257  0.9572
  702MOL0     C94696  10.208   6.982   0.682 -0.4130  0.3850 -0.4604
  702MOL0     C94697  10.355   6.947   0.709 -0.6927  0.1371 -0.5286
  702MOL0     C94698  10.438   7.082   0.717 -0.2969  0.6290  0.6943
  702MOL0     C94699  10.581   7.050   0.719  0.7193 -0.0232 -0.3583
  702MOL0     C94700  10.699   7.039   0.715 -0.7856  0.2192 -0.3282
  702MOL0     C94701   9.803   6.897   0.447  0.3086  0.8689 -0.8274
  702MOL0     C94702   9.711   6.829   0.361 -0.2056 -0.7265  0.7870
  702MOL0     H94703   9.529   6.507   0.028  0.4174  0.5108  2.6926
  702MOL0     H94704   9.355   6.336  -0.061  1.6717 -2.1163 -1.2553
  702MOL0     H94705   9.301   5.932   0.193 -2.6514 -1.6141  1.2445
  702MOL0     H94706   9.172   6.050   0.237 -0.2610  1.8056 -1.7330
  702MOL0     H94707   9.167   5.875  -0.016 -0.8040 -1.5556 -0.3464
  702MOL0     H94708   9.072   5.860   0.138  0.5888 -0.5519  0.2375
  702MOL0     H94709   8.961   6.064   0.121 -1.5215 -0.4182 -0.5223
  702MOL0     H94710   9.061   6.112  -0.021  1.0528 -0.6372 -1.0826
  702MOL0     H94711   8.972   5.911  -0.140 -0.3959  0.3273 -0.4752
  702MOL0     H94712   8.847   5.899  -0.011  2.9076  0.1698  1.6047
  702MOL0     H94713   8.781   6.134  -0.051  1.7380  0.3957  0.1351
  702MOL0     H94714   8.882   6.151  -0.189 -1.4761  0.2326 -1.7552
  702MOL0     H94715   8.753   5.972  -0.305  1.3594 -0.2659  0.4760
  702MOL0     H94716   8.646   5.958  -0.170 -3.4901  1.9454 -0.3653
  702MOL0     H94717   8.579   6.200  -0.184  0.9423  4.2010 -0.1272
  702MOL0     H94718   8.683   6.219  -0.331 -1.0922 -1.1862 -3.4459
  702MOL0     H94719   8.566   6.029  -0.439  0.3974  1.0408  0.1276
  702MOL0     H94720   8.507   6.196  -0.431  1.3804 -0.5560 -2.8536
  702MOL0     H94721   8.270   6.191  -0.457 -1.3834  0.1025 -0.1819
  702MOL0     H94722   8.006   6.067  -0.450  0.8759  2.0204  0.0985
  702MOL0     H94723   7.985   5.969  -0.319  0.8178  0.2370  2.6406
  702MOL0     H94724   7.867   6.193  -0.298 -0.3855  0.4507  0.2970
  702MOL0     H94725   8.015   6.290  -0.333  1.0055  0.4129  1.0933
  702MOL0     H94726   8.098   6.172  -0.106  1.0046  1.4924 -0.0361
  702MOL0     H94727   7.924   6.159  -0.088 -2.6667 -1.2170 -5.1547
  702MOL0     H94728   7.981   6.373   0.011  0.3667  3.1478 -0.0887
  702MOL0     H94729   7.900   6.408  -0.147 -1.5440 -1.2202  1.1622
  702MOL0     H94730   8.151   6.319   0.091 -1.2579 -0.3553 -0.7523
  702MOL0     H94731   8.408   6.142   0.211 -0.1737  0.5158  0.6335
  702MOL0     H94732   8.430   6.299   0.289  1.4734 -0.3691 -0.5212
  702MOL0     H94733   8.265   6.232   0.278  0.4434  4.7276  1.7919
  702MOL0     H94734   8.961   6.322   0.001 -0.4413  0.4788  0.0307
  702MOL0     H94735   9.153   6.370   0.163 -0.4956  0.5248 -3.1440
  702MOL0     H94736   9.252   6.401   0.440 -0.4898 -0.1756  1.0834
  702MOL0     H94737   9.312   6.486   0.302 -1.3183  1.1461 -1.1715
  702MOL0     H94738   9.335   6.553   0.601  1.0265  0.1000  0.1398
  702MOL0     H94739   9.441   6.602   0.467  0.4729 -1.7317 -0.0590
  702MOL0     H94740   9.188   6.743   0.546 -0.2814 -2.1077 -0.4327
  702MOL0     H94741   9.285   6.777   0.398  2.1956  1.6254  0.3638
  702MOL0     H94742   9.424   6.812   0.659  0.5917  0.3614 -0.7364
  702MOL0     H94743   9.490   6.814   0.511  0.7549 -1.7401  1.7879
  702MOL0     H94744   9.254   6.980   0.594  0.3511  2.4326 -1.0839
  702MOL0     H94745   9.321   6.983   0.438 -2.6996  1.9296  1.5762
  702MOL0     H94746   9.453   7.061   0.706 -1.5875 -3.4828 -0.6983
  702MOL0     H94747   9.546   7.076   0.550 -0.9280  1.2595 -1.8906
  702MOL0     H94748   9.324   7.240   0.644  0.2669  0.2186  0.6721
  702MOL0     H94749   9.354   7.227   0.471  1.5228 -2.1395 -1.4706
  702MOL0     H94750   9.510   7.425   0.549  2.3318  0.1239 -0.7438
  702MOL0     H94751   9.607   7.288   0.530  0.7969  0.0583  0.8133
  702MOL0     H94752   8.889   6.594   0.398  0.9539  1.7677 -1.0764
  702MOL0     H94753   8.690   6.538   0.244 -0.5885  4.2306 -4.7979
  702MOL0     H94754   8.560   6.422  -0.152 -1.7500  0.4671 -3.0617
  702MOL0     H94755   8.353   6.492  -0.244 -1.1155  0.9379  0.2015
  702MOL0     H94756   9.401   6.125   0.317 -0.0683 -0.7443  0.0248
  702MOL0     H94757   9.585   6.275   0.382  1.8227  0.0476 -0.9490
  702MOL0     H94758   9.867   6.514   0.399  1.4449  0.4833  1.2125
  702MOL0     H94759  10.002   6.639   0.539  0.5542  1.7359  0.7227
  702MOL0     H94760  10.120   6.792   0.714 -2.1354 -2.9748 -1.2547
  702MOL0     H94761  10.172   6.819   0.550 -0.0828 -0.0061  0.9067
  702MOL0     H94762  10.162   7.024   0.772  1.7808  2.3029 -0.1267
  702MOL0     H94763  10.205   7.052   0.598 -3.1235  1.5407  0.4794
  702MOL0     H94764  10.397   6.898   0.620  1.7434 -1.3216  1.2927
  702MOL0     H94765  10.371   6.880   0.794  0.9868  1.0704 -0.0673
  702MOL0     H94766  10.402   7.127   0.810 -1.7346 -5.0492  3.3919
  702MOL0     H94767  10.402   7.140   0.632 -1.7058 -2.2648 -0.8640
  702MOL0     H94768  10.803   7.020   0.698 -0.7706 -0.9891  0.9094
  702MOL0     H94769   9.806   7.002   0.474  1.9490  0.8734 -0.9263
  702MOL0     H94770   9.631   6.886   0.316  1.1028  0.5758  0.0002
  703MOL0     O94771   5.119   8.959   5.025 -0.0701  0.0467  0.1980
  703MOL0     C94772   5.098   9.058   4.954  0.0757 -0.1228 -0.0058
  703MOL0     O94773   5.177   9.112   4.857 -0.7066 -0.3017  0.2588
  703MOL0     C94774   5.297   9.055   4.810  0.3987  0.4540 -0.0147
  703MOL0     C94775   5.336   9.086   4.676  0.4420  0.9610  0.0571
  703MOL0     C94776   5.462   9.041   4.626  0.8015  0.0052  0.4031
  703MOL0     C94777   5.544   8.948   4.694 -0.0454  0.4633  0.0329
  703MOL0     O94778   5.663   8.894   4.648  0.3695  0.3226  0.3411
  703MOL0     C94779   5.727   8.934   4.523  0.8811  0.5951  0.3884
  703MOL0     C94780   5.856   8.860   4.539  1.0346  0.2979 -0.1291
  703MOL0     C94781   5.944   8.888   4.415 -0.9277  0.0119  0.2252
  703MOL0     C94782   6.082   8.820   4.430  0.0904 -0.1436 -0.5300
  703MOL0     C94783   6.146   8.803   4.290  0.1256  0.8821 -1.0217
  703MOL0     C94784   6.223   8.923   4.228  0.2757  0.0877 -0.2676
  703MOL0     C94785   6.312   8.885   4.112 -0.4463 -0.2770  0.0288
  703MOL0     C94786   6.363   9.020   4.053 -0.9685  0.1864 -0.0225
  703MOL0     N94787   6.511   9.029   4.081  0.0439  0.2102  0.0834
  703MOL0     C94788   6.598   9.017   3.973  0.0928  0.2720  0.2014
  703MOL0     C94789   6.723   9.022   4.036  0.6327 -0.7641 -0.5041
  703MOL0     C94790   6.849   9.033   3.966 -0.2783 -0.7421  0.4230
  703MOL0     C94791   6.872   8.914   3.877 -0.2213 -0.4172  0.4296
  703MOL0     C94792   6.930   8.944   3.742  0.4210  0.2509  0.2135
  703MOL0     C94793   6.942   8.817   3.659  0.9519  0.7694 -0.6656
  703MOL0     O94794   7.003   8.852   3.528  0.0373  1.6257  0.3024
  703MOL0     C94795   7.015   8.744   3.438 -0.2873  0.5132 -0.2584
  703MOL0     C94796   7.011   8.612   3.470 -0.4467  0.2847  0.3482
  703MOL0     C94797   7.044   8.515   3.380  0.0046  0.3459 -0.0508
  703MOL0     C94798   7.015   8.376   3.427  0.0237  1.1644 -0.4246
  703MOL0     C94799   7.094   8.548   3.250  0.8310  0.4523 -0.6887
  703MOL0     C94800   7.110   8.452   3.137 -0.8265  0.8636 -0.5951
  703MOL0     O94801   7.169   8.500   3.018 -0.1488 -0.0897  0.1269
  703MOL0     C94802   7.220   8.399   2.939 -0.7299  0.4441 -0.0528
  703MOL0     C94803   7.328   8.326   2.972  0.5898  0.0575 -0.3805
  703MOL0     C94804   7.384   8.224   2.895  0.2843 -0.1020 -0.2025
  703MOL0     C94805   7.317   8.184   2.783  0.4697  0.0857 -0.0179
  703MOL0     O94806   7.345   8.070   2.705  0.1176 -0.8109  0.2052
  703MOL0     C94807   7.449   7.980   2.752 -0.0767  0.5058  0.3446
  703MOL0     C94808   7.591   8.009   2.701 -0.0174  0.6795  0.9157
  703MOL0     C94809   7.694   7.901   2.730 -0.2640 -0.4688  1.1072
  703MOL0     C94810   7.732   7.903   2.878  0.4077 -0.3755  0.0540
  703MOL0     C94811   7.870   7.842   2.900  0.1919  0.0072  0.2803
  703MOL0     C94812   7.892   7.814   3.053  0.2117 -0.1487  0.0431
  703MOL0     C94813   8.037   7.773   3.071 -0.0303  0.8873  0.2785
  703MOL0     C94814   8.068   7.615   3.093  0.6538  1.2023  0.3192
  703MOL0    Cl94815   8.047   7.521   2.947  0.4767 -0.1124 -0.4589
  703MOL0     C94816   7.200   8.251   2.745 -0.3278 -0.0188  1.1033
  703MOL0     C94817   7.152   8.361   2.817  0.4761 -0.0420 -0.4753
  703MOL0     O94818   7.079   8.332   3.152 -0.9293 -0.0033  0.9492
  703MOL0     C94819   7.092   8.685   3.212 -0.4664  0.3291 -0.4285
  703MOL0     C94820   7.057   8.783   3.311  1.2013  0.2646 -0.0362
  703MOL0     N94821   6.697   9.034   4.172 -0.1160 -0.2110 -0.1210
  703MOL0     N94822   6.573   9.021   4.201  0.1657  0.6464 -0.3338
  703MOL0     C94823   5.500   8.913   4.824 -0.4689  0.0142 -0.4856
  703MOL0     C94824   5.382   8.969   4.886 -0.4157 -0.6186  0.0398
  703MOL0     C94825   4.970   9.132   4.975  0.2483 -0.6167 -0.1966
  703MOL0     C94826   4.935   9.245   4.895 -0.1858 -0.0304 -0.6734
  703MOL0     C94827   4.819   9.320   4.922 -0.1617 -0.3043 -0.5666
  703MOL0     C94828   4.738   9.283   5.032 -0.7935  0.1272  1.0820
  703MOL0     O94829   4.630   9.363   5.050 -0.3286 -0.3620 -0.0691
  703MOL0     C94830   4.601   9.399   5.187 -0.6479 -0.2040 -0.5603
  703MOL0     C94831   4.583   9.548   5.203  0.4600  0.2452  0.1504
  703MOL0     C94832   4.459   9.622   5.143 -0.4743  0.3489  0.9437
  703MOL0     C94833   4.466   9.767   5.174  0.4091 -0.0396  0.2240
  703MOL0     C94834   4.340   9.820   5.123  0.0662  0.3270  0.4349
  703MOL0     C94835   4.232   9.863   5.085  0.3500 -0.2844 -0.6240
  703MOL0     C94836   4.767   9.171   5.116 -0.4524 -0.1549 -0.0559
  703MOL0     C94837   4.886   9.098   5.081  0.3701 -0.5553  0.0799
  703MOL0     H94838   5.273   9.147   4.612 -1.1627 -2.4969 -1.9687
  703MOL0     H94839   5.482   9.061   4.521 -1.2102  3.1008  0.4668
  703MOL0     H94840   5.667   8.897   4.439 -0.6684  0.3482  1.5529
  703MOL0     H94841   5.742   9.042   4.531 -0.5446  0.7228  2.0856
  703MOL0     H94842   5.909   8.884   4.631 -0.5292 -1.2060  1.2138
  703MOL0     H94843   5.830   8.754   4.546  0.2523  0.4535 -0.5871
  703MOL0     H94844   5.899   8.845   4.325  1.4311  2.5056 -2.3356
  703MOL0     H94845   5.948   8.996   4.399 -1.8874  0.0484  0.1798
  703MOL0     H94846   6.145   8.871   4.504 -2.9635 -1.0630  2.9936
  703MOL0     H94847   6.076   8.717   4.467  0.8151 -0.6140 -1.6424
  703MOL0     H94848   6.217   8.721   4.299 -2.3083 -1.3896 -1.3128
  703MOL0     H94849   6.075   8.760   4.219  1.8270 -3.0938 -0.5825
  703MOL0     H94850   6.142   8.984   4.185 -1.8912 -1.6713  1.0724
  703MOL0     H94851   6.274   8.982   4.304  2.9354  1.6603 -3.0366
  703MOL0     H94852   6.402   8.837   4.151 -0.7739 -0.7518  0.2112
  703MOL0     H94853   6.271   8.823   4.032  0.2965 -1.5520  0.6117
  703MOL0     H94854   6.314   9.107   4.097 -1.3674 -0.5358  1.0201
  703MOL0     H94855   6.360   9.033   3.945  2.9065  1.0275 -0.1837
  703MOL0     H94856   6.574   9.021   3.867  0.1691 -0.6978  0.1430
  703MOL0     H94857   6.844   9.120   3.899  1.5754  0.0439  1.2280
  703MOL0     H94858   6.932   9.058   4.033 -0.5490  1.5689 -0.0171
  703MOL0     H94859   6.775   8.864   3.864  0.1266 -1.4091  1.4399
  703MOL0     H94860   6.944   8.846   3.925 -0.7509 -1.5997 -0.3945
  703MOL0     H94861   7.021   9.005   3.741 -0.2152  1.3524  2.5947
  703MOL0     H94862   6.857   9.007   3.691 -0.4939 -0.2991  0.8070
  703MOL0     H94863   6.844   8.769   3.649  1.4763 -0.1816 -1.4220
  703MOL0     H94864   7.004   8.746   3.714 -1.3985  0.7278  2.1482
  703MOL0     H94865   6.983   8.566   3.564 -0.2723 -0.9173 -0.1741
  703MOL0     H94866   6.985   8.369   3.533  0.3049 -3.3062 -0.4633
  703MOL0     H94867   6.938   8.330   3.365  1.7723 -0.3931 -1.5528
  703MOL0     H94868   7.106   8.317   3.418 -0.7112 -0.0787  0.0660
  703MOL0     H94869   7.369   8.353   3.069  0.9796 -1.0698 -0.2189
  703MOL0     H94870   7.474   8.175   2.931 -0.1312  2.0753  4.4738
  703MOL0     H94871   7.459   7.979   2.861 -1.0808 -0.2820  0.4429
  703MOL0     H94872   7.420   7.877   2.728 -2.1570  1.0615  0.2913
  703MOL0     H94873   7.586   8.015   2.592 -1.2971  0.8400  0.9657
  703MOL0     H94874   7.627   8.102   2.746 -2.6750  2.0281  0.4772
  703MOL0     H94875   7.779   7.923   2.666 -2.3923  1.0007 -1.4242
  703MOL0     H94876   7.665   7.802   2.696  0.9185  0.4111 -3.0264
  703MOL0     H94877   7.728   8.007   2.911  0.5028  0.5576 -2.6523
  703MOL0     H94878   7.656   7.853   2.940  0.5566 -1.4757 -0.6280
  703MOL0     H94879   7.955   7.894   2.856 -1.5434  2.0187 -0.9234
  703MOL0     H94880   7.880   7.743   2.854  3.1168 -0.2596  1.3125
  703MOL0     H94881   7.869   7.908   3.104  0.3496  0.9040 -1.7366
  703MOL0     H94882   7.829   7.735   3.095  3.0296 -4.6670 -3.2460
  703MOL0     H94883   8.084   7.816   3.159 -1.7674  0.7423  1.3284
  703MOL0     H94884   8.098   7.804   2.985  0.6598 -1.7838 -0.2672
  703MOL0     H94885   8.016   7.570   3.179  0.9116  1.1851  0.4675
  703MOL0     H94886   8.173   7.595   3.117 -0.2463 -1.6986  2.4769
  703MOL0     H94887   7.147   8.230   2.653  3.6973 -1.2553 -1.1407
  703MOL0     H94888   7.064   8.415   2.784 -1.4482 -2.2707  0.6752
  703MOL0     H94889   7.118   8.721   3.113 -1.4555 -0.5279 -1.0143
  703MOL0     H94890   7.064   8.886   3.275  2.1575 -0.4239 -1.9175
  703MOL0     H94891   5.566   8.847   4.879 -2.8774 -2.8087 -0.7096
  703MOL0     H94892   5.357   8.954   4.990  0.3122 -0.8745  0.1864
  703MOL0     H94893   4.999   9.286   4.818  3.6149 -3.9068  0.0276
  703MOL0     H94894   4.797   9.402   4.856 -3.4703 -0.2891  0.3806
  703MOL0     H94895   4.511   9.348   5.223 -0.6924  0.9786  1.1443
  703MOL0     H94896   4.684   9.371   5.252 -0.1975  0.0916 -1.0064
  703MOL0     H94897   4.669   9.597   5.157 -0.5079  0.9158 -1.0299
  703MOL0     H94898   4.575   9.578   5.308 -1.1486  1.3439 -0.2421
  703MOL0     H94899   4.367   9.580   5.185 -1.2535  4.7117  4.3653
  703MOL0     H94900   4.468   9.594   5.038 -0.2717  2.2029  0.4402
  703MOL0     H94901   4.551   9.824   5.136  1.4043 -1.5334  0.1187
  703MOL0     H94902   4.461   9.777   5.283  0.0571  0.2136  0.1885
  703MOL0     H94903   4.141   9.904   5.046 -0.4918  0.2854  1.7735
  703MOL0     H94904   4.716   9.144   5.208 -1.9368 -0.2537 -0.8780
  703MOL0     H94905   4.907   9.013   5.145  0.4024 -0.9580 -0.4585
  704MOL0     O94906   7.509   9.311   2.828 -0.7500  0.0870  0.1221
  704MOL0     C94907   7.494   9.226   2.917  0.0187  0.9129  0.1704
  704MOL0     O94908   7.401   9.225   3.011 -0.0132  0.1776 -0.3294
  704MOL0     C94909   7.317   9.332   3.017  0.0157  0.3614  0.4625
  704MOL0     C94910   7.351   9.455   3.065  0.6070  0.5812  0.4823
  704MOL0     C94911   7.255   9.552   3.065  0.2903 -0.2514  0.8978
  704MOL0     C94912   7.130   9.542   3.001  0.2377  0.0245  0.0444
  704MOL0     O94913   7.057   9.658   3.011 -0.3759 -0.3245  0.3911
  704MOL0     C94914   6.965   9.674   2.894  0.3071 -0.5573 -0.8158
  704MOL0     C94915   6.899   9.810   2.908 -0.4729 -0.6610  0.2687
  704MOL0     C94916   6.860   9.867   2.768  0.4425  0.5149  0.7308
  704MOL0     C94917   6.731   9.954   2.772  0.6981 -0.7157 -0.1254
  704MOL0     C94918   6.742  10.039   2.643  0.4229  0.8100 -0.4812
  704MOL0     C94919   6.785   9.981   2.510 -0.1828 -0.5839  0.8605
  704MOL0     C94920   6.777  10.072   2.387  0.5355  0.0903  0.9773
  704MOL0     C94921   6.645  10.061   2.308  0.6374 -0.5231 -0.3535
  704MOL0     N94922   6.521  10.103   2.375 -0.7305  0.0653 -0.6556
  704MOL0     C94923   6.484  10.236   2.385  0.6037 -0.2284  0.6210
  704MOL0     C94924   6.389  10.241   2.479  0.4160  0.4032 -0.1729
  704MOL0     C94925   6.300  10.363   2.490  0.2427 -0.7219  0.3504
  704MOL0     C94926   6.341  10.474   2.594  0.2618  0.0194  0.4495
  704MOL0     C94927   6.206  10.544   2.618 -0.0575  0.7173  0.2554
  704MOL0     C94928   6.213  10.670   2.705 -0.3717 -0.1236 -0.9473
  704MOL0     O94929   6.084  10.715   2.743 -0.3152  0.2037  0.8468
  704MOL0     C94930   6.017  10.801   2.664  0.3164  0.1533 -0.3749
  704MOL0     C94931   5.899  10.847   2.724 -0.2933 -0.0268  0.3957
  704MOL0     C94932   5.821  10.946   2.664  0.0518  0.2597 -0.0559
  704MOL0     C94933   5.703  11.003   2.742  0.1928 -0.0074 -0.0539
  704MOL0     C94934   5.855  10.992   2.532 -0.9032  1.2753 -0.5257
  704MOL0     C94935   5.782  11.094   2.455 -0.1932  0.7669 -0.7071
  704MOL0     O94936   5.647  11.094   2.472  0.5409 -0.1519 -0.6289
  704MOL0     C94937   5.561  11.180   2.398 -0.0025  0.0636 -0.4139
  704MOL0     C94938   5.567  11.184   2.259 -0.0233 -0.2821 -0.3208
  704MOL0     C94939   5.483  11.276   2.184  0.2957 -0.0978  0.2772
  704MOL0     C94940   5.390  11.350   2.249  0.6180 -0.3413 -0.1993
  704MOL0     O94941   5.319  11.443   2.171 -0.3472  0.2062  0.1198
  704MOL0     C94942   5.239  11.553   2.238  0.1228  0.1812  0.0776
  704MOL0     C94943   5.151  11.619   2.136  0.5766  1.0168  0.2507
  704MOL0     C94944   5.234  11.674   2.014 -0.9956 -0.0683 -0.8373
  704MOL0     C94945   5.278  11.817   2.045 -0.3114 -0.0703  0.3262
  704MOL0     C94946   5.314  11.892   1.910  0.8631  0.6807  0.3230
  704MOL0     C94947   5.372  12.029   1.942  0.5972 -0.4150 -0.4569
  704MOL0     C94948   5.428  12.091   1.813  0.0584 -0.6534  0.9840
  704MOL0     C94949   5.320  12.138   1.715  0.0198 -0.6699 -0.1262
  704MOL0    Cl94950   5.397  12.212   1.574 -0.0067  0.4458  0.4650
  704MOL0     C94951   5.382  11.338   2.393  0.0118 -0.1964  1.0315
  704MOL0     C94952   5.464  11.253   2.465 -0.2316 -0.0988  0.4454
  704MOL0     O94953   5.839  11.170   2.381 -0.5034  0.4140  0.4756
  704MOL0     C94954   5.970  10.938   2.474 -0.5353 -1.0732  0.0317
  704MOL0     C94955   6.052  10.852   2.544  0.2278  0.4703 -0.1775
  704MOL0     N94956   6.356  10.110   2.519 -0.3187 -0.4438 -0.0135
  704MOL0     N94957   6.447  10.028   2.464 -0.2142 -0.6502  0.0557
  704MOL0     C94958   7.101   9.414   2.943  1.0432 -1.8102 -0.2048
  704MOL0     C94959   7.195   9.317   2.946  0.1743  0.1171  0.7621
  704MOL0     C94960   7.594   9.125   2.935 -0.2537 -0.6101  0.5713
  704MOL0     C94961   7.699   9.117   2.851  0.3283 -0.3204  0.6639
  704MOL0     C94962   7.799   9.020   2.855  0.6236 -0.1904 -0.1268
  704MOL0     C94963   7.789   8.922   2.951  0.1292 -0.9672 -1.1740
  704MOL0     O94964   7.878   8.816   2.965 -0.2822 -0.3073 -0.1815
  704MOL0     C94965   7.908   8.757   2.838  0.2141 -0.9179  0.2406
  704MOL0     C94966   7.986   8.633   2.864  0.1629 -0.4197 -0.3015
  704MOL0     C94967   8.005   8.540   2.741 -1.2618  0.2982 -0.5036
  704MOL0     C94968   7.898   8.440   2.711 -0.7838 -0.8526 -0.3231
  704MOL0     C94969   7.900   8.330   2.808  0.3618  0.2669  0.3839
  704MOL0     C94970   7.890   8.231   2.886  0.0141 -0.1544 -0.4369
  704MOL0     C94971   7.685   8.938   3.041 -0.4065 -0.3093 -0.4957
  704MOL0     C94972   7.587   9.032   3.030 -1.0298  0.9042 -0.2588
  704MOL0     H94973   7.447   9.472   3.113  0.5663 -1.1466  1.2438
  704MOL0     H94974   7.276   9.653   3.100  0.8931  0.5128 -1.4415
  704MOL0     H94975   7.028   9.660   2.806  1.7088 -0.7454  0.1740
  704MOL0     H94976   6.884   9.602   2.898  0.4054 -0.8149  4.9764
  704MOL0     H94977   6.815   9.788   2.975 -0.6045  0.6579  0.5559
  704MOL0     H94978   6.960   9.884   2.960 -2.6848  1.6300 -0.1887
  704MOL0     H94979   6.947   9.926   2.736  1.7449 -0.8621  1.5753
  704MOL0     H94980   6.854   9.782   2.699  2.1454  0.4785  0.5781
  704MOL0     H94981   6.639   9.895   2.762 -0.5241  0.9725  0.7457
  704MOL0     H94982   6.714  10.013   2.863  1.7406  2.2625 -1.7271
  704MOL0     H94983   6.642  10.081   2.628  0.0027 -0.7917 -2.6551
  704MOL0     H94984   6.812  10.118   2.672  0.1614 -0.0196  2.7678
  704MOL0     H94985   6.889   9.947   2.512  0.5611  1.4384 -0.5913
  704MOL0     H94986   6.715   9.898   2.494 -0.4790  0.2876 -3.4556
  704MOL0     H94987   6.809  10.171   2.422  0.9216  0.2726  0.1292
  704MOL0     H94988   6.854  10.041   2.316  1.4888  0.7531  1.6911
  704MOL0     H94989   6.632   9.956   2.284  2.3886 -0.6001 -1.1485
  704MOL0     H94990   6.675  10.115   2.218  4.7404 -0.6599  0.6970
  704MOL0     H94991   6.527  10.323   2.337 -0.4941  0.5480  0.9855
  704MOL0     H94992   6.299  10.417   2.395  4.2336 -4.6003 -2.3318
  704MOL0     H94993   6.201  10.320   2.509 -0.7184  1.5906  0.8105
  704MOL0     H94994   6.414  10.541   2.549  3.2037 -2.9251  0.4782
  704MOL0     H94995   6.389  10.423   2.678 -0.3170  0.7079  1.2252
  704MOL0     H94996   6.138  10.481   2.677 -1.5911  2.9584  0.9903
  704MOL0     H94997   6.154  10.572   2.527  1.0575 -1.4115 -1.1318
  704MOL0     H94998   6.271  10.743   2.647 -1.5573 -1.1917 -3.6132
  704MOL0     H94999   6.269  10.655   2.798  0.1908  1.2825 -1.0309
  704MOL0     H95000   5.869  10.812   2.823 -0.6731 -2.1220 -0.4135
  704MOL0     H95001   5.610  10.953   2.711 -0.2125  0.3592  0.5633
  704MOL0     H95002   5.701  10.989   2.850  1.1422  3.2409  0.5021
  704MOL0     H95003   5.693  11.111   2.729 -0.0077  0.5875  3.8881
  704MOL0     H95004   5.642  11.118   2.217 -1.2080 -1.3759 -0.7572
  704MOL0     H95005   5.487  11.298   2.078 -1.2782  0.2937  0.2694
  704MOL0     H95006   5.173  11.502   2.309 -0.7057  2.0967  0.7580
  704MOL0     H95007   5.288  11.637   2.286  0.2907  0.9197 -1.3354
  704MOL0     H95008   5.071  11.554   2.099  0.1066  0.3819  2.2242
  704MOL0     H95009   5.099  11.694   2.196  1.9122  0.6404  1.9543
  704MOL0     H95010   5.161  11.678   1.932 -2.3946  0.4467  0.3901
  704MOL0     H95011   5.324  11.617   1.990 -0.4513 -0.5084  1.9404
  704MOL0     H95012   5.209  11.869   2.113 -1.1638 -3.1593  2.0009
  704MOL0     H95013   5.372  11.803   2.099  0.6200 -0.9152 -1.4432
  704MOL0     H95014   5.225  11.900   1.846  1.2975  1.9036 -0.1547
  704MOL0     H95015   5.386  11.836   1.849  0.5598  0.0998  0.4884
  704MOL0     H95016   5.290  12.087   1.986 -0.0369 -1.8445  0.3457
  704MOL0     H95017   5.438  12.020   2.029 -0.9002  1.2879  0.9421
  704MOL0     H95018   5.484  12.015   1.756 -0.5333 -0.6045  0.3175
  704MOL0     H95019   5.500  12.170   1.838 -0.8079  0.2279  0.7668
  704MOL0     H95020   5.242  12.206   1.750 -0.1520 -0.3919 -1.0092
  704MOL0     H95021   5.255  12.054   1.687  0.7863 -2.1491  2.2795
  704MOL0     H95022   5.316  11.403   2.450 -2.2904  0.9051 -2.5839
  704MOL0     H95023   5.452  11.230   2.570 -1.4237  0.1920  0.3941
  704MOL0     H95024   6.004  10.976   2.377 -0.5585  0.1324  0.4815
  704MOL0     H95025   6.139  10.815   2.493 -2.1178 -1.4336 -3.1565
  704MOL0     H95026   7.002   9.403   2.898 -0.6899  0.5405  2.6450
  704MOL0     H95027   7.184   9.225   2.888 -2.3222  0.2412  0.9069
  704MOL0     H95028   7.712   9.189   2.771  3.2097 -2.2316 -0.7825
  704MOL0     H95029   7.881   9.022   2.784 -0.3224 -3.2200 -1.4613
  704MOL0     H95030   7.814   8.728   2.790  0.7678 -1.0344 -0.7878
  704MOL0     H95031   7.961   8.819   2.766 -3.2994  1.0953 -0.8633
  704MOL0     H95032   7.929   8.576   2.937 -1.1706 -1.3105 -1.9713
  704MOL0     H95033   8.078   8.665   2.914 -0.6503 -1.3347  1.8911
  704MOL0     H95034   8.101   8.489   2.744 -1.7480 -0.5881  1.5035
  704MOL0     H95035   8.013   8.607   2.655 -0.2328  3.0481  1.6175
  704MOL0     H95036   7.919   8.391   2.615 -0.2863 -0.4020 -0.4473
  704MOL0     H95037   7.802   8.492   2.710  0.1770  1.0216 -0.5784
  704MOL0     H95038   7.896   8.151   2.958  1.7618  1.6908  1.6084
  704MOL0     H95039   7.682   8.864   3.120 -2.8534  3.0756  2.9268
  704MOL0     H95040   7.520   9.030   3.116  1.6541 -1.1538  1.9503
  705MOL0     O95041   0.665   1.129   9.828 -0.6437  0.0494 -0.1953
  705MOL0     C95042   0.775   1.180   9.839 -0.2287  0.2531 -0.3549
  705MOL0     O95043   0.819   1.252   9.951 -0.2351 -0.3449 -0.4357
  705MOL0     C95044   0.729   1.285  10.051  0.4218  1.4172  0.5652
  705MOL0     C95045   0.594   1.311  10.016 -0.3255  0.0763 -0.3559
  705MOL0     C95046   0.501   1.328  10.115  0.0816 -0.0011 -0.8028
  705MOL0     C95047   0.540   1.325  10.252  0.9713 -0.1497 -0.6843
  705MOL0     O95048   0.447   1.343  10.357 -0.2363  0.6104  0.0686
  705MOL0     C95049   0.326   1.257  10.350  0.6462  0.5255  0.0496
  705MOL0     C95050   0.240   1.284  10.466  0.4922 -0.4191 -0.0135
  705MOL0     C95051   0.109   1.205  10.465  0.8324 -0.0419  0.4866
  705MOL0     C95052   0.139   1.054  10.490  0.5173  0.5214 -0.7744
  705MOL0     C95053   0.006   0.980  10.533 -0.2826  0.1662 -0.3920
  705MOL0     C95054   0.012   0.837  10.476 -0.2056 -0.5662 -0.8261
  705MOL0     C95055  -0.085   0.737  10.553  0.4794  0.2979  0.5573
  705MOL0     C95056  -0.235   0.771  10.541  0.0550 -0.6025  0.6308
  705MOL0     N95057  -0.301   0.663  10.616 -0.6184 -0.6639 -0.2644
  705MOL0     C95058  -0.326   0.660  10.751 -0.4605  0.3466  0.3615
  705MOL0     C95059  -0.385   0.540  10.770  0.6858  0.5235  0.4893
  705MOL0     C95060  -0.432   0.490  10.903 -0.0243  0.2519 -0.8164
  705MOL0     C95061  -0.584   0.482  10.908 -1.1168  1.1803  0.2855
  705MOL0     C95062  -0.626   0.480  11.059  0.3463  0.2718  0.0465
  705MOL0     C95063  -0.774   0.439  11.084 -0.8118 -0.6104 -0.1771
  705MOL0     O95064  -0.801   0.413  11.226 -0.1170 -1.1373 -0.3832
  705MOL0     C95065  -0.925   0.365  11.257 -0.6531  0.2498 -1.6847
  705MOL0     C95066  -0.916   0.266  11.359  0.3768 -0.0349  0.0490
  705MOL0     C95067  -1.031   0.211  11.412 -0.1538  1.0493 -0.3006
  705MOL0     C95068  -0.999   0.117  11.520 -0.3931 -0.1931  0.1619
  705MOL0     C95069  -1.161   0.246  11.359 -0.0154 -0.4389 -0.4460
  705MOL0     C95070  -1.294   0.220  11.423  0.2632 -0.8959 -0.4806
  705MOL0     O95071  -1.282   0.134  11.533 -0.1003 -0.5125 -0.3790
  705MOL0     C95072  -1.381   0.123  11.632 -0.1792 -0.2954  0.0009
  705MOL0     C95073  -1.334   0.059  11.751  0.5020 -0.2478 -0.3078
  705MOL0     C95074  -1.422   0.039  11.863  0.8516  0.5680  0.4649
  705MOL0     C95075  -1.559   0.087  11.851  1.2137  0.1062 -1.0454
  705MOL0     O95076  -1.645   0.090  11.959 -0.4389 -0.2269  0.9894
  705MOL0     C95077  -1.595   0.039  12.085 -0.6500  0.6686 -0.3111
  705MOL0     C95078  -1.586  -0.118  12.074  0.6166  0.9226  0.5755
  705MOL0     C95079  -1.519  -0.185  12.194  0.3592 -0.2242 -0.1788
  705MOL0     C95080  -1.545  -0.338  12.198  1.0758  0.3138 -0.1599
  705MOL0     C95081  -1.469  -0.388  12.321 -0.2083 -0.0191  0.5008
  705MOL0     C95082  -1.510  -0.544  12.360 -0.4487 -1.1076  0.3193
  705MOL0     C95083  -1.400  -0.595  12.455 -0.2082 -0.0424  0.3547
  705MOL0     C95084  -1.432  -0.713  12.537 -0.0682  0.8506  0.1572
  705MOL0    Cl95085  -1.554  -0.675  12.659  0.4242  0.0732 -0.2825
  705MOL0     C95086  -1.610   0.136  11.728 -0.5959 -0.1441  0.6441
  705MOL0     C95087  -1.522   0.151  11.624 -0.6736 -0.5794  1.1092
  705MOL0     O95088  -1.400   0.282  11.388 -0.3627  0.2739  0.0670
  705MOL0     C95089  -1.165   0.330  11.239  0.1543  0.3167 -1.1050
  705MOL0     C95090  -1.047   0.383  11.189  1.3360 -0.5726 -0.1511
  705MOL0     N95091  -0.396   0.475  10.646  0.0859 -0.0734 -0.2989
  705MOL0     N95092  -0.359   0.557  10.554  0.6224  0.4159 -0.7263
  705MOL0     C95093   0.679   1.316  10.284  0.5403 -0.1568  0.6357
  705MOL0     C95094   0.766   1.290  10.182 -0.2102  0.7619  1.0226
  705MOL0     C95095   0.867   1.175   9.722 -0.2534 -0.2440  0.8650
  705MOL0     C95096   0.828   1.158   9.584  0.2148 -0.2827 -0.3318
  705MOL0     C95097   0.921   1.171   9.478 -0.8986  0.3863  1.1380
  705MOL0     C95098   1.059   1.189   9.504  0.2838 -0.1503 -0.1714
  705MOL0     O95099   1.147   1.178   9.398 -0.1188 -0.2230 -0.4696
  705MOL0     C95100   1.234   1.067   9.412  0.0753  0.8011  0.3862
  705MOL0     C95101   1.328   1.053   9.300 -0.3516  0.0954 -0.0459
  705MOL0     C95102   1.418   1.177   9.283  0.3681  0.5322 -0.7487
  705MOL0     C95103   1.528   1.155   9.180  0.5266 -0.0341  0.3732
  705MOL0     C95104   1.471   1.154   9.045 -0.1898 -0.5447 -0.2112
  705MOL0     C95105   1.423   1.166   8.932 -0.3616  0.1925 -0.3029
  705MOL0     C95106   1.097   1.200   9.639 -0.3806  0.6368  0.9294
  705MOL0     C95107   1.004   1.191   9.750 -0.3906 -0.6143  0.0851
  705MOL0     H95108   0.551   1.312   9.917  2.7332 -2.5681 -1.9154
  705MOL0     H95109   0.398   1.350  10.093 -0.1094 -0.0094  0.0212
  705MOL0     H95110   0.271   1.285  10.259  2.9479 -2.0285 -2.3109
  705MOL0     H95111   0.345   1.150  10.341 -0.1524  0.0403  3.1815
  705MOL0     H95112   0.283   1.255  10.562 -1.4005 -2.0052  0.4274
  705MOL0     H95113   0.222   1.392  10.473  3.1788  0.0043  2.6788
  705MOL0     H95114   0.057   1.255  10.548  1.5763  1.9264 -0.1840
  705MOL0     H95115   0.048   1.211  10.375 -0.2635  1.7715  1.2922
  705MOL0     H95116   0.170   1.018  10.392  2.5859  0.0952 -0.0199
  705MOL0     H95117   0.219   1.052  10.565  2.8601  0.8762 -3.1231
  705MOL0     H95118  -0.011   0.973  10.640 -1.3110  0.4262 -0.5347
  705MOL0     H95119  -0.079   1.043  10.505 -2.7550 -1.5002  2.7681
  705MOL0     H95120  -0.001   0.839  10.368 -0.9882 -0.2203 -0.7368
  705MOL0     H95121   0.114   0.808  10.501  1.4405  2.6603 -3.1639
  705MOL0     H95122  -0.064   0.636  10.516 -0.6544 -0.1338  1.0397
  705MOL0     H95123  -0.057   0.752  10.658 -2.1243  2.7523  1.0239
  705MOL0     H95124  -0.267   0.781  10.437 -0.5770  1.8698  0.9989
  705MOL0     H95125  -0.254   0.864  10.595  1.4796  0.1327 -0.0914
  705MOL0     H95126  -0.302   0.729  10.831 -0.6599  0.1204  0.6178
  705MOL0     H95127  -0.403   0.385  10.901 -0.7622  0.0005  0.6727
  705MOL0     H95128  -0.386   0.538  10.990  1.0245 -1.0089 -0.6451
  705MOL0     H95129  -0.618   0.384  10.874 -2.8506  1.6149  0.6446
  705MOL0     H95130  -0.641   0.555  10.849 -1.7569 -1.0511 -2.0352
  705MOL0     H95131  -0.609   0.580  11.099  1.7378  0.2047 -0.3347
  705MOL0     H95132  -0.549   0.411  11.093  0.4784  1.5014  2.4600
  705MOL0     H95133  -0.774   0.344  11.031  0.6924 -1.2465  0.8711
  705MOL0     H95134  -0.844   0.515  11.048 -0.0933  0.4700  0.6115
  705MOL0     H95135  -0.815   0.252  11.395 -0.3962  1.5178  3.2619
  705MOL0     H95136  -1.075   0.039  11.534 -1.8071  0.9911 -0.5790
  705MOL0     H95137  -0.909   0.069  11.482 -0.1742  1.6966 -1.9125
  705MOL0     H95138  -0.984   0.171  11.614 -0.0107  2.6054 -1.4059
  705MOL0     H95139  -1.229   0.031  11.753  0.9235  1.2495 -0.3272
  705MOL0     H95140  -1.368  -0.003  11.948  2.0962  0.3858 -0.3804
  705MOL0     H95141  -1.507   0.094  12.119 -0.2738  0.8695 -1.5663
  705MOL0     H95142  -1.674   0.051  12.160 -1.7010 -0.3760 -1.2128
  705MOL0     H95143  -1.691  -0.150  12.076  0.6884  0.6572  0.1153
  705MOL0     H95144  -1.531  -0.148  11.985  1.4738  0.6968  1.1691
  705MOL0     H95145  -1.553  -0.146  12.291  1.2987  0.3544 -0.0758
  705MOL0     H95146  -1.411  -0.167  12.189  0.1732  2.4169  2.5602
  705MOL0     H95147  -1.650  -0.349  12.226  1.4411 -0.3372  0.9782
  705MOL0     H95148  -1.508  -0.386  12.107 -0.2357 -2.8729  0.8570
  705MOL0     H95149  -1.486  -0.328  12.410  1.2294 -0.0748  0.8445
  705MOL0     H95150  -1.360  -0.384  12.306  0.1300 -3.6929  1.0907
  705MOL0     H95151  -1.604  -0.548  12.415 -1.0175  1.4417 -0.3246
  705MOL0     H95152  -1.516  -0.591  12.261 -0.9098 -0.7525  0.1762
  705MOL0     H95153  -1.373  -0.508  12.516  2.3247  0.9927 -2.0638
  705MOL0     H95154  -1.312  -0.621  12.396 -0.0187 -0.0528  0.6395
  705MOL0     H95155  -1.346  -0.771  12.571  0.1460  0.5592 -0.8404
  705MOL0     H95156  -1.482  -0.772  12.460 -1.5030  1.0672  0.8803
  705MOL0     H95157  -1.713   0.169  11.720 -1.3746 -2.7475 -1.4710
  705MOL0     H95158  -1.575   0.192  11.538 -0.7773 -0.4452  1.2362
  705MOL0     H95159  -1.257   0.360  11.189  0.6463  2.5295 -0.7668
  705MOL0     H95160  -1.049   0.458  11.110 -1.0590 -3.0871 -2.6984
  705MOL0     H95161   0.714   1.329  10.386  0.0222 -1.3444  0.9882
  705MOL0     H95162   0.872   1.275  10.202  0.1677  1.3559 -0.4162
  705MOL0     H95163   0.726   1.126   9.568  0.0522  0.2556 -0.3874
  705MOL0     H95164   0.876   1.171   9.379 -1.6600 -1.0076  1.4543
  705MOL0     H95165   1.292   1.076   9.504  2.9015  3.1088 -1.4479
  705MOL0     H95166   1.170   0.978   9.420  2.8431 -1.4266 -0.5359
  705MOL0     H95167   1.273   1.029   9.208  1.0547 -2.0919 -0.3949
  705MOL0     H95168   1.382   0.963   9.330  1.4022  0.7732 -1.0380
  705MOL0     H95169   1.460   1.210   9.378  0.0792 -0.3994 -0.2867
  705MOL0     H95170   1.356   1.262   9.252 -2.9142 -1.1978  0.5923
  705MOL0     H95171   1.577   1.058   9.198  1.8397  0.2325 -1.4222
  705MOL0     H95172   1.605   1.232   9.186  1.2181 -0.5348 -1.3282
  705MOL0     H95173   1.372   1.170   8.837  0.6240 -1.5371 -0.9397
  705MOL0     H95174   1.205   1.201   9.649  0.4007  1.8367 -4.5550
  705MOL0     H95175   1.033   1.200   9.854 -0.9252 -4.0477  0.6395
  706MOL0     O95176   1.712   7.382   4.984  0.0742  0.4003 -1.2129
  706MOL0     C95177   1.781   7.480   5.006 -0.6842 -1.0099 -0.0358
  706MOL0     O95178   1.738   7.599   5.050  0.4968  0.5956  0.2773
  706MOL0     C95179   1.605   7.607   5.079  0.0872 -0.4665 -0.2235
  706MOL0     C95180   1.505   7.610   4.982 -0.3192  0.0466  0.5208
  706MOL0     C95181   1.369   7.599   5.010 -0.2625 -0.6186  0.4684
  706MOL0     C95182   1.329   7.612   5.146 -0.3534 -0.6353 -0.8077
  706MOL0     O95183   1.197   7.604   5.188  0.3903  0.2533 -0.2135
  706MOL0     C95184   1.095   7.580   5.090 -0.6147  0.3056  0.2229
  706MOL0     C95185   0.957   7.590   5.150  0.4551  0.2591 -0.2348
  706MOL0     C95186   0.956   7.718   5.242 -0.6125  0.1188  1.8232
  706MOL0     C95187   0.818   7.732   5.307  0.1320 -0.6648 -0.2525
  706MOL0     C95188   0.833   7.833   5.424 -0.5635  0.1667 -0.0920
  706MOL0     C95189   0.690   7.870   5.484  0.0510 -0.4555 -0.5295
  706MOL0     C95190   0.714   7.911   5.625  0.0406  0.4809 -0.2301
  706MOL0     C95191   0.600   8.005   5.669 -1.7966 -0.3405 -0.0623
  706MOL0     N95192   0.613   8.147   5.623  0.2270  0.1697  0.1143
  706MOL0     C95193   0.532   8.239   5.684 -0.4730  0.7711  0.0011
  706MOL0     C95194   0.525   8.349   5.599 -0.4299  0.4319  0.5515
  706MOL0     C95195   0.466   8.489   5.605  0.3142  1.3534 -0.9071
  706MOL0     C95196   0.314   8.493   5.619 -0.2301 -0.0550  0.3896
  706MOL0     C95197   0.253   8.641   5.629 -0.1120  0.5297 -0.0792
  706MOL0     C95198   0.103   8.627   5.672 -0.7723  0.8477 -0.7357
  706MOL0     O95199   0.048   8.754   5.694 -0.4927 -0.4477 -0.3512
  706MOL0     C95200  -0.085   8.769   5.714  0.6318 -0.2072  1.1950
  706MOL0     C95201  -0.166   8.669   5.757 -0.3867  0.0855  0.1850
  706MOL0     C95202  -0.299   8.689   5.787 -1.2440 -0.1383  0.0181
  706MOL0     C95203  -0.371   8.571   5.834  0.4083  0.0751  0.3250
  706MOL0     C95204  -0.361   8.815   5.788 -0.0680  0.0682  0.3502
  706MOL0     C95205  -0.505   8.837   5.826  0.0115 -0.1121  0.1556
  706MOL0     O95206  -0.550   8.950   5.785 -0.0543 -0.1184 -0.0039
  706MOL0     C95207  -0.685   8.985   5.807  0.4203  0.5291 -1.0423
  706MOL0     C95208  -0.705   9.090   5.893 -0.8255 -0.5244 -1.1680
  706MOL0     C95209  -0.833   9.151   5.918  0.0535  0.3417  1.2991
  706MOL0     C95210  -0.946   9.083   5.857  0.4747  0.9371  0.0038
  706MOL0     O95211  -1.068   9.144   5.880  0.0387  0.7822 -0.1881
  706MOL0     C95212  -1.168   9.140   5.775  0.0371  0.3664  1.0115
  706MOL0     C95213  -1.273   9.254   5.785 -0.1523 -0.1477 -0.0446
  706MOL0     C95214  -1.373   9.244   5.902  0.4017 -0.1457 -0.3112
  706MOL0     C95215  -1.499   9.335   5.882 -0.3083 -0.3624 -0.5187
  706MOL0     C95216  -1.616   9.294   5.967  0.1239 -1.2700 -0.3261
  706MOL0     C95217  -1.583   9.311   6.122  0.5038  0.0760 -0.3843
  706MOL0     C95218  -1.699   9.282   6.206  0.6932  0.3910 -0.3947
  706MOL0     C95219  -1.725   9.133   6.220 -0.4148  0.6716 -0.5821
  706MOL0    Cl95220  -1.614   9.059   6.336 -0.0789  0.0995 -0.6080
  706MOL0     C95221  -0.928   8.974   5.765 -0.8662  0.0903  0.2663
  706MOL0     C95222  -0.792   8.926   5.750  0.0300 -0.0433  0.3406
  706MOL0     O95223  -0.581   8.748   5.868 -0.7058  0.2425 -0.0921
  706MOL0     C95224  -0.274   8.919   5.746  0.2900 -0.2957 -0.1765
  706MOL0     C95225  -0.138   8.896   5.698 -0.1826 -0.3568  0.0810
  706MOL0     N95226   0.591   8.313   5.483  0.5250 -0.0922  0.0815
  706MOL0     N95227   0.646   8.198   5.498 -0.1241  0.5237  0.2912
  706MOL0     C95228   1.432   7.622   5.247  0.4414 -0.7824 -0.3285
  706MOL0     C95229   1.567   7.614   5.218 -0.3786  0.2877  0.4849
  706MOL0     C95230   1.922   7.466   4.984 -0.7252 -0.3069 -0.1220
  706MOL0     C95231   1.969   7.356   4.905 -0.0323  0.7423  0.0098
  706MOL0     C95232   2.111   7.340   4.888  0.1917  0.0563 -0.2969
  706MOL0     C95233   2.200   7.441   4.930  0.1536 -0.3362  0.3067
  706MOL0     O95234   2.330   7.419   4.903 -0.3484  1.0912 -0.0473
  706MOL0     C95235   2.428   7.511   4.955  0.2881 -0.6135 -1.2427
  706MOL0     C95236   2.568   7.454   4.946 -0.2826  0.4557 -0.5336
  706MOL0     C95237   2.617   7.432   4.802  0.9419  0.6039  0.8150
  706MOL0     C95238   2.620   7.553   4.704 -0.1572 -0.1580 -0.4883
  706MOL0     C95239   2.712   7.659   4.746 -0.4181 -0.1966 -0.8714
  706MOL0     C95240   2.774   7.761   4.764 -0.6833 -0.4134 -0.1495
  706MOL0     C95241   2.150   7.550   5.010  0.3176 -0.2096  0.3954
  706MOL0     C95242   2.015   7.559   5.033  1.0905 -0.3178 -0.1080
  706MOL0     H95243   1.526   7.609   4.876  0.7185 -0.5138  0.7147
  706MOL0     H95244   1.302   7.600   4.925 -1.1254  0.4557  1.1431
  706MOL0     H95245   1.108   7.656   5.013 -1.1181  1.7698  1.5261
  706MOL0     H95246   1.095   7.478   5.051 -3.0169 -0.8458  2.8494
  706MOL0     H95247   0.879   7.596   5.073 -1.3763  1.6442  1.6087
  706MOL0     H95248   0.938   7.499   5.206 -0.0816  0.0713 -0.7125
  706MOL0     H95249   1.032   7.697   5.318  0.3296 -1.5573  0.4686
  706MOL0     H95250   0.992   7.803   5.184  0.2035 -0.2528  1.7815
  706MOL0     H95251   0.748   7.783   5.240 -3.0505 -1.9425  1.8883
  706MOL0     H95252   0.766   7.643   5.341 -1.9282  0.3487 -0.6330
  706MOL0     H95253   0.897   7.788   5.501 -0.9542  1.6737  1.1806
  706MOL0     H95254   0.881   7.923   5.385  0.9626 -1.3856 -1.9798
  706MOL0     H95255   0.650   7.950   5.422 -2.8729 -0.9711  0.5360
  706MOL0     H95256   0.619   7.787   5.476  2.8483 -2.9861 -0.8899
  706MOL0     H95257   0.718   7.822   5.689 -0.0272 -0.9570 -2.1232
  706MOL0     H95258   0.814   7.955   5.627  1.0402 -0.9122 -5.4400
  706MOL0     H95259   0.586   8.007   5.778 -0.4078 -1.7423  0.1769
  706MOL0     H95260   0.509   7.960   5.629  0.3266 -3.1988 -2.0505
  706MOL0     H95261   0.479   8.224   5.778 -0.6924 -1.0019 -0.3686
  706MOL0     H95262   0.498   8.549   5.690 -3.8468  0.8624  1.2745
  706MOL0     H95263   0.494   8.539   5.512  0.7435 -0.2137 -1.6538
  706MOL0     H95264   0.289   8.437   5.710  1.7130 -2.9588 -0.7147
  706MOL0     H95265   0.273   8.439   5.533 -0.5554  0.6933  0.0691
  706MOL0     H95266   0.262   8.683   5.528  2.4722  0.8132  0.2086
  706MOL0     H95267   0.315   8.686   5.707 -1.4645  0.0223  1.3400
  706MOL0     H95268   0.106   8.583   5.772  0.5092  1.8216 -0.3222
  706MOL0     H95269   0.047   8.566   5.600 -0.3532 -0.6138  0.1364
  706MOL0     H95270  -0.137   8.564   5.762 -1.3711 -0.2962 -1.3189
  706MOL0     H95271  -0.394   8.574   5.941  3.9597  0.6231  1.1944
  706MOL0     H95272  -0.462   8.564   5.774  0.7654 -1.6876 -0.0687
  706MOL0     H95273  -0.316   8.479   5.817  0.3034 -0.4084  2.3597
  706MOL0     H95274  -0.628   9.137   5.953 -3.3537  2.5576 -0.0546
  706MOL0     H95275  -0.839   9.235   5.988 -2.2350 -0.4052  2.1077
  706MOL0     H95276  -1.108   9.147   5.684 -0.3364  2.4365  0.8732
  706MOL0     H95277  -1.220   9.044   5.773 -3.3879  2.1041 -0.5068
  706MOL0     H95278  -1.209   9.342   5.798  0.6697 -0.4565 -1.7768
  706MOL0     H95279  -1.324   9.270   5.690  0.1806 -2.9846 -0.7866
  706MOL0     H95280  -1.327   9.263   6.000 -4.0764 -1.2485  2.2574
  706MOL0     H95281  -1.397   9.137   5.909  2.4357 -0.6773 -0.8036
  706MOL0     H95282  -1.480   9.439   5.911 -2.8101 -0.4271  1.8162
  706MOL0     H95283  -1.518   9.330   5.775  1.6836  1.7344 -1.0524
  706MOL0     H95284  -1.637   9.190   5.939  2.2562 -1.8260 -0.0597
  706MOL0     H95285  -1.703   9.358   5.952  2.8313  2.6244 -0.9669
  706MOL0     H95286  -1.497   9.249   6.149 -0.1423 -1.5324 -1.8695
  706MOL0     H95287  -1.553   9.416   6.138  0.6234 -0.1085  0.6718
  706MOL0     H95288  -1.796   9.308   6.165 -2.0963 -1.0277  4.5002
  706MOL0     H95289  -1.699   9.332   6.304 -1.7844 -3.4634  1.8374
  706MOL0     H95290  -1.703   9.089   6.122  2.0270  1.0148 -0.2392
  706MOL0     H95291  -1.825   9.107   6.258  0.2357  1.9907  2.3039
  706MOL0     H95292  -1.017   8.934   5.717 -0.6318  2.4848 -2.4243
  706MOL0     H95293  -0.783   8.840   5.685 -0.4997 -0.0365  0.2553
  706MOL0     H95294  -0.315   9.019   5.732  2.0674  0.4091 -0.5700
  706MOL0     H95295  -0.073   8.977   5.666 -0.2676 -0.4622 -0.3731
  706MOL0     H95296   1.418   7.627   5.354  2.2422 -0.1816 -0.0880
  706MOL0     H95297   1.652   7.613   5.285 -1.1881  1.3535  1.5641
  706MOL0     H95298   1.896   7.293   4.856 -1.1811  1.6310  0.5447
  706MOL0     H95299   2.150   7.254   4.835  1.4783 -0.3766  1.2948
  706MOL0     H95300   2.409   7.606   4.904 -1.3877  0.2139  0.7914
  706MOL0     H95301   2.408   7.544   5.057  0.5172  4.9068 -2.6215
  706MOL0     H95302   2.567   7.365   5.010 -0.3367  0.1680 -0.9343
  706MOL0     H95303   2.634   7.522   5.001 -0.8570  1.2051 -0.7654
  706MOL0     H95304   2.541   7.362   4.766  1.8458 -0.0061  0.0519
  706MOL0     H95305   2.719   7.392   4.802  1.0668  0.4211 -3.2587
  706MOL0     H95306   2.525   7.603   4.683  0.3614  1.3177  0.5275
  706MOL0     H95307   2.660   7.501   4.616  0.7892  0.3446 -0.3635
  706MOL0     H95308   2.830   7.852   4.778 -3.4071  1.3486 -0.0289
  706MOL0     H95309   2.211   7.629   5.053  1.5281 -0.5987 -0.5384
  706MOL0     H95310   1.984   7.647   5.087  2.3040 -0.7462  1.3413
  707MOL0     O95311   5.950   7.344   2.254  1.5343 -0.1613 -0.1502
  707MOL0     C95312   5.946   7.444   2.330 -0.2244  0.2585  0.0078
  707MOL0     O95313   6.058   7.508   2.383  0.4179 -0.3857  0.1851
  707MOL0     C95314   6.175   7.452   2.357 -0.0793 -0.6683 -0.3205
  707MOL0     C95315   6.286   7.535   2.341 -0.6076  0.3055 -0.0647
  707MOL0     C95316   6.411   7.485   2.329 -0.1915  0.1041  0.3923
  707MOL0     C95317   6.438   7.348   2.337 -0.1498  1.3411 -0.8927
  707MOL0     O95318   6.569   7.309   2.321  0.4008 -0.2850 -0.1471
  707MOL0     C95319   6.596   7.170   2.285 -0.1688  0.8386 -0.0646
  707MOL0     C95320   6.746   7.156   2.269 -0.2453 -0.4228  1.0548
  707MOL0     C95321   6.789   7.030   2.183  0.6770 -0.5197 -0.3356
  707MOL0     C95322   6.941   6.996   2.186  0.1612 -0.0344 -0.4512
  707MOL0     C95323   6.957   6.842   2.176  0.1682  0.3226 -0.2142
  707MOL0     C95324   7.101   6.806   2.146 -1.0283 -0.8622 -0.0934
  707MOL0     C95325   7.137   6.660   2.175  0.0556 -0.3563  0.3483
  707MOL0     C95326   7.198   6.635   2.323 -0.1185 -0.1018  1.4093
  707MOL0     N95327   7.278   6.514   2.320  0.0204  0.1177  0.1390
  707MOL0     C95328   7.391   6.489   2.247  1.2386 -0.0006 -0.2118
  707MOL0     C95329   7.412   6.353   2.260  0.0454 -0.3782  0.5026
  707MOL0     C95330   7.534   6.286   2.208 -0.2228 -0.3617 -0.6917
  707MOL0     C95331   7.505   6.137   2.168  0.0307 -0.3635  0.2453
  707MOL0     C95332   7.620   6.058   2.096  0.2960  0.4236 -0.6530
  707MOL0     C95333   7.650   6.110   1.956  0.0234 -0.0593 -0.8577
  707MOL0     O95334   7.771   6.061   1.898  0.1185 -0.9529  0.3147
  707MOL0     C95335   7.888   6.071   1.961 -0.5617  0.6869  0.1084
  707MOL0     C95336   7.995   5.993   1.926 -0.1766  0.5467 -0.5602
  707MOL0     C95337   8.129   6.007   1.979  0.1840 -0.0251  0.8409
  707MOL0     C95338   8.240   5.913   1.935  0.0295  0.3759  0.0492
  707MOL0     C95339   8.156   6.110   2.065 -0.1276  0.2274 -0.3543
  707MOL0     C95340   8.286   6.129   2.139 -0.0481 -0.1250  0.2574
  707MOL0     O95341   8.318   6.255   2.172  0.2756 -0.6723 -0.1368
  707MOL0     C95342   8.451   6.284   2.199 -0.3993 -0.0157  0.7833
  707MOL0     C95343   8.532   6.325   2.100 -0.1470 -0.4143 -0.2666
  707MOL0     C95344   8.670   6.343   2.132  0.4172 -0.0607  0.6341
  707MOL0     C95345   8.722   6.320   2.262 -0.6464  0.5710 -0.4631
  707MOL0     O95346   8.858   6.329   2.282  0.0574 -0.0392 -0.0734
  707MOL0     C95347   8.944   6.285   2.181 -0.3510 -0.9948 -0.2099
  707MOL0     C95348   9.087   6.246   2.231  0.7164 -0.2140 -0.5524
  707MOL0     C95349   9.185   6.326   2.137 -0.1435 -0.1799 -0.2528
  707MOL0     C95350   9.334   6.299   2.180 -0.9011 -0.3278  0.3417
  707MOL0     C95351   9.437   6.365   2.080 -0.1868  0.1431 -0.1212
  707MOL0     C95352   9.573   6.340   2.133 -0.2549  0.1190 -0.3616
  707MOL0     C95353   9.678   6.387   2.033  0.3120  1.4149 -0.1045
  707MOL0     C95354   9.816   6.416   2.080 -0.1101  0.5413  0.1201
  707MOL0    Cl95355   9.918   6.486   1.943  0.2995  0.1312  0.3849
  707MOL0     C95356   8.640   6.285   2.363  0.0478 -0.2474 -0.2254
  707MOL0     C95357   8.507   6.258   2.327  0.5750 -0.3570 -0.3172
  707MOL0     O95358   8.345   6.030   2.179  0.2818 -0.4559 -0.7137
  707MOL0     C95359   8.053   6.192   2.099  0.2920 -0.4556 -0.6536
  707MOL0     C95360   7.921   6.176   2.040 -0.3339 -0.4143 -0.9957
  707MOL0     N95361   7.300   6.305   2.334  0.5047 -0.1864 -0.2105
  707MOL0     N95362   7.229   6.398   2.377  0.4855  0.1167  0.0571
  707MOL0     C95363   6.335   7.265   2.366 -0.5396  0.0798 -0.0321
  707MOL0     C95364   6.205   7.320   2.382  0.0457 -0.5373 -0.2134
  707MOL0     C95365   5.810   7.490   2.371  0.2490  0.4609  0.1239
  707MOL0     C95366   5.795   7.567   2.485 -0.2306  0.0906  0.2200
  707MOL0     C95367   5.666   7.594   2.536  1.0923 -0.0743  0.4330
  707MOL0     C95368   5.551   7.558   2.458 -0.5310  0.2259  0.1114
  707MOL0     O95369   5.419   7.565   2.497 -0.6669  0.2934  0.1475
  707MOL0     C95370   5.389   7.606   2.634 -0.2739  0.5456  0.5341
  707MOL0     C95371   5.248   7.566   2.676 -0.2941  0.0726 -0.6581
  707MOL0     C95372   5.228   7.583   2.828 -0.7458  0.0537 -0.5095
  707MOL0     C95373   5.088   7.526   2.862  0.5630 -0.1967  0.4605
  707MOL0     C95374   4.980   7.611   2.803 -0.1412  1.1189  0.4351
  707MOL0     C95375   4.896   7.678   2.743  0.8978  0.1454  0.0120
  707MOL0     C95376   5.563   7.490   2.338 -0.1363 -0.0530  0.1740
  707MOL0     C95377   5.693   7.449   2.297 -1.2918 -0.6800  0.9082
  707MOL0     H95378   6.281   7.643   2.335  2.2977  0.4709 -1.2130
  707MOL0     H95379   6.495   7.554   2.326 -1.3838  1.7230  2.3928
  707MOL0     H95380   6.566   7.111   2.373  1.5689 -2.4041 -1.4905
  707MOL0     H95381   6.537   7.141   2.198  0.6170  1.0601 -0.6828
  707MOL0     H95382   6.773   7.249   2.217  1.4275 -1.6775 -0.4424
  707MOL0     H95383   6.799   7.160   2.364 -0.7525  1.5179  1.3099
  707MOL0     H95384   6.727   6.949   2.223 -0.1512  1.7435  3.5819
  707MOL0     H95385   6.765   7.032   2.076 -1.5476 -1.6717  0.0798
  707MOL0     H95386   6.989   7.046   2.102 -1.1218  1.7532 -0.1614
  707MOL0     H95387   6.990   7.032   2.278 -0.7290  0.5187 -0.1809
  707MOL0     H95388   6.915   6.794   2.265 -2.0122  1.8976 -0.3084
  707MOL0     H95389   6.906   6.803   2.087  1.3712  0.5723 -1.0372
  707MOL0     H95390   7.113   6.837   2.042 -2.3498  2.4283  0.6009
  707MOL0     H95391   7.172   6.873   2.197  1.3553 -1.7086 -2.1195
  707MOL0     H95392   7.040   6.611   2.159  0.0505  0.1290 -1.2098
  707MOL0     H95393   7.206   6.635   2.094  1.3801 -0.4705  1.4796
  707MOL0     H95394   7.121   6.629   2.400 -0.1795  3.6965  1.8411
  707MOL0     H95395   7.257   6.722   2.354 -2.5211  1.9005  0.7033
  707MOL0     H95396   7.458   6.544   2.181  1.0289 -0.2136 -0.6067
  707MOL0     H95397   7.575   6.348   2.127  0.6606 -1.9680 -1.5408
  707MOL0     H95398   7.612   6.293   2.285  2.5747 -1.6690 -3.1787
  707MOL0     H95399   7.413   6.134   2.109  1.6898 -0.2036 -2.5196
  707MOL0     H95400   7.479   6.080   2.258 -0.3379  0.4487  0.6619
  707MOL0     H95401   7.609   5.949   2.090  2.3235  0.2461 -2.0199
  707MOL0     H95402   7.711   6.080   2.153 -1.2356 -0.7569  2.5150
  707MOL0     H95403   7.669   6.218   1.953 -1.4103  0.2057 -1.4174
  707MOL0     H95404   7.558   6.089   1.900 -1.0162  0.8459  0.4572
  707MOL0     H95405   7.974   5.922   1.846 -1.0356  0.0177  0.1109
  707MOL0     H95406   8.270   5.942   1.834  0.7317  0.1429  0.1843
  707MOL0     H95407   8.335   5.912   1.990  0.5057  0.8344 -0.7528
  707MOL0     H95408   8.194   5.814   1.925  1.8864 -0.3119 -3.2240
  707MOL0     H95409   8.497   6.349   2.000  0.0917 -0.6489 -0.4103
  707MOL0     H95410   8.737   6.386   2.058  0.6480 -0.0092  0.8712
  707MOL0     H95411   8.906   6.191   2.138 -1.8418 -0.4707 -0.0914
  707MOL0     H95412   8.951   6.351   2.095  0.2182 -0.8163 -0.0285
  707MOL0     H95413   9.106   6.269   2.336 -0.3573  3.3924 -1.0087
  707MOL0     H95414   9.094   6.137   2.220  1.7800 -0.5702  2.7337
  707MOL0     H95415   9.179   6.435   2.141  2.3665  0.0965 -1.7611
  707MOL0     H95416   9.174   6.293   2.033 -3.5884 -1.3440  0.3495
  707MOL0     H95417   9.351   6.341   2.279  3.4129  2.7389 -1.3642
  707MOL0     H95418   9.348   6.191   2.182 -0.5402 -0.2985 -0.2547
  707MOL0     H95419   9.420   6.473   2.074  1.1385  0.4147  0.5428
  707MOL0     H95420   9.427   6.318   1.982  3.0259 -0.2760 -0.3395
  707MOL0     H95421   9.587   6.386   2.231 -1.8565  2.3825 -1.1118
  707MOL0     H95422   9.582   6.231   2.140 -2.6912 -0.0402  1.9604
  707MOL0     H95423   9.658   6.486   1.990 -0.7239 -0.0928 -3.3914
  707MOL0     H95424   9.669   6.321   1.947  1.3655 -2.1312  2.2768
  707MOL0     H95425   9.875   6.332   2.117 -0.1044  1.3243  1.9751
  707MOL0     H95426   9.810   6.486   2.164  2.5314  1.2891 -0.2363
  707MOL0     H95427   8.679   6.256   2.461 -0.9677  3.2105  1.3795
  707MOL0     H95428   8.442   6.223   2.406  0.3212  1.6165  0.3980
  707MOL0     H95429   8.074   6.260   2.181 -0.8489 -0.2757 -0.4850
  707MOL0     H95430   7.853   6.256   2.067  1.2898  1.4291 -2.0961
  707MOL0     H95431   6.337   7.160   2.394 -1.2954  0.1591  0.3217
  707MOL0     H95432   6.126   7.251   2.412 -0.1429 -0.5105 -0.6356
  707MOL0     H95433   5.880   7.582   2.550 -1.2976 -1.0041  1.9481
  707MOL0     H95434   5.652   7.639   2.633 -2.1132 -0.6001  0.3179
  707MOL0     H95435   5.464   7.568   2.704 -0.8139 -2.7064 -0.4442
  707MOL0     H95436   5.390   7.715   2.640  1.4710  0.5061  1.7184
  707MOL0     H95437   5.214   7.467   2.646  0.2326 -0.4803  0.5121
  707MOL0     H95438   5.185   7.638   2.624  0.1497  2.2429  1.6003
  707MOL0     H95439   5.245   7.687   2.856 -0.8803 -0.7081  2.8573
  707MOL0     H95440   5.304   7.518   2.873 -1.6560  0.1150  1.1987
  707MOL0     H95441   5.062   7.520   2.969 -2.1104 -1.3098 -0.1681
  707MOL0     H95442   5.073   7.425   2.822 -1.4972 -1.4045  3.8227
  707MOL0     H95443   4.816   7.728   2.693  0.9197 -1.0043 -1.2186
  707MOL0     H95444   5.471   7.467   2.287  0.3682  0.4393 -0.9850
  707MOL0     H95445   5.715   7.372   2.223 -0.4339  1.1546 -0.8711
  708MOL0     O95446   6.957   0.797   6.807  0.2071 -0.1653  0.0058
  708MOL0     C95447   6.989   0.807   6.923 -0.2674  0.0013  0.1556
  708MOL0     O95448   6.925   0.733   7.021 -0.1492 -0.1280  0.3863
  708MOL0     C95449   6.836   0.623   6.992 -0.1101  0.3775 -0.7824
  708MOL0     C95450   6.812   0.560   6.872 -0.0800 -0.0007 -0.4550
  708MOL0     C95451   6.705   0.471   6.859  0.6512 -0.0982 -0.1841
  708MOL0     C95452   6.614   0.440   6.967 -0.2578  0.5355  0.4348
  708MOL0     O95453   6.513   0.348   6.943 -0.3128  0.9138  0.5897
  708MOL0     C95454   6.535   0.232   7.019 -0.4057 -0.4034 -0.7941
  708MOL0     C95455   6.462   0.104   6.964 -0.9346  0.5834  0.0212
  708MOL0     C95456   6.308   0.101   6.982 -0.1859  0.5157 -0.3614
  708MOL0     C95457   6.268   0.081   7.128 -0.4642  0.8194 -0.3786
  708MOL0     C95458   6.119   0.068   7.149  0.4684  0.6263 -0.3198
  708MOL0     C95459   6.069   0.074   7.293  0.7551  0.3815 -0.6719
  708MOL0     C95460   5.942   0.003   7.314  0.0890 -0.2522  0.5700
  708MOL0     C95461   5.957  -0.137   7.266  0.1467 -0.4596 -0.4063
  708MOL0     N95462   6.078  -0.204   7.319  0.7608  1.0205 -0.5507
  708MOL0     C95463   6.164  -0.280   7.236 -0.0393 -0.6153 -0.4373
  708MOL0     C95464   6.262  -0.328   7.316 -0.5044  0.0846  0.4878
  708MOL0     C95465   6.385  -0.407   7.268 -0.3460  0.1235 -0.2404
  708MOL0     C95466   6.488  -0.311   7.214  0.5694  0.1729  0.0205
  708MOL0     C95467   6.615  -0.385   7.161  0.8291 -0.4343 -0.7074
  708MOL0     C95468   6.693  -0.460   7.269  0.5755 -0.3785  0.1454
  708MOL0     O95469   6.736  -0.364   7.371 -0.3857  0.4364 -0.0977
  708MOL0     C95470   6.816  -0.432   7.460  0.1705 -0.8581 -0.3632
  708MOL0     C95471   6.777  -0.424   7.588 -0.0055  0.0662  0.6952
  708MOL0     C95472   6.861  -0.470   7.689  0.2463 -0.0649  0.1163
  708MOL0     C95473   6.812  -0.441   7.835 -1.0081 -0.7587  0.0411
  708MOL0     C95474   6.982  -0.550   7.657  0.0893 -0.5058 -0.4500
  708MOL0     C95475   7.078  -0.611   7.750 -0.2039  0.1411  0.5109
  708MOL0     O95476   7.188  -0.675   7.696 -0.1880  0.1751  0.0941
  708MOL0     C95477   7.296  -0.688   7.777  0.7708  0.1225 -0.5309
  708MOL0     C95478   7.323  -0.794   7.859 -0.5374  0.0686 -0.3557
  708MOL0     C95479   7.437  -0.804   7.939  0.1724 -0.1487  0.3638
  708MOL0     C95480   7.530  -0.707   7.929 -1.1798 -0.0287 -1.6139
  708MOL0     O95481   7.630  -0.723   8.025 -0.7611  0.5031 -0.6342
  708MOL0     C95482   7.726  -0.609   8.043 -0.3160  0.5238 -0.4157
  708MOL0     C95483   7.842  -0.645   8.135 -0.0087 -0.3338  0.6742
  708MOL0     C95484   7.938  -0.524   8.149 -0.1027  0.2218 -0.0214
  708MOL0     C95485   8.078  -0.587   8.189  0.2555 -1.1760 -0.0949
  708MOL0     C95486   8.072  -0.657   8.322 -0.4218  0.1653 -0.6821
  708MOL0     C95487   8.212  -0.715   8.366  0.6488 -0.0239 -0.5005
  708MOL0     C95488   8.297  -0.619   8.457 -0.9107 -0.2399  0.0296
  708MOL0     C95489   8.436  -0.676   8.503  0.1080  0.1713 -1.0235
  708MOL0    Cl95490   8.544  -0.727   8.373  0.2476  0.3558  0.3944
  708MOL0     C95491   7.510  -0.588   7.844 -0.4342 -0.1063 -0.0212
  708MOL0     C95492   7.391  -0.588   7.772 -0.0116  0.4383  0.5793
  708MOL0     O95493   7.070  -0.578   7.868  0.2848 -0.4285 -0.3325
  708MOL0     C95494   7.007  -0.575   7.523 -0.7217  0.1823  1.0026
  708MOL0     C95495   6.929  -0.509   7.431  0.0311 -0.4527 -0.1534
  708MOL0     N95496   6.227  -0.304   7.447  0.7851 -0.2314  0.3530
  708MOL0     N95497   6.123  -0.222   7.454  0.4353  0.1810 -0.4583
  708MOL0     C95498   6.642   0.501   7.088  0.1528  0.1310 -0.5140
  708MOL0     C95499   6.749   0.588   7.104  0.0438 -0.8807 -0.0206
  708MOL0     C95500   7.125   0.869   6.940  1.3219  0.3919  0.5282
  708MOL0     C95501   7.193   0.922   6.836 -0.0453  0.4979 -0.3498
  708MOL0     C95502   7.328   0.964   6.850  0.1573 -0.1699 -0.6300
  708MOL0     C95503   7.384   0.964   6.980 -0.4566 -0.2841 -0.3305
  708MOL0     O95504   7.511   1.016   6.991  0.5347  0.1555  0.5392
  708MOL0     C95505   7.603   0.945   6.904 -0.5239  0.0116  1.0454
  708MOL0     C95506   7.742   1.002   6.930 -0.1022  0.0011  0.3198
  708MOL0     C95507   7.769   1.143   6.874 -1.0898 -0.8432 -0.7999
  708MOL0     C95508   7.910   1.185   6.906  0.4783  0.2000 -0.5768
  708MOL0     C95509   7.954   1.317   6.869 -0.1539 -0.4294 -0.0091
  708MOL0     C95510   7.996   1.429   6.864 -1.1853 -0.3962  0.9996
  708MOL0     C95511   7.318   0.914   7.091 -0.0271  0.4439  0.2264
  708MOL0     C95512   7.186   0.861   7.063  0.0651  0.8634 -0.8933
  708MOL0     H95513   6.858   0.578   6.775 -1.8707 -0.3898 -1.4244
  708MOL0     H95514   6.679   0.422   6.765 -1.9813  1.4592 -0.3719
  708MOL0     H95515   6.643   0.217   7.021 -0.1604  1.2132  1.0450
  708MOL0     H95516   6.503   0.252   7.121  1.9093 -3.1226  0.5997
  708MOL0     H95517   6.486   0.081   6.860  2.8798 -2.7108  1.3298
  708MOL0     H95518   6.508   0.026   7.025 -0.9829  1.6398  1.4672
  708MOL0     H95519   6.267   0.194   6.941  0.8493  0.8224 -0.7587
  708MOL0     H95520   6.279   0.015   6.922 -1.0953  0.9177 -0.5097
  708MOL0     H95521   6.318  -0.009   7.164 -0.5199  1.3168  1.0230
  708MOL0     H95522   6.308   0.171   7.177  2.4785 -1.6826  2.2282
  708MOL0     H95523   6.066   0.145   7.091  0.0510 -2.6448 -4.8307
  708MOL0     H95524   6.092  -0.027   7.102 -1.3889 -0.3029  2.4348
  708MOL0     H95525   6.144   0.023   7.354  1.7128  1.0640 -1.2486
  708MOL0     H95526   6.060   0.178   7.324  2.2089  0.2670  0.2399
  708MOL0     H95527   5.927   0.007   7.422 -1.1946  0.1999  0.3950
  708MOL0     H95528   5.856   0.057   7.273  0.7436  0.6511  0.3556
  708MOL0     H95529   5.947  -0.137   7.157 -0.0665 -0.4577 -0.3870
  708MOL0     H95530   5.875  -0.197   7.307  0.6317 -1.0603 -0.2965
  708MOL0     H95531   6.154  -0.286   7.128  2.9328 -4.1155 -0.7349
  708MOL0     H95532   6.430  -0.474   7.341  1.3876  1.7142  0.2301
  708MOL0     H95533   6.352  -0.454   7.175 -1.4950 -1.3975  0.8922
  708MOL0     H95534   6.519  -0.225   7.275 -0.3492  1.5934 -1.4328
  708MOL0     H95535   6.436  -0.271   7.126 -1.2269  0.3894  1.1159
  708MOL0     H95536   6.680  -0.315   7.107 -0.1642 -0.4886 -2.0402
  708MOL0     H95537   6.582  -0.462   7.090  0.4420 -0.4741 -0.4866
  708MOL0     H95538   6.778  -0.509   7.220  1.6500  0.7184  0.8566
  708MOL0     H95539   6.632  -0.537   7.318 -0.3317  2.4164  3.8808
  708MOL0     H95540   6.674  -0.397   7.609 -0.1553  0.3029 -0.2751
  708MOL0     H95541   6.724  -0.375   7.835 -0.6121 -0.0961  2.8209
  708MOL0     H95542   6.786  -0.535   7.885 -2.1745 -1.1512 -1.2493
  708MOL0     H95543   6.893  -0.409   7.901  0.1973  1.6009 -2.4208
  708MOL0     H95544   7.251  -0.873   7.874  0.0530 -0.6953 -1.4197
  708MOL0     H95545   7.449  -0.891   8.003 -1.2227 -1.0911 -0.5895
  708MOL0     H95546   7.774  -0.575   7.951 -1.7507  1.6037 -0.8119
  708MOL0     H95547   7.662  -0.525   8.072 -0.7788  0.9619 -2.5210
  708MOL0     H95548   7.802  -0.666   8.234  1.4521  0.6696  1.5048
  708MOL0     H95549   7.895  -0.728   8.088 -1.3767 -1.0764  0.4018
  708MOL0     H95550   7.906  -0.460   8.231  1.1604 -1.7308  2.1250
  708MOL0     H95551   7.949  -0.459   8.062  1.8899  1.0008  0.7420
  708MOL0     H95552   8.123  -0.655   8.116 -1.2545  0.7073 -2.9971
  708MOL0     H95553   8.142  -0.498   8.187  2.3330 -2.5991 -1.5502
  708MOL0     H95554   8.011  -0.748   8.321  1.0990 -0.9984  1.7738
  708MOL0     H95555   8.048  -0.592   8.406 -0.0970 -3.1946  2.2741
  708MOL0     H95556   8.181  -0.795   8.433 -1.1991 -0.3217 -1.6323
  708MOL0     H95557   8.271  -0.752   8.282 -1.6483 -3.1691 -0.8987
  708MOL0     H95558   8.250  -0.603   8.554  0.1108  4.0589  0.0225
  708MOL0     H95559   8.334  -0.528   8.407  2.7875 -3.3551 -3.6062
  708MOL0     H95560   8.421  -0.767   8.561  2.1836 -0.0050 -0.6857
  708MOL0     H95561   8.480  -0.600   8.568 -0.3473 -0.4810  0.0589
  708MOL0     H95562   7.593  -0.519   7.836 -0.7547  0.1561 -1.2347
  708MOL0     H95563   7.371  -0.510   7.699 -1.0530  0.8561  1.2787
  708MOL0     H95564   7.103  -0.610   7.487  0.0445  0.8710  2.3385
  708MOL0     H95565   6.968  -0.503   7.330  2.6166 -1.7308  0.6677
  708MOL0     H95566   6.575   0.483   7.171 -0.7902  2.9473 -0.5608
  708MOL0     H95567   6.762   0.642   7.197 -0.0196 -1.2471  0.2041
  708MOL0     H95568   7.150   0.932   6.737 -0.5819  1.1289 -0.0566
  708MOL0     H95569   7.370   1.009   6.760  0.3281  2.7019  0.7626
  708MOL0     H95570   7.591   0.839   6.928 -4.1436 -0.1679 -0.9024
  708MOL0     H95571   7.584   0.958   6.797  0.6258 -0.7621  0.7247
  708MOL0     H95572   7.816   0.940   6.879  1.0141  1.2151  0.3926
  708MOL0     H95573   7.764   0.999   7.037 -0.0433  2.4893  0.4556
  708MOL0     H95574   7.698   1.213   6.920 -2.3006 -2.2278 -0.4737
  708MOL0     H95575   7.749   1.147   6.767 -0.5066  1.1695 -0.8741
  708MOL0     H95576   7.977   1.114   6.858  0.6429 -0.0685  0.0435
  708MOL0     H95577   7.927   1.176   7.014  1.7579  0.2969 -0.7637
  708MOL0     H95578   8.049   1.521   6.853 -1.7486 -0.2546 -0.9987
  708MOL0     H95579   7.342   0.923   7.196 -1.8038 -0.3865  0.7389
  708MOL0     H95580   7.124   0.837   7.149  0.5411  2.2012 -0.1428
  709MOL0     O95581   8.983   8.028   8.122 -0.1775  0.1982 -0.2278
  709MOL0     C95582   8.957   7.965   8.230  0.4145 -0.3467 -0.3495
  709MOL0     O95583   8.850   7.876   8.251 -0.7212 -1.1145  0.2834
  709MOL0     C95584   8.738   7.882   8.165  0.9352  0.6187 -0.3989
  709MOL0     C95585   8.674   8.005   8.124  0.0420  0.4468  0.3967
  709MOL0     C95586   8.556   8.002   8.049 -0.2104  1.1273  0.3277
  709MOL0     C95587   8.497   7.874   8.019  0.1935  0.5717  0.4858
  709MOL0     O95588   8.372   7.859   7.964 -0.3943  0.2792 -0.9687
  709MOL0     C95589   8.317   7.963   7.886 -0.9328  0.6924 -0.6389
  709MOL0     C95590   8.216   7.906   7.785 -0.2991  0.0025  0.8241
  709MOL0     C95591   8.110   8.009   7.736  0.0447  0.2019  1.0292
  709MOL0     C95592   7.999   7.941   7.656 -0.7820 -0.2490  0.8463
  709MOL0     C95593   8.048   7.929   7.507  0.0228 -0.2110  0.0556
  709MOL0     C95594   8.053   8.058   7.431 -0.3703  0.1559 -0.6201
  709MOL0     C95595   8.032   8.031   7.287 -0.5073 -0.2032  0.0024
  709MOL0     C95596   8.151   7.944   7.225 -0.3853 -0.3398 -0.2448
  709MOL0     N95597   8.271   8.021   7.222 -0.0322  0.2357 -0.8563
  709MOL0     C95598   8.363   8.026   7.327 -0.1632  0.1147 -0.1099
  709MOL0     C95599   8.464   8.092   7.274  0.7893  0.3430  0.5807
  709MOL0     C95600   8.585   8.125   7.357  0.8656  0.2624  0.3356
  709MOL0     C95601   8.712   8.077   7.281 -0.5657 -0.2486  0.3654
  709MOL0     C95602   8.760   7.935   7.316 -0.2570 -0.3210 -0.7322
  709MOL0     C95603   8.843   7.878   7.195  0.0777 -0.5268  0.0575
  709MOL0     O95604   8.824   7.737   7.205  1.2370 -0.1328  0.4712
  709MOL0     C95605   8.870   7.660   7.098 -0.2857 -0.5145  0.0057
  709MOL0     C95606   8.915   7.711   6.971  0.5791 -0.6991 -0.6211
  709MOL0     C95607   8.961   7.629   6.871 -0.5513  1.0481 -1.1494
  709MOL0     C95608   9.004   7.704   6.744  0.1508 -0.3084  0.3637
  709MOL0     C95609   8.967   7.491   6.893 -0.5376  0.2993 -0.0097
  709MOL0     C95610   9.018   7.396   6.798  0.6503  0.8292  0.2292
  709MOL0     O95611   9.028   7.260   6.837 -0.0251  0.1314  0.0578
  709MOL0     C95612   9.051   7.155   6.748 -0.0977 -0.4436 -0.4233
  709MOL0     C95613   9.022   7.155   6.611 -1.0980  1.1368 -0.2744
  709MOL0     C95614   9.037   7.029   6.548 -0.0493 -0.2960 -0.2289
  709MOL0     C95615   9.091   6.910   6.605 -0.5107 -0.0014 -0.1542
  709MOL0     O95616   9.113   6.789   6.537  0.2942 -0.9241  0.1149
  709MOL0     C95617   9.080   6.663   6.607 -0.8577 -0.6639 -0.3387
  709MOL0     C95618   9.083   6.547   6.503 -0.0593  0.4048  0.2757
  709MOL0     C95619   8.955   6.547   6.410 -0.4599 -0.2809  0.6449
  709MOL0     C95620   8.950   6.428   6.315  0.8467 -0.7282  0.1138
  709MOL0     C95621   8.827   6.443   6.216  0.3279 -0.8550  0.2235
  709MOL0     C95622   8.800   6.312   6.150  0.0762  0.4675 -0.2281
  709MOL0     C95623   8.907   6.257   6.052 -1.2817  0.6924  0.8207
  709MOL0     C95624   8.859   6.169   5.934 -0.0789 -0.1836  0.3090
  709MOL0    Cl95625   8.987   6.110   5.823  0.5102 -0.1768  0.1252
  709MOL0     C95626   9.121   6.921   6.741  0.6538 -0.5818  1.6706
  709MOL0     C95627   9.102   7.043   6.815 -0.1715 -1.1930  0.4354
  709MOL0     O95628   9.057   7.440   6.692 -0.0160 -0.5418 -0.5641
  709MOL0     C95629   8.928   7.440   7.019 -0.2974  0.6053 -0.3067
  709MOL0     C95630   8.880   7.522   7.117  0.9173 -0.3508 -0.0108
  709MOL0     N95631   8.423   8.153   7.159  0.4327 -0.7902 -0.1463
  709MOL0     N95632   8.309   8.096   7.119 -0.0111 -0.1324  0.2220
  709MOL0     C95633   8.565   7.751   8.051  0.1680  0.4740 -0.2001
  709MOL0     C95634   8.688   7.754   8.121 -0.8918 -0.8176  0.2511
  709MOL0     C95635   9.067   7.988   8.334  0.7179  0.4254 -0.0346
  709MOL0     C95636   9.163   8.091   8.304  0.4169  0.6748 -1.0850
  709MOL0     C95637   9.275   8.116   8.384 -0.1301 -0.2775 -0.7710
  709MOL0     C95638   9.292   8.033   8.494  0.3702  0.4170 -0.8316
  709MOL0     O95639   9.383   8.028   8.595 -0.8416  0.5757  0.1042
  709MOL0     C95640   9.496   8.120   8.584  0.0640 -0.5621  0.3825
  709MOL0     C95641   9.621   8.093   8.669  0.1413  1.1697  0.2090
  709MOL0     C95642   9.596   8.122   8.816 -0.5380 -0.8804 -0.3643
  709MOL0     C95643   9.667   8.026   8.916  0.4386 -0.3875  1.0064
  709MOL0     C95644   9.649   8.090   9.044 -0.8286 -0.3182  0.5479
  709MOL0     C95645   9.631   8.146   9.155 -0.1618 -0.1672 -0.2285
  709MOL0     C95646   9.208   7.926   8.518 -0.3700 -0.3313 -0.8115
  709MOL0     C95647   9.098   7.902   8.442  0.2508  0.1122  0.9292
  709MOL0     H95648   8.717   8.102   8.148  1.2220 -0.0066  0.1855
  709MOL0     H95649   8.501   8.095   8.040  4.3334  4.3833  2.1962
  709MOL0     H95650   8.274   8.033   7.958  0.4408 -2.2238  3.3953
  709MOL0     H95651   8.398   8.012   7.833 -1.4615  0.3311 -1.8182
  709MOL0     H95652   8.270   7.868   7.698  1.4384  3.3951  0.2757
  709MOL0     H95653   8.159   7.822   7.826  0.7197 -0.3289  1.5771
  709MOL0     H95654   8.063   8.061   7.820  1.5522  1.9868  0.8254
  709MOL0     H95655   8.155   8.086   7.674  0.2705 -1.1038 -0.4754
  709MOL0     H95656   7.965   7.844   7.695 -2.3920  0.6173  1.7237
  709MOL0     H95657   7.919   8.016   7.656  1.3942  2.2693 -1.1847
  709MOL0     H95658   8.137   7.865   7.513  0.9667  1.2599  3.4796
  709MOL0     H95659   7.979   7.855   7.464 -0.6675  0.8711 -0.7443
  709MOL0     H95660   7.964   8.119   7.450  0.0544  0.5685  0.0723
  709MOL0     H95661   8.141   8.116   7.459 -1.4392  0.5965  2.1005
  709MOL0     H95662   7.932   7.987   7.274 -1.0267  1.1753 -0.8782
  709MOL0     H95663   8.029   8.125   7.232 -0.6933  0.4406  1.0958
  709MOL0     H95664   8.115   7.900   7.131 -2.1720 -2.5609  1.3326
  709MOL0     H95665   8.164   7.853   7.285  0.0629  0.0099  0.1924
  709MOL0     H95666   8.352   7.981   7.425 -0.8112  1.2548  0.3630
  709MOL0     H95667   8.592   8.234   7.366  2.5465  0.0358  3.1230
  709MOL0     H95668   8.568   8.068   7.449 -0.6039 -3.8017 -2.1960
  709MOL0     H95669   8.796   8.148   7.285  1.5316 -2.5999  0.6215
  709MOL0     H95670   8.685   8.086   7.175  0.4991  2.2285  0.2402
  709MOL0     H95671   8.670   7.874   7.323  0.0145 -0.8042 -1.3253
  709MOL0     H95672   8.828   7.929   7.402 -0.8326 -0.8635 -0.3059
  709MOL0     H95673   8.951   7.900   7.197 -0.0528  0.1959  1.9091
  709MOL0     H95674   8.802   7.912   7.100  0.0782 -0.6781  0.0032
  709MOL0     H95675   8.929   7.818   6.955  2.6783 -0.7847  0.2527
  709MOL0     H95676   8.955   7.658   6.658 -0.1869  2.3067 -0.9658
  709MOL0     H95677   8.973   7.809   6.739 -0.5357 -0.5100  0.2876
  709MOL0     H95678   9.113   7.697   6.737  0.3022 -0.8270  2.4385
  709MOL0     H95679   8.978   7.236   6.554  0.8868  1.3901 -1.5258
  709MOL0     H95680   9.002   7.021   6.446 -0.7114 -1.8885  0.0971
  709MOL0     H95681   9.158   6.632   6.677 -2.6507 -2.9358  0.7850
  709MOL0     H95682   8.987   6.669   6.665 -0.9659 -0.4955 -0.5278
  709MOL0     H95683   9.176   6.537   6.447 -0.4334  1.0262 -0.4706
  709MOL0     H95684   9.070   6.452   6.557 -2.4538  0.4889 -0.0440
  709MOL0     H95685   8.962   6.637   6.349 -1.1598 -0.0874  0.8368
  709MOL0     H95686   8.867   6.560   6.475  0.1415  0.8364  1.2594
  709MOL0     H95687   9.049   6.418   6.269  1.1804  2.2930 -0.0180
  709MOL0     H95688   8.928   6.347   6.385 -0.7362  0.4464  1.0215
  709MOL0     H95689   8.856   6.508   6.132  0.4525 -1.5082 -0.2457
  709MOL0     H95690   8.738   6.478   6.269  2.1075  1.9188  1.6507
  709MOL0     H95691   8.778   6.236   6.226  0.8639 -0.1955 -0.6486
  709MOL0     H95692   8.710   6.333   6.091 -0.6158  2.8552  1.5238
  709MOL0     H95693   8.978   6.196   6.108 -2.5526 -1.4076  0.2557
  709MOL0     H95694   8.958   6.342   6.006  0.6879 -1.9987 -2.4512
  709MOL0     H95695   8.778   6.219   5.879 -0.4246  0.4065  1.3159
  709MOL0     H95696   8.805   6.082   5.971  0.7932 -1.4329 -1.2483
  709MOL0     H95697   9.146   6.830   6.795 -1.1640 -1.0262  1.8223
  709MOL0     H95698   9.115   7.051   6.922 -1.2003  1.3620  0.4193
  709MOL0     H95699   8.930   7.332   7.028  0.6518  0.5456 -1.1144
  709MOL0     H95700   8.838   7.482   7.209  1.1530  4.4969  2.4901
  709MOL0     H95701   8.516   7.659   8.020  0.0297 -0.2553  2.0402
  709MOL0     H95702   8.742   7.662   8.143  2.0014  0.7731  0.1932
  709MOL0     H95703   9.159   8.148   8.212 -0.8568 -2.7477 -3.3244
  709MOL0     H95704   9.349   8.187   8.348  1.5870 -1.1017  1.0057
  709MOL0     H95705   9.521   8.126   8.478 -3.3929  2.1525 -0.4720
  709MOL0     H95706   9.454   8.214   8.620  1.0183 -1.2234  3.5288
  709MOL0     H95707   9.709   8.152   8.643  1.8317 -1.4103 -0.3220
  709MOL0     H95708   9.646   7.988   8.653  0.9495  1.8317 -3.9308
  709MOL0     H95709   9.490   8.123   8.844 -0.6439 -0.0514 -0.7871
  709MOL0     H95710   9.634   8.222   8.839  0.4917 -1.0946 -1.0871
  709MOL0     H95711   9.776   8.021   8.901  0.3980  2.3098 -0.7357
  709MOL0     H95712   9.635   7.923   8.899  1.0801 -0.2046 -1.7332
  709MOL0     H95713   9.619   8.193   9.250 -0.2466 -0.1587 -0.2432
  709MOL0     H95714   9.231   7.859   8.600  0.8414  0.3632 -0.5526
  709MOL0     H95715   9.033   7.819   8.465 -0.7425  1.1780  2.1454
  710MOL0     O95716  11.138   3.763   4.169  0.5034 -0.0195 -0.1361
  710MOL0     C95717  11.142   3.872   4.124 -0.0093 -0.3240 -0.4561
  710MOL0     O95718  11.052   3.968   4.157 -0.1993 -0.4899 -0.4681
  710MOL0     C95719  10.955   3.940   4.252  0.7631 -0.6692 -0.0466
  710MOL0     C95720  10.820   3.902   4.206 -0.5045 -0.7011  0.1510
  710MOL0     C95721  10.721   3.870   4.306  0.7239 -0.1637 -0.0630
  710MOL0     C95722  10.747   3.884   4.437 -0.1047 -0.0279 -1.5965
  710MOL0     O95723  10.653   3.839   4.528 -0.6209  0.1503 -0.5272
  710MOL0     C95724  10.698   3.842   4.669  0.3917  0.9276  0.0110
  710MOL0     C95725  10.587   3.790   4.762  0.5844  0.3126  0.2529
  710MOL0     C95726  10.629   3.775   4.910  0.0617 -0.4369  0.8033
  710MOL0     C95727  10.604   3.905   4.990 -0.0223 -0.8060 -0.3037
  710MOL0     C95728  10.653   3.896   5.137  0.0629 -0.0462 -1.0468
  710MOL0     C95729  10.616   4.026   5.222 -0.5812 -0.0223  0.2714
  710MOL0     C95730  10.712   4.151   5.183  0.2451  0.3431 -0.2723
  710MOL0     C95731  10.697   4.271   5.270  0.2378 -0.2774  0.1890
  710MOL0     N95732  10.570   4.346   5.246 -0.0680 -1.0580 -0.2811
  710MOL0     C95733  10.444   4.297   5.277 -0.6311  0.0683  0.5826
  710MOL0     C95734  10.363   4.401   5.243  0.4792  0.4831  0.2958
  710MOL0     C95735  10.211   4.403   5.250 -0.5275  0.2749 -0.2100
  710MOL0     C95736  10.161   4.547   5.297 -0.1227  0.1532  0.2841
  710MOL0     C95737  10.162   4.668   5.192 -0.1075  0.1713  0.0496
  710MOL0     C95738  10.141   4.636   5.042 -0.2604  0.5043 -0.0192
  710MOL0     O95739  10.010   4.571   5.033  0.4714  0.3109  0.4398
  710MOL0     C95740   9.960   4.551   4.903  0.8734  0.3431 -0.3815
  710MOL0     C95741  10.031   4.546   4.785 -0.3901  1.0394  0.3272
  710MOL0     C95742   9.983   4.498   4.667 -0.4862 -0.1995 -0.2640
  710MOL0     C95743  10.074   4.500   4.540  0.4612 -0.1665 -0.6744
  710MOL0     C95744   9.857   4.437   4.675 -0.0709  0.0218 -0.1192
  710MOL0     C95745   9.797   4.372   4.558  0.3967 -0.2669 -0.4397
  710MOL0     O95746   9.877   4.304   4.482 -0.4506 -0.6312 -0.6474
  710MOL0     C95747   9.837   4.247   4.364 -0.0516 -0.3315  0.5537
  710MOL0     C95748   9.717   4.185   4.343  0.0176 -0.3755 -1.1205
  710MOL0     C95749   9.690   4.113   4.228 -0.4001 -1.0649  1.0051
  710MOL0     C95750   9.788   4.092   4.129 -1.0113  0.1325 -0.0283
  710MOL0     O95751   9.772   4.023   4.017 -0.2029 -0.2809  0.2251
  710MOL0     C95752   9.655   3.952   3.973  0.2055 -1.0857  0.3113
  710MOL0     C95753   9.549   4.043   3.926 -0.3885 -0.2450 -0.0399
  710MOL0     C95754   9.577   4.086   3.778  0.4456 -0.1086  0.0681
  710MOL0     C95755   9.708   4.161   3.755 -0.5937 -1.1958 -0.4802
  710MOL0     C95756   9.714   4.219   3.621 -0.5970  0.7723  1.3349
  710MOL0     C95757   9.769   4.119   3.511  0.2096  0.0168 -0.7942
  710MOL0     C95758   9.762   4.187   3.375  0.1625 -0.7781 -0.6672
  710MOL0     C95759   9.884   4.148   3.300  0.1423 -0.2150 -0.0341
  710MOL0    Cl95760   9.864   3.981   3.240 -0.0849 -0.1309 -0.5558
  710MOL0     C95761   9.916   4.152   4.148  0.2337 -0.7606  0.4418
  710MOL0     C95762   9.935   4.230   4.259  0.8320 -0.5081  0.6574
  710MOL0     O95763   9.680   4.401   4.539  0.5568 -0.3363 -0.0058
  710MOL0     C95764   9.777   4.449   4.787  0.6320 -0.5304  1.0345
  710MOL0     C95765   9.831   4.503   4.905 -0.8023 -0.1132  0.0885
  710MOL0     N95766  10.439   4.493   5.166  0.1345  1.4417 -0.0036
  710MOL0     N95767  10.565   4.456   5.175 -0.2855 -0.7560 -0.6681
  710MOL0     C95768  10.868   3.934   4.478 -0.2848 -0.0914  0.1834
  710MOL0     C95769  10.970   3.957   4.392  0.6645  0.1072  0.7994
  710MOL0     C95770  11.237   3.912   4.016  1.0441  0.3024 -0.4672
  710MOL0     C95771  11.236   4.041   3.970  0.1641 -0.7462 -0.3863
  710MOL0     C95772  11.311   4.074   3.852 -0.1306 -0.2453  0.1054
  710MOL0     C95773  11.376   3.976   3.779  0.3071  0.1321 -0.1202
  710MOL0     O95774  11.445   4.007   3.667 -0.0041 -0.4827 -0.4271
  710MOL0     C95775  11.524   4.125   3.661 -0.4153 -0.1545  0.0789
  710MOL0     C95776  11.668   4.085   3.707 -0.5356 -0.3614  0.7134
  710MOL0     C95777  11.774   4.184   3.645  0.5385  0.4210 -0.5905
  710MOL0     C95778  11.883   4.213   3.741 -0.4065 -0.3022  0.0991
  710MOL0     C95779  11.990   4.286   3.674 -0.9925  0.9942  0.1617
  710MOL0     C95780  12.090   4.334   3.625  0.9644  0.2942 -0.8958
  710MOL0     C95781  11.373   3.846   3.822  0.4019  0.5819  0.5465
  710MOL0     C95782  11.307   3.814   3.942  0.1697  0.0238  0.5576
  710MOL0     H95783  10.800   3.887   4.100  0.8953  1.3653 -0.4697
  710MOL0     H95784  10.621   3.850   4.270  0.0262 -2.6270  2.8497
  710MOL0     H95785  10.782   3.773   4.674 -0.9074 -0.6534  1.0169
  710MOL0     H95786  10.724   3.939   4.712  1.7223 -0.2601  2.0319
  710MOL0     H95787  10.494   3.847   4.756  2.1072  2.9305 -0.4509
  710MOL0     H95788  10.561   3.691   4.724 -2.8810  1.7027 -1.4340
  710MOL0     H95789  10.568   3.695   4.953 -1.0235 -1.0391 -1.6859
  710MOL0     H95790  10.732   3.745   4.926 -0.2339 -2.0028 -0.0622
  710MOL0     H95791  10.650   3.990   4.939 -3.4008  1.0125 -0.6146
  710MOL0     H95792  10.496   3.922   4.985 -0.1504 -1.2929  0.6119
  710MOL0     H95793  10.615   3.810   5.193  1.3945  0.6910  1.0887
  710MOL0     H95794  10.762   3.883   5.134 -0.0181 -0.6618 -1.6769
  710MOL0     H95795  10.513   4.050   5.194 -0.7162  1.4728  1.8660
  710MOL0     H95796  10.627   3.998   5.327  0.7880 -0.2066  0.1014
  710MOL0     H95797  10.818   4.123   5.182  0.2410  0.3204 -1.0639
  710MOL0     H95798  10.688   4.183   5.081  0.2204 -1.0979 -0.7540
  710MOL0     H95799  10.775   4.344   5.246 -0.4458  0.3178 -0.2567
  710MOL0     H95800  10.713   4.248   5.376  1.6888  1.3327  0.3769
  710MOL0     H95801  10.420   4.212   5.340  4.0590 -0.6796  1.7598
  710MOL0     H95802  10.172   4.380   5.151 -0.6438  1.8639 -0.5639
  710MOL0     H95803  10.189   4.332   5.331 -0.3912  3.2674  2.7040
  710MOL0     H95804  10.201   4.573   5.395 -3.0511  1.4267  1.2661
  710MOL0     H95805  10.057   4.523   5.321  0.4930 -0.0440  3.0887
  710MOL0     H95806  10.263   4.710   5.197  1.4882 -3.2602 -0.5147
  710MOL0     H95807  10.099   4.748   5.233  1.6752  1.8185 -0.2312
  710MOL0     H95808  10.219   4.571   5.002 -1.1197 -1.2753  1.0572
  710MOL0     H95809  10.143   4.727   4.982  0.2608  1.0389  0.7788
  710MOL0     H95810  10.134   4.578   4.791 -0.0627 -0.2265  2.5864
  710MOL0     H95811  10.049   4.581   4.471  0.7250 -0.0986 -0.6891
  710MOL0     H95812  10.177   4.514   4.574  0.2403  2.2753 -0.8046
  710MOL0     H95813  10.082   4.405   4.487  1.8857 -1.0401  0.9932
  710MOL0     H95814   9.636   4.197   4.413  1.2851  1.8843  0.0793
  710MOL0     H95815   9.591   4.071   4.238 -1.0754  0.0947 -0.4481
  710MOL0     H95816   9.674   3.881   3.892  0.0446  2.1080 -2.7883
  710MOL0     H95817   9.625   3.892   4.059  1.5197 -0.0084  1.5743
  710MOL0     H95818   9.450   3.999   3.938 -1.6606  2.7896  1.9008
  710MOL0     H95819   9.553   4.134   3.987  3.5905 -0.8082  0.8384
  710MOL0     H95820   9.495   4.153   3.751  0.8229 -0.0372 -0.9182
  710MOL0     H95821   9.573   4.000   3.711 -2.3647  0.3814 -0.4950
  710MOL0     H95822   9.724   4.244   3.824  1.2267 -1.0359 -1.0488
  710MOL0     H95823   9.791   4.091   3.764  0.4116 -0.0643 -0.6933
  710MOL0     H95824   9.789   4.298   3.627  1.0612 -0.6649  0.4343
  710MOL0     H95825   9.631   4.278   3.582  0.0052 -1.2222 -3.7630
  710MOL0     H95826   9.868   4.081   3.537  0.3416  0.9361  0.0783
  710MOL0     H95827   9.694   4.040   3.514 -0.1760  0.4149  0.6850
  710MOL0     H95828   9.745   4.295   3.377 -1.3650 -1.0027  1.5832
  710MOL0     H95829   9.677   4.152   3.316 -1.0959  2.6501 -1.1398
  710MOL0     H95830   9.972   4.164   3.363 -0.9557  0.9890  1.2558
  710MOL0     H95831   9.897   4.221   3.219  0.0016 -1.8585 -1.6065
  710MOL0     H95832   9.998   4.136   4.079  0.3785 -2.3977  0.9342
  710MOL0     H95833  10.036   4.265   4.278 -0.1030  4.5398 -2.0161
  710MOL0     H95834   9.675   4.412   4.792  1.1346 -2.0668  0.5027
  710MOL0     H95835   9.763   4.494   4.989 -2.1227 -0.6914 -0.9977
  710MOL0     H95836  10.893   3.959   4.581 -1.0769  1.7660 -0.0371
  710MOL0     H95837  11.070   3.989   4.420  0.9634 -0.9940  1.0024
  710MOL0     H95838  11.190   4.128   4.015  2.2280  0.2666 -0.0926
  710MOL0     H95839  11.318   4.177   3.820  0.9827 -0.0581  0.8691
  710MOL0     H95840  11.513   4.140   3.554 -1.3168  3.0890  0.5003
  710MOL0     H95841  11.474   4.205   3.717 -0.1605 -0.7994  1.2739
  710MOL0     H95842  11.697   3.987   3.668  1.8938  1.3212 -2.1423
  710MOL0     H95843  11.663   4.078   3.816 -2.2538 -3.0296  0.5864
  710MOL0     H95844  11.724   4.277   3.616 -1.6402 -1.2159 -2.4354
  710MOL0     H95845  11.807   4.137   3.553  1.2986  0.1335 -0.1856
  710MOL0     H95846  11.918   4.117   3.779  0.9952  0.1017 -0.1071
  710MOL0     H95847  11.842   4.280   3.818  0.7414  1.5453 -0.8122
  710MOL0     H95848  12.173   4.371   3.569  1.0300 -1.6431 -2.1471
  710MOL0     H95849  11.421   3.772   3.758  2.7541  0.6265  2.1336
  710MOL0     H95850  11.308   3.707   3.961 -0.8367 -0.6034 -2.2739
  711MOL0     O95851   2.448   1.417   2.036  1.1505  0.1712  0.5540
  711MOL0     C95852   2.443   1.529   1.990  0.6665 -0.2801 -0.8184
  711MOL0     O95853   2.552   1.601   1.962 -0.1798 -0.1222  0.0135
  711MOL0     C95854   2.677   1.546   1.984  0.0905  0.4519 -0.5208
  711MOL0     C95855   2.736   1.440   1.913 -0.3696 -0.0123  0.2022
  711MOL0     C95856   2.870   1.417   1.924 -0.0145  0.7422  0.1105
  711MOL0     C95857   2.951   1.488   2.017 -0.2945  0.8102 -0.5402
  711MOL0     O95858   3.084   1.480   2.034  0.0914 -0.3170  0.3208
  711MOL0     C95859   3.157   1.398   1.939  0.0033 -0.0762 -0.6669
  711MOL0     C95860   3.302   1.385   1.982  0.6719 -0.1920  0.0170
  711MOL0     C95861   3.399   1.328   1.879  0.5224 -0.4020 -0.0900
  711MOL0     C95862   3.527   1.403   1.869  0.9052 -0.8599 -1.0536
  711MOL0     C95863   3.631   1.339   1.767 -0.0338 -0.1530  0.0861
  711MOL0     C95864   3.677   1.200   1.801 -1.7679  0.4636 -0.0545
  711MOL0     C95865   3.785   1.137   1.708 -0.4490  0.7996  0.0930
  711MOL0     C95866   3.839   1.011   1.786 -0.5319 -0.2022 -0.1123
  711MOL0     N95867   3.907   0.921   1.697 -0.2541  0.7117 -0.0020
  711MOL0     C95868   3.854   0.807   1.631 -0.2636 -0.4845  0.1585
  711MOL0     C95869   3.965   0.758   1.565  0.5568 -0.0738 -0.4589
  711MOL0     C95870   3.970   0.634   1.479  0.1469 -0.2556 -0.2410
  711MOL0     C95871   3.842   0.621   1.398  0.1839 -0.0148  0.5106
  711MOL0     C95872   3.842   0.485   1.329  0.3958  1.2317  0.0042
  711MOL0     C95873   3.708   0.432   1.303 -0.3446  0.3401  0.3829
  711MOL0     O95874   3.723   0.289   1.293  0.9748  0.2599  0.1447
  711MOL0     C95875   3.677   0.205   1.394  1.0009 -0.1152  0.7900
  711MOL0     C95876   3.628   0.083   1.345 -0.2925 -0.4188  0.0106
  711MOL0     C95877   3.564  -0.001   1.428  1.6105  0.6731 -0.1616
  711MOL0     C95878   3.516  -0.120   1.348  0.4401  0.9380  0.7910
  711MOL0     C95879   3.543   0.031   1.567 -0.9953 -0.2263  0.7149
  711MOL0     C95880   3.494  -0.058   1.665  0.1574 -1.3008  0.3926
  711MOL0     O95881   3.489  -0.194   1.641 -0.0979 -1.0091 -0.4249
  711MOL0     C95882   3.404  -0.254   1.724 -0.5816  0.5366  0.3839
  711MOL0     C95883   3.461  -0.305   1.841 -0.1883  0.2707  0.5360
  711MOL0     C95884   3.380  -0.370   1.943  0.5438 -0.1264  1.1816
  711MOL0     C95885   3.247  -0.396   1.907 -0.7115  0.7230 -0.9024
  711MOL0     O95886   3.154  -0.447   1.995 -0.2177  0.0969 -0.6435
  711MOL0     C95887   3.199  -0.563   2.067 -0.7929  0.8166 -0.9032
  711MOL0     C95888   3.073  -0.647   2.109  0.0156  0.4173  0.1388
  711MOL0     C95889   3.010  -0.718   1.992  0.2139  0.1237 -0.2898
  711MOL0     C95890   3.084  -0.842   1.950 -0.1128 -0.0314 -0.2967
  711MOL0     C95891   3.037  -0.915   1.820 -0.4671 -0.4372 -0.4901
  711MOL0     C95892   2.903  -0.979   1.844  0.5589 -0.0017  0.4971
  711MOL0     C95893   2.870  -1.108   1.756 -0.7871  0.3033 -0.3276
  711MOL0     C95894   2.788  -1.215   1.831  0.1532  0.6900 -0.5935
  711MOL0    Cl95895   2.791  -1.363   1.725  0.2424  0.2331  0.6088
  711MOL0     C95896   3.197  -0.343   1.790 -0.4442 -0.0482 -0.1624
  711MOL0     C95897   3.267  -0.263   1.707 -0.2328  0.7126 -0.5016
  711MOL0     O95898   3.459  -0.006   1.778  0.1443  0.0098  0.4791
  711MOL0     C95899   3.590   0.152   1.617  0.4123  1.1230 -0.9791
  711MOL0     C95900   3.655   0.238   1.532  0.1735 -0.6540  0.4407
  711MOL0     N95901   4.078   0.834   1.590 -0.3374  0.5714  0.1816
  711MOL0     N95902   4.034   0.925   1.671 -0.0892 -0.2447 -0.4854
  711MOL0     C95903   2.889   1.584   2.102  0.4732  0.9962  0.6099
  711MOL0     C95904   2.758   1.620   2.076 -0.1176 -0.7303  0.3758
  711MOL0     C95905   2.314   1.604   2.009 -0.3823  0.2686 -0.2806
  711MOL0     C95906   2.190   1.536   2.017  0.2331  0.4121  0.8034
  711MOL0     C95907   2.072   1.606   2.047  0.7916 -0.1767  0.0363
  711MOL0     C95908   2.069   1.751   2.050 -0.5213  0.5526  0.3743
  711MOL0     O95909   1.947   1.803   2.047 -0.2287 -0.1898 -0.6633
  711MOL0     C95910   1.939   1.944   2.095 -0.4595 -0.5078 -0.0297
  711MOL0     C95911   1.786   1.975   2.102 -0.4201 -0.4013 -0.4444
  711MOL0     C95912   1.700   1.887   2.183 -0.6559  0.8506  0.3137
  711MOL0     C95913   1.572   1.953   2.239 -0.4098  0.6770  0.2826
  711MOL0     C95914   1.595   2.055   2.344 -0.5580 -0.1182  1.1478
  711MOL0     C95915   1.606   2.152   2.414  1.3277 -0.3971 -0.7889
  711MOL0     C95916   2.190   1.820   2.022 -0.4066 -0.5970 -0.5009
  711MOL0     C95917   2.307   1.749   2.016 -0.6573  0.2192  0.1659
  711MOL0     H95918   2.684   1.385   1.835  1.9769  1.4007 -2.5781
  711MOL0     H95919   2.901   1.332   1.864 -0.4029 -1.8355  3.3317
  711MOL0     H95920   3.114   1.297   1.937 -0.5883  0.1827 -2.5769
  711MOL0     H95921   3.131   1.428   1.838  2.7073  2.3114 -0.7724
  711MOL0     H95922   3.336   1.486   2.008 -0.6877  1.0255 -2.6172
  711MOL0     H95923   3.305   1.320   2.070 -1.7017 -0.1031  0.2103
  711MOL0     H95924   3.432   1.227   1.906 -0.3132  0.0777  3.1398
  711MOL0     H95925   3.351   1.325   1.781  1.2409  1.2227 -0.5256
  711MOL0     H95926   3.513   1.504   1.829  1.4060 -0.3210  0.0860
  711MOL0     H95927   3.559   1.413   1.973 -1.5931 -1.1711 -0.1879
  711MOL0     H95928   3.588   1.341   1.667 -1.9535  1.6275  0.8823
  711MOL0     H95929   3.714   1.410   1.773 -1.8268  1.9670  4.0295
  711MOL0     H95930   3.713   1.197   1.904  1.4528 -1.2666 -1.0936
  711MOL0     H95931   3.591   1.132   1.800 -0.2369 -1.5774 -2.0565
  711MOL0     H95932   3.743   1.118   1.609  0.4776 -1.0574 -0.0004
  711MOL0     H95933   3.875   1.199   1.703  2.3965 -2.6914  2.5199
  711MOL0     H95934   3.754   0.951   1.820  0.3426 -3.0095 -2.3765
  711MOL0     H95935   3.903   1.046   1.867 -1.6429  2.5820 -0.3388
  711MOL0     H95936   3.756   0.761   1.645 -1.6163  2.2192  0.1111
  711MOL0     H95937   4.063   0.642   1.422  1.2005  2.1954  1.6144
  711MOL0     H95938   3.970   0.546   1.545 -4.2688  0.3237  0.8267
  711MOL0     H95939   3.835   0.705   1.328  0.1660  1.2676  1.9954
  711MOL0     H95940   3.749   0.629   1.455 -1.3757  1.1395 -1.9779
  711MOL0     H95941   3.885   0.413   1.399 -0.8749 -0.7035 -1.0965
  711MOL0     H95942   3.905   0.495   1.241 -1.0863 -4.1911 -2.1036
  711MOL0     H95943   3.682   0.473   1.205 -3.1453  2.5154  1.9064
  711MOL0     H95944   3.633   0.465   1.375 -1.5093  0.0398 -0.6779
  711MOL0     H95945   3.648   0.065   1.240 -0.6037 -0.6542 -0.0083
  711MOL0     H95946   3.423  -0.104   1.293  0.9282 -0.5618 -0.5335
  711MOL0     H95947   3.587  -0.138   1.268 -0.1906  2.1255 -0.0724
  711MOL0     H95948   3.512  -0.214   1.404 -0.1044 -0.2249 -1.1069
  711MOL0     H95949   3.569  -0.301   1.853 -0.0087  1.2409 -1.1046
  711MOL0     H95950   3.423  -0.406   2.036  1.3696 -3.1806 -0.2475
  711MOL0     H95951   3.268  -0.620   2.004  0.1267  0.4284  0.4157
  711MOL0     H95952   3.262  -0.531   2.150  2.0368  0.2882 -2.7229
  711MOL0     H95953   3.109  -0.720   2.182  2.2085  0.8796 -0.4160
  711MOL0     H95954   3.002  -0.571   2.145  1.4675  1.5536  0.7317
  711MOL0     H95955   2.996  -0.649   1.909  2.2635 -1.0189 -1.6641
  711MOL0     H95956   2.907  -0.747   2.016 -0.4416  0.6895 -2.2853
  711MOL0     H95957   3.187  -0.817   1.925 -0.2702 -1.0920 -2.2832
  711MOL0     H95958   3.080  -0.914   2.032  0.5600 -0.8124 -0.9327
  711MOL0     H95959   3.108  -0.987   1.777  0.2058  0.8271 -1.5577
  711MOL0     H95960   3.033  -0.835   1.746  2.0526  0.8278  0.6264
  711MOL0     H95961   2.907  -1.006   1.951  0.2666 -1.0114  0.2708
  711MOL0     H95962   2.823  -0.906   1.835  1.8764  1.3669 -0.5881
  711MOL0     H95963   2.968  -1.151   1.735 -0.6982  0.4588 -0.2359
  711MOL0     H95964   2.819  -1.089   1.662 -0.8217 -1.0238 -0.5997
  711MOL0     H95965   2.690  -1.169   1.842 -1.3284 -2.1976 -0.8438
  711MOL0     H95966   2.813  -1.237   1.935  0.1456 -1.8028 -1.0519
  711MOL0     H95967   3.095  -0.375   1.768 -0.5688 -1.0418  1.6400
  711MOL0     H95968   3.221  -0.211   1.624  1.3067  1.4369 -0.9353
  711MOL0     H95969   3.588   0.183   1.721 -0.4667  1.1710 -1.0037
  711MOL0     H95970   3.673   0.337   1.571 -4.2031  0.0256  1.2256
  711MOL0     H95971   2.942   1.635   2.181  3.3019  0.3159 -0.6862
  711MOL0     H95972   2.720   1.704   2.133  1.4548  0.3999 -0.1494
  711MOL0     H95973   2.197   1.433   1.985 -1.9204  1.3210 -3.3096
  711MOL0     H95974   1.979   1.550   2.049 -0.0599  1.2034  0.4475
  711MOL0     H95975   1.984   1.953   2.194 -0.8674  0.1163  0.1078
  711MOL0     H95976   1.994   2.017   2.035  0.4936 -1.3043 -0.1511
  711MOL0     H95977   1.747   1.964   2.000 -1.8929 -1.4858  0.1961
  711MOL0     H95978   1.768   2.078   2.133 -0.6904 -0.3373 -0.8108
  711MOL0     H95979   1.753   1.855   2.273 -3.1212  0.5058  1.7453
  711MOL0     H95980   1.675   1.799   2.122 -1.0743  0.5374  0.9301
  711MOL0     H95981   1.518   1.875   2.294 -0.6667  0.0403 -0.8482
  711MOL0     H95982   1.500   1.989   2.165  0.7955 -1.6859 -2.2204
  711MOL0     H95983   1.598   2.243   2.471 -0.9214 -0.7341 -0.4812
  711MOL0     H95984   2.200   1.927   2.011  0.3400 -0.6561 -0.4242
  711MOL0     H95985   2.404   1.793   1.996 -1.1314  1.5021  0.5162
  712MOL0     O95986   0.303  10.453   1.967  0.4659  0.1602  0.0064
  712MOL0     C95987   0.326  10.510   2.075 -0.4167 -0.6919 -0.7201
  712MOL0     O95988   0.233  10.568   2.161 -0.5179  0.1712  0.1320
  712MOL0     C95989   0.115  10.503   2.188 -0.1360 -0.9559  0.5670
  712MOL0     C95990   0.022  10.568   2.262  0.5886  0.4874 -0.8780
  712MOL0     C95991  -0.104  10.501   2.297  0.0704 -0.0105  0.6582
  712MOL0     C95992  -0.131  10.372   2.263  0.0618  0.3236 -0.0756
  712MOL0     O95993  -0.238  10.292   2.294 -0.2195 -0.4513 -0.0585
  712MOL0     C95994  -0.337  10.342   2.385  0.5758  0.6858  0.2915
  712MOL0     C95995  -0.420  10.228   2.430  0.5252  0.0443  0.5453
  712MOL0     C95996  -0.516  10.258   2.549  0.8600  0.1065 -0.7539
  712MOL0     C95997  -0.577  10.140   2.627 -0.6404  0.9544  0.0567
  712MOL0     C95998  -0.620  10.186   2.770 -0.5283  0.4084 -0.4934
  712MOL0     C95999  -0.769  10.197   2.755 -0.7940 -0.7554 -0.9053
  712MOL0     C96000  -0.848  10.206   2.883  0.5019 -0.1058 -0.3172
  712MOL0     C96001  -0.859  10.073   2.965  0.2335 -0.5222  0.2011
  712MOL0     N96002  -0.912  10.093   3.106  0.4258  0.5169 -0.4796
  712MOL0     C96003  -1.008  10.018   3.176 -1.0833  0.1275 -0.2558
  712MOL0     C96004  -0.989  10.062   3.311 -0.0621  0.0071  0.6421
  712MOL0     C96005  -1.069  10.020   3.421 -0.5837  0.5441 -0.3718
  712MOL0     C96006  -1.208  10.085   3.430 -0.4828 -0.2028  0.1671
  712MOL0     C96007  -1.269  10.039   3.561 -0.3944  0.2593 -0.6297
  712MOL0     C96008  -1.400  10.111   3.578  0.0890  0.2426 -0.4528
  712MOL0     O96009  -1.418  10.118   3.723  0.5068 -0.3769 -0.4674
  712MOL0     C96010  -1.485  10.224   3.774  0.0811  0.0557 -0.1109
  712MOL0     C96011  -1.461  10.235   3.913 -0.3113  0.3642  0.0924
  712MOL0     C96012  -1.494  10.338   3.995  0.6430 -1.1471  0.1204
  712MOL0     C96013  -1.469  10.326   4.139  0.9116  0.0935 -0.0924
  712MOL0     C96014  -1.571  10.446   3.930  0.3868 -0.6634 -0.0846
  712MOL0     C96015  -1.627  10.564   4.007  0.5256 -0.7449 -0.4539
  712MOL0     O96016  -1.684  10.664   3.926 -0.3329  0.5247  1.1080
  712MOL0     C96017  -1.723  10.783   3.978 -0.1427  0.9864 -0.0255
  712MOL0     C96018  -1.624  10.866   4.026  0.2037 -0.0586 -0.1078
  712MOL0     C96019  -1.654  10.991   4.074 -0.6112 -0.9272  0.1891
  712MOL0     C96020  -1.789  11.029   4.081  0.3437  0.5777 -1.1881
  712MOL0     O96021  -1.815  11.152   4.147 -0.1453 -0.0490 -0.2165
  712MOL0     C96022  -1.922  11.237   4.106 -0.1903 -0.1015  0.5355
  712MOL0     C96023  -1.891  11.375   4.131 -0.1732  0.4704 -0.0602
  712MOL0     C96024  -2.020  11.452   4.100 -0.4753 -0.5367  0.6592
  712MOL0     C96025  -2.078  11.442   3.955 -0.6898  0.5891 -0.3189
  712MOL0     C96026  -2.203  11.536   3.947  0.8569  0.2200 -0.2521
  712MOL0     C96027  -2.344  11.496   4.008  0.0572  0.4270  1.4876
  712MOL0     C96028  -2.456  11.601   3.981  0.2105 -0.3123 -0.0311
  712MOL0     C96029  -2.586  11.557   4.054  0.1447  0.1011  0.0194
  712MOL0    Cl96030  -2.653  11.414   3.976 -0.2983 -0.2754  0.1331
  712MOL0     C96031  -1.888  10.946   4.029 -0.8913 -0.6639 -0.6671
  712MOL0     C96032  -1.860  10.816   3.986 -0.9615 -0.7221  0.0013
  712MOL0     O96033  -1.613  10.576   4.127 -0.0155  0.7474 -0.7620
  712MOL0     C96034  -1.598  10.441   3.790  0.0592  0.4223  0.1272
  712MOL0     C96035  -1.561  10.322   3.710 -0.4608  0.3075  0.3821
  712MOL0     N96036  -0.898  10.163   3.317  0.6166  0.2308  0.1837
  712MOL0     N96037  -0.847  10.171   3.197  0.1293 -0.2165 -0.0407
  712MOL0     C96038  -0.032  10.309   2.173  0.3906  0.3716  0.4569
  712MOL0     C96039   0.086  10.371   2.143  0.5718 -0.7926  0.4272
  712MOL0     C96040   0.466  10.545   2.111  1.5059  0.1549 -0.2855
  712MOL0     C96041   0.498  10.652   2.196  0.7204  0.2250  0.9166
  712MOL0     C96042   0.625  10.694   2.222  0.7556 -0.0244 -0.3968
  712MOL0     C96043   0.736  10.629   2.169 -0.2643  0.3157 -0.0428
  712MOL0     O96044   0.869  10.657   2.189 -0.5703  0.1500  0.1650
  712MOL0     C96045   0.913  10.723   2.306  0.8087 -0.1262  0.0652
  712MOL0     C96046   0.857  10.671   2.446 -0.4314  0.1821  1.4277
  712MOL0     C96047   0.917  10.538   2.487 -1.0277  0.3196 -0.4698
  712MOL0     C96048   1.074  10.528   2.495  0.1032  0.0857  0.9043
  712MOL0     C96049   1.126  10.644   2.573 -0.3831  0.7686 -0.6035
  712MOL0     C96050   1.180  10.724   2.647  0.4561  0.2102 -0.3157
  712MOL0     C96051   0.709  10.525   2.077  0.3133  0.3031 -0.1333
  712MOL0     C96052   0.579  10.486   2.054  0.2229  0.2739 -0.8114
  712MOL0     H96053   0.060  10.666   2.288 -1.8057  1.9640 -2.5082
  712MOL0     H96054  -0.185  10.549   2.351 -1.3040 -0.4970 -0.8785
  712MOL0     H96055  -0.285  10.381   2.473  1.1881 -1.6278  1.0124
  712MOL0     H96056  -0.392  10.427   2.343  4.3917  2.4142 -1.7121
  712MOL0     H96057  -0.480  10.203   2.342  0.7805  2.9090 -0.5578
  712MOL0     H96058  -0.347  10.153   2.461  0.6695 -1.1737 -2.4179
  712MOL0     H96059  -0.440  10.307   2.611  0.4796  1.4393 -1.3211
  712MOL0     H96060  -0.597  10.325   2.520  3.2051  4.2519  1.2878
  712MOL0     H96061  -0.645  10.085   2.560  1.4418  1.1160 -2.3527
  712MOL0     H96062  -0.492  10.071   2.638 -0.4761  0.4335 -3.3762
  712MOL0     H96063  -0.610  10.102   2.839  3.0657  2.0784  1.2739
  712MOL0     H96064  -0.561  10.267   2.815  2.3864 -3.7699  4.2524
  712MOL0     H96065  -0.779  10.289   2.695  4.1548  1.2284  0.7491
  712MOL0     H96066  -0.810  10.112   2.701  0.3201 -0.2641 -2.6293
  712MOL0     H96067  -0.797  10.281   2.943 -1.1091 -0.9477  2.2600
  712MOL0     H96068  -0.950  10.242   2.869 -0.1631 -0.5033  2.7232
  712MOL0     H96069  -0.766  10.020   2.986 -1.9012 -4.7984 -0.0147
  712MOL0     H96070  -0.936  10.010   2.920  2.5038 -3.6020  0.3922
  712MOL0     H96071  -1.072   9.939   3.140 -0.7015  1.0269 -3.1225
  712MOL0     H96072  -1.083   9.912   3.410 -0.3844  0.1943  2.3647
  712MOL0     H96073  -1.008  10.037   3.509  0.8113 -0.4129 -1.1099
  712MOL0     H96074  -1.287  10.072   3.355 -2.9613  1.7294  2.2265
  712MOL0     H96075  -1.182  10.191   3.439  2.4608 -0.8039 -0.4818
  712MOL0     H96076  -1.202  10.078   3.638 -0.2572  2.0737 -1.6106
  712MOL0     H96077  -1.283   9.930   3.564 -3.6484  0.5973  2.3848
  712MOL0     H96078  -1.493  10.073   3.534 -1.6575  1.6422  1.7464
  712MOL0     H96079  -1.399  10.214   3.542 -0.6704  0.3840 -0.0909
  712MOL0     H96080  -1.399  10.159   3.959  0.2320 -0.7239 -2.2685
  712MOL0     H96081  -1.556  10.317   4.205  0.8212  0.4204 -0.1666
  712MOL0     H96082  -1.405  10.240   4.162 -1.5986 -2.0900 -0.8359
  712MOL0     H96083  -1.415  10.417   4.168  1.5390 -1.5343  4.7798
  712MOL0     H96084  -1.519  10.840   4.017  0.3902  0.9252 -0.9683
  712MOL0     H96085  -1.573  11.056   4.107 -1.7672  0.9642 -0.4940
  712MOL0     H96086  -1.951  11.226   4.001 -1.2237  1.0282  0.6699
  712MOL0     H96087  -2.007  11.206   4.168  0.5379  0.4330  1.8345
  712MOL0     H96088  -1.858  11.396   4.233 -0.4186  2.2922 -0.3137
  712MOL0     H96089  -1.805  11.409   4.072  1.1216 -1.1483  0.8029
  712MOL0     H96090  -2.007  11.559   4.119  0.1230 -0.9379  2.7195
  712MOL0     H96091  -2.091  11.410   4.172 -0.1690 -0.8851  0.7653
  712MOL0     H96092  -1.991  11.466   3.893 -1.4608  2.6898 -0.6648
  712MOL0     H96093  -2.113  11.342   3.927 -0.5073  0.1347  1.0164
  712MOL0     H96094  -2.231  11.563   3.845  2.4169 -0.7018 -0.9599
  712MOL0     H96095  -2.180  11.632   3.995  1.2683 -0.2587  0.5235
  712MOL0     H96096  -2.371  11.403   3.957 -0.8006  2.2164 -1.5718
  712MOL0     H96097  -2.342  11.470   4.114 -2.4111 -4.2857  0.6624
  712MOL0     H96098  -2.480  11.622   3.877 -0.6643 -1.2155 -0.0345
  712MOL0     H96099  -2.421  11.697   4.020  1.2908 -1.3206  1.5795
  712MOL0     H96100  -2.659  11.639   4.042 -1.8958 -1.6160  0.0416
  712MOL0     H96101  -2.579  11.537   4.161 -0.8197 -2.6978 -0.3534
  712MOL0     H96102  -1.983  10.996   4.044 -1.0302  0.0342 -3.3753
  712MOL0     H96103  -1.935  10.745   3.951 -1.5003 -1.7192  2.9365
  712MOL0     H96104  -1.671  10.508   3.747 -1.5901 -1.7716 -0.6525
  712MOL0     H96105  -1.590  10.324   3.605  0.1053  2.1292  0.2409
  712MOL0     H96106  -0.047  10.209   2.135  2.6474 -0.4038  1.4372
  712MOL0     H96107   0.164  10.316   2.092 -0.8822 -2.4191 -0.1532
  712MOL0     H96108   0.413  10.705   2.237  0.2160 -0.7675  1.1844
  712MOL0     H96109   0.644  10.776   2.290 -0.4631 -0.5959  0.6670
  712MOL0     H96110   1.023  10.723   2.301  0.7688 -1.4241 -2.7470
  712MOL0     H96111   0.871  10.823   2.300  2.5040  0.5836 -0.8069
  712MOL0     H96112   0.750  10.650   2.444 -0.2429 -0.8424 -0.1193
  712MOL0     H96113   0.885  10.749   2.517  1.5291  0.6768  0.1878
  712MOL0     H96114   0.878  10.452   2.433 -0.0156 -0.0809 -0.5767
  712MOL0     H96115   0.896  10.510   2.591  2.7075 -3.0655 -0.3861
  712MOL0     H96116   1.118  10.535   2.395 -1.0909  1.9467  0.4508
  712MOL0     H96117   1.116  10.439   2.542  1.2506 -1.2087 -2.3014
  712MOL0     H96118   1.245  10.779   2.712  3.8238 -0.7168 -2.6416
  712MOL0     H96119   0.796  10.473   2.037 -0.7588 -3.1100  1.5803
  712MOL0     H96120   0.567  10.396   1.993  1.8205 -0.4167 -0.1699
  713MOL0     O96121   1.025   1.672   1.281 -0.0272  0.5749 -0.2790
  713MOL0     C96122   1.032   1.719   1.394 -0.0727 -0.4405 -0.3300
  713MOL0     O96123   1.120   1.686   1.492 -0.0806  0.1390  0.8774
  713MOL0     C96124   1.209   1.584   1.479  0.2124 -0.1059 -0.3854
  713MOL0     C96125   1.318   1.585   1.563 -0.3573 -0.2905 -0.2342
  713MOL0     C96126   1.426   1.500   1.551 -0.0934  0.2797 -0.4678
  713MOL0     C96127   1.425   1.405   1.453  0.1260  0.4532 -0.7802
  713MOL0     O96128   1.531   1.316   1.420 -0.1697  0.1382 -0.2101
  713MOL0     C96129   1.630   1.292   1.521 -0.3205 -0.3925 -0.3449
  713MOL0     C96130   1.724   1.209   1.448  0.0200 -0.1510 -0.6308
  713MOL0     C96131   1.772   1.259   1.314 -0.1260 -0.0338 -1.0153
  713MOL0     C96132   1.881   1.168   1.250  0.8217  0.4726  0.4644
  713MOL0     C96133   1.894   1.229   1.108 -0.3264 -0.2123  0.6558
  713MOL0     C96134   1.986   1.133   1.043 -0.4322  0.4191 -0.4583
  713MOL0     C96135   2.015   1.169   0.894 -0.1112  0.1994 -0.6078
  713MOL0     C96136   2.081   1.047   0.825 -0.0671  0.2142 -0.5864
  713MOL0     N96137   2.103   1.079   0.688  0.0426  1.1217 -0.5054
  713MOL0     C96138   2.052   1.019   0.575 -0.2697  0.1384  0.0630
  713MOL0     C96139   2.077   1.102   0.475 -0.1285 -0.6488  0.4517
  713MOL0     C96140   2.020   1.102   0.331 -0.4832 -0.1101 -0.1138
  713MOL0     C96141   2.069   1.229   0.248  0.5398 -0.0352 -0.5066
  713MOL0     C96142   2.221   1.219   0.221  0.0023 -0.4827  1.2713
  713MOL0     C96143   2.247   1.140   0.094 -0.5676 -0.0547  0.3669
  713MOL0     O96144   2.371   1.060   0.105 -0.5012 -0.1242  0.2715
  713MOL0     C96145   2.401   0.965   0.010  0.1704  0.5031 -0.2018
  713MOL0     C96146   2.323   0.952  -0.109 -0.3127  0.0399 -0.4861
  713MOL0     C96147   2.349   0.845  -0.205  0.3046 -0.4730  0.2487
  713MOL0     C96148   2.269   0.838  -0.335 -0.6841 -0.1601 -0.2416
  713MOL0     C96149   2.449   0.750  -0.168 -1.0058 -0.6562 -0.1598
  713MOL0     C96150   2.487   0.635  -0.250 -0.1275 -0.0966 -0.0447
  713MOL0     O96151   2.543   0.528  -0.176 -0.5430  0.3569 -0.2287
  713MOL0     C96152   2.583   0.424  -0.248  0.5367 -0.3242  0.8402
  713MOL0     C96153   2.711   0.426  -0.300  0.5542 -0.2411  0.0185
  713MOL0     C96154   2.774   0.318  -0.360  0.4651  0.0788  0.9726
  713MOL0     C96155   2.693   0.217  -0.405  0.4184  0.4649 -0.7843
  713MOL0     O96156   2.738   0.112  -0.483  0.1724 -0.1491  0.0678
  713MOL0     C96157   2.853   0.132  -0.568 -0.0753  0.2872 -0.2480
  713MOL0     C96158   2.883   0.004  -0.652 -0.1386 -0.3671 -0.0100
  713MOL0     C96159   2.944  -0.112  -0.570  0.5634  0.1873 -0.8429
  713MOL0     C96160   2.935  -0.239  -0.651 -0.0879 -0.0270 -0.9115
  713MOL0     C96161   3.045  -0.329  -0.602 -0.1961  0.9813 -0.6608
  713MOL0     C96162   3.036  -0.464  -0.675  0.1193 -0.5280  0.2340
  713MOL0     C96163   3.153  -0.544  -0.621 -0.3061  0.0315  0.3646
  713MOL0     C96164   3.153  -0.690  -0.679 -0.1973 -0.3202 -0.2153
  713MOL0    Cl96165   3.316  -0.748  -0.612  0.4966  0.0315  0.0110
  713MOL0     C96166   2.560   0.222  -0.363 -0.2071  0.2097  0.1425
  713MOL0     C96167   2.507   0.323  -0.284 -0.1532  0.1327 -0.5122
  713MOL0     O96168   2.497   0.645  -0.377 -0.0348 -0.4579  0.4205
  713MOL0     C96169   2.522   0.775  -0.053  0.2490  0.3962  0.2166
  713MOL0     C96170   2.505   0.879   0.030  0.0524 -0.7476  0.5956
  713MOL0     N96171   2.149   1.208   0.527 -0.8003  0.1714 -0.1062
  713MOL0     N96172   2.171   1.190   0.651  0.7815 -0.1189 -0.0057
  713MOL0     C96173   1.308   1.386   1.380 -0.2580  0.0115  1.1347
  713MOL0     C96174   1.198   1.473   1.392  0.3531 -0.3543  0.5115
  713MOL0     C96175   0.921   1.825   1.419 -0.4169 -0.3160 -0.4656
  713MOL0     C96176   0.804   1.821   1.354 -0.5480  0.5677 -0.0035
  713MOL0     C96177   0.703   1.906   1.375 -0.3476 -0.0012  1.0198
  713MOL0     C96178   0.721   2.008   1.473  0.0148 -0.8336 -1.3511
  713MOL0     O96179   0.609   2.090   1.500  0.5330 -0.5607  0.1556
  713MOL0     C96180   0.585   2.136   1.638  0.0581  0.9210  0.2450
  713MOL0     C96181   0.439   2.158   1.661  0.3232 -0.4525 -0.1607
  713MOL0     C96182   0.346   2.046   1.626 -0.2465 -0.1536  0.1537
  713MOL0     C96183   0.370   1.922   1.707 -0.4586 -0.2481  1.0927
  713MOL0     C96184   0.313   1.811   1.640  0.1176  1.1178 -0.4795
  713MOL0     C96185   0.282   1.697   1.596 -1.1348  0.6723  0.0101
  713MOL0     C96186   0.843   2.023   1.540  0.2430 -0.0362  0.6227
  713MOL0     C96187   0.948   1.935   1.512 -0.8673  0.6806 -0.6426
  713MOL0     H96188   1.318   1.664   1.636 -1.7032  0.7630 -1.3138
  713MOL0     H96189   1.514   1.527   1.609 -0.8564 -1.7808  1.7858
  713MOL0     H96190   1.685   1.378   1.558  2.4216 -1.0610 -2.5152
  713MOL0     H96191   1.590   1.232   1.603  0.4675  0.8980  1.0147
  713MOL0     H96192   1.810   1.198   1.514 -1.2536  1.4838  1.4430
  713MOL0     H96193   1.671   1.115   1.429 -1.8342  0.5503  0.7193
  713MOL0     H96194   1.688   1.250   1.246  1.2193  0.7377 -2.8576
  713MOL0     H96195   1.805   1.363   1.314  0.2704 -0.1267  0.7410
  713MOL0     H96196   1.969   1.171   1.314  0.2035  2.7433  1.3015
  713MOL0     H96197   1.849   1.064   1.250  1.6788  0.1910 -0.4410
  713MOL0     H96198   1.794   1.244   1.066 -1.2378 -2.4787  1.8356
  713MOL0     H96199   1.939   1.328   1.117  0.4475 -0.5859  0.9596
  713MOL0     H96200   2.083   1.124   1.093 -1.3856 -1.1587  1.2082
  713MOL0     H96201   1.945   1.031   1.040 -1.6735  0.9131 -1.4472
  713MOL0     H96202   1.924   1.201   0.842  1.1948  0.9056 -2.5714
  713MOL0     H96203   2.083   1.254   0.898  0.9062 -0.3339 -3.6635
  713MOL0     H96204   2.017   0.959   0.837 -0.6517  0.6197 -0.6348
  713MOL0     H96205   2.170   1.022   0.882 -0.1848 -1.5154 -1.0980
  713MOL0     H96206   1.996   0.929   0.553  0.6157  0.2138 -2.8011
  713MOL0     H96207   2.047   1.008   0.281 -0.8934 -0.0956 -0.3661
  713MOL0     H96208   1.912   1.111   0.346 -0.5411  1.4494 -1.2186
  713MOL0     H96209   2.044   1.313   0.312 -0.8916 -1.0139  0.2862
  713MOL0     H96210   2.024   1.232   0.149  0.7236  0.4356 -0.5759
  713MOL0     H96211   2.278   1.168   0.300  2.9403  1.7189  0.7602
  713MOL0     H96212   2.265   1.318   0.202 -2.6432  0.8353  1.5879
  713MOL0     H96213   2.252   1.211   0.011 -2.8817 -0.5514 -0.2634
  713MOL0     H96214   2.164   1.073   0.071  0.7911 -2.9555  3.1850
  713MOL0     H96215   2.254   1.031  -0.137 -0.7710 -0.4533 -0.7490
  713MOL0     H96216   2.335   0.874  -0.415 -2.2874 -2.5744 -2.8417
  713MOL0     H96217   2.225   0.743  -0.366  1.3477 -0.5442 -2.1469
  713MOL0     H96218   2.185   0.908  -0.335  2.0509  3.4125 -0.5754
  713MOL0     H96219   2.762   0.520  -0.281 -1.2315  1.1807 -1.6887
  713MOL0     H96220   2.880   0.330  -0.377  0.6116 -0.2021  1.6525
  713MOL0     H96221   2.818   0.209  -0.638 -2.2458 -0.5680 -0.1737
  713MOL0     H96222   2.940   0.150  -0.504 -0.8573 -2.6199  1.8046
  713MOL0     H96223   2.790  -0.033  -0.696  0.8179 -1.5604 -1.1201
  713MOL0     H96224   2.956   0.028  -0.729  0.2705 -0.0226  0.4770
  713MOL0     H96225   2.875  -0.136  -0.489 -1.6586 -0.5762 -2.8351
  713MOL0     H96226   3.048  -0.099  -0.537  1.2278 -1.9518 -1.9139
  713MOL0     H96227   2.838  -0.289  -0.640  0.2969 -0.7845 -0.8661
  713MOL0     H96228   2.958  -0.220  -0.756  0.4670 -3.8094 -1.6113
  713MOL0     H96229   3.041  -0.333  -0.493 -0.5661  0.5195 -0.6860
  713MOL0     H96230   3.141  -0.294  -0.642 -0.7682  0.0165 -3.0689
  713MOL0     H96231   2.939  -0.510  -0.654 -0.2908 -0.2693 -0.9870
  713MOL0     H96232   3.046  -0.443  -0.782 -2.7749  0.2669  0.0196
  713MOL0     H96233   3.156  -0.548  -0.511  2.1729 -0.2924  0.3367
  713MOL0     H96234   3.243  -0.498  -0.661 -0.7391  0.7099  0.1390
  713MOL0     H96235   3.167  -0.676  -0.786 -0.8538  2.0624 -0.0507
  713MOL0     H96236   3.072  -0.758  -0.651  2.2376 -3.2272  0.3617
  713MOL0     H96237   2.495   0.141  -0.394 -0.3376  1.2980 -2.6957
  713MOL0     H96238   2.409   0.302  -0.242 -0.1811  0.3731 -0.4582
  713MOL0     H96239   2.607   0.708  -0.044 -0.7124 -0.9631 -0.5612
  713MOL0     H96240   2.569   0.893   0.116 -1.2039  2.9967  1.0690
  713MOL0     H96241   1.319   1.304   1.311  1.7069 -0.1132  1.5297
  713MOL0     H96242   1.122   1.450   1.319  0.5099 -0.9341  0.5268
  713MOL0     H96243   0.781   1.748   1.276 -0.9848  1.6144 -0.8728
  713MOL0     H96244   0.604   1.908   1.332 -0.4341  1.4362  1.2360
  713MOL0     H96245   0.620   2.062   1.710  1.6295 -0.2604 -1.6320
  713MOL0     H96246   0.640   2.228   1.661 -0.3911  0.8639  1.5920
  713MOL0     H96247   0.399   2.241   1.601 -0.8887 -0.8810  0.0351
  713MOL0     H96248   0.422   2.180   1.767  2.4456 -1.3623  0.4339
  713MOL0     H96249   0.364   2.026   1.520 -1.7975 -0.0850 -0.1359
  713MOL0     H96250   0.239   2.065   1.632 -0.2497  0.7342 -1.9753
  713MOL0     H96251   0.334   1.946   1.807 -0.5485 -1.2561  1.3095
  713MOL0     H96252   0.475   1.895   1.723 -0.1716  1.2652  2.0165
  713MOL0     H96253   0.259   1.598   1.564 -2.7022  0.2922  2.0543
  713MOL0     H96254   0.865   2.104   1.609  1.7734 -0.5265  0.7502
  713MOL0     H96255   1.042   1.928   1.566 -1.7888 -0.2087  0.9399
  714MOL0     O96256   2.130  10.091   0.076  0.4186 -0.4323 -0.0443
  714MOL0     C96257   2.194  10.047   0.172  0.3899  0.3256  0.3247
  714MOL0     O96258   2.151  10.041   0.306  0.4179 -0.4222  0.1313
  714MOL0     C96259   2.035  10.100   0.356  0.5445 -0.7910 -0.0688
  714MOL0     C96260   1.973  10.224   0.308  0.2696 -0.5169  0.8377
  714MOL0     C96261   1.850  10.271   0.362 -0.1673  0.1146  0.3557
  714MOL0     C96262   1.789  10.207   0.469  0.2672 -0.6774 -0.1541
  714MOL0     O96263   1.668  10.244   0.522  0.5889  0.9283 -0.6336
  714MOL0     C96264   1.652  10.382   0.542  0.0731 -0.0865  0.1292
  714MOL0     C96265   1.564  10.402   0.669  0.0021  0.2692 -0.2014
  714MOL0     C96266   1.622  10.345   0.799  0.5588  0.1345  0.6310
  714MOL0     C96267   1.747  10.418   0.854  1.0636 -0.3820 -0.4620
  714MOL0     C96268   1.885  10.371   0.837 -0.6807  0.6812  1.1165
  714MOL0     C96269   1.895  10.224   0.868  0.4926  0.1675  0.4004
  714MOL0     C96270   2.047  10.185   0.886  0.2847 -0.1854 -0.1816
  714MOL0     C96271   2.082  10.037   0.850 -0.2181 -0.5831  0.7431
  714MOL0     N96272   2.036   9.949   0.960  0.3343  0.1635 -0.3687
  714MOL0     C96273   2.098   9.933   1.077  0.5200  0.9205  0.1108
  714MOL0     C96274   2.018   9.845   1.152 -0.9689 -0.0013  0.4553
  714MOL0     C96275   2.028   9.805   1.290  0.9435 -0.0139  0.2303
  714MOL0     C96276   2.111   9.677   1.300  0.2808  0.3230  0.3590
  714MOL0     C96277   2.105   9.625   1.444  1.1712 -0.2460 -0.9149
  714MOL0     C96278   2.187   9.498   1.465  0.3569  0.4275 -0.4586
  714MOL0     O96279   2.151   9.422   1.580  0.0014 -0.4738 -0.1492
  714MOL0     C96280   2.061   9.321   1.574 -0.1731 -0.0079 -0.0375
  714MOL0     C96281   2.020   9.253   1.462 -0.8807 -0.0677  0.2447
  714MOL0     C96282   1.950   9.140   1.454  0.3474  0.3490  0.4921
  714MOL0     C96283   1.926   9.079   1.323 -0.3182 -0.1248 -0.5948
  714MOL0     C96284   1.907   9.098   1.576 -0.2533  0.3541 -0.4876
  714MOL0     C96285   1.840   8.968   1.593 -1.0800  0.1549 -0.4989
  714MOL0     O96286   1.721   8.968   1.663  0.0221  0.1884  1.1944
  714MOL0     C96287   1.648   8.854   1.661 -0.1110  0.8314  0.1994
  714MOL0     C96288   1.579   8.840   1.779  0.1531  0.2620 -0.3761
  714MOL0     C96289   1.491   8.737   1.797  0.3007  0.8816  0.0647
  714MOL0     C96290   1.469   8.641   1.693 -0.0924 -0.2362 -0.0680
  714MOL0     O96291   1.377   8.544   1.731  0.1268 -1.0710 -0.2402
  714MOL0     C96292   1.341   8.436   1.644 -0.0875 -0.1145  0.1544
  714MOL0     C96293   1.298   8.321   1.731 -0.0796  0.2862 -0.5064
  714MOL0     C96294   1.215   8.216   1.651  0.2043  0.1307 -0.1236
  714MOL0     C96295   1.075   8.265   1.622 -0.1872 -0.2567  0.2543
  714MOL0     C96296   0.980   8.180   1.530 -0.8309  0.1299  0.3309
  714MOL0     C96297   0.887   8.090   1.618  0.7094 -0.5315 -0.3262
  714MOL0     C96298   0.798   8.000   1.524  0.2676 -0.7174  0.6956
  714MOL0     C96299   0.675   8.049   1.466  0.2869 -0.7760  0.3303
  714MOL0    Cl96300   0.553   8.064   1.588 -0.0821  0.4176 -0.1296
  714MOL0     C96301   1.530   8.666   1.570 -0.5220  0.3422 -0.3486
  714MOL0     C96302   1.624   8.763   1.551 -0.2854  0.5172  0.1931
  714MOL0     O96303   1.903   8.869   1.557  0.2544 -0.4773 -0.1140
  714MOL0     C96304   1.927   9.169   1.699 -0.0363  0.1555 -0.7940
  714MOL0     C96305   2.016   9.278   1.701 -0.6257 -0.1297  0.8437
  714MOL0     N96306   1.907   9.805   1.070 -0.5207  0.1331  0.0942
  714MOL0     N96307   1.927   9.866   0.954  0.1376  0.2454  0.4916
  714MOL0     C96308   1.848  10.092   0.516  0.4502  0.7617  0.1457
  714MOL0     C96309   1.968  10.034   0.458  0.2133  0.0936 -0.6155
  714MOL0     C96310   2.323   9.986   0.140 -0.2925  0.0508 -0.1129
  714MOL0     C96311   2.408   9.937   0.244  0.0625 -0.1706 -0.3035
  714MOL0     C96312   2.516   9.854   0.212 -0.8179  0.7476 -0.9364
  714MOL0     C96313   2.573   9.849   0.080  0.6586  0.6266  0.1796
  714MOL0     O96314   2.692   9.790   0.046 -0.1581 -0.8457 -0.1233
  714MOL0     C96315   2.779   9.748   0.152 -0.5293 -1.1557  0.7550
  714MOL0     C96316   2.901   9.672   0.100  0.1258  0.2656 -0.5849
  714MOL0     C96317   2.864   9.525   0.058 -0.3656  0.6027 -0.7116
  714MOL0     C96318   2.989   9.444   0.051  0.0511 -0.4643  0.2257
  714MOL0     C96319   2.959   9.311   0.008 -0.4653  0.4377 -0.9069
  714MOL0     C96320   2.927   9.212  -0.052  0.9247  1.2410 -0.1457
  714MOL0     C96321   2.498   9.910  -0.025  0.7547  0.5793  0.3781
  714MOL0     C96322   2.377   9.976   0.001 -0.0550  0.2106  0.1111
  714MOL0     H96323   2.020  10.277   0.226  1.8238  0.2021  2.1301
  714MOL0     H96324   1.801  10.349   0.306 -0.8843  0.1883  1.0652
  714MOL0     H96325   1.743  10.442   0.558  0.9229 -1.8590  2.5250
  714MOL0     H96326   1.595  10.421   0.458  2.8295  1.5063 -1.1499
  714MOL0     H96327   1.545  10.507   0.693 -0.0919  0.0649  0.6506
  714MOL0     H96328   1.468  10.355   0.649  0.3284 -1.2530  1.5243
  714MOL0     H96329   1.546  10.355   0.878  0.3443 -0.8043  0.5543
  714MOL0     H96330   1.642  10.239   0.782  1.4106  0.4844 -0.6979
  714MOL0     H96331   1.761  10.521   0.821  2.6839 -0.2064  0.6588
  714MOL0     H96332   1.731  10.427   0.962 -1.3969 -0.2237 -0.7645
  714MOL0     H96333   1.915  10.387   0.733 -0.2972 -1.3455  0.8779
  714MOL0     H96334   1.948  10.429   0.905 -1.2923  1.9157  0.6535
  714MOL0     H96335   1.837  10.207   0.959  0.4787  0.8602  0.5287
  714MOL0     H96336   1.853  10.168   0.784 -3.9357 -0.8803  2.9933
  714MOL0     H96337   2.105  10.242   0.813  0.0846  0.9928  0.5418
  714MOL0     H96338   2.087  10.207   0.985 -0.2542  0.0255 -0.0080
  714MOL0     H96339   2.189  10.024   0.833  0.0647  1.5031  0.7191
  714MOL0     H96340   2.044   9.999   0.755  2.0148 -1.0407 -0.0286
  714MOL0     H96341   2.194   9.971   1.110  0.4304  0.6016  0.7662
  714MOL0     H96342   2.060   9.885   1.357 -1.2006 -0.0880  1.4430
  714MOL0     H96343   1.929   9.781   1.331 -0.1286  0.6917 -1.8088
  714MOL0     H96344   2.217   9.690   1.276  0.3235 -1.6884 -0.6964
  714MOL0     H96345   2.076   9.608   1.223  3.1115  3.2133 -3.9718
  714MOL0     H96346   1.998   9.605   1.462  1.7925 -2.2617  0.9488
  714MOL0     H96347   2.146   9.707   1.503 -0.1745  0.3099 -0.7155
  714MOL0     H96348   2.289   9.532   1.486  1.7684 -3.1679 -0.6979
  714MOL0     H96349   2.193   9.437   1.375 -1.7473  2.0753 -1.8028
  714MOL0     H96350   2.052   9.290   1.365 -0.3020  1.6427  1.0435
  714MOL0     H96351   1.953   9.140   1.236  1.0978 -0.8000 -0.6498
  714MOL0     H96352   1.987   8.989   1.322 -0.2863 -0.1555  1.1940
  714MOL0     H96353   1.822   9.044   1.316  0.1843 -1.5063 -1.5499
  714MOL0     H96354   1.593   8.909   1.862  2.7712 -2.0992  1.3537
  714MOL0     H96355   1.441   8.738   1.894 -0.5724  1.4259 -0.3766
  714MOL0     H96356   1.262   8.482   1.585  1.4596  1.9271 -0.4109
  714MOL0     H96357   1.420   8.405   1.575 -0.9129 -1.2772 -0.3045
  714MOL0     H96358   1.389   8.285   1.779  0.0255  1.8960  0.6075
  714MOL0     H96359   1.237   8.355   1.815 -1.0239 -0.9842 -0.6513
  714MOL0     H96360   1.214   8.121   1.704  1.2506 -1.7973 -3.2804
  714MOL0     H96361   1.272   8.201   1.559  0.6963  0.3154  0.1464
  714MOL0     H96362   1.018   8.307   1.706 -0.5808  1.0465 -0.6213
  714MOL0     H96363   1.100   8.351   1.558 -1.1060 -2.3596 -3.1987
  714MOL0     H96364   1.038   8.127   1.453 -0.9573  0.2583  0.1446
  714MOL0     H96365   0.913   8.250   1.478 -0.3035  0.5674  0.2253
  714MOL0     H96366   0.946   8.026   1.684  1.2495  1.2730  1.0192
  714MOL0     H96367   0.817   8.154   1.671  0.0641  0.6198 -2.4605
  714MOL0     H96368   0.763   7.916   1.585 -0.5757 -1.3785 -0.6550
  714MOL0     H96369   0.864   7.964   1.444 -0.1904  0.5399 -0.2647
  714MOL0     H96370   0.639   7.974   1.395  0.7484  0.2724 -1.0729
  714MOL0     H96371   0.701   8.147   1.425  0.5017  0.1048  2.4614
  714MOL0     H96372   1.500   8.596   1.493  0.2884  0.1837 -0.5245
  714MOL0     H96373   1.679   8.766   1.457 -0.6735  0.8867 -0.0325
  714MOL0     H96374   1.889   9.131   1.793 -0.6926  1.8133 -0.3492
  714MOL0     H96375   2.048   9.327   1.793  0.0265 -0.5343  0.8355
  714MOL0     H96376   1.802  10.038   0.599  1.2865 -0.0527  0.0938
  714MOL0     H96377   2.004   9.941   0.502  3.6655  1.3654 -0.4988
  714MOL0     H96378   2.379   9.945   0.348 -0.7234 -0.2727 -0.5151
  714MOL0     H96379   2.569   9.811   0.296 -1.4816  1.4662 -0.1215
  714MOL0     H96380   2.810   9.835   0.210  0.6176 -1.6130  0.8548
  714MOL0     H96381   2.711   9.691   0.217 -1.0645 -0.7256  0.5809
  714MOL0     H96382   2.981   9.671   0.175 -0.1263  0.7361 -0.3008
  714MOL0     H96383   2.939   9.724   0.012  2.9437  2.3596  1.6692
  714MOL0     H96384   2.804   9.516  -0.033 -0.9885  1.0954 -0.3633
  714MOL0     H96385   2.803   9.470   0.130 -0.5415 -3.8064 -3.8456
  714MOL0     H96386   3.035   9.427   0.148  2.9676  0.4620 -0.8801
  714MOL0     H96387   3.059   9.494  -0.016 -1.5283  2.6602  0.6929
  714MOL0     H96388   2.899   9.120  -0.099 -1.2256  2.7001 -1.8734
  714MOL0     H96389   2.543   9.906  -0.124  0.2259  1.5884  0.0851
  714MOL0     H96390   2.320  10.015  -0.083  1.0159 -1.4196 -1.4485
  715MOL0     O96391   0.118   3.442   5.024  0.2186 -0.1899 -0.3091
  715MOL0     C96392   0.121   3.346   5.101 -0.2950  0.3548  0.4639
  715MOL0     O96393   0.013   3.285   5.162  0.6226 -0.3280  0.8874
  715MOL0     C96394  -0.106   3.285   5.092  0.1792  0.8945 -0.7642
  715MOL0     C96395  -0.107   3.262   4.953 -0.1433 -0.3554 -0.3746
  715MOL0     C96396  -0.234   3.246   4.887 -1.5504  0.1430 -1.2915
  715MOL0     C96397  -0.353   3.257   4.963 -0.6977  0.3066 -0.6248
  715MOL0     O96398  -0.479   3.253   4.904 -0.1665  0.3790  0.4895
  715MOL0     C96399  -0.492   3.334   4.785 -0.2677 -0.0277 -0.1144
  715MOL0     C96400  -0.607   3.285   4.689 -0.2718  0.3811 -0.0028
  715MOL0     C96401  -0.744   3.369   4.698 -0.3100  0.4981 -0.2614
  715MOL0     C96402  -0.844   3.291   4.600  0.6412 -0.3819  0.0177
  715MOL0     C96403  -0.993   3.335   4.623  0.2257 -0.1181 -1.0946
  715MOL0     C96404  -1.092   3.235   4.567  0.4785 -1.1026 -0.2774
  715MOL0     C96405  -1.240   3.253   4.622 -0.0776  1.3013 -1.2239
  715MOL0     C96406  -1.307   3.389   4.629  1.1479 -0.7578 -0.0251
  715MOL0     N96407  -1.452   3.357   4.670  0.6136 -0.3181 -0.2805
  715MOL0     C96408  -1.502   3.322   4.790  0.0004 -0.6851 -0.7528
  715MOL0     C96409  -1.633   3.298   4.779 -0.3550  0.2272 -0.0351
  715MOL0     C96410  -1.742   3.266   4.877 -0.6955 -1.2197 -0.4059
  715MOL0     C96411  -1.692   3.228   5.021 -0.5638  0.4125 -0.6319
  715MOL0     C96412  -1.805   3.254   5.128  0.6562 -0.3858  0.2474
  715MOL0     C96413  -1.911   3.143   5.139 -0.4668 -0.1562 -0.5814
  715MOL0     O96414  -1.857   3.016   5.174  0.0494 -0.2909 -0.3304
  715MOL0     C96415  -1.956   2.913   5.189  0.7102  0.3706 -0.4122
  715MOL0     C96416  -2.074   2.913   5.121 -0.0161  0.4007 -0.4687
  715MOL0     C96417  -2.149   2.791   5.111 -0.0428  0.4158 -0.4790
  715MOL0     C96418  -2.273   2.785   5.021  0.4770  0.0326 -0.3653
  715MOL0     C96419  -2.114   2.683   5.197 -0.1211 -0.4337 -0.2496
  715MOL0     C96420  -2.191   2.574   5.225 -1.0109  0.1236  0.4408
  715MOL0     O96421  -2.326   2.586   5.219 -0.8176  0.0700  0.2878
  715MOL0     C96422  -2.419   2.488   5.244 -0.4564  0.5471 -0.8213
  715MOL0     C96423  -2.379   2.366   5.316 -0.0561 -0.9360  0.1572
  715MOL0     C96424  -2.474   2.269   5.338 -0.0693 -0.3494  0.2026
  715MOL0     C96425  -2.604   2.281   5.286 -0.3220  0.2648  0.1138
  715MOL0     O96426  -2.696   2.179   5.298 -1.0539  0.5712  0.5109
  715MOL0     C96427  -2.760   2.140   5.175  0.3719  0.0751 -0.2439
  715MOL0     C96428  -2.876   2.040   5.191 -0.1101 -0.4314 -0.5680
  715MOL0     C96429  -2.888   1.956   5.320 -0.7851  0.5063 -0.0371
  715MOL0     C96430  -2.758   1.867   5.338 -0.3376  0.1733 -0.1681
  715MOL0     C96431  -2.759   1.731   5.261 -0.7687 -0.0854 -0.1734
  715MOL0     C96432  -2.629   1.654   5.267  1.0104 -0.3549  1.1081
  715MOL0     C96433  -2.567   1.621   5.402 -0.5563  0.1061  0.3938
  715MOL0     C96434  -2.467   1.505   5.399 -0.5202  0.5048 -0.3263
  715MOL0    Cl96435  -2.439   1.457   5.567  0.2067  0.3637 -0.0092
  715MOL0     C96436  -2.649   2.405   5.229  0.1536 -0.3170  1.5878
  715MOL0     C96437  -2.554   2.502   5.209  0.5008  0.4375  0.1013
  715MOL0     O96438  -2.131   2.464   5.223  0.3707  0.1703  0.7408
  715MOL0     C96439  -1.986   2.690   5.261 -0.3158 -0.0707 -0.4479
  715MOL0     C96440  -1.902   2.800   5.249 -0.2483 -0.7435  0.0167
  715MOL0     N96441  -1.662   3.316   4.644  0.3354 -0.1941 -0.2910
  715MOL0     N96442  -1.559   3.354   4.581  0.7275 -0.6999 -0.4028
  715MOL0     C96443  -0.347   3.261   5.106  0.1004  0.9564  0.0412
  715MOL0     C96444  -0.219   3.273   5.165  0.3452  0.5246 -0.1217
  715MOL0     C96445   0.248   3.287   5.145 -0.4604 -0.0693  0.3453
  715MOL0     C96446   0.260   3.203   5.260 -0.3189  0.0417  0.1553
  715MOL0     C96447   0.394   3.159   5.295  0.7702  0.7136 -0.9742
  715MOL0     C96448   0.513   3.200   5.237 -0.8123 -0.5650 -0.6188
  715MOL0     O96449   0.624   3.145   5.297 -0.1387 -0.3154  0.3699
  715MOL0     C96450   0.741   3.230   5.302  0.8346 -0.2813 -0.2271
  715MOL0     C96451   0.856   3.134   5.353  0.5714 -0.4273 -0.8895
  715MOL0     C96452   0.984   3.207   5.401 -0.6185  0.4771  0.5467
  715MOL0     C96453   1.040   3.304   5.302  0.0386 -0.5797 -0.2838
  715MOL0     C96454   1.120   3.235   5.207  0.2308  0.1609  0.1229
  715MOL0     C96455   1.177   3.183   5.114  0.2699 -0.5410  0.5149
  715MOL0     C96456   0.499   3.294   5.136 -0.1556 -0.6802 -0.3099
  715MOL0     C96457   0.376   3.331   5.086  0.9764  0.1997  0.1548
  715MOL0     H96458  -0.015   3.267   4.896 -0.6066 -2.8801 -1.4798
  715MOL0     H96459  -0.220   3.232   4.780  0.9562 -0.0548 -0.9992
  715MOL0     H96460  -0.506   3.438   4.816  1.1888  0.3920 -0.8000
  715MOL0     H96461  -0.405   3.333   4.719 -0.3093 -1.9526 -0.1924
  715MOL0     H96462  -0.572   3.296   4.587 -2.7804 -0.4863 -1.0377
  715MOL0     H96463  -0.616   3.177   4.699 -0.3909  0.2061 -1.7082
  715MOL0     H96464  -0.771   3.359   4.804 -0.1933  1.1725 -0.1658
  715MOL0     H96465  -0.730   3.476   4.683  1.9406  0.6507  2.0950
  715MOL0     H96466  -0.812   3.317   4.499  1.9096 -2.1064 -0.0767
  715MOL0     H96467  -0.829   3.183   4.592 -0.0483 -0.3562 -2.3147
  715MOL0     H96468  -1.001   3.332   4.732 -0.4532 -0.2567 -1.1467
  715MOL0     H96469  -1.019   3.436   4.590 -0.8437  0.2514  0.6904
  715MOL0     H96470  -1.094   3.245   4.458 -2.5425 -0.2079 -0.2356
  715MOL0     H96471  -1.067   3.132   4.595  0.9847 -0.1621  3.1912
  715MOL0     H96472  -1.299   3.180   4.566  0.6139  0.5916 -1.0409
  715MOL0     H96473  -1.248   3.212   4.723 -2.9663  3.6788 -0.3426
  715MOL0     H96474  -1.304   3.441   4.533 -0.6725  0.8604  0.7421
  715MOL0     H96475  -1.257   3.457   4.699 -0.9138  1.0700 -0.2137
  715MOL0     H96476  -1.443   3.305   4.879  0.8672  0.1464 -1.1629
  715MOL0     H96477  -1.807   3.354   4.873  1.0022  0.0831 -0.5068
  715MOL0     H96478  -1.806   3.186   4.840 -1.8356 -0.2156 -0.6515
  715MOL0     H96479  -1.606   3.290   5.048  0.2445 -1.4963  1.5267
  715MOL0     H96480  -1.666   3.122   5.028  0.5767  0.6629 -0.7802
  715MOL0     H96481  -1.856   3.345   5.097 -0.2948 -1.7164 -2.3612
  715MOL0     H96482  -1.762   3.279   5.226  5.8083  3.0500 -2.4596
  715MOL0     H96483  -1.963   3.141   5.043  1.2250  1.1901 -1.5889
  715MOL0     H96484  -1.979   3.170   5.220  0.7981  0.1021  0.4317
  715MOL0     H96485  -2.101   2.999   5.060  1.1175  1.1469  0.0607
  715MOL0     H96486  -2.356   2.806   5.089 -0.7124  1.8136 -2.2653
  715MOL0     H96487  -2.269   2.867   4.949  0.6133  1.1261  0.8469
  715MOL0     H96488  -2.281   2.691   4.966 -2.3000  1.1335 -2.0225
  715MOL0     H96489  -2.279   2.354   5.357  0.0180 -0.5806  0.0845
  715MOL0     H96490  -2.448   2.170   5.373 -1.5078 -1.3369 -1.4019
  715MOL0     H96491  -2.787   2.226   5.113 -0.0226  1.4546  1.7413
  715MOL0     H96492  -2.677   2.094   5.121 -0.7896 -2.0850 -0.3096
  715MOL0     H96493  -2.977   2.082   5.192 -2.2818 -5.0218 -1.2764
  715MOL0     H96494  -2.873   1.975   5.103 -1.6561 -2.4596  0.7982
  715MOL0     H96495  -2.975   1.889   5.314 -1.2739  1.2478 -1.7339
  715MOL0     H96496  -2.900   2.018   5.410 -0.4255  2.5710 -1.3536
  715MOL0     H96497  -2.669   1.921   5.305 -0.0431  2.3869  3.6991
  715MOL0     H96498  -2.734   1.855   5.444 -0.0343  1.4153 -0.0825
  715MOL0     H96499  -2.774   1.741   5.153  4.2484  0.0095 -1.1175
  715MOL0     H96500  -2.845   1.676   5.299 -0.1319 -0.4255  0.7986
  715MOL0     H96501  -2.651   1.568   5.203 -3.8273  1.0903  0.4344
  715MOL0     H96502  -2.557   1.723   5.223 -0.6793 -0.3062 -1.7926
  715MOL0     H96503  -2.650   1.573   5.455 -0.3859 -2.4543 -1.4528
  715MOL0     H96504  -2.521   1.710   5.444 -2.3014  1.2921 -0.1132
  715MOL0     H96505  -2.375   1.546   5.358  1.6661 -3.2032  0.3547
  715MOL0     H96506  -2.496   1.410   5.353  0.8485 -0.4694  0.7059
  715MOL0     H96507  -2.754   2.423   5.208  0.1399  2.9393  3.7957
  715MOL0     H96508  -2.584   2.591   5.155 -2.0039 -1.2238 -1.4316
  715MOL0     H96509  -1.937   2.613   5.320 -1.2334 -0.4076 -0.1124
  715MOL0     H96510  -1.801   2.796   5.289  0.6143 -0.5549 -2.0332
  715MOL0     H96511  -0.443   3.261   5.156  0.6542  2.1290  1.1635
  715MOL0     H96512  -0.226   3.266   5.274 -0.9450 -1.1033 -0.2587
  715MOL0     H96513   0.174   3.163   5.312 -1.0599  1.5498  0.1464
  715MOL0     H96514   0.399   3.103   5.388 -0.8239  3.0614  0.6458
  715MOL0     H96515   0.763   3.273   5.204 -1.4268  0.4382 -0.4871
  715MOL0     H96516   0.724   3.318   5.364  3.2282  2.1929 -2.8536
  715MOL0     H96517   0.880   3.069   5.268  1.1791 -1.3972  0.0070
  715MOL0     H96518   0.818   3.069   5.432 -1.8457  0.2908 -1.3517
  715MOL0     H96519   1.066   3.143   5.434  2.1071  1.8606 -2.8837
  715MOL0     H96520   0.945   3.271   5.481 -2.6080  1.2053 -0.9218
  715MOL0     H96521   1.108   3.371   5.356 -0.5489 -3.4813  4.7773
  715MOL0     H96522   0.953   3.349   5.253 -0.7565  0.8166  2.2198
  715MOL0     H96523   1.216   3.122   5.035 -0.3384  0.7876 -0.8728
  715MOL0     H96524   0.592   3.315   5.084  0.2448 -0.7729  0.3590
  715MOL0     H96525   0.376   3.396   4.999 -0.7201 -1.4049 -1.1330
  716MOL0     O96526   6.010   9.343  10.158  0.4093 -0.2836 -0.6633
  716MOL0     C96527   6.028   9.254  10.073 -0.1537  0.1119  0.4467
  716MOL0     O96528   6.143   9.179  10.069 -0.4185 -0.5604  0.3470
  716MOL0     C96529   6.249   9.230  10.135  0.3617 -0.0993  0.5584
  716MOL0     C96530   6.351   9.322  10.094  0.4837  0.5612  0.3431
  716MOL0     C96531   6.454   9.362  10.174  0.6010 -0.2968 -0.1657
  716MOL0     C96532   6.451   9.341  10.306  0.2180  0.0177 -0.4951
  716MOL0     O96533   6.552   9.403  10.380  0.0843  0.1809  0.3118
  716MOL0     C96534   6.556   9.396  10.522  0.1936  0.0296 -0.1386
  716MOL0     C96535   6.675   9.483  10.554  0.0280  0.8024 -0.5541
  716MOL0     C96536   6.723   9.474  10.701 -0.1552  0.3685 -0.1738
  716MOL0     C96537   6.844   9.557  10.721 -0.7599 -0.1618  0.3391
  716MOL0     C96538   6.908   9.535  10.860 -0.8854  0.2550  0.4096
  716MOL0     C96539   7.045   9.589  10.873  0.1635  0.1503  0.0177
  716MOL0     C96540   7.106   9.570  11.023  0.0911  0.4776  0.6944
  716MOL0     C96541   7.141   9.427  11.067  0.1430  0.2455  0.5961
  716MOL0     N96542   7.180   9.429  11.210 -0.3665  0.5682  0.1151
  716MOL0     C96543   7.232   9.531  11.284 -0.5110 -0.5325  0.0660
  716MOL0     C96544   7.293   9.471  11.389 -1.1455 -0.1811 -0.5438
  716MOL0     C96545   7.370   9.551  11.487 -0.7615 -0.4373  0.1427
  716MOL0     C96546   7.313   9.547  11.632  0.3873 -0.0807  0.2279
  716MOL0     C96547   7.321   9.399  11.684 -0.1205  0.2281  0.1053
  716MOL0     C96548   7.281   9.409  11.825 -0.0833 -0.2056 -0.0063
  716MOL0     O96549   7.371   9.488  11.905  0.6363  0.4354  0.4470
  716MOL0     C96550   7.415   9.424  12.017 -0.6409  0.5374  0.1625
  716MOL0     C96551   7.437   9.281  12.035 -0.5879 -0.5384  0.3846
  716MOL0     C96552   7.464   9.228  12.158 -0.1122 -0.4620  0.4878
  716MOL0     C96553   7.494   9.078  12.157  0.3594  0.2681  0.0486
  716MOL0     C96554   7.496   9.314  12.273  0.1378  0.7985 -0.4892
  716MOL0     C96555   7.549   9.265  12.401 -0.3118 -0.2053 -0.0809
  716MOL0     O96556   7.604   9.365  12.482 -0.9249 -0.1937  0.7145
  716MOL0     C96557   7.596   9.343  12.610  0.7123  0.2959 -0.4734
  716MOL0     C96558   7.509   9.389  12.700 -0.1125 -0.1069 -0.4128
  716MOL0     C96559   7.498   9.341  12.830  0.3006  0.1163 -0.9889
  716MOL0     C96560   7.599   9.249  12.874  0.2269  0.7283 -0.3343
  716MOL0     O96561   7.613   9.190  12.998 -0.1080  0.3764 -0.3329
  716MOL0     C96562   7.563   9.242  13.125  0.3759 -0.1899  1.3365
  716MOL0     C96563   7.628   9.183  13.254 -0.2734 -0.4746  0.6487
  716MOL0     C96564   7.779   9.158  13.229 -0.0209  0.2328  0.0133
  716MOL0     C96565   7.837   9.167  13.369 -0.2827  1.0681 -0.4677
  716MOL0     C96566   7.973   9.094  13.381  0.1033  0.0882  0.5366
  716MOL0     C96567   8.084   9.160  13.310  0.2509 -0.0302 -0.2887
  716MOL0     C96568   8.125   9.296  13.366 -0.1341  0.3712 -0.0582
  716MOL0     C96569   8.184   9.284  13.506  0.6844 -0.3987  0.3316
  716MOL0    Cl96570   8.246   9.436  13.549 -0.1693 -0.7965 -0.2374
  716MOL0     C96571   7.699   9.213  12.786  0.2262  0.1310  0.0157
  716MOL0     C96572   7.700   9.258  12.658  0.5129  0.1414  0.0488
  716MOL0     O96573   7.566   9.149  12.425 -0.0260 -0.1459 -0.1095
  716MOL0     C96574   7.488   9.457  12.256 -0.7386 -1.1473 -0.5377
  716MOL0     C96575   7.453   9.504  12.127 -0.2906 -0.2344 -0.3758
  716MOL0     N96576   7.266   9.341  11.386  0.5683 -0.1501  0.4187
  716MOL0     N96577   7.201   9.315  11.280  0.6814 -0.4260  0.0259
  716MOL0     C96578   6.357   9.258  10.359 -0.3095  0.1939  0.3512
  716MOL0     C96579   6.262   9.201  10.278 -0.1264  0.7621 -0.8809
  716MOL0     C96580   5.916   9.236   9.974 -0.3625  0.0174 -0.6956
  716MOL0     C96581   5.921   9.133   9.870  0.1441 -0.5515  0.2224
  716MOL0     C96582   5.823   9.110   9.774 -0.6173 -0.1701  0.2948
  716MOL0     C96583   5.702   9.180   9.785 -1.1958 -0.1348  0.1767
  716MOL0     O96584   5.606   9.154   9.691 -0.2532  0.4095  0.0003
  716MOL0     C96585   5.505   9.073   9.738 -0.0219 -0.3855  1.4250
  716MOL0     C96586   5.398   9.164   9.797 -0.2867  0.6764 -0.1260
  716MOL0     C96587   5.255   9.130   9.735 -1.1041 -0.4565 -0.0110
  716MOL0     C96588   5.144   9.204   9.797  0.1046 -1.1670 -1.0218
  716MOL0     C96589   5.119   9.162   9.937 -0.2276 -0.1651 -0.4410
  716MOL0     C96590   5.087   9.151  10.057  0.3890 -0.8504 -0.2987
  716MOL0     C96591   5.693   9.281   9.885 -0.2773  0.4066  0.4000
  716MOL0     C96592   5.798   9.303   9.979  0.3766  0.2516 -0.7343
  716MOL0     H96593   6.354   9.355   9.991  2.2139 -0.9025 -0.1290
  716MOL0     H96594   6.509   9.436  10.117 -0.5573 -1.4089 -2.8860
  716MOL0     H96595   6.468   9.448  10.561 -0.2303 -0.0203 -1.0111
  716MOL0     H96596   6.562   9.299  10.572  2.2396  0.8373  1.3429
  716MOL0     H96597   6.760   9.452  10.493  0.3492 -0.6831  0.5918
  716MOL0     H96598   6.644   9.587  10.539  0.2935  0.8116 -1.0564
  716MOL0     H96599   6.633   9.500  10.758 -0.8205 -1.0777 -0.5048
  716MOL0     H96600   6.745   9.367  10.714  1.5521  0.6726 -0.3964
  716MOL0     H96601   6.914   9.545  10.637 -1.8937 -0.3266 -0.6081
  716MOL0     H96602   6.809   9.661  10.719  0.5122  0.2758 -1.2124
  716MOL0     H96603   6.846   9.572  10.942  2.8992  2.0538  2.7128
  716MOL0     H96604   6.921   9.427  10.872  1.0121  0.2860 -0.8381
  716MOL0     H96605   7.096   9.543  10.788 -1.2981  2.3149 -2.1807
  716MOL0     H96606   7.036   9.696  10.848 -0.3859 -0.4579 -2.6639
  716MOL0     H96607   7.201   9.623  11.022 -1.3016  3.1758 -1.0638
  716MOL0     H96608   7.037   9.621  11.091  0.5565  0.5850  1.0909
  716MOL0     H96609   7.228   9.387  11.015 -2.2500 -1.9723 -2.0528
  716MOL0     H96610   7.069   9.347  11.048  0.6940  0.2409 -1.7579
  716MOL0     H96611   7.215   9.638  11.270 -1.4466 -0.7940 -0.9110
  716MOL0     H96612   7.475   9.524  11.478 -0.4652  1.2298 -2.1468
  716MOL0     H96613   7.355   9.652  11.447 -0.8296 -0.6229 -0.3040
  716MOL0     H96614   7.209   9.580  11.633  0.7675  1.1984  0.1513
  716MOL0     H96615   7.366   9.613  11.702 -1.6089  0.0756  1.6706
  716MOL0     H96616   7.414   9.345  11.664 -1.7041 -2.4907 -0.3355
  716MOL0     H96617   7.240   9.350  11.629  0.3811 -0.3609 -0.1181
  716MOL0     H96618   7.263   9.313  11.874  1.6275 -0.3380  0.4485
  716MOL0     H96619   7.184   9.459  11.834 -0.0920 -0.2919  0.4166
  716MOL0     H96620   7.427   9.216  11.949 -0.0772 -0.7356  0.4694
  716MOL0     H96621   7.597   9.064  12.193  0.6142 -0.8119 -1.0057
  716MOL0     H96622   7.432   9.030  12.233  1.2136  0.0934  0.6552
  716MOL0     H96623   7.479   9.032  12.059 -1.8809  0.7792  0.1031
  716MOL0     H96624   7.439   9.459  12.655  0.7737  0.8406 -0.3560
  716MOL0     H96625   7.422   9.375  12.899  0.6350  3.4517 -2.0968
  716MOL0     H96626   7.571   9.350  13.135  1.0907  0.0162 -0.8837
  716MOL0     H96627   7.458   9.213  13.124  1.1788 -3.7466 -1.1198
  716MOL0     H96628   7.595   9.250  13.334 -0.5477 -0.4436  0.5105
  716MOL0     H96629   7.588   9.082  13.266  3.4692 -2.1123  0.9974
  716MOL0     H96630   7.821   9.238  13.166 -3.2290  1.4736 -0.7330
  716MOL0     H96631   7.800   9.066  13.175  0.4012  0.0770  0.4356
  716MOL0     H96632   7.844   9.263  13.420 -2.3920 -0.4840  3.1678
  716MOL0     H96633   7.770   9.114  13.438 -3.1154  2.8196 -1.6864
  716MOL0     H96634   7.974   8.998  13.327  4.2460 -0.0653  0.6231
  716MOL0     H96635   8.008   9.079  13.484 -0.2106 -0.9320  0.5099
  716MOL0     H96636   8.173   9.100  13.293 -1.4180 -2.8700  0.3813
  716MOL0     H96637   8.052   9.177  13.207  0.7017 -0.3047 -0.4744
  716MOL0     H96638   8.036   9.359  13.371 -0.7260 -0.5167  1.0331
  716MOL0     H96639   8.194   9.352  13.303 -0.6417  1.3156  0.2030
  716MOL0     H96640   8.264   9.210  13.495  0.4077 -0.4193 -1.9061
  716MOL0     H96641   8.114   9.252  13.583  1.0297  2.0429  1.7700
  716MOL0     H96642   7.773   9.138  12.813  0.0540 -1.7276 -3.9042
  716MOL0     H96643   7.779   9.219  12.595 -0.3333 -0.8953 -0.3945
  716MOL0     H96644   7.506   9.523  12.341 -2.0841 -2.4833  0.8433
  716MOL0     H96645   7.442   9.611  12.110 -1.4537 -0.1354  0.8896
  716MOL0     H96646   6.348   9.247  10.467  2.8015 -2.8294  0.4740
  716MOL0     H96647   6.179   9.142  10.316  1.4247  0.2765  2.0852
  716MOL0     H96648   6.011   9.073   9.864  0.6135  0.0276  1.2522
  716MOL0     H96649   5.840   9.028   9.705 -1.5402 -0.8014  0.7989
  716MOL0     H96650   5.469   9.026   9.646 -0.6408  1.0887  0.8623
  716MOL0     H96651   5.539   8.990   9.799 -0.5628 -0.6149  1.4256
  716MOL0     H96652   5.416   9.272   9.785  0.0399  0.6125 -0.2144
  716MOL0     H96653   5.397   9.140   9.904 -2.3937 -3.3353 -0.8634
  716MOL0     H96654   5.239   9.022   9.747  2.7083 -0.9809  1.9675
  716MOL0     H96655   5.258   9.159   9.630 -1.4868  0.9006  0.3391
  716MOL0     H96656   5.051   9.200   9.739 -2.5220  3.1659  2.2881
  716MOL0     H96657   5.156   9.312   9.791 -1.0063 -0.6141  3.4699
  716MOL0     H96658   5.064   9.133  10.160  0.6124  3.2697  0.6492
  716MOL0     H96659   5.602   9.339   9.874  0.8259  2.3442  0.9828
  716MOL0     H96660   5.781   9.387  10.046 -1.7468  0.7726 -1.8126
  717MOL0     O96661  10.523   0.969   6.137  0.2055  0.7972 -0.0323
  717MOL0     C96662  10.510   1.027   6.243 -0.7500 -0.2936  0.5716
  717MOL0     O96663  10.417   1.127   6.265  0.6856 -0.6317  0.2068
  717MOL0     C96664  10.332   1.158   6.163 -0.4722  0.4051 -0.8850
  717MOL0     C96665  10.201   1.102   6.154 -0.5481 -0.0068  0.7394
  717MOL0     C96666  10.119   1.138   6.042  0.0521  0.4600  0.9091
  717MOL0     C96667  10.155   1.233   5.950  0.5050 -0.8426  0.5007
  717MOL0     O96668  10.039   1.275   5.874 -0.2409  1.1445 -0.5549
  717MOL0     C96669  10.066   1.391   5.807 -0.1318  0.2082 -1.3723
  717MOL0     C96670   9.958   1.418   5.701  0.7940  0.0624 -0.1270
  717MOL0     C96671   9.821   1.428   5.764 -0.3042 -0.6910  0.3700
  717MOL0     C96672   9.731   1.500   5.659 -0.2734 -0.7021 -0.2325
  717MOL0     C96673   9.587   1.499   5.688 -0.0210  0.4055  0.1012
  717MOL0     C96674   9.522   1.366   5.665 -0.4462 -0.1030  0.0187
  717MOL0     C96675   9.373   1.365   5.681  0.9327 -0.0767  0.9640
  717MOL0     C96676   9.319   1.224   5.618  0.8468 -0.4357  0.6618
  717MOL0     N96677   9.361   1.103   5.691 -0.0688 -0.4631 -0.1076
  717MOL0     C96678   9.469   1.031   5.658  0.1525 -0.1650 -0.1395
  717MOL0     C96679   9.458   0.925   5.735 -0.3571  1.0587 -0.6633
  717MOL0     C96680   9.559   0.805   5.727  0.3524  0.1470 -0.5166
  717MOL0     C96681   9.482   0.676   5.771 -0.1993  0.1340  0.4680
  717MOL0     C96682   9.424   0.600   5.649  0.4114 -0.1173  0.6301
  717MOL0     C96683   9.272   0.636   5.626  1.4342 -0.0880 -0.6985
  717MOL0     O96684   9.255   0.766   5.559 -0.6146  0.1520 -1.1849
  717MOL0     C96685   9.131   0.814   5.530 -0.8761 -0.0706 -0.2068
  717MOL0     C96686   9.020   0.768   5.587 -0.5693 -0.5763  0.2160
  717MOL0     C96687   8.900   0.832   5.560  0.1577 -0.1176  0.0591
  717MOL0     C96688   8.777   0.770   5.624 -0.3116 -0.3008  0.1545
  717MOL0     C96689   8.883   0.940   5.471 -1.2833 -0.1218  0.0033
  717MOL0     C96690   8.761   1.025   5.451 -0.4992 -0.4395  0.2318
  717MOL0     O96691   8.788   1.158   5.439 -0.4643 -0.1136  1.3477
  717MOL0     C96692   8.684   1.243   5.444 -0.3737  0.1056 -0.0481
  717MOL0     C96693   8.685   1.309   5.567  0.4306 -0.1029  1.0071
  717MOL0     C96694   8.587   1.406   5.587 -0.4714 -0.1472 -0.8827
  717MOL0     C96695   8.481   1.431   5.509  0.0344 -0.5080 -0.5741
  717MOL0     O96696   8.406   1.527   5.561  0.0262  0.2510  0.0847
  717MOL0     C96697   8.290   1.559   5.492  0.2560 -0.9890 -0.2491
  717MOL0     C96698   8.195   1.640   5.592 -0.4546 -0.3872  2.1117
  717MOL0     C96699   8.150   1.560   5.722 -0.3718  0.0841  0.6518
  717MOL0     C96700   8.101   1.430   5.678  0.5917 -0.1952  0.0019
  717MOL0     C96701   8.009   1.358   5.786 -0.3447 -0.5270  0.5409
  717MOL0     C96702   7.990   1.206   5.748 -0.5227  0.8903 -0.3996
  717MOL0     C96703   7.919   1.139   5.866  1.0636 -0.0582  0.8652
  717MOL0     C96704   7.870   1.001   5.831  0.3563  0.5088  0.4706
  717MOL0    Cl96705   7.777   0.941   5.958 -0.0959 -0.0507 -0.8652
  717MOL0     C96706   8.474   1.350   5.390  0.0767 -0.0128  0.5333
  717MOL0     C96707   8.580   1.261   5.354  0.8957 -0.4248  0.1743
  717MOL0     O96708   8.647   0.973   5.444  0.2431 -0.1718 -0.1426
  717MOL0     C96709   9.000   0.978   5.408  0.0763  0.1208 -0.1287
  717MOL0     C96710   9.125   0.915   5.440 -0.5308 -0.7490  0.7295
  717MOL0     N96711   9.361   0.939   5.833 -0.4769  0.4431 -0.0600
  717MOL0     N96712   9.295   1.047   5.800 -0.1861  1.2335  0.2340
  717MOL0     C96713  10.280   1.299   5.959  0.9638 -0.1054 -0.5674
  717MOL0     C96714  10.365   1.252   6.066  0.0679 -0.7608 -0.7423
  717MOL0     C96715  10.592   0.967   6.352 -0.2039  0.1613 -0.0059
  717MOL0     C96716  10.684   0.862   6.323  0.5770  1.6694  0.3384
  717MOL0     C96717  10.766   0.808   6.422 -0.2604 -0.8087  0.1813
  717MOL0     C96718  10.762   0.850   6.559  0.1211  0.3429 -0.2310
  717MOL0     O96719  10.854   0.804   6.654  0.4898 -0.3649 -0.0367
  717MOL0     C96720  10.977   0.740   6.629 -1.2080  0.5801 -0.1234
  717MOL0     C96721  11.086   0.842   6.580  0.0136  0.0361 -0.2681
  717MOL0     C96722  11.220   0.781   6.551 -0.2043 -0.4273  0.5420
  717MOL0     C96723  11.336   0.880   6.551 -0.5842  0.7522  0.0925
  717MOL0     C96724  11.413   0.875   6.677 -0.4554 -1.1133  0.7951
  717MOL0     C96725  11.469   0.861   6.776 -0.2743  0.6490 -1.0682
  717MOL0     C96726  10.674   0.946   6.585  0.1148  0.5448  0.0552
  717MOL0     C96727  10.588   1.005   6.488 -0.1638 -0.3152 -0.3820
  717MOL0     H96728  10.167   1.024   6.222  3.1820 -2.4695  0.1138
  717MOL0     H96729  10.021   1.093   6.035 -0.6026  2.1218 -2.1267
  717MOL0     H96730  10.064   1.461   5.891  2.7420 -2.0303  0.7944
  717MOL0     H96731  10.159   1.393   5.750  0.1645 -0.0861 -0.9101
  717MOL0     H96732   9.974   1.515   5.652  1.5343  0.3185  0.6161
  717MOL0     H96733   9.966   1.334   5.631 -3.3704  0.3420 -1.2215
  717MOL0     H96734   9.789   1.327   5.790  1.0234 -1.6904 -1.5565
  717MOL0     H96735   9.834   1.494   5.850 -1.9244  4.6497 -2.9631
  717MOL0     H96736   9.760   1.603   5.640 -0.8745 -0.4053  0.4424
  717MOL0     H96737   9.746   1.443   5.566 -0.0740  0.3091 -0.8269
  717MOL0     H96738   9.565   1.524   5.792 -4.2146 -0.4051 -0.4121
  717MOL0     H96739   9.530   1.568   5.625 -1.0231 -1.0341 -0.6405
  717MOL0     H96740   9.544   1.343   5.560 -1.7481 -1.1292 -0.0563
  717MOL0     H96741   9.568   1.300   5.740 -0.3564  0.3230  0.3393
  717MOL0     H96742   9.351   1.364   5.788 -0.5001 -1.5755  0.7035
  717MOL0     H96743   9.321   1.455   5.647  0.2706 -0.6500  0.4172
  717MOL0     H96744   9.346   1.214   5.512  0.3896 -2.6048  0.7200
  717MOL0     H96745   9.210   1.226   5.616  0.8024 -0.7178 -2.3860
  717MOL0     H96746   9.548   1.043   5.585  3.1061 -3.8010  2.1234
  717MOL0     H96747   9.619   0.798   5.636 -0.9533  0.0379 -1.3976
  717MOL0     H96748   9.619   0.826   5.816 -1.5645  2.3453  0.3468
  717MOL0     H96749   9.406   0.672   5.850 -1.4912  0.7016 -0.7010
  717MOL0     H96750   9.564   0.617   5.813  0.9283  0.4359 -1.2051
  717MOL0     H96751   9.432   0.491   5.648 -0.6503 -0.3147 -3.6223
  717MOL0     H96752   9.478   0.626   5.558 -1.9524  2.2228 -0.2408
  717MOL0     H96753   9.211   0.630   5.717 -0.6981  3.0678 -1.7477
  717MOL0     H96754   9.238   0.567   5.549  0.7717  0.1387 -0.6160
  717MOL0     H96755   9.039   0.682   5.651 -2.4699 -0.4238  1.0736
  717MOL0     H96756   8.701   0.749   5.548  2.6269 -1.9495 -2.5796
  717MOL0     H96757   8.787   0.673   5.674 -0.8812 -0.0742  0.7099
  717MOL0     H96758   8.737   0.843   5.694  0.6582  1.0559 -0.6477
  717MOL0     H96759   8.754   1.300   5.651 -0.8508 -0.4625  2.0534
  717MOL0     H96760   8.594   1.465   5.678 -0.0782 -0.6153 -0.6002
  717MOL0     H96761   8.316   1.614   5.402  1.2476 -0.0200  0.6026
  717MOL0     H96762   8.233   1.472   5.458 -0.9960 -0.6393  0.8847
  717MOL0     H96763   8.248   1.728   5.629  0.8555  0.5327 -1.5189
  717MOL0     H96764   8.112   1.678   5.532  1.6523  0.0650 -0.6928
  717MOL0     H96765   8.072   1.618   5.772 -0.7443 -3.0673  4.1389
  717MOL0     H96766   8.235   1.541   5.788  1.8139 -1.1393 -2.2610
  717MOL0     H96767   8.042   1.437   5.587 -0.9267 -0.3703  0.9332
  717MOL0     H96768   8.183   1.362   5.654 -1.3437 -1.7448 -2.7470
  717MOL0     H96769   7.922   1.424   5.791 -2.2986 -2.8225 -1.0846
  717MOL0     H96770   8.058   1.369   5.883 -0.2562 -2.5451  0.7673
  717MOL0     H96771   7.928   1.193   5.659 -1.5412  1.5980  0.1874
  717MOL0     H96772   8.094   1.171   5.740 -0.4168  1.4690 -2.1032
  717MOL0     H96773   7.834   1.205   5.884  2.2213  1.2394  1.8332
  717MOL0     H96774   7.979   1.135   5.958  3.3992 -1.3888 -0.6069
  717MOL0     H96775   7.951   0.937   5.797 -1.3278 -2.0450  0.9242
  717MOL0     H96776   7.792   1.014   5.755 -2.0818 -0.7671  2.5627
  717MOL0     H96777   8.384   1.345   5.330 -0.3963  0.9007  1.1458
  717MOL0     H96778   8.565   1.203   5.264 -2.6891  3.7263 -2.3132
  717MOL0     H96779   8.993   1.064   5.342 -0.9450  0.1625  0.0129
  717MOL0     H96780   9.220   0.926   5.389  0.3409 -2.5400  1.8852
  717MOL0     H96781  10.307   1.386   5.901 -0.7277 -2.0514 -4.6971
  717MOL0     H96782  10.461   1.298   6.088  0.4445 -2.1726  0.7958
  717MOL0     H96783  10.692   0.823   6.222 -0.7692  0.8635  0.5137
  717MOL0     H96784  10.840   0.734   6.392  1.2491  0.7698 -0.1537
  717MOL0     H96785  11.013   0.691   6.720  1.6163 -0.9579 -1.8947
  717MOL0     H96786  10.973   0.652   6.563  0.3599  1.3219 -1.2587
  717MOL0     H96787  11.087   0.914   6.662 -2.4246  0.1655 -0.2839
  717MOL0     H96788  11.042   0.889   6.492  3.1983 -0.9728 -2.5580
  717MOL0     H96789  11.215   0.749   6.446  0.6933  0.1843  0.3039
  717MOL0     H96790  11.246   0.695   6.613  3.5147  0.0388 -0.1211
  717MOL0     H96791  11.289   0.979   6.543 -3.4695 -0.4039  1.3955
  717MOL0     H96792  11.398   0.858   6.463 -0.0863  2.1281  0.0762
  717MOL0     H96793  11.515   0.857   6.873 -0.7122  0.2378 -0.8680
  717MOL0     H96794  10.663   0.987   6.685 -2.0755 -0.0071  0.0965
  717MOL0     H96795  10.511   1.078   6.512  0.8729  0.6927 -0.0422
  718MOL0     O96796   1.003   0.997   1.024 -0.2761  0.0101 -0.3291
  718MOL0     C96797   1.120   0.987   0.995 -0.3704 -0.0134 -0.0136
  718MOL0     O96798   1.182   0.873   0.945 -0.1132  0.1022 -0.3353
  718MOL0     C96799   1.107   0.761   0.927 -0.1953 -0.2857 -0.6580
  718MOL0     C96800   1.034   0.704   1.029 -0.2768  0.5689 -0.0565
  718MOL0     C96801   0.970   0.595   1.011 -0.1109  0.3371  0.3966
  718MOL0     C96802   0.953   0.539   0.884  0.3023 -1.4566 -0.4507
  718MOL0     O96803   0.867   0.434   0.871 -0.1457  0.0374  0.4139
  718MOL0     C96804   0.886   0.346   0.764  0.1439  0.7611 -0.3233
  718MOL0     C96805   0.784   0.372   0.647  0.0364  0.0693  0.5497
  718MOL0     C96806   0.639   0.368   0.693 -0.2985 -0.1327 -0.7218
  718MOL0     C96807   0.542   0.367   0.577  1.0433  0.7440  0.2454
  718MOL0     C96808   0.394   0.403   0.614 -1.2249  0.3701 -0.5557
  718MOL0     C96809   0.306   0.404   0.492  0.3309 -0.4976  0.6475
  718MOL0     C96810   0.156   0.414   0.527  0.1339 -0.1272  0.9291
  718MOL0     C96811   0.083   0.480   0.407 -0.3890  0.5138  0.2911
  718MOL0     N96812  -0.060   0.496   0.434 -0.3947 -0.1094 -0.0641
  718MOL0     C96813  -0.150   0.425   0.516  0.1604 -0.3313 -0.0211
  718MOL0     C96814  -0.266   0.491   0.509  0.8944 -0.4816 -0.5065
  718MOL0     C96815  -0.393   0.474   0.587 -0.1580  0.4383 -0.5498
  718MOL0     C96816  -0.491   0.392   0.502 -0.8052 -0.0744  0.2696
  718MOL0     C96817  -0.627   0.388   0.565 -0.6149 -0.0407  0.3607
  718MOL0     C96818  -0.727   0.311   0.470 -0.2210  0.3588  0.8542
  718MOL0     O96819  -0.700   0.166   0.444  0.6091 -0.6281 -0.2585
  718MOL0     C96820  -0.817   0.091   0.459 -0.4916 -0.2360 -0.4621
  718MOL0     C96821  -0.909   0.097   0.562 -0.5071 -0.5846  0.2926
  718MOL0     C96822  -1.024   0.011   0.579  0.6911  0.2532 -0.4237
  718MOL0     C96823  -1.104   0.032   0.698  0.0047  0.3779 -0.3564
  718MOL0     C96824  -1.051  -0.085   0.482 -0.3701 -0.6454 -0.2757
  718MOL0     C96825  -1.164  -0.184   0.487 -0.5319  0.1199 -0.4129
  718MOL0     O96826  -1.178  -0.250   0.361  0.0125 -0.3974 -0.4676
  718MOL0     C96827  -1.289  -0.338   0.359  0.0280 -0.0748  0.1803
  718MOL0     C96828  -1.414  -0.303   0.315 -0.0354 -0.5814 -0.4168
  718MOL0     C96829  -1.507  -0.402   0.292 -0.4144  0.2008 -0.1154
  718MOL0     C96830  -1.475  -0.546   0.311  1.0184  0.9104 -0.1180
  718MOL0     O96831  -1.570  -0.646   0.289  0.3323  0.3864 -0.1738
  718MOL0     C96832  -1.704  -0.596   0.325  0.1605  0.5480  0.6717
  718MOL0     C96833  -1.727  -0.570   0.474  0.4760  0.9076 -0.4233
  718MOL0     C96834  -1.873  -0.577   0.520 -0.0927  0.3487 -0.4294
  718MOL0     C96835  -1.893  -0.524   0.656  0.0705  0.0435  0.3900
  718MOL0     C96836  -1.828  -0.617   0.765  0.4682  0.3756 -0.4447
  718MOL0     C96837  -1.907  -0.641   0.900  0.2955  0.0132  0.6573
  718MOL0     C96838  -1.854  -0.757   0.988  0.1862 -0.0607  0.3156
  718MOL0     C96839  -1.963  -0.810   1.086  0.4965  0.7811 -0.0339
  718MOL0    Cl96840  -2.051  -0.943   1.011  0.1624 -0.1190  0.0884
  718MOL0     C96841  -1.354  -0.577   0.373 -1.3740 -0.9718  0.3918
  718MOL0     C96842  -1.261  -0.472   0.397 -0.0838  0.4718  0.0521
  718MOL0     O96843  -1.231  -0.211   0.588 -0.3066 -0.1053 -0.2248
  718MOL0     C96844  -0.953  -0.090   0.373 -0.5079  0.1339  0.1295
  718MOL0     C96845  -0.838  -0.018   0.373 -0.4929  0.5911 -0.0537
  718MOL0     N96846  -0.250   0.594   0.420  0.1716 -0.6564  0.1065
  718MOL0     N96847  -0.133   0.596   0.377  0.1095 -0.8679  0.0557
  718MOL0     C96848   1.018   0.598   0.783 -0.6156 -0.4293  0.7102
  718MOL0     C96849   1.102   0.705   0.802  1.0333 -0.3522  0.6747
  718MOL0     C96850   1.213   1.109   1.009 -0.1294  0.8177 -0.9651
  718MOL0     C96851   1.354   1.104   1.011  0.4021  0.0061 -0.5858
  718MOL0     C96852   1.428   1.217   1.030 -0.1002 -0.1956 -0.5433
  718MOL0     C96853   1.368   1.341   1.054 -0.4262  0.1063  0.6039
  718MOL0     O96854   1.464   1.441   1.068  0.5830  0.7924 -0.1929
  718MOL0     C96855   1.415   1.574   1.089 -0.1508 -0.0937 -0.2810
  718MOL0     C96856   1.543   1.660   1.113 -1.0622  0.2096 -0.1076
  718MOL0     C96857   1.517   1.778   1.205  0.3632  0.5148  0.2688
  718MOL0     C96858   1.444   1.894   1.139  0.2358  0.6177  0.3548
  718MOL0     C96859   1.378   1.991   1.230  0.7327  0.7731  1.2716
  718MOL0     C96860   1.342   2.065   1.318 -0.0180  0.7410  0.2288
  718MOL0     C96861   1.229   1.344   1.059  0.1465 -0.0874  0.4557
  718MOL0     C96862   1.149   1.228   1.035 -0.7259  0.4541 -0.8492
  718MOL0     H96863   1.050   0.746   1.128  2.3047 -0.0456 -0.1461
  718MOL0     H96864   0.915   0.545   1.090  0.4982 -1.0799 -0.0474
  718MOL0     H96865   0.991   0.353   0.733  1.3492 -3.6850  1.8881
  718MOL0     H96866   0.885   0.249   0.815  5.3061  1.4642  1.7176
  718MOL0     H96867   0.794   0.463   0.587  0.2576 -2.0083 -2.7776
  718MOL0     H96868   0.800   0.293   0.573  0.9874 -1.1614  2.0051
  718MOL0     H96869   0.622   0.271   0.740 -0.0029 -1.0620 -2.4825
  718MOL0     H96870   0.624   0.458   0.754 -0.7102 -2.9452  3.7741
  718MOL0     H96871   0.581   0.444   0.511  2.1783 -2.3450 -3.0324
  718MOL0     H96872   0.539   0.271   0.524 -0.9493  1.7791 -1.6607
  718MOL0     H96873   0.357   0.327   0.683  1.8166 -1.3665 -0.6549
  718MOL0     H96874   0.379   0.496   0.671  0.6648  0.7344 -0.5936
  718MOL0     H96875   0.330   0.480   0.417 -2.8179  1.5573  1.5237
  718MOL0     H96876   0.325   0.307   0.445  1.1875 -0.0610  0.0691
  718MOL0     H96877   0.117   0.313   0.545  2.4460 -1.2267  0.1863
  718MOL0     H96878   0.141   0.483   0.610  0.6758  2.3497 -0.9152
  718MOL0     H96879   0.077   0.417   0.318 -0.3334  0.8305  0.0637
  718MOL0     H96880   0.134   0.573   0.383 -1.7637  1.0174 -0.7789
  718MOL0     H96881  -0.141   0.332   0.572 -2.8542 -1.5826 -1.3942
  718MOL0     H96882  -0.366   0.414   0.674 -0.7724  0.6068 -0.2348
  718MOL0     H96883  -0.442   0.567   0.620  1.4334  0.7585  1.0484
  718MOL0     H96884  -0.451   0.291   0.488  0.3081  0.4555 -0.5436
  718MOL0     H96885  -0.488   0.429   0.399  3.7285 -0.5735  0.0107
  718MOL0     H96886  -0.660   0.491   0.579  1.7126  0.7347  0.5047
  718MOL0     H96887  -0.632   0.340   0.663  3.4104 -0.6716  0.4471
  718MOL0     H96888  -0.734   0.363   0.374 -0.5428 -0.0316  0.6657
  718MOL0     H96889  -0.826   0.315   0.515 -0.2394 -2.3442  1.2369
  718MOL0     H96890  -0.895   0.174   0.637 -1.8030  1.8343 -1.7912
  718MOL0     H96891  -1.061  -0.020   0.784  1.3747  0.8755 -0.7190
  718MOL0     H96892  -1.094   0.133   0.738  0.3535 -0.0527  0.6855
  718MOL0     H96893  -1.210   0.006   0.690  0.4551 -1.4407 -0.7594
  718MOL0     H96894  -1.437  -0.197   0.305  2.6504  0.1110  0.0386
  718MOL0     H96895  -1.605  -0.367   0.259 -2.0258 -1.0108  2.9940
  718MOL0     H96896  -1.738  -0.517   0.257 -0.2831 -0.9620 -0.9438
  718MOL0     H96897  -1.759  -0.685   0.293 -0.4057  1.8048 -2.2504
  718MOL0     H96898  -1.669  -0.641   0.533 -0.1410  2.1502  1.8087
  718MOL0     H96899  -1.685  -0.474   0.505  1.7449 -0.4229  2.2677
  718MOL0     H96900  -1.910  -0.680   0.521 -3.1750  1.3364  1.1190
  718MOL0     H96901  -1.931  -0.525   0.444  2.3180  0.5096 -2.2695
  718MOL0     H96902  -1.860  -0.421   0.670  2.0195 -0.7188  1.8102
  718MOL0     H96903  -2.001  -0.516   0.663  0.2466  3.2318  0.8811
  718MOL0     H96904  -1.738  -0.566   0.801 -0.6841  1.2407  1.4125
  718MOL0     H96905  -1.797  -0.709   0.716  2.7237  0.7304  0.1993
  718MOL0     H96906  -1.898  -0.550   0.960  1.3245  0.5063 -0.2079
  718MOL0     H96907  -2.010  -0.671   0.878  0.6653 -1.2231  0.5156
  718MOL0     H96908  -1.771  -0.718   1.046 -1.3169 -0.3958  2.8674
  718MOL0     H96909  -1.826  -0.828   0.910  1.9075 -0.6073  1.3893
  718MOL0     H96910  -2.033  -0.734   1.122 -3.4571 -1.2577 -2.6739
  718MOL0     H96911  -1.921  -0.855   1.177 -0.6393  0.3695  0.3016
  718MOL0     H96912  -1.329  -0.681   0.390 -1.9940 -1.3293 -0.7142
  718MOL0     H96913  -1.159  -0.499   0.420 -0.0785  0.3928 -0.0671
  718MOL0     H96914  -0.977  -0.153   0.288 -1.4047  1.7990 -0.9104
  718MOL0     H96915  -0.759  -0.030   0.299  1.5064 -1.8297  2.2561
  718MOL0     H96916   1.007   0.558   0.683  0.9179  2.0795 -0.5373
  718MOL0     H96917   1.161   0.741   0.718  0.3633 -3.2784 -1.1708
  718MOL0     H96918   1.405   1.009   0.998  0.7542  0.4646 -2.9640
  718MOL0     H96919   1.536   1.222   1.019  0.0242  1.0426  0.9158
  718MOL0     H96920   1.373   1.609   0.994 -1.8008 -0.3525  0.3349
  718MOL0     H96921   1.343   1.589   1.170  1.3532  0.1877  1.0570
  718MOL0     H96922   1.583   1.700   1.020  1.1778  0.2514  0.8037
  718MOL0     H96923   1.624   1.605   1.162 -0.1911  1.4112 -0.1621
  718MOL0     H96924   1.615   1.809   1.244 -0.0089 -1.8185  3.3774
  718MOL0     H96925   1.447   1.742   1.280 -2.6852  0.2384 -2.4756
  718MOL0     H96926   1.369   1.845   1.075  0.3927 -0.3355  0.8812
  718MOL0     H96927   1.517   1.951   1.080  0.8216 -0.1328  0.3380
  718MOL0     H96928   1.311   2.135   1.393 -0.5617 -0.2105  0.9149
  718MOL0     H96929   1.173   1.433   1.085 -1.6993 -1.1710  0.3638
  718MOL0     H96930   1.041   1.232   1.040 -0.8979  0.3473 -3.3206
  719MOL0     O96931   3.096   4.466   1.062 -0.0885 -0.8178 -0.0943
  719MOL0     C96932   3.126   4.528   1.165  0.1849  0.1449 -0.3906
  719MOL0     O96933   3.246   4.587   1.185 -0.0238 -0.0291  0.1089
  719MOL0     C96934   3.356   4.582   1.096  0.8581  0.0818 -1.2188
  719MOL0     C96935   3.480   4.553   1.152 -0.0210 -1.1747 -0.5609
  719MOL0     C96936   3.595   4.572   1.077 -0.3399  0.6161 -0.1917
  719MOL0     C96937   3.586   4.607   0.946 -0.2728  0.1225  1.0084
  719MOL0     O96938   3.705   4.620   0.884 -0.4207  1.3607  0.5465
  719MOL0     C96939   3.708   4.678   0.757  0.3364  0.2051  0.2417
  719MOL0     C96940   3.850   4.687   0.689 -0.3601 -0.3808  0.7124
  719MOL0     C96941   3.931   4.560   0.698 -0.2025  0.2872 -0.5612
  719MOL0     C96942   4.032   4.556   0.586 -0.1621 -0.1127  0.0939
  719MOL0     C96943   4.142   4.666   0.593 -0.4918 -0.2598  0.4743
  719MOL0     C96944   4.210   4.686   0.458  0.0513  0.1818  0.4263
  719MOL0     C96945   4.302   4.580   0.397 -0.1003 -0.1404 -0.1863
  719MOL0     C96946   4.363   4.620   0.267  0.2117 -0.9764  0.6458
  719MOL0     N96947   4.445   4.513   0.212 -0.4454 -0.7454  0.0636
  719MOL0     C96948   4.399   4.405   0.165  0.0243  0.6817  0.7427
  719MOL0     C96949   4.515   4.341   0.128 -0.2651  0.6954  0.2124
  719MOL0     C96950   4.524   4.204   0.070  0.7043  0.2838  0.2079
  719MOL0     C96951   4.510   4.214  -0.089 -0.2936  0.1042  0.0622
  719MOL0     C96952   4.449   4.091  -0.152  0.1900 -0.0955  0.1726
  719MOL0     C96953   4.537   3.972  -0.147  0.3930  0.6913  0.0721
  719MOL0     O96954   4.514   3.924  -0.018 -0.1754 -0.4550  0.0213
  719MOL0     C96955   4.595   3.821   0.020  0.2708  0.5599 -0.8898
  719MOL0     C96956   4.704   3.760  -0.050  0.3731 -0.1006  0.2282
  719MOL0     C96957   4.779   3.655  -0.005  0.5397 -0.1058  1.2437
  719MOL0     C96958   4.891   3.602  -0.104  0.4040 -0.4879 -0.7378
  719MOL0     C96959   4.749   3.598   0.120 -0.4421  0.7550 -0.1854
  719MOL0     C96960   4.846   3.494   0.184 -0.0106 -0.6581 -0.7182
  719MOL0     O96961   4.972   3.513   0.159 -0.3717  0.3635 -0.0998
  719MOL0     C96962   5.066   3.430   0.217  0.0664  0.4189 -0.1276
  719MOL0     C96963   5.061   3.292   0.182  0.1887 -0.4702 -0.1296
  719MOL0     C96964   5.160   3.201   0.229  0.1049  0.4170 -0.7817
  719MOL0     C96965   5.270   3.252   0.299 -0.3709 -1.1736 -0.6335
  719MOL0     O96966   5.367   3.159   0.335  0.7717  0.1888  0.9829
  719MOL0     C96967   5.464   3.191   0.434  0.1813 -0.1534  0.2984
  719MOL0     C96968   5.589   3.219   0.367  0.0722 -0.1046  0.1452
  719MOL0     C96969   5.660   3.089   0.334 -0.1308  1.1775 -0.0190
  719MOL0     C96970   5.781   3.107   0.245 -0.5512  0.3213 -0.1471
  719MOL0     C96971   5.903   3.159   0.326  0.7815 -0.2226  0.4387
  719MOL0     C96972   6.020   3.183   0.227  0.6879  0.2721  0.1336
  719MOL0     C96973   6.080   3.059   0.172 -0.2231 -0.0265 -0.0644
  719MOL0     C96974   6.180   3.095   0.061 -0.4135  0.2324 -0.1028
  719MOL0    Cl96975   6.308   3.201   0.129 -0.0582 -0.2351  0.1139
  719MOL0     C96976   5.282   3.391   0.327  0.4513 -0.7312 -0.1467
  719MOL0     C96977   5.177   3.481   0.287  0.1045  0.1804 -0.2443
  719MOL0     O96978   4.787   3.418   0.263 -1.1241 -0.4117 -0.1614
  719MOL0     C96979   4.641   3.647   0.193  0.1492 -0.4946  0.2558
  719MOL0     C96980   4.567   3.756   0.139 -0.0758 -0.1464 -0.0655
  719MOL0     N96981   4.626   4.410   0.174 -0.4062  0.4156 -0.7786
  719MOL0     N96982   4.575   4.517   0.223 -0.0085 -0.5710 -0.1252
  719MOL0     C96983   3.454   4.618   0.885 -0.1491  0.6099 -0.0422
  719MOL0     C96984   3.339   4.609   0.956  0.2032 -0.0080  0.0803
  719MOL0     C96985   3.023   4.554   1.271 -0.2835 -0.7131  0.5107
  719MOL0     C96986   3.035   4.661   1.368 -0.1593  0.6157  0.3028
  719MOL0     C96987   2.937   4.684   1.462 -0.1745  0.0981  0.3252
  719MOL0     C96988   2.818   4.604   1.456 -1.0760 -1.3330  0.0960
  719MOL0     O96989   2.706   4.631   1.536 -0.0656 -0.5268 -0.2310
  719MOL0     C96990   2.720   4.574   1.666  0.3228 -0.3526 -0.8640
  719MOL0     C96991   2.624   4.635   1.762 -0.5440  0.3843 -0.1037
  719MOL0     C96992   2.624   4.559   1.904  0.8355  0.1802  1.4026
  719MOL0     C96993   2.499   4.614   1.971  1.0185 -0.4010 -0.5811
  719MOL0     C96994   2.449   4.528   2.077 -0.8220  0.3578 -0.5095
  719MOL0     C96995   2.419   4.453   2.168  0.0715  0.1995  0.1149
  719MOL0     C96996   2.818   4.496   1.371  0.2215 -0.0286  0.3480
  719MOL0     C96997   2.908   4.466   1.269 -0.3195 -0.3839  0.1346
  719MOL0     H96998   3.492   4.535   1.258 -2.6079  1.3791  0.2641
  719MOL0     H96999   3.694   4.564   1.120 -1.1104  0.5353  1.6614
  719MOL0     H97000   3.646   4.617   0.691  1.2596 -1.5841  0.9372
  719MOL0     H97001   3.668   4.778   0.772 -1.8800 -1.0350  4.1084
  719MOL0     H97002   3.835   4.727   0.589  1.2726 -2.2681 -0.3594
  719MOL0     H97003   3.906   4.771   0.730  2.0228 -0.2008 -2.5343
  719MOL0     H97004   3.996   4.560   0.786  1.1509  1.7107 -1.5093
  719MOL0     H97005   3.859   4.478   0.703 -0.0535  0.2039  0.5223
  719MOL0     H97006   4.074   4.456   0.595  1.6806  0.4983 -1.1786
  719MOL0     H97007   3.975   4.540   0.494 -0.0701 -0.8765  0.1600
  719MOL0     H97008   4.106   4.766   0.619 -0.5448  0.1692 -1.1423
  719MOL0     H97009   4.215   4.629   0.665  0.9622 -0.1077 -0.8622
  719MOL0     H97010   4.130   4.705   0.385 -4.3424 -6.3603  2.5990
  719MOL0     H97011   4.278   4.770   0.472  0.4008  0.9159 -3.9918
  719MOL0     H97012   4.388   4.553   0.458  1.3731  3.3949 -0.4425
  719MOL0     H97013   4.244   4.493   0.368 -0.4675  0.9327 -3.0577
  719MOL0     H97014   4.415   4.713   0.291  0.0404 -0.9687  0.9960
  719MOL0     H97015   4.281   4.650   0.201 -0.7759 -1.2322  1.7280
  719MOL0     H97016   4.298   4.375   0.139  0.5737  1.7268 -3.2457
  719MOL0     H97017   4.617   4.157   0.103 -0.1954 -1.3680  0.4892
  719MOL0     H97018   4.440   4.146   0.108  1.4256  1.5694  4.2994
  719MOL0     H97019   4.610   4.228  -0.132  1.1175 -3.0593  1.9213
  719MOL0     H97020   4.446   4.300  -0.111  0.0933  1.4873  3.5903
  719MOL0     H97021   4.431   4.111  -0.257 -1.6507 -3.9868 -0.4131
  719MOL0     H97022   4.350   4.077  -0.108  0.5374  2.8359  2.1613
  719MOL0     H97023   4.641   4.004  -0.149  0.7766 -0.1657  2.8294
  719MOL0     H97024   4.504   3.894  -0.217  3.2195  1.3255 -2.1427
  719MOL0     H97025   4.728   3.802  -0.148 -1.8313  2.1152  0.5184
  719MOL0     H97026   4.990   3.642  -0.080 -0.7240  1.1744  1.4496
  719MOL0     H97027   4.888   3.493  -0.098  0.3699 -0.3955  1.5352
  719MOL0     H97028   4.871   3.639  -0.205  0.0125  0.3477 -0.3632
  719MOL0     H97029   4.979   3.267   0.116  1.6883  0.2741 -2.4242
  719MOL0     H97030   5.157   3.097   0.198  1.7702  0.5990 -1.6616
  719MOL0     H97031   5.428   3.278   0.490 -0.0459 -1.3667  2.1191
  719MOL0     H97032   5.462   3.102   0.498 -1.6341 -1.5900 -1.5860
  719MOL0     H97033   5.558   3.269   0.275  0.9332  0.4594  0.1551
  719MOL0     H97034   5.655   3.284   0.425  0.1681 -0.5090  0.4936
  719MOL0     H97035   5.599   3.016   0.281  4.3121 -1.1888 -2.4815
  719MOL0     H97036   5.695   3.043   0.427 -0.9786  3.3647  1.4798
  719MOL0     H97037   5.803   3.006   0.209 -1.8457 -0.5092  1.2730
  719MOL0     H97038   5.764   3.176   0.162 -0.5044  2.1804  1.3153
  719MOL0     H97039   5.937   3.080   0.394  5.3542  1.2723  0.2682
  719MOL0     H97040   5.872   3.252   0.374  1.4498  0.8705 -1.1783
  719MOL0     H97041   5.999   3.247   0.141  5.2480  0.0044 -1.4560
  719MOL0     H97042   6.099   3.236   0.282  1.2679 -1.9610  1.6200
  719MOL0     H97043   6.000   2.989   0.148 -0.3240 -0.0500  0.3409
  719MOL0     H97044   6.137   3.012   0.253  3.2904 -0.2668 -2.4371
  719MOL0     H97045   6.129   3.146  -0.022 -0.9161  1.2110  0.7844
  719MOL0     H97046   6.231   3.003   0.029 -0.1852 -0.4822  2.1382
  719MOL0     H97047   5.374   3.434   0.365  1.5134 -2.4178 -0.7077
  719MOL0     H97048   5.191   3.588   0.300  0.2789  0.1792 -0.4171
  719MOL0     H97049   4.615   3.594   0.285 -0.7309 -2.2562 -0.9513
  719MOL0     H97050   4.478   3.783   0.195 -1.0122 -1.4342 -0.8884
  719MOL0     H97051   3.444   4.633   0.778  2.9847  5.2057  0.0522
  719MOL0     H97052   3.246   4.644   0.913  0.6326  2.6518  1.1310
  719MOL0     H97053   3.120   4.725   1.350 -0.9562  0.9872 -2.6454
  719MOL0     H97054   2.936   4.761   1.539 -0.1005 -1.0836  1.5361
  719MOL0     H97055   2.701   4.467   1.653 -0.7376  0.0919 -3.6953
  719MOL0     H97056   2.822   4.585   1.703  0.5151 -0.9756 -1.2047
  719MOL0     H97057   2.525   4.628   1.714  0.3032  2.1715 -2.2766
  719MOL0     H97058   2.645   4.742   1.767 -0.1156  0.5001 -2.8598
  719MOL0     H97059   2.712   4.568   1.967  3.0749 -3.0300 -0.9468
  719MOL0     H97060   2.610   4.451   1.894  1.8390  0.0310  1.5327
  719MOL0     H97061   2.414   4.620   1.902 -0.8776 -0.5700  1.6150
  719MOL0     H97062   2.512   4.714   2.015  2.4053 -1.4774  1.5865
  719MOL0     H97063   2.396   4.380   2.244 -0.0159 -0.7800 -0.8255
  719MOL0     H97064   2.745   4.417   1.382 -1.5878  1.7201  1.6133
  719MOL0     H97065   2.911   4.381   1.201  1.0966 -1.3581  1.3506
  720MOL0     O97066   9.721   2.657  10.638 -0.4574 -0.1682 -0.3203
  720MOL0     C97067   9.790   2.755  10.602 -0.0996  0.7773 -0.6904
  720MOL0     O97068   9.783   2.823  10.483  0.0076  0.1959 -0.6754
  720MOL0     C97069   9.675   2.835  10.401 -1.0798 -0.2295 -0.0021
  720MOL0     C97070   9.552   2.779  10.423  0.4373 -0.2081  0.1816
  720MOL0     C97071   9.444   2.803  10.352 -0.0435 -0.3290  0.1844
  720MOL0     C97072   9.456   2.886  10.234  0.2631  0.3462 -0.5434
  720MOL0     O97073   9.337   2.891  10.172 -0.0304 -0.5525  0.2001
  720MOL0     C97074   9.327   2.994  10.069 -0.2605  0.8301 -0.3648
  720MOL0     C97075   9.188   2.997  10.012 -1.3685 -0.3396 -0.2515
  720MOL0     C97076   9.076   3.043  10.109 -0.1873 -0.2764 -0.4196
  720MOL0     C97077   9.037   3.187  10.094  0.0163 -0.5620 -0.5776
  720MOL0     C97078   8.962   3.234  10.221 -0.2618 -0.5201 -0.3495
  720MOL0     C97079   8.823   3.161  10.241  0.3255  0.2056 -0.7318
  720MOL0     C97080   8.717   3.195  10.136  0.3343  0.4185  0.6938
  720MOL0     C97081   8.575   3.139  10.156 -0.2805  0.0135 -0.5000
  720MOL0     N97082   8.500   3.223  10.248  0.1837 -0.8149  0.1243
  720MOL0     C97083   8.479   3.358  10.238 -0.4477 -0.3537  0.6362
  720MOL0     C97084   8.408   3.392  10.347  0.2183 -0.5211  0.7278
  720MOL0     C97085   8.338   3.522  10.379 -0.2970  0.2577  0.1604
  720MOL0     C97086   8.303   3.613  10.247 -0.5708 -0.2897  0.4424
  720MOL0     C97087   8.219   3.728  10.282  0.9451 -0.1867 -0.1551
  720MOL0     C97088   8.072   3.704  10.322 -0.0175  0.0938  0.8459
  720MOL0     O97089   8.010   3.626  10.219  0.1558  0.2328 -0.6281
  720MOL0     C97090   7.877   3.612  10.237 -0.7763  0.1322  0.5207
  720MOL0     C97091   7.820   3.575  10.362 -0.2408 -1.0366 -0.2067
  720MOL0     C97092   7.683   3.557  10.371  0.1167  1.3837 -0.2548
  720MOL0     C97093   7.646   3.518  10.510  0.8039  0.4659 -0.5830
  720MOL0     C97094   7.598   3.550  10.248 -0.2406  0.5389  0.3614
  720MOL0     C97095   7.449   3.515  10.252  1.1809 -0.6874  0.2320
  720MOL0     O97096   7.389   3.494  10.371 -0.3155  0.9399  0.0391
  720MOL0     C97097   7.263   3.432  10.365  0.2921 -0.0083  0.2816
  720MOL0     C97098   7.255   3.293  10.372  0.3909 -0.9426 -0.5517
  720MOL0     C97099   7.130   3.234  10.370 -0.6739  0.0046 -0.3031
  720MOL0     C97100   7.016   3.321  10.355 -0.6226 -0.5374  0.1655
  720MOL0     O97101   6.895   3.259  10.341  0.0192  1.2834 -0.0141
  720MOL0     C97102   6.853   3.212  10.208 -0.0386  0.3065  0.7264
  720MOL0     C97103   6.710   3.158  10.219 -1.2617 -0.1303 -0.6451
  720MOL0     C97104   6.654   3.123  10.076  0.1192  0.3821 -0.6038
  720MOL0     C97105   6.508   3.106  10.076 -0.3051 -0.1412 -0.6200
  720MOL0     C97106   6.451   3.080   9.948  0.6194  0.2080  1.1462
  720MOL0     C97107   6.293   3.063   9.949  0.0871 -0.5020  0.5284
  720MOL0     C97108   6.261   2.974   9.835  0.4132 -0.1151  0.7150
  720MOL0     C97109   6.111   2.940   9.834  0.1066  0.2313  0.0143
  720MOL0    Cl97110   6.107   2.812   9.714 -0.0941 -0.1085 -0.2162
  720MOL0     C97111   7.020   3.462  10.353  0.2045 -0.7922  0.1170
  720MOL0     C97112   7.153   3.516  10.353  0.0471  0.1356  0.6859
  720MOL0     O97113   7.402   3.490  10.139  0.3188 -0.9325  0.5725
  720MOL0     C97114   7.666   3.578  10.132  0.2345  0.2077  0.1248
  720MOL0     C97115   7.796   3.622  10.125  0.0892 -0.8845 -0.2844
  720MOL0     N97116   8.398   3.275  10.425 -0.5230  0.4708 -0.3892
  720MOL0     N97117   8.459   3.181  10.370 -0.3467 -0.3609  0.5415
  720MOL0     C97118   9.582   2.932  10.201 -0.2153  1.0226 -0.4532
  720MOL0     C97119   9.688   2.907  10.280  0.0831 -0.2563 -0.1540
  720MOL0     C97120   9.892   2.784  10.696  0.6118 -0.3160  0.0403
  720MOL0     C97121   9.878   2.763  10.835 -0.6945  0.4727  1.0138
  720MOL0     C97122   9.987   2.778  10.924 -0.1663 -0.5707 -0.0761
  720MOL0     C97123  10.109   2.838  10.875  0.1442  1.1621 -0.8804
  720MOL0     O97124  10.206   2.855  10.971 -0.2964 -0.5128 -0.0270
  720MOL0     C97125  10.321   2.936  10.932  0.0124  0.5227 -0.0915
  720MOL0     C97126  10.287   3.088  10.932  0.5615  0.6266  0.7133
  720MOL0     C97127  10.205   3.128  11.054  0.7283 -0.5069  0.2922
  720MOL0     C97128  10.144   3.266  11.050  0.1623 -0.7715  0.0064
  720MOL0     C97129  10.235   3.365  11.091  0.3042 -1.2179 -0.3392
  720MOL0     C97130  10.307   3.458  11.114 -0.3976 -0.5420  0.5246
  720MOL0     C97131  10.122   2.870  10.737 -0.0973 -0.2568 -0.9455
  720MOL0     C97132  10.015   2.829  10.657 -0.0176  0.6539  0.2672
  720MOL0     H97133   9.533   2.724  10.515  0.1862 -1.1361 -0.4158
  720MOL0     H97134   9.349   2.757  10.375 -1.3475  1.5100 -1.2092
  720MOL0     H97135   9.367   3.087  10.111 -2.1987  0.4785  2.5525
  720MOL0     H97136   9.392   2.965   9.986 -0.9488 -3.2877  0.3331
  720MOL0     H97137   9.189   3.074   9.934  1.3442 -1.8923 -1.9179
  720MOL0     H97138   9.160   2.901   9.969 -0.9990  0.2098 -1.7924
  720MOL0     H97139   8.987   2.982  10.095  0.7471 -1.2940 -2.4750
  720MOL0     H97140   9.118   3.019  10.207 -0.7423 -0.7359 -0.2869
  720MOL0     H97141   9.131   3.243  10.105 -0.5164 -0.0688  2.5911
  720MOL0     H97142   8.984   3.211  10.002 -0.5465 -1.7276 -0.5739
  720MOL0     H97143   9.015   3.220  10.315 -1.7336 -0.2322  0.5499
  720MOL0     H97144   8.951   3.341  10.203  0.4508 -0.6211 -1.5253
  720MOL0     H97145   8.820   3.051  10.245  0.0487  0.2415  3.2515
  720MOL0     H97146   8.778   3.195  10.334 -0.1233 -0.4180 -0.7136
  720MOL0     H97147   8.703   3.301  10.112 -3.6207 -0.6550 -2.9162
  720MOL0     H97148   8.741   3.141  10.044 -1.1613 -1.4143  1.3125
  720MOL0     H97149   8.588   3.044  10.210  1.0745 -0.9630 -2.4195
  720MOL0     H97150   8.525   3.114  10.062  0.9295 -2.1086 -0.6596
  720MOL0     H97151   8.509   3.429  10.162 -1.7390 -0.2639  0.1923
  720MOL0     H97152   8.253   3.500  10.443  2.2104 -2.2526  2.9455
  720MOL0     H97153   8.410   3.564  10.450 -0.4786 -3.2380  2.6324
  720MOL0     H97154   8.245   3.562  10.169  1.3740 -0.7428 -0.7828
  720MOL0     H97155   8.398   3.648  10.206  0.1722 -0.8979  1.6030
  720MOL0     H97156   8.219   3.793  10.194  1.3379 -0.8789 -0.6767
  720MOL0     H97157   8.269   3.784  10.361  2.9143 -2.0228 -0.0153
  720MOL0     H97158   8.037   3.807  10.313 -0.4664 -0.0248  1.2146
  720MOL0     H97159   8.073   3.665  10.424 -2.4372 -1.4291  0.3876
  720MOL0     H97160   7.896   3.556  10.438  1.8009  2.0428 -1.2802
  720MOL0     H97161   7.626   3.411  10.495 -0.7529  0.7216 -0.5034
  720MOL0     H97162   7.724   3.527  10.586  0.3761 -2.2854  0.3010
  720MOL0     H97163   7.559   3.571  10.549  0.6080 -1.7046  2.2699
  720MOL0     H97164   7.339   3.225  10.363  0.0405 -1.6123  0.9484
  720MOL0     H97165   7.122   3.126  10.375  0.4273 -0.0411  4.4531
  720MOL0     H97166   6.861   3.294  10.136  0.3808 -1.8087 -1.8237
  720MOL0     H97167   6.928   3.142  10.170  0.0673  0.8058 -0.0082
  720MOL0     H97168   6.717   3.064  10.275  1.2005  0.3519 -0.0221
  720MOL0     H97169   6.657   3.228  10.284  0.1525 -1.2550  1.8664
  720MOL0     H97170   6.704   3.039  10.029  0.2674  1.7772 -3.0824
  720MOL0     H97171   6.669   3.203  10.003  0.4531  2.2750  1.3945
  720MOL0     H97172   6.480   3.024  10.143 -0.8785  0.3643 -0.2279
  720MOL0     H97173   6.468   3.201  10.115  3.7282  1.4158  0.2088
  720MOL0     H97174   6.500   2.993   9.903 -1.0356 -0.5468  0.7312
  720MOL0     H97175   6.477   3.163   9.881 -1.6330 -0.0109 -0.1017
  720MOL0     H97176   6.264   3.012  10.041  0.2082 -3.6685 -1.0697
  720MOL0     H97177   6.233   3.155   9.946  0.4370 -0.2294  1.4087
  720MOL0     H97178   6.310   2.876   9.843  3.4161  1.0674 -1.3421
  720MOL0     H97179   6.293   3.019   9.741  1.8447 -2.2211  0.1241
  720MOL0     H97180   6.033   3.015   9.814  1.3063  0.6837 -4.0170
  720MOL0     H97181   6.075   2.905   9.931 -0.9082 -2.7322 -1.3195
  720MOL0     H97182   6.932   3.526  10.346  1.2322  0.8710  1.5491
  720MOL0     H97183   7.156   3.624  10.344 -0.5127  0.0295 -1.2484
  720MOL0     H97184   7.627   3.565  10.032 -0.6541  0.3190  0.4440
  720MOL0     H97185   7.827   3.633  10.022  0.0156  0.3750 -0.1915
  720MOL0     H97186   9.589   2.991  10.111  0.6547  0.4207 -0.7964
  720MOL0     H97187   9.778   2.965  10.262 -0.5679  1.4672  1.7094
  720MOL0     H97188   9.778   2.738  10.870 -1.6750 -0.4537 -2.1524
  720MOL0     H97189   9.974   2.743  11.026 -0.0701  0.5111  0.3201
  720MOL0     H97190  10.405   2.924  11.001 -1.3276  1.2504  1.7456
  720MOL0     H97191  10.363   2.897  10.839 -0.1969 -0.0864  0.0610
  720MOL0     H97192  10.246   3.125  10.837  1.3301  1.5549  0.7202
  720MOL0     H97193  10.382   3.144  10.938  0.7946  0.2388  0.6714
  720MOL0     H97194  10.260   3.117  11.147 -1.8064 -3.0605  1.6515
  720MOL0     H97195  10.117   3.065  11.071  0.7981 -0.5118  0.6499
  720MOL0     H97196  10.055   3.256  11.114  1.0505 -4.2801  0.9064
  720MOL0     H97197  10.111   3.292  10.949  0.9813 -2.9284 -0.8818
  720MOL0     H97198  10.367   3.547  11.126  1.6746 -1.7880 -0.0228
  720MOL0     H97199  10.211   2.923  10.707  2.4236 -3.1511  0.8122
  720MOL0     H97200  10.032   2.844  10.551  1.2388 -2.2638 -0.0257
  721MOL0     O97201   4.796   6.867   7.486  0.0610  0.8914 -0.4515
  721MOL0     C97202   4.686   6.895   7.444 -0.2956  0.5839 -0.3680
  721MOL0     O97203   4.607   6.992   7.497 -0.0101 -0.0057  1.0107
  721MOL0     C97204   4.645   7.048   7.619  0.0289 -0.0628  0.3534
  721MOL0     C97205   4.655   7.190   7.641  0.0364  0.4159 -1.3470
  721MOL0     C97206   4.704   7.233   7.766  0.0519 -0.1242  0.1265
  721MOL0     C97207   4.711   7.148   7.880 -0.2475 -0.0201 -0.4760
  721MOL0     O97208   4.752   7.186   8.008  0.2939  0.3779  0.4844
  721MOL0     C97209   4.834   7.312   8.002  0.2470 -0.5384  0.4850
  721MOL0     C97210   4.738   7.420   8.038 -0.6235 -0.2253 -1.3327
  721MOL0     C97211   4.792   7.561   8.060 -0.3081 -0.2032  0.1046
  721MOL0     C97212   4.910   7.571   8.148  0.5368  0.1434  0.2525
  721MOL0     C97213   4.935   7.720   8.196  0.3240  0.0944  1.0252
  721MOL0     C97214   4.918   7.830   8.088  0.5263 -0.5645 -0.1782
  721MOL0     C97215   4.942   7.958   8.149  0.6936 -0.7247 -0.8164
  721MOL0     C97216   4.840   8.001   8.265 -0.1457  0.2915  0.5830
  721MOL0     N97217   4.698   8.003   8.215  0.4219  0.3928  0.0718
  721MOL0     C97218   4.610   7.897   8.233  0.2334  0.0168 -0.1579
  721MOL0     C97219   4.494   7.928   8.173  0.4082 -0.4182  0.3698
  721MOL0     C97220   4.359   7.861   8.204  0.5055 -0.6794  0.5978
  721MOL0     C97221   4.275   7.955   8.290 -0.8017  0.5842 -0.3716
  721MOL0     C97222   4.341   8.027   8.407 -0.2661  0.0442 -0.7919
  721MOL0     C97223   4.388   7.926   8.517 -0.3646  0.1816  1.2491
  721MOL0     O97224   4.311   7.942   8.634 -1.0148  0.3558 -0.7853
  721MOL0     C97225   4.190   7.879   8.647 -0.6232 -0.3808 -0.1439
  721MOL0     C97226   4.171   7.741   8.647  0.0336  0.5048 -0.4245
  721MOL0     C97227   4.048   7.676   8.664  0.7619 -0.4517 -0.5815
  721MOL0     C97228   4.042   7.525   8.666  0.1707 -0.4585 -0.0952
  721MOL0     C97229   3.933   7.758   8.686 -0.6230 -0.0448 -0.7927
  721MOL0     C97230   3.800   7.711   8.711  0.5279  0.9120 -0.5784
  721MOL0     O97231   3.699   7.785   8.649 -0.2177  0.0953  0.3543
  721MOL0     C97232   3.569   7.755   8.667 -0.2775 -0.2200  0.1960
  721MOL0     C97233   3.511   7.825   8.770  0.1240 -0.0183  0.2185
  721MOL0     C97234   3.373   7.820   8.798 -0.0392  0.0023 -0.3658
  721MOL0     C97235   3.297   7.730   8.724 -0.2241  0.2209 -0.6953
  721MOL0     O97236   3.164   7.710   8.769  0.0798 -0.1392  0.7772
  721MOL0     C97237   3.076   7.641   8.684  0.9112 -0.2857 -0.0955
  721MOL0     C97238   2.951   7.591   8.765 -0.2590 -0.3003 -0.0513
  721MOL0     C97239   2.842   7.694   8.793  0.1870 -0.1182  0.1230
  721MOL0     C97240   2.744   7.646   8.895  0.2133  0.1005 -0.7400
  721MOL0     C97241   2.638   7.740   8.914  0.5300 -1.3370 -0.0958
  721MOL0     C97242   2.540   7.686   9.017 -0.3763 -0.5010 -0.1095
  721MOL0     C97243   2.454   7.802   9.077  0.2252  1.2023  0.0261
  721MOL0     C97244   2.325   7.745   9.136 -0.2472  0.9553 -0.1825
  721MOL0    Cl97245   2.210   7.877   9.179  0.1717 -0.2848 -0.0460
  721MOL0     C97246   3.352   7.657   8.616 -0.8840 -0.3210 -0.3060
  721MOL0     C97247   3.487   7.679   8.587 -0.1955  0.7550  0.2400
  721MOL0     O97248   3.775   7.630   8.808  0.8591  0.1650  0.8600
  721MOL0     C97249   3.967   7.895   8.697  0.0516 -0.2782 -0.7646
  721MOL0     C97250   4.087   7.953   8.686  0.1284 -0.3358 -0.5156
  721MOL0     N97251   4.518   8.048   8.111 -0.0662  0.2974  0.0449
  721MOL0     N97252   4.639   8.086   8.132 -0.5730  0.1592 -0.0172
  721MOL0     C97253   4.668   7.016   7.866  0.6397  0.5177  0.4925
  721MOL0     C97254   4.647   6.971   7.735 -0.1803 -0.4060  0.5222
  721MOL0     C97255   4.622   6.821   7.328 -0.0872  0.4833  1.2205
  721MOL0     C97256   4.496   6.861   7.267  0.2318  0.2406 -0.5056
  721MOL0     C97257   4.433   6.781   7.161  0.4431 -0.1756 -0.9542
  721MOL0     C97258   4.493   6.665   7.120 -0.0995  0.2769 -1.1679
  721MOL0     O97259   4.428   6.602   7.015 -0.0718  0.3300 -0.6597
  721MOL0     C97260   4.472   6.469   6.977 -0.1391 -1.1211  0.6410
  721MOL0     C97261   4.381   6.388   6.878  0.0070 -1.0808 -0.5461
  721MOL0     C97262   4.305   6.273   6.952 -0.1435  1.0151  0.6776
  721MOL0     C97263   4.235   6.175   6.847 -0.3241  1.0754  0.7795
  721MOL0     C97264   4.117   6.101   6.893  0.7381  0.1560 -0.4573
  721MOL0     C97265   4.009   6.045   6.916 -0.5091  0.3074 -0.8536
  721MOL0     C97266   4.612   6.625   7.176  0.5984  0.1568 -0.5593
  721MOL0     C97267   4.675   6.692   7.286 -0.6136 -0.9174  0.7456
  721MOL0     H97268   4.632   7.273   7.576 -2.5371  0.5734 -0.3536
  721MOL0     H97269   4.739   7.335   7.763 -3.2841  1.1213 -0.6668
  721MOL0     H97270   4.923   7.305   8.067  0.3597  0.9892  0.5330
  721MOL0     H97271   4.882   7.328   7.905 -0.6461  3.3171  0.5432
  721MOL0     H97272   4.669   7.440   7.956  0.4732  0.4371 -2.1175
  721MOL0     H97273   4.689   7.376   8.125  0.4363  1.4156  0.1737
  721MOL0     H97274   4.818   7.601   7.961 -0.3567  1.3229  0.6927
  721MOL0     H97275   4.714   7.616   8.113  1.0034 -0.9091  2.9421
  721MOL0     H97276   4.910   7.501   8.232  1.2648  1.7881  1.6736
  721MOL0     H97277   4.989   7.541   8.078 -0.0457 -1.1273  0.1028
  721MOL0     H97278   4.865   7.730   8.280 -1.3600 -1.3326 -0.1311
  721MOL0     H97279   5.033   7.727   8.244  0.2288  3.8326  1.0047
  721MOL0     H97280   4.994   7.813   8.011  0.2486 -0.8408 -0.3928
  721MOL0     H97281   4.825   7.829   8.030 -1.4922 -2.2103  2.8305
  721MOL0     H97282   5.045   7.957   8.186 -0.0846  1.2857  1.7345
  721MOL0     H97283   4.940   8.040   8.077  0.5654 -1.1697 -1.3223
  721MOL0     H97284   4.870   8.104   8.289 -1.2886  0.4229  1.5455
  721MOL0     H97285   4.852   7.937   8.353  0.1002 -2.1530 -1.1491
  721MOL0     H97286   4.635   7.817   8.304  1.3762  1.4195  1.0947
  721MOL0     H97287   4.317   7.844   8.104 -0.0691  2.2820  0.2355
  721MOL0     H97288   4.368   7.762   8.249 -3.4165 -0.7824  1.5285
  721MOL0     H97289   4.195   7.897   8.337  0.6915 -0.8494  0.5493
  721MOL0     H97290   4.230   8.021   8.215 -1.5955 -0.1449 -0.5608
  721MOL0     H97291   4.281   8.104   8.459  0.4555  0.2476 -0.2438
  721MOL0     H97292   4.427   8.084   8.372  1.2180 -0.3011  2.0273
  721MOL0     H97293   4.493   7.943   8.541  0.1589 -0.9001 -0.1690
  721MOL0     H97294   4.370   7.826   8.477  1.9756  0.4540 -0.6969
  721MOL0     H97295   4.252   7.671   8.635  2.2757  2.4355  2.2036
  721MOL0     H97296   3.940   7.502   8.696  0.6231  0.8809  2.7842
  721MOL0     H97297   4.056   7.490   8.563  0.9643 -3.0917  0.8354
  721MOL0     H97298   4.108   7.483   8.741  0.4736  2.8925  1.7308
  721MOL0     H97299   3.579   7.879   8.835 -0.8335 -0.1674  1.3989
  721MOL0     H97300   3.325   7.878   8.876 -0.7254  1.8411 -2.0964
  721MOL0     H97301   3.042   7.711   8.607 -1.1689 -1.6705 -0.5288
  721MOL0     H97302   3.120   7.549   8.644  0.2857 -1.8964  2.5966
  721MOL0     H97303   2.906   7.518   8.697 -1.0923  0.2215 -0.0791
  721MOL0     H97304   2.973   7.549   8.863 -1.5537 -3.2382 -0.9003
  721MOL0     H97305   2.791   7.712   8.698  1.3417  1.6456 -0.2088
  721MOL0     H97306   2.896   7.786   8.818  0.6613  0.9262 -4.0327
  721MOL0     H97307   2.702   7.552   8.858 -0.8486  1.3571 -2.9885
  721MOL0     H97308   2.794   7.623   8.989  1.9973  0.1359 -1.6336
  721MOL0     H97309   2.586   7.756   8.819  0.2850 -2.7104 -0.2101
  721MOL0     H97310   2.678   7.834   8.954 -0.2034  0.6109 -3.5545
  721MOL0     H97311   2.483   7.611   8.963 -1.6958  0.1350  0.3463
  721MOL0     H97312   2.595   7.633   9.096  0.3071 -0.3594 -0.4843
  721MOL0     H97313   2.428   7.873   8.998  0.0880  0.5755 -0.4999
  721MOL0     H97314   2.517   7.859   9.146  2.3012  0.9669 -1.5851
  721MOL0     H97315   2.354   7.695   9.229 -1.8384 -0.4979 -0.4138
  721MOL0     H97316   2.278   7.675   9.066 -1.1157  2.3334 -1.0203
  721MOL0     H97317   3.294   7.602   8.542 -1.2041 -2.8318  1.6631
  721MOL0     H97318   3.531   7.641   8.495  1.4295 -1.1994  1.7296
  721MOL0     H97319   3.872   7.944   8.715 -1.6047 -3.8093  1.3370
  721MOL0     H97320   4.108   8.059   8.698 -3.8807  0.3888  1.8709
  721MOL0     H97321   4.656   6.943   7.946 -1.8540 -0.1840 -0.4214
  721MOL0     H97322   4.631   6.866   7.716  2.9136 -1.2966  2.1320
  721MOL0     H97323   4.452   6.950   7.310 -1.8768 -0.8320 -0.2911
  721MOL0     H97324   4.341   6.821   7.121  0.3020  0.5534  0.0506
  721MOL0     H97325   4.565   6.492   6.924 -1.9436  1.7321 -1.5599
  721MOL0     H97326   4.491   6.412   7.069  0.4635  0.2168  1.3801
  721MOL0     H97327   4.447   6.340   6.805 -1.5513 -2.8178 -0.8987
  721MOL0     H97328   4.311   6.455   6.826  0.9629 -0.4376 -1.0250
  721MOL0     H97329   4.234   6.304   7.029 -0.3537  1.4155  0.3290
  721MOL0     H97330   4.384   6.211   6.995  0.0962  1.5535  1.0285
  721MOL0     H97331   4.308   6.112   6.797 -2.5861  0.0724 -1.4878
  721MOL0     H97332   4.193   6.236   6.767 -4.4588 -1.5715  0.6312
  721MOL0     H97333   3.918   5.990   6.933  0.5243 -1.0530  0.4612
  721MOL0     H97334   4.655   6.531   7.145 -0.9748 -0.2831 -1.5488
  721MOL0     H97335   4.761   6.660   7.342 -0.6397 -0.5264  1.0122
  722MOL0     O97336   5.493   0.550   9.743  0.5876 -0.1298  0.0507
  722MOL0     C97337   5.500   0.672   9.762 -0.7515  0.3731 -1.1909
  722MOL0     O97338   5.404   0.740   9.841 -0.3316 -0.3532  0.5376
  722MOL0     C97339   5.294   0.673   9.888 -1.9921 -0.5973  0.0121
  722MOL0     C97340   5.180   0.650   9.805 -0.1798 -0.0182  1.0729
  722MOL0     C97341   5.067   0.593   9.847 -0.1837  0.0042 -0.3166
  722MOL0     C97342   5.056   0.543   9.982 -0.4937 -0.0883  0.2797
  722MOL0     O97343   4.937   0.500  10.024 -0.0182 -0.0967  0.3712
  722MOL0     C97344   4.860   0.598  10.097 -0.2291  0.4740 -0.5576
  722MOL0     C97345   4.721   0.541  10.131  0.1226 -1.0905  0.8872
  722MOL0     C97346   4.636   0.642  10.209  0.1594 -0.9318  0.7641
  722MOL0     C97347   4.504   0.582  10.258 -0.6354  0.1106 -0.2680
  722MOL0     C97348   4.396   0.681  10.278  0.7811 -0.8125 -1.2697
  722MOL0     C97349   4.434   0.784  10.387  0.5662  0.5357  0.2115
  722MOL0     C97350   4.315   0.885  10.411  0.0521  0.3921 -0.3145
  722MOL0     C97351   4.211   0.809  10.491  0.2314  0.3958  0.8117
  722MOL0     N97352   4.254   0.759  10.619  0.5655 -0.2492 -0.4169
  722MOL0     C97353   4.308   0.831  10.719  0.4607  0.0272  0.0617
  722MOL0     C97354   4.314   0.738  10.826  0.2022  0.6210 -0.3685
  722MOL0     C97355   4.371   0.759  10.964  0.3924  0.2434 -0.1453
  722MOL0     C97356   4.517   0.705  10.982  0.4886 -0.4952  0.7389
  722MOL0     C97357   4.562   0.676  11.125  0.6869  0.2192 -0.4839
  722MOL0     C97358   4.712   0.644  11.142  0.0176  0.5320 -0.2235
  722MOL0     O97359   4.785   0.760  11.123  0.1447  0.1712 -0.6218
  722MOL0     C97360   4.919   0.751  11.109  0.0543 -0.1447  0.0718
  722MOL0     C97361   4.995   0.843  11.163  0.2955 -0.6894 -0.4206
  722MOL0     C97362   5.131   0.856  11.154 -0.0516  0.4921 -0.4351
  722MOL0     C97363   5.214   0.963  11.227  0.1389 -0.1077  1.2519
  722MOL0     C97364   5.195   0.752  11.078  0.3635  0.1102 -0.2452
  722MOL0     C97365   5.339   0.750  11.054 -0.7302  0.3955 -0.5201
  722MOL0     O97366   5.384   0.726  10.925  0.2432  0.0143 -0.2034
  722MOL0     C97367   5.520   0.748  10.905  0.1893  0.7727  0.3354
  722MOL0     C97368   5.630   0.682  10.977 -0.4328  0.3736 -0.1896
  722MOL0     C97369   5.756   0.707  10.940  0.4860  0.4468 -1.1752
  722MOL0     C97370   5.780   0.812  10.852  0.0242  0.3396 -0.5618
  722MOL0     O97371   5.913   0.836  10.842  0.5978  0.5015 -0.6320
  722MOL0     C97372   5.961   0.873  10.713 -0.0310 -0.2296 -0.1166
  722MOL0     C97373   5.957   1.029  10.700 -0.8141  0.7903 -0.3401
  722MOL0     C97374   6.081   1.094  10.636 -0.1570  0.8298 -0.0675
  722MOL0     C97375   6.052   1.151  10.506 -0.2508  0.1165  0.9861
  722MOL0     C97376   6.179   1.174  10.413 -0.0360 -0.6695  0.0037
  722MOL0     C97377   6.251   1.311  10.428 -0.2211 -0.5448 -0.3167
  722MOL0     C97378   6.362   1.328  10.324  0.3319  0.0391  0.2530
  722MOL0     C97379   6.485   1.244  10.346  0.2183 -0.0497  0.3646
  722MOL0    Cl97380   6.558   1.305  10.496 -0.2118 -0.3201 -0.2241
  722MOL0     C97381   5.677   0.868  10.783  0.7465  0.2430  1.5528
  722MOL0     C97382   5.548   0.843  10.813 -0.7846  0.7815  0.2514
  722MOL0     O97383   5.412   0.767  11.153  0.5662  0.3523 -0.3806
  722MOL0     C97384   5.118   0.654  11.024  0.2406 -0.3758 -0.1759
  722MOL0     C97385   4.983   0.659  11.030 -0.3306 -0.4956 -0.5387
  722MOL0     N97386   4.268   0.610  10.774 -0.3585 -0.4568 -0.2522
  722MOL0     N97387   4.236   0.629  10.651 -0.7040 -0.4881 -0.2555
  722MOL0     C97388   5.170   0.561  10.066 -0.1891 -0.6788  0.6999
  722MOL0     C97389   5.283   0.633  10.024 -0.4743 -0.3064  0.2793
  722MOL0     C97390   5.620   0.750   9.722  0.1704  0.2852 -0.5672
  722MOL0     C97391   5.748   0.725   9.788  0.2357  0.0905  0.1910
  722MOL0     C97392   5.858   0.794   9.745 -0.6018  0.1594  0.3558
  722MOL0     C97393   5.853   0.884   9.640 -0.3983 -0.1284 -0.5208
  722MOL0     O97394   5.973   0.925   9.585 -0.1656 -0.1402  0.2795
  722MOL0     C97395   5.985   1.040   9.498  0.2881 -0.7665 -0.9449
  722MOL0     C97396   6.134   1.076   9.486 -0.3681 -0.1840 -0.5654
  722MOL0     C97397   6.168   1.209   9.422  0.3289 -0.3767  0.2732
  722MOL0     C97398   6.139   1.211   9.273 -0.0149  0.9085 -0.0599
  722MOL0     C97399   6.212   1.322   9.219 -0.2645 -0.2840 -0.3251
  722MOL0     C97400   6.279   1.422   9.215 -1.0578  0.1030  0.0875
  722MOL0     C97401   5.729   0.920   9.593  0.5593 -0.2849 -0.6896
  722MOL0     C97402   5.611   0.857   9.630 -0.0959  0.1650 -0.5635
  722MOL0     H97403   5.194   0.684   9.703  0.2585 -0.0265  1.1326
  722MOL0     H97404   4.976   0.579   9.789 -0.1096 -2.1769 -0.0024
  722MOL0     H97405   4.913   0.626  10.188 -1.4799 -2.0644  1.0473
  722MOL0     H97406   4.859   0.686  10.031 -0.3715 -1.5115 -3.4032
  722MOL0     H97407   4.680   0.516  10.033  0.0404 -0.6472  0.8065
  722MOL0     H97408   4.745   0.448  10.183  0.8633  0.9703  4.5848
  722MOL0     H97409   4.697   0.674  10.294  0.4178  1.5130 -0.2805
  722MOL0     H97410   4.614   0.734  10.155 -0.3879 -0.9048  1.0251
  722MOL0     H97411   4.469   0.512  10.181 -0.7591 -0.1632  0.0338
  722MOL0     H97412   4.500   0.523  10.350 -0.7261 -2.2624 -1.6909
  722MOL0     H97413   4.375   0.738  10.187 -0.2861  2.2128  0.7071
  722MOL0     H97414   4.301   0.634  10.304 -0.3274  1.5248 -0.7565
  722MOL0     H97415   4.472   0.751  10.484 -0.7503  2.2668  1.3811
  722MOL0     H97416   4.515   0.846  10.347 -0.7713  1.6947 -0.8076
  722MOL0     H97417   4.358   0.969  10.466  2.3154  0.3451 -1.8756
  722MOL0     H97418   4.272   0.912  10.314  2.8611 -2.6410 -2.6499
  722MOL0     H97419   4.175   0.724  10.433  4.8017  0.7388 -3.0891
  722MOL0     H97420   4.130   0.883  10.495 -0.4378 -0.3402  1.3195
  722MOL0     H97421   4.323   0.938  10.716  2.2427 -0.2017 -1.6196
  722MOL0     H97422   4.376   0.867  10.986  1.1727 -0.2487  2.5308
  722MOL0     H97423   4.308   0.716  11.042  2.0485  0.0204  1.1257
  722MOL0     H97424   4.573   0.798  10.966  0.0933  0.1498  2.7472
  722MOL0     H97425   4.540   0.623  10.914 -1.3930 -1.6678  1.4325
  722MOL0     H97426   4.502   0.586  11.142  1.9156 -0.4732  0.3070
  722MOL0     H97427   4.516   0.750  11.190  0.3300  0.1453 -0.6492
  722MOL0     H97428   4.739   0.555  11.086 -0.4421 -1.2926  2.2884
  722MOL0     H97429   4.731   0.608  11.244 -1.1780 -0.6809 -0.4059
  722MOL0     H97430   4.947   0.911  11.232 -1.3059 -0.9996 -1.1842
  722MOL0     H97431   5.274   0.928  11.312 -2.1144 -1.1606  2.5081
  722MOL0     H97432   5.275   1.017  11.155 -1.7555 -0.9502 -1.1326
  722MOL0     H97433   5.139   1.033  11.266 -3.0291 -2.0160 -0.9160
  722MOL0     H97434   5.602   0.617  11.060 -2.8230 -0.7216 -1.7351
  722MOL0     H97435   5.837   0.665  10.999 -0.2358 -3.5076 -2.7405
  722MOL0     H97436   6.060   0.827  10.708 -0.6176 -1.6496  0.6644
  722MOL0     H97437   5.895   0.827  10.638 -0.2404  0.8694 -0.6174
  722MOL0     H97438   5.864   1.063  10.654 -1.0035  0.3541 -0.2868
  722MOL0     H97439   5.940   1.078  10.796  1.2254  1.6223 -0.3628
  722MOL0     H97440   6.165   1.024  10.636  0.8609  1.9919  1.0690
  722MOL0     H97441   6.115   1.179  10.695  2.3163 -1.4547  2.0290
  722MOL0     H97442   5.995   1.079  10.446 -0.4740  1.6718 -0.7843
  722MOL0     H97443   5.994   1.242  10.521  0.0650  0.5607 -0.3320
  722MOL0     H97444   6.137   1.152  10.314 -1.0567 -1.0616  0.5111
  722MOL0     H97445   6.259   1.100  10.428  1.7109  0.0401 -4.2219
  722MOL0     H97446   6.182   1.396  10.425 -0.2268 -0.5493 -0.3157
  722MOL0     H97447   6.299   1.317  10.526  1.3402 -0.8512 -1.0301
  722MOL0     H97448   6.398   1.430  10.343  0.5639  0.2579 -1.2706
  722MOL0     H97449   6.303   1.310  10.234 -2.4274 -1.0630  2.1173
  722MOL0     H97450   6.549   1.259  10.259 -0.5094 -0.4451 -0.2471
  722MOL0     H97451   6.473   1.137  10.361 -0.9580 -0.3546 -2.2444
  722MOL0     H97452   5.701   0.941  10.706  3.7410 -2.9366 -0.8474
  722MOL0     H97453   5.474   0.906  10.766 -0.3041  2.2498  1.3480
  722MOL0     H97454   5.170   0.577  10.968 -0.4458 -2.2135  1.6177
  722MOL0     H97455   4.929   0.581  10.978  0.4553 -0.3262 -1.6368
  722MOL0     H97456   5.152   0.523  10.166 -3.0944  0.7531  0.8034
  722MOL0     H97457   5.365   0.672  10.084  1.5717  1.7019 -3.4318
  722MOL0     H97458   5.757   0.663   9.876  0.4519  0.2748  0.3025
  722MOL0     H97459   5.961   0.774   9.773  0.7865  4.3365 -0.9273
  722MOL0     H97460   5.947   1.024   9.396  1.1982 -0.2071 -1.3842
  722MOL0     H97461   5.932   1.130   9.530  4.8851  2.3491 -1.2370
  722MOL0     H97462   6.189   1.004   9.424  0.2554 -0.5384  0.3892
  722MOL0     H97463   6.179   1.072   9.585  1.4757  1.8291 -1.2572
  722MOL0     H97464   6.275   1.229   9.433 -0.0329  4.1855 -1.9457
  722MOL0     H97465   6.103   1.282   9.471 -0.5612 -0.6531 -0.4568
  722MOL0     H97466   6.034   1.230   9.248 -0.7220 -3.9160 -1.9087
  722MOL0     H97467   6.167   1.116   9.226 -2.0402 -0.1648  0.7990
  722MOL0     H97468   6.342   1.508   9.212  1.3179 -1.4778 -4.9556
  722MOL0     H97469   5.711   1.001   9.523 -0.0513 -0.3866 -0.6555
  722MOL0     H97470   5.516   0.888   9.587 -0.4376  0.0295  0.0697
  723MOL0     O97471   0.350   3.369   9.344 -0.3239  0.5546  0.2942
  723MOL0     C97472   0.375   3.255   9.382  0.1701 -0.1250 -0.3760
  723MOL0     O97473   0.316   3.197   9.498  0.8208  0.1943  0.1107
  723MOL0     C97474   0.191   3.257   9.545 -0.3379 -0.3432 -0.1287
  723MOL0     C97475   0.138   3.205   9.665 -0.4863  0.2089  0.1022
  723MOL0     C97476   0.030   3.259   9.730 -0.7102 -0.4049 -0.1402
  723MOL0     C97477  -0.045   3.362   9.673 -0.2383  0.5236 -0.7480
  723MOL0     O97478  -0.158   3.379   9.748 -0.7992  0.3058  0.1451
  723MOL0     C97479  -0.261   3.467   9.689 -0.0529  0.1915 -0.1591
  723MOL0     C97480  -0.392   3.449   9.770 -0.6236 -0.5061  0.6119
  723MOL0     C97481  -0.484   3.565   9.731 -0.7833  0.0369  0.3959
  723MOL0     C97482  -0.617   3.558   9.805 -0.4023 -1.7043  0.5169
  723MOL0     C97483  -0.703   3.655   9.735  0.3712  0.0752 -0.2258
  723MOL0     C97484  -0.835   3.672   9.808  0.5850  0.0446 -0.4860
  723MOL0     C97485  -0.917   3.782   9.741  0.6364 -0.8089 -0.1993
  723MOL0     C97486  -1.060   3.783   9.804  0.8942  0.3574  0.0599
  723MOL0     N97487  -1.153   3.879   9.746 -0.0133  0.2779  0.1237
  723MOL0     C97488  -1.272   3.844   9.688  0.5026  1.2798  0.3864
  723MOL0     C97489  -1.316   3.958   9.640 -0.0200  0.2693  1.2365
  723MOL0     C97490  -1.450   3.966   9.575 -0.5626  0.2320 -0.2561
  723MOL0     C97491  -1.512   4.103   9.604  0.0888 -0.3137  0.4769
  723MOL0     C97492  -1.531   4.117   9.754  0.6335  0.6500  0.6865
  723MOL0     C97493  -1.583   4.255   9.786 -0.3613  0.6348 -0.1409
  723MOL0     O97494  -1.638   4.240   9.918 -0.2323 -0.2318  0.8155
  723MOL0     C97495  -1.758   4.288   9.942  0.6816  1.2481 -0.4901
  723MOL0     C97496  -1.778   4.365  10.053 -0.7709 -1.0694 -0.2017
  723MOL0     C97497  -1.905   4.417  10.085 -0.3126 -0.1209 -0.0641
  723MOL0     C97498  -1.911   4.508  10.204  0.2012 -0.2863  0.2135
  723MOL0     C97499  -2.011   4.396   9.999 -0.5662 -0.4530  0.2842
  723MOL0     C97500  -2.148   4.453  10.006 -0.8511  0.4431  0.4533
  723MOL0     O97501  -2.161   4.576  10.075  0.0429 -0.2834  0.1587
  723MOL0     C97502  -2.290   4.626  10.098  0.5579  1.3089 -0.1341
  723MOL0     C97503  -2.363   4.608  10.215  0.5223 -0.1310  0.7956
  723MOL0     C97504  -2.494   4.659  10.226  0.1144 -0.2122  0.3991
  723MOL0     C97505  -2.547   4.725  10.118 -0.1404 -0.0197  0.9221
  723MOL0     O97506  -2.674   4.763  10.137  0.6083  0.4082  0.8575
  723MOL0     C97507  -2.746   4.806  10.018 -0.9444  0.2454  0.0850
  723MOL0     C97508  -2.891   4.802  10.044  0.1231  0.4139 -0.0490
  723MOL0     C97509  -2.984   4.836   9.928  0.1680 -0.5905  0.1738
  723MOL0     C97510  -3.132   4.825   9.956 -0.4346  0.4958 -1.2426
  723MOL0     C97511  -3.206   4.854   9.828  0.3673  0.2655  0.4522
  723MOL0     C97512  -3.357   4.832   9.851  1.1765  0.6528  0.4105
  723MOL0     C97513  -3.432   4.858   9.713  0.3010 -0.3082  0.2476
  723MOL0     C97514  -3.575   4.813   9.720  0.4738  0.1988 -0.0412
  723MOL0    Cl97515  -3.664   4.938   9.805 -0.6185 -0.1565  0.5450
  723MOL0     C97516  -2.476   4.745  10.001 -0.3078  0.4329 -1.1976
  723MOL0     C97517  -2.350   4.693   9.990  0.2293  0.7269 -0.3373
  723MOL0     O97518  -2.240   4.380   9.974 -0.0850 -0.0294  0.1491
  723MOL0     C97519  -1.992   4.308   9.890  0.1112  0.2864  0.1811
  723MOL0     C97520  -1.868   4.252   9.868  0.1268  0.7865  0.0753
  723MOL0     N97521  -1.227   4.053   9.672 -0.6284  0.5957 -0.3712
  723MOL0     N97522  -1.126   4.009   9.739  0.0030 -0.5219 -0.4618
  723MOL0     C97523  -0.004   3.406   9.547  0.5559 -0.5330 -1.1431
  723MOL0     C97524   0.113   3.365   9.489 -0.0389  0.0429  0.0211
  723MOL0     C97525   0.488   3.178   9.314 -0.4886 -0.0694 -0.0693
  723MOL0     C97526   0.597   3.235   9.250 -0.2654 -0.2777  0.1402
  723MOL0     C97527   0.700   3.168   9.198  0.7683  0.4053  0.5037
  723MOL0     C97528   0.715   3.029   9.214  0.5502  0.0886  0.3448
  723MOL0     O97529   0.817   2.947   9.164  0.2267 -0.2311  0.5541
  723MOL0     C97530   0.812   2.920   9.018 -0.8022 -0.9279  0.7492
  723MOL0     C97531   0.706   2.818   8.991 -0.3622  1.1358  0.0772
  723MOL0     C97532   0.771   2.681   9.035  0.6552 -0.1133 -0.1067
  723MOL0     C97533   0.678   2.565   9.031 -0.5842 -0.0856 -0.1720
  723MOL0     C97534   0.552   2.581   9.110 -0.6355  0.1852 -0.2646
  723MOL0     C97535   0.438   2.609   9.159  0.8598  0.0478  0.0433
  723MOL0     C97536   0.608   2.961   9.279 -0.0640 -0.0355 -1.2630
  723MOL0     C97537   0.498   3.032   9.335  0.5308  0.2542 -0.1988
  723MOL0     H97538   0.196   3.121   9.702 -2.4570  0.4597  4.3465
  723MOL0     H97539  -0.011   3.206   9.815 -1.6622  2.3955  1.2467
  723MOL0     H97540  -0.225   3.569   9.675 -0.5516  0.2334 -1.1716
  723MOL0     H97541  -0.285   3.432   9.589 -1.6988  0.5794  0.0727
  723MOL0     H97542  -0.450   3.360   9.744 -0.3413 -0.5032 -0.0353
  723MOL0     H97543  -0.381   3.449   9.879 -5.9863  1.1539  1.4477
  723MOL0     H97544  -0.437   3.661   9.752 -0.7961  0.4262 -1.2587
  723MOL0     H97545  -0.492   3.573   9.622  1.0577 -0.5876  0.1924
  723MOL0     H97546  -0.656   3.456   9.798 -1.0572 -1.6124  2.2952
  723MOL0     H97547  -0.610   3.594   9.908 -1.2769 -1.8755  0.6433
  723MOL0     H97548  -0.638   3.743   9.728  1.0715 -0.5666 -2.3913
  723MOL0     H97549  -0.719   3.619   9.633 -0.6461  1.9915 -0.7934
  723MOL0     H97550  -0.891   3.578   9.814  0.9657 -0.2707 -1.6600
  723MOL0     H97551  -0.827   3.711   9.910 -2.0890 -0.2034 -0.1015
  723MOL0     H97552  -0.870   3.879   9.762 -0.8996  0.1369 -0.9790
  723MOL0     H97553  -0.926   3.768   9.633 -1.6871  0.4284 -0.2339
  723MOL0     H97554  -1.045   3.807   9.910  1.7049 -3.4584  0.9362
  723MOL0     H97555  -1.108   3.685   9.809 -0.0290  0.7763 -0.3848
  723MOL0     H97556  -1.323   3.749   9.703  2.7831  0.4891  4.7415
  723MOL0     H97557  -1.439   3.948   9.468  0.6158 -1.8988  0.1505
  723MOL0     H97558  -1.522   3.898   9.622  0.7628 -1.1761 -0.1956
  723MOL0     H97559  -1.610   4.117   9.557  0.2313  0.4196  0.3958
  723MOL0     H97560  -1.458   4.186   9.557 -0.3144 -0.5595 -0.4439
  723MOL0     H97561  -1.435   4.115   9.805  0.9492  3.3193  0.3374
  723MOL0     H97562  -1.590   4.032   9.789  0.3550  0.1363 -0.9597
  723MOL0     H97563  -1.671   4.274   9.724 -1.4171 -2.0546  0.3773
  723MOL0     H97564  -1.506   4.332   9.779  0.6175 -0.3788 -0.7500
  723MOL0     H97565  -1.687   4.380  10.111 -0.1258  0.1949 -1.4585
  723MOL0     H97566  -2.003   4.499  10.263  0.0080  1.7283  0.2963
  723MOL0     H97567  -1.835   4.491  10.281 -0.8196  0.7154  1.4886
  723MOL0     H97568  -1.895   4.608  10.161  1.5275 -0.4572  0.2691
  723MOL0     H97569  -2.304   4.564  10.294  0.6788  1.5360  1.6495
  723MOL0     H97570  -2.561   4.645  10.311 -3.2896  1.0091 -1.8604
  723MOL0     H97571  -2.717   4.908   9.994 -0.3818  0.1412  0.3095
  723MOL0     H97572  -2.722   4.745   9.930 -0.0868 -1.8938  1.7034
  723MOL0     H97573  -2.915   4.699  10.069 -0.3247  0.0984 -1.6963
  723MOL0     H97574  -2.906   4.869  10.130 -2.9000 -1.1718  0.8057
  723MOL0     H97575  -2.964   4.771   9.842 -1.0687 -0.4269 -0.2713
  723MOL0     H97576  -2.988   4.940   9.895 -0.8301 -0.2929  1.1522
  723MOL0     H97577  -3.157   4.731  10.006  2.8535  0.2079  0.1389
  723MOL0     H97578  -3.165   4.898  10.031 -1.2193 -0.2498 -0.8486
  723MOL0     H97579  -3.168   4.792   9.746 -1.0829 -1.2953  0.8929
  723MOL0     H97580  -3.186   4.959   9.807 -2.2226  0.5831 -0.7890
  723MOL0     H97581  -3.384   4.740   9.904  1.1295  0.7662  0.5857
  723MOL0     H97582  -3.395   4.907   9.922  0.1390 -0.1135  0.6761
  723MOL0     H97583  -3.398   4.796   9.630 -0.1897 -2.9734  1.9202
  723MOL0     H97584  -3.435   4.959   9.672 -2.4476 -1.1331 -1.8529
  723MOL0     H97585  -3.571   4.717   9.773  1.3602  1.5184  2.4424
  723MOL0     H97586  -3.611   4.796   9.618  0.3672  1.8283 -0.3001
  723MOL0     H97587  -2.516   4.797   9.915 -0.7551 -0.0553 -1.2912
  723MOL0     H97588  -2.309   4.686   9.889 -2.2922 -0.1177 -1.3942
  723MOL0     H97589  -2.081   4.279   9.834 -0.8930 -1.3551  2.4812
  723MOL0     H97590  -1.858   4.192   9.779 -1.8196 -1.3263  1.1722
  723MOL0     H97591  -0.059   3.489   9.502  0.6222  0.0655 -0.1496
  723MOL0     H97592   0.144   3.423   9.403  0.8847 -0.1786  0.2014
  723MOL0     H97593   0.600   3.344   9.260  0.4890 -0.1649 -1.1300
  723MOL0     H97594   0.775   3.231   9.151 -0.5974  0.6497 -1.4492
  723MOL0     H97595   0.800   3.011   8.958  2.2256 -1.1586 -0.3657
  723MOL0     H97596   0.911   2.876   9.000  0.3145  0.9925  1.8909
  723MOL0     H97597   0.693   2.810   8.883  0.3456  2.3595 -0.1091
  723MOL0     H97598   0.604   2.831   9.029 -0.5061  0.5963 -0.1083
  723MOL0     H97599   0.803   2.690   9.139 -0.7967 -2.2208  0.5956
  723MOL0     H97600   0.856   2.657   8.970  1.2565  0.2742  0.5238
  723MOL0     H97601   0.723   2.473   9.070  1.0111  1.3740  1.6060
  723MOL0     H97602   0.663   2.537   8.926  1.1796 -2.2012  0.0627
  723MOL0     H97603   0.344   2.653   9.183  0.1657 -0.9175 -0.8118
  723MOL0     H97604   0.602   2.854   9.295 -1.2998  0.1829 -0.0494
  723MOL0     H97605   0.415   2.985   9.386 -1.7455  4.5741  0.5287
  724MOL0     O97606  10.142   4.080   1.743  0.5874  0.1426 -0.9953
  724MOL0     C97607  10.202   4.133   1.835 -0.1215  0.0691 -0.3939
  724MOL0     O97608  10.138   4.182   1.945 -0.0585 -0.2327  0.5352
  724MOL0     C97609  10.002   4.181   1.960 -0.1621  0.1190  0.2666
  724MOL0     C97610   9.907   4.175   1.856 -0.0813 -0.2341  0.2459
  724MOL0     C97611   9.770   4.172   1.885 -0.0192  0.6207  0.6013
  724MOL0     C97612   9.727   4.192   2.015 -0.3682  0.3472  0.3973
  724MOL0     O97613   9.597   4.205   2.054 -0.1547 -0.2104  0.5537
  724MOL0     C97614   9.514   4.106   1.992  0.1455  0.0612 -1.3005
  724MOL0     C97615   9.372   4.149   2.035  0.4118  0.1400  0.3144
  724MOL0     C97616   9.274   4.058   1.962 -0.2877 -0.8087 -0.5768
  724MOL0     C97617   9.185   3.998   2.069  0.1609  0.3387 -0.0118
  724MOL0     C97618   9.081   3.920   1.997 -0.0612  0.1368  0.1364
  724MOL0     C97619   8.980   3.845   2.086  0.7864 -0.4523  0.4644
  724MOL0     C97620   8.881   3.783   1.993 -0.4460  1.3886 -0.8037
  724MOL0     C97621   8.927   3.659   1.913  0.5010  0.0495 -0.4063
  724MOL0     N97622   8.939   3.551   2.003  0.1840  0.0646 -0.3777
  724MOL0     C97623   9.059   3.485   2.018 -0.7371  0.0810  0.3121
  724MOL0     C97624   9.032   3.385   2.104 -0.3283  0.3818 -0.6573
  724MOL0     C97625   9.137   3.288   2.143  0.2408 -0.8633  0.1607
  724MOL0     C97626   9.130   3.167   2.053 -0.2128  0.0328  0.9465
  724MOL0     C97627   9.227   3.047   2.092  0.5830 -0.7422 -0.2997
  724MOL0     C97628   9.360   3.074   2.031 -0.5885 -0.0068  0.1234
  724MOL0     O97629   9.450   2.974   2.074 -0.2599  0.3747 -0.3527
  724MOL0     C97630   9.583   3.008   2.062  0.2509  0.0461  0.4949
  724MOL0     C97631   9.637   3.114   1.982  0.2799  0.3229 -1.1166
  724MOL0     C97632   9.770   3.138   1.968 -0.0299 -0.0284  0.7599
  724MOL0     C97633   9.810   3.256   1.879 -0.7858  1.0041 -0.1470
  724MOL0     C97634   9.862   3.056   2.043  0.4152 -0.0467 -0.4097
  724MOL0     C97635  10.008   3.073   2.045 -0.2314 -0.3757  0.2045
  724MOL0     O97636  10.083   2.976   2.098  0.5974  0.1080 -0.7256
  724MOL0     C97637  10.223   2.988   2.095 -0.5386  0.0478 -0.0282
  724MOL0     C97638  10.299   3.014   2.207 -0.8594 -0.2155 -0.6093
  724MOL0     C97639  10.438   3.023   2.202 -0.7565 -0.2317  0.0881
  724MOL0     C97640  10.513   3.022   2.080 -0.3502 -0.0637 -0.5569
  724MOL0     O97641  10.652   3.032   2.065  0.5790  0.1216  0.5673
  724MOL0     C97642  10.724   3.008   2.183 -0.1267 -0.6787 -0.2065
  724MOL0     C97643  10.870   2.975   2.151  0.3918 -0.6692  0.9383
  724MOL0     C97644  10.972   3.087   2.168  0.1130 -0.9869  0.6909
  724MOL0     C97645  11.095   3.044   2.084  0.0741 -0.7407 -0.4669
  724MOL0     C97646  11.219   3.137   2.100  0.3031  0.1390 -0.3367
  724MOL0     C97647  11.276   3.112   2.242 -1.0485 -0.0219 -0.3666
  724MOL0     C97648  11.426   3.162   2.261 -0.6457 -0.0658 -0.0656
  724MOL0     C97649  11.482   3.134   2.394 -0.6575  0.2139  0.2764
  724MOL0    Cl97650  11.519   2.956   2.397  0.1592  0.4546  0.1468
  724MOL0     C97651  10.435   3.010   1.960  0.4690 -0.3345 -0.1833
  724MOL0     C97652  10.292   2.987   1.969  0.0969  0.4069 -0.4077
  724MOL0     O97653  10.061   3.177   1.990  0.9164  0.4275 -0.4543
  724MOL0     C97654   9.801   2.944   2.116 -0.0369  0.4729 -1.3323
  724MOL0     C97655   9.672   2.921   2.129 -0.1013 -0.3805 -0.0283
  724MOL0     N97656   8.899   3.396   2.143 -0.9133  0.4989  0.2338
  724MOL0     N97657   8.849   3.498   2.080  0.1470  0.1981  0.4904
  724MOL0     C97658   9.817   4.199   2.117 -0.2303 -0.7163 -0.9694
  724MOL0     C97659   9.952   4.190   2.090  0.3931  0.6704  0.8109
  724MOL0     C97660  10.346   4.140   1.832  0.1113  0.1581 -0.1081
  724MOL0     C97661  10.416   4.229   1.921 -0.2662 -0.3395  0.6663
  724MOL0     C97662  10.555   4.225   1.921 -0.4429 -0.3147  0.2391
  724MOL0     C97663  10.626   4.144   1.831  0.0693 -1.2114 -0.5805
  724MOL0     O97664  10.766   4.156   1.819 -0.3539  0.0629 -0.1229
  724MOL0     C97665  10.838   4.285   1.843  0.4093 -0.0816 -0.8483
  724MOL0     C97666  10.962   4.302   1.761  0.5618  0.3012  0.4194
  724MOL0     C97667  11.039   4.174   1.749 -0.5332  0.0176  0.1423
  724MOL0     C97668  11.166   4.222   1.667 -0.1337  0.2016  0.5971
  724MOL0     C97669  11.292   4.218   1.746  0.3758  1.1428 -0.3966
  724MOL0     C97670  11.395   4.211   1.802 -0.7290  1.0591  0.0987
  724MOL0     C97671  10.557   4.050   1.754 -0.2777 -0.3596  0.0920
  724MOL0     C97672  10.420   4.048   1.758 -0.6408 -0.7592  0.2919
  724MOL0     H97673   9.929   4.169   1.749 -0.4502 -1.4275  0.2207
  724MOL0     H97674   9.700   4.184   1.802 -1.4568 -2.2763  1.2808
  724MOL0     H97675   9.525   4.096   1.884  0.3265 -0.5660 -1.2253
  724MOL0     H97676   9.522   4.004   2.031 -1.9692 -0.1479 -1.2745
  724MOL0     H97677   9.371   4.152   2.145  2.7743  1.8834  0.3786
  724MOL0     H97678   9.350   4.254   2.013 -3.0149 -0.5008  0.2246
  724MOL0     H97679   9.218   4.123   1.894  2.1135  2.0164 -0.0978
  724MOL0     H97680   9.320   3.986   1.893 -1.2903 -2.7773  0.7296
  724MOL0     H97681   9.245   3.930   2.131 -1.4974 -0.0825  1.2145
  724MOL0     H97682   9.146   4.069   2.142 -0.1303 -2.5519  2.9115
  724MOL0     H97683   9.022   3.980   1.926  0.0428  1.1002  0.8345
  724MOL0     H97684   9.134   3.836   1.952  1.5691  0.4444  1.4130
  724MOL0     H97685   9.032   3.761   2.133  4.4482  0.1843 -2.0460
  724MOL0     H97686   8.941   3.909   2.165  3.2706  0.0735  1.3540
  724MOL0     H97687   8.791   3.755   2.048 -0.8453  1.5191 -1.3889
  724MOL0     H97688   8.847   3.863   1.927  4.6013  3.2938 -1.5863
  724MOL0     H97689   9.021   3.670   1.858  0.6199  1.2108  0.0014
  724MOL0     H97690   8.837   3.659   1.850 -1.6783  2.5549  2.3658
  724MOL0     H97691   9.148   3.513   1.964 -2.0830  0.7935 -1.6469
  724MOL0     H97692   9.231   3.344   2.140  0.5582 -1.1508  2.6159
  724MOL0     H97693   9.124   3.254   2.247  4.2532  2.6132  2.1411
  724MOL0     H97694   9.135   3.202   1.949 -2.1001 -0.3629  0.6802
  724MOL0     H97695   9.029   3.126   2.066 -1.0824  1.2541 -1.3205
  724MOL0     H97696   9.201   2.945   2.061 -2.5788 -0.8887  2.2859
  724MOL0     H97697   9.225   3.029   2.200  0.6141 -0.7338 -0.2971
  724MOL0     H97698   9.399   3.172   2.060  0.2459 -0.6711  1.3055
  724MOL0     H97699   9.349   3.074   1.922  0.7969  3.0523 -0.1052
  724MOL0     H97700   9.572   3.169   1.915  0.1439  0.4613 -0.8724
  724MOL0     H97701   9.891   3.222   1.813 -0.1828 -0.7989  1.4471
  724MOL0     H97702   9.726   3.299   1.824  0.5536  6.0747  1.2094
  724MOL0     H97703   9.856   3.329   1.946 -2.0024  2.4711 -0.8593
  724MOL0     H97704  10.236   3.034   2.293 -0.9107 -0.8857 -0.4847
  724MOL0     H97705  10.497   3.035   2.293  0.9624 -0.2915 -0.9791
  724MOL0     H97706  10.720   3.091   2.255 -3.3412 -3.0678  2.7129
  724MOL0     H97707  10.681   2.918   2.228  0.3890 -0.8834 -0.1218
  724MOL0     H97708  10.906   2.886   2.204  0.6719 -0.9440  0.2990
  724MOL0     H97709  10.873   2.948   2.045  2.1139 -1.6932  1.2072
  724MOL0     H97710  11.001   3.105   2.272  0.0067 -1.3697  0.7884
  724MOL0     H97711  10.931   3.176   2.120  0.0059 -2.0776 -1.3841
  724MOL0     H97712  11.133   2.943   2.100  0.2547 -0.7061 -0.6675
  724MOL0     H97713  11.068   3.043   1.978  2.2502  0.6231 -1.0984
  724MOL0     H97714  11.192   3.242   2.101  0.6560  0.2973  2.6327
  724MOL0     H97715  11.293   3.117   2.021  0.1367  0.6941 -0.6380
  724MOL0     H97716  11.209   3.162   2.313 -0.5211  0.6753 -0.3527
  724MOL0     H97717  11.285   3.004   2.257  0.6062 -0.0501 -1.2684
  724MOL0     H97718  11.427   3.269   2.238  1.4278 -0.1708 -0.7220
  724MOL0     H97719  11.503   3.120   2.195 -1.7792 -0.8337 -0.9282
  724MOL0     H97720  11.413   3.174   2.469 -0.5095  0.5717  0.2215
  724MOL0     H97721  11.576   3.189   2.396 -1.2272  1.1905  1.7286
  724MOL0     H97722  10.487   3.029   1.866 -2.1709  1.0891 -1.4942
  724MOL0     H97723  10.241   2.972   1.874  2.9259  0.0582 -1.9812
  724MOL0     H97724   9.863   2.875   2.172 -0.7759  2.0661  1.6467
  724MOL0     H97725   9.649   2.828   2.180  2.0861 -1.2695 -0.5356
  724MOL0     H97726   9.796   4.201   2.224  1.4505 -3.0246 -0.5087
  724MOL0     H97727  10.035   4.187   2.160  3.3874  2.4533 -2.2884
  724MOL0     H97728  10.369   4.290   1.997  1.6954 -1.2093  2.7139
  724MOL0     H97729  10.620   4.290   1.979 -1.6761 -0.8212  2.2729
  724MOL0     H97730  10.774   4.368   1.813 -1.4751 -1.4405 -0.7609
  724MOL0     H97731  10.860   4.298   1.949  1.2313  1.9114 -1.2187
  724MOL0     H97732  11.013   4.380   1.817  0.3391 -1.1960  2.8828
  724MOL0     H97733  10.931   4.339   1.663  3.9702  1.9730 -0.1390
  724MOL0     H97734  10.980   4.102   1.692 -0.9865 -1.5445  2.4780
  724MOL0     H97735  11.070   4.125   1.841 -0.4270 -3.0769 -1.4252
  724MOL0     H97736  11.147   4.321   1.625  1.9896  0.6755  0.6492
  724MOL0     H97737  11.185   4.150   1.587  2.9704 -1.6028  2.7190
  724MOL0     H97738  11.492   4.206   1.847 -0.3643 -0.0271 -0.7385
  724MOL0     H97739  10.612   3.977   1.695  2.4932  1.0018  0.8428
  724MOL0     H97740  10.373   3.999   1.673 -2.8785  0.2286  0.8674
  725MOL0     O97741   0.329   9.131   5.102  0.8201  0.5755  0.2121
  725MOL0     C97742   0.281   9.182   4.993 -0.7766 -0.5882 -1.0898
  725MOL0     O97743   0.276   9.318   4.962  0.0603 -0.3255  0.5634
  725MOL0     C97744   0.321   9.407   5.056  0.0523 -0.1741  1.0624
  725MOL0     C97745   0.456   9.418   5.075  0.9914  0.0190  0.3057
  725MOL0     C97746   0.498   9.516   5.166  0.6800 -0.5542  0.7527
  725MOL0     C97747   0.414   9.594   5.246  0.3439  0.2363 -0.3203
  725MOL0     O97748   0.480   9.676   5.337  0.6896 -0.0067 -0.8734
  725MOL0     C97749   0.402   9.785   5.395 -0.1348  0.4379  0.5545
  725MOL0     C97750   0.357   9.903   5.312 -0.9308  1.1801  0.3216
  725MOL0     C97751   0.481   9.948   5.223  0.3963 -0.5312 -0.1900
  725MOL0     C97752   0.592  10.009   5.308 -0.5859 -0.1106 -0.6213
  725MOL0     C97753   0.701  10.069   5.217  0.2813  0.0372  0.4058
  725MOL0     C97754   0.823  10.131   5.292  0.7599  0.4401 -0.1208
  725MOL0     C97755   0.902  10.231   5.199 -0.3610 -0.3164 -0.1100
  725MOL0     C97756   0.997  10.141   5.118 -0.7103 -0.0855 -0.2292
  725MOL0     N97757   1.099  10.215   5.049 -0.1304 -0.6121 -0.2586
  725MOL0     C97758   1.102  10.345   4.997  0.1575  1.3055  0.0958
  725MOL0     C97759   1.214  10.357   4.914  0.5156  0.4348  0.6488
  725MOL0     C97760   1.247  10.472   4.828 -0.2054 -0.5041  0.9478
  725MOL0     C97761   1.364  10.531   4.905  0.4550 -0.1646 -1.4662
  725MOL0     C97762   1.377  10.681   4.887 -0.4128 -0.4568 -0.6949
  725MOL0     C97763   1.502  10.718   4.966  0.4309  0.6885 -0.5383
  725MOL0     O97764   1.502  10.861   4.973  0.1778 -0.9789  0.1657
  725MOL0     C97765   1.601  10.940   5.027 -0.7972 -0.2415 -0.8104
  725MOL0     C97766   1.570  11.076   5.041  0.3701 -0.5279  0.0452
  725MOL0     C97767   1.657  11.170   5.102 -0.5017 -0.0550 -0.3978
  725MOL0     C97768   1.614  11.305   5.122 -0.0123  0.7024 -0.1487
  725MOL0     C97769   1.788  11.123   5.145 -0.2303  0.0718  0.6522
  725MOL0     C97770   1.893  11.203   5.205  0.2437  0.1057  0.8943
  725MOL0     O97771   1.931  11.326   5.150  0.2606  0.3550  0.7267
  725MOL0     C97772   2.036  11.386   5.206 -0.8346 -0.3060  0.5158
  725MOL0     C97773   2.019  11.437   5.340 -0.2104  0.0526 -0.0466
  725MOL0     C97774   2.120  11.504   5.400 -0.0505 -0.1118  0.0336
  725MOL0     C97775   2.242  11.522   5.340  0.5147 -0.3189 -0.1649
  725MOL0     O97776   2.340  11.601   5.404  0.3202  0.2828  0.0276
  725MOL0     C97777   2.477  11.617   5.354  0.0788  0.0179  1.0719
  725MOL0     C97778   2.568  11.510   5.397 -0.2597  0.4564  0.5131
  725MOL0     C97779   2.709  11.546   5.346  0.1058 -0.3512 -0.0581
  725MOL0     C97780   2.796  11.429   5.388 -0.3968  0.2483  0.0439
  725MOL0     C97781   2.939  11.479   5.400 -0.0162 -0.3020  0.1589
  725MOL0     C97782   3.041  11.357   5.363 -0.0349 -0.5049 -0.4254
  725MOL0     C97783   3.184  11.423   5.358 -0.1547  1.0327  0.5452
  725MOL0     C97784   3.300  11.320   5.323  0.0199  0.4352  0.3032
  725MOL0    Cl97785   3.330  11.200   5.440  0.0647  0.0388  0.1726
  725MOL0     C97786   2.254  11.476   5.211  0.3982 -0.1859 -0.6408
  725MOL0     C97787   2.151  11.419   5.135 -0.4717  1.2858  0.0948
  725MOL0     O97788   1.930  11.156   5.315  0.3513 -0.8609 -0.2623
  725MOL0     C97789   1.814  10.991   5.120  0.0219  0.0421 -0.4138
  725MOL0     C97790   1.717  10.896   5.078 -0.7317  0.6071  0.7682
  725MOL0     N97791   1.293  10.241   4.926  0.4155  0.4594  0.3838
  725MOL0     N97792   1.226  10.159   5.005  0.5514 -0.7459 -0.3437
  725MOL0     C97793   0.281   9.574   5.228 -0.0033 -0.8036 -0.0842
  725MOL0     C97794   0.234   9.483   5.134 -0.1455 -0.0271  0.2528
  725MOL0     C97795   0.216   9.095   4.897  0.8610  0.3336  0.4496
  725MOL0     C97796   0.238   8.953   4.900 -0.2795  0.2831 -0.4740
  725MOL0     C97797   0.166   8.862   4.820 -0.4360 -0.0411  0.2368
  725MOL0     C97798   0.071   8.906   4.729  0.3706 -0.3614  0.0377
  725MOL0     O97799  -0.013   8.825   4.652 -0.6290 -0.3836 -0.0795
  725MOL0     C97800  -0.121   8.768   4.725  0.5978  0.1563  0.4935
  725MOL0     C97801  -0.256   8.825   4.665 -0.0220  0.0722  0.4442
  725MOL0     C97802  -0.264   8.818   4.508 -0.5013  0.6627 -0.8882
  725MOL0     C97803  -0.237   8.675   4.455 -0.5017 -0.4651 -0.4481
  725MOL0     C97804  -0.346   8.620   4.371  0.2277  0.5504 -0.1714
  725MOL0     C97805  -0.429   8.598   4.284 -1.4111  1.3074  0.3196
  725MOL0     C97806   0.057   9.042   4.713  0.4311  0.2900  0.5319
  725MOL0     C97807   0.124   9.140   4.802  0.2408  0.1315  0.7750
  725MOL0     H97808   0.525   9.365   5.010 -2.4070 -1.9531 -2.0022
  725MOL0     H97809   0.604   9.538   5.166  0.6049 -0.0634 -1.2754
  725MOL0     H97810   0.309   9.751   5.442 -1.1371  0.9258 -1.0189
  725MOL0     H97811   0.465   9.809   5.481  2.2111 -2.2615 -0.2273
  725MOL0     H97812   0.278   9.881   5.240 -1.4956 -2.1764  1.7545
  725MOL0     H97813   0.313   9.982   5.374  0.0989  2.0461 -0.0122
  725MOL0     H97814   0.518   9.864   5.164 -0.5254 -0.8240 -0.3759
  725MOL0     H97815   0.449  10.017   5.145  3.3342 -1.3783 -2.3092
  725MOL0     H97816   0.553  10.084   5.378 -2.0377 -1.7892  0.4491
  725MOL0     H97817   0.641   9.936   5.373  1.3636  0.5139 -1.3316
  725MOL0     H97818   0.730  10.000   5.137 -0.4806 -0.3832  0.4820
  725MOL0     H97819   0.651  10.152   5.166 -1.1659 -0.9463  0.1517
  725MOL0     H97820   0.778  10.186   5.376  4.2908  0.4367  2.0034
  725MOL0     H97821   0.889  10.055   5.335 -2.0501 -1.4530  1.1539
  725MOL0     H97822   0.832  10.282   5.132 -0.4813 -0.7744 -0.3387
  725MOL0     H97823   0.958  10.298   5.265  0.5069 -0.4045 -0.7380
  725MOL0     H97824   0.931  10.082   5.053 -1.3886  0.6925 -0.2611
  725MOL0     H97825   1.054  10.080   5.189  2.0471  0.6324 -1.7138
  725MOL0     H97826   1.035  10.428   5.017  1.4261  2.0388  1.5929
  725MOL0     H97827   1.263  10.433   4.727 -0.5619 -4.1471  2.1650
  725MOL0     H97828   1.168  10.548   4.828  2.3147  2.3710 -0.5120
  725MOL0     H97829   1.454  10.479   4.869  0.5508  0.2997 -1.8986
  725MOL0     H97830   1.343  10.512   5.011  0.5024  0.8042 -1.2758
  725MOL0     H97831   1.286  10.720   4.933  0.5440  1.6169 -0.4287
  725MOL0     H97832   1.390  10.703   4.781  1.5422 -0.7550 -0.5550
  725MOL0     H97833   1.596  10.679   4.925 -0.4608 -0.6158 -1.4093
  725MOL0     H97834   1.492  10.680   5.068  1.4307 -1.1977 -1.1016
  725MOL0     H97835   1.471  11.110   5.011  0.8033 -1.2438 -2.4196
  725MOL0     H97836   1.656  11.337   5.218  1.7241 -1.6831 -0.0551
  725MOL0     H97837   1.669  11.366   5.049  0.8182  1.9425  1.4429
  725MOL0     H97838   1.505  11.319   5.123 -0.1659 -0.1126  2.4069
  725MOL0     H97839   1.933  11.414   5.403  0.9550 -1.2656  1.1392
  725MOL0     H97840   2.104  11.539   5.502  1.1133 -3.5771  1.5614
  725MOL0     H97841   2.478  11.628   5.245 -0.6180 -0.6222  0.9865
  725MOL0     H97842   2.524  11.710   5.385  1.0265 -1.1351  3.3471
  725MOL0     H97843   2.572  11.503   5.506 -3.6795 -5.8958  0.6981
  725MOL0     H97844   2.533  11.410   5.371 -0.5221  0.0661  2.2387
  725MOL0     H97845   2.742  11.638   5.395 -2.1722  1.8488 -2.3534
  725MOL0     H97846   2.710  11.548   5.236  0.7542 -3.2060 -0.1956
  725MOL0     H97847   2.763  11.400   5.488 -2.8630  0.2533 -0.7036
  725MOL0     H97848   2.782  11.348   5.317 -2.9429  1.6497 -1.1793
  725MOL0     H97849   2.945  11.509   5.505  0.9594 -1.1683  0.3722
  725MOL0     H97850   2.948  11.570   5.340 -1.6673  0.8459  1.5486
  725MOL0     H97851   3.027  11.278   5.438 -0.7641  0.5152  0.5454
  725MOL0     H97852   3.021  11.316   5.264  2.3011  0.4826 -1.3727
  725MOL0     H97853   3.218  11.476   5.447  2.6728 -0.6548  0.6104
  725MOL0     H97854   3.195  11.494   5.276  2.0964 -0.1829 -0.3124
  725MOL0     H97855   3.396  11.373   5.314 -0.4767  0.9935 -2.5773
  725MOL0     H97856   3.283  11.284   5.222 -1.0428 -0.4155  0.7663
  725MOL0     H97857   2.340  11.475   5.146 -0.5679 -0.1735 -1.9514
  725MOL0     H97858   2.170  11.390   5.032 -0.4342 -0.4489  0.5489
  725MOL0     H97859   1.913  10.955   5.145 -0.2734 -1.4395 -1.2426
  725MOL0     H97860   1.754  10.795   5.064  1.3131  1.1777  1.6032
  725MOL0     H97861   0.217   9.636   5.290 -0.2684  0.3686 -1.4620
  725MOL0     H97862   0.128   9.462   5.130  0.0618 -1.3621  1.2107
  725MOL0     H97863   0.303   8.911   4.977 -1.7034 -0.7011  0.2311
  725MOL0     H97864   0.186   8.756   4.818  3.1718  0.5228 -1.1722
  725MOL0     H97865  -0.109   8.662   4.700  4.1611  0.4498  0.4807
  725MOL0     H97866  -0.114   8.771   4.834  1.7161  1.8669  0.4099
  725MOL0     H97867  -0.276   8.931   4.685  0.2708  0.6602 -2.0827
  725MOL0     H97868  -0.335   8.758   4.702  1.1745 -2.2390 -0.9305
  725MOL0     H97869  -0.199   8.897   4.468  0.5448 -0.3341 -1.2146
  725MOL0     H97870  -0.367   8.844   4.484 -1.2717 -0.1681  1.2858
  725MOL0     H97871  -0.215   8.599   4.531 -0.2817 -0.0055 -0.0468
  725MOL0     H97872  -0.143   8.681   4.399 -0.9628  0.5840 -1.1465
  725MOL0     H97873  -0.486   8.566   4.199  0.4833  0.2725 -0.6166
  725MOL0     H97874  -0.017   9.078   4.641 -0.1071 -0.6172  0.6205
  725MOL0     H97875   0.119   9.247   4.784  2.6765  0.8728  3.6545
  726MOL0     O97876   6.198   5.458   6.324 -0.2470  0.1910  0.3461
  726MOL0     C97877   6.193   5.342   6.363  1.1041  1.1660  0.4835
  726MOL0     O97878   6.090   5.258   6.345 -0.5651  0.1064 -0.0261
  726MOL0     C97879   5.986   5.313   6.276  0.5682 -0.7234 -0.0927
  726MOL0     C97880   5.983   5.327   6.137 -0.6806 -0.0599 -0.3089
  726MOL0     C97881   5.870   5.385   6.078 -0.3057 -0.1900 -0.0013
  726MOL0     C97882   5.763   5.430   6.149 -0.1505 -0.2124 -0.2331
  726MOL0     O97883   5.658   5.485   6.077  0.8045 -0.4499  0.5965
  726MOL0     C97884   5.524   5.469   6.136  0.2054  0.5562 -0.4490
  726MOL0     C97885   5.427   5.483   6.027  0.9731 -1.3762  0.6892
  726MOL0     C97886   5.307   5.563   6.083  0.2836 -0.1346 -0.0950
  726MOL0     C97887   5.221   5.616   5.960 -0.5723 -0.8151 -0.4880
  726MOL0     C97888   5.179   5.509   5.863 -0.4181 -0.3616 -0.3278
  726MOL0     C97889   5.104   5.384   5.921 -0.0349  0.0465 -0.3685
  726MOL0     C97890   5.055   5.280   5.819  0.0505  0.6852  1.2826
  726MOL0     C97891   5.177   5.191   5.768  1.1244 -0.8143  0.6891
  726MOL0     N97892   5.248   5.123   5.872 -0.4446 -0.1392  0.3391
  726MOL0     C97893   5.389   5.121   5.897  0.1124 -1.0600 -0.4524
  726MOL0     C97894   5.420   5.022   5.980 -0.3430 -0.5712  0.0035
  726MOL0     C97895   5.552   4.992   6.050 -0.4756  0.4437  0.1296
  726MOL0     C97896   5.681   4.998   5.967  0.0010  0.0914 -0.1534
  726MOL0     C97897   5.684   4.897   5.848  0.3280 -0.8373  0.4972
  726MOL0     C97898   5.778   4.781   5.864  0.0969 -0.2704  0.4482
  726MOL0     O97899   5.722   4.702   5.963  0.0331 -0.3728  0.1895
  726MOL0     C97900   5.797   4.616   6.038 -0.7193 -0.2855 -0.6411
  726MOL0     C97901   5.937   4.604   6.023  0.1068  0.4784  0.6303
  726MOL0     C97902   6.008   4.510   6.099 -0.5828  0.6558 -0.1762
  726MOL0     C97903   6.161   4.507   6.076 -0.6152  0.4547  0.1774
  726MOL0     C97904   5.933   4.420   6.192  0.7170 -0.6553 -0.0361
  726MOL0     C97905   5.996   4.317   6.280  0.4131  0.3256  0.6899
  726MOL0     O97906   5.901   4.250   6.356 -0.1398 -0.1276  0.3603
  726MOL0     C97907   5.925   4.145   6.434 -0.8948 -0.2264 -0.7467
  726MOL0     C97908   6.044   4.110   6.499  0.1235 -0.4235  0.4840
  726MOL0     C97909   6.052   4.015   6.597  0.0147  0.5357  0.2500
  726MOL0     C97910   5.942   3.938   6.627  0.3152 -0.5063  1.0063
  726MOL0     O97911   5.948   3.823   6.700  0.0324 -0.4567  0.5621
  726MOL0     C97912   6.078   3.786   6.755  0.1416 -0.3116  0.8973
  726MOL0     C97913   6.070   3.648   6.825  0.7484  0.7959  1.1266
  726MOL0     C97914   6.176   3.640   6.936  0.0340  1.1354  0.3300
  726MOL0     C97915   6.322   3.651   6.888  0.3357 -1.0175  0.4420
  726MOL0     C97916   6.417   3.692   7.005 -0.1982 -0.5070 -0.7207
  726MOL0     C97917   6.562   3.699   6.977 -0.0583  0.2007 -0.1457
  726MOL0     C97918   6.628   3.566   6.940  0.2998  0.8609  0.0905
  726MOL0     C97919   6.636   3.460   7.045  0.4197  0.0943 -0.3754
  726MOL0    Cl97920   6.745   3.334   6.988 -0.5321  0.3443 -0.0089
  726MOL0     C97921   5.823   3.969   6.563  0.4294  0.1435 -0.4003
  726MOL0     C97922   5.810   4.068   6.470 -0.5130 -0.3905  0.0074
  726MOL0     O97923   6.116   4.291   6.269 -0.6966 -0.0069  0.6549
  726MOL0     C97924   5.788   4.439   6.205 -0.0082 -0.9919  0.3124
  726MOL0     C97925   5.727   4.528   6.125 -0.2339 -0.9164  0.5646
  726MOL0     N97926   5.297   4.962   6.015 -0.6287  0.0186  0.1013
  726MOL0     N97927   5.201   5.022   5.946 -0.0644  1.2595 -0.5411
  726MOL0     C97928   5.763   5.414   6.287 -0.0521 -0.6238 -0.5612
  726MOL0     C97929   5.872   5.354   6.353  0.2810  0.0628  0.4031
  726MOL0     C97930   6.297   5.282   6.436 -0.4743  0.9055 -0.8171
  726MOL0     C97931   6.417   5.356   6.465  0.8941  0.3200  0.3218
  726MOL0     C97932   6.512   5.308   6.557  0.2584 -0.4008  0.0657
  726MOL0     C97933   6.496   5.178   6.610  0.8039  0.4824  0.3304
  726MOL0     O97934   6.603   5.122   6.677  0.3721 -0.1104 -0.5465
  726MOL0     C97935   6.623   4.979   6.673 -0.0180 -0.0647  0.4813
  726MOL0     C97936   6.745   4.936   6.758 -0.6443  0.6843  0.7365
  726MOL0     C97937   6.884   4.979   6.702  0.5339  0.4141 -0.3607
  726MOL0     C97938   6.884   5.133   6.682  0.2155 -0.6292  0.3569
  726MOL0     C97939   7.020   5.189   6.673  0.3944  0.7839  0.3385
  726MOL0     C97940   7.131   5.222   6.657  0.5618  0.6666  0.2217
  726MOL0     C97941   6.378   5.105   6.579 -0.1954 -0.4409  0.7726
  726MOL0     C97942   6.283   5.157   6.503 -0.3925 -0.7168  0.3437
  726MOL0     H97943   6.071   5.290   6.085 -0.5477 -2.0456  1.1893
  726MOL0     H97944   5.868   5.397   5.970  0.8807  2.9515  0.2316
  726MOL0     H97945   5.517   5.373   6.187  1.0913  0.4892 -0.4350
  726MOL0     H97946   5.508   5.549   6.209 -2.4935 -1.8704  1.8873
  726MOL0     H97947   5.470   5.553   5.955  0.5606  0.3058  2.0161
  726MOL0     H97948   5.402   5.388   5.980  0.7195 -0.7844 -0.4152
  726MOL0     H97949   5.230   5.506   6.136 -1.2441  1.2988 -0.7221
  726MOL0     H97950   5.337   5.648   6.145 -3.6611 -0.9014  3.3356
  726MOL0     H97951   5.121   5.651   5.988 -1.2531 -2.2764 -0.9838
  726MOL0     H97952   5.279   5.698   5.916 -2.6036  0.3975 -1.0330
  726MOL0     H97953   5.116   5.553   5.785  0.9869  0.8035 -0.8453
  726MOL0     H97954   5.270   5.481   5.808  1.5934  1.4019  1.9131
  726MOL0     H97955   5.173   5.330   5.987  0.8339  0.0127 -1.2822
  726MOL0     H97956   5.018   5.418   5.981 -1.0481  1.1493 -2.3367
  726MOL0     H97957   4.972   5.219   5.855  0.9938 -1.7997 -0.4652
  726MOL0     H97958   5.020   5.329   5.728 -0.1775  0.8124  1.4379
  726MOL0     H97959   5.246   5.251   5.708 -0.8344 -0.4199 -1.2880
  726MOL0     H97960   5.130   5.119   5.701 -0.3291  0.3418  0.4270
  726MOL0     H97961   5.466   5.176   5.844  1.5782 -2.4761  0.1247
  726MOL0     H97962   5.549   5.077   6.119 -6.1530  0.4350  0.3225
  726MOL0     H97963   5.544   4.893   6.097 -0.6981  0.2901 -0.2263
  726MOL0     H97964   5.772   4.997   6.026  1.5977  0.2460 -2.4655
  726MOL0     H97965   5.679   5.092   5.910 -2.5618  0.3452  0.2408
  726MOL0     H97966   5.716   4.936   5.751 -3.3247  2.6689  0.4222
  726MOL0     H97967   5.584   4.862   5.822  1.1184 -4.4758  1.7683
  726MOL0     H97968   5.878   4.819   5.887 -0.7350  0.3759  3.4302
  726MOL0     H97969   5.781   4.723   5.772 -1.4972  1.7613 -0.9737
  726MOL0     H97970   5.999   4.678   5.974  0.6846 -0.0676  0.5304
  726MOL0     H97971   6.210   4.528   6.172  0.8058 -1.5388 -0.0430
  726MOL0     H97972   6.190   4.407   6.044 -1.3181  0.2741  0.0899
  726MOL0     H97973   6.196   4.574   5.997  0.4434  0.8635  0.9732
  726MOL0     H97974   6.137   4.159   6.472 -0.6336  1.9012  1.7495
  726MOL0     H97975   6.151   3.988   6.632  0.1927  0.4293 -0.3151
  726MOL0     H97976   6.158   3.787   6.681  0.6102 -1.5339  1.3638
  726MOL0     H97977   6.106   3.861   6.830 -0.4529 -0.5961  1.4139
  726MOL0     H97978   5.972   3.633   6.871  0.0614  3.0054  0.5368
  726MOL0     H97979   6.076   3.565   6.754 -2.3488  1.4859 -0.0956
  726MOL0     H97980   6.173   3.543   6.986 -0.5610  0.6726 -0.5697
  726MOL0     H97981   6.154   3.713   7.014 -0.4626  0.5837  0.7195
  726MOL0     H97982   6.360   3.565   6.832  2.6033  0.8799 -1.1488
  726MOL0     H97983   6.330   3.732   6.815 -0.5199 -2.8382 -1.7939
  726MOL0     H97984   6.404   3.631   7.095 -0.4354  0.7144  0.0957
  726MOL0     H97985   6.386   3.793   7.034 -2.3800 -1.7468  1.6158
  726MOL0     H97986   6.580   3.765   6.891 -2.0733 -0.7236 -1.3335
  726MOL0     H97987   6.615   3.752   7.057  1.7215 -1.6424 -0.0173
  726MOL0     H97988   6.731   3.591   6.913  0.3620 -0.2874 -0.8100
  726MOL0     H97989   6.586   3.524   6.848 -0.0621 -1.1501  1.1193
  726MOL0     H97990   6.538   3.417   7.067  0.8890 -0.2174  1.3067
  726MOL0     H97991   6.664   3.507   7.140  2.1111  2.0278 -1.7320
  726MOL0     H97992   5.732   3.911   6.578 -1.7827  3.2356 -1.0195
  726MOL0     H97993   5.713   4.099   6.431  0.6767  1.2141 -1.8692
  726MOL0     H97994   5.716   4.393   6.272 -5.3775  3.3066 -1.6668
  726MOL0     H97995   5.622   4.544   6.146  0.2085 -1.2872  3.4514
  726MOL0     H97996   5.690   5.452   6.357  0.0433 -1.6614  0.1186
  726MOL0     H97997   5.873   5.327   6.458  0.6990 -1.1011  0.1253
  726MOL0     H97998   6.421   5.454   6.419 -0.8115 -0.0022 -0.5700
  726MOL0     H97999   6.599   5.369   6.576 -0.5366  0.6741  0.3403
  726MOL0     H98000   6.532   4.940   6.720  0.3938  1.1515  2.4136
  726MOL0     H98001   6.630   4.945   6.569  1.2547  0.1071  0.4995
  726MOL0     H98002   6.741   4.828   6.775 -0.0831  0.9510  2.8089
  726MOL0     H98003   6.736   4.981   6.857 -0.0173  1.3437  0.5024
  726MOL0     H98004   6.922   4.926   6.615 -0.3405  1.7576 -1.6250
  726MOL0     H98005   6.958   4.965   6.781 -0.3728 -1.2779  0.2370
  726MOL0     H98006   6.835   5.181   6.768  1.8199  0.8203  0.5179
  726MOL0     H98007   6.829   5.169   6.595  0.6526  2.4739  1.2294
  726MOL0     H98008   7.230   5.261   6.653  0.8396  0.0485  0.8774
  726MOL0     H98009   6.357   5.013   6.632 -0.4842  0.7869  2.8964
  726MOL0     H98010   6.191   5.099   6.498 -0.2454 -0.8760 -0.7377
  727MOL0     O98011   0.288   7.340   3.830 -0.2134 -0.5226 -0.2367
  727MOL0     C98012   0.232   7.288   3.731  0.7035 -0.9570 -0.5752
  727MOL0     O98013   0.184   7.166   3.719  0.2811 -0.3519  0.7045
  727MOL0     C98014   0.167   7.079   3.823 -0.7720  0.0141 -0.0723
  727MOL0     C98015   0.113   7.123   3.945  0.3921 -0.2341 -0.0610
  727MOL0     C98016   0.085   7.035   4.048  0.6189  1.3788 -0.0072
  727MOL0     C98017   0.112   6.891   4.034 -0.7255 -0.4783  0.6362
  727MOL0     O98018   0.085   6.799   4.135  0.2779  0.0770 -0.3063
  727MOL0     C98019   0.194   6.718   4.175 -0.1741  0.3137 -0.5741
  727MOL0     C98020   0.164   6.663   4.314  0.5017 -0.7419  0.0651
  727MOL0     C98021   0.279   6.583   4.363 -0.8480 -0.1641 -0.9027
  727MOL0     C98022   0.259   6.570   4.515 -1.7826 -0.9397  0.2685
  727MOL0     C98023   0.342   6.461   4.575  0.0130 -0.2656 -0.1453
  727MOL0     C98024   0.318   6.438   4.727  0.7998 -0.2055  1.0037
  727MOL0     C98025   0.168   6.413   4.759 -0.1513 -0.6573 -0.1254
  727MOL0     C98026   0.131   6.443   4.903 -0.2118 -0.7594  0.1770
  727MOL0     N98027  -0.005   6.411   4.933 -0.6617  1.0448  0.7774
  727MOL0     C98028  -0.071   6.294   4.910  0.1997 -0.6969  0.5828
  727MOL0     C98029  -0.205   6.333   4.918  0.3042  1.0636  1.1949
  727MOL0     C98030  -0.315   6.249   4.876  0.1587 -0.0423  0.1382
  727MOL0     C98031  -0.445   6.266   4.962  0.4458  0.4477 -0.7399
  727MOL0     C98032  -0.410   6.235   5.108  1.1469 -0.5178 -0.5852
  727MOL0     C98033  -0.531   6.255   5.203 -0.1021  0.0347  0.5582
  727MOL0     O98034  -0.566   6.393   5.228  0.2134  0.0928 -0.3834
  727MOL0     C98035  -0.697   6.407   5.269  0.1669 -0.9505  0.1908
  727MOL0     C98036  -0.749   6.314   5.356  0.0181 -0.9767 -1.0271
  727MOL0     C98037  -0.883   6.319   5.401  0.0309 -0.2820 -0.0840
  727MOL0     C98038  -0.933   6.211   5.486 -0.3972  0.3470  0.0443
  727MOL0     C98039  -0.967   6.421   5.350  0.0651  0.7206  0.2063
  727MOL0     C98040  -1.113   6.435   5.393 -0.1739 -1.2583  0.1930
  727MOL0     O98041  -1.185   6.526   5.314  0.0532 -0.5563 -0.6084
  727MOL0     C98042  -1.318   6.555   5.345 -0.1419 -0.1887 -0.5457
  727MOL0     C98043  -1.344   6.691   5.350 -0.1051  0.2530 -0.2644
  727MOL0     C98044  -1.475   6.735   5.378  0.1882  0.2492 -0.0605
  727MOL0     C98045  -1.583   6.645   5.389  0.2646 -0.0506  0.5968
  727MOL0     O98046  -1.714   6.688   5.399  0.3088 -0.0904 -0.2507
  727MOL0     C98047  -1.823   6.602   5.363 -0.6105 -0.0461  0.5712
  727MOL0     C98048  -1.938   6.700   5.368  1.1519  0.9773 -0.1350
  727MOL0     C98049  -2.054   6.650   5.294 -0.2829 -0.0496  0.1933
  727MOL0     C98050  -2.177   6.733   5.333 -0.6445 -0.2760  0.2561
  727MOL0     C98051  -2.295   6.692   5.250  0.4202  0.4699 -0.5743
  727MOL0     C98052  -2.422   6.754   5.309  0.6459  0.0582 -0.3513
  727MOL0     C98053  -2.428   6.906   5.329 -0.0158  0.3545  0.0910
  727MOL0     C98054  -2.563   6.957   5.358 -1.1979  0.5123  0.7696
  727MOL0    Cl98055  -2.574   7.136   5.395  0.3934 -0.1262  0.4214
  727MOL0     C98056  -1.552   6.505   5.376 -0.1555  0.0465 -0.9809
  727MOL0     C98057  -1.419   6.465   5.361 -0.1446  1.1491 -0.2930
  727MOL0     O98058  -1.158   6.369   5.483 -0.0417 -0.6602  0.2358
  727MOL0     C98059  -0.912   6.518   5.257  0.1246  0.1751  0.6570
  727MOL0     C98060  -0.776   6.513   5.223  0.2291 -0.1476  0.5577
  727MOL0     N98061  -0.213   6.467   4.955 -0.4009  0.1851 -0.4473
  727MOL0     N98062  -0.094   6.509   4.961 -1.1111 -1.1396  0.4445
  727MOL0     C98063   0.164   6.847   3.913 -0.4333 -0.8964 -0.3205
  727MOL0     C98064   0.197   6.938   3.809 -0.4932  0.0793 -0.2411
  727MOL0     C98065   0.236   7.373   3.616 -0.3308 -0.4196  0.0833
  727MOL0     C98066   0.308   7.496   3.618  0.5086 -0.0268  1.1292
  727MOL0     C98067   0.327   7.572   3.503 -0.8060 -0.8683  0.8905
  727MOL0     C98068   0.266   7.552   3.381 -0.0507 -0.5369 -0.1338
  727MOL0     O98069   0.295   7.637   3.279 -0.1553  0.7878  0.0438
  727MOL0     C98070   0.247   7.614   3.145  0.3510  0.8033  0.4411
  727MOL0     C98071   0.356   7.529   3.072  0.0964 -0.0547  0.1763
  727MOL0     C98072   0.481   7.620   3.062  0.8605  0.5536 -0.2376
  727MOL0     C98073   0.604   7.571   2.990 -0.4748  0.0298 -0.0203
  727MOL0     C98074   0.713   7.667   3.024 -0.2390 -0.7978  0.7141
  727MOL0     C98075   0.807   7.746   3.038  0.5526 -0.1938 -0.0100
  727MOL0     C98076   0.214   7.427   3.370 -0.3100 -0.2442  1.9619
  727MOL0     C98077   0.190   7.340   3.483 -0.6293 -0.0657 -1.0318
  727MOL0     H98078   0.078   7.225   3.961 -1.8022 -0.6695 -1.5786
  727MOL0     H98079   0.036   7.059   4.142 -0.3768 -1.0412  0.1603
  727MOL0     H98080   0.202   6.629   4.112  1.7672 -1.6909  2.2441
  727MOL0     H98081   0.285   6.777   4.189  0.0074 -0.4129  1.7563
  727MOL0     H98082   0.154   6.751   4.378  0.1273  0.5095 -1.6534
  727MOL0     H98083   0.076   6.599   4.302  0.2675 -0.1328 -1.7335
  727MOL0     H98084   0.291   6.488   4.311  2.0298  0.6017 -1.8314
  727MOL0     H98085   0.368   6.648   4.359 -1.3500  0.7249  1.0112
  727MOL0     H98086   0.276   6.664   4.567 -2.4875 -0.0658 -1.0054
  727MOL0     H98087   0.153   6.543   4.527 -1.7969 -0.4979  1.1626
  727MOL0     H98088   0.319   6.371   4.519 -2.7828 -0.3917  1.0435
  727MOL0     H98089   0.449   6.474   4.557  0.1082 -4.2657 -4.0305
  727MOL0     H98090   0.383   6.354   4.756 -1.2748 -2.9724 -1.6745
  727MOL0     H98091   0.357   6.523   4.783  1.6856 -0.5479  0.9221
  727MOL0     H98092   0.098   6.473   4.700 -0.8828 -1.2411  0.1395
  727MOL0     H98093   0.151   6.306   4.744  2.2097 -0.9720 -0.9356
  727MOL0     H98094   0.142   6.551   4.919 -0.9100 -0.9310  2.0545
  727MOL0     H98095   0.202   6.397   4.971  1.1796  1.7393  0.5336
  727MOL0     H98096  -0.025   6.210   4.859  1.9823  0.5841 -0.0289
  727MOL0     H98097  -0.339   6.247   4.769 -1.9173  0.3561  0.5381
  727MOL0     H98098  -0.287   6.147   4.904 -0.8703 -2.0320 -4.9917
  727MOL0     H98099  -0.517   6.191   4.928 -0.5934 -0.1874  2.5515
  727MOL0     H98100  -0.489   6.366   4.946  2.4263  1.6790  1.0208
  727MOL0     H98101  -0.328   6.296   5.146 -0.5450 -0.1134  2.8795
  727MOL0     H98102  -0.379   6.130   5.110 -3.4461 -2.1230 -0.2770
  727MOL0     H98103  -0.508   6.193   5.290 -0.0409  0.1384  0.6170
  727MOL0     H98104  -0.612   6.199   5.155  0.6045 -2.4648  2.0914
  727MOL0     H98105  -0.681   6.236   5.389 -0.2058 -0.8813 -0.3162
  727MOL0     H98106  -1.008   6.145   5.440 -0.2247  1.7476 -2.4577
  727MOL0     H98107  -0.848   6.145   5.508  1.0785  1.4880 -1.9029
  727MOL0     H98108  -0.974   6.253   5.578 -0.9381  0.8385 -0.4122
  727MOL0     H98109  -1.260   6.759   5.346  0.8458  0.1045  6.1605
  727MOL0     H98110  -1.489   6.843   5.378 -0.8642  0.1280 -0.8555
  727MOL0     H98111  -1.802   6.567   5.261 -4.1391 -2.3518  0.4612
  727MOL0     H98112  -1.836   6.510   5.422 -1.4201 -1.2183 -1.3316
  727MOL0     H98113  -1.975   6.706   5.470 -2.0913 -0.4677 -1.0969
  727MOL0     H98114  -1.907   6.802   5.341  0.7048  1.6663  1.8117
  727MOL0     H98115  -2.052   6.544   5.318  3.5315  0.4510  2.7598
  727MOL0     H98116  -2.035   6.652   5.186  1.0100 -0.8241  0.4019
  727MOL0     H98117  -2.191   6.718   5.440 -1.7979 -3.2428 -0.2018
  727MOL0     H98118  -2.174   6.842   5.320  2.1974 -0.4485 -1.4881
  727MOL0     H98119  -2.303   6.583   5.260  1.8565  0.4225  0.3081
  727MOL0     H98120  -2.272   6.708   5.144  3.1291 -5.0687 -1.1867
  727MOL0     H98121  -2.504   6.725   5.243 -0.8817  3.8104 -0.3642
  727MOL0     H98122  -2.434   6.705   5.406 -0.2836  1.4535  0.2596
  727MOL0     H98123  -2.402   6.953   5.234 -1.4727  1.7832  0.3413
  727MOL0     H98124  -2.357   6.944   5.402 -0.4107  2.2531 -0.4603
  727MOL0     H98125  -2.605   6.907   5.446 -2.4475 -0.2801 -0.2403
  727MOL0     H98126  -2.629   6.936   5.273 -1.5227 -1.8927  1.5517
  727MOL0     H98127  -1.623   6.424   5.382  3.3498 -3.2543  0.1681
  727MOL0     H98128  -1.395   6.361   5.341  1.1838  1.3770 -0.0117
  727MOL0     H98129  -0.967   6.598   5.208  1.0280  0.8104  0.6605
  727MOL0     H98130  -0.734   6.588   5.156 -0.5181 -0.4977 -0.3202
  727MOL0     H98131   0.167   6.742   3.886 -2.4920 -0.6727 -1.6619
  727MOL0     H98132   0.230   6.903   3.712 -1.8582 -3.6523  0.4872
  727MOL0     H98133   0.340   7.533   3.716 -3.0883  1.3053  1.9454
  727MOL0     H98134   0.363   7.674   3.515  0.3661 -0.8918 -1.6780
  727MOL0     H98135   0.146   7.572   3.144  0.2173  1.0743 -1.6979
  727MOL0     H98136   0.230   7.710   3.096  2.0832 -0.3817 -2.7992
  727MOL0     H98137   0.311   7.497   2.977  1.9835 -0.6017 -0.5759
  727MOL0     H98138   0.371   7.439   3.132  1.8538  1.6735  2.4757
  727MOL0     H98139   0.508   7.652   3.163 -0.8021 -1.7392  1.0061
  727MOL0     H98140   0.451   7.712   3.009  0.8092 -1.7852 -4.7503
  727MOL0     H98141   0.597   7.569   2.880 -2.3460 -0.1303  0.0597
  727MOL0     H98142   0.619   7.469   3.025 -0.7531 -0.3648 -1.0000
  727MOL0     H98143   0.891   7.804   3.072  0.6599 -0.7873  0.7807
  727MOL0     H98144   0.188   7.397   3.269 -0.1825  4.4732  0.2689
  727MOL0     H98145   0.131   7.250   3.470  0.9724 -1.3998  0.4909
  728MOL0     O98146  10.177   5.640   8.193  0.1124  0.4089 -0.7255
  728MOL0     C98147  10.186   5.518   8.206  0.3372 -0.2684  0.4587
  728MOL0     O98148  10.258   5.446   8.298  0.3027  0.4883 -0.4425
  728MOL0     C98149  10.327   5.516   8.398  0.4954  0.6206  0.2186
  728MOL0     C98150  10.420   5.432   8.455  0.0558 -0.0632  0.0773
  728MOL0     C98151  10.519   5.476   8.542 -0.5811 -0.4301  0.0576
  728MOL0     C98152  10.515   5.612   8.595 -0.3438 -0.2889  0.4819
  728MOL0     O98153  10.619   5.656   8.674 -0.3356 -0.5777  0.3350
  728MOL0     C98154  10.617   5.782   8.738 -0.1121  0.3571 -0.1773
  728MOL0     C98155  10.746   5.806   8.817  0.4869  0.4616 -0.4407
  728MOL0     C98156  10.761   5.708   8.929 -0.3209 -0.0886  0.6054
  728MOL0     C98157  10.887   5.739   9.001  0.5710 -0.4576 -0.5549
  728MOL0     C98158  10.901   5.660   9.129  0.1415 -0.4290 -0.1749
  728MOL0     C98159  10.888   5.505   9.108  0.1995  0.7521  0.4536
  728MOL0     C98160  10.902   5.432   9.245 -0.9051 -0.7418  0.4039
  728MOL0     C98161  10.804   5.477   9.350  0.1929  0.1808  0.1700
  728MOL0     N98162  10.669   5.448   9.312 -0.2794 -0.3327 -0.0214
  728MOL0     C98163  10.613   5.322   9.313 -0.0511 -0.4796 -0.0233
  728MOL0     C98164  10.482   5.346   9.324  0.0967 -0.5224 -0.0941
  728MOL0     C98165  10.389   5.227   9.363 -0.3850  0.2724  0.5776
  728MOL0     C98166  10.248   5.253   9.328 -0.8218 -0.3051  0.2973
  728MOL0     C98167  10.159   5.145   9.404 -0.0747 -0.2550  0.8589
  728MOL0     C98168  10.029   5.123   9.338 -0.1410 -0.2677  0.9267
  728MOL0     O98169   9.949   5.030   9.404  0.5603 -0.2373  0.2519
  728MOL0     C98170   9.817   5.039   9.381 -0.3797  0.4819 -0.9839
  728MOL0     C98171   9.747   5.101   9.277  0.0349  0.1512  0.0004
  728MOL0     C98172   9.608   5.113   9.283 -0.1031 -0.2011  0.7325
  728MOL0     C98173   9.535   5.167   9.162  0.2336  0.8380  0.0078
  728MOL0     C98174   9.536   5.081   9.397  0.5912  0.1366  0.0280
  728MOL0     C98175   9.384   5.088   9.410 -0.4255  0.5772 -0.5684
  728MOL0     O98176   9.336   5.061   9.539  0.3385  0.3809 -0.3016
  728MOL0     C98177   9.207   5.083   9.575  0.0840 -0.2476 -0.2477
  728MOL0     C98178   9.139   5.197   9.527  0.0995  1.0834  0.6737
  728MOL0     C98179   8.999   5.209   9.545 -0.4525 -0.7072  0.0087
  728MOL0     C98180   8.936   5.128   9.637  0.8486  0.6189 -0.7901
  728MOL0     O98181   8.811   5.147   9.684  0.4227  0.4344  1.1918
  728MOL0     C98182   8.720   5.044   9.635 -0.9486  0.5274  0.7959
  728MOL0     C98183   8.584   5.110   9.623 -0.4327 -0.3823  0.0450
  728MOL0     C98184   8.489   5.019   9.557  0.6149  0.0349 -0.0886
  728MOL0     C98185   8.361   5.100   9.522  1.1761 -0.5131 -0.4507
  728MOL0     C98186   8.270   5.003   9.439 -0.3474  0.2193 -0.0219
  728MOL0     C98187   8.139   5.086   9.409 -0.1370 -0.3741  0.9746
  728MOL0     C98188   8.032   5.000   9.333  0.6925 -0.3098  0.0604
  728MOL0     C98189   7.893   5.071   9.336 -0.1023  0.1682  0.1943
  728MOL0    Cl98190   7.878   5.172   9.191  0.7985 -0.3957 -0.2341
  728MOL0     C98191   9.009   5.021   9.695 -0.1304 -1.0814 -0.0669
  728MOL0     C98192   9.137   4.997   9.662 -0.1157 -0.0799 -0.6099
  728MOL0     O98193   9.320   5.095   9.309 -0.2478 -0.2327  0.6200
  728MOL0     C98194   9.609   5.016   9.500  0.1041 -0.2356  0.2323
  728MOL0     C98195   9.746   4.985   9.482  0.3105 -0.1239 -0.3806
  728MOL0     N98196  10.457   5.485   9.311 -0.0629  0.4693 -0.6264
  728MOL0     N98197  10.575   5.541   9.306 -0.2290 -0.0587  0.2207
  728MOL0     C98198  10.409   5.694   8.538 -0.0577  0.1658 -0.1381
  728MOL0     C98199  10.317   5.648   8.443 -0.8193 -0.9181  0.1810
  728MOL0     C98200  10.098   5.440   8.105  0.4097 -1.4982 -0.3182
  728MOL0     C98201  10.023   5.504   8.003  0.1999 -0.1070  0.3381
  728MOL0     C98202   9.948   5.431   7.907 -1.5112  0.6287  0.1775
  728MOL0     C98203   9.940   5.293   7.914 -1.0050  0.5285  0.5039
  728MOL0     O98204   9.861   5.228   7.820 -0.1987 -0.6510 -0.7721
  728MOL0     C98205   9.857   5.090   7.805  0.1472  0.8225 -0.8659
  728MOL0     C98206   9.764   5.038   7.915  0.5419 -0.2615 -0.2818
  728MOL0     C98207   9.620   5.071   7.871  0.2369  0.1372 -0.1220
  728MOL0     C98208   9.561   4.956   7.794 -0.6280  0.2614  1.3603
  728MOL0     C98209   9.517   4.848   7.879 -0.2939  0.6911 -0.5358
  728MOL0     C98210   9.463   4.757   7.944 -0.1914 -0.0634 -0.8756
  728MOL0     C98211  10.019   5.229   8.017 -0.6379 -0.5491 -0.0767
  728MOL0     C98212  10.096   5.299   8.111 -0.0278 -0.7415 -1.2529
  728MOL0     H98213  10.424   5.328   8.424 -0.3625 -0.3296  0.8889
  728MOL0     H98214  10.594   5.405   8.573  1.5750  1.2619 -1.0431
  728MOL0     H98215  10.618   5.861   8.664 -4.5566  0.6021 -0.2518
  728MOL0     H98216  10.524   5.799   8.794  1.4428  1.2461  2.2771
  728MOL0     H98217  10.828   5.799   8.745  0.3476 -0.6080 -0.5061
  728MOL0     H98218  10.740   5.909   8.854 -1.1594  0.9721 -1.9847
  728MOL0     H98219  10.672   5.719   8.991 -0.3722 -1.9796  0.9295
  728MOL0     H98220  10.773   5.612   8.877  3.0724  0.9082 -0.7380
  728MOL0     H98221  10.967   5.747   8.928 -0.1988  2.7313 -1.1872
  728MOL0     H98222  10.894   5.841   9.040  1.2980 -1.1648  1.3123
  728MOL0     H98223  11.001   5.675   9.171 -1.3321 -0.3216  3.7346
  728MOL0     H98224  10.826   5.700   9.197 -0.9005 -0.7379 -1.1283
  728MOL0     H98225  10.795   5.466   9.067 -0.4629 -2.5826  4.4316
  728MOL0     H98226  10.970   5.470   9.045 -0.8396  0.5202 -0.7886
  728MOL0     H98227  10.902   5.323   9.234  2.9511 -0.8627  0.1180
  728MOL0     H98228  10.999   5.455   9.291 -1.9373  2.3632  1.2365
  728MOL0     H98229  10.817   5.583   9.372  3.8752 -0.1424  0.1063
  728MOL0     H98230  10.822   5.414   9.437 -0.8399 -2.3967 -1.3478
  728MOL0     H98231  10.658   5.225   9.330 -1.8429 -1.1092  1.5742
  728MOL0     H98232  10.433   5.132   9.332 -2.6861 -0.8294  0.5132
  728MOL0     H98233  10.399   5.227   9.472  0.5557  1.2443  0.5115
  728MOL0     H98234  10.241   5.255   9.219 -0.7513  0.1144  0.2961
  728MOL0     H98235  10.222   5.355   9.360 -3.3260 -0.6475 -0.4445
  728MOL0     H98236  10.148   5.178   9.507 -0.8022 -0.6393  0.9097
  728MOL0     H98237  10.196   5.041   9.401 -2.8716 -1.3714  2.0530
  728MOL0     H98238  10.042   5.084   9.236  2.1653  0.8645  0.7411
  728MOL0     H98239   9.968   5.213   9.333  0.7197  0.2690 -2.7090
  728MOL0     H98240   9.800   5.126   9.186  0.2887  1.4130  0.4781
  728MOL0     H98241   9.468   5.248   9.192 -0.3676 -0.1307  1.4153
  728MOL0     H98242   9.612   5.198   9.091  0.2062 -0.3920 -0.5920
  728MOL0     H98243   9.476   5.091   9.109  0.3774  2.2326 -2.2701
  728MOL0     H98244   9.190   5.276   9.473  0.3609  1.9479  2.1250
  728MOL0     H98245   8.929   5.283   9.507 -1.0095 -0.4229  1.4903
  728MOL0     H98246   8.749   5.006   9.536 -0.2689  3.0267 -0.0313
  728MOL0     H98247   8.716   4.959   9.704  1.3821  0.7680  1.3000
  728MOL0     H98248   8.548   5.144   9.720  1.9811  0.2318  0.7815
  728MOL0     H98249   8.587   5.199   9.559 -3.0066 -2.1520 -2.8362
  728MOL0     H98250   8.465   4.942   9.631 -1.7450  2.5795  2.0240
  728MOL0     H98251   8.532   4.974   9.467 -0.6082  2.8046 -2.1971
  728MOL0     H98252   8.319   5.131   9.618  2.1218 -1.7452  0.3935
  728MOL0     H98253   8.383   5.190   9.464 -1.0916  1.3902  1.4129
  728MOL0     H98254   8.247   4.914   9.499  1.5327  0.8595  1.7530
  728MOL0     H98255   8.318   4.983   9.343 -1.8836  0.0989 -0.8071
  728MOL0     H98256   8.106   5.134   9.502 -0.5415  0.8656  0.2131
  728MOL0     H98257   8.156   5.165   9.336  1.1502 -0.1504  1.4891
  728MOL0     H98258   8.022   4.903   9.381  2.2546 -0.0013  1.0920
  728MOL0     H98259   8.065   4.983   9.230  3.2167  1.3343  0.4832
  728MOL0     H98260   7.887   5.134   9.424  0.3309 -0.8051  0.9405
  728MOL0     H98261   7.808   5.001   9.334 -1.2980  1.5555  0.8791
  728MOL0     H98262   8.946   4.961   9.760 -2.4808  0.0082 -1.2148
  728MOL0     H98263   9.189   4.914   9.709 -0.9824  0.4387  1.3413
  728MOL0     H98264   9.563   4.970   9.587  1.6425 -1.5045  0.4217
  728MOL0     H98265   9.798   4.954   9.572  0.6645  0.9577 -0.1980
  728MOL0     H98266  10.404   5.799   8.566  1.2846 -0.4749  2.9440
  728MOL0     H98267  10.245   5.719   8.402 -0.1412 -0.5005 -0.3145
  728MOL0     H98268  10.024   5.612   7.998  1.8819 -0.1209 -0.1470
  728MOL0     H98269   9.895   5.481   7.826 -1.0412  1.6159  0.4635
  728MOL0     H98270   9.812   5.071   7.707 -1.0855 -3.3196  0.2942
  728MOL0     H98271   9.953   5.037   7.806  0.7164  1.7796 -2.1213
  728MOL0     H98272   9.794   5.092   8.005  0.2531  0.2145 -0.4712
  728MOL0     H98273   9.783   4.931   7.933 -0.0673 -1.0351 -3.5173
  728MOL0     H98274   9.606   5.165   7.817 -0.3650 -0.2824 -0.7090
  728MOL0     H98275   9.565   5.077   7.966  0.7011  1.8335  0.0864
  728MOL0     H98276   9.635   4.920   7.721  0.3580  1.7680  1.5827
  728MOL0     H98277   9.477   4.988   7.732  2.4692  3.0430 -1.9138
  728MOL0     H98278   9.417   4.679   8.001  1.2615 -2.7882 -3.1449
  728MOL0     H98279  10.031   5.122   8.032  0.8636 -0.2363  1.1075
  728MOL0     H98280  10.164   5.243   8.176 -0.2020  0.8125  0.3252
  729MOL0     O98281   4.269   1.316   9.740 -0.3363 -0.2928  0.4495
  729MOL0     C98282   4.273   1.245   9.840  0.5312  0.1406 -0.5558
  729MOL0     O98283   4.274   1.278   9.973  0.5039  0.5589  0.8504
  729MOL0     C98284   4.247   1.407   9.997  0.6374 -0.1772  0.7076
  729MOL0     C98285   4.349   1.506   9.987  0.2717  0.8445  0.4188
  729MOL0     C98286   4.332   1.637  10.037 -0.2214 -0.4581  0.2688
  729MOL0     C98287   4.206   1.685  10.069 -0.3508  0.6589 -0.0439
  729MOL0     O98288   4.190   1.809  10.113 -0.5790 -0.2971 -0.6004
  729MOL0     C98289   4.213   1.920  10.022  0.4350  0.2500 -0.2655
  729MOL0     C98290   4.088   1.932   9.928 -0.9736 -0.2179  1.1616
  729MOL0     C98291   3.978   2.014   9.997 -0.9402 -0.0092  0.2120
  729MOL0     C98292   3.859   2.041   9.898  0.4557 -0.8531 -0.9118
  729MOL0     C98293   3.755   2.135   9.957 -0.6211 -0.4101  0.6693
  729MOL0     C98294   3.654   2.068  10.059 -0.0896 -0.5749 -0.8040
  729MOL0     C98295   3.575   1.953   9.996 -0.5303 -0.1046  0.2928
  729MOL0     C98296   3.467   1.991   9.888 -0.7568 -0.6570  0.6927
  729MOL0     N98297   3.348   2.047   9.951  0.1926 -0.3928  0.2101
  729MOL0     C98298   3.258   1.970  10.020  0.0542  0.2706 -0.8076
  729MOL0     C98299   3.202   2.053  10.110 -0.0935  0.4584  1.1228
  729MOL0     C98300   3.098   2.008  10.204  0.3036 -0.0317 -0.2232
  729MOL0     C98301   2.960   1.975  10.137 -0.5313 -0.0902 -0.3209
  729MOL0     C98302   2.920   2.094  10.049 -0.1149 -0.9311 -0.3825
  729MOL0     C98303   2.789   2.079   9.974 -0.2034  0.3219  0.6682
  729MOL0     O98304   2.686   2.039  10.063  0.3415  0.6068  0.6407
  729MOL0     C98305   2.603   1.938  10.012  0.4106 -0.2120  0.3253
  729MOL0     C98306   2.656   1.804  10.000  0.7797 -0.1123 -0.1500
  729MOL0     C98307   2.573   1.700   9.951 -1.0300  0.1042 -0.1489
  729MOL0     C98308   2.638   1.561   9.948 -0.1265 -0.0100 -0.7037
  729MOL0     C98309   2.440   1.725   9.927  0.7946 -0.4363 -0.4905
  729MOL0     C98310   2.334   1.624   9.881 -0.2485  0.6839  0.3692
  729MOL0     O98311   2.247   1.663   9.795 -0.0203 -0.1517 -0.3137
  729MOL0     C98312   2.165   1.590   9.711 -0.0065  0.1539  0.2102
  729MOL0     C98313   2.083   1.662   9.622 -0.6076 -0.6513 -0.2204
  729MOL0     C98314   2.010   1.599   9.532  0.7401 -0.1118 -0.1681
  729MOL0     C98315   1.997   1.466   9.524  0.6055  0.4326 -0.9965
  729MOL0     O98316   1.921   1.393   9.443  0.0363  0.2890  0.4636
  729MOL0     C98317   1.778   1.410   9.461  0.4100 -0.2243  0.0877
  729MOL0     C98318   1.726   1.439   9.608 -0.2119  0.6875 -0.3065
  729MOL0     C98319   1.581   1.492   9.595  0.9441  0.4645  0.6788
  729MOL0     C98320   1.516   1.496   9.732 -0.1735 -0.7696  0.7790
  729MOL0     C98321   1.482   1.356   9.798 -1.0044 -1.1261  0.0666
  729MOL0     C98322   1.370   1.379   9.909  0.6382 -0.2024 -0.3627
  729MOL0     C98323   1.424   1.313  10.031 -0.3162 -0.0187 -0.6167
  729MOL0     C98324   1.323   1.334  10.154  0.5250  0.7010  0.8022
  729MOL0    Cl98325   1.163   1.254  10.137 -0.1927 -0.2393 -0.0857
  729MOL0     C98326   2.078   1.384   9.611  0.9933  0.0611  0.1003
  729MOL0     C98327   2.160   1.449   9.708  0.2149  0.4688 -0.2092
  729MOL0     O98328   2.327   1.518   9.944  0.0797  0.8488 -0.3294
  729MOL0     C98329   2.391   1.859   9.939  0.4872  0.1170 -0.3236
  729MOL0     C98330   2.468   1.966   9.986 -0.5980  0.2702 -0.0201
  729MOL0     N98331   3.249   2.181  10.079 -0.6767 -0.1688 -0.3853
  729MOL0     N98332   3.347   2.175   9.991 -0.1180  0.7424 -0.5698
  729MOL0     C98333   4.102   1.595  10.052  0.1326  0.7280  0.5243
  729MOL0     C98334   4.120   1.458  10.019  1.0560 -0.5252 -0.5385
  729MOL0     C98335   4.308   1.100   9.814 -0.3730  0.3317 -0.0158
  729MOL0     C98336   4.295   1.038   9.693  0.5746  0.6040 -0.8756
  729MOL0     C98337   4.334   0.907   9.685  0.2257 -0.4470  0.2177
  729MOL0     C98338   4.390   0.834   9.780  0.0075 -0.2141 -0.2296
  729MOL0     O98339   4.437   0.709   9.751 -0.8088 -0.5985 -0.3796
  729MOL0     C98340   4.501   0.622   9.844  0.1091  0.3333  0.1036
  729MOL0     C98341   4.567   0.517   9.760  0.2151 -0.8217  0.2099
  729MOL0     C98342   4.672   0.568   9.660 -0.2962 -0.1309  0.8213
  729MOL0     C98343   4.722   0.453   9.568  0.0954 -0.0564 -0.0762
  729MOL0     C98344   4.808   0.355   9.643  0.4372  0.1505 -0.8548
  729MOL0     C98345   4.867   0.261   9.696 -0.0043 -0.6889 -0.3806
  729MOL0     C98346   4.400   0.891   9.902  0.1496  0.4905  0.9938
  729MOL0     C98347   4.359   1.016   9.922 -0.4069 -0.5037  0.5758
  729MOL0     H98348   4.445   1.472   9.948 -1.2770 -2.6252 -0.7493
  729MOL0     H98349   4.417   1.704  10.039 -0.0280 -0.4925 -2.3621
  729MOL0     H98350   4.222   2.013  10.079 -3.0733 -0.6938  2.1609
  729MOL0     H98351   4.297   1.893   9.957 -0.5957 -0.0685 -1.5328
  729MOL0     H98352   4.115   1.979   9.833 -1.2402 -1.2126  0.5807
  729MOL0     H98353   4.054   1.833   9.898  0.9539 -0.2149 -1.4062
  729MOL0     H98354   3.938   1.952  10.078  0.0837 -3.9109 -2.0335
  729MOL0     H98355   4.016   2.110  10.033  1.6819 -1.1952  0.8392
  729MOL0     H98356   3.907   2.092   9.814  2.4057 -2.0039 -0.5324
  729MOL0     H98357   3.819   1.953   9.847 -0.4062  0.5793 -2.8824
  729MOL0     H98358   3.800   2.222  10.006 -0.2428  0.9233 -1.8765
  729MOL0     H98359   3.701   2.185   9.876 -0.3425  1.0307  1.3309
  729MOL0     H98360   3.707   2.026  10.144 -1.3023 -2.3520 -0.8598
  729MOL0     H98361   3.580   2.140  10.095  0.4895 -0.4529  0.1553
  729MOL0     H98362   3.653   1.885   9.961 -0.2570 -0.4631  1.5478
  729MOL0     H98363   3.525   1.898  10.076 -1.1711  0.4585  0.2890
  729MOL0     H98364   3.433   1.904   9.832 -3.1580 -1.3547  3.0153
  729MOL0     H98365   3.517   2.058   9.817 -0.9650 -1.2516 -0.0278
  729MOL0     H98366   3.260   1.861  10.021  1.2664  0.2821 -0.2579
  729MOL0     H98367   3.124   1.910  10.243 -1.3868  0.2505  1.8189
  729MOL0     H98368   3.088   2.090  10.276 -1.9013 -0.5897  0.1804
  729MOL0     H98369   2.885   1.963  10.216  2.2017 -2.5612  2.1288
  729MOL0     H98370   2.973   1.891  10.068 -1.1285  0.6347 -1.3497
  729MOL0     H98371   2.996   2.120   9.976 -1.1181  1.9009 -0.5808
  729MOL0     H98372   2.901   2.187  10.105 -2.1506 -2.3960  1.5449
  729MOL0     H98373   2.804   1.996   9.904  0.3060 -0.5300  1.7518
  729MOL0     H98374   2.770   2.167   9.912 -0.7110 -0.1184  0.1919
  729MOL0     H98375   2.747   1.766  10.045  0.3260  0.4237  1.2676
  729MOL0     H98376   2.621   1.515  10.045  0.4099 -1.6367 -1.3579
  729MOL0     H98377   2.590   1.503   9.868  0.1645 -2.4783  0.8274
  729MOL0     H98378   2.746   1.564   9.930  0.1670  0.2208  0.9282
  729MOL0     H98379   2.064   1.769   9.624  0.1955 -0.4186 -2.2134
  729MOL0     H98380   1.948   1.652   9.460  0.9830 -0.2398 -0.4780
  729MOL0     H98381   1.744   1.485   9.390  1.1661 -0.2264 -0.2902
  729MOL0     H98382   1.741   1.310   9.433  0.8743 -1.5175  3.5037
  729MOL0     H98383   1.735   1.341   9.656  1.2952  1.2125  0.5815
  729MOL0     H98384   1.787   1.508   9.668  0.7677 -0.5349  0.1386
  729MOL0     H98385   1.528   1.413   9.542  1.6406 -1.2275  2.3632
  729MOL0     H98386   1.585   1.594   9.555 -0.2340  1.9378  3.9173
  729MOL0     H98387   1.565   1.562   9.805  0.1464  0.1413 -0.2387
  729MOL0     H98388   1.415   1.537   9.720  0.3308  0.7550  1.3536
  729MOL0     H98389   1.569   1.303   9.837  1.9628  1.9044 -1.8621
  729MOL0     H98390   1.430   1.295   9.723 -1.2988  1.1190 -1.7062
  729MOL0     H98391   1.366   1.485   9.936  2.1196 -0.4256  0.8724
  729MOL0     H98392   1.273   1.346   9.870  0.5042 -1.4677  0.9495
  729MOL0     H98393   1.515   1.365  10.062 -0.1233 -2.0405  2.6506
  729MOL0     H98394   1.451   1.210  10.007  1.6285  0.6005 -1.2754
  729MOL0     H98395   1.302   1.441  10.169 -4.9851  0.7423 -3.7128
  729MOL0     H98396   1.369   1.298  10.246 -0.5435 -1.7474  0.4406
  729MOL0     H98397   2.075   1.275   9.603  0.3965  0.1956 -2.2237
  729MOL0     H98398   2.233   1.394   9.766 -0.0033  4.0232  3.9277
  729MOL0     H98399   2.285   1.876   9.923 -0.3721 -5.2030 -2.3155
  729MOL0     H98400   2.430   2.065  10.010  1.7925  1.8653 -2.3019
  729MOL0     H98401   4.004   1.638  10.069 -0.2317 -0.4444  1.5264
  729MOL0     H98402   4.028   1.401  10.025  2.1523 -2.2125  3.4242
  729MOL0     H98403   4.250   1.083   9.604  0.9767 -1.6806 -2.3112
  729MOL0     H98404   4.334   0.867   9.584 -3.7568  2.8043 -1.3270
  729MOL0     H98405   4.565   0.675   9.915 -2.3582  0.9370  2.0263
  729MOL0     H98406   4.421   0.573   9.900 -0.4827  1.9720  0.7621
  729MOL0     H98407   4.488   0.468   9.704 -1.1498  1.9412 -0.4837
  729MOL0     H98408   4.620   0.442   9.819  1.4023 -1.2672 -1.3592
  729MOL0     H98409   4.752   0.627   9.707 -1.0670  0.7376  1.0775
  729MOL0     H98410   4.622   0.639   9.593 -1.3190 -1.2414  0.3867
  729MOL0     H98411   4.771   0.500   9.482  0.5841  2.0605  1.2588
  729MOL0     H98412   4.647   0.386   9.527  0.8609 -0.8430 -0.2262
  729MOL0     H98413   4.908   0.172   9.740  1.8370 -0.7929 -2.1497
  729MOL0     H98414   4.442   0.841   9.988 -2.2647  1.5760  2.9221
  729MOL0     H98415   4.374   1.061  10.019 -2.9950  1.8818  0.0088
  730MOL0     O98416  10.349   5.052   4.998  0.2111 -0.3178  0.0862
  730MOL0     C98417  10.314   5.009   4.890 -0.2953 -0.3151  1.1251
  730MOL0     O98418  10.223   5.073   4.811 -0.1221  0.0933  0.2725
  730MOL0     C98419  10.212   5.204   4.838  0.8853 -0.7466  0.3356
  730MOL0     C98420  10.105   5.235   4.915  0.0934 -0.3070  0.3400
  730MOL0     C98421  10.081   5.365   4.952 -0.0512  0.1531 -0.9961
  730MOL0     C98422  10.164   5.470   4.914 -0.1413  1.3394 -0.0973
  730MOL0     O98423  10.121   5.588   4.960 -0.4733  0.6220 -0.5236
  730MOL0     C98424  10.169   5.709   4.909 -0.8602 -0.1075 -0.3803
  730MOL0     C98425  10.065   5.824   4.937  0.4467  0.5237 -0.3058
  730MOL0     C98426  10.060   5.861   5.089  0.1421 -0.0337 -0.1011
  730MOL0     C98427   9.954   5.784   5.175 -0.3107 -0.6164  0.1778
  730MOL0     C98428   9.948   5.853   5.313 -0.5815  0.0876  0.1670
  730MOL0     C98429  10.073   5.876   5.391 -0.4765 -0.5616 -0.8876
  730MOL0     C98430  10.042   5.933   5.533 -1.0877 -0.3489  0.1011
  730MOL0     C98431  10.028   6.088   5.519 -0.1469  0.1710 -0.4206
  730MOL0     N98432   9.916   6.142   5.594 -0.7985 -0.1704  0.1496
  730MOL0     C98433   9.924   6.260   5.661  0.1267  0.5477 -0.2963
  730MOL0     C98434   9.804   6.279   5.713  0.3363 -0.0207 -0.2450
  730MOL0     C98435   9.769   6.394   5.805  0.2047  0.5261 -0.5584
  730MOL0     C98436   9.617   6.437   5.828 -0.7417  1.4231  0.2845
  730MOL0     C98437   9.545   6.507   5.725  0.7079 -0.9205  0.6519
  730MOL0     C98438   9.397   6.552   5.779 -0.3872  0.1305  0.6964
  730MOL0     O98439   9.324   6.648   5.706  0.3116  0.2661 -0.5042
  730MOL0     C98440   9.252   6.737   5.778  0.9088  0.0520 -0.2400
  730MOL0     C98441   9.193   6.711   5.905 -0.3745  0.3262  0.4540
  730MOL0     C98442   9.126   6.810   5.976 -0.0672  0.2402 -0.1998
  730MOL0     C98443   9.041   6.773   6.090  0.6968  0.5128 -0.5103
  730MOL0     C98444   9.113   6.943   5.917  0.2333  0.0107  0.3095
  730MOL0     C98445   9.045   7.055   5.982 -0.2842  0.2239 -0.4123
  730MOL0     O98446   9.033   7.052   6.119  0.0982 -0.1065 -0.5979
  730MOL0     C98447   8.965   7.159   6.174 -0.3903  0.6989  0.7603
  730MOL0     C98448   9.053   7.247   6.249  0.1567 -0.7512  0.4340
  730MOL0     C98449   8.999   7.361   6.320 -0.1467  0.3596  0.2700
  730MOL0     C98450   8.863   7.377   6.321 -0.5248 -0.3115  0.2006
  730MOL0     O98451   8.817   7.489   6.393 -0.4433 -0.3515  0.3269
  730MOL0     C98452   8.685   7.477   6.447  1.1327 -0.5299  0.6309
  730MOL0     C98453   8.662   7.354   6.536 -0.2601  0.2645  0.6909
  730MOL0     C98454   8.521   7.344   6.605  0.0775  0.1204  0.2259
  730MOL0     C98455   8.530   7.279   6.751 -0.1721 -0.2038 -0.6982
  730MOL0     C98456   8.397   7.288   6.840  0.0014  0.0528 -0.0287
  730MOL0     C98457   8.268   7.250   6.763  0.1452  0.2998 -0.1387
  730MOL0     C98458   8.153   7.304   6.840  0.2912 -0.6225  0.4822
  730MOL0     C98459   8.021   7.249   6.789  0.0970 -0.1414 -0.2133
  730MOL0    Cl98460   7.887   7.342   6.854  0.0656 -0.1521 -0.0508
  730MOL0     C98461   8.786   7.285   6.247  0.6504 -0.2601 -0.4548
  730MOL0     C98462   8.830   7.179   6.176  0.5780  0.3170 -0.8879
  730MOL0     O98463   9.008   7.143   5.907 -0.2001 -0.4146  1.1313
  730MOL0     C98464   9.165   6.968   5.790  0.0046 -0.5419 -0.0162
  730MOL0     C98465   9.226   6.864   5.727  0.0762 -0.1617  0.1316
  730MOL0     N98466   9.719   6.184   5.673 -0.5084  0.1176 -0.3670
  730MOL0     N98467   9.791   6.105   5.598 -0.3204  0.1371 -0.8009
  730MOL0     C98468  10.276   5.438   4.833 -1.3048 -0.1054 -0.1446
  730MOL0     C98469  10.306   5.309   4.796 -0.1697  0.8279 -0.0316
  730MOL0     C98470  10.357   4.877   4.833  0.2500  0.3428 -0.4490
  730MOL0     C98471  10.448   4.804   4.916 -0.5020  0.2424  0.6099
  730MOL0     C98472  10.499   4.680   4.876 -0.9998 -0.1899  1.0001
  730MOL0     C98473  10.462   4.633   4.751 -0.4820 -0.2249 -0.7810
  730MOL0     O98474  10.495   4.511   4.705 -0.1844 -0.5342  0.2623
  730MOL0     C98475  10.551   4.416   4.798 -0.6281 -0.9381 -1.1268
  730MOL0     C98476  10.706   4.418   4.791  0.1078 -1.0543 -0.1511
  730MOL0     C98477  10.756   4.376   4.655  0.8776 -0.1247 -0.5213
  730MOL0     C98478  10.904   4.342   4.657  0.3990 -0.8089 -0.3362
  730MOL0     C98479  10.934   4.218   4.728 -0.4184 -0.2567 -0.6089
  730MOL0     C98480  10.955   4.118   4.793  0.0034 -0.7262  0.3070
  730MOL0     C98481  10.381   4.704   4.667  0.1837  0.3002 -0.2762
  730MOL0     C98482  10.331   4.826   4.705  0.4848 -0.7498  0.0251
  730MOL0     H98483  10.030   5.164   4.950 -1.2300  1.6123  1.5882
  730MOL0     H98484  10.001   5.386   5.022  0.9550 -0.9721  0.5442
  730MOL0     H98485  10.270   5.727   4.948 -0.5727  0.6044 -1.3961
  730MOL0     H98486  10.180   5.707   4.800 -2.1559  1.3120 -0.5793
  730MOL0     H98487  10.095   5.914   4.882  2.6543 -0.3602 -0.6430
  730MOL0     H98488   9.970   5.789   4.897  1.0119 -0.6778 -0.6388
  730MOL0     H98489  10.157   5.855   5.139  0.3889  2.1566 -0.2443
  730MOL0     H98490  10.035   5.966   5.106 -1.4605 -0.7837  2.9585
  730MOL0     H98491   9.857   5.782   5.125  0.1288 -0.0347 -0.7299
  730MOL0     H98492   9.973   5.676   5.179 -4.6133 -1.7623 -2.7245
  730MOL0     H98493   9.898   5.948   5.294 -1.7675 -0.6740 -0.5953
  730MOL0     H98494   9.886   5.790   5.377  1.0303  1.0075  2.7876
  730MOL0     H98495  10.136   5.787   5.400 -1.0656 -0.9337 -0.3575
  730MOL0     H98496  10.138   5.948   5.340  0.8630 -0.1650  1.2410
  730MOL0     H98497   9.946   5.892   5.568 -1.1194 -1.3226 -1.0779
  730MOL0     H98498  10.122   5.906   5.602 -2.2184 -1.8157  0.8830
  730MOL0     H98499  10.016   6.124   5.416 -1.3960  0.7435 -0.0885
  730MOL0     H98500  10.118   6.134   5.562  0.0759  0.1873 -0.8916
  730MOL0     H98501  10.011   6.325   5.662  0.4462  0.2807 -2.7417
  730MOL0     H98502   9.824   6.385   5.898  1.4095  1.1082 -1.1955
  730MOL0     H98503   9.818   6.484   5.768  1.1589 -1.4048 -4.6813
  730MOL0     H98504   9.623   6.514   5.906 -0.6473  1.4176  0.2832
  730MOL0     H98505   9.556   6.351   5.854  0.5985  1.2444  3.2742
  730MOL0     H98506   9.535   6.438   5.641 -1.8175 -0.0678  0.1906
  730MOL0     H98507   9.586   6.604   5.695 -0.3727 -0.7994 -0.5024
  730MOL0     H98508   9.409   6.589   5.881  0.5992  2.7634 -0.2903
  730MOL0     H98509   9.335   6.462   5.785 -0.9326  0.2590 -2.0723
  730MOL0     H98510   9.193   6.609   5.943  0.7164 -0.7546 -2.2429
  730MOL0     H98511   9.038   6.664   6.101  1.4139  0.4532 -0.8295
  730MOL0     H98512   9.079   6.816   6.183 -1.6496 -1.5514  1.5688
  730MOL0     H98513   8.941   6.816   6.079  0.5604 -0.1585 -2.1527
  730MOL0     H98514   9.152   7.205   6.267 -0.0549 -1.0936  0.8319
  730MOL0     H98515   9.054   7.441   6.369  0.4792  1.1600 -1.6411
  730MOL0     H98516   8.658   7.565   6.506  0.4205 -0.7624  0.6584
  730MOL0     H98517   8.617   7.480   6.361 -3.1424 -0.1737  3.6747
  730MOL0     H98518   8.689   7.268   6.474  1.2881  0.9995  0.2921
  730MOL0     H98519   8.740   7.366   6.612  0.2780 -0.2066  0.2176
  730MOL0     H98520   8.459   7.277   6.545 -0.0765 -2.4267  2.9873
  730MOL0     H98521   8.472   7.441   6.612  1.5027  0.9627 -0.9099
  730MOL0     H98522   8.560   7.174   6.739 -3.1242 -1.9823  4.2910
  730MOL0     H98523   8.613   7.339   6.789  0.4891 -0.7640 -1.2246
  730MOL0     H98524   8.399   7.395   6.861  0.7808  0.2024 -0.8048
  730MOL0     H98525   8.410   7.230   6.932  1.7924  1.4596  0.6704
  730MOL0     H98526   8.264   7.291   6.662 -0.8448 -0.5035 -0.4357
  730MOL0     H98527   8.255   7.143   6.750 -2.7921  0.2762  1.9103
  730MOL0     H98528   8.152   7.413   6.835 -6.2515 -0.0389  3.5585
  730MOL0     H98529   8.162   7.273   6.945  0.0382 -0.1848  0.6356
  730MOL0     H98530   8.017   7.150   6.834  1.8670  0.3932  1.2335
  730MOL0     H98531   8.012   7.242   6.680 -1.6418  0.3424 -0.1251
  730MOL0     H98532   8.679   7.300   6.249  0.8166  0.9697  0.0948
  730MOL0     H98533   8.772   7.101   6.129 -0.3139 -0.1103  0.8305
  730MOL0     H98534   9.147   7.062   5.739 -0.5257 -0.3286  0.5443
  730MOL0     H98535   9.246   6.875   5.620 -1.1403  3.0447  0.1242
  730MOL0     H98536  10.352   5.512   4.810 -1.5410 -0.0059 -0.5992
  730MOL0     H98537  10.390   5.266   4.743 -2.1979 -2.6350 -0.7593
  730MOL0     H98538  10.488   4.841   5.010  0.4642  0.0722  0.2823
  730MOL0     H98539  10.577   4.640   4.940 -0.4303  0.7719  0.9213
  730MOL0     H98540  10.521   4.431   4.902 -2.2840 -0.6734 -1.6121
  730MOL0     H98541  10.507   4.320   4.766 -0.8752 -0.7918 -1.2246
  730MOL0     H98542  10.751   4.355   4.869 -1.4419  0.7899  2.4000
  730MOL0     H98543  10.740   4.520   4.808  2.2717 -1.6240 -0.7359
  730MOL0     H98544  10.732   4.452   4.580 -0.9965 -1.5565 -1.4643
  730MOL0     H98545  10.704   4.287   4.617 -1.8728  1.3000 -0.3477
  730MOL0     H98546  10.961   4.427   4.695 -1.5162 -0.7501  2.6779
  730MOL0     H98547  10.930   4.332   4.551 -0.9201 -2.4487 -0.5415
  730MOL0     H98548  10.967   4.033   4.858 -2.0455 -0.0651  1.6532
  730MOL0     H98549  10.371   4.647   4.575  0.0956  1.1276 -0.7956
  730MOL0     H98550  10.270   4.878   4.631 -2.1243 -1.2733  1.6866
  731MOL0     O98551   1.356   0.888   6.332 -0.4369 -0.5182  0.3333
  731MOL0     C98552   1.321   0.846   6.220 -0.9108 -0.9185  0.0356
  731MOL0     O98553   1.205   0.878   6.159 -0.4579  0.3299 -0.0862
  731MOL0     C98554   1.130   0.976   6.221  0.0513  0.0331  0.1865
  731MOL0     C98555   1.163   1.092   6.287  0.0807  0.0595 -0.3955
  731MOL0     C98556   1.066   1.184   6.329 -0.2503 -0.0764 -0.3213
  731MOL0     C98557   0.931   1.173   6.293  0.4279 -0.9278  0.4526
  731MOL0     O98558   0.846   1.282   6.315  0.3047 -0.1471 -0.9201
  731MOL0     C98559   0.729   1.305   6.237 -0.1494 -0.6690  1.2806
  731MOL0     C98560   0.642   1.426   6.292  0.2372  1.1910  0.3283
  731MOL0     C98561   0.544   1.370   6.397 -0.0950 -0.0050 -0.7633
  731MOL0     C98562   0.462   1.488   6.462 -0.5655  0.1679 -0.6541
  731MOL0     C98563   0.356   1.535   6.364  0.4418  0.4519 -0.7313
  731MOL0     C98564   0.240   1.616   6.438 -0.3331 -0.0551  0.5781
  731MOL0     C98565   0.144   1.524   6.515  0.0245  0.5039 -0.3201
  731MOL0     C98566   0.053   1.600   6.608 -0.9717 -0.1531 -0.2433
  731MOL0     N98567   0.133   1.670   6.705  0.4231 -0.4288 -0.7597
  731MOL0     C98568   0.138   1.801   6.740  0.8290  0.7546 -0.1481
  731MOL0     C98569   0.250   1.815   6.818 -0.3568  0.0054  0.7184
  731MOL0     C98570   0.292   1.948   6.878  0.6276  0.0971 -0.3040
  731MOL0     C98571   0.379   2.035   6.776  0.1255  0.5405 -0.5767
  731MOL0     C98572   0.308   2.068   6.649  1.1579 -0.0313  0.1475
  731MOL0     C98573   0.292   2.221   6.639  0.1182 -0.2020 -0.5511
  731MOL0     O98574   0.209   2.253   6.533 -0.2130  0.0802  0.4816
  731MOL0     C98575   0.257   2.266   6.408  0.6242 -0.0958  0.1410
  731MOL0     C98576   0.160   2.298   6.312 -0.2435 -0.5664  0.6798
  731MOL0     C98577   0.193   2.323   6.179  0.6518 -0.8571 -0.5556
  731MOL0     C98578   0.088   2.367   6.076  0.6049  0.1416  0.1490
  731MOL0     C98579   0.329   2.313   6.145 -0.4283  0.9705 -1.0475
  731MOL0     C98580   0.384   2.328   6.010  0.2973 -0.7183 -0.0563
  731MOL0     O98581   0.505   2.398   6.001  0.4141  0.1759  0.4004
  731MOL0     C98582   0.581   2.373   5.893  0.0665  0.1877  0.9047
  731MOL0     C98583   0.649   2.255   5.854  0.4054 -0.4431  0.4043
  731MOL0     C98584   0.733   2.248   5.743  0.1125  0.6858  0.8168
  731MOL0     C98585   0.748   2.363   5.658  0.5123  0.6196  0.2165
  731MOL0     O98586   0.834   2.376   5.548 -0.3049  0.0810  0.4145
  731MOL0     C98587   0.896   2.257   5.489  0.2809  0.6678  0.2488
  731MOL0     C98588   0.988   2.297   5.377  0.7156 -0.7526 -0.6713
  731MOL0     C98589   1.051   2.162   5.326 -0.1433 -0.2380 -0.4758
  731MOL0     C98590   1.174   2.193   5.236  0.0887  0.5726 -0.0841
  731MOL0     C98591   1.262   2.068   5.191 -0.5466 -0.2208  0.3271
  731MOL0     C98592   1.174   1.944   5.171 -0.2703  0.6327  0.4217
  731MOL0     C98593   1.257   1.812   5.154  0.5520 -0.2901  1.2350
  731MOL0     C98594   1.159   1.697   5.113 -0.2292 -0.7052 -0.0783
  731MOL0    Cl98595   1.099   1.747   4.947 -0.0617 -0.2505 -0.0604
  731MOL0     C98596   0.684   2.482   5.697  0.3621 -0.4214 -0.0573
  731MOL0     C98597   0.606   2.486   5.810 -0.0856  0.0262  0.0655
  731MOL0     O98598   0.327   2.264   5.921 -1.0786  0.4073  0.3124
  731MOL0     C98599   0.429   2.268   6.239 -0.3588  0.7371  0.0445
  731MOL0     C98600   0.389   2.242   6.374  0.6680 -0.0733  0.2687
  731MOL0     N98601   0.305   1.699   6.839 -0.2427 -0.2326  0.2005
  731MOL0     N98602   0.237   1.613   6.773  0.0752  0.0101  0.0231
  731MOL0     C98603   0.894   1.061   6.221  0.0755 -0.2782  0.0265
  731MOL0     C98604   0.992   0.963   6.190  0.5043 -0.4470 -0.6236
  731MOL0     C98605   1.410   0.755   6.164 -0.3592 -0.2144  0.3063
  731MOL0     C98606   1.378   0.697   6.040 -1.1940 -0.5210 -0.8255
  731MOL0     C98607   1.469   0.612   5.969 -0.3607 -0.2496 -0.8939
  731MOL0     C98608   1.595   0.589   6.022  0.2015  0.0669  0.3518
  731MOL0     O98609   1.693   0.509   5.965 -0.1297 -0.1438 -0.4066
  731MOL0     C98610   1.675   0.465   5.834 -0.3879  0.2743  0.3365
  731MOL0     C98611   1.799   0.383   5.790 -0.5129 -0.2514 -0.0845
  731MOL0     C98612   1.761   0.335   5.647 -0.1964 -0.4783 -0.5222
  731MOL0     C98613   1.890   0.275   5.587  0.1864 -0.6309  0.0194
  731MOL0     C98614   2.007   0.368   5.560 -0.4452  0.3668 -0.2104
  731MOL0     C98615   2.103   0.441   5.539  0.2877  0.4483  0.6765
  731MOL0     C98616   1.632   0.641   6.149 -0.3744  0.7692 -0.0670
  731MOL0     C98617   1.540   0.726   6.212  0.4526  0.1895 -0.3907
  731MOL0     H98618   1.260   1.114   6.331 -0.4510  1.7143 -0.0027
  731MOL0     H98619   1.084   1.276   6.383  0.3989 -0.2643 -0.2141
  731MOL0     H98620   0.764   1.338   6.139 -0.0397 -3.6780  0.2058
  731MOL0     H98621   0.670   1.215   6.220 -1.6515  0.6843 -1.4068
  731MOL0     H98622   0.711   1.497   6.338  0.1641 -0.7011  3.6452
  731MOL0     H98623   0.595   1.476   6.207  0.5415 -1.1249 -1.2852
  731MOL0     H98624   0.477   1.292   6.360 -1.1097 -1.2553  3.2260
  731MOL0     H98625   0.613   1.329   6.472  0.7264  0.5243 -1.2174
  731MOL0     H98626   0.418   1.453   6.556  0.1431  1.2973  0.1229
  731MOL0     H98627   0.536   1.567   6.477  1.6311 -1.5948 -1.6724
  731MOL0     H98628   0.398   1.600   6.287  0.2658 -0.9772 -2.1025
  731MOL0     H98629   0.317   1.453   6.302  2.7237 -1.3972  0.0810
  731MOL0     H98630   0.296   1.690   6.496  0.0536 -0.9890  1.4336
  731MOL0     H98631   0.173   1.676   6.376  1.5694  1.0984 -0.4806
  731MOL0     H98632   0.086   1.471   6.439 -1.8290 -1.2952  2.1494
  731MOL0     H98633   0.199   1.451   6.574  0.0572  1.5029  0.9277
  731MOL0     H98634  -0.024   1.537   6.654  0.1600 -2.2730 -1.1521
  731MOL0     H98635   0.006   1.677   6.546  0.1183  1.3071  0.6792
  731MOL0     H98636   0.076   1.885   6.709 -0.5321 -0.0895  0.2094
  731MOL0     H98637   0.212   2.009   6.920 -0.8370 -1.0400 -1.3277
  731MOL0     H98638   0.361   1.938   6.962 -0.7708  3.1434  1.3602
  731MOL0     H98639   0.465   1.969   6.761 -0.1186 -0.1135  0.7825
  731MOL0     H98640   0.424   2.122   6.825  2.3806 -2.6030  3.6086
  731MOL0     H98641   0.208   2.026   6.633  0.9455 -0.1156  1.5859
  731MOL0     H98642   0.369   2.028   6.567 -0.8730 -1.7133 -0.6448
  731MOL0     H98643   0.387   2.275   6.635 -0.1931  0.4523  0.4814
  731MOL0     H98644   0.238   2.255   6.728 -2.4130 -2.4432 -1.1033
  731MOL0     H98645   0.053   2.300   6.324 -0.2805 -0.5716  0.3452
  731MOL0     H98646   0.052   2.275   6.028 -1.8381  0.2710  1.5711
  731MOL0     H98647  -0.001   2.415   6.116  0.5185 -0.8470  1.2015
  731MOL0     H98648   0.142   2.432   6.007  1.9337 -0.1983  0.8232
  731MOL0     H98649   0.628   2.162   5.907 -2.1149 -0.1102  0.1154
  731MOL0     H98650   0.782   2.158   5.709  1.9800  1.6911  0.7023
  731MOL0     H98651   0.952   2.194   5.559  0.0617 -3.0668 -2.6182
  731MOL0     H98652   0.804   2.201   5.471 -1.0953  1.6735  3.3468
  731MOL0     H98653   0.931   2.358   5.307 -0.7150  2.3927  2.8851
  731MOL0     H98654   1.063   2.367   5.416 -2.0423  0.3777  3.1700
  731MOL0     H98655   0.980   2.097   5.274  1.0381 -1.8507 -0.1133
  731MOL0     H98656   1.091   2.120   5.418  1.8105  1.9143 -0.2441
  731MOL0     H98657   1.128   2.241   5.150 -0.3043  0.0088 -0.1899
  731MOL0     H98658   1.238   2.264   5.289  0.9201  0.9667 -1.5498
  731MOL0     H98659   1.338   2.052   5.268 -0.0888  3.0685  0.6989
  731MOL0     H98660   1.308   2.102   5.098 -1.2220 -1.3661 -0.4407
  731MOL0     H98661   1.105   1.932   5.256  0.6229  1.4444  1.2777
  731MOL0     H98662   1.107   1.964   5.087  0.8796  2.4748 -0.0969
  731MOL0     H98663   1.308   1.797   5.249  2.5064  0.4923  0.3666
  731MOL0     H98664   1.331   1.817   5.074 -0.5618  1.3562  0.2444
  731MOL0     H98665   1.078   1.684   5.185 -1.3512 -2.1056 -1.5280
  731MOL0     H98666   1.227   1.613   5.098  0.4639  0.2446 -3.3341
  731MOL0     H98667   0.684   2.563   5.625  2.1219 -0.7259 -0.4351
  731MOL0     H98668   0.551   2.578   5.826  3.1781  2.1528 -0.1076
  731MOL0     H98669   0.532   2.255   6.207 -0.4043  0.3491  0.0486
  731MOL0     H98670   0.460   2.213   6.451 -0.9385 -0.8433  1.5250
  731MOL0     H98671   0.786   1.054   6.207  0.1849 -0.5169 -0.7022
  731MOL0     H98672   0.959   0.875   6.136  1.4877 -1.2658  0.1021
  731MOL0     H98673   1.289   0.729   5.986 -1.3091  1.4483  0.4496
  731MOL0     H98674   1.422   0.588   5.874 -2.7398  1.0710 -0.1218
  731MOL0     H98675   1.584   0.404   5.830 -0.3445 -0.0505  2.8001
  731MOL0     H98676   1.650   0.544   5.763 -0.9518  0.2211  0.4682
  731MOL0     H98677   1.817   0.297   5.856  0.8016  0.2110  0.1932
  731MOL0     H98678   1.889   0.446   5.790  1.4455 -2.8620  0.9218
  731MOL0     H98679   1.732   0.428   5.595  0.5132  0.6913  1.1089
  731MOL0     H98680   1.677   0.265   5.649 -0.4143 -0.2179 -0.4552
  731MOL0     H98681   1.857   0.223   5.496 -3.2284  1.7002 -0.2578
  731MOL0     H98682   1.936   0.213   5.664  1.6390  2.4247  1.7971
  731MOL0     H98683   2.174   0.515   5.510 -1.1931  2.2424  1.4033
  731MOL0     H98684   1.735   0.635   6.181  0.6223 -1.9330 -3.2253
  731MOL0     H98685   1.562   0.775   6.306 -3.4683  0.5054  0.5312
  732MOL0     O98686   9.707   0.964   8.424  0.6474 -0.1242  0.3062
  732MOL0     C98687   9.728   1.068   8.365 -0.7910  0.5308  1.3806
  732MOL0     O98688   9.691   1.095   8.234 -0.5644 -0.1015 -1.3239
  732MOL0     C98689   9.622   1.010   8.150 -0.7150  0.4448  0.0922
  732MOL0     C98690   9.498   1.049   8.108 -0.0102 -0.8345 -0.0244
  732MOL0     C98691   9.418   0.970   8.022 -0.0083  0.7298 -0.3511
  732MOL0     C98692   9.465   0.846   7.984 -0.0737  0.3741 -0.2133
  732MOL0     O98693   9.373   0.764   7.916  0.2640 -0.1714 -0.6440
  732MOL0     C98694   9.404   0.626   7.905  0.3776 -0.8489 -0.2879
  732MOL0     C98695   9.274   0.548   7.885  0.8362 -0.0146  0.2927
  732MOL0     C98696   9.164   0.589   7.982  0.1044  0.6232  0.0223
  732MOL0     C98697   9.059   0.482   7.990  0.5925  0.4434  1.1105
  732MOL0     C98698   8.944   0.522   8.081  0.5521 -1.0347 -0.8250
  732MOL0     C98699   8.835   0.601   7.998  0.0132 -0.0368  0.5905
  732MOL0     C98700   8.705   0.620   8.075  0.0010 -0.8727  1.0120
  732MOL0     C98701   8.597   0.705   8.015 -0.6928 -0.7936  0.4059
  732MOL0     N98702   8.557   0.657   7.884 -0.3995 -0.4851 -0.2804
  732MOL0     C98703   8.437   0.627   7.840  0.8106 -0.3086 -0.1116
  732MOL0     C98704   8.445   0.609   7.709 -0.7767 -0.9911  0.3458
  732MOL0     C98705   8.347   0.589   7.609 -0.1496 -0.4280 -0.8173
  732MOL0     C98706   8.219   0.681   7.627 -0.5042 -0.5171 -0.5136
  732MOL0     C98707   8.253   0.832   7.601 -0.1723 -0.1029 -0.0673
  732MOL0     C98708   8.132   0.908   7.640 -0.0613  0.1207 -0.3236
  732MOL0     O98709   8.110   0.921   7.777 -0.4910  0.0793  0.0740
  732MOL0     C98710   7.980   0.905   7.807  0.1028  0.9557  0.3464
  732MOL0     C98711   7.903   1.017   7.824  0.6127 -0.1579  0.1850
  732MOL0     C98712   7.763   1.005   7.854  0.5262 -0.1907 -0.4932
  732MOL0     C98713   7.691   1.141   7.883 -0.5011 -0.0072 -0.2813
  732MOL0     C98714   7.705   0.876   7.862  0.9279  0.1573  0.2876
  732MOL0     C98715   7.558   0.851   7.873 -0.0764 -0.0787 -0.3024
  732MOL0     O98716   7.513   0.722   7.884  0.3375  1.1033 -0.0296
  732MOL0     C98717   7.376   0.703   7.878  0.2069 -0.8178 -0.1933
  732MOL0     C98718   7.304   0.664   7.995 -0.2730  1.1350 -0.0033
  732MOL0     C98719   7.170   0.622   7.985 -0.5323  0.7502 -0.1340
  732MOL0     C98720   7.095   0.645   7.862 -0.7420 -0.3178  0.8726
  732MOL0     O98721   6.968   0.612   7.839 -0.4521  0.0559 -0.4454
  732MOL0     C98722   6.912   0.502   7.928 -0.3830 -0.5919 -0.1054
  732MOL0     C98723   6.760   0.493   7.885 -1.8607 -0.1763  1.0778
  732MOL0     C98724   6.683   0.385   7.957 -0.1663 -0.9817 -0.6409
  732MOL0     C98725   6.758   0.252   7.984  0.5932  0.1210 -0.2580
  732MOL0     C98726   6.663   0.132   8.026  0.1746  0.2006  1.1726
  732MOL0     C98727   6.605   0.132   8.163  0.0684 -0.2821 -0.5369
  732MOL0     C98728   6.718   0.096   8.267  0.3038  0.0100  0.2581
  732MOL0     C98729   6.658   0.130   8.403 -0.7942  0.4009  0.4259
  732MOL0    Cl98730   6.787   0.142   8.520  0.5201 -0.2510 -0.1313
  732MOL0     C98731   7.164   0.702   7.750  1.0805  0.0785 -0.3414
  732MOL0     C98732   7.300   0.724   7.760 -0.4741  0.0240 -0.2156
  732MOL0     O98733   7.491   0.951   7.863 -0.2602  1.2276  0.1781
  732MOL0     C98734   7.784   0.765   7.835  0.0376 -0.0921  0.6664
  732MOL0     C98735   7.921   0.777   7.815 -0.6900 -0.9001 -0.2415
  732MOL0     N98736   8.579   0.657   7.681 -0.3372 -0.5633 -0.1657
  732MOL0     N98737   8.644   0.687   7.788  0.4761  0.2633  0.2170
  732MOL0     C98738   9.598   0.802   8.024 -1.1114  0.2107  0.0666
  732MOL0     C98739   9.676   0.886   8.113  0.2630 -0.6131 -0.9750
  732MOL0     C98740   9.823   1.163   8.423  0.1535 -0.4586  0.1463
  732MOL0     C98741   9.817   1.305   8.393  0.6329 -0.2511  0.1810
  732MOL0     C98742   9.908   1.390   8.457 -0.1051  0.0123 -0.1757
  732MOL0     C98743  10.010   1.340   8.544  0.0053  0.6146 -0.5063
  732MOL0     O98744  10.101   1.411   8.607 -0.2901 -0.1017 -0.4889
  732MOL0     C98745  10.156   1.520   8.528 -1.4363 -0.5258 -0.1543
  732MOL0     C98746  10.308   1.535   8.556 -0.0670  0.4581 -0.1957
  732MOL0     C98747  10.409   1.421   8.509  0.0992 -0.2280 -0.0008
  732MOL0     C98748  10.390   1.378   8.364  0.0240  0.5761  0.7118
  732MOL0     C98749  10.428   1.481   8.273 -0.2926 -0.2148 -0.0433
  732MOL0     C98750  10.431   1.553   8.180  0.7243 -1.1542 -0.9679
  732MOL0     C98751  10.017   1.208   8.573 -0.0891 -1.0567 -0.0361
  732MOL0     C98752   9.931   1.117   8.516  0.4058 -0.5207  0.0337
  732MOL0     H98753   9.464   1.146   8.141  0.6532  0.0019 -1.7035
  732MOL0     H98754   9.316   1.003   8.001 -0.4673  1.1371  2.2238
  732MOL0     H98755   9.473   0.611   7.821  0.1245 -2.2641 -0.2642
  732MOL0     H98756   9.454   0.593   7.997 -0.0303  2.5239  1.2960
  732MOL0     H98757   9.236   0.569   7.784  3.1480  2.5275 -0.1806
  732MOL0     H98758   9.289   0.441   7.897  0.3684 -0.3411 -1.6815
  732MOL0     H98759   9.213   0.600   8.079 -1.2009 -1.4852  0.9970
  732MOL0     H98760   9.115   0.677   7.940 -0.6111 -1.0748 -3.0179
  732MOL0     H98761   9.019   0.440   7.898 -1.9756  1.3155  1.7659
  732MOL0     H98762   9.111   0.404   8.047 -0.0608  0.5016  1.8057
  732MOL0     H98763   8.895   0.438   8.132 -0.5715  0.4331  0.6115
  732MOL0     H98764   8.975   0.585   8.164 -4.6231  1.1375 -0.1691
  732MOL0     H98765   8.877   0.701   7.980  1.4261 -0.0610  3.3085
  732MOL0     H98766   8.821   0.547   7.904  0.9009 -2.4859  1.7892
  732MOL0     H98767   8.665   0.518   8.084  1.8265 -1.8596 -1.0650
  732MOL0     H98768   8.734   0.663   8.171  0.0568  1.1592  0.1385
  732MOL0     H98769   8.631   0.808   8.003 -1.0470 -0.8091 -0.9951
  732MOL0     H98770   8.512   0.708   8.084 -0.4820 -1.7714  0.7201
  732MOL0     H98771   8.352   0.620   7.907  0.8247  2.3361  0.2956
  732MOL0     H98772   8.389   0.614   7.511  3.6450  1.7493  1.1110
  732MOL0     H98773   8.303   0.490   7.625 -1.4408 -0.4865 -3.9709
  732MOL0     H98774   8.187   0.679   7.731  1.1692  0.8081  0.0717
  732MOL0     H98775   8.139   0.647   7.561  0.7865  0.3921 -2.6903
  732MOL0     H98776   8.269   0.848   7.494 -2.9452  1.5394 -0.3269
  732MOL0     H98777   8.335   0.869   7.663 -0.0125  0.1874 -0.4450
  732MOL0     H98778   8.058   0.875   7.567  2.1077 -0.0921 -2.5604
  732MOL0     H98779   8.150   1.011   7.606  1.4216 -0.2553 -0.7762
  732MOL0     H98780   7.936   1.120   7.815  2.0186 -0.3632  2.1913
  732MOL0     H98781   7.634   1.148   7.976 -0.3062 -1.1953 -0.0525
  732MOL0     H98782   7.772   1.214   7.882  0.5059 -1.0874 -1.4038
  732MOL0     H98783   7.620   1.165   7.804  0.9531  1.0608 -1.3140
  732MOL0     H98784   7.361   0.651   8.086 -0.4134  1.7496  0.1751
  732MOL0     H98785   7.116   0.576   8.067 -1.3710  1.8661 -0.0387
  732MOL0     H98786   6.971   0.411   7.916 -0.4249 -0.6895  0.4355
  732MOL0     H98787   6.916   0.535   8.032 -3.1389 -0.1683 -0.0493
  732MOL0     H98788   6.721   0.592   7.909  1.7233  1.0533  2.4522
  732MOL0     H98789   6.753   0.478   7.777  1.7358 -1.0521  0.8566
  732MOL0     H98790   6.587   0.366   7.908 -0.3495 -0.4772 -0.4889
  732MOL0     H98791   6.664   0.424   8.058  0.6135 -1.7774 -0.1625
  732MOL0     H98792   6.777   0.228   7.879 -0.9881  1.1445 -0.8191
  732MOL0     H98793   6.855   0.265   8.031  0.1950  1.8076  0.1501
  732MOL0     H98794   6.714   0.036   8.016 -2.0236 -0.9976  0.8229
  732MOL0     H98795   6.572   0.135   7.964 -2.0208 -2.4117  4.0033
  732MOL0     H98796   6.573   0.236   8.164  0.0267 -0.1811 -3.6588
  732MOL0     H98797   6.525   0.059   8.179  1.3746 -1.5366  0.5966
  732MOL0     H98798   6.814   0.143   8.247  1.2534 -1.9401  0.0233
  732MOL0     H98799   6.726  -0.012   8.251 -0.9317  0.3152 -3.2051
  732MOL0     H98800   6.573   0.068   8.435 -1.9701  0.8279 -1.6871
  732MOL0     H98801   6.605   0.226   8.401  0.2131  0.9751  0.6988
  732MOL0     H98802   7.109   0.732   7.661  0.5443  0.4105  0.0935
  732MOL0     H98803   7.349   0.768   7.674 -1.2241  1.0865 -0.1146
  732MOL0     H98804   7.750   0.663   7.836  1.6437 -0.7286 -1.6137
  732MOL0     H98805   7.981   0.689   7.794 -0.1799 -0.7733  0.6729
  732MOL0     H98806   9.630   0.700   8.006 -0.7841  0.4055 -0.4477
  732MOL0     H98807   9.771   0.856   8.157  0.4227  1.6554  0.4211
  732MOL0     H98808   9.739   1.335   8.323 -0.3749 -2.5838  0.2161
  732MOL0     H98809   9.880   1.495   8.461 -4.1088 -0.9057 -0.3938
  732MOL0     H98810  10.144   1.505   8.420  0.3971  1.8838 -0.8049
  732MOL0     H98811  10.108   1.617   8.547 -0.0504  0.7773 -2.7346
  732MOL0     H98812  10.317   1.561   8.662  1.2222 -0.4522 -0.0654
  732MOL0     H98813  10.344   1.622   8.500  0.3941  1.3927  1.4785
  732MOL0     H98814  10.388   1.327   8.562  2.8059 -1.3147 -0.6388
  732MOL0     H98815  10.509   1.463   8.525  0.2902  0.7482 -3.1702
  732MOL0     H98816  10.285   1.359   8.341  0.8328 -0.3458 -2.9273
  732MOL0     H98817  10.442   1.283   8.344 -2.8021 -0.7443 -0.9164
  732MOL0     H98818  10.437   1.619   8.096  0.2436  3.7383  2.4738
  732MOL0     H98819  10.090   1.174   8.645 -2.4457 -2.8991  1.6192
  732MOL0     H98820   9.948   1.010   8.528  2.0743 -0.3741 -0.7218
  733MOL0     O98821   0.942   6.118   6.249  0.1625  0.7389 -0.5764
  733MOL0     C98822   0.871   6.047   6.318 -0.4342  0.4673  0.1518
  733MOL0     O98823   0.743   6.074   6.367 -0.0400 -0.3224 -0.5529
  733MOL0     C98824   0.685   6.197   6.345  0.4428 -1.0684  0.3144
  733MOL0     C98825   0.652   6.283   6.451  0.3578  0.0456  0.3688
  733MOL0     C98826   0.600   6.412   6.422 -0.3912  0.0537 -0.1952
  733MOL0     C98827   0.570   6.451   6.294 -0.0573  0.6250 -0.2769
  733MOL0     O98828   0.535   6.584   6.278 -1.0599 -0.2809  0.6854
  733MOL0     C98829   0.411   6.606   6.215  0.0457  0.1677 -0.5845
  733MOL0     C98830   0.384   6.756   6.223  0.8088 -0.6902 -0.9519
  733MOL0     C98831   0.426   6.824   6.354  0.5600  0.5104 -0.0046
  733MOL0     C98832   0.335   6.786   6.467 -0.4495 -0.7034 -0.1917
  733MOL0     C98833   0.195   6.848   6.464 -0.0312  0.5935  0.3410
  733MOL0     C98834   0.124   6.805   6.591 -0.2172 -0.0800  0.0259
  733MOL0     C98835  -0.027   6.867   6.598  0.3951 -0.1387  1.1098
  733MOL0     C98836  -0.098   6.846   6.736  0.2417  1.1683  0.5282
  733MOL0     N98837  -0.237   6.893   6.721  0.7359  0.2175 -0.1492
  733MOL0     C98838  -0.286   7.001   6.782 -0.0548  0.0117 -1.2895
  733MOL0     C98839  -0.413   6.986   6.796  0.2569  0.5246  0.1689
  733MOL0     C98840  -0.503   7.093   6.848 -0.5037 -0.2062 -0.2384
  733MOL0     C98841  -0.609   7.125   6.743 -0.7819  0.2085 -0.0547
  733MOL0     C98842  -0.698   7.241   6.789  0.3806 -0.2056 -0.0375
  733MOL0     C98843  -0.768   7.213   6.923  0.9292 -0.1678  0.5367
  733MOL0     O98844  -0.899   7.279   6.931 -0.3898 -0.6221 -0.5305
  733MOL0     C98845  -0.891   7.419   6.932 -0.7719  0.4752 -0.5124
  733MOL0     C98846  -0.782   7.484   6.994  0.5010  0.4904  0.0994
  733MOL0     C98847  -0.776   7.622   6.995  0.0111  0.0965 -0.3512
  733MOL0     C98848  -0.643   7.675   7.041 -0.3865 -0.1719 -0.3459
  733MOL0     C98849  -0.875   7.702   6.912 -0.5306 -0.2203 -0.1323
  733MOL0     C98850  -0.861   7.856   6.888  0.5712 -0.1916  0.4829
  733MOL0     O98851  -0.741   7.925   6.901  0.5344  0.9426  0.0118
  733MOL0     C98852  -0.751   8.061   6.909 -0.3057  0.8968  0.1287
  733MOL0     C98853  -0.702   8.145   6.809  0.3687  1.0655  0.3725
  733MOL0     C98854  -0.708   8.279   6.815  0.1638 -0.4917  0.2490
  733MOL0     C98855  -0.760   8.347   6.927 -0.0459  0.1351 -0.4736
  733MOL0     O98856  -0.766   8.488   6.942 -0.4531 -0.1365 -0.5228
  733MOL0     C98857  -0.660   8.571   6.890  0.0856  0.0732  0.1831
  733MOL0     C98858  -0.684   8.712   6.943 -0.8687 -0.1484  0.6096
  733MOL0     C98859  -0.577   8.810   6.906  0.2350  0.1402 -0.2289
  733MOL0     C98860  -0.612   8.934   6.991 -0.3794  0.0317  0.5547
  733MOL0     C98861  -0.503   9.051   6.993 -1.5136 -0.3195  0.6819
  733MOL0     C98862  -0.417   9.057   7.119 -0.0965 -0.4840  0.4522
  733MOL0     C98863  -0.491   9.108   7.239  0.4315  0.0550 -1.2074
  733MOL0     C98864  -0.497   9.004   7.359  0.5872 -0.8598 -0.8934
  733MOL0    Cl98865  -0.610   9.053   7.486  0.3108 -0.5644 -0.4019
  733MOL0     C98866  -0.818   8.267   7.023 -0.6321 -0.1496  0.0944
  733MOL0     C98867  -0.800   8.129   7.027  0.0805 -0.8268  0.9873
  733MOL0     O98868  -0.972   7.905   6.863 -0.2058 -0.0820  0.2617
  733MOL0     C98869  -0.987   7.630   6.868  0.0756 -0.3773  0.3867
  733MOL0     C98870  -0.995   7.490   6.875 -0.8601  0.2572 -0.0250
  733MOL0     N98871  -0.448   6.861   6.750  0.4367 -0.1683 -0.3335
  733MOL0     N98872  -0.341   6.804   6.705 -0.4748  0.3537 -0.0767
  733MOL0     C98873   0.592   6.363   6.187 -0.0667 -0.0638  0.6772
  733MOL0     C98874   0.649   6.238   6.214  0.0517  0.1009  0.3819
  733MOL0     C98875   0.939   5.929   6.367  0.4433  0.8797 -0.4058
  733MOL0     C98876   0.876   5.825   6.443 -0.8807  0.3802 -0.4762
  733MOL0     C98877   0.954   5.723   6.501  0.5943 -0.3724  0.1479
  733MOL0     C98878   1.092   5.714   6.494 -0.5826  0.1130 -0.5978
  733MOL0     O98879   1.169   5.612   6.547 -0.1384  0.0967  0.4351
  733MOL0     C98880   1.155   5.615   6.688  0.1170  0.6576 -0.7058
  733MOL0     C98881   1.279   5.553   6.751 -0.9403  0.0260  0.0650
  733MOL0     C98882   1.319   5.419   6.692  0.3152 -0.5357 -0.5557
  733MOL0     C98883   1.435   5.350   6.764  0.2048  0.0794 -0.6909
  733MOL0     C98884   1.556   5.415   6.743 -0.0863 -0.1913 -0.2938
  733MOL0     C98885   1.661   5.468   6.722 -0.1191  0.7556 -0.3182
  733MOL0     C98886   1.157   5.817   6.425 -1.1858  0.6596 -0.7415
  733MOL0     C98887   1.081   5.920   6.365  0.3276 -0.5847 -0.6532
  733MOL0     H98888   0.659   6.258   6.557  1.9066  0.8238  0.4823
  733MOL0     H98889   0.588   6.483   6.503 -0.9376  2.1266 -2.0014
  733MOL0     H98890   0.400   6.554   6.119 -2.1305 -2.0234  0.7601
  733MOL0     H98891   0.339   6.560   6.283  2.0390  0.4235  1.8669
  733MOL0     H98892   0.455   6.798   6.151 -1.1396  1.0072 -1.9899
  733MOL0     H98893   0.282   6.782   6.194  0.6317  0.6274  0.7230
  733MOL0     H98894   0.529   6.795   6.380  0.8547  1.0520 -0.5472
  733MOL0     H98895   0.432   6.932   6.339  0.1371  0.4337 -0.7589
  733MOL0     H98896   0.327   6.677   6.469 -1.6821 -0.7317  4.2163
  733MOL0     H98897   0.380   6.812   6.564 -0.5498 -0.0171 -0.3197
  733MOL0     H98898   0.203   6.957   6.461  1.1050  0.5299  0.6309
  733MOL0     H98899   0.138   6.807   6.380  1.5372 -1.6590  0.2939
  733MOL0     H98900   0.126   6.696   6.599 -1.8064 -0.1130  0.4015
  733MOL0     H98901   0.176   6.837   6.682  1.6019 -1.8981 -0.3072
  733MOL0     H98902  -0.034   6.975   6.584 -0.5299 -0.0513  2.1703
  733MOL0     H98903  -0.078   6.828   6.509 -0.4333  3.0881  0.0310
  733MOL0     H98904  -0.046   6.902   6.815 -0.1448 -0.0129  1.6551
  733MOL0     H98905  -0.098   6.741   6.766  1.8786  1.3363  1.2009
  733MOL0     H98906  -0.230   7.089   6.811  1.5762 -1.2362 -0.4720
  733MOL0     H98907  -0.563   7.047   6.927  0.3887 -1.4211 -0.2390
  733MOL0     H98908  -0.450   7.182   6.883 -2.1492  0.5536  0.4160
  733MOL0     H98909  -0.670   7.035   6.734 -3.1814  1.5728  1.4554
  733MOL0     H98910  -0.567   7.149   6.645  1.1356  1.1104  0.9204
  733MOL0     H98911  -0.784   7.248   6.723 -2.8833  1.4583  3.9736
  733MOL0     H98912  -0.632   7.328   6.784  2.3503 -1.6286 -0.2410
  733MOL0     H98913  -0.704   7.233   7.010 -0.0259  1.1439  0.9621
  733MOL0     H98914  -0.784   7.105   6.919 -0.1499  0.0134 -1.6288
  733MOL0     H98915  -0.701   7.431   7.043  1.0066 -0.7257 -1.9588
  733MOL0     H98916  -0.642   7.784   7.051 -0.6754 -0.2291  0.4250
  733MOL0     H98917  -0.596   7.639   7.133  0.1469  3.6635  1.0683
  733MOL0     H98918  -0.566   7.664   6.964  2.5900  1.4594  2.1797
  733MOL0     H98919  -0.660   8.093   6.723  0.6501 -1.8735  2.1564
  733MOL0     H98920  -0.675   8.343   6.734 -3.7553  0.3313 -0.8993
  733MOL0     H98921  -0.561   8.527   6.902 -0.0080 -0.3725 -0.5919
  733MOL0     H98922  -0.685   8.576   6.784 -2.3436  0.4462  0.7068
  733MOL0     H98923  -0.777   8.753   6.903 -1.0669 -0.4397  0.7641
  733MOL0     H98924  -0.693   8.697   7.051  0.8103  3.1275  1.3126
  733MOL0     H98925  -0.595   8.824   6.799 -3.0351 -0.4193  0.1504
  733MOL0     H98926  -0.476   8.770   6.919 -0.3061 -0.8418  1.1228
  733MOL0     H98927  -0.705   8.972   6.948  0.2770 -0.3351 -1.3211
  733MOL0     H98928  -0.631   8.902   7.093 -2.0427 -1.6294 -0.2014
  733MOL0     H98929  -0.546   9.148   6.965  4.6885  2.2774 -1.6195
  733MOL0     H98930  -0.437   9.033   6.907 -1.1867 -1.1327  1.0907
  733MOL0     H98931  -0.361   8.964   7.134 -3.5169 -3.0674 -1.5941
  733MOL0     H98932  -0.340   9.134   7.109 -1.3332  1.3956  3.6411
  733MOL0     H98933  -0.591   9.130   7.199 -0.0168  2.3995  0.8896
  733MOL0     H98934  -0.439   9.200   7.266  0.0951 -0.1611  0.2474
  733MOL0     H98935  -0.397   8.984   7.398  1.2420  0.1254 -2.0142
  733MOL0     H98936  -0.542   8.911   7.322 -1.8142  0.9392 -2.9300
  733MOL0     H98937  -0.869   8.315   7.106 -0.7431  1.9675 -1.1472
  733MOL0     H98938  -0.847   8.072   7.106 -0.9514 -0.2031  0.8354
  733MOL0     H98939  -1.073   7.691   6.840 -0.9706 -0.7929  2.4725
  733MOL0     H98940  -1.085   7.438   6.842  1.1529 -2.2993 -1.8799
  733MOL0     H98941   0.559   6.377   6.085  0.5602 -0.7356  0.3720
  733MOL0     H98942   0.681   6.167   6.138  0.9024  0.4670  0.3885
  733MOL0     H98943   0.768   5.826   6.442 -0.9232  1.7212  1.5723
  733MOL0     H98944   0.899   5.647   6.556 -0.7541  1.6042  1.6990
  733MOL0     H98945   1.143   5.717   6.726 -2.1902 -0.3910  1.7123
  733MOL0     H98946   1.065   5.559   6.715  1.4627 -1.4528 -0.2903
  733MOL0     H98947   1.283   5.547   6.860 -0.1202 -1.2514 -0.0081
  733MOL0     H98948   1.356   5.625   6.725 -1.6700  0.0847 -2.1428
  733MOL0     H98949   1.356   5.441   6.592  0.6816 -0.9560 -0.5170
  733MOL0     H98950   1.224   5.368   6.677 -0.9127  2.1695 -2.7327
  733MOL0     H98951   1.454   5.248   6.729 -1.5626 -1.3546  2.1291
  733MOL0     H98952   1.418   5.324   6.869 -0.7167  0.1502 -0.8119
  733MOL0     H98953   1.759   5.511   6.714  0.1708 -0.0793 -1.6484
  733MOL0     H98954   1.265   5.811   6.417 -0.7392  1.3073  2.8698
  733MOL0     H98955   1.138   5.989   6.304 -0.6085 -0.0835 -0.9850
  734MOL0     O98956  11.032   4.266   5.480  0.0200  0.2983  0.5065
  734MOL0     C98957  11.088   4.233   5.586 -0.7406  0.0150  0.7089
  734MOL0     O98958  11.030   4.205   5.703  0.6629 -0.3415 -0.0065
  734MOL0     C98959  10.892   4.203   5.697 -0.0370  0.2842 -1.1350
  734MOL0     C98960  10.828   4.327   5.731  0.3970  0.0195 -0.5536
  734MOL0     C98961  10.690   4.339   5.730 -0.1389  0.6193 -0.4546
  734MOL0     C98962  10.604   4.231   5.694 -0.3585  0.0684  0.0932
  734MOL0     O98963  10.469   4.229   5.670 -0.1704  0.4026 -0.4724
  734MOL0     C98964  10.403   4.353   5.635  0.3138 -0.2403  0.9189
  734MOL0     C98965  10.365   4.438   5.761 -0.2694  0.3105  0.4753
  734MOL0     C98966  10.242   4.378   5.830  1.0428 -0.7601  1.0207
  734MOL0     C98967  10.208   4.429   5.979 -0.1283  0.1247 -0.6781
  734MOL0     C98968  10.068   4.390   6.028  0.1538  0.1047 -0.3668
  734MOL0     C98969  10.047   4.406   6.177 -0.5808 -0.1951 -0.1131
  734MOL0     C98970   9.918   4.337   6.232 -0.3674 -0.4039 -0.0824
  734MOL0     C98971   9.903   4.376   6.381  0.7745  0.1437 -0.8715
  734MOL0     N98972   9.775   4.332   6.433 -0.5160 -0.8079 -0.2937
  734MOL0     C98973   9.679   4.433   6.443 -0.8916  0.3785 -0.5287
  734MOL0     C98974   9.586   4.372   6.517 -0.9475 -0.3533 -0.6649
  734MOL0     C98975   9.470   4.435   6.584 -1.2995 -0.3970 -0.3758
  734MOL0     C98976   9.514   4.506   6.713 -0.5381  0.4636 -0.8305
  734MOL0     C98977   9.593   4.638   6.694 -1.7499  0.8428  0.0488
  734MOL0     C98978   9.513   4.751   6.633 -0.4881  0.8155  0.8704
  734MOL0     O98979   9.387   4.769   6.698 -0.2621  0.7852 -0.1962
  734MOL0     C98980   9.280   4.801   6.621  0.4530 -0.3159 -0.4641
  734MOL0     C98981   9.162   4.731   6.639  0.7883  0.1711  0.5548
  734MOL0     C98982   9.047   4.748   6.558  0.4656  0.2343 -1.0384
  734MOL0     C98983   8.929   4.646   6.585  0.3410 -0.4166  0.1657
  734MOL0     C98984   9.036   4.858   6.465 -0.8120  0.2046  0.6704
  734MOL0     C98985   8.920   4.897   6.376 -0.3283  0.7392 -0.7154
  734MOL0     O98986   8.797   4.854   6.415  0.6392  0.2671  0.3877
  734MOL0     C98987   8.673   4.898   6.369 -0.0196 -0.4473  1.2685
  734MOL0     C98988   8.629   4.994   6.270 -0.3147  0.1722 -0.3981
  734MOL0     C98989   8.491   5.017   6.245 -0.8729 -0.9021 -0.0017
  734MOL0     C98990   8.399   4.950   6.323 -0.2978 -0.1272 -0.1489
  734MOL0     O98991   8.274   4.976   6.287  0.8635 -0.1729 -0.2463
  734MOL0     C98992   8.217   5.084   6.370 -0.3789  0.4898 -0.5485
  734MOL0     C98993   8.062   5.076   6.328  0.2852  0.3746  0.2819
  734MOL0     C98994   7.972   5.144   6.433 -0.7872  0.2247  1.2040
  734MOL0     C98995   8.007   5.287   6.461 -0.9879  1.0056  0.5165
  734MOL0     C98996   7.896   5.362   6.529 -0.5956 -1.1727 -0.1764
  734MOL0     C98997   7.844   5.304   6.665 -0.2343 -0.0141 -0.6207
  734MOL0     C98998   7.730   5.389   6.732 -0.5360  0.0465 -0.3932
  734MOL0     C98999   7.714   5.346   6.878 -0.9489 -0.7185  0.0213
  734MOL0    Cl99000   7.568   5.422   6.936  0.0337  0.1481  0.1677
  734MOL0     C99001   8.442   4.849   6.412 -0.3776  0.3633 -0.7586
  734MOL0     C99002   8.573   4.828   6.433  0.1460 -0.0900 -0.0923
  734MOL0     O99003   8.945   4.973   6.278 -0.0578  0.5822  0.3518
  734MOL0     C99004   9.160   4.936   6.448 -0.7623 -0.4084 -0.5433
  734MOL0     C99005   9.276   4.905   6.520 -0.0947  0.0505 -0.3375
  734MOL0     N99006   9.622   4.240   6.536 -1.2051  0.8724 -0.2583
  734MOL0     N99007   9.736   4.214   6.488 -0.4475 -0.8228  0.0739
  734MOL0     C99008  10.667   4.106   5.672  0.3550 -0.5468 -0.4771
  734MOL0     C99009  10.813   4.091   5.672 -0.1658  0.8715 -0.5813
  734MOL0     C99010  11.235   4.218   5.580 -0.1639 -0.7017  0.3703
  734MOL0     C99011  11.309   4.263   5.464  0.5333  0.7532  0.3308
  734MOL0     C99012  11.439   4.226   5.458 -0.5851  0.8335 -0.7147
  734MOL0     C99013  11.510   4.148   5.552 -0.5240 -0.9920 -0.4447
  734MOL0     O99014  11.636   4.103   5.545 -0.3488 -0.7398  0.1504
  734MOL0     C99015  11.714   4.127   5.427  0.3291 -0.3207  0.2143
  734MOL0     C99016  11.846   4.054   5.447 -0.0859 -0.1304 -0.4345
  734MOL0     C99017  11.961   4.116   5.355 -0.4622 -0.6062 -0.5324
  734MOL0     C99018  11.920   4.117   5.208  0.9297  0.6592 -0.2760
  734MOL0     C99019  11.883   3.980   5.164  0.3127  0.3542  0.3869
  734MOL0     C99020  11.842   3.871   5.130  0.2098 -0.4172 -0.3924
  734MOL0     C99021  11.428   4.106   5.662 -0.6054  0.2353  0.0496
  734MOL0     C99022  11.301   4.149   5.677  0.5641 -1.0531  0.7920
  734MOL0     H99023  10.905   4.399   5.755 -0.2011  0.8448 -1.0517
  734MOL0     H99024  10.655   4.434   5.768 -1.3642  1.0427 -2.5300
  734MOL0     H99025  10.477   4.407   5.575 -1.5717  1.1924 -0.2313
  734MOL0     H99026  10.311   4.337   5.578 -2.1074  1.9430  3.8198
  734MOL0     H99027  10.445   4.448   5.835 -0.3038  1.4338  0.3764
  734MOL0     H99028  10.353   4.544   5.737  2.2741  1.2981  3.0141
  734MOL0     H99029  10.159   4.395   5.761  0.5410  0.0174  1.7909
  734MOL0     H99030  10.256   4.270   5.824 -1.3911 -1.0564 -0.4124
  734MOL0     H99031  10.277   4.380   6.048 -2.2320 -0.3610  1.2251
  734MOL0     H99032  10.213   4.538   5.988 -0.6202  0.2945 -2.1682
  734MOL0     H99033   9.990   4.442   5.971 -0.3996  0.1341  0.4059
  734MOL0     H99034  10.047   4.284   6.008 -0.8493  0.2624 -0.2292
  734MOL0     H99035  10.130   4.369   6.238 -3.0808 -2.9505  1.8935
  734MOL0     H99036  10.029   4.509   6.208 -1.7367 -1.2975  3.3324
  734MOL0     H99037   9.833   4.375   6.176 -0.2815 -0.7854 -0.4712
  734MOL0     H99038   9.915   4.229   6.216  3.6421 -0.9229  1.3661
  734MOL0     H99039   9.908   4.485   6.396  0.8199 -0.1883  2.1662
  734MOL0     H99040   9.992   4.339   6.433  0.8926  1.3401 -0.1735
  734MOL0     H99041   9.677   4.532   6.398  0.3166  0.0732 -1.2797
  734MOL0     H99042   9.435   4.499   6.502  1.6375 -1.5675 -2.7552
  734MOL0     H99043   9.398   4.360   6.617 -0.5095 -0.2845  1.7026
  734MOL0     H99044   9.577   4.431   6.761  0.8885  2.0443 -0.1417
  734MOL0     H99045   9.431   4.520   6.782  0.5792 -0.7312  0.8318
  734MOL0     H99046   9.681   4.623   6.631 -0.5058  0.2905  1.8459
  734MOL0     H99047   9.629   4.667   6.793  0.5478 -0.9286 -0.1993
  734MOL0     H99048   9.496   4.716   6.531  1.1900 -2.1252  1.4921
  734MOL0     H99049   9.571   4.844   6.631 -0.3750  0.7518  1.1743
  734MOL0     H99050   9.168   4.656   6.717  0.3257 -1.2299 -0.7152
  734MOL0     H99051   8.853   4.693   6.649  1.0897  2.4778 -0.9153
  734MOL0     H99052   8.883   4.619   6.489 -1.1054 -2.5776  1.3779
  734MOL0     H99053   8.968   4.552   6.626  0.9721 -1.5410 -2.7702
  734MOL0     H99054   8.704   5.049   6.215 -0.0163  0.0069 -0.1547
  734MOL0     H99055   8.462   5.087   6.167 -0.7909 -1.2844 -0.3808
  734MOL0     H99056   8.223   5.066   6.478 -3.4763  0.8978 -0.2065
  734MOL0     H99057   8.269   5.177   6.347 -2.7117  2.5930  1.9961
  734MOL0     H99058   8.051   5.121   6.229 -1.2559  1.6018  0.9619
  734MOL0     H99059   8.035   4.970   6.323  0.9079  0.1971  0.6173
  734MOL0     H99060   7.990   5.083   6.522  1.6689 -2.1222 -0.7027
  734MOL0     H99061   7.869   5.143   6.395 -1.0927  1.6475  1.9381
  734MOL0     H99062   8.091   5.283   6.530  1.9373 -0.0930 -2.7623
  734MOL0     H99063   8.059   5.341   6.381 -0.4149 -0.6795 -0.2996
  734MOL0     H99064   7.812   5.376   6.460  0.4307  2.1771 -0.9414
  734MOL0     H99065   7.934   5.459   6.561 -1.6779 -0.8539  0.1813
  734MOL0     H99066   7.805   5.203   6.655 -1.5886  0.3529  0.5974
  734MOL0     H99067   7.926   5.294   6.736 -1.2460 -1.9687  0.3349
  734MOL0     H99068   7.638   5.374   6.676 -0.6657  0.7716 -0.3877
  734MOL0     H99069   7.771   5.490   6.719  3.1882 -1.4163 -1.4754
  734MOL0     H99070   7.804   5.390   6.922  2.3614 -4.5677 -2.2503
  734MOL0     H99071   7.730   5.238   6.891 -1.5421 -0.5834  2.3122
  734MOL0     H99072   8.363   4.800   6.469 -0.6392  2.6402  1.0181
  734MOL0     H99073   8.586   4.747   6.503  0.1456  1.2228  1.4791
  734MOL0     H99074   9.156   5.024   6.385 -0.5935  1.5996  2.0943
  734MOL0     H99075   9.363   4.966   6.499  0.1019 -0.4678 -1.0804
  734MOL0     H99076  10.609   4.033   5.617  0.8950 -1.2839 -0.0967
  734MOL0     H99077  10.843   3.997   5.625 -1.2936  0.0534  0.2677
  734MOL0     H99078  11.269   4.319   5.380  1.3572  0.1630 -0.4667
  734MOL0     H99079  11.493   4.248   5.366  1.1733 -1.8801 -0.4474
  734MOL0     H99080  11.668   4.084   5.338  2.9268  2.1309 -2.5358
  734MOL0     H99081  11.721   4.235   5.410 -0.1101  0.2155  2.9151
  734MOL0     H99082  11.843   3.949   5.419  3.8490 -0.7836  0.8761
  734MOL0     H99083  11.873   4.058   5.553  0.7354 -0.4786 -0.6225
  734MOL0     H99084  12.055   4.063   5.374 -0.9434 -0.6137  2.2783
  734MOL0     H99085  11.988   4.217   5.389  1.0767 -0.7904 -1.1510
  734MOL0     H99086  12.005   4.151   5.149  1.8801  1.7038  1.5999
  734MOL0     H99087  11.830   4.176   5.192 -1.7593 -1.9566  3.4812
  734MOL0     H99088  11.791   3.780   5.104  0.1693 -0.4566 -0.1796
  734MOL0     H99089  11.470   4.048   5.744  0.3484  1.4624  0.4807
  734MOL0     H99090  11.249   4.108   5.764  0.2934 -1.7056  0.3268
  735MOL0     O99091   7.941   6.962  10.274 -0.1014  0.4456 -0.9378
  735MOL0     C99092   7.973   7.057  10.204 -0.3570 -0.3167  0.4053
  735MOL0     O99093   7.898   7.117  10.118  0.5659  0.2866  0.0531
  735MOL0     C99094   7.763   7.097  10.104 -0.5968  0.2728  0.6847
  735MOL0     C99095   7.682   7.055  10.203 -0.1973 -0.4529 -0.5544
  735MOL0     C99096   7.545   7.038  10.185  0.5649 -0.5301 -0.1687
  735MOL0     C99097   7.488   7.062  10.065  0.3458 -0.9807  0.2310
  735MOL0     O99098   7.350   7.061  10.039 -0.3440 -0.2170  0.4019
  735MOL0     C99099   7.283   7.166  10.112 -0.2157 -0.2457  0.0858
  735MOL0     C99100   7.127   7.171  10.114  0.8149 -0.1715 -0.4506
  735MOL0     C99101   7.069   7.058  10.198 -0.3899  0.1519 -1.5189
  735MOL0     C99102   6.913   7.063  10.224 -0.1221  0.5553  0.4489
  735MOL0     C99103   6.884   6.963  10.335  0.2340 -0.5854 -0.1578
  735MOL0     C99104   6.728   6.958  10.375 -0.9250 -0.2713 -0.2676
  735MOL0     C99105   6.678   6.866  10.483  0.1043  0.1692  0.4405
  735MOL0     C99106   6.736   6.867  10.628 -0.0245 -0.0814 -0.6487
  735MOL0     N99107   6.670   6.965  10.716 -0.3445  0.9757  0.4447
  735MOL0     C99108   6.561   6.932  10.789  0.7129  0.0819  1.2988
  735MOL0     C99109   6.516   7.062  10.822  0.8674 -0.3281 -0.3036
  735MOL0     C99110   6.378   7.104  10.871 -1.0316 -0.6855  0.2639
  735MOL0     C99111   6.271   7.032  10.778  0.9157  1.0032 -0.7224
  735MOL0     C99112   6.140   7.106  10.788  0.3345 -0.0659  0.7586
  735MOL0     C99113   6.018   7.025  10.734  0.0526  0.3738 -1.1931
  735MOL0     O99114   5.994   6.915  10.825  0.7983  0.4017  0.2062
  735MOL0     C99115   5.875   6.848  10.805 -0.2114  0.1017 -0.3106
  735MOL0     C99116   5.769   6.883  10.722 -0.5547  0.6749  0.1360
  735MOL0     C99117   5.647   6.789  10.727 -0.3425 -0.3944 -0.1389
  735MOL0     C99118   5.536   6.827  10.637  0.7237 -0.2275  0.8626
  735MOL0     C99119   5.651   6.674  10.815 -0.1297  0.3484  0.2086
  735MOL0     C99120   5.535   6.585  10.811 -0.6028  0.5451 -0.7184
  735MOL0     O99121   5.451   6.592  10.922 -0.2151 -0.5187 -0.1832
  735MOL0     C99122   5.324   6.539  10.932 -0.2544 -0.3103 -0.2444
  735MOL0     C99123   5.264   6.457  10.842  0.5428  0.6048  0.0110
  735MOL0     C99124   5.124   6.427  10.846 -0.2666  0.1895  0.6763
  735MOL0     C99125   5.045   6.480  10.945  0.5011 -1.1590 -0.5135
  735MOL0     O99126   4.907   6.471  10.949  0.4364 -0.3255  0.6776
  735MOL0     C99127   4.831   6.580  11.006 -0.7673  0.4335  0.1537
  735MOL0     C99128   4.688   6.542  10.980 -0.3046  0.4008  0.8166
  735MOL0     C99129   4.598   6.654  11.023  1.4662 -0.4656 -0.8173
  735MOL0     C99130   4.545   6.635  11.171 -0.6505  0.0739 -0.3704
  735MOL0     C99131   4.422   6.729  11.199 -0.0382 -0.6328  0.9787
  735MOL0     C99132   4.292   6.681  11.146  0.0803 -0.2621  0.5059
  735MOL0     C99133   4.177   6.790  11.142  0.5955 -0.1461 -0.2802
  735MOL0     C99134   4.047   6.724  11.106  0.4195 -0.5544 -0.0098
  735MOL0    Cl99135   4.030   6.690  10.933  0.4541 -0.2633  0.1093
  735MOL0     C99136   5.107   6.554  11.042 -0.2292 -0.9040  0.0275
  735MOL0     C99137   5.239   6.582  11.030 -0.4909 -0.3981  0.9021
  735MOL0     O99138   5.518   6.524  10.705 -0.0054 -0.0789  0.3220
  735MOL0     C99139   5.771   6.647  10.890  0.4872  0.2864 -0.0240
  735MOL0     C99140   5.874   6.733  10.886  0.2774  0.9424  0.4116
  735MOL0     N99141   6.595   7.161  10.768 -0.4545 -0.1203  0.3009
  735MOL0     N99142   6.690   7.101  10.701 -0.6685 -0.5915 -0.0097
  735MOL0     C99143   7.574   7.088   9.955 -0.8957 -0.4438  0.5610
  735MOL0     C99144   7.712   7.119   9.972 -0.6262 -0.3753 -0.8311
  735MOL0     C99145   8.103   7.126  10.226 -0.8765  0.9650 -0.1555
  735MOL0     C99146   8.140   7.233  10.149 -0.5081  0.0229  0.6023
  735MOL0     C99147   8.270   7.291  10.158 -0.4240  0.2379  0.9548
  735MOL0     C99148   8.365   7.240  10.250  0.5014  0.1487 -0.1230
  735MOL0     O99149   8.490   7.293  10.241 -0.0136 -0.4868 -0.1769
  735MOL0     C99150   8.595   7.261  10.334 -0.4546 -0.4488  0.3261
  735MOL0     C99151   8.687   7.157  10.269 -0.5261  0.6827  0.1537
  735MOL0     C99152   8.769   7.223  10.157  0.4634 -0.1563 -0.3147
  735MOL0     C99153   8.908   7.260  10.205 -0.6063 -0.1235 -0.2946
  735MOL0     C99154   8.986   7.140  10.224 -0.0405  0.4109  0.7863
  735MOL0     C99155   9.045   7.038  10.243 -0.3650  0.8777  0.3567
  735MOL0     C99156   8.324   7.133  10.332  0.1583  0.4116 -0.1648
  735MOL0     C99157   8.194   7.078  10.317 -0.7095  0.1332 -0.1902
  735MOL0     H99158   7.716   7.039  10.305 -1.8096  1.2644  0.3299
  735MOL0     H99159   7.493   7.003  10.273  0.7361  2.1583  1.1021
  735MOL0     H99160   7.315   7.159  10.216 -1.3058 -0.4262  0.4119
  735MOL0     H99161   7.312   7.264  10.072 -0.5779  0.0044  0.4336
  735MOL0     H99162   7.090   7.263  10.158  1.1626  0.4603 -1.4544
  735MOL0     H99163   7.082   7.174  10.015 -1.9504  1.9957  0.7392
  735MOL0     H99164   7.085   6.959  10.155  0.0587 -0.2955 -0.3544
  735MOL0     H99165   7.122   7.055  10.293  1.6948 -0.9180 -2.6293
  735MOL0     H99166   6.883   7.166  10.249  4.3834  1.9741  0.9504
  735MOL0     H99167   6.863   7.027  10.134 -1.1331  3.1496 -0.1298
  735MOL0     H99168   6.893   6.858  10.304 -4.7341 -1.3090 -0.0714
  735MOL0     H99169   6.944   6.982  10.424 -1.0989  0.7133  0.5054
  735MOL0     H99170   6.696   7.061  10.398  1.2761  0.8065 -1.6906
  735MOL0     H99171   6.670   6.921  10.291 -0.5139  2.4626 -1.8893
  735MOL0     H99172   6.569   6.874  10.475  0.2562  0.4142 -2.1034
  735MOL0     H99173   6.692   6.765  10.444  0.4620  0.2609  0.3271
  735MOL0     H99174   6.832   6.917  10.613  0.4595 -0.3179  1.4056
  735MOL0     H99175   6.746   6.768  10.673  0.3247  0.2937  0.1178
  735MOL0     H99176   6.513   6.835  10.778  0.5087  0.4500 -1.9004
  735MOL0     H99177   6.358   7.079  10.976 -2.0572 -0.2328  0.1922
  735MOL0     H99178   6.365   7.210  10.847 -2.0562 -1.1760 -1.4806
  735MOL0     H99179   6.248   6.927  10.797 -0.6089  1.1564 -1.5397
  735MOL0     H99180   6.305   7.039  10.674 -1.0842  0.3427 -1.4682
  735MOL0     H99181   6.136   7.204  10.739 -1.7104 -0.6627 -0.3744
  735MOL0     H99182   6.121   7.133  10.892  3.0694  2.5185  0.7288
  735MOL0     H99183   6.030   6.990  10.631  1.6424 -2.3348 -0.2063
  735MOL0     H99184   5.930   7.089  10.743  0.4168  1.0897 -2.5682
  735MOL0     H99185   5.774   6.965  10.651  3.7573  1.4377  1.0785
  735MOL0     H99186   5.434   6.820  10.676 -0.7660  2.6972 -1.9315
  735MOL0     H99187   5.542   6.930  10.600 -2.4208 -0.4231 -0.5666
  735MOL0     H99188   5.531   6.755  10.555 -2.0938 -2.0219  2.4428
  735MOL0     H99189   5.326   6.409  10.767 -0.6241 -1.0094  0.0228
  735MOL0     H99190   5.078   6.355  10.778  0.5105 -0.5652  0.9295
  735MOL0     H99191   4.854   6.610  11.108  4.4141  1.4622 -1.0307
  735MOL0     H99192   4.847   6.673  10.950 -0.3496 -0.1997 -0.8103
  735MOL0     H99193   4.672   6.523  10.874  1.6610 -1.4534  0.7788
  735MOL0     H99194   4.679   6.445  11.030  1.7512 -0.4249 -0.2906
  735MOL0     H99195   4.509   6.645  10.960  1.0424  0.9453 -0.4582
  735MOL0     H99196   4.643   6.752  11.003  0.1602  0.6764  1.4176
  735MOL0     H99197   4.501   6.535  11.178  2.9684 -1.5555  4.6217
  735MOL0     H99198   4.620   6.636  11.251 -0.1688 -2.6382 -0.6989
  735MOL0     H99199   4.441   6.819  11.140  1.9844  0.9489  3.7642
  735MOL0     H99200   4.414   6.760  11.304 -2.1158  1.3782  0.3195
  735MOL0     H99201   4.302   6.640  11.045  0.0357  2.7672 -0.8446
  735MOL0     H99202   4.258   6.598  11.209 -1.2056 -0.7075 -0.7203
  735MOL0     H99203   4.212   6.873  11.081  1.3108 -1.3132 -1.5185
  735MOL0     H99204   4.170   6.823  11.246  1.3817 -1.3239  0.1693
  735MOL0     H99205   3.974   6.802  11.126  0.0899 -1.1586  1.2413
  735MOL0     H99206   4.014   6.637  11.164 -1.9349 -0.1438 -0.6271
  735MOL0     H99207   5.077   6.611  11.129 -2.1346 -0.7489 -0.6751
  735MOL0     H99208   5.276   6.656  11.100  0.7288 -0.5889  0.4958
  735MOL0     H99209   5.776   6.559  10.954  0.4646 -0.5610 -1.1625
  735MOL0     H99210   5.957   6.704  10.950  0.4515 -2.8622 -1.2543
  735MOL0     H99211   7.526   7.091   9.858 -2.8782  1.0928  1.5249
  735MOL0     H99212   7.780   7.143   9.892 -1.0932  2.8942 -0.3532
  735MOL0     H99213   8.076   7.273  10.071  0.9148 -0.1529 -0.7114
  735MOL0     H99214   8.297   7.367  10.086 -0.3776 -0.7609 -0.1240
  735MOL0     H99215   8.649   7.349  10.368 -0.6206  0.0629 -0.6997
  735MOL0     H99216   8.550   7.225  10.427 -0.4271  1.7097  1.2310
  735MOL0     H99217   8.626   7.071  10.243 -2.6814  0.9584  3.6192
  735MOL0     H99218   8.756   7.112  10.341  3.3424  0.7789 -3.0949
  735MOL0     H99219   8.717   7.312  10.121 -0.6072  0.8147  3.2657
  735MOL0     H99220   8.782   7.157  10.071 -0.6187 -0.9624  0.1052
  735MOL0     H99221   8.914   7.327  10.292  2.6564  1.1578 -1.3606
  735MOL0     H99222   8.945   7.311  10.116 -0.1584  1.8029  0.9345
  735MOL0     H99223   9.091   6.945  10.269  2.7490  2.7564  2.2590
  735MOL0     H99224   8.392   7.094  10.406  3.6215  0.1016 -3.2297
  735MOL0     H99225   8.190   6.989  10.379  2.7943  1.3990  2.1346
  736MOL0     O99226   8.278   8.093  10.245 -0.2332  0.2486 -0.2050
  736MOL0     C99227   8.361   8.029  10.173  0.2167 -0.8248 -0.8917
  736MOL0     O99228   8.329   7.957  10.068 -0.3669  0.0155 -0.9035
  736MOL0     C99229   8.203   7.942  10.023  0.3716  0.3290 -0.2596
  736MOL0     C99230   8.172   7.969   9.885 -0.3545 -0.1400  0.2366
  736MOL0     C99231   8.047   7.957   9.834 -0.6755  0.0867  0.5877
  736MOL0     C99232   7.937   7.924   9.919  0.4465  0.7481  0.2510
  736MOL0     O99233   7.804   7.915   9.881  0.4176 -0.0009 -0.1463
  736MOL0     C99234   7.756   8.032   9.816 -0.3659  0.4870  0.6369
  736MOL0     C99235   7.724   7.990   9.670  0.0914 -0.2465  0.9150
  736MOL0     C99236   7.608   7.887   9.654 -0.6817 -0.6661 -0.0433
  736MOL0     C99237   7.642   7.751   9.712 -0.0228  0.2057  0.1848
  736MOL0     C99238   7.761   7.677   9.641  0.1977 -0.8109  0.2007
  736MOL0     C99239   7.749   7.520   9.653  0.0665 -0.0502  1.2638
  736MOL0     C99240   7.751   7.454   9.799 -0.8165 -0.4940 -0.1443
  736MOL0     C99241   7.880   7.470   9.876 -0.6775 -0.0194  0.6945
  736MOL0     N99242   7.997   7.423   9.806 -0.2122 -0.2464  0.3601
  736MOL0     C99243   8.006   7.301   9.737  0.4063 -1.3975  0.4454
  736MOL0     C99244   8.137   7.286   9.707  0.1074  0.0586  0.7175
  736MOL0     C99245   8.189   7.172   9.621 -0.7275 -0.1107 -1.2873
  736MOL0     C99246   8.186   7.044   9.692 -0.0046  0.5813 -0.3449
  736MOL0     C99247   8.185   6.911   9.618  1.0674  0.2724 -0.0607
  736MOL0     C99248   8.059   6.885   9.538  0.4280  0.7475  0.2536
  736MOL0     O99249   7.957   6.827   9.615  0.2722  0.3892  0.4301
  736MOL0     C99250   7.828   6.888   9.616  0.2918  0.6139 -0.1303
  736MOL0     C99251   7.793   7.009   9.573 -0.0482 -0.6475  0.2709
  736MOL0     C99252   7.661   7.053   9.578 -1.0483  0.2577  0.5956
  736MOL0     C99253   7.641   7.193   9.521  0.3002 -0.7178 -0.1337
  736MOL0     C99254   7.559   6.965   9.623 -0.0252 -0.4213  0.1335
  736MOL0     C99255   7.413   6.992   9.623 -0.2710 -0.7422  0.0573
  736MOL0     O99256   7.335   6.883   9.658  0.5341 -0.5872 -0.1526
  736MOL0     C99257   7.203   6.899   9.642 -0.7469 -0.0406 -0.7219
  736MOL0     C99258   7.136   6.859   9.529 -0.1099 -0.1872  0.3648
  736MOL0     C99259   6.999   6.861   9.511  0.1809 -0.3820 -0.9594
  736MOL0     C99260   6.917   6.909   9.615 -0.0391  0.4773 -0.1531
  736MOL0     O99261   6.780   6.909   9.598  0.6153  0.5797 -0.0418
  736MOL0     C99262   6.694   6.965   9.695  0.1523 -0.6425 -0.2842
  736MOL0     C99263   6.553   6.958   9.638  0.2019 -0.2221 -1.7784
  736MOL0     C99264   6.488   6.822   9.653 -0.3742 -0.5294 -1.1605
  736MOL0     C99265   6.485   6.775   9.801 -0.4415 -0.5953 -0.5103
  736MOL0     C99266   6.356   6.711   9.830  0.4463  0.2188 -0.1339
  736MOL0     C99267   6.370   6.630   9.952 -0.9165 -0.3299  0.0573
  736MOL0     C99268   6.436   6.683  10.082  0.3513  0.5235  0.1350
  736MOL0     C99269   6.477   6.567  10.180 -0.6994 -0.0547 -0.0354
  736MOL0    Cl99270   6.643   6.507  10.146  0.3483  0.0196  0.1056
  736MOL0     C99271   6.985   6.966   9.723  0.2245 -0.5218  0.4224
  736MOL0     C99272   7.125   6.966   9.734  1.4562 -0.8145  0.4320
  736MOL0     O99273   7.378   7.105   9.593  0.1337 -0.0718 -0.4550
  736MOL0     C99274   7.601   6.840   9.669 -0.3841  0.0983  0.7217
  736MOL0     C99275   7.731   6.803   9.657  0.1060  0.3041 -0.3576
  736MOL0     N99276   8.208   7.391   9.752  0.0162 -0.5254 -0.0418
  736MOL0     N99277   8.128   7.471   9.817  0.4757 -0.3932 -0.5380
  736MOL0     C99278   7.964   7.898  10.056  0.4734  0.3414 -0.3542
  736MOL0     C99279   8.089   7.910  10.103 -0.1797  0.1418 -0.6232
  736MOL0     C99280   8.507   8.057  10.195  0.0673  0.5018  0.8677
  736MOL0     C99281   8.600   7.979  10.127  0.3456  0.2068 -0.0119
  736MOL0     C99282   8.732   7.998  10.145  0.0570 -0.1077  0.7972
  736MOL0     C99283   8.777   8.100  10.218  0.4103 -0.5400  0.8512
  736MOL0     O99284   8.911   8.128  10.234  0.6255 -0.5072 -0.5457
  736MOL0     C99285   8.981   8.035  10.322  0.0304  0.4744 -0.9709
  736MOL0     C99286   9.091   8.109  10.405  0.0902  0.2258  0.4845
  736MOL0     C99287   9.170   8.007  10.479  0.6424  0.2170 -0.7534
  736MOL0     C99288   9.301   8.075  10.533 -0.8968  0.6807  0.3678
  736MOL0     C99289   9.277   8.180  10.639  0.7853 -0.4698 -0.5860
  736MOL0     C99290   9.255   8.274  10.712 -0.2068 -0.3443 -0.5824
  736MOL0     C99291   8.685   8.171  10.301  0.3663 -0.2341  0.4419
  736MOL0     C99292   8.544   8.152  10.290 -0.4976 -0.0516  1.0559
  736MOL0     H99293   8.250   8.005   9.819 -1.5140 -1.6141 -2.0427
  736MOL0     H99294   8.019   7.983   9.732  2.2624 -0.5690 -0.4676
  736MOL0     H99295   7.660   8.064   9.858 -1.7855 -1.5383 -0.8875
  736MOL0     H99296   7.830   8.113   9.810  1.4301 -1.0984  0.3938
  736MOL0     H99297   7.695   8.076   9.608  2.1727  1.5556  2.2746
  736MOL0     H99298   7.815   7.942   9.634  0.4592 -0.2142  1.7841
  736MOL0     H99299   7.517   7.931   9.696 -1.6247 -0.6272 -2.0451
  736MOL0     H99300   7.579   7.885   9.549 -1.6122  2.3047  0.0703
  736MOL0     H99301   7.663   7.746   9.819  0.2676 -0.3407  0.1069
  736MOL0     H99302   7.555   7.685   9.716  1.6215 -2.0455  0.9421
  736MOL0     H99303   7.762   7.687   9.532  2.5467  0.3408  0.2643
  736MOL0     H99304   7.857   7.703   9.686  0.9756 -0.6036 -1.5428
  736MOL0     H99305   7.657   7.488   9.603 -1.6584  1.7818  3.0470
  736MOL0     H99306   7.827   7.475   9.592  0.1917 -0.3436  1.6345
  736MOL0     H99307   7.680   7.502   9.867  0.8638 -1.2086  2.2449
  736MOL0     H99308   7.733   7.347   9.787  2.6503 -1.2384 -0.0116
  736MOL0     H99309   7.869   7.421   9.973 -0.0298 -0.9071  0.3387
  736MOL0     H99310   7.905   7.576   9.879  1.8638 -0.4127 -1.9362
  736MOL0     H99311   7.926   7.234   9.706 -1.6111  1.4331 -0.9068
  736MOL0     H99312   8.145   7.162   9.521 -0.2679 -3.9945 -1.2696
  736MOL0     H99313   8.294   7.197   9.606 -0.4431  0.0526  0.7731
  736MOL0     H99314   8.094   7.050   9.751 -0.1689 -0.7536 -0.4284
  736MOL0     H99315   8.260   7.030   9.771 -0.3477  3.1416  0.5162
  736MOL0     H99316   8.188   6.822   9.682 -0.2059 -1.5604 -2.3702
  736MOL0     H99317   8.265   6.917   9.544 -0.4667  1.6385 -1.7024
  736MOL0     H99318   8.080   6.805   9.467  2.5582 -0.6832  2.3261
  736MOL0     H99319   8.023   6.973   9.485  0.0616 -0.5243 -1.7227
  736MOL0     H99320   7.866   7.085   9.548 -1.7128  1.4549  1.3811
  736MOL0     H99321   7.571   7.206   9.438  0.7213  0.7279 -0.2827
  736MOL0     H99322   7.612   7.268   9.595 -1.0413  2.1821 -3.3027
  736MOL0     H99323   7.734   7.227   9.475 -1.4354  3.9269 -0.6890
  736MOL0     H99324   7.211   6.817   9.462 -0.2521 -1.2592  0.8556
  736MOL0     H99325   6.940   6.841   9.422 -2.6095 -2.5723  1.2098
  736MOL0     H99326   6.706   6.915   9.791  1.9004  1.1932  0.5344
  736MOL0     H99327   6.721   7.069   9.718 -0.9521 -0.3880 -0.0767
  736MOL0     H99328   6.488   7.029   9.690  0.1642 -3.1149  2.6989
  736MOL0     H99329   6.559   6.972   9.530  1.0763  0.3469 -1.6671
  736MOL0     H99330   6.544   6.750   9.593  0.0322  0.7087 -2.3105
  736MOL0     H99331   6.389   6.831   9.609  1.3052  1.4962 -4.9592
  736MOL0     H99332   6.565   6.700   9.813 -1.0356 -1.0590  0.6932
  736MOL0     H99333   6.497   6.856   9.874 -2.1503  0.6568 -1.5748
  736MOL0     H99334   6.315   6.649   9.751 -0.3809  0.1889  0.3037
  736MOL0     H99335   6.276   6.779   9.860  0.5067  0.5635 -0.7409
  736MOL0     H99336   6.271   6.601   9.987  0.4387 -3.7462  1.5069
  736MOL0     H99337   6.441   6.550   9.933  2.6358  2.1079  1.9183
  736MOL0     H99338   6.374   6.747  10.146  1.6232  1.6681  0.2651
  736MOL0     H99339   6.523   6.744  10.058  1.1039 -1.5807 -2.9774
  736MOL0     H99340   6.412   6.479  10.170  1.2480 -1.5240 -0.2265
  736MOL0     H99341   6.490   6.609  10.281  2.2904 -1.8263  0.4275
  736MOL0     H99342   6.930   6.988   9.814  3.3616 -2.3853  3.0011
  736MOL0     H99343   7.165   7.008   9.826 -0.3056 -0.2429  0.9777
  736MOL0     H99344   7.533   6.758   9.685 -1.7431  0.2329 -3.1685
  736MOL0     H99345   7.775   6.710   9.690  1.2905  1.3508  1.1439
  736MOL0     H99346   7.889   7.856  10.122  2.5450 -1.9813  0.6812
  736MOL0     H99347   8.107   7.895  10.209 -0.1683 -3.6724 -1.0219
  736MOL0     H99348   8.562   7.893  10.072 -1.3459 -1.0048  2.8573
  736MOL0     H99349   8.801   7.933  10.092  1.5678  0.5920  1.8250
  736MOL0     H99350   8.915   7.989  10.396 -1.4601 -1.0182 -3.1160
  736MOL0     H99351   9.022   7.953  10.263  0.7974 -1.2815  1.8197
  736MOL0     H99352   9.040   8.179  10.471 -2.8079 -2.1713  1.0528
  736MOL0     H99353   9.166   8.161  10.345  0.9104 -0.6568  0.7268
  736MOL0     H99354   9.203   7.932  10.406 -1.3273 -0.6778 -0.8048
  736MOL0     H99355   9.117   7.944  10.551  0.5749 -0.6440 -1.5320
  736MOL0     H99356   9.369   8.109  10.454  0.2611  0.0258  1.0632
  736MOL0     H99357   9.355   7.992  10.578 -0.4387  1.3971  1.1673
  736MOL0     H99358   9.232   8.367  10.760  0.7292 -0.4773  0.1522
  736MOL0     H99359   8.715   8.243  10.378  1.8063  0.7393 -0.9522
  736MOL0     H99360   8.469   8.206  10.347 -0.0801 -0.6608  2.2235
  737MOL0     O99361   5.921   8.335  10.794 -0.2034  0.0808 -0.0781
  737MOL0     C99362   5.803   8.341  10.749  0.7492  0.3189 -0.0589
  737MOL0     O99363   5.727   8.229  10.722 -0.1508  0.4395  0.1765
  737MOL0     C99364   5.774   8.103  10.758  0.0476  0.2334  0.2953
  737MOL0     C99365   5.783   7.997  10.669  0.3678 -0.0240  0.3419
  737MOL0     C99366   5.832   7.870  10.691  0.0854  1.2723 -0.1907
  737MOL0     C99367   5.893   7.843  10.816  0.9119  1.1053  1.2754
  737MOL0     O99368   5.930   7.709  10.845 -0.7089  0.1733 -0.2248
  737MOL0     C99369   5.999   7.664  10.973  0.2298  0.3102 -0.7546
  737MOL0     C99370   5.906   7.550  11.041 -0.2391 -0.7965 -0.1227
  737MOL0     C99371   5.863   7.437  10.940  0.6533  0.0128  0.4143
  737MOL0     C99372   5.775   7.332  11.010 -0.7187 -0.2441  0.3227
  737MOL0     C99373   5.767   7.194  10.941  0.3449 -0.5423  0.0235
  737MOL0     C99374   5.631   7.133  10.965 -0.3409  0.2990 -0.3661
  737MOL0     C99375   5.533   7.177  10.858  0.1383  0.2564  0.5279
  737MOL0     C99376   5.387   7.113  10.898 -0.9673  0.2065  0.3063
  737MOL0     N99377   5.299   7.125  10.786  0.0230  0.6937 -0.0542
  737MOL0     C99378   5.264   7.245  10.716  0.0855  0.2501 -0.8237
  737MOL0     C99379   5.181   7.207  10.617  0.3318  0.2452  1.0728
  737MOL0     C99380   5.109   7.294  10.519 -0.2265  0.5508  0.4189
  737MOL0     C99381   4.956   7.266  10.536  0.4909 -0.0484  0.0323
  737MOL0     C99382   4.903   7.142  10.453 -0.1000 -0.6351 -0.7369
  737MOL0     C99383   4.750   7.144  10.447  0.6850  0.0795  0.1367
  737MOL0     O99384   4.687   7.009  10.443 -0.2044  0.0128 -0.2175
  737MOL0     C99385   4.563   6.989  10.379  0.7302  0.1319 -0.2190
  737MOL0     C99386   4.456   7.078  10.371  0.1618 -1.1666  0.0284
  737MOL0     C99387   4.353   7.061  10.275  0.8821  0.3444 -0.5196
  737MOL0     C99388   4.240   7.161  10.291 -0.3719 -0.2856  0.3873
  737MOL0     C99389   4.363   6.954  10.179 -0.3268 -0.2721 -0.7984
  737MOL0     C99390   4.252   6.909  10.089 -0.4560  0.7329  0.5488
  737MOL0     O99391   4.113   6.922  10.141  0.1810 -0.1025  0.4983
  737MOL0     C99392   4.005   6.894  10.063 -0.3314  0.2628 -0.3696
  737MOL0     C99393   3.917   6.790  10.097 -0.0343 -0.4789  0.6579
  737MOL0     C99394   3.813   6.759  10.007 -0.1663 -0.1453  0.3550
  737MOL0     C99395   3.790   6.849   9.895 -0.1975 -1.0296  0.5094
  737MOL0     O99396   3.690   6.825   9.809  0.0334  0.2773  0.7215
  737MOL0     C99397   3.590   6.929   9.813 -0.8459  0.3161 -0.1195
  737MOL0     C99398   3.483   6.913   9.706 -0.7797  0.0196  0.1745
  737MOL0     C99399   3.339   6.945   9.744  1.5764 -0.7400 -0.3624
  737MOL0     C99400   3.264   6.993   9.614  0.7763 -0.1002 -0.1196
  737MOL0     C99401   3.116   6.958   9.613  0.4791 -0.1211  0.3136
  737MOL0     C99402   3.053   7.043   9.495 -0.2137  0.3596 -0.5209
  737MOL0     C99403   2.902   7.050   9.528  0.1429 -1.1856 -0.0138
  737MOL0     C99404   2.828   6.910   9.532 -0.8907  0.5660 -0.1406
  737MOL0    Cl99405   2.655   6.942   9.528  0.3390  0.3915 -0.0517
  737MOL0     C99406   3.873   6.960   9.882 -0.2735 -0.2450  0.0590
  737MOL0     C99407   3.981   6.981   9.960 -0.1681  0.1776 -0.1127
  737MOL0     O99408   4.284   6.849   9.982 -0.6758 -0.2925  0.1289
  737MOL0     C99409   4.485   6.874  10.176  0.0926 -0.1061  0.5433
  737MOL0     C99410   4.583   6.892  10.276  0.7810  0.5554  0.3236
  737MOL0     N99411   5.174   7.062  10.621  0.2360  0.0638 -0.3265
  737MOL0     N99412   5.252   7.021  10.708 -0.0739  0.2199 -0.3281
  737MOL0     C99413   5.891   7.945  10.911  0.2693  0.1329 -0.4184
  737MOL0     C99414   5.830   8.075  10.882 -0.0340 -0.0130 -0.1122
  737MOL0     C99415   5.752   8.475  10.712 -0.6349 -0.1029 -0.1280
  737MOL0     C99416   5.833   8.582  10.750 -0.4827 -0.8700 -0.1794
  737MOL0     C99417   5.775   8.708  10.752  0.1890  0.1869 -0.7906
  737MOL0     C99418   5.637   8.737  10.722 -0.2326  0.2404  0.0537
  737MOL0     O99419   5.599   8.866  10.740 -0.8607 -0.9143 -0.3267
  737MOL0     C99420   5.464   8.903  10.693 -0.4325  0.4008 -0.2499
  737MOL0     C99421   5.361   8.913  10.816  0.0143  1.2860  0.0919
  737MOL0     C99422   5.278   8.784  10.833 -0.5624 -0.7020  0.4563
  737MOL0     C99423   5.142   8.810  10.901 -0.2001  0.7716 -0.0541
  737MOL0     C99424   5.162   8.892  11.020  0.0801 -0.8088 -0.7786
  737MOL0     C99425   5.187   8.948  11.125  0.5072 -0.2459 -0.2632
  737MOL0     C99426   5.567   8.633  10.680  0.4828  0.0732  0.5574
  737MOL0     C99427   5.615   8.503  10.680  0.2030 -0.2850  0.0851
  737MOL0     H99428   5.725   8.013  10.579 -0.2274  0.8581  0.8562
  737MOL0     H99429   5.811   7.788  10.623  0.8734 -0.0506  1.0975
  737MOL0     H99430   6.093   7.615  10.945  0.3166  0.2326 -0.3378
  737MOL0     H99431   6.030   7.747  11.036 -1.3389  2.0141 -2.1226
  737MOL0     H99432   5.960   7.526  11.134 -0.9171  0.4022  0.6086
  737MOL0     H99433   5.812   7.602  11.058 -1.0186 -2.6220  1.5528
  737MOL0     H99434   5.816   7.479  10.851  2.0590 -0.2191 -0.4820
  737MOL0     H99435   5.950   7.394  10.889 -1.8860 -0.5363 -3.9724
  737MOL0     H99436   5.812   7.305  11.109  0.0946 -2.8931 -0.6110
  737MOL0     H99437   5.676   7.378  11.023 -1.3286 -1.7501  1.3168
  737MOL0     H99438   5.766   7.223  10.835  2.2834  2.3594  0.6779
  737MOL0     H99439   5.848   7.124  10.961  0.2471 -1.2171 -1.7196
  737MOL0     H99440   5.644   7.025  10.952 -0.7102  0.3060 -0.8639
  737MOL0     H99441   5.598   7.175  11.060  0.4697 -1.0495  0.5419
  737MOL0     H99442   5.526   7.284  10.836 -0.3426  0.4349  1.5369
  737MOL0     H99443   5.548   7.133  10.759 -1.6178  1.4183 -0.3079
  737MOL0     H99444   5.334   7.160  10.981 -2.2775 -1.2004  0.3224
  737MOL0     H99445   5.408   7.009  10.924 -0.0360 -0.1084 -1.5681
  737MOL0     H99446   5.300   7.345  10.734  0.4458 -0.0986  0.5211
  737MOL0     H99447   5.135   7.398  10.535 -0.9815  0.5752  1.5516
  737MOL0     H99448   5.139   7.266  10.417 -0.4077  0.8740  0.2783
  737MOL0     H99449   4.904   7.351  10.491 -2.4915 -0.6179  2.1200
  737MOL0     H99450   4.921   7.258  10.639  2.1901 -2.8197  0.5103
  737MOL0     H99451   4.939   7.049  10.497  5.3390  0.8881 -1.2899
  737MOL0     H99452   4.938   7.137  10.350 -0.5100 -2.0886 -0.8273
  737MOL0     H99453   4.726   7.189  10.350  2.2001 -0.0042 -0.2940
  737MOL0     H99454   4.715   7.204  10.532  0.7159  3.4153 -2.0108
  737MOL0     H99455   4.441   7.160  10.440 -1.1930 -0.1445 -1.4097
  737MOL0     H99456   4.224   7.205  10.192  0.0975  0.5314  0.6642
  737MOL0     H99457   4.146   7.115  10.321 -0.6655  0.3553  0.4755
  737MOL0     H99458   4.261   7.247  10.355  2.1310 -0.2506 -0.3978
  737MOL0     H99459   3.926   6.730  10.186 -1.3667  1.3592  2.1258
  737MOL0     H99460   3.745   6.675  10.016 -2.6816  1.0885 -4.1258
  737MOL0     H99461   3.548   6.925   9.914 -0.3328 -1.1830  0.0723
  737MOL0     H99462   3.637   7.026   9.799 -0.3329 -0.2219 -2.6202
  737MOL0     H99463   3.511   6.968   9.615 -1.1647  1.1160  0.6958
  737MOL0     H99464   3.489   6.811   9.666 -0.6883  0.2241 -0.3487
  737MOL0     H99465   3.330   7.021   9.822 -0.8571 -0.3119 -0.9847
  737MOL0     H99466   3.294   6.854   9.785  1.3073 -1.4994 -2.2787
  737MOL0     H99467   3.264   7.102   9.611  1.5637  0.0939  3.0358
  737MOL0     H99468   3.306   6.954   9.522 -2.8976  0.9508 -2.4740
  737MOL0     H99469   3.084   6.980   9.716  1.8705  0.1487  0.7129
  737MOL0     H99470   3.114   6.851   9.589 -0.2987 -0.1670  0.5489
  737MOL0     H99471   3.097   7.142   9.479  2.1226 -1.0456 -3.7799
  737MOL0     H99472   3.067   6.992   9.400  2.6928  0.7600 -0.3962
  737MOL0     H99473   2.851   7.115   9.457  2.4015  0.6964 -0.0406
  737MOL0     H99474   2.888   7.111   9.618 -1.1133 -0.7844 -0.4565
  737MOL0     H99475   2.853   6.846   9.617 -2.3715 -0.7064 -0.6260
  737MOL0     H99476   2.863   6.845   9.451  2.2061  1.2741  0.4974
  737MOL0     H99477   3.855   7.029   9.800  1.3202  1.3686  0.9951
  737MOL0     H99478   4.058   7.046   9.919  1.5546 -2.9916 -2.3054
  737MOL0     H99479   4.501   6.809  10.090  0.9641  0.1964  0.4609
  737MOL0     H99480   4.673   6.832  10.279  0.5247  0.1133 -0.5730
  737MOL0     H99481   5.914   7.921  11.014 -0.0967 -2.4992 -0.8912
  737MOL0     H99482   5.822   8.131  10.975  2.1958 -1.2417  0.8977
  737MOL0     H99483   5.928   8.576  10.802 -0.4724 -0.7686 -0.1858
  737MOL0     H99484   5.839   8.786  10.791 -0.9561  0.9409 -0.3548
  737MOL0     H99485   5.482   8.999  10.643  1.0887  1.3905  2.0137
  737MOL0     H99486   5.423   8.837  10.616  0.0413 -1.7174  1.2206
  737MOL0     H99487   5.295   8.998  10.800 -0.3624  1.3024  1.6040
  737MOL0     H99488   5.425   8.932  10.904 -1.2957 -1.0934  1.6611
  737MOL0     H99489   5.348   8.719  10.887  1.4520  0.1999 -0.9677
  737MOL0     H99490   5.269   8.733  10.737  1.2398 -1.7383  0.7831
  737MOL0     H99491   5.116   8.708  10.930  0.7127 -0.0199 -1.8638
  737MOL0     H99492   5.073   8.852  10.827  1.5144  1.7402 -1.1786
  737MOL0     H99493   5.204   9.012  11.209 -2.9306  0.5515 -0.0416
  737MOL0     H99494   5.477   8.641  10.620  2.2169  1.2253 -2.0967
  737MOL0     H99495   5.547   8.424  10.651 -1.9984  2.0809 -1.5866
  738MOL0     O99496   9.243  10.117   4.627  0.7847 -0.2310  0.3333
  738MOL0     C99497   9.337  10.099   4.708  0.3764 -0.2201 -0.4708
  738MOL0     O99498   9.391   9.979   4.744  0.0223  0.3702 -0.0412
  738MOL0     C99499   9.323   9.857   4.716  0.3463 -0.0758  0.6576
  738MOL0     C99500   9.228   9.795   4.789  1.1987  0.7362  0.3613
  738MOL0     C99501   9.181   9.669   4.756 -0.2458  0.1655  0.6250
  738MOL0     C99502   9.230   9.590   4.648  0.8312  0.1089  0.1062
  738MOL0     O99503   9.183   9.467   4.606 -0.3520  0.3339  0.3329
  738MOL0     C99504   9.047   9.434   4.622  0.5282 -0.3888 -0.7071
  738MOL0     C99505   9.005   9.343   4.505 -0.0687 -0.4770  0.3139
  738MOL0     C99506   8.971   9.396   4.367 -0.2991 -0.7461 -0.8192
  738MOL0     C99507   9.052   9.524   4.335  0.0366  0.0107 -0.7218
  738MOL0     C99508   9.061   9.551   4.184 -0.1609 -1.2800 -0.3098
  738MOL0     C99509   8.921   9.592   4.128 -0.6250 -0.0994  0.2190
  738MOL0     C99510   8.904   9.605   3.979 -0.1052 -0.3129 -0.0610
  738MOL0     C99511   8.778   9.686   3.934 -1.0835 -0.0758  0.5012
  738MOL0     N99512   8.796   9.738   3.791 -0.0658 -0.0912 -0.7178
  738MOL0     C99513   8.755   9.671   3.679 -0.5932 -0.0923 -0.6676
  738MOL0     C99514   8.798   9.757   3.574  0.1207 -0.5444  0.6485
  738MOL0     C99515   8.793   9.730   3.426  0.4876 -0.1922  0.9819
  738MOL0     C99516   8.701   9.831   3.366  0.3774 -0.2103  0.0513
  738MOL0     C99517   8.645   9.795   3.228  0.1075 -0.2539  0.5119
  738MOL0     C99518   8.739   9.839   3.117 -0.6804  0.2406  1.1629
  738MOL0     O99519   8.705   9.773   2.993  0.0809  0.1003 -0.5910
  738MOL0     C99520   8.813   9.762   2.898 -0.8035 -0.2735  0.1255
  738MOL0     C99521   8.935   9.830   2.886 -0.1313  0.0341 -0.3919
  738MOL0     C99522   9.032   9.804   2.796  0.6322 -0.3919 -0.1961
  738MOL0     C99523   9.162   9.887   2.789 -0.7685  1.3731  0.2272
  738MOL0     C99524   9.012   9.699   2.704 -0.5604 -0.6663  0.3016
  738MOL0     C99525   9.097   9.661   2.591  0.1717 -0.3903  0.1363
  738MOL0     O99526   9.167   9.752   2.529  0.3099 -0.5209 -0.1494
  738MOL0     C99527   9.241   9.738   2.414  0.0692  0.1506 -0.2462
  738MOL0     C99528   9.198   9.661   2.306 -0.2421 -0.7839  0.1970
  738MOL0     C99529   9.289   9.660   2.190 -0.3003 -0.6537 -0.2389
  738MOL0     C99530   9.402   9.739   2.184  0.9045  0.7698 -0.2204
  738MOL0     O99531   9.468   9.732   2.064 -0.2344  0.8763  0.4060
  738MOL0     C99532   9.572   9.823   2.016 -0.5413 -0.5007  0.8416
  738MOL0     C99533   9.701   9.749   1.972 -0.0775  0.6779  0.8175
  738MOL0     C99534   9.695   9.654   1.849 -0.3764 -0.0367 -0.3958
  738MOL0     C99535   9.829   9.588   1.819 -0.1732  0.3293  0.1863
  738MOL0     C99536   9.810   9.491   1.693 -0.4683 -0.0629  0.7801
  738MOL0     C99537   9.937   9.411   1.680  0.2770 -0.4594  0.0653
  738MOL0     C99538   9.938   9.330   1.547 -0.8064 -0.6171  0.3301
  738MOL0     C99539  10.077   9.253   1.535 -0.5693 -0.4793 -0.0918
  738MOL0    Cl99540  10.108   9.148   1.672 -0.0050 -0.1826  0.1939
  738MOL0     C99541   9.447   9.801   2.297  0.0678 -0.9606  0.1258
  738MOL0     C99542   9.360   9.809   2.409  0.2466 -0.5798 -0.5293
  738MOL0     O99543   9.102   9.544   2.562  0.6999 -0.8668 -0.4117
  738MOL0     C99544   8.895   9.624   2.716 -0.0100  0.1832  1.1792
  738MOL0     C99545   8.792   9.655   2.811  0.7009  0.1954  0.5854
  738MOL0     N99546   8.857   9.873   3.631 -0.0703  0.6013 -0.3444
  738MOL0     N99547   8.847   9.861   3.758 -0.5025 -0.1645  0.6701
  738MOL0     C99548   9.335   9.650   4.572 -0.3486  0.2330 -1.5799
  738MOL0     C99549   9.376   9.779   4.604 -0.0802 -0.4266 -0.4254
  738MOL0     C99550   9.390  10.221   4.775 -0.6028  0.2675 -0.4867
  738MOL0     C99551   9.449  10.217   4.898  0.7617 -0.5177 -0.2588
  738MOL0     C99552   9.521  10.316   4.938  0.6383 -1.1526 -0.0676
  738MOL0     C99553   9.530  10.439   4.873  0.3733  0.7541  0.8078
  738MOL0     O99554   9.605  10.536   4.922 -0.0853 -0.4220  0.4409
  738MOL0     C99555   9.664  10.655   4.849 -0.0291  0.4712  0.2438
  738MOL0     C99556   9.741  10.742   4.944  0.1369  0.1256  0.5591
  738MOL0     C99557   9.873  10.683   4.981 -0.7905  0.6767 -0.7994
  738MOL0     C99558   9.967  10.778   5.050  0.3673 -0.4869 -0.1234
  738MOL0     C99559  10.001  10.892   4.971  0.2759  0.3507  0.8037
  738MOL0     C99560  10.017  10.998   4.916 -0.3451 -0.6757 -0.0742
  738MOL0     C99561   9.468  10.443   4.747  0.0868  0.3725  0.3856
  738MOL0     C99562   9.401  10.337   4.700  0.5460 -0.0268  0.5902
  738MOL0     H99563   9.190   9.832   4.884  1.0080  0.8547  0.2387
  738MOL0     H99564   9.113   9.621   4.825 -1.7580  2.0924  0.5533
  738MOL0     H99565   9.036   9.373   4.712  3.0971  1.1574  0.7567
  738MOL0     H99566   8.974   9.515   4.623  1.3710  0.3877  0.6680
  738MOL0     H99567   9.092   9.279   4.489 -0.5361 -0.9832 -0.2514
  738MOL0     H99568   8.919   9.279   4.527 -1.4639  1.7510  1.6576
  738MOL0     H99569   8.988   9.316   4.294  0.5390 -0.2872 -1.1378
  738MOL0     H99570   8.866   9.421   4.355 -0.3024 -0.2172  0.1947
  738MOL0     H99571   9.000   9.602   4.391  0.3656  0.8511 -1.5683
  738MOL0     H99572   9.151   9.504   4.377  1.0725  1.3262 -2.4214
  738MOL0     H99573   9.123   9.641   4.171 -0.0136 -1.2096  0.8127
  738MOL0     H99574   9.113   9.471   4.130 -0.0467 -1.4432  0.0361
  738MOL0     H99575   8.847   9.522   4.167 -0.4493  0.5366  1.7673
  738MOL0     H99576   8.893   9.680   4.187 -0.3326  0.1958 -0.0790
  738MOL0     H99577   8.992   9.666   3.956 -0.5138  0.7247  1.0516
  738MOL0     H99578   8.902   9.505   3.935 -0.8522 -1.0048  1.4768
  738MOL0     H99579   8.760   9.768   4.004 -2.4620 -0.0451  0.1312
  738MOL0     H99580   8.697   9.613   3.938  1.2427 -2.8213  0.5012
  738MOL0     H99581   8.713   9.575   3.651  0.4498  0.3064 -4.0613
  738MOL0     H99582   8.896   9.724   3.389  0.0650 -0.8516 -0.1513
  738MOL0     H99583   8.752   9.635   3.393 -3.6707  2.3182 -2.1406
  738MOL0     H99584   8.742   9.932   3.361  1.4409 -0.5673  0.9491
  738MOL0     H99585   8.616   9.839   3.435 -1.3101 -1.1053 -1.8219
  738MOL0     H99586   8.543   9.819   3.198  0.3424 -2.6229 -2.7028
  738MOL0     H99587   8.639   9.686   3.230 -3.1633 -0.1789  2.0880
  738MOL0     H99588   8.836   9.812   3.160 -1.1079 -4.0564 -0.0766
  738MOL0     H99589   8.745   9.947   3.098  0.3291  0.5183  2.8659
  738MOL0     H99590   8.953   9.901   2.966  1.9859  1.9361 -2.4399
  738MOL0     H99591   9.180   9.949   2.877  0.4513 -1.1736  1.8993
  738MOL0     H99592   9.247   9.817   2.789 -0.7740  1.3667  0.8147
  738MOL0     H99593   9.155   9.942   2.694 -0.6443 -0.5878 -0.9712
  738MOL0     H99594   9.108   9.600   2.305  1.5422 -3.6230  0.0108
  738MOL0     H99595   9.262   9.597   2.106 -0.6220 -1.0080  0.1206
  738MOL0     H99596   9.526   9.866   1.926 -0.5813 -2.0194  0.0908
  738MOL0     H99597   9.591   9.900   2.091 -2.9058  0.6527  0.3522
  738MOL0     H99598   9.767   9.831   1.945  1.4461 -0.4470  0.9648
  738MOL0     H99599   9.758   9.699   2.051 -0.1438  0.2398  0.5919
  738MOL0     H99600   9.661   9.699   1.755 -2.0199 -3.5542 -1.6599
  738MOL0     H99601   9.622   9.577   1.875  1.0819 -2.0384 -1.8931
  738MOL0     H99602   9.891   9.673   1.789 -0.7440  1.7454  2.7688
  738MOL0     H99603   9.865   9.530   1.904  1.3979  0.8222 -0.1112
  738MOL0     H99604   9.785   9.555   1.608 -1.9038 -1.5271  0.0355
  738MOL0     H99605   9.717   9.433   1.702 -0.3923 -0.3289 -0.0986
  738MOL0     H99606  10.030   9.468   1.687  1.7878 -2.7612 -0.0889
  738MOL0     H99607   9.951   9.345   1.766  3.6895 -1.1779 -0.8929
  738MOL0     H99608   9.925   9.405   1.468 -1.8204  1.9034  2.7098
  738MOL0     H99609   9.851   9.266   1.528 -0.8425 -0.0167 -1.8934
  738MOL0     H99610  10.154   9.331   1.529 -0.8015 -0.3131 -1.4228
  738MOL0     H99611  10.085   9.196   1.442 -2.7572  2.4750 -2.3116
  738MOL0     H99612   9.541   9.856   2.292  0.3098 -1.4691 -1.5579
  738MOL0     H99613   9.389   9.862   2.499  1.0931 -2.7499  0.5341
  738MOL0     H99614   8.872   9.537   2.654 -2.6623  0.9587  0.9424
  738MOL0     H99615   8.708   9.586   2.815 -0.9182  2.1414  2.3846
  738MOL0     H99616   9.384   9.598   4.491  0.8212 -1.7879  0.3294
  738MOL0     H99617   9.457   9.834   4.557 -1.1398  0.0478 -1.7823
  738MOL0     H99618   9.448  10.127   4.959  0.6456 -1.2625 -1.3275
  738MOL0     H99619   9.567  10.316   5.037 -2.0408  0.5971  1.3036
  738MOL0     H99620   9.718  10.627   4.757 -0.5064  2.3870 -0.6683
  738MOL0     H99621   9.581  10.706   4.799 -0.5777 -0.8481 -0.2446
  738MOL0     H99622   9.683  10.765   5.034  0.3263  1.5203  0.3479
  738MOL0     H99623   9.756  10.839   4.896 -0.2134  0.2872  0.7672
  738MOL0     H99624   9.925  10.647   4.892 -0.9590  1.1299 -1.0800
  738MOL0     H99625   9.856  10.598   5.049  0.1172  0.3787 -0.9297
  738MOL0     H99626  10.059  10.738   5.095 -1.4597  0.4777  5.0858
  738MOL0     H99627   9.910  10.824   5.130  0.7646  0.0971 -0.1679
  738MOL0     H99628  10.029  11.094   4.868 -1.8013 -1.0624 -1.2872
  738MOL0     H99629   9.491  10.526   4.680 -0.9327 -0.7457 -1.4321
  738MOL0     H99630   9.360  10.342   4.600  1.0667 -0.0967  0.3736
  739MOL0     O99631  11.065   5.846   8.392  0.9380  0.4070  0.6971
  739MOL0     C99632  11.058   5.892   8.277 -0.0675  1.1583 -0.1130
  739MOL0     O99633  10.945   5.949   8.221  0.1297  0.6937  0.1117
  739MOL0     C99634  10.853   6.016   8.296  0.3133  0.0198  0.1513
  739MOL0     C99635  10.855   6.052   8.436 -0.4979  0.6162 -0.3119
  739MOL0     C99636  10.748   6.111   8.507 -1.1121  0.0477  1.0321
  739MOL0     C99637  10.632   6.133   8.442  0.8602  0.2971 -1.2616
  739MOL0     O99638  10.523   6.186   8.503  0.8039  0.7030 -0.0868
  739MOL0     C99639  10.475   6.116   8.619  0.4503  0.4396 -0.4822
  739MOL0     C99640  10.325   6.146   8.631 -0.8651  0.6284 -0.1860
  739MOL0     C99641  10.245   6.141   8.496  0.7402 -0.6844 -0.4476
  739MOL0     C99642  10.229   6.004   8.438 -0.1653  1.1827  0.2146
  739MOL0     C99643  10.175   5.987   8.292 -1.1669 -0.2799 -1.2450
  739MOL0     C99644  10.043   6.068   8.281 -0.0385  0.0927  0.0861
  739MOL0     C99645   9.965   6.025   8.151  0.2710 -0.6494  0.4175
  739MOL0     C99646   9.986   5.884   8.093  0.2086 -0.3376  0.8582
  739MOL0     N99647   9.902   5.868   7.973  0.7117  1.0138  0.0916
  739MOL0     C99648   9.902   5.940   7.858 -0.1981  0.1487  0.1410
  739MOL0     C99649   9.790   5.901   7.784 -1.0528  0.1946 -0.0971
  739MOL0     C99650   9.760   5.951   7.647  0.2681 -0.0704 -0.0525
  739MOL0     C99651   9.628   5.901   7.594 -0.9046 -0.2091 -0.8250
  739MOL0     C99652   9.510   5.982   7.664 -0.0391  0.2531  0.3902
  739MOL0     C99653   9.375   5.970   7.597 -0.3042 -0.3466  0.8407
  739MOL0     O99654   9.339   5.833   7.609  0.0155  0.6603  0.1348
  739MOL0     C99655   9.203   5.812   7.635  0.7730 -0.6926  0.1637
  739MOL0     C99656   9.179   5.688   7.693  0.4367 -0.0011 -0.4536
  739MOL0     C99657   9.048   5.641   7.705 -0.3660  0.4437 -0.2545
  739MOL0     C99658   9.038   5.503   7.775  0.5357  0.5028  0.0510
  739MOL0     C99659   8.942   5.723   7.663  0.3666 -0.7899 -0.2281
  739MOL0     C99660   8.799   5.679   7.686  0.4146 -0.3794  0.1221
  739MOL0     O99661   8.692   5.744   7.625 -0.3513 -0.6472 -0.6634
  739MOL0     C99662   8.563   5.700   7.642 -0.7904  0.9451 -0.2222
  739MOL0     C99663   8.532   5.569   7.665  0.7901  0.1004 -0.0890
  739MOL0     C99664   8.403   5.523   7.679  0.5577 -0.1629  0.5036
  739MOL0     C99665   8.293   5.613   7.656 -0.5852  0.0135  0.0411
  739MOL0     O99666   8.159   5.572   7.669  0.3417  0.1334 -0.2525
  739MOL0     C99667   8.135   5.435   7.641  0.1837 -0.1221 -0.0731
  739MOL0     C99668   7.985   5.424   7.633  0.5443 -0.0921  0.9613
  739MOL0     C99669   7.941   5.275   7.632 -0.1317  0.8353  0.3848
  739MOL0     C99670   7.808   5.239   7.560  0.0407  0.3465 -0.2604
  739MOL0     C99671   7.796   5.086   7.555  0.4923  0.4808 -0.1571
  739MOL0     C99672   7.672   5.032   7.477 -1.6793 -0.1853 -0.3155
  739MOL0     C99673   7.675   4.883   7.463  0.2880  0.0824  0.2624
  739MOL0     C99674   7.556   4.839   7.367 -0.2627  0.2608  1.2077
  739MOL0    Cl99675   7.603   4.844   7.194  0.1740  0.5923  0.2073
  739MOL0     C99676   8.319   5.745   7.628 -0.5505 -0.5389 -0.7706
  739MOL0     C99677   8.455   5.790   7.632 -0.8172 -0.2127  1.4522
  739MOL0     O99678   8.786   5.599   7.777  0.2302  1.2398  0.1985
  739MOL0     C99679   8.969   5.843   7.599 -0.2725  0.3791 -0.4602
  739MOL0     C99680   9.098   5.892   7.588 -0.3525  0.2807 -0.1988
  739MOL0     N99681   9.746   5.796   7.854  0.3092  0.4440 -0.0401
  739MOL0     N99682   9.800   5.783   7.960  0.3435 -0.7000 -0.0066
  739MOL0     C99683  10.623   6.105   8.311 -0.2405  0.2114 -0.2167
  739MOL0     C99684  10.727   6.047   8.237  1.4090  0.0453 -0.2665
  739MOL0     C99685  11.182   5.867   8.196  0.7823  0.0625 -0.1213
  739MOL0     C99686  11.181   5.898   8.059  0.8790  0.3927 -0.0865
  739MOL0     C99687  11.294   5.865   7.979  0.0080 -0.0521 -0.2997
  739MOL0     C99688  11.411   5.809   8.033  0.0496  0.3356  1.2139
  739MOL0     O99689  11.521   5.798   7.957 -1.1414 -0.2915 -0.3231
  739MOL0     C99690  11.650   5.839   8.003  0.1442  0.4929  0.1946
  739MOL0     C99691  11.739   5.920   7.900 -0.3851  0.1048 -0.0750
  739MOL0     C99692  11.663   6.034   7.844 -0.4932 -0.0142  0.0266
  739MOL0     C99693  11.749   6.139   7.760  0.5059 -0.0146 -0.1718
  739MOL0     C99694  11.821   6.068   7.649  0.1630 -0.9532  0.4074
  739MOL0     C99695  11.864   6.038   7.546 -1.7077  0.5103 -0.1303
  739MOL0     C99696  11.403   5.776   8.162  0.1096  0.5811 -0.9256
  739MOL0     C99697  11.294   5.807   8.245 -0.5276  0.2306  0.1412
  739MOL0     H99698  10.946   6.039   8.494 -2.4716  0.6343  3.0441
  739MOL0     H99699  10.772   6.135   8.611  2.9027  0.4074  0.2077
  739MOL0     H99700  10.480   6.007   8.612 -2.9949  0.1980 -1.0444
  739MOL0     H99701  10.526   6.136   8.714  2.4547  0.5948 -1.5467
  739MOL0     H99702  10.287   6.072   8.702  0.5482  0.8042  0.7865
  739MOL0     H99703  10.313   6.244   8.678 -1.6364  1.2172 -1.5530
  739MOL0     H99704  10.148   6.181   8.526  3.1177  2.9323  3.6204
  739MOL0     H99705  10.287   6.207   8.419  0.2263  1.7439  1.2171
  739MOL0     H99706  10.324   5.951   8.441 -0.0032  1.3560 -1.1293
  739MOL0     H99707  10.168   5.940   8.502  2.8463 -0.4192  1.6749
  739MOL0     H99708  10.233   6.022   8.206 -3.0845 -1.9112 -3.3332
  739MOL0     H99709  10.149   5.882   8.275 -2.2781 -0.4633  1.1386
  739MOL0     H99710   9.981   6.049   8.369  1.3714  3.5534  2.0508
  739MOL0     H99711  10.066   6.175   8.279  1.1247 -0.1198  0.7225
  739MOL0     H99712   9.858   6.039   8.171  0.4552 -0.2865  1.1974
  739MOL0     H99713   9.986   6.105   8.079  1.7702  1.1892  2.7343
  739MOL0     H99714   9.954   5.812   8.169  1.9570 -0.9028  1.0879
  739MOL0     H99715  10.087   5.851   8.070 -0.8333 -2.5683 -0.8826
  739MOL0     H99716   9.982   6.011   7.839  0.7994 -0.7692  0.8557
  739MOL0     H99717   9.753   6.060   7.646  4.5367  0.4095 -3.4723
  739MOL0     H99718   9.846   5.919   7.587  1.7085  1.0134  1.3574
  739MOL0     H99719   9.619   5.792   7.595 -0.6778 -0.2259  0.3316
  739MOL0     H99720   9.622   5.925   7.488  0.8812  0.0348 -0.9031
  739MOL0     H99721   9.535   6.089   7.672 -1.1715  0.4980  0.8088
  739MOL0     H99722   9.499   5.949   7.767  2.5461 -2.3430 -0.0464
  739MOL0     H99723   9.394   5.974   7.489  0.1650  0.4479  0.9487
  739MOL0     H99724   9.304   6.045   7.633  1.2087  2.5019 -1.6354
  739MOL0     H99725   9.257   5.620   7.728  0.4008 -0.6795 -1.6259
  739MOL0     H99726   8.993   5.520   7.873 -0.0232  0.4881 -0.1976
  739MOL0     H99727   8.971   5.434   7.722 -1.1932  3.1236 -1.4214
  739MOL0     H99728   9.138   5.460   7.779  0.0391 -0.7035  0.2342
  739MOL0     H99729   8.601   5.490   7.694  0.8083 -0.0045 -0.4050
  739MOL0     H99730   8.372   5.420   7.693 -1.6444  0.6043  1.7081
  739MOL0     H99731   8.182   5.410   7.545 -0.9105  2.8016 -1.5031
  739MOL0     H99732   8.166   5.361   7.715 -2.6843  0.9798  2.4242
  739MOL0     H99733   7.943   5.484   7.714  1.0131  2.7376 -0.7198
  739MOL0     H99734   7.949   5.477   7.544  4.9042 -0.0027 -1.0308
  739MOL0     H99735   7.953   5.234   7.733  1.1067  0.1196 -0.0289
  739MOL0     H99736   8.017   5.226   7.570 -0.7191  2.6745 -1.8992
  739MOL0     H99737   7.734   5.289   7.624  2.8390  5.2082 -0.3714
  739MOL0     H99738   7.791   5.271   7.457 -2.7405  0.5431  0.1709
  739MOL0     H99739   7.790   5.036   7.652  1.6457 -1.6806 -1.1311
  739MOL0     H99740   7.885   5.056   7.500 -0.7995  0.0950 -2.1416
  739MOL0     H99741   7.583   5.068   7.529 -0.9526  0.0065  0.8572
  739MOL0     H99742   7.673   5.082   7.380 -0.7847  0.4253 -0.0056
  739MOL0     H99743   7.656   4.847   7.565  0.8224  2.3308  1.2266
  739MOL0     H99744   7.775   4.855   7.428  1.4328 -1.1425  3.9825
  739MOL0     H99745   7.472   4.908   7.354 -0.5949 -0.5614 -2.0584
  739MOL0     H99746   7.503   4.746   7.385 -2.4624  1.5898  1.9331
  739MOL0     H99747   8.236   5.814   7.623  1.0318  1.4532 -0.8266
  739MOL0     H99748   8.491   5.891   7.616 -4.5907  1.0455 -0.2511
  739MOL0     H99749   8.893   5.905   7.552 -1.7183 -1.4825 -0.7285
  739MOL0     H99750   9.105   5.984   7.531 -2.5159  1.6240  1.5572
  739MOL0     H99751  10.532   6.128   8.257 -0.1809  0.1272 -0.3526
  739MOL0     H99752  10.706   6.028   8.132  1.2846 -2.8910  0.2315
  739MOL0     H99753  11.095   5.952   8.020 -0.3219 -2.3992 -1.5674
  739MOL0     H99754  11.292   5.902   7.877  1.1589  1.9952  0.3695
  739MOL0     H99755  11.636   5.893   8.097  2.5635  0.7726  0.4367
  739MOL0     H99756  11.708   5.747   8.014  1.6475  1.1785 -1.5593
  739MOL0     H99757  11.780   5.854   7.823  2.3977 -2.0965  3.0136
  739MOL0     H99758  11.829   5.957   7.951 -0.5986 -0.4196  0.7095
  739MOL0     H99759  11.612   6.086   7.926 -0.9170  0.2238 -0.3820
  739MOL0     H99760  11.585   5.988   7.782 -0.4899 -3.8570  2.5602
  739MOL0     H99761  11.826   6.185   7.823 -0.7166  2.8461 -0.5954
  739MOL0     H99762  11.679   6.216   7.725  2.1176  1.6035 -0.0159
  739MOL0     H99763  11.890   6.008   7.446 -1.3029  1.1002 -0.2043
  739MOL0     H99764  11.487   5.734   8.218  0.7491  0.1629 -2.1699
  739MOL0     H99765  11.303   5.791   8.352  2.2766 -1.7479 -0.2618
  740MOL0     O99766   7.689   4.069   9.736  0.1905 -0.0317 -0.1932
  740MOL0     C99767   7.769   4.005   9.805 -0.1874  0.3778 -0.0964
  740MOL0     O99768   7.739   3.880   9.860 -0.3247 -0.3030 -0.3846
  740MOL0     C99769   7.617   3.823   9.836  0.0746  0.0337 -0.3969
  740MOL0     C99770   7.524   3.809   9.934  0.0490  0.4165  0.3365
  740MOL0     C99771   7.408   3.741   9.912  0.4946 -0.0334  0.4294
  740MOL0     C99772   7.377   3.702   9.778  0.1859  0.7104 -0.4522
  740MOL0     O99773   7.253   3.642   9.751 -0.0430 -0.6601  0.3046
  740MOL0     C99774   7.203   3.554   9.849  0.6663  1.1323 -0.7160
  740MOL0     C99775   7.076   3.480   9.805 -0.0007 -0.2595  0.6378
  740MOL0     C99776   7.098   3.412   9.668  1.0030 -0.1803 -0.9819
  740MOL0     C99777   6.988   3.308   9.634 -0.5372 -0.2779 -0.2619
  740MOL0     C99778   7.031   3.222   9.515  0.1664  0.6917  0.6459
  740MOL0     C99779   7.071   3.298   9.388 -0.5083  0.7135  0.0714
  740MOL0     C99780   7.084   3.202   9.277  0.0870 -0.0382 -0.1627
  740MOL0     C99781   7.115   3.262   9.141  0.0227  0.7304 -0.3290
  740MOL0     N99782   7.004   3.342   9.075  0.0001 -0.0671  0.2956
  740MOL0     C99783   7.006   3.479   9.092  1.1258 -0.1003 -0.0467
  740MOL0     C99784   6.874   3.516   9.056  0.3117  0.6015 -0.1609
  740MOL0     C99785   6.831   3.661   9.044 -0.1392  0.4394  1.0145
  740MOL0     C99786   6.683   3.680   9.056 -0.4354  0.4203  0.2708
  740MOL0     C99787   6.646   3.820   9.022  0.1739 -0.6404 -0.1757
  740MOL0     C99788   6.499   3.848   9.004 -0.4141 -0.2347 -0.0588
  740MOL0     O99789   6.427   3.782   9.110 -0.0587  0.3288 -0.2030
  740MOL0     C99790   6.434   3.857   9.222 -0.1453  0.2545  0.0410
  740MOL0     C99791   6.370   3.980   9.230 -0.2925  0.3526  0.0856
  740MOL0     C99792   6.356   4.043   9.354 -0.1171  0.2825 -0.1617
  740MOL0     C99793   6.315   4.190   9.345  0.3752 -0.0379 -0.5600
  740MOL0     C99794   6.406   3.985   9.474 -0.5012  1.1309 -0.4855
  740MOL0     C99795   6.403   4.027   9.621 -0.0741  0.1006  0.4190
  740MOL0     O99796   6.453   3.962   9.728  0.1267  0.7645  0.3337
  740MOL0     C99797   6.425   3.992   9.857  0.6935  1.1028  0.0294
  740MOL0     C99798   6.524   3.959   9.954 -0.4187  0.8490  0.2245
  740MOL0     C99799   6.499   3.993  10.094 -1.0304  0.0213 -0.6619
  740MOL0     C99800   6.386   4.061  10.135  0.0873 -0.9277 -0.1173
  740MOL0     O99801   6.377   4.094  10.270 -0.1406 -0.5653 -0.3972
  740MOL0     C99802   6.257   4.153  10.310  0.3778 -0.0347 -0.4936
  740MOL0     C99803   6.279   4.182  10.464 -0.3197 -1.2794  0.0045
  740MOL0     C99804   6.372   4.297  10.475 -0.0903  0.2997 -0.1495
  740MOL0     C99805   6.405   4.313  10.626 -0.4471 -0.4518  1.1039
  740MOL0     C99806   6.480   4.440  10.642 -0.1886  0.3133 -0.3985
  740MOL0     C99807   6.403   4.571  10.646  0.2408  0.5032 -0.4926
  740MOL0     C99808   6.491   4.693  10.685 -0.9922  1.0807 -0.6437
  740MOL0     C99809   6.511   4.706  10.834 -0.3206  0.3201  0.5308
  740MOL0    Cl99810   6.624   4.836  10.871  0.1920 -0.4379 -0.6141
  740MOL0     C99811   6.293   4.081  10.037  0.3685  0.0418 -0.7801
  740MOL0     C99812   6.305   4.050   9.904  1.1204  0.4695 -0.1119
  740MOL0     O99813   6.347   4.131   9.625  0.3436  0.7254  0.3162
  740MOL0     C99814   6.459   3.860   9.463  0.6561 -0.3710 -0.2527
  740MOL0     C99815   6.473   3.793   9.341  0.2064 -0.5081 -0.1992
  740MOL0     N99816   6.798   3.398   9.036 -0.2994 -0.3101  0.4820
  740MOL0     N99817   6.875   3.299   9.049  0.1987  0.7676 -1.1467
  740MOL0     C99818   7.464   3.721   9.671  0.3189  0.7361 -0.1303
  740MOL0     C99819   7.585   3.786   9.707  0.3695  0.7756  0.0517
  740MOL0     C99820   7.903   4.059   9.842 -0.0371 -0.7075  0.5661
  740MOL0     C99821   7.986   3.998   9.934  0.3137  0.2784 -0.1640
  740MOL0     C99822   8.105   4.069   9.971  0.1339  0.2334 -0.0536
  740MOL0     C99823   8.143   4.182   9.907  0.1854  0.7142 -0.0482
  740MOL0     O99824   8.251   4.260   9.936  0.3889 -0.1047 -0.4900
  740MOL0     C99825   8.363   4.199  10.007 -0.8601  0.1089  0.0316
  740MOL0     C99826   8.494   4.284  10.012  0.2834 -0.6055 -0.7037
  740MOL0     C99827   8.543   4.309   9.867  0.0850  0.1107 -0.0376
  740MOL0     C99828   8.676   4.399   9.861  0.7805  0.5082 -0.0185
  740MOL0     C99829   8.791   4.341   9.931  1.0000  0.5232 -0.0311
  740MOL0     C99830   8.877   4.301  10.009 -0.2886 -0.5395  0.1227
  740MOL0     C99831   8.067   4.229   9.800  0.0597 -0.1385  0.3992
  740MOL0     C99832   7.944   4.169   9.768  0.2350  0.0974  0.4440
  740MOL0     H99833   7.541   3.844  10.036 -0.8095  1.8168  0.0273
  740MOL0     H99834   7.335   3.723   9.990 -2.1660  3.7458 -0.9092
  740MOL0     H99835   7.271   3.471   9.873 -1.3154 -0.7548 -1.2529
  740MOL0     H99836   7.170   3.609   9.938  0.3702 -0.4715  0.2256
  740MOL0     H99837   7.044   3.398   9.870 -2.1001  0.7097  0.9068
  740MOL0     H99838   6.989   3.546   9.805 -0.7129 -1.1354 -0.8641
  740MOL0     H99839   7.109   3.482   9.584  1.2580 -1.5486 -2.1272
  740MOL0     H99840   7.186   3.347   9.678  0.7716 -0.5734 -1.4353
  740MOL0     H99841   6.977   3.234   9.714  1.2675  0.0438  0.3313
  740MOL0     H99842   6.899   3.369   9.616  1.8140  3.5877  0.1200
  740MOL0     H99843   7.115   3.159   9.543 -1.3255 -0.4242  2.8585
  740MOL0     H99844   6.947   3.153   9.502  0.2042  0.2408  2.5345
  740MOL0     H99845   7.003   3.383   9.378 -1.0595  0.3554  0.6869
  740MOL0     H99846   7.172   3.337   9.403 -0.3549  0.7928 -1.0833
  740MOL0     H99847   7.164   3.130   9.293 -2.9378 -3.6171  0.2784
  740MOL0     H99848   6.991   3.148   9.257 -0.5297  1.2525 -0.9910
  740MOL0     H99849   7.128   3.182   9.067 -2.6573  2.0530 -2.4583
  740MOL0     H99850   7.212   3.312   9.135  1.2735 -1.6586 -1.8517
  740MOL0     H99851   7.083   3.552   9.112 -0.9114  2.7582 -1.8194
  740MOL0     H99852   6.870   3.722   9.126 -3.4158  2.9174  0.9426
  740MOL0     H99853   6.857   3.698   8.944 -0.6798 -3.1598 -0.6066
  740MOL0     H99854   6.655   3.642   9.155  1.0950 -1.8016 -0.0554
  740MOL0     H99855   6.621   3.619   8.988 -2.7599  1.9623  0.8873
  740MOL0     H99856   6.689   3.860   8.930 -4.2559 -0.5082 -2.4915
  740MOL0     H99857   6.683   3.886   9.100 -3.4177 -0.8882  1.9963
  740MOL0     H99858   6.464   3.815   8.905 -2.3809  1.4552  0.0054
  740MOL0     H99859   6.479   3.955   9.003 -3.1627 -0.6218 -2.2763
  740MOL0     H99860   6.335   4.018   9.135 -2.2794 -0.7457  0.3091
  740MOL0     H99861   6.397   4.252   9.380  0.8449 -0.8962 -0.1020
  740MOL0     H99862   6.304   4.210   9.238  1.9939 -1.1999 -0.9821
  740MOL0     H99863   6.222   4.208   9.400  0.3444  0.3791 -0.7508
  740MOL0     H99864   6.610   3.902   9.919 -1.8125  0.4599 -2.8243
  740MOL0     H99865   6.575   3.982  10.170 -1.5233 -0.7591 -0.2703
  740MOL0     H99866   6.250   4.246  10.252 -0.4276 -0.4902 -1.1569
  740MOL0     H99867   6.169   4.088  10.302 -1.0832  1.5754  1.3396
  740MOL0     H99868   6.186   4.199  10.520 -0.2081  0.6345 -0.3444
  740MOL0     H99869   6.322   4.089  10.503 -1.4029 -2.2165 -0.9534
  740MOL0     H99870   6.316   4.382  10.435 -1.5933 -1.7394 -2.6477
  740MOL0     H99871   6.459   4.283  10.411  1.7179 -1.0661  2.4388
  740MOL0     H99872   6.311   4.311  10.682 -1.8202 -1.2933 -1.1216
  740MOL0     H99873   6.466   4.233  10.670 -3.4925 -3.5191  0.1405
  740MOL0     H99874   6.556   4.438  10.563  0.2476  1.3523 -0.0216
  740MOL0     H99875   6.534   4.433  10.737 -0.3287  0.8648 -0.2764
  740MOL0     H99876   6.358   4.584  10.547 -1.2453 -3.1733 -0.4638
  740MOL0     H99877   6.322   4.547  10.716 -0.1857  1.2451 -0.7232
  740MOL0     H99878   6.452   4.790  10.651 -0.6924  1.3340 -0.2740
  740MOL0     H99879   6.582   4.674  10.628 -0.3400  0.3287  0.6095
  740MOL0     H99880   6.541   4.604  10.860  0.5084  1.0393  2.6301
  740MOL0     H99881   6.416   4.732  10.881  0.1615  0.8996  1.2121
  740MOL0     H99882   6.204   4.140  10.057 -0.3296 -1.2605  0.0826
  740MOL0     H99883   6.218   4.055   9.839  2.7142 -0.9835 -2.5093
  740MOL0     H99884   6.495   3.797   9.543 -0.5093  0.8897  1.3215
  740MOL0     H99885   6.504   3.689   9.331  1.8352 -0.0858  0.2827
  740MOL0     H99886   7.412   3.692   9.580 -0.5575 -0.6870  0.7888
  740MOL0     H99887   7.657   3.808   9.628  1.5449 -0.3431  0.7657
  740MOL0     H99888   7.964   3.906   9.985 -0.1022 -0.0985 -0.9972
  740MOL0     H99889   8.159   4.032  10.057 -1.1332  0.1252  0.7159
  740MOL0     H99890   8.334   4.163  10.106 -1.9424 -0.2488 -0.3988
  740MOL0     H99891   8.392   4.107   9.954  0.4117 -0.3000  1.3646
  740MOL0     H99892   8.575   4.246  10.076  0.3997  0.3020 -0.2942
  740MOL0     H99893   8.472   4.380  10.059  1.5536 -0.6853  0.1008
  740MOL0     H99894   8.469   4.370   9.814 -0.7463  0.1805  1.1513
  740MOL0     H99895   8.564   4.218   9.810  2.8964  0.8455 -0.3181
  740MOL0     H99896   8.652   4.496   9.905 -2.6968 -0.8476  1.5068
  740MOL0     H99897   8.717   4.404   9.760  1.9469  1.2886  0.4756
  740MOL0     H99898   8.961   4.268  10.066 -0.4616  0.2697  0.8688
  740MOL0     H99899   8.119   4.312   9.752  0.4711 -1.0802 -0.8658
  740MOL0     H99900   7.885   4.209   9.686  1.5320 -0.2621 -0.6988
  741MOL0     O99901   5.894   9.541   3.398  0.6732  0.6857  0.1359
  741MOL0     C99902   5.817   9.587   3.480 -0.0614  0.7899  0.0009
  741MOL0     O99903   5.718   9.519   3.557  0.7997 -0.2618  0.5466
  741MOL0     C99904   5.693   9.384   3.515 -0.6520 -0.6773  0.1154
  741MOL0     C99905   5.642   9.351   3.387  0.8075  0.6986  0.1989
  741MOL0     C99906   5.602   9.220   3.346 -0.2747  0.6245  0.2397
  741MOL0     C99907   5.612   9.111   3.440  0.2845 -0.8319  0.6568
  741MOL0     O99908   5.583   8.986   3.406 -0.2918  0.4901 -0.2173
  741MOL0     C99909   5.621   8.877   3.497 -0.6369  0.0989  0.2774
  741MOL0     C99910   5.592   8.740   3.438  0.5198 -0.5546  0.8391
  741MOL0     C99911   5.456   8.738   3.363 -0.0633 -0.0536  0.1162
  741MOL0     C99912   5.458   8.786   3.220 -0.4522 -0.3526  0.3807
  741MOL0     C99913   5.315   8.770   3.165 -0.8077 -0.5631  0.2642
  741MOL0     C99914   5.302   8.624   3.113 -0.4357 -0.2166 -0.5272
  741MOL0     C99915   5.160   8.597   3.048 -0.4450  0.0871 -0.2980
  741MOL0     C99916   5.143   8.454   3.007 -0.7641  0.8277  0.5681
  741MOL0     N99917   5.170   8.369   3.119  0.1572 -0.4520 -0.0089
  741MOL0     C99918   5.095   8.363   3.241 -0.5331  0.9206 -0.8063
  741MOL0     C99919   5.166   8.280   3.327  0.7675  0.2126  0.1996
  741MOL0     C99920   5.130   8.240   3.465  0.0298 -0.1737  0.1667
  741MOL0     C99921   5.062   8.111   3.465  0.6538 -0.2908  0.0187
  741MOL0     C99922   5.035   8.062   3.609 -0.6971 -0.7996 -0.0472
  741MOL0     C99923   4.987   7.925   3.622  0.0980  0.2387  0.0435
  741MOL0     O99924   4.902   7.882   3.520  0.3001 -0.2139 -1.0362
  741MOL0     C99925   4.768   7.897   3.517 -0.2807  0.2405 -0.1835
  741MOL0     C99926   4.695   7.840   3.412 -1.0871 -0.4784 -0.1468
  741MOL0     C99927   4.564   7.825   3.406  0.3088 -0.2417  0.4943
  741MOL0     C99928   4.505   7.757   3.275  0.3304  0.1613  0.0509
  741MOL0     C99929   4.482   7.886   3.505 -0.3062 -0.1494  0.8712
  741MOL0     C99930   4.336   7.877   3.509  0.3756  0.2783 -1.0287
  741MOL0     O99931   4.281   7.869   3.634  1.0997 -0.2743  0.9144
  741MOL0     C99932   4.147   7.897   3.641 -0.1796 -0.4952 -0.1316
  741MOL0     C99933   4.072   7.819   3.719  0.5588 -0.4822 -0.2971
  741MOL0     C99934   3.924   7.822   3.717 -0.7488 -0.3146  0.0235
  741MOL0     C99935   3.864   7.929   3.653 -0.4534  0.7936 -0.1807
  741MOL0     O99936   3.729   7.927   3.658  0.5625 -0.6168  0.2732
  741MOL0     C99937   3.659   8.035   3.591 -0.3190  0.2700 -0.2357
  741MOL0     C99938   3.509   7.998   3.586 -0.2847 -0.3654 -0.4774
  741MOL0     C99939   3.457   7.855   3.559 -1.4440 -0.2683 -0.1583
  741MOL0     C99940   3.306   7.859   3.543  0.4399  1.5257 -0.4517
  741MOL0     C99941   3.255   7.715   3.525 -0.1237  0.1252 -0.5432
  741MOL0     C99942   3.122   7.717   3.459 -0.1007 -0.2426  0.1688
  741MOL0     C99943   3.072   7.571   3.437  0.5874 -0.3156  0.3790
  741MOL0     C99944   2.980   7.527   3.559  0.2237 -0.2438  1.3829
  741MOL0    Cl99945   2.832   7.617   3.563 -0.0287  0.0847 -0.4162
  741MOL0     C99946   3.943   8.022   3.585 -0.2332 -0.2776  0.4310
  741MOL0     C99947   4.085   8.007   3.578 -0.2952  0.1271  0.4043
  741MOL0     O99948   4.279   7.899   3.404 -0.1279  0.3201  0.0932
  741MOL0     C99949   4.545   7.941   3.619  0.6063 -0.5243 -0.3686
  741MOL0     C99950   4.689   7.943   3.629 -0.0279 -1.2741  0.9952
  741MOL0     N99951   5.282   8.244   3.261  0.3036  0.6644  0.1415
  741MOL0     N99952   5.280   8.294   3.136  0.0836  0.5216 -0.6243
  741MOL0     C99953   5.672   9.141   3.564 -0.3061 -0.1866 -0.1170
  741MOL0     C99954   5.710   9.271   3.598 -0.1737  0.8341  0.0213
  741MOL0     C99955   5.834   9.727   3.508  0.0431 -0.9880 -0.8744
  741MOL0     C99956   5.759   9.795   3.601  0.3937  0.1051 -0.0431
  741MOL0     C99957   5.783   9.934   3.624  0.3595  0.6987 -0.6529
  741MOL0     C99958   5.884  10.001   3.559  0.3835 -0.3365 -0.0751
  741MOL0     O99959   5.899  10.137   3.577 -0.1469 -0.2824  0.6782
  741MOL0     C99960   5.895  10.190   3.716  0.6764 -0.5453  0.0678
  741MOL0     C99961   5.746  10.221   3.756  0.0845  0.2868  0.8719
  741MOL0     C99962   5.749  10.337   3.843  0.1490  0.4134 -0.0946
  741MOL0     C99963   5.606  10.385   3.882  0.2155  0.9427 -0.7524
  741MOL0     C99964   5.611  10.475   4.000 -0.2718 -0.0169 -0.5116
  741MOL0     C99965   5.630  10.551   4.089 -0.2057 -0.5377 -0.2109
  741MOL0     C99966   5.971   9.931   3.474 -1.0568  0.4234  0.1946
  741MOL0     C99967   5.946   9.795   3.447 -0.0669 -0.0898  0.4003
  741MOL0     H99968   5.631   9.420   3.304  0.2320 -1.4231 -1.5686
  741MOL0     H99969   5.585   9.193   3.242 -0.0592 -2.5686  0.9242
  741MOL0     H99970   5.729   8.889   3.503 -0.6416  0.4138 -0.2229
  741MOL0     H99971   5.573   8.887   3.595 -1.3598 -2.9252  0.3480
  741MOL0     H99972   5.674   8.706   3.374  0.2218  1.9501 -1.0584
  741MOL0     H99973   5.578   8.666   3.517  0.9717 -1.2084  0.3227
  741MOL0     H99974   5.430   8.632   3.368  2.4887 -0.8836 -2.0418
  741MOL0     H99975   5.374   8.795   3.408  1.0001 -0.1612  2.3017
  741MOL0     H99976   5.483   8.891   3.202 -2.3427 -0.2750 -2.4022
  741MOL0     H99977   5.528   8.730   3.157  0.8558  0.3929  1.1239
  741MOL0     H99978   5.236   8.792   3.237  0.2070  1.6061  0.7895
  741MOL0     H99979   5.305   8.832   3.076 -1.7415 -2.8714 -1.3526
  741MOL0     H99980   5.383   8.600   3.044  1.1654 -2.4435  1.9328
  741MOL0     H99981   5.314   8.563   3.203 -0.3080  3.3051  2.0644
  741MOL0     H99982   5.079   8.620   3.117  0.3537  0.4564  0.5470
  741MOL0     H99983   5.147   8.650   2.954  0.2237 -3.8960 -2.9012
  741MOL0     H99984   5.208   8.411   2.929  0.1840  1.3307  1.0580
  741MOL0     H99985   5.042   8.453   2.967 -0.2592 -1.0611 -0.7837
  741MOL0     H99986   4.993   8.398   3.250 -1.0851 -1.0505  2.5391
  741MOL0     H99987   5.222   8.223   3.522  0.0911 -1.2264 -0.2098
  741MOL0     H99988   5.060   8.313   3.507 -1.0620  0.4703 -2.5672
  741MOL0     H99989   5.110   8.041   3.396  0.7074  1.4543 -1.8163
  741MOL0     H99990   4.960   8.130   3.430  1.1047 -0.4681 -1.4774
  741MOL0     H99991   4.968   8.138   3.651  1.1685  2.3636 -2.3154
  741MOL0     H99992   5.132   8.078   3.656 -0.2154 -1.3148 -0.8380
  741MOL0     H99993   4.953   7.889   3.719 -0.6885 -1.6056 -0.8641
  741MOL0     H99994   5.081   7.870   3.612  0.9487  0.7033  3.9777
  741MOL0     H99995   4.762   7.803   3.334  0.1498 -1.8520  1.4997
  741MOL0     H99996   4.444   7.830   3.221  1.4618  0.3996 -0.9370
  741MOL0     H99997   4.575   7.721   3.199 -0.1952 -0.2449 -0.2434
  741MOL0     H99998   4.449   7.673   3.319  2.2586 -0.0656  2.3022
  741MOL0     H99999   4.118   7.743   3.782  3.3240  1.4510  0.1964
  741MOL0     H    0   3.863   7.750   3.771  1.3221 -1.3817  1.0930
  741MOL0     H    1   3.688   8.120   3.654  2.0608  0.0357 -0.9252
  741MOL0     H    2   3.689   8.051   3.487 -2.1196 -0.3644 -0.8831
  741MOL0     H    3   3.458   8.032   3.677 -2.1940 -0.0010 -1.6324
  741MOL0     H    4   3.460   8.066   3.516 -1.5045  0.4876  1.1206
  741MOL0     H    5   3.491   7.781   3.632  0.0065  1.4846  1.0312
  741MOL0     H    6   3.499   7.819   3.465  0.9151  0.4196  0.5572
  741MOL0     H    7   3.273   7.912   3.633  3.3942  2.8476 -0.0237
  741MOL0     H    8   3.290   7.929   3.459 -0.2025  1.5235 -0.3330
  741MOL0     H    9   3.253   7.664   3.622  1.4939  0.0338 -0.5321
  741MOL0     H   10   3.321   7.649   3.468 -1.7388 -1.2699 -0.8661
  741MOL0     H   11   3.057   7.785   3.515 -0.5710  0.4620 -1.1871
  741MOL0     H   12   3.139   7.765   3.362  0.5823  1.6636  1.1793
  741MOL0     H   13   3.157   7.503   3.427 -0.9231 -2.3351  0.5527
  741MOL0     H   14   3.018   7.551   3.344 -0.1976  0.1721  0.7226
  741MOL0     H   15   3.037   7.547   3.650  2.3285  0.4513  0.0008
  741MOL0     H   16   2.965   7.419   3.557 -1.5438 -0.0322 -0.7106
  741MOL0     H   17   3.904   8.108   3.532  2.9629  0.8444 -0.3314
  741MOL0     H   18   4.137   8.091   3.536 -0.2232  0.3640  0.9563
  741MOL0     H   19   4.482   7.977   3.699  1.7097 -0.5241  0.5172
  741MOL0     H   20   4.731   7.960   3.728 -0.0827  0.4072  0.7584
  741MOL0     H   21   5.694   9.077   3.649  0.9592 -1.9954 -1.7118
  741MOL0     H   22   5.765   9.304   3.686 -1.2191  0.0924  0.9803
  741MOL0     H   23   5.676   9.744   3.649  1.2991 -1.4590 -0.0917
  741MOL0     H   24   5.728   9.981   3.705  2.7086  1.1862  0.7881
  741MOL0     H   25   5.950  10.132   3.791  0.4820  3.2730  3.5170
  741MOL0     H   26   5.953  10.282   3.707 -0.9158  0.4485 -0.5951
  741MOL0     H   27   5.698  10.135   3.803  3.5593 -2.2455  0.2423
  741MOL0     H   28   5.700  10.247   3.660  2.0769  1.3362  0.1376
  741MOL0     H   29   5.804  10.420   3.798  0.3508  1.4635  1.9804
  741MOL0     H   30   5.818  10.319   3.926  1.5862  0.8081 -1.1502
  741MOL0     H   31   5.542  10.299   3.904  1.4314  0.1690 -0.1223
  741MOL0     H   32   5.539  10.425   3.806 -2.3718  0.1588  0.9790
  741MOL0     H   33   5.658  10.594   4.183  0.3482 -1.6707  0.1637
  741MOL0     H   34   6.053   9.978   3.420  0.3213 -0.5669  1.3733
  741MOL0     H   35   6.002   9.745   3.369  2.9300  3.4048  0.0689
  742MOL0     O   36   2.257   7.632   2.852 -0.3150  0.3430 -0.6309
  742MOL0     C   37   2.366   7.618   2.894 -0.5688 -0.3063  0.5578
  742MOL0     O   38   2.463   7.530   2.847  0.3511  0.1021  0.8742
  742MOL0     C   39   2.448   7.457   2.731 -0.7682 -0.2013  0.8417
  742MOL0     C   40   2.504   7.517   2.619  0.7915 -0.4400  0.7342
  742MOL0     C   41   2.498   7.440   2.494 -0.9974  0.4153 -0.4395
  742MOL0     C   42   2.430   7.319   2.482 -0.2182 -0.0267 -0.5389
  742MOL0     O   43   2.435   7.255   2.368 -0.0925  0.0804 -0.9173
  742MOL0     C   44   2.375   7.127   2.351  0.1351  0.3101  0.2172
  742MOL0     C   45   2.401   7.075   2.203 -0.5740  0.0870 -0.3287
  742MOL0     C   46   2.309   7.151   2.108  0.0839  0.7952  0.1930
  742MOL0     C   47   2.297   7.080   1.971  0.9469 -0.9225  0.0279
  742MOL0     C   48   2.188   7.150   1.885  0.4785  0.1338  0.1487
  742MOL0     C   49   2.175   7.072   1.757  0.7625  0.8197  0.6817
  742MOL0     C   50   2.106   7.153   1.646  0.9029 -0.3445  0.1612
  742MOL0     C   51   1.959   7.179   1.652  0.6634 -0.2354 -0.1667
  742MOL0     N   52   1.880   7.061   1.651 -0.2322 -0.2756 -0.2935
  742MOL0     C   53   1.861   6.975   1.756 -0.0054  0.4996 -0.6497
  742MOL0     C   54   1.777   6.890   1.704  0.4186  0.6890 -0.2496
  742MOL0     C   55   1.718   6.775   1.777  0.3907 -0.0424  0.3674
  742MOL0     C   56   1.809   6.659   1.752 -0.3197 -0.6188 -0.2245
  742MOL0     C   57   1.761   6.531   1.811 -0.6400  2.0979  0.6232
  742MOL0     C   58   1.788   6.517   1.958 -0.0504 -0.8441 -0.1478
  742MOL0     O   59   1.935   6.537   1.974  0.4861 -0.1425  0.0188
  742MOL0     C   60   1.975   6.621   2.075  0.2156  0.3855  0.4891
  742MOL0     C   61   1.998   6.576   2.205  0.0487  0.4621 -0.7174
  742MOL0     C   62   2.022   6.661   2.313 -0.2994 -0.6685  0.0234
  742MOL0     C   63   2.023   6.596   2.452  0.4728  0.0114  0.4305
  742MOL0     C   64   2.029   6.802   2.288  0.1727 -0.4592  0.7597
  742MOL0     C   65   2.057   6.896   2.392  0.3892  0.5846  0.5836
  742MOL0     O   66   1.970   6.999   2.409 -0.1553 -0.3166 -0.0503
  742MOL0     C   67   1.974   7.066   2.534  0.6480  0.0288  0.1833
  742MOL0     C   68   1.979   7.002   2.663  0.3083  0.6241  0.8290
  742MOL0     C   69   1.968   7.065   2.790 -0.6843 -0.6529  0.5875
  742MOL0     C   70   1.935   7.198   2.794 -0.5675 -0.1418  0.4051
  742MOL0     O   71   1.924   7.272   2.904 -0.7427 -0.5899  0.1658
  742MOL0     C   72   2.044   7.276   2.985 -0.1719 -0.4576  0.2423
  742MOL0     C   73   2.021   7.391   3.083  0.4092  0.5802 -0.5028
  742MOL0     C   74   1.975   7.525   3.018 -0.6580  0.1576 -0.1942
  742MOL0     C   75   1.981   7.622   3.136 -0.1437 -0.5517 -0.5491
  742MOL0     C   76   1.962   7.771   3.093  1.1034 -0.2487  1.1826
  742MOL0     C   77   1.969   7.864   3.205  0.2754 -0.9773 -0.6571
  742MOL0     C   78   1.986   8.011   3.160 -0.4723  0.6992  0.0338
  742MOL0     C   79   2.026   8.093   3.273 -1.0691  0.2733 -0.0163
  742MOL0    Cl   80   2.077   8.257   3.228 -0.0278 -0.0423  0.2732
  742MOL0     C   81   1.925   7.269   2.674 -0.3114 -0.5206  0.5440
  742MOL0     C   82   1.939   7.202   2.550 -0.7301  0.7988  0.2051
  742MOL0     O   83   2.160   6.883   2.453 -0.0328  0.6752 -0.4568
  742MOL0     C   84   2.002   6.844   2.156 -0.5126 -0.5110  0.0851
  742MOL0     C   85   1.968   6.761   2.053 -0.4423 -0.5969  0.1171
  742MOL0     N   86   1.757   6.910   1.570 -0.0372 -0.6052  0.1724
  742MOL0     N   87   1.828   7.009   1.541  0.0370  0.4774 -0.0077
  742MOL0     C   88   2.382   7.261   2.605  0.1556 -0.1300  1.0697
  742MOL0     C   89   2.393   7.333   2.723  0.4464  0.0180  0.4815
  742MOL0     C   90   2.407   7.710   3.000  0.1793  0.1544 -0.4199
  742MOL0     C   91   2.348   7.836   3.017  0.2461 -0.7873  0.2324
  742MOL0     C   92   2.377   7.913   3.122 -0.2490 -0.5822 -0.5965
  742MOL0     C   93   2.484   7.868   3.208  0.4016 -0.2819 -0.9975
  742MOL0     O   94   2.510   7.950   3.312 -0.0869 -0.4577 -1.2495
  742MOL0     C   95   2.637   7.963   3.378 -0.4512  0.7629  0.0826
  742MOL0     C   96   2.668   8.109   3.414  0.1712  1.0917 -0.9273
  742MOL0     C   97   2.774   8.135   3.522  0.8294  0.2483  0.2939
  742MOL0     C   98   2.911   8.066   3.501  0.8589 -0.3067 -0.0032
  742MOL0     C   99   2.978   8.069   3.634  0.6394  0.2520  0.4978
  742MOL0     C  100   3.020   8.072   3.747  0.2840 -0.6283  0.5247
  742MOL0     C  101   2.561   7.748   3.192 -0.7815  0.4603  1.0083
  742MOL0     C  102   2.521   7.665   3.087 -0.4376 -0.7693 -0.3249
  742MOL0     H  103   2.550   7.615   2.624  0.4848 -0.3324  1.4929
  742MOL0     H  104   2.544   7.484   2.405  1.1498  2.4152  1.4987
  742MOL0     H  105   2.428   7.055   2.414 -1.6947 -0.4695  0.9629
  742MOL0     H  106   2.268   7.139   2.370  0.3682 -1.6443  3.6000
  742MOL0     H  107   2.508   7.075   2.181  0.1145  0.7496  2.6258
  742MOL0     H  108   2.385   6.967   2.201 -0.8027  0.0679  1.3098
  742MOL0     H  109   2.207   7.144   2.147 -0.0730 -2.7580 -0.5379
  742MOL0     H  110   2.352   7.252   2.113 -2.0491  1.7300  0.9296
  742MOL0     H  111   2.394   7.090   1.922  0.6056  0.2541 -0.4332
  742MOL0     H  112   2.279   6.972   1.982  0.0459 -1.1439 -2.8883
  742MOL0     H  113   2.097   7.144   1.946  1.9730  1.7381  2.6776
  742MOL0     H  114   2.219   7.253   1.864 -0.5522  0.5157  0.3974
  742MOL0     H  115   2.274   7.056   1.714  0.3631  1.1433 -0.3905
  742MOL0     H  116   2.132   6.976   1.787  2.6915 -0.5589 -0.6784
  742MOL0     H  117   2.154   7.249   1.624 -2.8540  1.3731 -1.3813
  742MOL0     H  118   2.121   7.082   1.564  0.1455  1.9270 -2.0822
  742MOL0     H  119   1.928   7.249   1.573  1.2290 -0.6460 -0.7549
  742MOL0     H  120   1.937   7.235   1.743  2.4851  2.1932 -1.0918
  742MOL0     H  121   1.891   6.981   1.860 -2.1685  1.6360 -0.0338
  742MOL0     H  122   1.729   6.800   1.882 -2.6913 -0.7515  0.9380
  742MOL0     H  123   1.616   6.759   1.741  0.9717  1.1185 -2.0303
  742MOL0     H  124   1.914   6.678   1.776 -0.9224  3.8359 -0.2189
  742MOL0     H  125   1.813   6.649   1.643  0.3594  3.1032 -0.6603
  742MOL0     H  126   1.811   6.446   1.763 -2.5761  0.9940  0.4784
  742MOL0     H  127   1.656   6.515   1.788 -0.0305 -1.9003 -0.1150
  742MOL0     H  128   1.753   6.415   1.980 -2.0010  0.3750  3.0501
  742MOL0     H  129   1.727   6.578   2.026  0.1950 -2.1486  1.3038
  742MOL0     H  130   1.980   6.471   2.228 -1.7523  0.8537 -0.1373
  742MOL0     H  131   2.101   6.630   2.520  0.6431 -1.1325  0.8357
  742MOL0     H  132   1.921   6.594   2.493 -0.4620 -2.4231 -1.7341
  742MOL0     H  133   2.045   6.492   2.426 -2.1921 -0.2625 -1.1352
  742MOL0     H  134   1.986   6.895   2.677 -0.3792  0.5655  0.7671
  742MOL0     H  135   1.978   7.014   2.885 -0.3200 -1.9676 -0.1458
  742MOL0     H  136   2.057   7.189   3.049  0.7498  0.3913  1.2386
  742MOL0     H  137   2.132   7.294   2.923 -0.0189  3.0013  1.2546
  742MOL0     H  138   1.938   7.359   3.147  1.5954 -0.8588  0.3481
  742MOL0     H  139   2.115   7.397   3.137 -0.1435 -1.5403  0.8107
  742MOL0     H  140   1.873   7.526   2.980 -1.5900  1.7561  2.1338
  742MOL0     H  141   2.043   7.548   2.935 -1.0757 -1.4786 -1.0427
  742MOL0     H  142   1.908   7.600   3.214 -1.2957  2.0316 -0.7912
  742MOL0     H  143   2.080   7.619   3.184  0.0985  2.6903 -0.5655
  742MOL0     H  144   1.863   7.768   3.046  1.2960 -1.0130  0.8025
  742MOL0     H  145   2.045   7.796   3.026  0.6931 -0.4419  0.5970
  742MOL0     H  146   1.875   7.855   3.260  0.6752  0.0517  0.2354
  742MOL0     H  147   2.056   7.846   3.268  0.3997  3.4090  0.7703
  742MOL0     H  148   1.893   8.049   3.118  0.6377  1.8983 -1.4653
  742MOL0     H  149   2.059   8.027   3.079  0.9245  0.9866  1.3125
  742MOL0     H  150   2.119   8.057   3.319  0.0534  2.4739 -0.4227
  742MOL0     H  151   1.950   8.104   3.351  1.1880 -0.1021  2.3642
  742MOL0     H  152   1.902   7.375   2.681 -0.5057 -0.6657  3.1688
  742MOL0     H  153   1.924   7.255   2.456 -2.1444  0.0718 -0.0075
  742MOL0     H  154   2.004   6.951   2.139 -0.8218 -0.2740  1.4081
  742MOL0     H  155   1.944   6.801   1.955 -0.9402  0.0849  0.5048
  742MOL0     H  156   2.343   7.160   2.609 -0.1154  0.0079  2.6088
  742MOL0     H  157   2.359   7.294   2.819 -0.4817  2.1246  1.0949
  742MOL0     H  158   2.269   7.869   2.950 -0.1335 -2.2849 -0.1032
  742MOL0     H  159   2.327   8.005   3.149 -1.9271 -1.5143 -0.4183
  742MOL0     H  160   2.649   7.894   3.463 -0.0422 -2.4440 -2.3694
  742MOL0     H  161   2.702   7.927   3.298 -1.0294 -2.4391  0.9014
  742MOL0     H  162   2.575   8.156   3.449  0.2881  0.2821  0.5687
  742MOL0     H  163   2.699   8.157   3.321  0.3977  3.0993  0.1332
  742MOL0     H  164   2.722   8.103   3.612  0.0396  0.2842 -0.1398
  742MOL0     H  165   2.792   8.242   3.531  2.0533  0.0672  0.2578
  742MOL0     H  166   2.974   8.134   3.442 -0.5352 -1.5680 -3.1724
  742MOL0     H  167   2.906   7.960   3.475  1.7494 -0.1857 -0.7280
  742MOL0     H  168   3.039   8.062   3.852 -0.6874 -3.2953  0.5522
  742MOL0     H  169   2.640   7.717   3.260 -0.0882 -3.4471 -1.3351
  742MOL0     H  170   2.572   7.570   3.071 -1.2477 -1.4761  1.1240
  743MOL0     O  171   0.391   0.277   3.101 -0.1832 -0.9986  0.0463
  743MOL0     C  172   0.385   0.156   3.117 -0.2599  0.2436  0.7692
  743MOL0     O  173   0.263   0.092   3.143  0.7878  0.1949 -0.2020
  743MOL0     C  174   0.149   0.168   3.161  0.0631  0.4195 -0.1713
  743MOL0     C  175   0.020   0.125   3.109  0.6373 -0.6540 -0.3120
  743MOL0     C  176  -0.096   0.207   3.135  0.8688  0.0878 -0.0176
  743MOL0     C  177  -0.091   0.322   3.213 -0.4563 -0.1000  0.1196
  743MOL0     O  178  -0.204   0.391   3.227  0.0152  0.1598 -0.5759
  743MOL0     C  179  -0.196   0.533   3.262 -0.4985  0.2978  0.6670
  743MOL0     C  180  -0.326   0.603   3.227 -0.2427  0.3058  1.0172
  743MOL0     C  181  -0.467   0.581   3.298  0.4361 -0.1151 -0.1239
  743MOL0     C  182  -0.473   0.644   3.431  0.4474 -0.1492  0.4657
  743MOL0     C  183  -0.603   0.592   3.494 -0.3015 -0.4068 -0.0190
  743MOL0     C  184  -0.590   0.464   3.575  0.3182  1.1581  0.5094
  743MOL0     C  185  -0.500   0.485   3.692 -0.7293  0.8736  0.1968
  743MOL0     C  186  -0.513   0.371   3.789  0.2198  0.4457  0.1376
  743MOL0     N  187  -0.390   0.352   3.876  0.1780  0.5112  0.2977
  743MOL0     C  188  -0.324   0.234   3.883 -1.0186  0.3593  0.4097
  743MOL0     C  189  -0.254   0.239   4.007  0.5509 -1.0952  0.4524
  743MOL0     C  190  -0.163   0.137   4.068  0.7628 -0.7374 -0.3080
  743MOL0     C  191  -0.033   0.140   3.992  0.1886  0.6379  1.5811
  743MOL0     C  192  -0.034   0.142   3.841  0.7641  0.0339  0.0472
  743MOL0     C  193   0.109   0.167   3.786  0.6174  0.5026  0.4474
  743MOL0     O  194   0.185   0.053   3.820 -0.4609  0.6485  0.2527
  743MOL0     C  195   0.294   0.022   3.738  0.8093  0.2587 -0.2010
  743MOL0     C  196   0.325   0.078   3.616  0.2996  0.0902 -0.0316
  743MOL0     C  197   0.442   0.032   3.549 -0.3233  0.4869 -0.4482
  743MOL0     C  198   0.474   0.123   3.432  0.1687  0.6232 -0.0070
  743MOL0     C  199   0.525  -0.072   3.603 -0.3879 -0.1599  0.3351
  743MOL0     C  200   0.648  -0.124   3.531  0.6092 -0.1397  0.1630
  743MOL0     O  201   0.689  -0.256   3.560 -0.0546 -0.1942 -0.2175
  743MOL0     C  202   0.804  -0.325   3.520 -1.1256 -1.0748 -0.1437
  743MOL0     C  203   0.831  -0.443   3.592 -0.0057 -0.2965 -0.2708
  743MOL0     C  204   0.947  -0.515   3.567  0.0907 -0.3170  0.0065
  743MOL0     C  205   1.039  -0.466   3.481 -0.1040 -0.1334 -0.0259
  743MOL0     O  206   1.156  -0.541   3.461 -0.5249 -0.3256 -0.0709
  743MOL0     C  207   1.253  -0.524   3.359  0.0249  0.7012  1.0566
  743MOL0     C  208   1.351  -0.640   3.360  1.1905 -0.4714  0.4141
  743MOL0     C  209   1.434  -0.645   3.492 -0.6330  0.6071 -0.5133
  743MOL0     C  210   1.525  -0.772   3.500  0.6730 -0.1288  0.0896
  743MOL0     C  211   1.577  -0.796   3.648  0.4037 -0.7820  0.1299
  743MOL0     C  212   1.659  -0.929   3.637  0.2214 -0.5126  0.1594
  743MOL0     C  213   1.776  -0.934   3.743 -0.9276  0.7819 -0.1032
  743MOL0     C  214   1.833  -1.072   3.755  0.5155  1.1162  0.2952
  743MOL0    Cl  215   1.892  -1.135   3.603  0.1639  0.3679  0.3640
  743MOL0     C  216   1.011  -0.349   3.402 -0.3829  0.8403  0.1376
  743MOL0     C  217   0.893  -0.279   3.426 -0.6361 -0.1938  0.2987
  743MOL0     O  218   0.712  -0.044   3.471 -0.1484  0.2595  0.0606
  743MOL0     C  219   0.474  -0.139   3.716 -0.7602 -0.3268  0.1344
  743MOL0     C  220   0.360  -0.098   3.779  0.0773 -0.2240  0.3004
  743MOL0     N  221  -0.276   0.362   4.065  0.3103 -0.0067 -0.4053
  743MOL0     N  222  -0.367   0.419   3.996  0.2607  0.0387  0.2603
  743MOL0     C  223   0.037   0.355   3.272 -0.0134 -0.6580 -0.0066
  743MOL0     C  224   0.148   0.282   3.246 -1.0052 -0.3533 -0.5365
  743MOL0     C  225   0.498   0.067   3.096 -1.0360 -0.2881 -0.3957
  743MOL0     C  226   0.503  -0.065   3.138 -0.3724 -0.9261 -0.2715
  743MOL0     C  227   0.621  -0.145   3.118  0.2393 -0.2449  1.2597
  743MOL0     C  228   0.731  -0.083   3.058 -0.0339 -0.0257  0.3102
  743MOL0     O  229   0.836  -0.154   3.012  0.1702 -1.0694  0.9496
  743MOL0     C  230   0.827  -0.295   3.011  0.1430 -0.3496  1.3890
  743MOL0     C  231   0.790  -0.325   2.867 -0.3491 -0.7834 -0.1844
  743MOL0     C  232   0.878  -0.246   2.769 -0.0462 -0.4580  0.4812
  743MOL0     C  233   0.871  -0.304   2.627  0.6373 -0.9291  1.0936
  743MOL0     C  234   0.745  -0.286   2.544 -1.0558 -0.3776 -0.4098
  743MOL0     C  235   0.655  -0.256   2.470 -0.2438 -0.2051  0.1394
  743MOL0     C  236   0.732   0.049   3.036 -0.3584 -0.8011  0.3218
  743MOL0     C  237   0.612   0.120   3.049  0.4434 -0.6944  0.8986
  743MOL0     H  238   0.023   0.029   3.058  0.8395 -1.0924  0.4947
  743MOL0     H  239  -0.194   0.174   3.102  1.5262 -1.4911 -0.5179
  743MOL0     H  240  -0.160   0.550   3.364  1.9196 -0.0635 -0.0716
  743MOL0     H  241  -0.115   0.574   3.201 -0.7626  1.3186  0.9759
  743MOL0     H  242  -0.311   0.711   3.231  0.5251  0.2457  0.0757
  743MOL0     H  243  -0.343   0.578   3.122  0.3099  1.3117  0.6756
  743MOL0     H  244  -0.554   0.613   3.240  0.7782  0.0444 -0.5547
  743MOL0     H  245  -0.474   0.472   3.306 -0.7962  0.0882  2.5676
  743MOL0     H  246  -0.385   0.617   3.491  0.9366  0.6220  0.1066
  743MOL0     H  247  -0.469   0.753   3.425  3.8139 -0.1921  0.3158
  743MOL0     H  248  -0.621   0.671   3.567  0.8115  1.1890 -1.3844
  743MOL0     H  249  -0.684   0.592   3.420 -0.4413 -1.7098  0.1057
  743MOL0     H  250  -0.696   0.455   3.597  0.3700  2.3170  1.3680
  743MOL0     H  251  -0.575   0.378   3.509  1.0535  0.9281  0.9696
  743MOL0     H  252  -0.396   0.494   3.660 -0.4711 -3.5794 -0.8851
  743MOL0     H  253  -0.534   0.570   3.752 -1.5135  1.0444 -0.4757
  743MOL0     H  254  -0.530   0.269   3.752  0.4482  0.5099 -0.1478
  743MOL0     H  255  -0.603   0.392   3.847  0.2863 -1.7512  1.1348
  743MOL0     H  256  -0.325   0.152   3.813  1.2813  0.0601  0.6626
  743MOL0     H  257  -0.148   0.145   4.176 -2.4126  1.3962  0.1001
  743MOL0     H  258  -0.215   0.042   4.055 -2.5408  1.0616 -1.3178
  743MOL0     H  259   0.014   0.043   4.011 -0.2198 -0.3518 -1.7699
  743MOL0     H  260   0.038   0.219   4.020  0.5019  0.4523  1.3163
  743MOL0     H  261  -0.098   0.217   3.792  0.5874 -0.5502 -0.6356
  743MOL0     H  262  -0.075   0.047   3.807  1.5369 -0.4757  0.5212
  743MOL0     H  263   0.153   0.256   3.831 -2.4815  0.5679  3.7577
  743MOL0     H  264   0.094   0.177   3.678 -0.9720  0.3483  0.6178
  743MOL0     H  265   0.270   0.155   3.562 -0.8956 -1.2457 -0.7946
  743MOL0     H  266   0.524   0.060   3.358  1.5889  0.6377  0.9004
  743MOL0     H  267   0.388   0.177   3.392 -0.9690  0.4202  1.9815
  743MOL0     H  268   0.551   0.196   3.458  3.2925 -1.9729 -1.1629
  743MOL0     H  269   0.761  -0.484   3.664  0.0557 -0.6645 -0.4167
  743MOL0     H  270   0.961  -0.610   3.617 -2.9184  0.1819  1.9983
  743MOL0     H  271   1.202  -0.530   3.262  0.6912 -1.0248  0.7660
  743MOL0     H  272   1.296  -0.424   3.351 -2.3458  1.7310  0.2172
  743MOL0     H  273   1.303  -0.738   3.361  1.4528 -0.6284  3.1561
  743MOL0     H  274   1.415  -0.633   3.271  0.0135  0.3986 -0.4067
  743MOL0     H  275   1.363  -0.643   3.574 -1.0485 -0.3611 -0.8295
  743MOL0     H  276   1.497  -0.555   3.493 -0.4830  0.5997  3.0784
  743MOL0     H  277   1.473  -0.862   3.463  2.0876  0.0788 -2.6869
  743MOL0     H  278   1.610  -0.777   3.432 -0.2973 -2.8800 -1.0878
  743MOL0     H  279   1.497  -0.827   3.716 -1.3979  1.3552 -0.8644
  743MOL0     H  280   1.646  -0.719   3.684  0.1607 -0.5192  0.0466
  743MOL0     H  281   1.585  -1.008   3.654 -0.6726 -0.0425 -1.3642
  743MOL0     H  282   1.703  -0.946   3.538 -2.1700 -0.1937 -1.0049
  743MOL0     H  283   1.737  -0.917   3.844 -1.1714 -0.7284  0.0695
  743MOL0     H  284   1.857  -0.863   3.721  0.7471 -0.9609  0.1593
  743MOL0     H  285   1.752  -1.135   3.794  1.2476 -0.0890 -0.0589
  743MOL0     H  286   1.914  -1.077   3.827  1.9025  1.0239 -1.2089
  743MOL0     H  287   1.078  -0.312   3.325  1.9288  1.0313  2.1348
  743MOL0     H  288   0.867  -0.188   3.372  0.1070 -0.5901 -0.7727
  743MOL0     H  289   0.522  -0.231   3.748  1.9165  0.5872 -0.9813
  743MOL0     H  290   0.330  -0.150   3.869  2.4683  0.1849  1.4245
  743MOL0     H  291   0.044   0.435   3.346 -1.4266 -0.8116  0.3417
  743MOL0     H  292   0.244   0.321   3.278 -1.4435  1.9369 -1.7503
  743MOL0     H  293   0.412  -0.101   3.184 -2.2893  2.6570 -0.9421
  743MOL0     H  294   0.609  -0.246   3.155  0.0910 -0.4879  0.5613
  743MOL0     H  295   0.933  -0.319   3.021 -0.1602 -0.9794  3.6234
  743MOL0     H  296   0.767  -0.346   3.087 -2.8353  3.3193  1.8077
  743MOL0     H  297   0.688  -0.287   2.855  0.3247  1.0948 -0.2527
  743MOL0     H  298   0.802  -0.432   2.851  1.4061 -0.7988  0.9469
  743MOL0     H  299   0.982  -0.233   2.799 -0.5332 -2.0952  3.2772
  743MOL0     H  300   0.848  -0.141   2.757  2.5487  0.2330 -0.5511
  743MOL0     H  301   0.879  -0.413   2.633  0.0832 -1.1389 -1.1262
  743MOL0     H  302   0.950  -0.253   2.572  0.3923 -1.1588  0.5217
  743MOL0     H  303   0.574  -0.234   2.404 -0.4114  0.3412  0.5260
  743MOL0     H  304   0.826   0.090   3.002 -1.4453  1.7735  0.2485
  743MOL0     H  305   0.601   0.219   3.005 -1.3155 -1.6954 -1.1204
  744MOL0     O  306   6.716   8.774   9.085  0.3432 -0.2599  0.5945
  744MOL0     C  307   6.643   8.870   9.091 -0.1189  0.2025  0.3968
  744MOL0     O  308   6.671   9.006   9.120 -0.6350  0.3705 -0.2608
  744MOL0     C  309   6.798   9.054   9.142 -0.1320 -0.6221  0.2039
  744MOL0     C  310   6.800   9.192   9.124 -0.0487 -0.0629 -0.3872
  744MOL0     C  311   6.925   9.252   9.158 -0.2355  0.1813  0.0203
  744MOL0     C  312   7.037   9.170   9.196 -0.4079  0.1966 -0.0252
  744MOL0     O  313   7.163   9.209   9.219  0.9954  0.0404 -0.5122
  744MOL0     C  314   7.188   9.346   9.220 -0.1264 -1.0038 -0.0187
  744MOL0     C  315   7.330   9.372   9.264 -0.0721  0.3331  1.3000
  744MOL0     C  316   7.354   9.340   9.409 -0.3016  0.5055 -0.3941
  744MOL0     C  317   7.496   9.387   9.454  0.2916  0.2419  0.0998
  744MOL0     C  318   7.548   9.321   9.587  0.3624 -0.9175 -0.6160
  744MOL0     C  319   7.497   9.381   9.717 -0.3930  0.2463 -0.6598
  744MOL0     C  320   7.567   9.321   9.843 -0.0318 -0.4030  0.0302
  744MOL0     C  321   7.537   9.169   9.895  0.5110 -0.6458 -0.9310
  744MOL0     N  322   7.397   9.129   9.928  0.1056  0.7162 -0.6435
  744MOL0     C  323   7.330   9.058   9.834 -0.1797 -0.0809  0.4696
  744MOL0     C  324   7.212   9.042   9.891  0.0676 -0.4067 -0.4067
  744MOL0     C  325   7.093   8.958   9.844 -0.1596 -0.6833 -0.5369
  744MOL0     C  326   7.011   9.043   9.744  0.4346 -0.8055 -0.2110
  744MOL0     C  327   7.080   9.126   9.632 -0.2639 -0.0840 -0.0659
  744MOL0     C  328   6.992   9.199   9.543 -0.4313  0.8089  0.0235
  744MOL0     O  329   6.925   9.302   9.615  0.6432 -1.6365 -0.9323
  744MOL0     C  330   6.813   9.336   9.550 -0.0658 -0.1255 -0.0975
  744MOL0     C  331   6.799   9.444   9.473  0.2688  0.0622  1.4111
  744MOL0     C  332   6.679   9.468   9.389  0.6710  0.6254  0.4596
  744MOL0     C  333   6.682   9.599   9.304  0.4903 -0.3158  0.2834
  744MOL0     C  334   6.570   9.368   9.384  0.0756  0.0077  0.2820
  744MOL0     C  335   6.453   9.379   9.297  0.8227 -0.3112 -0.0590
  744MOL0     O  336   6.383   9.260   9.274  0.2548 -0.8136 -0.3057
  744MOL0     C  337   6.253   9.262   9.224  0.5334 -0.6997 -0.1036
  744MOL0     C  338   6.154   9.296   9.316 -0.0462 -0.1765  0.4807
  744MOL0     C  339   6.021   9.310   9.286  0.3517  0.2503  0.0435
  744MOL0     C  340   5.979   9.291   9.154 -0.4893  0.5466 -0.2600
  744MOL0     O  341   5.852   9.301   9.104 -0.4537 -0.2979 -0.4639
  744MOL0     C  342   5.766   9.398   9.152 -0.5926  0.1763 -0.0442
  744MOL0     C  343   5.643   9.337   9.232  0.4593  0.2114 -0.5305
  744MOL0     C  344   5.544   9.254   9.137 -0.6628  0.7225  0.6034
  744MOL0     C  345   5.593   9.115   9.093 -0.2391  0.1764 -0.7570
  744MOL0     C  346   5.496   9.044   8.997 -0.2685 -1.1661 -0.2473
  744MOL0     C  347   5.352   9.016   9.037 -0.2074 -1.0806 -0.2233
  744MOL0     C  348   5.278   8.958   8.922  0.9110  0.6927 -0.1991
  744MOL0     C  349   5.135   8.944   8.957 -0.1862 -0.3409 -0.1650
  744MOL0    Cl  350   5.053   8.881   8.821 -0.5248  0.2364 -0.1728
  744MOL0     C  351   6.076   9.245   9.059  0.2390 -0.8662  0.8821
  744MOL0     C  352   6.214   9.229   9.094  0.3032  0.0708 -0.9422
  744MOL0     O  353   6.404   9.490   9.278  0.5270 -0.1524 -0.3677
  744MOL0     C  354   6.579   9.274   9.489  0.3110  0.6286  0.1547
  744MOL0     C  355   6.701   9.250   9.563 -0.1676  0.3303  0.1156
  744MOL0     N  356   7.222   9.106  10.022 -0.0042 -0.0010  0.5276
  744MOL0     N  357   7.331   9.156  10.045  0.6326  0.4862  0.4836
  744MOL0     C  358   7.025   9.030   9.215  0.3024  0.2838 -0.1585
  744MOL0     C  359   6.898   8.975   9.202  0.3699 -0.1730  0.9594
  744MOL0     C  360   6.497   8.831   9.079 -0.3060  0.1044 -0.6595
  744MOL0     C  361   6.397   8.916   9.126  0.2138  0.3845 -0.6442
  744MOL0     C  362   6.261   8.883   9.130  0.0108 -0.7992  0.8407
  744MOL0     C  363   6.213   8.765   9.069  0.1628  0.3004  0.8245
  744MOL0     O  364   6.089   8.719   9.067  0.1438  0.3451 -0.0508
  744MOL0     C  365   6.017   8.750   8.939 -0.5480 -0.0204 -0.2255
  744MOL0     C  366   5.906   8.853   8.977  1.1324 -0.0922 -0.0661
  744MOL0     C  367   5.808   8.792   9.083  0.9503  0.4826  0.3407
  744MOL0     C  368   5.727   8.667   9.037 -0.5509  0.6178 -0.0249
  744MOL0     C  369   5.648   8.706   8.922  0.3263  0.5675  0.2273
  744MOL0     C  370   5.570   8.728   8.832  0.3110 -0.6218 -0.3620
  744MOL0     C  371   6.312   8.685   9.009 -0.0797 -0.4218 -0.4061
  744MOL0     C  372   6.447   8.715   9.015 -0.0657  0.3326  0.0472
  744MOL0     H  373   6.711   9.243   9.088 -0.1523 -1.4026 -2.2118
  744MOL0     H  374   6.945   9.357   9.139  1.4339 -0.3710 -1.5401
  744MOL0     H  375   7.194   9.390   9.120 -0.1921 -1.9769 -0.4575
  744MOL0     H  376   7.117   9.402   9.283 -0.2548 -2.9261  1.6643
  744MOL0     H  377   7.393   9.306   9.204 -1.4162  0.7316 -0.6707
  744MOL0     H  378   7.368   9.471   9.237  2.6421 -0.0313  3.3616
  744MOL0     H  379   7.290   9.404   9.470  0.9340  1.1742  0.2392
  744MOL0     H  380   7.337   9.234   9.430 -0.9278  0.1797 -2.3727
  744MOL0     H  381   7.563   9.346   9.378  1.8038  4.0716 -0.9107
  744MOL0     H  382   7.517   9.495   9.455 -0.0287  0.3145  2.0068
  744MOL0     H  383   7.540   9.212   9.588 -0.2700 -0.8887  1.2902
  744MOL0     H  384   7.656   9.337   9.584  0.6453 -2.5545 -0.2017
  744MOL0     H  385   7.509   9.490   9.715  3.7374  0.0580  1.8778
  744MOL0     H  386   7.390   9.360   9.709 -0.2668 -1.2286  1.1501
  744MOL0     H  387   7.673   9.322   9.818  0.6543  1.3642  2.6091
  744MOL0     H  388   7.556   9.395   9.923  1.4427 -0.5299  0.3718
  744MOL0     H  389   7.603   9.149   9.980  0.1681 -0.4017 -0.6071
  744MOL0     H  390   7.572   9.106   9.812  1.7920 -1.6374  0.3098
  744MOL0     H  391   7.363   9.014   9.740  0.2479  2.4414 -0.6325
  744MOL0     H  392   7.137   8.865   9.807  0.2388 -2.0462  2.9744
  744MOL0     H  393   7.018   8.929   9.918 -0.3886 -1.1249 -0.9332
  744MOL0     H  394   6.959   9.114   9.809  1.7086  0.9008 -0.9844
  744MOL0     H  395   6.923   8.988   9.708 -2.3725  2.4019  1.1561
  744MOL0     H  396   7.159   9.075   9.576  0.6258  1.0970  0.0887
  744MOL0     H  397   7.146   9.196   9.683  2.7685 -1.9593 -1.1454
  744MOL0     H  398   6.916   9.127   9.512  0.9043 -1.6397  2.0824
  744MOL0     H  399   7.054   9.248   9.468  0.6639  4.3149  2.9381
  744MOL0     H  400   6.883   9.513   9.468  2.8252 -2.7972 -4.3139
  744MOL0     H  401   6.589   9.625   9.252 -0.2808 -2.6378  0.3949
  744MOL0     H  402   6.703   9.679   9.375  0.0427  1.7864 -1.8279
  744MOL0     H  403   6.770   9.600   9.239  2.2126  1.8621  2.4461
  744MOL0     H  404   6.177   9.325   9.418 -0.5838 -1.8287  1.1080
  744MOL0     H  405   5.954   9.354   9.360 -1.2612 -1.5941 -0.2203
  744MOL0     H  406   5.825   9.473   9.206  1.4554 -0.7229 -0.9367
  744MOL0     H  407   5.728   9.448   9.063 -0.6040 -1.8433 -1.2199
  744MOL0     H  408   5.678   9.271   9.311 -1.7192 -0.9682 -0.4926
  744MOL0     H  409   5.587   9.422   9.273  2.0282  1.2055 -0.3619
  744MOL0     H  410   5.523   9.319   9.051  1.4185  0.6808  0.0167
  744MOL0     H  411   5.451   9.236   9.193 -0.8626  1.0686  0.3893
  744MOL0     H  412   5.689   9.126   9.042 -0.7634  2.2655 -1.3949
  744MOL0     H  413   5.593   9.054   9.184 -1.5042  2.2516  0.7069
  744MOL0     H  414   5.536   8.946   8.967  2.0037 -0.1413 -0.7349
  744MOL0     H  415   5.483   9.103   8.906 -0.6578 -0.9616 -0.0661
  744MOL0     H  416   5.346   8.949   9.124  1.2851 -2.4232 -1.1023
  744MOL0     H  417   5.305   9.111   9.063  3.2460  0.4807  0.9880
  744MOL0     H  418   5.320   8.867   8.879  0.2983  0.0086  0.6163
  744MOL0     H  419   5.284   9.034   8.844  0.1427  0.1816 -0.7703
  744MOL0     H  420   5.096   9.042   8.984 -0.1917 -0.4304  0.1512
  744MOL0     H  421   5.124   8.880   9.045  2.1337 -1.8140 -0.8333
  744MOL0     H  422   6.045   9.222   8.958 -1.3065  1.6300  0.7127
  744MOL0     H  423   6.289   9.192   9.025 -1.6241 -3.5149 -1.3593
  744MOL0     H  424   6.487   9.222   9.512 -0.0315  1.9769  2.0185
  744MOL0     H  425   6.709   9.181   9.645 -1.5454  1.8662  1.6327
  744MOL0     H  426   7.114   8.969   9.231  0.6862  0.5862 -1.0939
  744MOL0     H  427   6.892   8.867   9.215 -1.6864 -0.0423  1.5311
  744MOL0     H  428   6.426   9.010   9.173 -0.8129  0.1792  0.4585
  744MOL0     H  429   6.192   8.954   9.174 -2.5107 -0.4984 -3.0713
  744MOL0     H  430   6.089   8.796   8.871  2.9676 -0.2498  3.0063
  744MOL0     H  431   5.976   8.654   8.904  0.6399  0.2483 -2.5784
  744MOL0     H  432   5.847   8.882   8.889  0.1556  1.0266  0.9144
  744MOL0     H  433   5.949   8.945   9.017 -0.7824  1.7649 -1.9791
  744MOL0     H  434   5.738   8.868   9.120 -0.2169 -0.4995  0.2054
  744MOL0     H  435   5.872   8.766   9.167  0.8699 -0.7620  0.0372
  744MOL0     H  436   5.655   8.633   9.112 -0.6570  0.7407 -0.0715
  744MOL0     H  437   5.787   8.581   9.003 -3.2688 -1.9184  1.1804
  744MOL0     H  438   5.512   8.748   8.744  0.6198 -0.2889 -0.4893
  744MOL0     H  439   6.279   8.602   8.948 -0.2500 -0.0655 -0.8021
  744MOL0     H  440   6.508   8.634   8.975 -0.3962  0.1340 -0.0635
  745MOL0     O  441   3.676   6.132   8.287 -0.1544 -0.3541  0.7521
  745MOL0     C  442   3.611   6.134   8.392 -0.4273 -0.0228  0.8915
  745MOL0     O  443   3.474   6.154   8.397 -0.4496  0.2935  0.1175
  745MOL0     C  444   3.396   6.211   8.297  0.0301  0.9138  0.2151
  745MOL0     C  445   3.407   6.199   8.151 -0.2251 -0.2264 -1.2911
  745MOL0     C  446   3.307   6.250   8.072  0.1934  0.1108 -0.1950
  745MOL0     C  447   3.193   6.319   8.133  0.1460 -0.3427 -0.6520
  745MOL0     O  448   3.094   6.377   8.061 -0.8672  0.1074 -0.6338
  745MOL0     C  449   3.123   6.396   7.923  0.5792  0.7410 -0.0356
  745MOL0     C  450   3.029   6.500   7.867 -0.3319  0.5274  0.4303
  745MOL0     C  451   3.033   6.631   7.934 -0.2708  0.4021 -0.2504
  745MOL0     C  452   2.956   6.736   7.861 -0.7828 -0.0335  0.6718
  745MOL0     C  453   2.812   6.701   7.836  0.2991 -0.6821  0.1125
  745MOL0     C  454   2.709   6.817   7.807  0.0565  0.0514 -0.4270
  745MOL0     C  455   2.759   6.899   7.688  0.3551  0.3829  0.9607
  745MOL0     C  456   2.761   6.833   7.549  0.7242 -0.0280 -0.6526
  745MOL0     N  457   2.627   6.801   7.501 -0.2569 -0.3946 -0.2551
  745MOL0     C  458   2.537   6.896   7.467 -0.3793 -0.8020  0.6665
  745MOL0     C  459   2.413   6.841   7.483  0.7082 -0.3954 -0.1596
  745MOL0     C  460   2.282   6.921   7.460  0.3857  0.0651 -0.1223
  745MOL0     C  461   2.166   6.832   7.495 -0.0239 -0.0866 -0.0119
  745MOL0     C  462   2.030   6.876   7.453  0.1535 -0.6296 -1.4575
  745MOL0     C  463   1.989   6.998   7.531 -0.5612  0.7248  0.1800
  745MOL0     O  464   1.878   7.070   7.475 -0.2590  0.6224  0.1454
  745MOL0     C  465   1.821   7.178   7.538  0.3604  0.3244  0.0744
  745MOL0     C  466   1.844   7.213   7.674 -0.6759 -0.8444 -0.3707
  745MOL0     C  467   1.780   7.321   7.745  0.1922 -1.1580  0.0401
  745MOL0     C  468   1.800   7.328   7.888  0.7170 -0.5340  1.1193
  745MOL0     C  469   1.701   7.405   7.670 -0.6457 -0.2819 -0.3339
  745MOL0     C  470   1.637   7.527   7.719  0.1534 -0.4044 -0.4063
  745MOL0     O  471   1.528   7.583   7.643 -0.5226 -0.2304  0.4058
  745MOL0     C  472   1.461   7.700   7.680 -0.5000  0.2660 -0.6166
  745MOL0     C  473   1.410   7.778   7.579 -0.7207  0.1481 -0.0190
  745MOL0     C  474   1.333   7.898   7.609  0.6651 -0.5421 -0.4709
  745MOL0     C  475   1.308   7.928   7.748 -0.1601 -0.2852 -0.1509
  745MOL0     O  476   1.233   8.043   7.791  0.1298 -0.0362 -0.1201
  745MOL0     C  477   1.157   8.118   7.703 -0.5616 -0.4399 -0.0546
  745MOL0     C  478   1.024   8.054   7.665 -0.0752 -0.0895 -0.3618
  745MOL0     C  479   0.941   8.163   7.598 -0.3999  0.1900  0.6737
  745MOL0     C  480   0.804   8.111   7.557 -0.5638 -0.8845 -0.9241
  745MOL0     C  481   0.708   8.213   7.487 -0.2356 -0.0635 -0.4041
  745MOL0     C  482   0.677   8.342   7.559 -0.4546 -0.1017  0.2876
  745MOL0     C  483   0.587   8.315   7.680  0.3062 -0.3867 -0.0538
  745MOL0     C  484   0.523   8.443   7.745  0.1301  0.9844  0.0302
  745MOL0    Cl  485   0.392   8.393   7.856  0.3337 -0.0504 -0.0951
  745MOL0     C  486   1.368   7.844   7.851  0.9340 -0.5565 -0.2078
  745MOL0     C  487   1.434   7.726   7.815 -0.3180 -0.1200  0.0399
  745MOL0     O  488   1.679   7.576   7.823  0.1140  0.6345 -0.0405
  745MOL0     C  489   1.681   7.374   7.532  0.1380 -0.4511 -0.1671
  745MOL0     C  490   1.735   7.262   7.465 -0.1486  0.1701  0.3601
  745MOL0     N  491   2.428   6.713   7.529  0.0848 -0.4309  0.5458
  745MOL0     N  492   2.554   6.686   7.537  0.4097 -0.2158 -0.3828
  745MOL0     C  493   3.199   6.337   8.270  0.1795  0.4833  0.5208
  745MOL0     C  494   3.293   6.282   8.355 -1.0420 -0.1938  0.3143
  745MOL0     C  495   3.687   6.074   8.502  0.1471  0.4464  0.0063
  745MOL0     C  496   3.628   6.066   8.628 -0.3013 -0.0876  0.7774
  745MOL0     C  497   3.696   6.022   8.740  0.4698 -0.4675 -0.2808
  745MOL0     C  498   3.833   6.001   8.733 -0.3516 -0.6584  0.7569
  745MOL0     O  499   3.909   5.947   8.836  0.1004  0.4451 -0.6551
  745MOL0     C  500   3.850   5.950   8.970  0.0328 -0.4428 -0.1789
  745MOL0     C  501   3.960   5.894   9.050  0.1864  0.8693 -0.6751
  745MOL0     C  502   3.951   5.890   9.207  0.9246 -0.0387 -0.9912
  745MOL0     C  503   4.067   5.859   9.287 -0.5170 -1.0435  0.0479
  745MOL0     C  504   4.176   5.950   9.259  0.0709  0.5749 -0.0807
  745MOL0     C  505   4.262   6.028   9.227 -0.3836  0.0625  0.0348
  745MOL0     C  506   3.892   6.001   8.608 -0.5675  0.5165 -0.2012
  745MOL0     C  507   3.827   6.039   8.493 -0.5047 -0.2881  0.0973
  745MOL0     H  508   3.492   6.148   8.107  0.6200 -2.8463  2.9172
  745MOL0     H  509   3.310   6.239   7.964 -0.9830 -1.3891 -0.1159
  745MOL0     H  510   3.227   6.420   7.903  1.2069 -0.0175  2.0226
  745MOL0     H  511   3.090   6.312   7.861 -3.5007  0.6986  1.8223
  745MOL0     H  512   3.054   6.499   7.760  1.3816 -1.3094  0.7947
  745MOL0     H  513   2.925   6.466   7.867  0.4222 -2.2681  3.1477
  745MOL0     H  514   2.994   6.613   8.035  0.3149 -1.0959 -0.2634
  745MOL0     H  515   3.135   6.670   7.948 -0.3445  0.4394  0.1959
  745MOL0     H  516   2.951   6.833   7.912 -1.0133  0.2595  0.0992
  745MOL0     H  517   3.007   6.739   7.764  2.0667 -2.1843  1.9503
  745MOL0     H  518   2.813   6.630   7.753 -1.3296 -2.4213  1.4804
  745MOL0     H  519   2.786   6.646   7.927 -1.9167  0.7496  0.4363
  745MOL0     H  520   2.612   6.771   7.785 -0.4120  0.4484  0.7202
  745MOL0     H  521   2.706   6.884   7.893  2.5256 -0.6359  0.2700
  745MOL0     H  522   2.699   6.989   7.680  0.1004  0.2620  1.5090
  745MOL0     H  523   2.850   6.953   7.717  0.0273  1.6502 -0.2349
  745MOL0     H  524   2.830   6.748   7.545 -0.0857 -0.8925  1.7597
  745MOL0     H  525   2.812   6.908   7.488 -0.1845  0.7068 -0.5293
  745MOL0     H  526   2.555   6.997   7.434 -1.7929 -0.9950 -0.8497
  745MOL0     H  527   2.284   7.008   7.526 -0.4246 -0.4611  0.6254
  745MOL0     H  528   2.279   6.959   7.357  1.3299  0.9894  0.1704
  745MOL0     H  529   2.164   6.800   7.600 -1.7175 -2.1724 -0.6019
  745MOL0     H  530   2.167   6.738   7.437 -0.9185 -0.0547 -0.0910
  745MOL0     H  531   1.964   6.789   7.465 -1.7975  0.6203 -2.6303
  745MOL0     H  532   2.033   6.904   7.347 -4.9231 -3.6184 -2.7192
  745MOL0     H  533   2.078   7.062   7.534  2.1348 -2.7601  2.9051
  745MOL0     H  534   1.965   6.968   7.633  1.0875 -0.0286  0.3624
  745MOL0     H  535   1.893   7.152   7.749 -0.6455 -3.2206 -2.2035
  745MOL0     H  536   1.892   7.379   7.919 -0.6246  1.1633  2.5676
  745MOL0     H  537   1.715   7.365   7.946 -0.7172 -1.0519 -0.5714
  745MOL0     H  538   1.811   7.225   7.922  3.1157 -1.3464 -1.6778
  745MOL0     H  539   1.415   7.741   7.477 -1.7752 -1.3318  0.4332
  745MOL0     H  540   1.293   7.959   7.529  0.5845 -0.8784 -0.6920
  745MOL0     H  541   1.139   8.211   7.759 -0.1558  1.2252 -2.5178
  745MOL0     H  542   1.213   8.149   7.614  1.1313 -1.8033  0.4998
  745MOL0     H  543   1.038   7.964   7.604 -1.8116  1.4405 -3.2421
  745MOL0     H  544   0.963   8.008   7.744 -3.4059 -2.2355 -3.8607
  745MOL0     H  545   0.999   8.200   7.513 -0.7678  3.4440  1.7124
  745MOL0     H  546   0.926   8.247   7.666 -3.2125 -0.0650  0.5176
  745MOL0     H  547   0.809   8.020   7.497  0.0710 -0.0751 -2.1257
  745MOL0     H  548   0.768   8.081   7.657 -1.3141  1.4830 -0.4141
  745MOL0     H  549   0.614   8.158   7.486  0.2159 -0.8620 -0.2334
  745MOL0     H  550   0.748   8.225   7.386  1.6999 -0.3446  0.2808
  745MOL0     H  551   0.764   8.403   7.583 -0.9342  1.3844 -1.5161
  745MOL0     H  552   0.616   8.403   7.492 -0.4062  1.4287  1.6014
  745MOL0     H  553   0.628   8.247   7.755  0.4190  0.0324  0.2697
  745MOL0     H  554   0.497   8.268   7.639 -0.1346  0.3710  0.0369
  745MOL0     H  555   0.485   8.508   7.665 -0.5169  0.9560  0.3127
  745MOL0     H  556   0.593   8.511   7.796  1.0901 -0.5753  0.8816
  745MOL0     H  557   1.345   7.874   7.952 -2.3020 -2.6259 -0.2173
  745MOL0     H  558   1.459   7.665   7.901  0.1436  1.8082  1.3354
  745MOL0     H  559   1.623   7.443   7.470  1.5862  1.1966  0.2222
  745MOL0     H  560   1.732   7.238   7.359  2.3900 -1.8176  0.6374
  745MOL0     H  561   3.120   6.386   8.326  0.8473  3.7183 -1.1184
  745MOL0     H  562   3.296   6.293   8.463  0.3642 -1.6072  0.4521
  745MOL0     H  563   3.523   6.087   8.644 -0.7871 -0.2807 -1.7667
  745MOL0     H  564   3.643   6.015   8.834 -0.9456  0.2793 -0.9927
  745MOL0     H  565   3.827   6.052   9.003 -2.6657 -1.3972  1.2247
  745MOL0     H  566   3.755   5.896   8.966  0.0005 -0.4025  0.0434
  745MOL0     H  567   4.042   5.961   9.025  1.0332 -0.3297 -1.2081
  745MOL0     H  568   3.984   5.793   9.014  2.8404  0.2657  2.3245
  745MOL0     H  569   3.872   5.818   9.232 -0.6526  1.9823  0.1591
  745MOL0     H  570   3.912   5.983   9.247 -0.5349 -0.6067 -1.0229
  745MOL0     H  571   4.104   5.758   9.271  1.7883 -0.1500 -0.5920
  745MOL0     H  572   4.044   5.875   9.393  1.0303  4.0150 -0.1132
  745MOL0     H  573   4.340   6.092   9.190 -0.0400 -0.4475 -0.1288
  745MOL0     H  574   3.996   5.973   8.597  0.3420  1.2087  4.4494
  745MOL0     H  575   3.881   6.061   8.401 -2.3560  3.7821 -0.2375
  746MOL0     O  576   0.172   5.228   2.951  0.0221 -0.3243 -0.1968
  746MOL0     C  577   0.175   5.351   2.972  0.2613  0.6229 -0.3750
  746MOL0     O  578   0.235   5.441   2.888 -0.3386 -0.0835  0.2328
  746MOL0     C  579   0.298   5.403   2.773 -0.1487 -0.0378  0.8787
  746MOL0     C  580   0.397   5.495   2.726  0.3431  0.1141  0.5818
  746MOL0     C  581   0.440   5.489   2.596 -0.4497  0.2785  0.6944
  746MOL0     C  582   0.402   5.383   2.511  0.5114 -0.0552 -0.4375
  746MOL0     O  583   0.453   5.385   2.385 -0.2143 -0.3801 -0.3404
  746MOL0     C  584   0.401   5.304   2.285 -0.2403 -0.3654 -0.4612
  746MOL0     C  585   0.467   5.172   2.264 -0.3176 -0.6161  0.1808
  746MOL0     C  586   0.616   5.179   2.236  1.0617  0.3816  0.4688
  746MOL0     C  587   0.654   5.030   2.201 -0.6567 -0.2451 -0.6453
  746MOL0     C  588   0.804   5.033   2.183  0.1196  0.2736  0.4668
  746MOL0     C  589   0.838   4.892   2.123 -0.3676  0.7288 -0.1548
  746MOL0     C  590   0.986   4.883   2.105 -0.1431 -0.0028  0.2331
  746MOL0     C  591   1.037   4.741   2.074 -0.2049 -0.4241 -0.6990
  746MOL0     N  592   0.992   4.678   1.946 -0.3118 -0.3521 -0.9548
  746MOL0     C  593   1.010   4.729   1.817  0.1932  0.1231 -0.1580
  746MOL0     C  594   0.933   4.651   1.744 -0.6695  2.0601 -0.4856
  746MOL0     C  595   0.911   4.677   1.604 -0.0439  0.3942 -0.2383
  746MOL0     C  596   0.988   4.579   1.517  0.4000  0.1558  0.4785
  746MOL0     C  597   1.144   4.606   1.523  0.5106 -0.2389  0.5814
  746MOL0     C  598   1.221   4.481   1.468  0.4993  0.2370 -0.6011
  746MOL0     O  599   1.207   4.366   1.546 -0.2760 -0.1909  0.1612
  746MOL0     C  600   1.273   4.244   1.517  0.1481 -0.0419  0.1779
  746MOL0     C  601   1.217   4.136   1.578  0.0850 -0.4908  0.2657
  746MOL0     C  602   1.252   4.008   1.542  0.1205 -0.1126 -0.4744
  746MOL0     C  603   1.168   3.895   1.602 -0.6984  0.0659  0.6880
  746MOL0     C  604   1.350   3.990   1.445 -0.1291 -0.2579 -0.7626
  746MOL0     C  605   1.401   3.855   1.414 -0.2110 -0.3800  0.7375
  746MOL0     O  606   1.415   3.758   1.511 -0.2237  0.2516  0.5137
  746MOL0     C  607   1.463   3.636   1.467  0.4070 -0.0012 -0.3177
  746MOL0     C  608   1.589   3.591   1.515  0.0963 -0.4717  0.2081
  746MOL0     C  609   1.640   3.471   1.482 -0.1393 -0.1756 -0.0992
  746MOL0     C  610   1.557   3.387   1.401 -0.9685  0.4471 -0.3016
  746MOL0     O  611   1.602   3.260   1.371 -0.3722 -0.4997 -0.2582
  746MOL0     C  612   1.520   3.154   1.427 -0.7189  0.2631 -0.3932
  746MOL0     C  613   1.597   3.022   1.416 -0.3628  0.5770  0.3273
  746MOL0     C  614   1.628   2.978   1.272 -0.5272 -0.5489 -0.4111
  746MOL0     C  615   1.634   2.823   1.251  0.0950  0.6323  0.2083
  746MOL0     C  616   1.500   2.747   1.244  0.4278 -0.6797 -0.3020
  746MOL0     C  617   1.511   2.614   1.186 -0.6109 -0.7586  0.9654
  746MOL0     C  618   1.372   2.549   1.168  0.3680  0.0586  0.2774
  746MOL0     C  619   1.288   2.523   1.291 -0.2445 -0.9168 -0.6043
  746MOL0    Cl  620   1.378   2.427   1.413 -0.0061  0.4109 -0.2290
  746MOL0     C  621   1.437   3.422   1.355  0.0932 -0.0782  0.5666
  746MOL0     C  622   1.385   3.551   1.383  0.5144  0.6921  0.2049
  746MOL0     O  623   1.430   3.839   1.299  0.3596 -0.1472  0.1651
  746MOL0     C  624   1.417   4.104   1.395 -0.5010  1.4141 -0.7924
  746MOL0     C  625   1.379   4.229   1.428 -0.1827  1.1624 -0.4328
  746MOL0     N  626   0.872   4.556   1.817  1.7842  1.7519 -0.3310
  746MOL0     N  627   0.905   4.571   1.944 -0.1541 -0.2440 -0.2397
  746MOL0     C  628   0.318   5.290   2.565  0.1761  0.2545  0.8917
  746MOL0     C  629   0.250   5.306   2.682 -0.8266 -0.3552 -0.6688
  746MOL0     C  630   0.089   5.398   3.078  0.3346 -0.3785 -1.2469
  746MOL0     C  631   0.009   5.311   3.166 -0.1679 -0.9347 -0.9232
  746MOL0     C  632  -0.091   5.354   3.254 -0.0157  0.8015 -0.6322
  746MOL0     C  633  -0.105   5.497   3.270  0.0172 -0.3807  0.1531
  746MOL0     O  634  -0.198   5.545   3.361 -0.6093 -0.2844 -0.0892
  746MOL0     C  635  -0.202   5.680   3.395  1.5917 -0.4178 -0.3337
  746MOL0     C  636  -0.304   5.691   3.508 -0.5999 -0.0772  0.4102
  746MOL0     C  637  -0.349   5.836   3.530  1.1366 -0.0284  0.4565
  746MOL0     C  638  -0.440   5.864   3.661  0.3733  0.1261 -0.2885
  746MOL0     C  639  -0.548   5.765   3.686 -0.5208 -1.1607 -0.7030
  746MOL0     C  640  -0.637   5.691   3.719 -0.1689  0.1127  0.2351
  746MOL0     C  641  -0.014   5.584   3.195  0.0424  0.0886  0.4251
  746MOL0     C  642   0.066   5.538   3.100 -0.8533  1.1546  0.2264
  746MOL0     H  643   0.436   5.573   2.790  0.1740  0.2702  0.4940
  746MOL0     H  644   0.521   5.558   2.574 -0.7672 -0.2217 -2.5005
  746MOL0     H  645   0.294   5.290   2.303  0.0705 -0.2832  1.7425
  746MOL0     H  646   0.422   5.365   2.197  0.9954  0.5098  0.4171
  746MOL0     H  647   0.451   5.114   2.355 -1.8000  0.9143  0.9375
  746MOL0     H  648   0.412   5.118   2.186 -2.2625 -0.2327  1.2386
  746MOL0     H  649   0.634   5.240   2.147 -2.2722  2.1197  0.8478
  746MOL0     H  650   0.672   5.226   2.318  1.5312  0.6644 -0.0013
  746MOL0     H  651   0.631   4.965   2.286 -0.1605 -1.0257 -1.0963
  746MOL0     H  652   0.599   4.999   2.112 -2.8085  1.7172 -0.1254
  746MOL0     H  653   0.824   5.118   2.117 -1.8126  0.3913 -0.0207
  746MOL0     H  654   0.851   5.058   2.278 -0.9118  1.8822  0.6004
  746MOL0     H  655   0.800   4.811   2.185  1.0979 -0.6790 -1.0135
  746MOL0     H  656   0.787   4.889   2.026  1.0267 -1.5579 -0.9061
  746MOL0     H  657   1.007   4.961   2.031  0.8229 -0.3916  0.0905
  746MOL0     H  658   1.024   4.914   2.203  0.0967 -2.7567  1.0819
  746MOL0     H  659   0.996   4.681   2.156  0.4998  1.1070  0.8365
  746MOL0     H  660   1.146   4.743   2.066 -0.0609  2.1872  0.8835
  746MOL0     H  661   1.052   4.821   1.779 -0.6038 -0.5222 -2.8486
  746MOL0     H  662   0.805   4.671   1.580  0.2079  0.8035 -1.5339
  746MOL0     H  663   0.952   4.776   1.583  1.8726 -0.1476  0.6961
  746MOL0     H  664   0.954   4.603   1.416 -1.3676 -1.7571  0.5524
  746MOL0     H  665   0.958   4.476   1.540  0.4112  0.2061  0.7155
  746MOL0     H  666   1.177   4.619   1.627  0.2273  0.4512  0.5910
  746MOL0     H  667   1.166   4.696   1.466 -2.6067  1.1025  1.2997
  746MOL0     H  668   1.328   4.504   1.466  0.7300  0.0657  3.0405
  746MOL0     H  669   1.170   4.464   1.373  1.7963  2.1683 -1.7363
  746MOL0     H  670   1.127   4.149   1.637 -0.4129  2.5153 -0.9427
  746MOL0     H  671   1.076   3.925   1.654 -0.3071  1.4129  0.6377
  746MOL0     H  672   1.134   3.831   1.520 -2.7989 -2.1781  3.0934
  746MOL0     H  673   1.222   3.832   1.674 -1.6932 -1.3526  0.2438
  746MOL0     H  674   1.659   3.647   1.576 -1.5220 -1.4795  3.1646
  746MOL0     H  675   1.744   3.448   1.501  0.2332 -0.5583 -2.2935
  746MOL0     H  676   1.492   3.176   1.530 -0.0864 -0.8151  0.0169
  746MOL0     H  677   1.430   3.146   1.365 -1.6388  2.1999  0.6007
  746MOL0     H  678   1.688   3.021   1.477 -1.3319  2.1594  1.9038
  746MOL0     H  679   1.529   2.952   1.465  0.0081  1.1771  1.7468
  746MOL0     H  680   1.726   3.023   1.251  0.5836 -2.1848  1.0481
  746MOL0     H  681   1.553   3.019   1.203  0.7613  0.0249 -1.5140
  746MOL0     H  682   1.671   2.808   1.149 -2.0275 -0.5139 -0.4394
  746MOL0     H  683   1.704   2.769   1.315 -1.1137 -0.9822  0.2237
  746MOL0     H  684   1.431   2.805   1.182  0.3291 -2.4991 -2.0059
  746MOL0     H  685   1.461   2.742   1.346  0.9377 -2.1846 -0.1558
  746MOL0     H  686   1.557   2.619   1.087  2.9491  0.7212  2.5239
  746MOL0     H  687   1.573   2.552   1.252  3.6265  0.6300 -1.3395
  746MOL0     H  688   1.386   2.457   1.111  1.2262  0.2246  0.2107
  746MOL0     H  689   1.319   2.619   1.102 -1.2595 -1.5559 -0.2114
  746MOL0     H  690   1.197   2.464   1.274 -1.2473 -0.9275  3.5140
  746MOL0     H  691   1.243   2.615   1.331  1.8971 -0.0580 -0.0444
  746MOL0     H  692   1.386   3.354   1.287 -0.3302 -0.8791  1.6572
  746MOL0     H  693   1.287   3.573   1.344  1.0649 -1.4149 -2.7301
  746MOL0     H  694   1.507   4.094   1.335  0.1002 -0.7647  0.3612
  746MOL0     H  695   1.431   4.309   1.375  1.7824 -1.7468 -3.2888
  746MOL0     H  696   0.289   5.202   2.508 -0.0360  0.8384  0.0838
  746MOL0     H  697   0.169   5.236   2.701 -1.2073 -0.5557 -2.7452
  746MOL0     H  698   0.023   5.204   3.164 -1.0781 -1.1226  1.0091
  746MOL0     H  699  -0.139   5.275   3.311  1.8696 -2.3334 -3.0558
  746MOL0     H  700  -0.109   5.725   3.430 -1.4990  4.2654  3.2166
  746MOL0     H  701  -0.239   5.736   3.308  0.4385 -2.3890 -1.1737
  746MOL0     H  702  -0.263   5.642   3.597 -0.4407  0.0635  0.4150
  746MOL0     H  703  -0.376   5.614   3.480  4.5684 -6.3582  2.0061
  746MOL0     H  704  -0.400   5.874   3.441  1.6056  3.0653  1.3799
  746MOL0     H  705  -0.257   5.894   3.537  1.9480 -1.0921 -0.9758
  746MOL0     H  706  -0.486   5.963   3.664 -1.7964 -0.8398  1.0846
  746MOL0     H  707  -0.374   5.860   3.747 -1.2526  0.7343  1.0460
  746MOL0     H  708  -0.732   5.644   3.733 -1.1865  1.6444 -1.1696
  746MOL0     H  709  -0.009   5.690   3.218  1.7801  0.0488  0.3212
  746MOL0     H  710   0.121   5.602   3.032  1.5426  1.0117  1.8912
  747MOL0     O  711   7.624  10.901   1.821 -0.5599 -0.4597  0.7056
  747MOL0     C  712   7.725  10.928   1.890  0.4869  0.0389 -0.3346
  747MOL0     O  713   7.725  10.925   2.030 -0.2696 -0.1388 -0.7122
  747MOL0     C  714   7.607  10.906   2.087  0.0557  0.1263  0.4753
  747MOL0     C  715   7.595  10.793   2.158  0.6835 -0.0963 -0.7386
  747MOL0     C  716   7.473  10.762   2.212 -0.3426 -0.4748 -0.9008
  747MOL0     C  717   7.374  10.859   2.220 -0.4418 -0.0946  0.3197
  747MOL0     O  718   7.263  10.841   2.300 -0.1671  0.4453 -0.4642
  747MOL0     C  719   7.273  10.751   2.416  1.0029 -0.2734  0.1457
  747MOL0     C  720   7.134  10.740   2.473 -0.4594  0.2195 -0.7691
  747MOL0     C  721   7.137  10.688   2.618 -0.4170 -0.3408  0.1271
  747MOL0     C  722   7.175  10.535   2.656 -0.5865 -0.4102 -0.4494
  747MOL0     C  723   7.095  10.437   2.564 -0.5296  1.0974  0.6075
  747MOL0     C  724   7.111  10.278   2.588  0.8361  0.1245 -0.0662
  747MOL0     C  725   7.256  10.238   2.600 -0.5833  0.3130  1.0561
  747MOL0     C  726   7.252  10.079   2.602 -0.6629  0.6882 -1.0425
  747MOL0     N  727   7.197  10.021   2.475  0.1199  0.4501  0.3190
  747MOL0     C  728   7.218  10.070   2.350 -0.0788  0.7862  0.9336
  747MOL0     C  729   7.167   9.972   2.264  0.0602  0.2111 -0.2452
  747MOL0     C  730   7.186   9.976   2.119 -0.0546 -0.8716  0.0413
  747MOL0     C  731   7.048   9.966   2.052 -0.4208 -0.0767 -0.8593
  747MOL0     C  732   7.052   9.979   1.897 -0.0064  0.3408  0.1666
  747MOL0     C  733   6.938   9.905   1.832  1.1240  1.0065  0.1053
  747MOL0     O  734   6.942   9.761   1.848  0.4401  0.5494 -0.4810
  747MOL0     C  735   6.829   9.689   1.813 -0.0665  0.3279 -0.3080
  747MOL0     C  736   6.795   9.573   1.881  0.8151 -0.2826  0.3122
  747MOL0     C  737   6.683   9.494   1.852 -0.0124  0.2371 -0.1136
  747MOL0     C  738   6.655   9.383   1.951  0.3650 -0.8393  0.3256
  747MOL0     C  739   6.601   9.535   1.741 -0.4419  0.2173  0.2107
  747MOL0     C  740   6.485   9.455   1.710 -0.4562 -0.5610 -0.1749
  747MOL0     O  741   6.466   9.328   1.760  1.1775 -0.2340  0.5919
  747MOL0     C  742   6.343   9.279   1.748  0.3226  0.4469  0.3367
  747MOL0     C  743   6.226   9.320   1.818  0.6395  0.3259 -0.5809
  747MOL0     C  744   6.102   9.268   1.785  0.3752  0.3701  0.1073
  747MOL0     C  745   6.091   9.156   1.700  0.1112  0.4493 -0.4747
  747MOL0     O  746   5.963   9.115   1.673  0.4865 -0.7836 -0.1190
  747MOL0     C  747   5.946   8.970   1.680  0.7073 -0.1948  0.2277
  747MOL0     C  748   5.842   8.946   1.791  0.2941  0.4853  0.9179
  747MOL0     C  749   5.874   9.005   1.929 -0.5098 -0.6418  0.4856
  747MOL0     C  750   5.755   8.988   2.027  0.0946  0.5598 -0.0258
  747MOL0     C  751   5.661   9.103   2.008 -0.1214 -0.8071 -0.4681
  747MOL0     C  752   5.529   9.107   2.089 -0.4723  0.3711 -0.6420
  747MOL0     C  753   5.549   9.112   2.240 -0.3792  0.5495 -0.5114
  747MOL0     C  754   5.417   9.095   2.322  0.1418 -0.0930  0.2370
  747MOL0    Cl  755   5.299   9.217   2.273 -0.6060  0.1282 -0.2803
  747MOL0     C  756   6.204   9.101   1.641  0.5516  0.1967 -0.5157
  747MOL0     C  757   6.327   9.162   1.662 -0.1698 -0.6625 -0.1275
  747MOL0     O  758   6.403   9.513   1.646  0.5663 -0.3368 -1.0703
  747MOL0     C  759   6.636   9.647   1.667 -0.4270  0.6143  0.3032
  747MOL0     C  760   6.752   9.722   1.702  0.9875  0.7118  0.8579
  747MOL0     N  761   7.140   9.859   2.344  0.7427  0.2918  0.3437
  747MOL0     N  762   7.153   9.897   2.467  0.5511 -0.0936 -0.0105
  747MOL0     C  763   7.395  10.987   2.155  0.0656  0.3977  0.5867
  747MOL0     C  764   7.504  11.005   2.084 -1.0958 -0.5116  0.7055
  747MOL0     C  765   7.855  10.939   1.829 -0.0602 -0.4620  0.0860
  747MOL0     C  766   7.965  10.966   1.902 -0.4691  0.0055  0.5263
  747MOL0     C  767   8.084  11.002   1.836 -0.0511 -1.1076  0.0964
  747MOL0     C  768   8.100  10.997   1.701 -0.6128 -0.7226 -0.0045
  747MOL0     O  769   8.221  11.035   1.648  0.2631 -0.2950  0.0313
  747MOL0     C  770   8.241  11.048   1.503  0.9156  0.4953 -0.8259
  747MOL0     C  771   8.371  11.126   1.484  0.1120 -0.5240  1.0852
  747MOL0     C  772   8.405  11.118   1.331 -0.1997 -0.3783  0.2526
  747MOL0     C  773   8.525  11.022   1.313 -0.2216  0.1773 -0.3263
  747MOL0     C  774   8.574  11.039   1.178 -0.3599  0.1938  0.0021
  747MOL0     C  775   8.618  11.041   1.058 -0.6902  0.2575  0.6957
  747MOL0     C  776   7.983  10.960   1.631 -0.5498 -0.0585 -0.3447
  747MOL0     C  777   7.861  10.932   1.692 -0.2817  0.3496 -0.3052
  747MOL0     H  778   7.683  10.731   2.167  1.8500  1.3617 -1.5636
  747MOL0     H  779   7.467  10.671   2.270 -1.7219 -1.5188 -2.5767
  747MOL0     H  780   7.291  10.649   2.382 -0.5927  0.3081 -2.7355
  747MOL0     H  781   7.350  10.783   2.488  1.1723 -2.4053  0.9689
  747MOL0     H  782   7.096  10.843   2.478 -1.1699 -0.1040  2.7946
  747MOL0     H  783   7.069  10.679   2.410 -0.9856 -0.0102 -0.0112
  747MOL0     H  784   7.207  10.749   2.675 -1.7623  1.5511 -0.1400
  747MOL0     H  785   7.035  10.700   2.656  0.2149  2.6050  1.1074
  747MOL0     H  786   7.283  10.523   2.668 -0.6233 -0.1952  0.1570
  747MOL0     H  787   7.138  10.526   2.759 -1.0248 -0.2736 -0.5967
  747MOL0     H  788   6.987  10.458   2.565 -0.4249  1.8780 -1.4786
  747MOL0     H  789   7.128  10.464   2.464  2.1232  0.5524  1.2706
  747MOL0     H  790   7.058  10.242   2.677 -0.0554 -0.6860 -0.9011
  747MOL0     H  791   7.057  10.226   2.508 -1.1776  1.7435  0.1533
  747MOL0     H  792   7.294  10.289   2.511 -0.3197 -1.8085 -0.1161
  747MOL0     H  793   7.302  10.275   2.692  0.7120 -0.0823  0.5821
  747MOL0     H  794   7.186  10.049   2.684  0.0432  2.0675  0.0642
  747MOL0     H  795   7.350  10.037   2.627 -1.6047 -2.2047 -1.7511
  747MOL0     H  796   7.264  10.163   2.319  1.8222 -0.3274  0.2353
  747MOL0     H  797   7.229  10.071   2.086 -1.5711  0.0962  0.7869
  747MOL0     H  798   7.263   9.908   2.081  1.2223  0.4687  0.1168
  747MOL0     H  799   6.966  10.027   2.092  0.2388 -0.8695  1.9669
  747MOL0     H  800   7.031   9.859   2.068 -0.6261  0.2053  1.0448
  747MOL0     H  801   7.147   9.941   1.858 -0.6605  2.3819 -3.9821
  747MOL0     H  802   7.044  10.082   1.862  0.2931  0.0653 -0.7367
  747MOL0     H  803   6.940   9.930   1.725 -1.1492  1.0239  0.0284
  747MOL0     H  804   6.849   9.944   1.882 -0.5249 -0.2676 -1.6711
  747MOL0     H  805   6.855   9.549   1.969 -0.8921  1.4655  2.0475
  747MOL0     H  806   6.659   9.287   1.900 -0.3551  0.4346 -2.3383
  747MOL0     H  807   6.706   9.385   2.048 -2.6950 -0.9664  2.0684
  747MOL0     H  808   6.555   9.398   1.993 -0.2106 -1.3333 -0.8298
  747MOL0     H  809   6.216   9.412   1.874 -0.8907  0.4418 -1.0154
  747MOL0     H  810   6.017   9.321   1.826  0.1852  3.7584 -3.9273
  747MOL0     H  811   5.909   8.927   1.587  1.0756 -0.3098  0.1297
  747MOL0     H  812   6.028   8.901   1.704 -0.0564 -0.0685  3.7123
  747MOL0     H  813   5.755   8.992   1.743  1.6098  0.6466 -1.4641
  747MOL0     H  814   5.820   8.839   1.796 -0.8086  0.6440 -0.2844
  747MOL0     H  815   5.885   9.112   1.912  0.1278 -0.4247  2.0855
  747MOL0     H  816   5.963   8.964   1.978 -0.6147  1.6419  2.7767
  747MOL0     H  817   5.708   8.892   2.004 -0.5780  0.9860 -0.4795
  747MOL0     H  818   5.797   8.988   2.128 -0.4991  0.7498  0.2241
  747MOL0     H  819   5.634   9.103   1.902  1.4170 -1.3820 -0.8873
  747MOL0     H  820   5.701   9.204   2.019 -0.9567 -0.2757 -1.9868
  747MOL0     H  821   5.482   9.201   2.059  0.5732  0.7399 -1.1835
  747MOL0     H  822   5.476   9.017   2.056 -0.5578 -0.0209  0.5239
  747MOL0     H  823   5.605   9.198   2.275  1.8425 -0.8491 -0.4293
  747MOL0     H  824   5.616   9.029   2.266  1.0109  0.6575 -3.3744
  747MOL0     H  825   5.429   9.106   2.430 -2.8080  3.8215  0.3910
  747MOL0     H  826   5.370   8.998   2.301  1.6178 -0.6858 -0.4780
  747MOL0     H  827   6.190   9.011   1.582  1.9568  0.0632 -0.6844
  747MOL0     H  828   6.415   9.119   1.615 -0.8409  1.2192 -3.4299
  747MOL0     H  829   6.576   9.669   1.579  1.0824  2.5902 -0.3037
  747MOL0     H  830   6.764   9.817   1.651  0.5456 -0.2225 -1.0501
  747MOL0     H  831   7.313  11.057   2.169  0.0142  0.4646 -0.0358
  747MOL0     H  832   7.529  11.090   2.020  0.5638 -1.8314 -0.4916
  747MOL0     H  833   7.964  10.983   2.010  4.0129  2.3712  0.4422
  747MOL0     H  834   8.174  11.036   1.886 -1.0429 -5.1657  5.6237
  747MOL0     H  835   8.246  10.942   1.476 -0.3254  0.4919 -1.0728
  747MOL0     H  836   8.160  11.094   1.446 -0.8604 -1.3457  0.1046
  747MOL0     H  837   8.450  11.083   1.546  3.5554 -0.2027 -2.6517
  747MOL0     H  838   8.355  11.227   1.523  2.4658 -0.5793  2.4348
  747MOL0     H  839   8.422  11.222   1.300  0.1766 -0.1724  1.1261
  747MOL0     H  840   8.325  11.074   1.272 -1.5862  0.4104  1.4831
  747MOL0     H  841   8.503  10.920   1.345  2.0561  0.6232  3.2767
  747MOL0     H  842   8.608  11.058   1.375  0.9475  0.5509 -2.0255
  747MOL0     H  843   8.665  11.041   0.962  0.3391  0.2591  1.1794
  747MOL0     H  844   7.983  10.959   1.522 -2.0903 -0.0410 -0.3651
  747MOL0     H  845   7.784  10.913   1.618 -0.5844  2.0142 -0.4522
  748MOL0     O  846   4.283   5.879   6.413  0.3784 -0.2104  0.3800
  748MOL0     C  847   4.251   5.982   6.472 -0.3267 -0.4571  0.0715
  748MOL0     O  848   4.329   6.096   6.479  0.3429  0.5162  0.1799
  748MOL0     C  849   4.459   6.097   6.433 -0.2937  1.1183  0.5938
  748MOL0     C  850   4.572   6.060   6.516  0.4673 -0.7772 -0.1737
  748MOL0     C  851   4.702   6.068   6.460  0.8280 -0.3074  0.8001
  748MOL0     C  852   4.725   6.100   6.329 -0.6231  1.6342  0.4612
  748MOL0     O  853   4.847   6.073   6.270 -0.3000  0.2608 -0.1563
  748MOL0     C  854   4.968   6.067   6.358  0.7073 -0.4046  0.6899
  748MOL0     C  855   5.094   6.071   6.278  0.8274  0.2065  0.2815
  748MOL0     C  856   5.224   6.040   6.354 -0.1102  0.0013 -0.6399
  748MOL0     C  857   5.335   5.998   6.256 -0.2405  0.4994 -0.3791
  748MOL0     C  858   5.449   5.935   6.333  0.2716  0.6971 -0.4316
  748MOL0     C  859   5.563   5.921   6.232 -0.6179  0.7914 -0.4868
  748MOL0     C  860   5.703   5.912   6.296  0.3352  0.2453  0.9689
  748MOL0     C  861   5.743   5.771   6.319 -0.1691 -0.3489 -0.0070
  748MOL0     N  862   5.870   5.758   6.389  0.5498  0.8779 -0.5773
  748MOL0     C  863   5.979   5.832   6.365  0.2057  0.2580 -0.5440
  748MOL0     C  864   6.062   5.785   6.461 -0.8946  0.5305  0.4909
  748MOL0     C  865   6.207   5.814   6.486  0.0115 -0.4590  0.3575
  748MOL0     C  866   6.233   5.883   6.619  0.3463 -0.0812 -0.1236
  748MOL0     C  867   6.388   5.916   6.632 -0.7648  0.3192 -0.4995
  748MOL0     C  868   6.465   5.984   6.520  0.2642 -0.9541 -0.0563
  748MOL0     O  869   6.399   6.102   6.486  0.4029  0.0819  0.4119
  748MOL0     C  870   6.481   6.200   6.442 -0.1978  0.7938 -0.7806
  748MOL0     C  871   6.420   6.316   6.445 -0.4029  1.0700  0.5038
  748MOL0     C  872   6.478   6.429   6.400  0.2182 -0.7291  0.7325
  748MOL0     C  873   6.403   6.550   6.403 -0.1450  0.9898  0.1660
  748MOL0     C  874   6.609   6.427   6.351 -0.7439  0.0217  0.0455
  748MOL0     C  875   6.686   6.547   6.314  0.3688  0.5059 -0.4246
  748MOL0     O  876   6.760   6.528   6.202 -0.0127  0.1102  0.7163
  748MOL0     C  877   6.814   6.644   6.148 -0.5579  0.1274  0.5553
  748MOL0     C  878   6.739   6.724   6.060 -0.0922  0.0922 -0.1140
  748MOL0     C  879   6.802   6.830   5.996 -0.0592 -0.0220 -0.0237
  748MOL0     C  880   6.943   6.854   6.018  0.4885 -0.1067 -0.7122
  748MOL0     O  881   7.015   6.953   5.948  0.8002  0.1604  0.8556
  748MOL0     C  882   6.933   7.048   5.875  0.7413  0.0572 -0.0180
  748MOL0     C  883   7.010   7.176   5.890  0.5219 -0.3737  0.6803
  748MOL0     C  884   6.938   7.294   5.824  0.2335  0.4841  0.0041
  748MOL0     C  885   7.016   7.339   5.699  0.3154 -0.2310  0.9973
  748MOL0     C  886   6.991   7.249   5.586 -0.4068  0.5999  0.2306
  748MOL0     C  887   7.068   7.302   5.458 -0.1329  0.1140 -0.6675
  748MOL0     C  888   7.095   7.192   5.355  1.0201 -0.1581  0.3396
  748MOL0     C  889   7.200   7.234   5.260  0.3843 -0.4759  0.0403
  748MOL0    Cl  890   7.377   7.220   5.311  0.1440  0.0977  0.1229
  748MOL0     C  891   7.010   6.765   6.108  0.0644 -0.9158  0.4448
  748MOL0     C  892   6.953   6.657   6.169  0.2955 -0.4851  0.1971
  748MOL0     O  893   6.689   6.650   6.383  0.0301  0.0734  0.4227
  748MOL0     C  894   6.681   6.299   6.356  0.4174  0.5461  0.3251
  748MOL0     C  895   6.607   6.190   6.395 -0.5818  0.0959 -0.2302
  748MOL0     N  896   6.002   5.684   6.533 -0.5498 -0.6067 -0.4262
  748MOL0     N  897   5.883   5.674   6.500  0.0252 -0.7109 -0.4102
  748MOL0     C  898   4.623   6.150   6.251  0.2325  0.3403 -0.3440
  748MOL0     C  899   4.487   6.145   6.298  0.0648  0.4780 -0.1041
  748MOL0     C  900   4.112   5.991   6.533  0.0561 -0.4411  0.1082
  748MOL0     C  901   4.052   6.120   6.545 -0.4310  0.5700  0.4255
  748MOL0     C  902   3.931   6.141   6.612 -0.2012 -0.6149 -0.1439
  748MOL0     C  903   3.858   6.031   6.659 -1.0038 -0.5917  1.3341
  748MOL0     O  904   3.747   6.053   6.737  0.5096 -0.0393 -0.3058
  748MOL0     C  905   3.676   6.177   6.755 -0.5209 -0.2669 -0.1100
  748MOL0     C  906   3.733   6.253   6.864  0.1139 -0.4163  0.9931
  748MOL0     C  907   3.636   6.364   6.916 -0.3080 -0.5423  0.0198
  748MOL0     C  908   3.593   6.476   6.815 -0.2102 -0.6312  0.8053
  748MOL0     C  909   3.501   6.435   6.710  0.4093  0.2960  0.3757
  748MOL0     C  910   3.434   6.415   6.612 -0.1482 -0.3079  0.8695
  748MOL0     C  911   3.907   5.907   6.623  0.2358  0.4581  0.3989
  748MOL0     C  912   4.040   5.879   6.569 -0.1395 -0.3190 -0.5954
  748MOL0     H  913   4.557   6.031   6.619  0.7492  0.8047  0.3434
  748MOL0     H  914   4.783   6.029   6.520 -0.3854 -1.0680  1.9936
  748MOL0     H  915   4.961   6.143   6.436 -1.0037  1.0672 -0.7966
  748MOL0     H  916   4.969   5.969   6.407 -0.0754 -0.6197  0.2996
  748MOL0     H  917   5.087   5.992   6.203  2.1337  1.5546 -1.3366
  748MOL0     H  918   5.092   6.163   6.219  0.3556 -0.7011 -1.1598
  748MOL0     H  919   5.262   6.129   6.404  3.0637  0.4376 -3.4638
  748MOL0     H  920   5.200   5.954   6.418  1.0768 -0.3846 -0.6965
  748MOL0     H  921   5.300   5.913   6.197 -1.0947 -1.3023  2.4922
  748MOL0     H  922   5.360   6.076   6.184 -2.5322 -0.3035 -2.1792
  748MOL0     H  923   5.486   5.992   6.419  4.0133 -1.5543 -0.3453
  748MOL0     H  924   5.402   5.843   6.368 -1.9350  2.2300  0.9572
  748MOL0     H  925   5.535   5.842   6.161  2.5023 -1.5459  0.6348
  748MOL0     H  926   5.563   6.010   6.168 -1.1634  0.0280 -1.5835
  748MOL0     H  927   5.779   5.958   6.232 -0.1132  0.1515  0.3578
  748MOL0     H  928   5.705   5.970   6.389 -1.7950  3.9469 -1.0604
  748MOL0     H  929   5.760   5.717   6.225  0.3010 -0.0423 -0.0988
  748MOL0     H  930   5.663   5.707   6.359  1.0071 -2.2614 -0.6084
  748MOL0     H  931   5.998   5.905   6.288 -0.8413  2.3583  1.0975
  748MOL0     H  932   6.260   5.718   6.483 -2.6502 -1.9870 -1.3257
  748MOL0     H  933   6.239   5.890   6.415 -0.7514  1.5299  2.0474
  748MOL0     H  934   6.212   5.809   6.697  0.3960 -0.0167 -0.0497
  748MOL0     H  935   6.168   5.969   6.638 -2.0735 -2.3294  3.0843
  748MOL0     H  936   6.445   5.827   6.661  1.8490  2.5686  1.8257
  748MOL0     H  937   6.402   5.985   6.716  0.0500 -0.5075  0.0614
  748MOL0     H  938   6.474   5.929   6.425  0.1121  1.2247 -1.3920
  748MOL0     H  939   6.562   5.999   6.569 -0.3360  1.7552  0.4415
  748MOL0     H  940   6.319   6.331   6.482  0.0940  3.0394  1.1469
  748MOL0     H  941   6.397   6.591   6.302 -1.1839 -0.5372 -0.4291
  748MOL0     H  942   6.298   6.535   6.429  0.1809 -0.8454  0.5675
  748MOL0     H  943   6.460   6.616   6.469 -0.7456  2.2034 -0.4964
  748MOL0     H  944   6.637   6.698   6.037 -0.0179 -1.2544  0.9683
  748MOL0     H  945   6.752   6.872   5.909  3.0084  1.3919 -1.2256
  748MOL0     H  946   6.925   7.021   5.769  1.6857  4.2394 -1.3082
  748MOL0     H  947   6.836   7.061   5.924  0.6747 -2.2878  0.6143
  748MOL0     H  948   7.001   7.189   5.998 -2.0681 -0.3021  0.5247
  748MOL0     H  949   7.111   7.167   5.851 -0.0121  0.8117 -1.1084
  748MOL0     H  950   6.942   7.374   5.899 -3.8086  0.8723  0.0575
  748MOL0     H  951   6.833   7.286   5.794  0.4822  1.4552 -1.2094
  748MOL0     H  952   6.971   7.433   5.668 -1.0656 -1.1224  0.2259
  748MOL0     H  953   7.120   7.361   5.725  1.2086  1.8280 -3.4591
  748MOL0     H  954   6.886   7.227   5.565 -0.0185  0.3558 -1.6488
  748MOL0     H  955   7.046   7.156   5.605 -0.1702  0.2226 -2.0176
  748MOL0     H  956   7.008   7.383   5.415  0.0977  0.8199  0.3203
  748MOL0     H  957   7.166   7.332   5.496 -0.0798 -0.6104 -0.2192
  748MOL0     H  958   6.999   7.190   5.303  1.5948  2.7459 -1.0714
  748MOL0     H  959   7.120   7.097   5.402 -1.4636  0.5600  3.4071
  748MOL0     H  960   7.164   7.335   5.238 -1.9857 -1.1807  0.3722
  748MOL0     H  961   7.193   7.174   5.169 -0.3015  0.0883 -0.2871
  748MOL0     H  962   7.115   6.786   6.124  0.5933 -2.3288 -0.8923
  748MOL0     H  963   7.005   6.593   6.239  0.7676  0.0818  0.3659
  748MOL0     H  964   6.784   6.276   6.334 -0.7688 -2.5635 -3.0051
  748MOL0     H  965   6.650   6.091   6.380  0.6037  1.0309 -4.6003
  748MOL0     H  966   4.652   6.174   6.150  2.1631 -2.8404 -0.6873
  748MOL0     H  967   4.405   6.176   6.234  0.4275  0.9774 -0.3306
  748MOL0     H  968   4.119   6.193   6.500  0.7629  0.6877  2.2711
  748MOL0     H  969   3.906   6.244   6.635 -1.1870 -1.1693  1.4857
  748MOL0     H  970   3.668   6.241   6.667 -2.6233  1.1622  1.0337
  748MOL0     H  971   3.572   6.152   6.775 -1.0936  1.9753 -0.0238
  748MOL0     H  972   3.821   6.307   6.829  0.2867  0.5176  2.7488
  748MOL0     H  973   3.757   6.184   6.946 -0.0703 -2.4808 -0.6263
  748MOL0     H  974   3.687   6.403   7.005 -1.1614  1.1085 -0.1676
  748MOL0     H  975   3.549   6.313   6.958  0.1535 -1.1760  0.2259
  748MOL0     H  976   3.680   6.526   6.772 -1.0732  1.7437  1.6549
  748MOL0     H  977   3.547   6.552   6.878 -0.3601 -1.4597  1.7261
  748MOL0     H  978   3.368   6.386   6.532  1.2407 -0.2532 -0.3502
  748MOL0     H  979   3.838   5.826   6.645  1.2513 -0.3563  0.6820
  748MOL0     H  980   4.083   5.782   6.546  1.2856  0.7528 -2.7090
  749MOL0     O  981   0.969   6.236   2.383  0.3436  1.5732 -0.0155
  749MOL0     C  982   1.074   6.225   2.444 -0.6211 -0.2086 -0.3849
  749MOL0     O  983   1.186   6.148   2.399  0.3239  0.0081 -0.0849
  749MOL0     C  984   1.194   6.060   2.293 -0.4092  0.2076 -0.1558
  749MOL0     C  985   1.310   6.026   2.233  0.2712  0.7279  0.5435
  749MOL0     C  986   1.320   5.926   2.132  0.4012 -0.3317  0.0717
  749MOL0     C  987   1.208   5.858   2.093  0.2378  0.4206 -0.4234
  749MOL0     O  988   1.221   5.763   1.992  0.0369  0.1078 -0.4441
  749MOL0     C  989   1.169   5.777   1.865 -0.3729 -0.0839  0.0261
  749MOL0     C  990   1.260   5.860   1.780 -0.2461  0.2060 -0.8188
  749MOL0     C  991   1.211   5.881   1.636  0.2919  0.3914 -0.1409
  749MOL0     C  992   1.286   5.983   1.543  0.3821 -0.8818 -0.6982
  749MOL0     C  993   1.251   5.974   1.393 -0.0049 -0.9605  0.9509
  749MOL0     C  994   1.301   6.095   1.310 -0.2311  0.6080 -0.3575
  749MOL0     C  995   1.322   6.074   1.159  0.1121  0.9354 -0.0677
  749MOL0     C  996   1.390   6.191   1.099 -0.9058  0.8726 -0.4983
  749MOL0     N  997   1.315   6.317   1.107  0.3676 -0.0813 -0.2995
  749MOL0     C  998   1.213   6.369   1.029  1.0424  0.5054 -0.4897
  749MOL0     C  999   1.203   6.504   1.064 -0.3870  0.0802 -0.0328
  749MOL0     C 1000   1.109   6.601   0.994  0.0294  0.1253  0.1852
  749MOL0     C 1001   0.971   6.549   0.971 -0.5281  0.2398 -0.6577
  749MOL0     C 1002   0.883   6.642   0.889  0.4334 -0.1195  0.2599
  749MOL0     C 1003   0.746   6.581   0.871 -0.3378 -0.1582  0.5588
  749MOL0     O 1004   0.757   6.483   0.772 -0.4956 -1.2436 -0.3886
  749MOL0     C 1005   0.694   6.367   0.807  0.2383 -0.2424  0.5737
  749MOL0     C 1006   0.755   6.260   0.866  0.0007  0.3503  0.0201
  749MOL0     C 1007   0.689   6.139   0.896 -0.8089 -1.3229 -0.5256
  749MOL0     C 1008   0.789   6.034   0.951 -0.4924  0.4178  0.8280
  749MOL0     C 1009   0.553   6.122   0.857  0.3639  0.4275 -0.4700
  749MOL0     C 1010   0.484   5.992   0.891  0.2123 -0.1633  0.3305
  749MOL0     O 1011   0.375   5.983   0.822  0.2657  0.8393  0.4031
  749MOL0     C 1012   0.268   5.909   0.867 -0.0043 -0.0507 -0.1938
  749MOL0     C 1013   0.158   5.974   0.901 -0.8524 -0.7419  0.3887
  749MOL0     C 1014   0.057   5.903   0.958 -0.5679 -0.2573  0.2004
  749MOL0     C 1015   0.062   5.768   0.982 -0.4302 -0.8212  0.1092
  749MOL0     O 1016  -0.048   5.704   1.028 -0.4600 -0.3779  0.6623
  749MOL0     C 1017  -0.104   5.604   0.940  0.0839 -0.3841 -0.0262
  749MOL0     C 1018  -0.199   5.509   1.005  0.2764 -0.5220 -0.0855
  749MOL0     C 1019  -0.139   5.426   1.121 -0.0213  0.1989  0.0619
  749MOL0     C 1020  -0.008   5.341   1.095 -0.1195 -1.0412  0.3411
  749MOL0     C 1021  -0.025   5.252   0.975  1.0592  0.4413  0.3911
  749MOL0     C 1022  -0.115   5.125   1.016  0.0355 -0.0260 -0.4188
  749MOL0     C 1023  -0.038   5.022   1.105 -0.2209 -0.3233  0.4300
  749MOL0     C 1024  -0.125   4.900   1.148  0.3601 -0.3724 -0.1376
  749MOL0    Cl 1025  -0.187   4.795   1.016  0.2161 -0.3086 -0.1281
  749MOL0     C 1026   0.184   5.698   0.954 -0.0409 -0.2549 -0.1357
  749MOL0     C 1027   0.283   5.767   0.888 -0.6534 -0.3555 -0.5654
  749MOL0     O 1028   0.533   5.908   0.971 -0.0828  0.0663 -0.4558
  749MOL0     C 1029   0.487   6.234   0.794 -0.5421  0.1638  0.1081
  749MOL0     C 1030   0.559   6.351   0.769 -0.7107  0.5594 -0.1003
  749MOL0     N 1031   1.291   6.522   1.175  0.2858 -0.7466  0.2817
  749MOL0     N 1032   1.359   6.410   1.198  0.1829  0.0664 -0.0099
  749MOL0     C 1033   1.088   5.888   2.155 -0.3504  0.1167 -0.3368
  749MOL0     C 1034   1.079   5.986   2.259 -0.2626 -0.0130 -0.4449
  749MOL0     C 1035   1.086   6.288   2.578 -0.6757 -0.1336  0.0230
  749MOL0     C 1036   1.176   6.238   2.668 -1.1111  0.4856 -0.4061
  749MOL0     C 1037   1.204   6.290   2.802  0.0990  0.3361  0.8868
  749MOL0     C 1038   1.128   6.402   2.834  0.3414 -0.0646 -0.1526
  749MOL0     O 1039   1.128   6.472   2.954  0.1474  0.7469 -0.4346
  749MOL0     C 1040   1.208   6.418   3.066 -0.0298  0.5961  0.0294
  749MOL0     C 1041   1.357   6.456   3.045 -0.0757 -0.0249 -0.8460
  749MOL0     C 1042   1.392   6.597   3.108  0.4578  0.3299 -0.2476
  749MOL0     C 1043   1.510   6.602   3.209  0.5860 -0.4041  0.4575
  749MOL0     C 1044   1.475   6.523   3.329 -0.1355 -0.7151  1.0261
  749MOL0     C 1045   1.445   6.467   3.430  0.0311 -0.4072  0.0843
  749MOL0     C 1046   1.042   6.463   2.740 -0.2781  1.1782 -0.5885
  749MOL0     C 1047   1.017   6.401   2.611  0.0717  0.3029 -0.1492
  749MOL0     H 1048   1.399   6.078   2.268  0.0598  0.6040  1.2760
  749MOL0     H 1049   1.414   5.904   2.084  1.2945 -0.3503  1.7615
  749MOL0     H 1050   1.142   5.681   1.821 -0.7059  1.3574 -3.1387
  749MOL0     H 1051   1.083   5.844   1.878  1.0564  1.4934  1.9254
  749MOL0     H 1052   1.264   5.960   1.824 -2.8130 -0.5044  1.2960
  749MOL0     H 1053   1.359   5.814   1.772 -0.8902 -1.1970 -1.1642
  749MOL0     H 1054   1.225   5.794   1.571  2.3121  1.2259 -0.9122
  749MOL0     H 1055   1.103   5.894   1.636  0.2402  0.8298 -3.6237
  749MOL0     H 1056   1.265   6.084   1.581 -0.0854 -1.1406 -0.2515
  749MOL0     H 1057   1.393   5.968   1.559  0.3659 -0.8863 -0.5927
  749MOL0     H 1058   1.294   5.880   1.356  1.9856  0.1828  0.2432
  749MOL0     H 1059   1.144   5.977   1.367  0.5170  1.0744 -1.3466
  749MOL0     H 1060   1.227   6.172   1.331 -0.2194  0.1727  1.4176
  749MOL0     H 1061   1.392   6.123   1.364  0.7476 -4.6420  1.2954
  749MOL0     H 1062   1.383   5.985   1.138  3.0136  3.1812 -1.8879
  749MOL0     H 1063   1.226   6.063   1.106 -0.1763 -0.6537  0.7047
  749MOL0     H 1064   1.414   6.169   0.995 -0.0765 -0.8521  0.0177
  749MOL0     H 1065   1.487   6.194   1.149 -0.6818  1.0843 -0.9382
  749MOL0     H 1066   1.151   6.324   0.952 -3.8548  2.6576  1.7565
  749MOL0     H 1067   1.112   6.695   1.050 -0.2500  0.9463 -1.1369
  749MOL0     H 1068   1.155   6.630   0.899  0.7217 -3.5987 -0.7850
  749MOL0     H 1069   0.937   6.542   1.075  2.1946  2.1710  0.5005
  749MOL0     H 1070   0.963   6.456   0.915 -1.9804  1.4256 -2.5806
  749MOL0     H 1071   0.927   6.657   0.790 -2.6410  0.7106 -1.0907
  749MOL0     H 1072   0.868   6.740   0.934 -0.1469 -0.2027  0.2503
  749MOL0     H 1073   0.676   6.658   0.836  0.3860  1.3290  2.2681
  749MOL0     H 1074   0.708   6.539   0.964  2.7674 -0.1543  1.9564
  749MOL0     H 1075   0.860   6.264   0.890  0.7188  0.6640 -2.8828
  749MOL0     H 1076   0.774   6.019   1.059  1.0238 -3.2633  0.6553
  749MOL0     H 1077   0.762   5.941   0.901  2.8867  0.4691 -1.4514
  749MOL0     H 1078   0.895   6.055   0.933  0.0729 -2.8652 -0.3511
  749MOL0     H 1079   0.143   6.080   0.887  0.5177 -0.6237 -0.3871
  749MOL0     H 1080  -0.041   5.946   0.971 -1.5917 -1.8782 -1.6116
  749MOL0     H 1081  -0.163   5.657   0.864 -0.5163  0.6126  1.0807
  749MOL0     H 1082  -0.028   5.548   0.886 -0.8906 -1.1410 -0.6474
  749MOL0     H 1083  -0.273   5.581   1.041  1.4993  0.4145  0.6868
  749MOL0     H 1084  -0.249   5.442   0.935 -0.9001  0.2373 -0.0036
  749MOL0     H 1085  -0.214   5.351   1.148 -0.3943  0.8455  0.8637
  749MOL0     H 1086  -0.124   5.493   1.206  0.8181  0.0422  0.0446
  749MOL0     H 1087   0.072   5.414   1.077 -2.5999  1.6702 -0.5563
  749MOL0     H 1088   0.024   5.286   1.183  1.3755  0.6086  0.8771
  749MOL0     H 1089   0.067   5.213   0.930  1.2468 -1.7048  2.4447
  749MOL0     H 1090  -0.079   5.297   0.891  1.9879 -2.6474 -2.0427
  749MOL0     H 1091  -0.213   5.155   1.055  0.8217  1.7878  0.2477
  749MOL0     H 1092  -0.140   5.057   0.933 -0.0032 -3.1589  1.9654
  749MOL0     H 1093  -0.005   5.076   1.194  0.8168  1.3799 -0.9284
  749MOL0     H 1094   0.054   4.998   1.052 -1.5970 -4.8813 -0.3525
  749MOL0     H 1095  -0.212   4.932   1.207 -0.5856 -2.1168 -0.5203
  749MOL0     H 1096  -0.074   4.829   1.213 -1.0089  0.7519  2.3252
  749MOL0     H 1097   0.188   5.591   0.976 -0.7545 -0.1633  0.4823
  749MOL0     H 1098   0.380   5.732   0.858  0.0319  1.2170 -0.3045
  749MOL0     H 1099   0.386   6.220   0.757 -0.8179  1.8538  0.1259
  749MOL0     H 1100   0.516   6.433   0.713  1.1068  1.1766 -0.6481
  749MOL0     H 1101   1.000   5.841   2.113  0.1670  1.0709 -2.6519
  749MOL0     H 1102   0.977   5.994   2.295 -1.2517  1.1609 -3.2210
  749MOL0     H 1103   1.243   6.159   2.638  0.0319  1.5094 -0.6195
  749MOL0     H 1104   1.273   6.248   2.875  1.2386  0.3739 -0.1216
  749MOL0     H 1105   1.174   6.452   3.165 -2.3521 -1.4255  0.0273
  749MOL0     H 1106   1.199   6.309   3.069 -1.6291  0.6956  2.9681
  749MOL0     H 1107   1.384   6.440   2.940 -0.7724 -0.9584 -0.8950
  749MOL0     H 1108   1.416   6.391   3.110  0.8145  2.1265  0.6205
  749MOL0     H 1109   1.299   6.637   3.150 -1.4806 -1.9791 -2.0282
  749MOL0     H 1110   1.426   6.662   3.027  2.4775  0.3407  0.5606
  749MOL0     H 1111   1.521   6.708   3.232  0.0809  0.2706 -2.0954
  749MOL0     H 1112   1.608   6.568   3.174  0.5092 -0.0026 -0.1628
  749MOL0     H 1113   1.416   6.429   3.525  3.4389  0.1401  1.5150
  749MOL0     H 1114   0.996   6.557   2.769  2.5870  1.8700  2.3003
  749MOL0     H 1115   0.965   6.456   2.533 -0.2858  0.3697  0.1368
  750MOL0     O 1116  10.376   2.876   5.401 -0.3832 -0.3411  0.2385
  750MOL0     C 1117  10.273   2.819   5.430 -0.2967 -0.5960  0.1449
  750MOL0     O 1118  10.240   2.753   5.542 -0.2004  0.3626 -0.3092
  750MOL0     C 1119  10.321   2.752   5.656  0.5044 -0.0219  0.4858
  750MOL0     C 1120  10.347   2.635   5.722  0.2270  0.5146 -1.0079
  750MOL0     C 1121  10.435   2.624   5.835 -0.4361 -0.0388 -0.4405
  750MOL0     C 1122  10.502   2.742   5.880 -0.3210  0.4101 -0.3852
  750MOL0     O 1123  10.583   2.750   6.001  0.4474  0.0584 -0.3880
  750MOL0     C 1124  10.653   2.627   6.029 -0.4052 -0.3105 -1.0984
  750MOL0     C 1125  10.786   2.677   6.100  0.3237  0.7023  0.2352
  750MOL0     C 1126  10.880   2.558   6.124 -0.7467 -0.3899  0.2384
  750MOL0     C 1127  10.995   2.586   6.209  0.3259 -0.0866 -0.0971
  750MOL0     C 1128  11.069   2.458   6.238  0.0038  1.0421 -0.3402
  750MOL0     C 1129  11.169   2.468   6.360 -0.4586 -0.4725  0.3140
  750MOL0     C 1130  11.099   2.450   6.494 -0.4000 -0.4873  0.3226
  750MOL0     C 1131  11.054   2.310   6.529 -0.2522 -0.9824 -0.3874
  750MOL0     N 1132  11.157   2.207   6.495  0.9116  0.1442 -0.2898
  750MOL0     C 1133  11.138   2.105   6.405 -0.2364  0.0824 -0.4208
  750MOL0     C 1134  11.215   2.006   6.452 -0.4981 -0.6589  0.5112
  750MOL0     C 1135  11.251   1.880   6.381  0.2353 -0.5896 -0.3595
  750MOL0     C 1136  11.395   1.880   6.322  0.4040 -0.4507 -0.0112
  750MOL0     C 1137  11.409   1.977   6.200 -0.2217  0.5656  0.3211
  750MOL0     C 1138  11.533   1.942   6.117  0.2773  0.0595  0.4383
  750MOL0     O 1139  11.654   1.968   6.184  0.0444 -0.6035 -0.4201
  750MOL0     C 1140  11.775   1.928   6.142 -0.4257 -0.7567  0.0352
  750MOL0     C 1141  11.803   1.924   6.007 -0.7507  1.1077 -0.4439
  750MOL0     C 1142  11.928   1.863   5.969  0.2008  1.0085  0.4407
  750MOL0     C 1143  11.959   1.849   5.820 -0.0443 -0.0889 -0.5646
  750MOL0     C 1144  12.027   1.828   6.069 -0.1309  0.5221  0.4259
  750MOL0     C 1145  12.159   1.776   6.031  0.0945  0.0791 -2.0830
  750MOL0     O 1146  12.256   1.786   6.126  0.0454 -0.1966 -1.0697
  750MOL0     C 1147  12.367   1.715   6.088 -0.3659 -0.5001  0.7160
  750MOL0     C 1148  12.376   1.573   6.105 -0.4206  0.1687 -0.2691
  750MOL0     C 1149  12.492   1.508   6.074  0.5681  0.7387  0.1360
  750MOL0     C 1150  12.595   1.573   6.016  0.7602  0.4538  1.0812
  750MOL0     O 1151  12.695   1.503   5.959 -0.6041 -0.0357 -0.1846
  750MOL0     C 1152  12.823   1.566   5.939  0.2383 -0.2963  0.6413
  750MOL0     C 1153  12.883   1.623   6.066  0.4977  0.7293 -0.9055
  750MOL0     C 1154  12.936   1.508   6.160  0.2308 -0.4630  0.5843
  750MOL0     C 1155  13.008   1.555   6.291  0.5156 -0.3371  0.1148
  750MOL0     C 1156  13.156   1.588   6.257  0.3835  0.4124  0.3753
  750MOL0     C 1157  13.247   1.474   6.232 -0.2606 -0.6162  0.5427
  750MOL0     C 1158  13.397   1.522   6.202  0.9703  0.2089 -0.3271
  750MOL0     C 1159  13.471   1.418   6.116  0.3356  0.3940 -0.5808
  750MOL0    Cl 1160  13.422   1.439   5.949  0.1453 -0.1750 -0.1589
  750MOL0     C 1161  12.595   1.714   6.001  0.1715 -0.2260  0.3980
  750MOL0     C 1162  12.477   1.786   6.019  0.6078  0.1226 -0.3613
  750MOL0     O 1163  12.175   1.716   5.925 -0.0674 -0.3630  0.0087
  750MOL0     C 1164  11.986   1.836   6.204  0.6135 -0.4674  0.4616
  750MOL0     C 1165  11.861   1.888   6.241 -0.0845  0.4626  0.5696
  750MOL0     N 1166  11.285   2.056   6.565 -0.7092 -0.4074 -0.0564
  750MOL0     N 1167  11.251   2.178   6.586 -0.3862 -0.2933 -0.5018
  750MOL0     C 1168  10.477   2.860   5.811  0.5487  0.3776  0.8005
  750MOL0     C 1169  10.380   2.865   5.708 -0.1102 -0.6435 -0.5473
  750MOL0     C 1170  10.170   2.825   5.328 -0.5215  0.5046  0.5974
  750MOL0     C 1171  10.054   2.746   5.344  0.5123 -0.0548 -0.2509
  750MOL0     C 1172   9.961   2.757   5.244  0.8470  0.1027  0.1637
  750MOL0     C 1173   9.969   2.824   5.131 -0.1901  0.8638  0.0685
  750MOL0     O 1174   9.860   2.838   5.048 -0.3500 -0.1877 -0.4246
  750MOL0     C 1175   9.886   2.896   4.923 -0.4304 -1.0741  1.1082
  750MOL0     C 1176   9.783   2.851   4.818 -0.7248  0.7855 -0.4502
  750MOL0     C 1177   9.642   2.877   4.875  1.0329  0.2665 -0.1546
  750MOL0     C 1178   9.528   2.857   4.771 -0.5021 -0.3165  0.0995
  750MOL0     C 1179   9.545   2.921   4.640  0.2632  0.1984 -0.4534
  750MOL0     C 1180   9.561   2.980   4.535 -0.3994  0.1130 -0.3365
  750MOL0     C 1181  10.092   2.895   5.109  0.0648  0.1172 -1.1473
  750MOL0     C 1182  10.186   2.900   5.213 -0.4305  0.0170  0.5281
  750MOL0     H 1183  10.299   2.547   5.681  0.9863  0.1456 -1.1189
  750MOL0     H 1184  10.437   2.530   5.890  0.4463 -2.4732 -4.2661
  750MOL0     H 1185  10.597   2.569   6.103 -0.1312  1.3765  0.5166
  750MOL0     H 1186  10.674   2.566   5.941  1.1329  2.1924 -2.6087
  750MOL0     H 1187  10.837   2.757   6.045  4.5516  0.4219  3.2922
  750MOL0     H 1188  10.753   2.726   6.192 -3.0179  0.9145 -0.9282
  750MOL0     H 1189  10.832   2.465   6.157 -1.6755  0.6440  1.9572
  750MOL0     H 1190  10.917   2.545   6.022 -0.5128 -1.8257  0.4925
  750MOL0     H 1191  11.053   2.665   6.160  0.4637  1.2926  2.1536
  750MOL0     H 1192  10.953   2.630   6.300  0.0115 -0.8524  0.1325
  750MOL0     H 1193  11.005   2.376   6.270  0.6738  0.8898  0.6721
  750MOL0     H 1194  11.109   2.428   6.141  0.2899 -0.9507  0.3564
  750MOL0     H 1195  11.251   2.397   6.349 -0.9177 -1.0725  0.6550
  750MOL0     H 1196  11.216   2.567   6.356  2.0927 -1.6586 -1.8594
  750MOL0     H 1197  11.164   2.485   6.575 -0.6606  2.1424 -0.4969
  750MOL0     H 1198  11.012   2.517   6.500 -0.3857 -0.2517 -1.4322
  750MOL0     H 1199  10.958   2.284   6.483 -1.1296  0.9654  0.2312
  750MOL0     H 1200  11.049   2.291   6.636 -0.6697  2.8248  0.4278
  750MOL0     H 1201  11.080   2.114   6.314  1.8071  2.5326 -1.6297
  750MOL0     H 1202  11.244   1.808   6.463  0.2180 -0.3195 -0.1214
  750MOL0     H 1203  11.171   1.852   6.313 -0.2680  2.6536 -1.2354
  750MOL0     H 1204  11.427   1.780   6.292  0.1820 -0.2185 -1.0832
  750MOL0     H 1205  11.460   1.909   6.405 -1.7987 -0.5528  1.8127
  750MOL0     H 1206  11.425   2.079   6.236  0.7531  0.0050  1.5795
  750MOL0     H 1207  11.323   1.976   6.133 -0.8329 -1.5083  1.0258
  750MOL0     H 1208  11.524   2.011   6.033  1.9452  1.4009  1.2967
  750MOL0     H 1209  11.534   1.841   6.076 -1.8909  0.3164 -0.4095
  750MOL0     H 1210  11.726   1.955   5.937  0.0484  2.4668 -0.7510
  750MOL0     H 1211  11.873   1.885   5.763 -0.5609 -0.5453 -0.0895
  750MOL0     H 1212  12.053   1.887   5.780  1.5961 -2.5884  0.6684
  750MOL0     H 1213  11.952   1.741   5.801 -2.9828 -0.4222  1.6430
  750MOL0     H 1214  12.291   1.523   6.149  0.2488 -0.7010  0.0552
  750MOL0     H 1215  12.488   1.400   6.080  0.4034  0.5202 -2.6630
  750MOL0     H 1216  12.896   1.495   5.899  0.4812 -0.6136  1.6249
  750MOL0     H 1217  12.816   1.640   5.859 -1.4994 -1.6877 -0.5733
  750MOL0     H 1218  12.970   1.682   6.035  0.4474  1.0469 -0.4631
  750MOL0     H 1219  12.814   1.681   6.128 -2.4728 -0.8484 -2.5147
  750MOL0     H 1220  13.003   1.440   6.106  2.3350 -0.7873  3.3675
  750MOL0     H 1221  12.856   1.440   6.189  1.3631 -2.1661 -0.1390
  750MOL0     H 1222  12.941   1.622   6.346 -1.6003 -2.8071  0.7557
  750MOL0     H 1223  13.022   1.477   6.367 -1.1680  0.7104  1.5741
  750MOL0     H 1224  13.210   1.644   6.334  0.6896  0.2473  0.2797
  750MOL0     H 1225  13.149   1.656   6.171  0.7375 -1.2955 -1.0755
  750MOL0     H 1226  13.249   1.407   6.318  2.8772 -0.0762  1.0287
  750MOL0     H 1227  13.211   1.415   6.147 -0.8834 -1.4073  1.3334
  750MOL0     H 1228  13.442   1.544   6.299 -0.8918  2.9855  0.0182
  750MOL0     H 1229  13.403   1.620   6.154  1.5222  0.6013  0.5248
  750MOL0     H 1230  13.468   1.319   6.163  3.1806  0.1889 -0.6419
  750MOL0     H 1231  13.579   1.438   6.119  0.3792  0.4906 -2.0525
  750MOL0     H 1232  12.676   1.767   5.953  0.3788 -0.2336  0.7357
  750MOL0     H 1233  12.463   1.888   5.986  1.1954 -1.1992 -5.5698
  750MOL0     H 1234  12.051   1.799   6.283 -0.8257 -2.5955  0.7183
  750MOL0     H 1235  11.821   1.879   6.342 -1.1425 -0.6079  0.0810
  750MOL0     H 1236  10.528   2.947   5.851  0.7185 -0.6610  3.0294
  750MOL0     H 1237  10.350   2.957   5.659 -0.4879 -1.5518 -2.0943
  750MOL0     H 1238  10.024   2.689   5.431  0.5294  1.0325  0.4719
  750MOL0     H 1239   9.867   2.704   5.251  0.8552 -0.1493 -1.4732
  750MOL0     H 1240   9.890   3.005   4.930  2.5634 -0.7827 -1.9976
  750MOL0     H 1241   9.982   2.855   4.888  1.1291  0.2830  3.5379
  750MOL0     H 1242   9.801   2.744   4.799 -2.6740  0.6240 -1.6945
  750MOL0     H 1243   9.792   2.916   4.731  2.0996  0.3155 -0.6009
  750MOL0     H 1244   9.642   2.984   4.897 -2.1544  0.1208  1.1145
  750MOL0     H 1245   9.619   2.811   4.959  0.6581  0.9301  0.2770
  750MOL0     H 1246   9.434   2.886   4.820 -1.0832 -0.9223 -0.6161
  750MOL0     H 1247   9.514   2.749   4.766  0.2433 -0.4438  0.6670
  750MOL0     H 1248   9.591   3.019   4.440 -2.9518  0.1490 -1.2098
  750MOL0     H 1249  10.106   2.963   5.026 -1.0008  1.8333  0.0251
  750MOL0     H 1250  10.271   2.966   5.200 -2.2543  2.1288 -1.6791
  751MOL0     O 1251  10.747   6.457   7.286  0.5920 -0.7356  0.9502
  751MOL0     C 1252  10.664   6.417   7.207 -0.5546 -0.2130  0.3806
  751MOL0     O 1253  10.686   6.338   7.100  0.3887 -0.4657  0.2280
  751MOL0     C 1254  10.812   6.299   7.065  1.3133 -0.4473  1.1392
  751MOL0     C 1255  10.921   6.382   7.044  0.1908 -0.2947 -0.1758
  751MOL0     C 1256  11.052   6.332   7.037 -0.4286  0.0138  0.2579
  751MOL0     C 1257  11.069   6.195   7.037 -0.1480 -0.2891 -0.0256
  751MOL0     O 1258  11.197   6.149   7.020  0.4159  0.5722  0.4527
  751MOL0     C 1259  11.215   6.078   6.904  0.5563 -0.3199  0.2368
  751MOL0     C 1260  11.284   5.939   6.923  0.4054 -1.0273  0.5675
  751MOL0     C 1261  11.429   5.952   6.959  0.0573  0.2676  0.2486
  751MOL0     C 1262  11.458   5.949   7.112 -0.5464  0.0165 -0.0729
  751MOL0     C 1263  11.611   5.942   7.149 -0.3778 -0.6315  0.0562
  751MOL0     C 1264  11.638   5.948   7.299 -0.5307  0.2000  0.7702
  751MOL0     C 1265  11.567   5.839   7.382  0.0959 -0.0495  0.9674
  751MOL0     C 1266  11.605   5.690   7.366  0.0448 -0.2979 -0.6635
  751MOL0     N 1267  11.533   5.592   7.453 -0.3740  0.1397  0.0887
  751MOL0     C 1268  11.542   5.597   7.583 -0.5799  0.1778 -0.1861
  751MOL0     C 1269  11.463   5.498   7.624 -0.0149 -1.2210  0.2381
  751MOL0     C 1270  11.416   5.491   7.767 -0.7809 -0.3513 -0.0020
  751MOL0     C 1271  11.288   5.568   7.810  0.2782 -0.0437  0.6389
  751MOL0     C 1272  11.165   5.511   7.731  0.1854  0.2841 -0.2621
  751MOL0     C 1273  11.043   5.590   7.772  0.7158 -0.6464  0.3906
  751MOL0     O 1274  10.936   5.541   7.691 -0.3441  0.2661 -0.0350
  751MOL0     C 1275  10.814   5.601   7.703 -0.0638  0.2958  0.7145
  751MOL0     C 1276  10.765   5.638   7.830  1.3073  0.4781  0.0872
  751MOL0     C 1277  10.644   5.702   7.841 -0.2222  0.2662 -0.4091
  751MOL0     C 1278  10.605   5.735   7.982 -0.3944  0.0680  0.0426
  751MOL0     C 1279  10.565   5.725   7.732  0.1566 -0.7363 -0.1917
  751MOL0     C 1280  10.420   5.786   7.746 -0.0044  0.0943  0.1196
  751MOL0     O 1281  10.366   5.801   7.623 -0.0178  0.4974 -0.1389
  751MOL0     C 1282  10.240   5.774   7.594 -0.1409 -0.6248 -0.4475
  751MOL0     C 1283  10.142   5.709   7.670 -0.1573 -0.2709 -0.3255
  751MOL0     C 1284  10.017   5.687   7.613  0.1681 -0.0834 -0.4364
  751MOL0     C 1285   9.992   5.716   7.475 -0.3560 -0.1189 -0.6243
  751MOL0     O 1286   9.880   5.692   7.406  0.1359  0.2623  0.6454
  751MOL0     C 1287   9.794   5.596   7.475 -0.2973 -0.6432 -0.3207
  751MOL0     C 1288   9.690   5.564   7.371 -0.1974 -0.3461  0.4593
  751MOL0     C 1289   9.600   5.450   7.426  0.3540 -0.1594 -1.2158
  751MOL0     C 1290   9.506   5.511   7.535 -0.6614  0.2091 -0.3351
  751MOL0     C 1291   9.392   5.411   7.567  1.2440 -0.2003  0.9799
  751MOL0     C 1292   9.288   5.412   7.449  0.6274  0.0392  0.5593
  751MOL0     C 1293   9.153   5.344   7.468  0.5737 -0.1441 -0.2048
  751MOL0     C 1294   9.155   5.201   7.522 -1.3968  0.0297  0.2879
  751MOL0    Cl 1295   9.006   5.112   7.490 -0.5166 -0.1588 -0.4890
  751MOL0     C 1296  10.091   5.774   7.405 -0.2228  0.2020  0.5519
  751MOL0     C 1297  10.212   5.811   7.463 -0.7297 -0.1816  0.1358
  751MOL0     O 1298  10.370   5.814   7.854  0.3438 -0.4319 -0.2812
  751MOL0     C 1299  10.613   5.684   7.602 -0.0401 -0.0381 -0.5397
  751MOL0     C 1300  10.735   5.623   7.588  0.1340  0.7200 -0.3151
  751MOL0     N 1301  11.412   5.431   7.518 -0.0855 -0.0401 -1.0694
  751MOL0     N 1302  11.447   5.497   7.417 -0.6934  0.6211  0.0311
  751MOL0     C 1303  10.972   6.112   7.060  1.2552  0.9557  0.3074
  751MOL0     C 1304  10.842   6.163   7.071 -0.5678 -0.4898 -0.0566
  751MOL0     C 1305  10.522   6.452   7.235 -0.8028 -0.6163  0.2882
  751MOL0     C 1306  10.415   6.424   7.143 -1.3792 -0.8253  0.2039
  751MOL0     C 1307  10.284   6.469   7.184  1.2160  0.2870  0.1814
  751MOL0     C 1308  10.247   6.511   7.313 -0.2733 -0.2077  0.3441
  751MOL0     O 1309  10.112   6.530   7.331 -0.8296 -0.0307  0.5581
  751MOL0     C 1310  10.072   6.544   7.462  0.6099  0.2393 -0.3658
  751MOL0     C 1311   9.918   6.564   7.456 -0.4120  0.8135 -0.0723
  751MOL0     C 1312   9.894   6.701   7.398 -0.2930 -0.1023  0.5911
  751MOL0     C 1313   9.748   6.751   7.386 -0.7072 -0.4584 -0.0755
  751MOL0     C 1314   9.683   6.720   7.511 -0.7242  0.7189  0.3872
  751MOL0     C 1315   9.629   6.671   7.611 -0.1133  0.3718  0.3870
  751MOL0     C 1316  10.352   6.537   7.403 -0.3755  0.2561  0.7163
  751MOL0     C 1317  10.487   6.509   7.363 -0.3119  0.1215  0.6592
  751MOL0     H 1318  10.928   6.490   7.050  0.4273 -0.2593 -0.9508
  751MOL0     H 1319  11.144   6.388   7.030  1.1651 -2.5490 -0.3687
  751MOL0     H 1320  11.120   6.054   6.855  0.3119 -1.8104  1.3817
  751MOL0     H 1321  11.275   6.139   6.836  2.0079 -1.9803 -0.0148
  751MOL0     H 1322  11.242   5.859   6.985 -0.1917 -0.4139  0.9668
  751MOL0     H 1323  11.289   5.886   6.828  3.2264  0.5558 -0.2994
  751MOL0     H 1324  11.487   5.875   6.906 -1.8302 -0.6991 -0.5364
  751MOL0     H 1325  11.469   6.046   6.920  2.3228  0.3728  2.5201
  751MOL0     H 1326  11.427   6.044   7.157  1.9027  1.5831 -1.4437
  751MOL0     H 1327  11.423   5.859   7.162  0.2473 -1.0531 -1.3672
  751MOL0     H 1328  11.665   5.852   7.118  3.9455  1.8321 -0.3966
  751MOL0     H 1329  11.663   6.029   7.106  1.7582 -1.1114  1.4907
  751MOL0     H 1330  11.743   5.921   7.315 -0.8444 -0.2099  2.2603
  751MOL0     H 1331  11.613   6.042   7.350  0.8424  1.3182 -0.5082
  751MOL0     H 1332  11.579   5.870   7.486 -2.5222 -0.1696  1.3845
  751MOL0     H 1333  11.458   5.846   7.374  0.1125  1.2119  1.6636
  751MOL0     H 1334  11.710   5.673   7.390 -0.4221 -3.1166 -0.1789
  751MOL0     H 1335  11.596   5.663   7.261  4.1766  0.4202 -1.3483
  751MOL0     H 1336  11.598   5.668   7.643  2.3129 -0.9383 -1.3938
  751MOL0     H 1337  11.403   5.384   7.784 -2.3008 -0.0743  0.7229
  751MOL0     H 1338  11.494   5.533   7.831 -0.6710 -0.2608 -0.1944
  751MOL0     H 1339  11.307   5.672   7.784  2.9262 -0.3446  1.0823
  751MOL0     H 1340  11.277   5.555   7.918 -3.4992 -2.9499  0.1100
  751MOL0     H 1341  11.153   5.407   7.763 -4.4591  1.3805  2.4921
  751MOL0     H 1342  11.173   5.514   7.622 -1.3477 -2.0393 -0.5116
  751MOL0     H 1343  11.059   5.698   7.765  2.6659 -0.6755  3.0687
  751MOL0     H 1344  11.037   5.576   7.880  3.3080 -4.2908  0.2305
  751MOL0     H 1345  10.824   5.607   7.915  1.5425  0.5852 -0.0334
  751MOL0     H 1346  10.584   5.842   7.995  0.4249  0.0566  1.7304
  751MOL0     H 1347  10.526   5.676   8.028 -0.7657 -0.8659 -1.6846
  751MOL0     H 1348  10.695   5.721   8.043  0.8494 -2.2488 -2.1179
  751MOL0     H 1349  10.170   5.669   7.768 -1.2361  0.2140  0.1926
  751MOL0     H 1350   9.951   5.628   7.676 -1.7218 -0.2861 -2.4904
  751MOL0     H 1351   9.849   5.504   7.494  0.4188 -0.1456  0.0418
  751MOL0     H 1352   9.767   5.646   7.569  1.3548  1.4454 -0.8996
  751MOL0     H 1353   9.636   5.651   7.332  2.4095  0.8376 -0.7939
  751MOL0     H 1354   9.758   5.544   7.287  0.9171  1.9562  0.7446
  751MOL0     H 1355   9.648   5.364   7.473  0.6855  1.6171  2.0411
  751MOL0     H 1356   9.533   5.412   7.349  1.1510 -3.0142 -0.6130
  751MOL0     H 1357   9.557   5.522   7.631 -1.5074  1.4496 -0.0044
  751MOL0     H 1358   9.469   5.608   7.502 -2.2850  0.3255  1.6373
  751MOL0     H 1359   9.335   5.436   7.657  2.1193  1.0375  1.2085
  751MOL0     H 1360   9.427   5.308   7.581  1.5174 -0.4983 -1.4089
  751MOL0     H 1361   9.277   5.519   7.427 -0.6740 -0.6492 -2.6117
  751MOL0     H 1362   9.334   5.366   7.361  0.3661 -1.3266  1.1064
  751MOL0     H 1363   9.111   5.343   7.367  0.1172  0.3798 -0.0254
  751MOL0     H 1364   9.088   5.402   7.534  2.4673  0.4512  1.2336
  751MOL0     H 1365   9.184   5.192   7.627  0.8790  1.9712 -0.0772
  751MOL0     H 1366   9.236   5.152   7.468 -1.8330  1.8876 -2.2680
  751MOL0     H 1367  10.081   5.785   7.297  0.2117  0.3298  0.5205
  751MOL0     H 1368  10.281   5.856   7.393 -0.4260  2.6918  2.0633
  751MOL0     H 1369  10.559   5.692   7.508 -0.7384 -0.6020 -0.1972
  751MOL0     H 1370  10.761   5.586   7.490  0.6994  0.1376  0.0395
  751MOL0     H 1371  10.985   6.004   7.064 -1.7258  0.4078 -2.0212
  751MOL0     H 1372  10.771   6.085   7.096  0.9736 -2.0668 -0.4474
  751MOL0     H 1373  10.436   6.374   7.049 -0.9386  0.1318 -0.2182
  751MOL0     H 1374  10.210   6.447   7.108  1.9393 -1.8640  0.0340
  751MOL0     H 1375  10.090   6.449   7.513 -2.3578 -0.4098 -0.3449
  751MOL0     H 1376  10.115   6.625   7.521 -0.1320  0.2334  0.2094
  751MOL0     H 1377   9.884   6.550   7.559 -0.6345 -0.8532 -0.3357
  751MOL0     H 1378   9.866   6.485   7.400 -0.2548 -0.8828  2.0576
  751MOL0     H 1379   9.938   6.696   7.298 -1.0233 -2.5005  0.3327
  751MOL0     H 1380   9.939   6.783   7.455 -1.1513 -1.5051  3.4409
  751MOL0     H 1381   9.691   6.703   7.306 -1.3115  0.2027 -0.0608
  751MOL0     H 1382   9.741   6.860   7.378 -0.4000 -0.4934 -0.9758
  751MOL0     H 1383   9.591   6.627   7.702 -3.2849 -0.7032 -1.3008
  751MOL0     H 1384  10.343   6.556   7.509  1.6658  0.5364  0.8736
  751MOL0     H 1385  10.561   6.533   7.439  1.9964  1.4274 -1.8357
  752MOL0     O 1386   2.912   9.660   0.480  0.3351 -0.1973 -0.5643
  752MOL0     C 1387   2.904   9.632   0.600 -0.8628 -0.3398 -0.3123
  752MOL0     O 1388   2.816   9.690   0.685 -0.4886 -0.6243 -0.6860
  752MOL0     C 1389   2.724   9.777   0.637 -0.8856  0.2703 -0.8163
  752MOL0     C 1390   2.592   9.733   0.620 -0.7137  0.1718  0.5001
  752MOL0     C 1391   2.485   9.829   0.597 -0.2327 -0.3977 -0.3364
  752MOL0     C 1392   2.514   9.967   0.586  0.5070  0.9848 -0.1712
  752MOL0     O 1393   2.414  10.052   0.559 -0.4107  0.9756  0.1017
  752MOL0     C 1394   2.421  10.190   0.603 -0.3280  0.0183  0.2739
  752MOL0     C 1395   2.307  10.278   0.539 -0.0343  1.1345 -0.2335
  752MOL0     C 1396   2.282  10.405   0.610  0.1703 -0.4811  0.8280
  752MOL0     C 1397   2.154  10.481   0.570 -0.2590 -1.0227 -0.5293
  752MOL0     C 1398   2.127  10.608   0.658 -0.3265  0.7157 -0.4367
  752MOL0     C 1399   1.987  10.661   0.638 -1.0045  0.7844 -0.7403
  752MOL0     C 1400   1.993  10.789   0.720  0.3729 -0.5623  0.6896
  752MOL0     C 1401   1.845  10.846   0.711 -0.1006  0.7864  0.2935
  752MOL0     N 1402   1.832  10.981   0.764  0.0674 -0.0779 -0.1003
  752MOL0     C 1403   1.828  11.025   0.895  0.0036 -0.5784  0.1302
  752MOL0     C 1404   1.832  11.163   0.886  0.0234  0.6892  0.1232
  752MOL0     C 1405   1.841  11.248   1.011 -0.0589 -0.0385  0.7773
  752MOL0     C 1406   1.701  11.289   1.051  0.2846 -0.5032 -0.6114
  752MOL0     C 1407   1.630  11.191   1.141  0.2211 -0.2654 -0.3379
  752MOL0     C 1408   1.485  11.232   1.164 -0.0450 -0.6195  0.2337
  752MOL0     O 1409   1.436  11.142   1.260 -0.8422 -0.3059  0.8040
  752MOL0     C 1410   1.305  11.144   1.307 -0.3375  0.0823  0.7999
  752MOL0     C 1411   1.210  11.226   1.254 -0.7379 -0.6295  0.1643
  752MOL0     C 1412   1.087  11.247   1.312  0.3667 -1.1680  0.4817
  752MOL0     C 1413   0.990  11.333   1.231  1.0118 -0.2705 -0.0191
  752MOL0     C 1414   1.050  11.174   1.430 -0.3490 -1.0048 -0.0808
  752MOL0     C 1415   0.922  11.181   1.506  0.1619 -0.1408 -0.1266
  752MOL0     O 1416   0.836  11.283   1.485 -0.3022 -0.2492  0.1833
  752MOL0     C 1417   0.710  11.285   1.548 -0.4350 -0.1138 -0.3640
  752MOL0     C 1418   0.603  11.314   1.462  0.7021  0.1096  0.2962
  752MOL0     C 1419   0.471  11.332   1.509 -0.6730  0.3556  0.5026
  752MOL0     C 1420   0.449  11.326   1.651 -0.8161 -0.3628 -0.6948
  752MOL0     O 1421   0.337  11.363   1.710  0.2507 -0.3817 -0.2780
  752MOL0     C 1422   0.221  11.291   1.653  0.1749 -1.1152  0.2937
  752MOL0     C 1423   0.099  11.290   1.759 -0.1146 -0.2347 -0.1462
  752MOL0     C 1424  -0.016  11.197   1.715  0.3576 -0.6321 -0.3316
  752MOL0     C 1425  -0.114  11.174   1.831  0.1123  0.0300 -0.4065
  752MOL0     C 1426  -0.246  11.089   1.795 -0.9679 -0.1474 -0.1126
  752MOL0     C 1427  -0.335  11.163   1.712  0.1815  0.0619 -0.2997
  752MOL0     C 1428  -0.473  11.089   1.684 -0.7291  0.4730 -0.0125
  752MOL0     C 1429  -0.544  11.161   1.571 -0.4148 -0.2838 -0.5010
  752MOL0    Cl 1430  -0.693  11.072   1.514  0.1622 -0.5428 -0.5445
  752MOL0     C 1431   0.551  11.289   1.731 -0.0364 -0.8415  0.5432
  752MOL0     C 1432   0.685  11.262   1.680  0.0901  0.5392  0.7303
  752MOL0     O 1433   0.908  11.089   1.597 -0.2524 -0.0455  0.2193
  752MOL0     C 1434   1.136  11.076   1.474  0.5110  0.4928  0.0639
  752MOL0     C 1435   1.264  11.066   1.417 -0.1926  0.4855  0.7584
  752MOL0     N 1436   1.840  11.198   0.752 -0.1083 -0.3132 -0.7169
  752MOL0     N 1437   1.844  11.091   0.684 -0.1003  0.3953 -0.1485
  752MOL0     C 1438   2.654  10.003   0.588 -0.0399 -0.1965  0.4068
  752MOL0     C 1439   2.753   9.911   0.628 -0.0035  0.9302 -0.3894
  752MOL0     C 1440   3.009   9.537   0.653  1.1303 -0.1937 -0.3683
  752MOL0     C 1441   3.099   9.464   0.570  0.2655  0.4909 -0.0975
  752MOL0     C 1442   3.195   9.382   0.626  0.2097  0.2236 -0.2611
  752MOL0     C 1443   3.196   9.369   0.766  0.0899 -0.4562 -0.3835
  752MOL0     O 1444   3.283   9.281   0.826 -0.6052 -0.5218  0.6543
  752MOL0     C 1445   3.388   9.215   0.755  0.0489  0.2746  0.0099
  752MOL0     C 1446   3.486   9.127   0.838 -0.1359  0.8225 -0.0023
  752MOL0     C 1447   3.423   9.047   0.947  0.7949  0.6042  0.6929
  752MOL0     C 1448   3.516   8.943   1.009  0.2609 -0.3363  0.1019
  752MOL0     C 1449   3.436   8.858   1.100 -0.5730 -0.5211  0.4340
  752MOL0     C 1450   3.373   8.779   1.155  0.1698 -0.1507 -0.3726
  752MOL0     C 1451   3.111   9.445   0.845  0.6172 -0.2273  0.8312
  752MOL0     C 1452   3.018   9.524   0.788  0.5909 -0.3346  0.3480
  752MOL0     H 1453   2.572   9.630   0.650 -2.3016  0.2715 -0.1164
  752MOL0     H 1454   2.385   9.786   0.590  0.0791 -1.0573 -0.9127
  752MOL0     H 1455   2.404  10.184   0.711 -0.6007 -3.4838  0.1490
  752MOL0     H 1456   2.513  10.245   0.582  0.8719 -0.9577  2.5984
  752MOL0     H 1457   2.329  10.296   0.433 -1.7899  0.9752 -0.6443
  752MOL0     H 1458   2.216  10.219   0.551  0.2737  1.1816  3.4555
  752MOL0     H 1459   2.278  10.394   0.719 -3.0718 -0.3700  0.8193
  752MOL0     H 1460   2.360  10.479   0.588  1.6900 -2.8951 -2.9995
  752MOL0     H 1461   2.151  10.520   0.468  1.5298  1.1471  0.1635
  752MOL0     H 1462   2.071  10.411   0.580 -1.3006  0.3062  0.4501
  752MOL0     H 1463   2.135  10.587   0.765 -0.7686  0.3971 -0.4619
  752MOL0     H 1464   2.203  10.680   0.626  0.6170  0.4735  1.1513
  752MOL0     H 1465   1.977  10.693   0.534 -0.4198  0.6876 -0.8323
  752MOL0     H 1466   1.915  10.585   0.669 -0.6363  0.0278 -1.6893
  752MOL0     H 1467   2.025  10.775   0.824 -3.6857 -2.8054  1.8968
  752MOL0     H 1468   2.061  10.858   0.670  0.4016 -1.2791 -0.2775
  752MOL0     H 1469   1.788  10.791   0.786 -0.0750  0.6273  0.1968
  752MOL0     H 1470   1.804  10.833   0.610 -2.3354 -1.2956  1.3508
  752MOL0     H 1471   1.845  10.951   0.973  0.1741 -2.0849 -1.2630
  752MOL0     H 1472   1.892  11.205   1.098  3.1485  3.3911  0.8152
  752MOL0     H 1473   1.894  11.339   0.985  3.6648 -2.1419  0.3530
  752MOL0     H 1474   1.648  11.317   0.960 -1.3041  0.8739  0.6741
  752MOL0     H 1475   1.722  11.377   1.112  1.7398 -0.2034 -1.4996
  752MOL0     H 1476   1.685  11.188   1.235 -2.9808 -0.5718  1.6747
  752MOL0     H 1477   1.638  11.092   1.094  1.3243 -0.1540 -0.4172
  752MOL0     H 1478   1.432  11.223   1.069  0.8865 -0.6681 -0.2927
  752MOL0     H 1479   1.487  11.338   1.191  3.1231 -0.7169  0.8345
  752MOL0     H 1480   1.234  11.273   1.160 -2.3461 -0.4884 -0.1994
  752MOL0     H 1481   0.945  11.412   1.293  0.4956 -1.7396  1.5546
  752MOL0     H 1482   1.042  11.371   1.143  0.8810 -1.4656 -0.6295
  752MOL0     H 1483   0.906  11.270   1.199  0.4203 -1.0724  2.8421
  752MOL0     H 1484   0.626  11.320   1.356  2.3879 -0.4999  0.5916
  752MOL0     H 1485   0.389  11.366   1.446 -0.7530 -0.1940  0.3064
  752MOL0     H 1486   0.203  11.342   1.558 -1.0808 -0.5691  0.7938
  752MOL0     H 1487   0.250  11.187   1.638  1.3641 -0.5043 -2.0938
  752MOL0     H 1488   0.134  11.249   1.855 -4.0183  0.1156  1.6404
  752MOL0     H 1489   0.077  11.396   1.772 -1.0573 -0.5193  0.7575
  752MOL0     H 1490   0.026  11.099   1.696 -0.9807 -1.1787 -0.5990
  752MOL0     H 1491  -0.072  11.245   1.634  0.9272 -0.4695 -0.6359
  752MOL0     H 1492  -0.065  11.108   1.903  1.2375 -1.5570 -2.5277
  752MOL0     H 1493  -0.139  11.271   1.874  3.2124  0.9282 -0.4014
  752MOL0     H 1494  -0.288  11.060   1.892  0.1411 -2.7510 -0.3409
  752MOL0     H 1495  -0.238  10.984   1.764 -0.0369 -1.9188  5.0900
  752MOL0     H 1496  -0.347  11.264   1.751  1.3813  0.2474 -0.3726
  752MOL0     H 1497  -0.284  11.180   1.616  1.2436 -2.3880 -0.2365
  752MOL0     H 1498  -0.538  11.086   1.772 -0.5048 -0.8017  0.1183
  752MOL0     H 1499  -0.447  10.989   1.650  2.4394  1.1271  0.0991
  752MOL0     H 1500  -0.473  11.174   1.489  0.1288 -0.7173 -0.1045
  752MOL0     H 1501  -0.583  11.259   1.600 -0.7362 -0.7485  0.6991
  752MOL0     H 1502   0.517  11.271   1.832 -2.4543  0.8507  0.1214
  752MOL0     H 1503   0.764  11.223   1.742  1.2844  0.3655 -0.8244
  752MOL0     H 1504   1.128  11.017   1.565 -0.1803 -0.6994 -0.7377
  752MOL0     H 1505   1.337  11.006   1.470 -0.7646  0.3145  1.3633
  752MOL0     H 1506   2.692  10.104   0.579  0.1346 -0.2072  0.9977
  752MOL0     H 1507   2.859   9.929   0.646  0.0462 -1.0566  1.7806
  752MOL0     H 1508   3.086   9.467   0.462 -2.4128 -1.9021  0.0470
  752MOL0     H 1509   3.257   9.332   0.552  0.3593 -0.1959  0.1428
  752MOL0     H 1510   3.351   9.151   0.675  1.0087  0.5934 -0.7074
  752MOL0     H 1511   3.448   9.284   0.695 -2.0565 -0.0377 -2.6537
  752MOL0     H 1512   3.559   9.191   0.888  0.4159  0.7035 -0.6453
  752MOL0     H 1513   3.548   9.068   0.770 -1.1471 -1.6655  1.1142
  752MOL0     H 1514   3.361   8.982   0.884  2.7263  1.0796 -1.8616
  752MOL0     H 1515   3.359   9.100   1.018 -2.0094 -2.2582  0.5488
  752MOL0     H 1516   3.593   9.002   1.060 -1.1972  1.2991  0.5131
  752MOL0     H 1517   3.556   8.878   0.931  0.2064  2.1342 -2.1288
  752MOL0     H 1518   3.301   8.710   1.194 -2.1562  1.5826 -1.4023
  752MOL0     H 1519   3.108   9.405   0.946  1.9435 -4.4993 -0.6158
  752MOL0     H 1520   2.951   9.572   0.859 -1.4154 -2.5369  0.0506
  753MOL0     O 1521   9.881   9.223   2.743  0.4614  0.2740  0.2547
  753MOL0     C 1522   9.945   9.173   2.647  0.7405  0.5645 -0.2365
  753MOL0     O 1523   9.914   9.057   2.581  0.1219 -0.1901 -0.8852
  753MOL0     C 1524   9.791   8.998   2.599  0.0914 -0.5367 -0.4003
  753MOL0     C 1525   9.780   8.856   2.604  0.1936 -0.4469 -0.6045
  753MOL0     C 1526   9.657   8.792   2.606  0.3339 -0.1324 -0.2963
  753MOL0     C 1527   9.544   8.870   2.587 -0.3800  0.5810 -0.3638
  753MOL0     O 1528   9.421   8.803   2.589 -0.2040 -0.7471  0.1498
  753MOL0     C 1529   9.302   8.867   2.559 -0.2191 -0.7296  0.4483
  753MOL0     C 1530   9.190   8.762   2.552  0.0443 -0.0688 -0.3504
  753MOL0     C 1531   9.062   8.823   2.493 -0.5886 -0.1203  1.1627
  753MOL0     C 1532   9.064   8.824   2.340 -0.6238  0.9267 -0.3134
  753MOL0     C 1533   8.940   8.883   2.275 -0.1501  0.1993 -0.2110
  753MOL0     C 1534   8.811   8.796   2.260  0.1576 -0.5584  0.1757
  753MOL0     C 1535   8.688   8.883   2.231  0.1911  0.0605  0.2757
  753MOL0     C 1536   8.570   8.810   2.175  0.0801 -0.6802 -0.1967
  753MOL0     N 1537   8.508   8.723   2.282 -0.6655 -0.3974  0.3524
  753MOL0     C 1538   8.415   8.762   2.372 -0.0623 -1.0344 -0.9622
  753MOL0     C 1539   8.391   8.657   2.459 -0.3026 -0.0125  0.2489
  753MOL0     C 1540   8.303   8.663   2.580  0.4012 -0.3757  0.4017
  753MOL0     C 1541   8.380   8.692   2.705 -0.2719 -0.3148 -0.7161
  753MOL0     C 1542   8.457   8.829   2.710 -0.3002  0.1764 -0.3779
  753MOL0     C 1543   8.374   8.952   2.689 -0.0971 -0.0366 -0.4741
  753MOL0     O 1544   8.256   8.951   2.777  0.3309 -0.3804 -0.7193
  753MOL0     C 1545   8.267   8.998   2.908  1.0457 -0.7270 -0.6912
  753MOL0     C 1546   8.381   9.023   2.996  0.6535 -0.0479  0.1989
  753MOL0     C 1547   8.359   9.072   3.129  1.0221 -0.0996  0.1449
  753MOL0     C 1548   8.480   9.102   3.215  0.1800  1.3738 -0.0795
  753MOL0     C 1549   8.231   9.096   3.179  0.1056 -0.1090  0.0585
  753MOL0     C 1550   8.205   9.137   3.326 -0.0251  0.0646 -0.1692
  753MOL0     O 1551   8.288   9.096   3.428  0.3422 -0.0245 -0.7123
  753MOL0     C 1552   8.259   9.145   3.557  1.0159 -0.0956 -0.1193
  753MOL0     C 1553   8.257   9.279   3.597  0.6388  0.8807  0.4637
  753MOL0     C 1554   8.233   9.307   3.734 -0.3074 -0.3773  0.7940
  753MOL0     C 1555   8.203   9.212   3.826  0.1655 -0.2241 -0.2307
  753MOL0     O 1556   8.154   9.243   3.950  0.2901 -0.1433 -0.2208
  753MOL0     C 1557   8.014   9.275   3.948  0.2427 -0.0376 -0.1356
  753MOL0     C 1558   7.975   9.388   4.044  0.1208  0.1397  0.0911
  753MOL0     C 1559   7.823   9.373   4.078  0.2636 -0.1850  0.3068
  753MOL0     C 1560   7.768   9.463   4.180  0.1287  0.0939  0.6420
  753MOL0     C 1561   7.619   9.419   4.214  0.0580 -0.0858  0.7043
  753MOL0     C 1562   7.541   9.517   4.299  0.5740  0.1064 -0.7775
  753MOL0     C 1563   7.515   9.643   4.227  0.5186  0.3029  0.5561
  753MOL0     C 1564   7.453   9.751   4.309  0.0941 -0.6321  0.0182
  753MOL0    Cl 1565   7.561   9.774   4.442 -0.0033  0.5082  0.7543
  753MOL0     C 1566   8.209   9.082   3.788 -0.4222 -0.6968  0.3735
  753MOL0     C 1567   8.236   9.048   3.655 -0.4537  0.5245 -0.0557
  753MOL0     O 1568   8.111   9.201   3.341  0.3244  0.1192  0.4492
  753MOL0     C 1569   8.121   9.086   3.083 -0.2112  0.0645 -0.4095
  753MOL0     C 1570   8.139   9.037   2.956 -0.4194  0.6009 -0.9987
  753MOL0     N 1571   8.466   8.551   2.414  0.0333  0.1801 -0.2028
  753MOL0     N 1572   8.538   8.595   2.315 -0.6718 -1.0677  0.6384
  753MOL0     C 1573   9.553   9.011   2.581  0.1872  0.2175  0.4804
  753MOL0     C 1574   9.672   9.080   2.591 -0.3135  0.8440  0.9746
  753MOL0     C 1575  10.071   9.245   2.607  0.4335  0.2836 -0.8460
  753MOL0     C 1576  10.131   9.216   2.481 -0.2992 -0.4238  0.1366
  753MOL0     C 1577  10.265   9.239   2.458 -0.2476 -1.5702 -0.5093
  753MOL0     C 1578  10.336   9.320   2.550  0.5940 -0.6223 -0.0982
  753MOL0     O 1579  10.466   9.362   2.528  1.0400  0.1609  0.1611
  753MOL0     C 1580  10.493   9.419   2.390  1.0212 -0.2838  0.0186
  753MOL0     C 1581  10.547   9.318   2.299 -0.8124  0.1760  0.2903
  753MOL0     C 1582  10.704   9.336   2.296 -0.0081 -0.1358 -0.7533
  753MOL0     C 1583  10.766   9.209   2.242  0.1429 -0.9941  0.6405
  753MOL0     C 1584  10.913   9.210   2.222  0.5793 -0.6934  0.5169
  753MOL0     C 1585  11.037   9.209   2.232  0.6359 -0.4261  0.2410
  753MOL0     C 1586  10.280   9.336   2.679 -0.1758 -0.0610  0.0882
  753MOL0     C 1587  10.150   9.301   2.713  0.7360  0.3510  0.5415
  753MOL0     H 1588   9.872   8.797   2.598 -0.3578 -1.4113  0.1724
  753MOL0     H 1589   9.652   8.684   2.609  0.0068 -0.1525 -1.2232
  753MOL0     H 1590   9.280   8.949   2.628 -1.2774 -1.1576  0.6388
  753MOL0     H 1591   9.291   8.917   2.462 -0.0112  0.0325  0.8070
  753MOL0     H 1592   9.219   8.669   2.503 -3.2416 -1.3521 -0.1654
  753MOL0     H 1593   9.177   8.737   2.658 -0.9623  1.9923  0.0624
  753MOL0     H 1594   8.989   8.757   2.541 -0.3274  0.2750  2.1434
  753MOL0     H 1595   9.039   8.921   2.536 -2.5546  0.0980 -0.2638
  753MOL0     H 1596   9.149   8.885   2.309  0.4933 -0.8463 -0.9002
  753MOL0     H 1597   9.072   8.720   2.306 -1.7060 -0.2017  2.5448
  753MOL0     H 1598   8.921   8.980   2.323  2.0442  1.3051 -1.4182
  753MOL0     H 1599   8.979   8.905   2.175  0.0875 -0.1148 -0.1870
  753MOL0     H 1600   8.838   8.735   2.173  2.2815 -0.4980  0.7213
  753MOL0     H 1601   8.792   8.734   2.347 -1.6449  0.6571  0.7093
  753MOL0     H 1602   8.651   8.923   2.326  0.0807 -0.1676  0.3294
  753MOL0     H 1603   8.716   8.962   2.160 -1.3717  1.4568  1.1614
  753MOL0     H 1604   8.591   8.744   2.091 -1.7796 -0.1972 -1.0826
  753MOL0     H 1605   8.495   8.886   2.152  1.3077  0.6484  0.0239
  753MOL0     H 1606   8.361   8.856   2.378  2.2054  0.4468 -2.2322
  753MOL0     H 1607   8.224   8.736   2.562 -0.5432 -1.5560 -0.4083
  753MOL0     H 1608   8.262   8.564   2.597  1.1211 -0.8382 -0.4477
  753MOL0     H 1609   8.451   8.608   2.713 -1.1291 -0.8531  2.0779
  753MOL0     H 1610   8.305   8.683   2.784  1.1548  0.5403  0.7794
  753MOL0     H 1611   8.536   8.829   2.634  1.6649 -4.3981  1.2704
  753MOL0     H 1612   8.507   8.850   2.805 -2.6933  1.0086  0.7549
  753MOL0     H 1613   8.349   8.966   2.583  1.3656  0.2305 -0.8115
  753MOL0     H 1614   8.442   9.036   2.705 -1.1616  0.7434  0.0363
  753MOL0     H 1615   8.483   9.013   2.960  1.2393 -0.6071  1.8978
  753MOL0     H 1616   8.467   9.201   3.261  1.0694  1.6213 -0.3314
  753MOL0     H 1617   8.490   9.028   3.294 -1.2179  2.5935  1.3070
  753MOL0     H 1618   8.571   9.107   3.155 -0.0041  3.8176 -0.2767
  753MOL0     H 1619   8.277   9.358   3.525 -0.4071  1.3445  0.6696
  753MOL0     H 1620   8.227   9.411   3.762 -1.7399 -0.6420  1.5814
  753MOL0     H 1621   7.975   9.295   3.848 -0.4942 -4.1883 -0.8599
  753MOL0     H 1622   7.961   9.187   3.987  0.8999 -0.0372  0.7847
  753MOL0     H 1623   8.045   9.374   4.126  1.4926 -1.6456 -1.2913
  753MOL0     H 1624   7.990   9.488   4.002  0.9310 -0.4670 -1.1072
  753MOL0     H 1625   7.801   9.275   4.121 -0.3024  0.0012  0.4342
  753MOL0     H 1626   7.768   9.378   3.984 -1.5036 -0.1950  1.3117
  753MOL0     H 1627   7.824   9.449   4.272 -2.3228 -0.0520  2.2086
  753MOL0     H 1628   7.783   9.559   4.130  0.5980 -0.0282  0.5462
  753MOL0     H 1629   7.628   9.321   4.262  2.5559 -0.2534  0.0257
  753MOL0     H 1630   7.570   9.412   4.117  1.5517 -1.2747 -0.0024
  753MOL0     H 1631   7.444   9.492   4.342  1.4035  0.7743  1.6012
  753MOL0     H 1632   7.605   9.537   4.385 -1.4966  1.3947  0.5681
  753MOL0     H 1633   7.442   9.631   4.146 -0.0361  1.8928  0.7785
  753MOL0     H 1634   7.607   9.671   4.175 -1.2233  2.3946 -1.6529
  753MOL0     H 1635   7.349   9.732   4.339 -0.8977  1.4471 -1.8050
  753MOL0     H 1636   7.462   9.848   4.257 -0.8752 -1.0013 -0.8803
  753MOL0     H 1637   8.189   9.012   3.868  0.6541 -0.2773  1.0384
  753MOL0     H 1638   8.251   8.947   3.616  3.2388  0.6362  0.7034
  753MOL0     H 1639   8.021   9.108   3.120 -0.3907 -0.9025 -0.2706
  753MOL0     H 1640   8.058   9.020   2.886 -0.2033  3.8362 -2.1890
  753MOL0     H 1641   9.455   9.057   2.571  0.3958  0.3895 -1.1274
  753MOL0     H 1642   9.687   9.187   2.581 -0.8325  0.7514 -1.2388
  753MOL0     H 1643  10.067   9.167   2.408 -1.0168  1.5954 -0.6753
  753MOL0     H 1644  10.299   9.203   2.361  2.7968  0.0133 -0.1645
  753MOL0     H 1645  10.405   9.467   2.344  0.3652  0.8871  2.3255
  753MOL0     H 1646  10.565   9.501   2.395 -0.4769  1.2671 -1.9072
  753MOL0     H 1647  10.515   9.340   2.196 -1.3000 -0.1069  0.3759
  753MOL0     H 1648  10.520   9.218   2.335 -2.1996  1.6694  3.7834
  753MOL0     H 1649  10.750   9.349   2.395  3.5799  2.8831 -2.5646
  753MOL0     H 1650  10.732   9.413   2.224  0.7280  0.4860  0.1739
  753MOL0     H 1651  10.722   9.194   2.143 -0.4635  1.9588  0.3707
  753MOL0     H 1652  10.745   9.124   2.307  0.5493  0.0446  2.1802
  753MOL0     H 1653  11.143   9.214   2.249  0.5841  0.2008  0.3862
  753MOL0     H 1654  10.343   9.387   2.751 -0.0230  0.8368 -0.6645
  753MOL0     H 1655  10.109   9.314   2.813 -0.7128  1.6814 -0.1863
  754MOL0     O 1656   9.932   8.331   1.870  0.6369  0.2045 -0.0962
  754MOL0     C 1657   9.894   8.385   1.764 -0.7039 -0.3539  0.5812
  754MOL0     O 1658   9.772   8.360   1.696 -0.7504  0.0811 -0.0712
  754MOL0     C 1659   9.664   8.298   1.763 -0.5614  0.0402  0.6322
  754MOL0     C 1660   9.620   8.347   1.882  0.1676 -0.8109 -0.4407
  754MOL0     C 1661   9.506   8.290   1.943  0.9165 -0.3908  0.0143
  754MOL0     C 1662   9.439   8.187   1.883  0.2503  0.1012  0.0707
  754MOL0     O 1663   9.331   8.134   1.950 -0.8205 -0.4499 -0.1486
  754MOL0     C 1664   9.208   8.134   1.886 -0.8051  0.4389 -0.9486
  754MOL0     C 1665   9.131   8.013   1.939 -0.2617 -0.0636 -0.1682
  754MOL0     C 1666   8.978   8.015   1.925 -0.1598  0.0857  0.3843
  754MOL0     C 1667   8.908   7.877   1.940 -0.0484  0.3380 -0.5313
  754MOL0     C 1668   8.751   7.902   1.926  0.7021  0.4009  0.3511
  754MOL0     C 1669   8.669   7.765   1.913  0.1228 -0.0024  0.4291
  754MOL0     C 1670   8.669   7.695   2.044 -0.6164  0.7989 -0.0545
  754MOL0     C 1671   8.557   7.749   2.137  0.7658 -0.1353  0.5907
  754MOL0     N 1672   8.595   7.768   2.275 -0.3733 -0.7610 -0.0823
  754MOL0     C 1673   8.681   7.857   2.331 -0.2912 -0.2448 -0.1377
  754MOL0     C 1674   8.684   7.836   2.467 -0.4144  0.2538  0.7602
  754MOL0     C 1675   8.762   7.921   2.558 -0.1568  0.4423  1.0134
  754MOL0     C 1676   8.669   7.993   2.660  0.4077  0.2427  1.0671
  754MOL0     C 1677   8.625   8.130   2.605 -0.5355  0.7619 -0.2300
  754MOL0     C 1678   8.526   8.211   2.691 -0.3896  0.5532  0.1537
  754MOL0     O 1679   8.412   8.124   2.714  0.8119 -0.7483  0.5375
  754MOL0     C 1680   8.300   8.136   2.635  0.6156  0.1605 -0.0004
  754MOL0     C 1681   8.271   8.242   2.539 -0.3743 -0.1846 -1.1525
  754MOL0     C 1682   8.152   8.248   2.460  0.4848 -0.1778  0.1941
  754MOL0     C 1683   8.145   8.373   2.369 -0.4924 -0.6437  0.5598
  754MOL0     C 1684   8.048   8.161   2.488  0.5440 -0.2889 -0.2343
  754MOL0     C 1685   7.917   8.160   2.424  0.8760 -0.4090 -1.2379
  754MOL0     O 1686   7.862   8.279   2.365  0.4843  0.1668 -0.1782
  754MOL0     C 1687   7.729   8.294   2.365  1.5139 -0.4342  0.0130
  754MOL0     C 1688   7.638   8.262   2.464 -0.1888  0.4616  0.6636
  754MOL0     C 1689   7.501   8.312   2.467 -0.6870  0.3586  0.6187
  754MOL0     C 1690   7.447   8.405   2.371  0.0245 -0.1152  0.8271
  754MOL0     O 1691   7.325   8.463   2.379  0.1854 -0.1195  0.2370
  754MOL0     C 1692   7.232   8.421   2.287  0.5391 -0.0363  0.0998
  754MOL0     C 1693   7.127   8.319   2.350 -0.3075 -0.0545  0.1467
  754MOL0     C 1694   7.045   8.393   2.452  0.4034 -0.1510  0.2629
  754MOL0     C 1695   6.939   8.463   2.379 -0.3213 -0.8489  0.3752
  754MOL0     C 1696   6.864   8.560   2.474  1.1035  0.7064  0.0439
  754MOL0     C 1697   6.737   8.603   2.403  0.0258 -0.7255 -1.3584
  754MOL0     C 1698   6.639   8.501   2.368  0.0499  0.3111  0.1951
  754MOL0     C 1699   6.522   8.580   2.320  0.1226 -0.1788 -0.4597
  754MOL0    Cl 1700   6.443   8.681   2.453 -0.5431  0.0031  0.0169
  754MOL0     C 1701   7.541   8.424   2.259  0.4537  0.8218 -0.0355
  754MOL0     C 1702   7.679   8.383   2.270  0.4262  0.9653  1.0055
  754MOL0     O 1703   7.853   8.058   2.444  0.2443 -0.6854 -0.1774
  754MOL0     C 1704   8.070   8.065   2.592 -0.3835 -0.1165  0.1012
  754MOL0     C 1705   8.192   8.044   2.662  0.3739 -0.3066 -0.4706
  754MOL0     N 1706   8.608   7.724   2.491  0.3531  0.5006  0.1171
  754MOL0     N 1707   8.566   7.684   2.383  0.1087 -0.3867  0.7567
  754MOL0     C 1708   9.480   8.138   1.756  0.4271 -0.3208  0.3875
  754MOL0     C 1709   9.596   8.193   1.696 -0.5054 -0.3837  0.4564
  754MOL0     C 1710   9.992   8.472   1.691 -0.1374  0.1879 -0.0603
  754MOL0     C 1711  10.105   8.522   1.752  0.3452 -0.2292  0.4591
  754MOL0     C 1712  10.187   8.619   1.685  0.1039  0.5371 -0.5907
  754MOL0     C 1713  10.168   8.649   1.550 -0.0123 -0.2618  0.1376
  754MOL0     O 1714  10.241   8.750   1.487  0.3669  0.0737 -0.3441
  754MOL0     C 1715  10.365   8.797   1.545 -0.6934 -0.7560 -0.3972
  754MOL0     C 1716  10.437   8.894   1.444 -0.4572 -0.3120  0.3660
  754MOL0     C 1717  10.366   9.030   1.437 -0.5845 -0.4302  0.4869
  754MOL0     C 1718  10.419   9.115   1.315 -0.9252 -0.0256 -0.8545
  754MOL0     C 1719  10.342   9.229   1.290 -0.5239  0.0914 -0.4486
  754MOL0     C 1720  10.280   9.330   1.273 -0.0929 -0.4228  0.1008
  754MOL0     C 1721  10.062   8.592   1.479  0.3087 -0.4954 -1.0500
  754MOL0     C 1722   9.977   8.503   1.551 -0.2882  0.0233  0.0800
  754MOL0     H 1723   9.692   8.412   1.931 -0.7514  1.5897 -2.0468
  754MOL0     H 1724   9.475   8.315   2.044 -2.2855 -2.6329 -0.2927
  754MOL0     H 1725   9.162   8.226   1.921  1.0393  0.6155  1.2878
  754MOL0     H 1726   9.211   8.133   1.777  4.5622  1.4942 -1.0839
  754MOL0     H 1727   9.174   7.936   1.874  0.6700  0.1576  0.1596
  754MOL0     H 1728   9.162   7.991   2.041 -1.3885  1.4432  0.5483
  754MOL0     H 1729   8.935   8.080   2.001  0.9445 -0.9222  1.9361
  754MOL0     H 1730   8.951   8.050   1.825 -1.3997  0.4854  0.8331
  754MOL0     H 1731   8.930   7.800   1.866  0.2665 -0.2798  0.1946
  754MOL0     H 1732   8.924   7.841   2.043  0.8456  2.4061  0.1051
  754MOL0     H 1733   8.718   7.957   2.015  0.6151  0.4540  0.2863
  754MOL0     H 1734   8.740   7.972   1.843  2.3415 -0.3966 -0.5724
  754MOL0     H 1735   8.573   7.790   1.867 -0.2675  2.2705  2.3157
  754MOL0     H 1736   8.708   7.702   1.832 -0.6181 -0.3210  0.3156
  754MOL0     H 1737   8.679   7.587   2.034  0.4019  0.8823 -0.0365
  754MOL0     H 1738   8.766   7.702   2.094  0.7255 -0.4043 -2.3265
  754MOL0     H 1739   8.463   7.694   2.125  0.3366  0.7574 -0.2187
  754MOL0     H 1740   8.536   7.842   2.084  0.6735 -0.7396 -0.4844
  754MOL0     H 1741   8.738   7.940   2.290 -0.9706  3.0292  4.7681
  754MOL0     H 1742   8.835   7.856   2.608 -1.5583 -0.5300  1.8499
  754MOL0     H 1743   8.817   7.991   2.494  2.4452 -0.9664  1.5735
  754MOL0     H 1744   8.728   8.012   2.750  1.9751  0.2916  0.0720
  754MOL0     H 1745   8.583   7.927   2.676 -0.4210  1.5375  2.1137
  754MOL0     H 1746   8.597   8.117   2.500  2.3482  0.9600 -1.1010
  754MOL0     H 1747   8.717   8.188   2.596  0.1278  0.0175  1.3376
  754MOL0     H 1748   8.520   8.308   2.640  3.1547  0.1832 -1.2849
  754MOL0     H 1749   8.573   8.221   2.789  2.8906 -2.1848 -0.9386
  754MOL0     H 1750   8.350   8.314   2.517 -0.9435  0.9626  0.3599
  754MOL0     H 1751   8.081   8.360   2.281  1.4467  3.4620 -1.6977
  754MOL0     H 1752   8.112   8.458   2.429 -0.6624 -2.0644  2.6185
  754MOL0     H 1753   8.242   8.390   2.322  0.3611 -1.2198  2.0318
  754MOL0     H 1754   7.669   8.209   2.553 -1.3274  3.3382  2.9543
  754MOL0     H 1755   7.434   8.283   2.547  0.1384  0.7907  1.4811
  754MOL0     H 1756   7.170   8.506   2.254 -1.3304 -1.6627 -0.7656
  754MOL0     H 1757   7.267   8.376   2.194 -1.7582  0.6518 -1.1698
  754MOL0     H 1758   7.057   8.288   2.273  0.6911 -2.8967  0.2845
  754MOL0     H 1759   7.181   8.233   2.391 -1.5173 -0.2175  1.4626
  754MOL0     H 1760   7.115   8.462   2.500 -0.2171  0.2559  0.6012
  754MOL0     H 1761   7.002   8.320   2.521 -0.9321 -2.4388 -2.7498
  754MOL0     H 1762   6.970   8.522   2.292  0.6668  1.1738  2.0096
  754MOL0     H 1763   6.879   8.381   2.340  1.5001 -2.4384  0.7484
  754MOL0     H 1764   6.918   8.653   2.491 -0.2946  1.1415  2.5468
  754MOL0     H 1765   6.832   8.510   2.566 -0.0546  0.4721 -0.4713
  754MOL0     H 1766   6.692   8.673   2.473 -2.4382 -1.7819 -1.7722
  754MOL0     H 1767   6.765   8.659   2.313  1.3827 -2.1811 -1.8893
  754MOL0     H 1768   6.606   8.445   2.456  0.0596  0.3235  0.2067
  754MOL0     H 1769   6.676   8.438   2.286  0.3930  1.3267 -0.4468
  754MOL0     H 1770   6.455   8.501   2.286 -0.6377 -0.4735  1.5719
  754MOL0     H 1771   6.552   8.637   2.231  1.5941 -0.7493 -0.3612
  754MOL0     H 1772   7.516   8.491   2.178  2.5927  2.3976  0.5094
  754MOL0     H 1773   7.732   8.408   2.178  0.7809 -1.2624  0.5638
  754MOL0     H 1774   8.009   7.977   2.607 -0.4122 -0.5355 -2.0822
  754MOL0     H 1775   8.211   7.950   2.713  1.1173  1.0325  1.8594
  754MOL0     H 1776   9.443   8.058   1.692  0.1000  0.4962 -0.4666
  754MOL0     H 1777   9.640   8.150   1.607  0.0073 -0.7306  0.8758
  754MOL0     H 1778  10.123   8.510   1.858  0.9656  1.0596  0.5155
  754MOL0     H 1779  10.275   8.661   1.734  1.4781 -3.4079  0.6502
  754MOL0     H 1780  10.343   8.845   1.641 -0.5565  1.0816 -1.2309
  754MOL0     H 1781  10.426   8.710   1.569  0.0839 -0.1499 -0.1282
  754MOL0     H 1782  10.442   8.843   1.348 -1.8079 -1.2350  0.7464
  754MOL0     H 1783  10.542   8.907   1.472 -0.6693 -0.6825  1.3781
  754MOL0     H 1784  10.379   9.099   1.520  2.4139  2.6046 -2.1859
  754MOL0     H 1785  10.266   9.002   1.404  0.0317  0.4328 -2.4014
  754MOL0     H 1786  10.417   9.043   1.232 -3.2139 -2.4705  1.1517
  754MOL0     H 1787  10.520   9.152   1.333 -1.4174  1.9387 -1.7935
  754MOL0     H 1788  10.216   9.415   1.261  1.5505  0.5998 -2.3201
  754MOL0     H 1789  10.044   8.610   1.374 -1.8137 -1.2477 -0.8718
  754MOL0     H 1790   9.884   8.470   1.505  2.0310 -1.7981 -3.7936
  755MOL0     O 1791   1.810  11.411   5.900  0.2933 -0.9154  0.1057
  755MOL0     C 1792   1.881  11.310   5.902  0.2980 -0.1543 -0.5701
  755MOL0     O 1793   1.839  11.182   5.894  0.5379  0.6962 -0.5067
  755MOL0     C 1794   1.710  11.153   5.926  0.6508  0.5410 -0.2407
  755MOL0     C 1795   1.621  11.226   6.011  0.3238 -0.4303 -0.0070
  755MOL0     C 1796   1.491  11.173   6.021  1.0837  0.2660  0.3477
  755MOL0     C 1797   1.447  11.063   5.951 -0.3507  0.5892 -0.6148
  755MOL0     O 1798   1.314  11.029   5.947 -0.9443  0.0115 -0.3009
  755MOL0     C 1799   1.249  11.116   5.847  0.0015 -0.6741 -0.4319
  755MOL0     C 1800   1.103  11.061   5.809  0.2275  0.2028  0.6130
  755MOL0     C 1801   1.119  10.912   5.758 -0.7424  0.0421  0.7423
  755MOL0     C 1802   0.982  10.827   5.763 -0.0378 -0.1376 -0.4231
  755MOL0     C 1803   0.980  10.706   5.674 -0.6671 -0.2377  0.7834
  755MOL0     C 1804   0.984  10.740   5.526  0.0204 -0.6850  0.2138
  755MOL0     C 1805   1.048  10.624   5.454 -0.4075 -0.2912 -0.4967
  755MOL0     C 1806   1.067  10.642   5.303 -0.6858 -0.3157 -0.2274
  755MOL0     N 1807   0.936  10.655   5.230  0.1502 -0.3989  0.3886
  755MOL0     C 1808   0.890  10.778   5.182  0.3702 -0.3609 -0.1781
  755MOL0     C 1809   0.788  10.742   5.102  0.5792 -0.6637  1.3980
  755MOL0     C 1810   0.702  10.840   5.007 -0.5483  0.0606 -0.3937
  755MOL0     C 1811   0.625  10.930   5.091 -0.4507  0.1828  0.5528
  755MOL0     C 1812   0.540  10.880   5.202  0.5301 -0.1314 -0.1165
  755MOL0     C 1813   0.397  10.841   5.160  0.2247 -0.3332  0.3804
  755MOL0     O 1814   0.304  10.814   5.264 -0.1474  0.2719 -0.2058
  755MOL0     C 1815   0.168  10.833   5.236 -0.2761  0.8035 -0.8494
  755MOL0     C 1816   0.097  10.850   5.110 -0.7658  0.3805  0.5166
  755MOL0     C 1817  -0.037  10.859   5.095  0.4906  0.6165  0.2571
  755MOL0     C 1818  -0.096  10.871   4.956 -0.5822  0.2728  0.1507
  755MOL0     C 1819  -0.114  10.853   5.218  0.3550 -0.5360  0.3767
  755MOL0     C 1820  -0.268  10.867   5.229 -0.1596  1.0445 -0.6095
  755MOL0     O 1821  -0.316  10.885   5.355  0.1330  0.1581 -0.7823
  755MOL0     C 1822  -0.443  10.923   5.372 -0.2187 -0.6163  1.0708
  755MOL0     C 1823  -0.484  11.062   5.370 -0.1615  0.0294 -0.7949
  755MOL0     C 1824  -0.617  11.087   5.402 -0.4288  0.8371  0.1847
  755MOL0     C 1825  -0.712  10.976   5.424 -0.0540  0.5248  0.2266
  755MOL0     O 1826  -0.854  10.990   5.453 -0.4647  0.1070 -0.5179
  755MOL0     C 1827  -0.923  11.108   5.400  0.0803  0.4277 -0.5004
  755MOL0     C 1828  -1.042  11.083   5.298 -0.6127  0.3204 -0.3074
  755MOL0     C 1829  -1.006  11.001   5.174  1.1256 -0.1958 -0.7621
  755MOL0     C 1830  -0.892  11.048   5.091 -0.1193  0.3390 -0.0115
  755MOL0     C 1831  -0.873  10.946   4.978 -0.5130 -0.1189 -0.6334
  755MOL0     C 1832  -0.770  10.851   5.036  0.3892  0.6274  0.2327
  755MOL0     C 1833  -0.747  10.719   4.946 -0.2948 -1.2257  0.1494
  755MOL0     C 1834  -0.605  10.664   4.971  0.0792 -1.1481 -0.0571
  755MOL0    Cl 1835  -0.492  10.686   4.834  0.3376  0.0373  0.2876
  755MOL0     C 1836  -0.660  10.844   5.436 -0.8584  0.2667  0.0589
  755MOL0     C 1837  -0.528  10.822   5.402 -0.2417  0.7677  0.2468
  755MOL0     O 1838  -0.339  10.875   5.129 -0.1339 -0.4762  0.4436
  755MOL0     C 1839  -0.048  10.839   5.343 -0.0954 -0.4116 -0.0350
  755MOL0     C 1840   0.089  10.825   5.347 -0.1732  0.4731 -0.7070
  755MOL0     N 1841   0.774  10.608   5.098  0.2373  0.3353  0.2234
  755MOL0     N 1842   0.843  10.559   5.190  0.0032  0.1635 -0.1943
  755MOL0     C 1843   1.537  10.980   5.885  0.0541  0.7804  0.3034
  755MOL0     C 1844   1.665  11.028   5.871 -0.2461  0.2032 -0.3810
  755MOL0     C 1845   2.030  11.330   5.892  0.3206  0.2627 -0.0443
  755MOL0     C 1846   2.086  11.462   5.865  0.3042  0.1998 -0.1062
  755MOL0     C 1847   2.224  11.476   5.863 -0.3489  0.0970  0.0674
  755MOL0     C 1848   2.312  11.369   5.884 -0.5376 -0.1499 -0.6802
  755MOL0     O 1849   2.447  11.389   5.876  0.3336 -0.6366 -0.4687
  755MOL0     C 1850   2.497  11.526   5.844 -0.3841 -0.0409 -0.3727
  755MOL0     C 1851   2.647  11.523   5.816  0.3068 -0.2519 -0.0538
  755MOL0     C 1852   2.721  11.498   5.951  0.7797 -0.8571  0.0212
  755MOL0     C 1853   2.866  11.524   5.927 -0.4294 -0.4613 -0.4449
  755MOL0     C 1854   2.917  11.417   5.843 -0.8919 -0.3295  0.1717
  755MOL0     C 1855   2.958  11.322   5.778  0.7819 -0.0087  0.2116
  755MOL0     C 1856   2.260  11.238   5.898  0.6499 -0.4806 -0.6492
  755MOL0     C 1857   2.117  11.218   5.909 -0.5501  0.4575 -0.0387
  755MOL0     H 1858   1.638  11.314   6.073 -0.5587 -1.7893  2.2581
  755MOL0     H 1859   1.409  11.229   6.064  1.0526  0.8547 -0.4522
  755MOL0     H 1860   1.223  11.213   5.892  0.8253 -0.7366  0.1955
  755MOL0     H 1861   1.306  11.128   5.755 -3.0374 -1.6638 -2.5824
  755MOL0     H 1862   1.037  11.053   5.896 -1.9018 -2.5436 -1.0719
  755MOL0     H 1863   1.041  11.117   5.739 -0.5635 -3.2204 -1.6916
  755MOL0     H 1864   1.168  10.916   5.660 -1.9301  0.0272  0.1336
  755MOL0     H 1865   1.183  10.853   5.824  1.0930 -1.2028 -1.9351
  755MOL0     H 1866   0.946  10.811   5.866  0.2776  3.1065  0.3046
  755MOL0     H 1867   0.905  10.895   5.726 -0.8306 -2.0977 -2.6600
  755MOL0     H 1868   1.064  10.641   5.696 -0.8641 -1.2503 -1.2246
  755MOL0     H 1869   0.892  10.648   5.704 -2.4533  0.9052 -1.7934
  755MOL0     H 1870   0.881  10.754   5.491  1.3035 -1.2648 -4.5819
  755MOL0     H 1871   1.044  10.830   5.508  1.1881 -1.3159  0.8426
  755MOL0     H 1872   1.149  10.606   5.492 -0.9381 -0.2731  1.0280
  755MOL0     H 1873   0.990  10.531   5.460  3.3749 -2.9900 -1.7654
  755MOL0     H 1874   1.112  10.556   5.254 -2.5933 -0.4464 -1.8999
  755MOL0     H 1875   1.120  10.735   5.281 -2.9707  1.2976  0.5949
  755MOL0     H 1876   0.938  10.875   5.191 -2.6785  1.1588  1.2296
  755MOL0     H 1877   0.762  10.903   4.941 -0.8183  0.9153  0.1683
  755MOL0     H 1878   0.627  10.784   4.951 -0.1899 -0.3702 -0.4506
  755MOL0     H 1879   0.566  10.992   5.023  1.4281  0.3340 -1.0288
  755MOL0     H 1880   0.703  10.997   5.128  1.5923 -0.2931 -2.5169
  755MOL0     H 1881   0.516  10.967   5.264  0.4869 -2.2098  2.9445
  755MOL0     H 1882   0.598  10.810   5.261 -0.1441  0.1258  0.8720
  755MOL0     H 1883   0.404  10.759   5.089  0.7626 -1.1195  1.3228
  755MOL0     H 1884   0.356  10.931   5.114  2.4183  0.3843 -0.3151
  755MOL0     H 1885   0.163  10.830   5.026 -0.8582 -1.6920  0.8844
  755MOL0     H 1886  -0.181  10.802   4.952  1.3125 -2.3062  1.3186
  755MOL0     H 1887  -0.126  10.973   4.932 -1.6645  0.1307  0.7964
  755MOL0     H 1888  -0.023  10.850   4.878 -1.3737  1.8922 -1.0701
  755MOL0     H 1889  -0.408  11.134   5.340 -2.7821  1.9020 -3.4165
  755MOL0     H 1890  -0.654  11.188   5.414 -1.5122  0.3722  0.9002
  755MOL0     H 1891  -0.970  11.171   5.476 -1.7049 -1.0483 -0.3185
  755MOL0     H 1892  -0.853  11.183   5.361  0.8344  1.1963  2.0922
  755MOL0     H 1893  -1.118  11.032   5.358  0.1353  1.0780  1.3552
  755MOL0     H 1894  -1.100  11.173   5.273 -1.1094 -0.2991 -1.4573
  755MOL0     H 1895  -1.100  10.981   5.121  0.7064 -2.4146  0.6987
  755MOL0     H 1896  -0.974  10.903   5.209 -0.7089  0.0412  1.8261
  755MOL0     H 1897  -0.917  11.144   5.045 -0.2292 -0.0953 -0.8723
  755MOL0     H 1898  -0.804  11.065   5.154 -2.4482  0.8758  3.3670
  755MOL0     H 1899  -0.840  10.989   4.883 -2.4842 -2.3989 -2.4689
  755MOL0     H 1900  -0.957  10.878   4.964  0.0602 -1.2957  1.3141
  755MOL0     H 1901  -0.681  10.909   5.063  1.3907 -1.6668  2.1854
  755MOL0     H 1902  -0.805  10.807   5.130  0.0139 -0.9376 -0.6067
  755MOL0     H 1903  -0.741  10.746   4.840 -1.3788 -2.2648 -0.2006
  755MOL0     H 1904  -0.816  10.635   4.953 -0.5331 -0.9574  1.1980
  755MOL0     H 1905  -0.618  10.559   4.997 -1.7589 -1.1625 -0.8478
  755MOL0     H 1906  -0.556  10.714   5.054 -1.0477 -0.6017  0.3043
  755MOL0     H 1907  -0.725  10.758   5.450  1.1917 -1.4846 -0.5867
  755MOL0     H 1908  -0.484  10.723   5.399 -0.1138  0.6253  3.3376
  755MOL0     H 1909  -0.104  10.819   5.434 -1.0785  0.9915 -0.2948
  755MOL0     H 1910   0.138  10.814   5.443  1.1154 -0.9307 -1.4662
  755MOL0     H 1911   1.504  10.885   5.845  0.3190  0.3887  0.9974
  755MOL0     H 1912   1.743  10.976   5.816 -0.1268  0.5972 -0.5875
  755MOL0     H 1913   2.022  11.550   5.861 -2.6730 -1.7953 -0.0059
  755MOL0     H 1914   2.250  11.581   5.853  1.4862 -0.1504  1.6000
  755MOL0     H 1915   2.444  11.547   5.751  0.4875 -2.1257 -1.4041
  755MOL0     H 1916   2.469  11.603   5.917 -1.8858 -2.0546  1.3005
  755MOL0     H 1917   2.667  11.627   5.787  2.1077  0.1738  2.3258
  755MOL0     H 1918   2.668  11.445   5.743 -2.9388 -1.7458  0.4513
  755MOL0     H 1919   2.712  11.393   5.981 -2.1462 -0.3833  1.1462
  755MOL0     H 1920   2.687  11.562   6.033 -0.3402 -0.6255 -0.6020
  755MOL0     H 1921   2.925  11.523   6.019 -1.9676  2.6056  0.7018
  755MOL0     H 1922   2.886  11.617   5.873  0.1094 -1.1325 -1.4388
  755MOL0     H 1923   2.990  11.242   5.714 -0.3277  1.2645 -2.0583
  755MOL0     H 1924   2.321  11.149   5.911  1.1595 -0.1623 -0.8530
  755MOL0     H 1925   2.084  11.114   5.920  1.4624 -0.0185  2.5551
  756MOL0     O 1926   0.426   5.624   6.763 -0.8348  0.4382 -0.6969
  756MOL0     C 1927   0.480   5.697   6.681 -0.1696 -0.0439 -0.0152
  756MOL0     O 1928   0.599   5.671   6.633 -0.3189  0.2062  0.2762
  756MOL0     C 1929   0.682   5.588   6.711 -0.6547  0.0692  0.2659
  756MOL0     C 1930   0.699   5.463   6.647  0.0299 -0.5835 -0.4932
  756MOL0     C 1931   0.805   5.379   6.700 -0.8347  0.4391  0.8419
  756MOL0     C 1932   0.874   5.414   6.816  0.4534 -0.7323  0.3942
  756MOL0     O 1933   0.962   5.324   6.869 -0.3549  0.3810  0.1552
  756MOL0     C 1934   1.040   5.349   6.987  0.6829  1.6843  0.1449
  756MOL0     C 1935   1.140   5.234   7.022 -0.4236 -0.0199  0.0081
  756MOL0     C 1936   1.074   5.099   7.051  0.2265 -0.0805 -0.4169
  756MOL0     C 1937   1.180   5.012   7.119  0.2666  0.0776  1.3235
  756MOL0     C 1938   1.144   4.862   7.123  0.4825  0.1835 -0.0938
  756MOL0     C 1939   1.033   4.827   7.218  0.5777  0.1007  0.9484
  756MOL0     C 1940   0.980   4.675   7.206 -1.0192 -0.5275 -0.3279
  756MOL0     C 1941   0.850   4.653   7.288  1.5702  0.4682 -0.4214
  756MOL0     N 1942   0.819   4.512   7.318  0.2219 -0.3493  0.0709
  756MOL0     C 1943   0.695   4.471   7.338 -0.1919  0.5789 -0.4264
  756MOL0     C 1944   0.701   4.353   7.403 -0.5865 -0.7428 -0.6637
  756MOL0     C 1945   0.576   4.269   7.440 -0.1756  0.2288  0.7759
  756MOL0     C 1946   0.462   4.272   7.343 -0.0700 -1.0029  0.0079
  756MOL0     C 1947   0.337   4.190   7.389  0.1325  0.7336 -0.1840
  756MOL0     C 1948   0.290   4.232   7.525 -0.5832 -0.5723 -0.0773
  756MOL0     O 1949   0.165   4.170   7.566 -0.2139  0.4070  1.2178
  756MOL0     C 1950   0.049   4.202   7.500 -0.4781 -0.4119 -0.4162
  756MOL0     C 1951  -0.038   4.301   7.544 -1.1239 -0.6849 -0.2739
  756MOL0     C 1952  -0.166   4.332   7.491 -0.6378  0.1572 -0.3455
  756MOL0     C 1953  -0.237   4.448   7.555 -0.1175  0.6088 -0.0280
  756MOL0     C 1954  -0.210   4.254   7.384 -0.1916 -0.0078 -0.3775
  756MOL0     C 1955  -0.344   4.275   7.321 -0.2159 -0.6705  0.5539
  756MOL0     O 1956  -0.448   4.311   7.402 -0.4263 -0.3118 -0.5023
  756MOL0     C 1957  -0.571   4.321   7.343 -0.4465  0.3321  0.7610
  756MOL0     C 1958  -0.662   4.225   7.381 -0.0848 -0.1182 -0.4069
  756MOL0     C 1959  -0.790   4.225   7.335 -0.1775 -0.2010  0.2596
  756MOL0     C 1960  -0.831   4.319   7.235 -0.6376  0.1807 -0.6441
  756MOL0     O 1961  -0.956   4.324   7.175  0.0908  0.0284 -0.8054
  756MOL0     C 1962  -1.068   4.256   7.236  0.6454 -0.3170 -0.0425
  756MOL0     C 1963  -1.190   4.347   7.231 -0.1005 -0.7059 -0.0788
  756MOL0     C 1964  -1.323   4.275   7.260  0.0913 -0.0382  0.0419
  756MOL0     C 1965  -1.433   4.365   7.323  1.0444  0.2272 -0.9687
  756MOL0     C 1966  -1.429   4.396   7.473 -0.8360  0.5840 -0.4616
  756MOL0     C 1967  -1.499   4.531   7.523  0.5233 -0.3914  0.3330
  756MOL0     C 1968  -1.641   4.514   7.582 -0.6628  0.3893 -0.5562
  756MOL0     C 1969  -1.690   4.627   7.663 -0.4002 -0.7563  0.3444
  756MOL0    Cl 1970  -1.677   4.612   7.829 -0.0213 -0.0496 -0.6522
  756MOL0     C 1971  -0.737   4.416   7.193 -0.4660  0.2823  0.1498
  756MOL0     C 1972  -0.611   4.417   7.249 -0.6288  1.0565 -0.6536
  756MOL0     O 1973  -0.349   4.236   7.204 -0.7113  0.4852  0.1675
  756MOL0     C 1974  -0.122   4.157   7.332 -0.0579 -0.3270 -0.1113
  756MOL0     C 1975   0.007   4.131   7.385 -0.0388 -0.1337 -1.0080
  756MOL0     N 1976   0.833   4.334   7.419  0.2732 -0.0982 -0.4961
  756MOL0     N 1977   0.905   4.424   7.362  1.1740  0.6029  0.0556
  756MOL0     C 1978   0.848   5.539   6.873  0.1429 -0.8240 -0.9674
  756MOL0     C 1979   0.760   5.627   6.816  0.0798 -0.8107 -0.5159
  756MOL0     C 1980   0.400   5.809   6.624  0.9664  0.8718 -0.0826
  756MOL0     C 1981   0.456   5.907   6.541  0.5741 -0.3972  0.8839
  756MOL0     C 1982   0.386   6.017   6.496 -0.8114 -0.0574 -0.4255
  756MOL0     C 1983   0.245   6.022   6.529  0.5044 -0.3486  0.0659
  756MOL0     O 1984   0.156   6.122   6.491  0.0563  0.3233  0.1837
  756MOL0     C 1985   0.218   6.250   6.462 -0.0883  0.9048 -0.4182
  756MOL0     C 1986   0.100   6.333   6.413  0.3374  0.5265  0.3456
  756MOL0     C 1987  -0.015   6.334   6.522  0.3168 -0.0608  0.9058
  756MOL0     C 1988   0.029   6.368   6.658 -0.2330 -0.2553  0.2132
  756MOL0     C 1989  -0.091   6.412   6.722  0.0996 -0.1138 -0.0413
  756MOL0     C 1990  -0.181   6.469   6.783 -0.5169  0.4663 -0.0767
  756MOL0     C 1991   0.188   5.926   6.609  0.5609  0.2161  0.1892
  756MOL0     C 1992   0.260   5.823   6.656 -0.0678 -0.2866  0.7367
  756MOL0     H 1993   0.643   5.434   6.559 -0.8146  2.6727 -1.1424
  756MOL0     H 1994   0.822   5.283   6.654 -1.7401  0.7964 -0.2748
  756MOL0     H 1995   1.097   5.442   6.988  1.2218  1.3624 -0.0724
  756MOL0     H 1996   0.963   5.347   7.065 -0.7932 -2.7587 -1.1244
  756MOL0     H 1997   1.206   5.214   6.937 -0.5576 -1.1146  0.1539
  756MOL0     H 1998   1.204   5.278   7.100  0.5848  2.4404 -2.0654
  756MOL0     H 1999   0.986   5.108   7.115  0.1928 -3.4884  0.2097
  756MOL0     H 2000   1.043   5.044   6.961 -1.3311  0.8174 -0.4727
  756MOL0     H 2001   1.270   5.022   7.059 -0.6305  1.6986  0.1823
  756MOL0     H 2002   1.191   5.053   7.220 -1.1114  0.2993  1.4027
  756MOL0     H 2003   1.119   4.816   7.027  0.3679 -1.0112  0.4911
  756MOL0     H 2004   1.240   4.815   7.146 -1.8008 -3.4282  3.4689
  756MOL0     H 2005   1.069   4.856   7.317  0.7091  2.2102  0.3389
  756MOL0     H 2006   0.951   4.897   7.204  2.8312  2.7658  0.1855
  756MOL0     H 2007   0.960   4.650   7.101 -0.7579 -1.8375 -0.0876
  756MOL0     H 2008   1.061   4.609   7.238 -1.9378 -1.7660 -0.4768
  756MOL0     H 2009   0.771   4.695   7.225  1.4771 -0.8611 -1.2366
  756MOL0     H 2010   0.853   4.707   7.383  0.1608  1.6911 -1.0284
  756MOL0     H 2011   0.601   4.519   7.312 -0.7285 -0.1714  0.0777
  756MOL0     H 2012   0.620   4.169   7.444  1.3491  0.8660  0.5930
  756MOL0     H 2013   0.560   4.294   7.545  4.7105 -0.7532  2.0258
  756MOL0     H 2014   0.493   4.231   7.246 -2.0388  2.2801 -2.2107
  756MOL0     H 2015   0.429   4.372   7.316  0.4921 -0.2144  2.1072
  756MOL0     H 2016   0.360   4.083   7.385  0.0116  0.7147 -0.3854
  756MOL0     H 2017   0.259   4.205   7.314  2.7335  1.8551 -2.8411
  756MOL0     H 2018   0.271   4.340   7.517 -2.1410 -0.9223 -2.2841
  756MOL0     H 2019   0.360   4.215   7.606 -1.9492 -0.8855  1.0822
  756MOL0     H 2020   0.009   4.356   7.625  2.4287  1.0329 -3.1798
  756MOL0     H 2021  -0.169   4.506   7.618 -1.1575  1.2841  0.4926
  756MOL0     H 2022  -0.300   4.509   7.489 -0.0081  2.4078  1.4644
  756MOL0     H 2023  -0.313   4.406   7.621 -0.0172  1.0166  0.3503
  756MOL0     H 2024  -0.636   4.137   7.439  1.6531  0.3500 -0.4219
  756MOL0     H 2025  -0.868   4.166   7.383 -1.6679  1.3209 -0.1599
  756MOL0     H 2026  -1.105   4.173   7.174 -1.9048  1.5574 -1.1833
  756MOL0     H 2027  -1.054   4.231   7.341  2.9235  0.4333 -0.1149
  756MOL0     H 2028  -1.179   4.425   7.307  0.6023 -2.3186  1.5598
  756MOL0     H 2029  -1.179   4.396   7.134  1.3654  2.4035  1.4856
  756MOL0     H 2030  -1.309   4.189   7.326  1.2946  1.7268  2.2112
  756MOL0     H 2031  -1.365   4.232   7.168 -1.8913  0.7761  0.5171
  756MOL0     H 2032  -1.451   4.450   7.256  0.5261 -1.1957 -2.7170
  756MOL0     H 2033  -1.523   4.303   7.311  1.9101 -1.6796  1.6635
  756MOL0     H 2034  -1.323   4.410   7.495 -0.1659  0.0111 -3.0159
  756MOL0     H 2035  -1.466   4.301   7.514  4.6561 -1.8890 -0.2903
  756MOL0     H 2036  -1.440   4.576   7.604  2.3735 -0.0407 -1.1703
  756MOL0     H 2037  -1.495   4.605   7.443 -0.2686  1.3254  1.8060
  756MOL0     H 2038  -1.633   4.428   7.649  0.4049  2.7451  2.5324
  756MOL0     H 2039  -1.706   4.487   7.498 -1.7520  1.9448 -0.2409
  756MOL0     H 2040  -1.794   4.651   7.639  0.2182 -0.2423 -2.1271
  756MOL0     H 2041  -1.635   4.714   7.626 -1.2265  0.2191  1.3347
  756MOL0     H 2042  -0.773   4.485   7.118 -0.9865 -0.6480 -0.4837
  756MOL0     H 2043  -0.541   4.498   7.230 -0.6073  1.3864  0.6881
  756MOL0     H 2044  -0.155   4.104   7.243 -2.5192  0.9444 -0.0505
  756MOL0     H 2045   0.078   4.054   7.358  1.1051  0.5399  0.0031
  756MOL0     H 2046   0.904   5.570   6.961 -2.4161 -0.9576  0.8200
  756MOL0     H 2047   0.750   5.720   6.872 -0.7047 -0.8924 -0.5052
  756MOL0     H 2048   0.558   5.894   6.506  0.1496 -0.3671 -0.4056
  756MOL0     H 2049   0.441   6.089   6.437 -3.8203  3.0822  0.2887
  756MOL0     H 2050   0.272   6.291   6.547  3.1485 -1.8208 -0.9501
  756MOL0     H 2051   0.294   6.238   6.384 -2.2784 -1.3403 -2.4110
  756MOL0     H 2052   0.072   6.300   6.313 -0.7298  2.2660  0.0255
  756MOL0     H 2053   0.138   6.433   6.391  1.5503 -0.4575 -2.5268
  756MOL0     H 2054  -0.058   6.234   6.529  0.0024  0.0350  0.3562
  756MOL0     H 2055  -0.103   6.393   6.497 -1.2325 -2.5740  0.0557
  756MOL0     H 2056   0.104   6.448   6.654 -2.0784  1.6251  1.0556
  756MOL0     H 2057   0.070   6.276   6.699 -0.4283 -1.7717 -2.7236
  756MOL0     H 2058  -0.269   6.519   6.818 -0.1430  0.2918  1.1883
  756MOL0     H 2059   0.091   5.938   6.657  1.1699 -0.3738  1.6374
  756MOL0     H 2060   0.215   5.741   6.712 -2.3735  0.2797 -0.1958
  757MOL0     O 2061   7.444   2.734   0.794  0.5430 -0.0402 -0.3429
  757MOL0     C 2062   7.420   2.769   0.685  0.3724 -0.5444 -0.8380
  757MOL0     O 2063   7.294   2.776   0.631  0.3645 -0.7770  0.6667
  757MOL0     C 2064   7.183   2.728   0.701 -0.4538 -0.3665  0.1160
  757MOL0     C 2065   7.182   2.621   0.781  0.3585 -0.9603 -0.5807
  757MOL0     C 2066   7.049   2.597   0.830  0.1500  0.2178 -0.4307
  757MOL0     C 2067   6.929   2.660   0.793 -0.9746 -0.5487 -0.0051
  757MOL0     O 2068   6.797   2.630   0.831 -0.5288  0.5290 -0.7842
  757MOL0     C 2069   6.768   2.534   0.932  0.2534 -0.0034 -1.1499
  757MOL0     C 2070   6.746   2.404   0.852  0.2652 -0.0907  0.0373
  757MOL0     C 2071   6.613   2.418   0.773 -0.7769 -0.0099  0.4798
  757MOL0     C 2072   6.575   2.287   0.719  0.1686 -0.7528 -0.7266
  757MOL0     C 2073   6.446   2.289   0.638  0.6595 -0.4464 -0.3358
  757MOL0     C 2074   6.451   2.332   0.487 -0.2049  0.0414 -0.5759
  757MOL0     C 2075   6.503   2.463   0.445  0.2071 -1.0789  0.3434
  757MOL0     C 2076   6.604   2.457   0.332 -0.7082  0.5362 -0.0369
  757MOL0     N 2077   6.732   2.431   0.382  0.4789  0.3775 -1.3330
  757MOL0     C 2078   6.843   2.513   0.385  0.4307  0.8469  0.6742
  757MOL0     C 2079   6.944   2.430   0.432  0.3776 -0.5322  0.5965
  757MOL0     C 2080   7.082   2.478   0.467  0.2591 -0.0485 -0.3796
  757MOL0     C 2081   7.177   2.505   0.347  0.4338  0.2003 -0.5460
  757MOL0     C 2082   7.326   2.500   0.393  0.7927 -0.1096 -0.0588
  757MOL0     C 2083   7.433   2.520   0.280 -0.6520  0.3956 -0.1188
  757MOL0     O 2084   7.553   2.469   0.341 -0.4183 -0.2673 -0.5943
  757MOL0     C 2085   7.674   2.525   0.314 -0.6069  0.0159  0.3192
  757MOL0     C 2086   7.718   2.551   0.183  0.4370 -0.2603 -0.2411
  757MOL0     C 2087   7.852   2.592   0.152  0.9196  0.6027 -0.7498
  757MOL0     C 2088   7.894   2.599   0.006  0.1694 -0.4880  0.0402
  757MOL0     C 2089   7.939   2.622   0.249 -0.4435 -0.1328 -0.3951
  757MOL0     C 2090   8.078   2.670   0.228 -0.2438 -0.2399  0.4233
  757MOL0     O 2091   8.172   2.637   0.321  0.0871 -0.2087  0.5416
  757MOL0     C 2092   8.286   2.706   0.335 -0.1345 -0.1932  0.8061
  757MOL0     C 2093   8.342   2.814   0.268  0.1199  0.0815  1.1561
  757MOL0     C 2094   8.476   2.842   0.276 -0.9855  0.5144 -0.0182
  757MOL0     C 2095   8.568   2.781   0.367 -0.6500  0.0199  0.2043
  757MOL0     O 2096   8.699   2.831   0.385  0.0567  0.5447 -0.4750
  757MOL0     C 2097   8.797   2.739   0.435 -0.1198 -0.6301  0.3911
  757MOL0     C 2098   8.932   2.794   0.413 -0.3997 -0.2835 -0.6188
  757MOL0     C 2099   9.051   2.699   0.429  0.2112 -0.3009 -0.0224
  757MOL0     C 2100   9.036   2.628   0.565 -0.9607  0.1168 -0.0552
  757MOL0     C 2101   9.158   2.537   0.601  0.1081 -0.0832 -0.0921
  757MOL0     C 2102   9.143   2.467   0.733  0.2193  0.6512  0.3696
  757MOL0     C 2103   9.026   2.378   0.730  0.4515  0.1247 -0.4601
  757MOL0     C 2104   9.014   2.262   0.837  0.1389  0.2219 -0.1497
  757MOL0    Cl 2105   8.850   2.184   0.841  0.7587  0.2558  0.1325
  757MOL0     C 2106   8.510   2.678   0.447  0.1690  0.5084  0.1455
  757MOL0     C 2107   8.373   2.656   0.434  0.5821 -0.2502 -0.0236
  757MOL0     O 2108   8.089   2.751   0.136  0.0897 -0.2093  0.2631
  757MOL0     C 2109   7.895   2.605   0.382 -0.2285  0.5447 -0.2095
  757MOL0     C 2110   7.773   2.546   0.414  0.1470 -0.2799 -0.5864
  757MOL0     N 2111   6.889   2.308   0.458 -0.2278  0.4900 -0.3475
  757MOL0     N 2112   6.771   2.304   0.424 -0.2596 -0.6384  0.3273
  757MOL0     C 2113   6.945   2.764   0.705 -0.5092 -0.4165 -0.3374
  757MOL0     C 2114   7.074   2.801   0.663 -0.6240  0.7541 -0.4104
  757MOL0     C 2115   7.533   2.816   0.600 -0.3686 -0.8926 -0.5131
  757MOL0     C 2116   7.652   2.845   0.665  0.2846  0.7735 -0.1021
  757MOL0     C 2117   7.767   2.889   0.593  0.4958 -0.6633 -0.0248
  757MOL0     C 2118   7.768   2.914   0.460 -0.4059  0.2742 -0.1278
  757MOL0     O 2119   7.880   2.980   0.409  0.1233 -0.2094 -0.3307
  757MOL0     C 2120   7.893   2.997   0.261 -0.6896  0.2727 -0.2436
  757MOL0     C 2121   7.873   3.148   0.231 -0.4619 -0.2972  0.6703
  757MOL0     C 2122   7.993   3.235   0.276 -0.2077  0.9038  0.5533
  757MOL0     C 2123   8.114   3.191   0.199  0.2238  0.2774 -0.0036
  757MOL0     C 2124   8.232   3.285   0.219  0.3502 -0.7910 -0.3111
  757MOL0     C 2125   8.323   3.367   0.228  0.4859  0.3770  0.2979
  757MOL0     C 2126   7.647   2.884   0.392 -0.6798 -0.0556 -0.3490
  757MOL0     C 2127   7.542   2.823   0.458  0.6627  0.2437  0.3613
  757MOL0     H 2128   7.271   2.570   0.815 -1.0784 -1.0863  3.5136
  757MOL0     H 2129   7.040   2.507   0.890 -1.7823  1.5944  1.4645
  757MOL0     H 2130   6.843   2.533   1.011 -0.0983  1.1411 -0.7744
  757MOL0     H 2131   6.673   2.566   0.977  0.4184  3.1151 -2.7529
  757MOL0     H 2132   6.832   2.369   0.794 -1.2949  1.0668 -3.2506
  757MOL0     H 2133   6.721   2.330   0.928 -2.7365 -0.8624 -1.5593
  757MOL0     H 2134   6.534   2.473   0.825 -1.0379  1.5558 -1.4330
  757MOL0     H 2135   6.650   2.487   0.696  2.4688  1.6612  3.2532
  757MOL0     H 2136   6.654   2.225   0.677  1.0805 -1.5229  1.9434
  757MOL0     H 2137   6.550   2.233   0.811 -0.0147 -0.2136 -0.4536
  757MOL0     H 2138   6.399   2.190   0.640 -0.7058  0.1615  2.0148
  757MOL0     H 2139   6.373   2.353   0.689  0.2974 -2.3081  1.6326
  757MOL0     H 2140   6.509   2.256   0.434  2.5762  1.0422  0.8059
  757MOL0     H 2141   6.349   2.325   0.450 -0.0088 -0.6929 -1.0056
  757MOL0     H 2142   6.417   2.519   0.407 -0.3401 -1.2587  1.2769
  757MOL0     H 2143   6.539   2.526   0.527  1.4864  0.7601 -1.5448
  757MOL0     H 2144   6.615   2.559   0.295  1.2699  0.7436  1.0414
  757MOL0     H 2145   6.568   2.381   0.261 -1.9020 -0.4423  1.5422
  757MOL0     H 2146   6.864   2.616   0.359  2.0626  0.6827  1.2311
  757MOL0     H 2147   7.076   2.560   0.539  0.6161  0.5892 -1.0686
  757MOL0     H 2148   7.130   2.399   0.526  1.3219  0.4806 -0.5240
  757MOL0     H 2149   7.150   2.605   0.312  1.4817  1.2310  1.4540
  757MOL0     H 2150   7.158   2.430   0.270 -1.0902 -1.3116  1.2085
  757MOL0     H 2151   7.337   2.400   0.434 -1.2230 -0.2383  0.2445
  757MOL0     H 2152   7.339   2.563   0.482 -1.7701 -2.2118  1.9584
  757MOL0     H 2153   7.432   2.627   0.257 -1.5998  0.4450  0.1004
  757MOL0     H 2154   7.415   2.456   0.193 -0.0162  0.2458 -0.1416
  757MOL0     H 2155   7.655   2.524   0.099  0.0319 -1.0606  0.3113
  757MOL0     H 2156   7.994   2.557  -0.006  0.1836 -0.6975  0.8057
  757MOL0     H 2157   7.831   2.539  -0.061  1.1534  0.0521 -1.4166
  757MOL0     H 2158   7.896   2.707  -0.014  4.0160  0.3895  3.6797
  757MOL0     H 2159   8.282   2.877   0.202 -0.7541 -1.1315  0.7392
  757MOL0     H 2160   8.508   2.930   0.220  0.0209  0.3636  0.2882
  757MOL0     H 2161   8.782   2.729   0.543  0.4496 -0.2814  0.5034
  757MOL0     H 2162   8.787   2.640   0.391  1.2394 -0.0935 -1.2152
  757MOL0     H 2163   8.931   2.842   0.315  0.0860 -0.2838 -0.6269
  757MOL0     H 2164   8.949   2.883   0.474  3.7944 -0.5573 -1.0593
  757MOL0     H 2165   9.142   2.759   0.432  1.3963 -2.0343  2.3870
  757MOL0     H 2166   9.052   2.629   0.346 -2.1294 -1.6397  0.9765
  757MOL0     H 2167   9.031   2.707   0.640 -3.1040 -0.8439  0.9321
  757MOL0     H 2168   8.941   2.575   0.579 -2.1382  1.9248 -0.7622
  757MOL0     H 2169   9.251   2.593   0.609  0.2255 -0.0762 -1.3241
  757MOL0     H 2170   9.187   2.468   0.521  4.5749 -0.1956  1.3375
  757MOL0     H 2171   9.230   2.401   0.737 -0.5516 -0.3490  1.2464
  757MOL0     H 2172   9.139   2.546   0.809  1.4776  1.2232 -0.1410
  757MOL0     H 2173   9.007   2.346   0.627  0.1809 -0.2478 -0.2995
  757MOL0     H 2174   8.941   2.445   0.746  0.5226  0.8660 -2.8186
  757MOL0     H 2175   9.038   2.307   0.934  2.2898  2.5524 -1.6555
  757MOL0     H 2176   9.088   2.187   0.809  2.5234  1.7658  1.6425
  757MOL0     H 2177   8.562   2.620   0.521  0.4358 -1.0745 -1.2264
  757MOL0     H 2178   8.330   2.590   0.508 -3.1594  1.5719 -0.3280
  757MOL0     H 2179   7.966   2.618   0.463 -0.5603 -2.8408  0.7933
  757MOL0     H 2180   7.749   2.532   0.519  0.4098 -0.0706 -0.4952
  757MOL0     H 2181   6.863   2.824   0.667 -0.4505  1.0199  1.6700
  757MOL0     H 2182   7.092   2.869   0.581  1.7104 -1.4582 -1.9050
  757MOL0     H 2183   7.663   2.843   0.773 -1.7268 -1.7767  0.1418
  757MOL0     H 2184   7.855   2.909   0.654  0.2154  0.6426 -0.0203
  757MOL0     H 2185   7.995   2.964   0.237 -0.0799  0.3418  1.9659
  757MOL0     H 2186   7.829   2.931   0.202 -0.0754 -0.0229 -0.5966
  757MOL0     H 2187   7.781   3.183   0.279 -1.6974 -1.3876 -0.8299
  757MOL0     H 2188   7.863   3.167   0.124  0.4327  2.4399  0.9908
  757MOL0     H 2189   8.008   3.215   0.382 -1.2589  1.6498  0.8647
  757MOL0     H 2190   7.979   3.339   0.244 -1.3077  0.6677  0.2247
  757MOL0     H 2191   8.094   3.202   0.092  0.3250  3.7566  0.2212
  757MOL0     H 2192   8.145   3.087   0.218  0.4301  0.2684 -0.3717
  757MOL0     H 2193   8.398   3.442   0.246 -0.9489  1.2875  2.9888
  757MOL0     H 2194   7.637   2.905   0.286 -3.2846 -0.3428 -0.2058
  757MOL0     H 2195   7.455   2.793   0.401 -0.5731  1.5166  1.4692
  758MOL0     O 2196   6.847   9.630   7.572  0.3979 -0.1713 -0.1714
  758MOL0     C 2197   6.908   9.539   7.511 -1.2273  0.6768 -1.2513
  758MOL0     O 2198   6.858   9.475   7.402 -0.1674 -0.4692  0.7029
  758MOL0     C 2199   6.747   9.524   7.338  0.6407  0.1709  0.1746
  758MOL0     C 2200   6.626   9.456   7.351 -0.4690  0.0868  0.3693
  758MOL0     C 2201   6.501   9.500   7.293  0.2963 -0.8620  0.3207
  758MOL0     C 2202   6.504   9.615   7.212 -0.0195  0.1371  0.4910
  758MOL0     O 2203   6.402   9.667   7.136  0.3612  1.0932 -0.1537
  758MOL0     C 2204   6.305   9.582   7.079  0.2560 -0.0394 -0.1636
  758MOL0     C 2205   6.154   9.631   7.109 -0.6127  1.5126 -0.7067
  758MOL0     C 2206   6.121   9.757   7.024  1.0854 -0.2227 -0.3853
  758MOL0     C 2207   5.966   9.790   7.029  0.2510 -0.8970 -0.0467
  758MOL0     C 2208   5.910   9.884   6.919  0.2556  0.4135 -0.3513
  758MOL0     C 2209   5.757   9.888   6.945 -0.2605 -0.0285 -0.2609
  758MOL0     C 2210   5.681   9.895   6.814 -0.1819 -0.8812 -0.1704
  758MOL0     C 2211   5.535   9.896   6.839  1.4020  0.3283  0.3193
  758MOL0     N 2212   5.448   9.935   6.723 -0.3590  0.3893 -0.4012
  758MOL0     C 2213   5.344   9.855   6.670 -0.3742  0.8678 -0.1505
  758MOL0     C 2214   5.283   9.931   6.577 -0.0583 -0.3756  1.0484
  758MOL0     C 2215   5.172   9.902   6.490 -0.7677 -0.4248  0.0097
  758MOL0     C 2216   5.038   9.910   6.564  0.4298 -0.7263 -0.7296
  758MOL0     C 2217   4.924   9.835   6.506  0.4688  0.4927  0.1149
  758MOL0     C 2218   4.799   9.852   6.590  0.0337 -0.2885  0.2809
  758MOL0     O 2219   4.789   9.761   6.695 -0.2718  0.8436 -0.3020
  758MOL0     C 2220   4.696   9.782   6.797 -0.2863  0.9074 -0.3036
  758MOL0     C 2221   4.723   9.740   6.930  0.3502 -0.9224 -0.4901
  758MOL0     C 2222   4.624   9.760   7.025 -0.5809  0.1630 -1.4092
  758MOL0     C 2223   4.668   9.712   7.162  0.7868  0.4717  0.5390
  758MOL0     C 2224   4.492   9.805   6.987  0.8873 -0.2810 -1.1517
  758MOL0     C 2225   4.382   9.816   7.087  0.2337  0.0806  0.2421
  758MOL0     O 2226   4.254   9.824   7.027  0.2432 -0.0839 -0.2678
  758MOL0     C 2227   4.144   9.854   7.102 -0.4961  0.8319 -0.8482
  758MOL0     C 2228   4.034   9.768   7.107  0.1656 -0.4699  0.0281
  758MOL0     C 2229   3.934   9.786   7.204 -0.4705  0.3813 -0.2045
  758MOL0     C 2230   3.935   9.886   7.293  0.5659  0.1661  0.4245
  758MOL0     O 2231   3.831   9.893   7.380 -0.3055  0.0495  0.7616
  758MOL0     C 2232   3.790  10.017   7.429  0.1958  0.1275  0.1930
  758MOL0     C 2233   3.682   9.993   7.544 -0.1588  0.0555 -0.0022
  758MOL0     C 2234   3.672  10.112   7.644 -0.4589 -0.8235 -0.0143
  758MOL0     C 2235   3.561  10.079   7.745 -0.0025  0.1549 -0.1618
  758MOL0     C 2236   3.543  10.183   7.852  0.1463 -0.5291 -0.6532
  758MOL0     C 2237   3.431  10.157   7.938 -0.3042 -0.0979 -1.8402
  758MOL0     C 2238   3.412  10.269   8.046  0.0796 -0.0316 -0.6437
  758MOL0     C 2239   3.291  10.269   8.137 -0.0037 -0.6188 -0.5270
  758MOL0    Cl 2240   3.310  10.420   8.242  0.1700 -0.0750 -0.0883
  758MOL0     C 2241   4.052   9.969   7.291  0.1424 -0.0173 -0.1847
  758MOL0     C 2242   4.154   9.960   7.191 -0.0113 -0.3703  0.0831
  758MOL0     O 2243   4.390   9.814   7.208 -0.8882 -0.3482 -0.3960
  758MOL0     C 2244   4.470   9.848   6.853  0.2515  0.2581  0.2974
  758MOL0     C 2245   4.569   9.831   6.761  0.2722  0.5389 -0.2039
  758MOL0     N 2246   5.359  10.046   6.569  0.9134 -0.2794 -0.1559
  758MOL0     N 2247   5.452  10.049   6.657 -0.3008  0.2723 -0.6003
  758MOL0     C 2248   6.623   9.680   7.194 -0.2721 -0.1800  0.3828
  758MOL0     C 2249   6.742   9.636   7.250  0.1892  1.1196 -0.3432
  758MOL0     C 2250   7.036   9.489   7.572 -0.2579  0.1577 -0.2682
  758MOL0     C 2251   7.114   9.408   7.482  0.1181  0.5557 -0.4767
  758MOL0     C 2252   7.227   9.336   7.520 -0.6066  0.3621  0.0423
  758MOL0     C 2253   7.268   9.348   7.651  0.3047 -0.2632 -0.6642
  758MOL0     O 2254   7.377   9.280   7.701  0.5923  0.5685  0.2450
  758MOL0     C 2255   7.484   9.247   7.616 -0.7878 -0.5334 -0.1766
  758MOL0     C 2256   7.570   9.131   7.667  0.1396  0.3003  0.2612
  758MOL0     C 2257   7.665   9.191   7.769  0.9221 -0.7041  0.9482
  758MOL0     C 2258   7.808   9.156   7.748 -0.9259 -0.0508  0.1490
  758MOL0     C 2259   7.882   9.239   7.645 -0.1950 -0.4454 -0.4068
  758MOL0     C 2260   7.933   9.305   7.555 -0.0544  0.7789  0.6229
  758MOL0     C 2261   7.193   9.426   7.739 -0.4819 -1.4317 -1.6158
  758MOL0     C 2262   7.078   9.499   7.700 -0.3970 -0.3658 -0.1543
  758MOL0     H 2263   6.627   9.372   7.419  2.9030 -0.1099  0.2182
  758MOL0     H 2264   6.404   9.461   7.320 -0.3530  0.8489  0.5758
  758MOL0     H 2265   6.318   9.590   6.971 -1.0572  1.9645 -0.2326
  758MOL0     H 2266   6.326   9.481   7.114 -0.4994  0.2871  1.3144
  758MOL0     H 2267   6.086   9.547   7.093  1.3477 -0.4988  0.9883
  758MOL0     H 2268   6.145   9.661   7.214 -1.6092  2.9560 -1.1680
  758MOL0     H 2269   6.180   9.844   7.055  2.7118 -1.6214  0.6142
  758MOL0     H 2270   6.149   9.748   6.918 -2.2840  4.4844 -2.0081
  758MOL0     H 2271   5.907   9.698   7.021  1.4357 -1.5182 -2.8498
  758MOL0     H 2272   5.944   9.840   7.124  3.6567  0.6327  0.0855
  758MOL0     H 2273   5.949   9.985   6.913  3.7602 -0.7965 -0.0434
  758MOL0     H 2274   5.932   9.845   6.819  2.2444  0.8321 -0.1102
  758MOL0     H 2275   5.720   9.798   6.995 -0.8397  0.7273  0.7026
  758MOL0     H 2276   5.740   9.975   7.008  3.0035 -0.8037  1.9454
  758MOL0     H 2277   5.716   9.966   6.739  0.6453 -3.4983 -2.4433
  758MOL0     H 2278   5.714   9.805   6.761  2.2390  0.7477 -1.6238
  758MOL0     H 2279   5.515   9.966   6.921  4.5194 -2.2815  3.6453
  758MOL0     H 2280   5.500   9.796   6.867  0.1985 -0.2235 -2.7956
  758MOL0     H 2281   5.317   9.750   6.683  1.0769  0.0795 -2.7245
  758MOL0     H 2282   5.161   9.978   6.413 -0.0732  0.9695  1.2434
  758MOL0     H 2283   5.181   9.806   6.438 -0.4566  0.0856 -0.8904
  758MOL0     H 2284   5.008  10.014   6.576  0.7469 -0.5285 -1.5897
  758MOL0     H 2285   5.052   9.874   6.667  1.3600  1.1729 -0.1606
  758MOL0     H 2286   4.941   9.727   6.508 -0.7351  0.2572  2.7781
  758MOL0     H 2287   4.895   9.874   6.408  1.6882 -2.2907 -1.4858
  758MOL0     H 2288   4.712   9.843   6.524 -0.2199  0.9945  0.4041
  758MOL0     H 2289   4.806   9.951   6.635  0.4749  0.1264 -0.6722
  758MOL0     H 2290   4.808   9.680   6.961  1.6330  1.0408 -0.0280
  758MOL0     H 2291   4.583   9.701   7.231 -1.2809  2.4825 -1.4806
  758MOL0     H 2292   4.699   9.610   7.138 -2.3179 -0.0975 -1.7972
  758MOL0     H 2293   4.754   9.767   7.201  0.9081  0.7078 -0.0597
  758MOL0     H 2294   4.025   9.694   7.028  2.3663 -0.0668 -0.6780
  758MOL0     H 2295   3.856   9.712   7.216  2.4978 -2.9082  0.4948
  758MOL0     H 2296   3.877  10.070   7.471  0.1558  1.8482 -1.7479
  758MOL0     H 2297   3.755  10.082   7.348 -1.5683  1.3343  1.8435
  758MOL0     H 2298   3.582   9.973   7.505 -0.3398  1.5868 -0.3994
  758MOL0     H 2299   3.712   9.902   7.597  3.6942  1.5904  0.7613
  758MOL0     H 2300   3.650  10.210   7.601 -0.9072  0.4290  2.7780
  758MOL0     H 2301   3.762  10.121   7.706 -0.6211  0.6439  0.0400
  758MOL0     H 2302   3.471  10.079   7.683 -0.7804  1.1111  0.9308
  758MOL0     H 2303   3.571   9.983   7.795 -2.7705 -0.3557 -0.4171
  758MOL0     H 2304   3.535  10.285   7.815 -0.0361  0.4359  1.8522
  758MOL0     H 2305   3.638  10.177   7.906  0.2538  1.7287 -0.5140
  758MOL0     H 2306   3.345  10.155   7.870 -0.3358 -1.4334 -1.7836
  758MOL0     H 2307   3.439  10.055   7.974  1.1216  0.0076 -1.8165
  758MOL0     H 2308   3.409  10.370   8.004  0.3594  1.4456  2.5985
  758MOL0     H 2309   3.502  10.253   8.107  0.8415  1.3659 -1.3571
  758MOL0     H 2310   3.297  10.181   8.201  2.1141  0.3860  0.7621
  758MOL0     H 2311   3.204  10.255   8.072 -0.3061 -0.8401 -0.0736
  758MOL0     H 2312   4.071  10.044   7.367 -2.2055 -0.2307  0.6785
  758MOL0     H 2313   4.242  10.024   7.188  0.5765 -1.1812 -0.2205
  758MOL0     H 2314   4.394   9.918   6.821  1.1443  1.5666  0.9231
  758MOL0     H 2315   4.552   9.854   6.656  0.0535 -0.6664 -0.4496
  758MOL0     H 2316   6.622   9.774   7.141 -2.0236  0.2601  1.1079
  758MOL0     H 2317   6.834   9.693   7.255 -0.1621  1.5865  2.5040
  758MOL0     H 2318   7.088   9.400   7.377  1.8892  1.6965 -1.0517
  758MOL0     H 2319   7.282   9.278   7.446 -0.9532 -0.4454  0.4042
  758MOL0     H 2320   7.443   9.196   7.528 -0.6056 -2.5661  0.8600
  758MOL0     H 2321   7.538   9.337   7.587  0.2539 -0.8116  0.8537
  758MOL0     H 2322   7.631   9.093   7.584 -0.2400 -0.7844  0.4572
  758MOL0     H 2323   7.516   9.047   7.711  0.2343  0.1363  0.0687
  758MOL0     H 2324   7.631   9.150   7.864 -0.2339  1.3277  1.4736
  758MOL0     H 2325   7.652   9.300   7.760  0.6118 -0.9031 -3.2482
  758MOL0     H 2326   7.818   9.050   7.724 -2.2337 -0.0268 -0.5984
  758MOL0     H 2327   7.860   9.170   7.844 -1.8369 -1.3403  0.8635
  758MOL0     H 2328   7.978   9.356   7.472 -1.2265  0.7425 -0.0663
  758MOL0     H 2329   7.219   9.409   7.843  2.0372 -0.4404 -2.0084
  758MOL0     H 2330   7.014   9.552   7.770  0.2663  0.3196 -0.0650
  759MOL0     O 2331   3.664   5.074   9.728 -0.6080  0.4230 -0.1725
  759MOL0     C 2332   3.665   5.197   9.749  0.2687  0.1690  0.3130
  759MOL0     O 2333   3.772   5.269   9.790  0.7807 -0.4094 -0.6663
  759MOL0     C 2334   3.879   5.213   9.858 -1.6561  0.9096  0.1142
  759MOL0     C 2335   4.005   5.275   9.853  1.1028  0.3059 -0.5761
  759MOL0     C 2336   4.105   5.224   9.929  0.4555 -0.3412  0.3119
  759MOL0     C 2337   4.096   5.102  10.002 -0.4428 -0.0910  0.7821
  759MOL0     O 2338   4.194   5.035  10.069 -0.5201  0.7434 -0.5960
  759MOL0     C 2339   4.332   5.066  10.036 -0.5085 -0.1073 -0.9528
  759MOL0     C 2340   4.356   5.020   9.895  0.4056 -0.3100 -0.1093
  759MOL0     C 2341   4.495   5.062   9.853 -0.3584 -0.6849  0.7308
  759MOL0     C 2342   4.532   5.006   9.712 -0.0957  0.1545  0.0561
  759MOL0     C 2343   4.685   4.974   9.712  0.7481 -0.2495 -0.0944
  759MOL0     C 2344   4.723   4.916   9.572 -0.0734  0.3348 -0.5496
  759MOL0     C 2345   4.875   4.959   9.551 -0.5051 -1.0603  0.2713
  759MOL0     C 2346   4.890   5.081   9.464 -0.1844 -0.2737 -0.2052
  759MOL0     N 2347   5.017   5.150   9.476 -0.2714  0.8725  0.0270
  759MOL0     C 2348   5.140   5.091   9.452  0.0576  0.4251  0.2493
  759MOL0     C 2349   5.236   5.191   9.444 -0.4536 -0.0167 -0.3145
  759MOL0     C 2350   5.380   5.172   9.402  0.5540 -1.0338  0.4825
  759MOL0     C 2351   5.465   5.230   9.519  0.0819  0.8448 -0.2792
  759MOL0     C 2352   5.607   5.173   9.524 -0.3096 -0.6712  0.2836
  759MOL0     C 2353   5.704   5.227   9.414  1.0387  0.6757  0.2538
  759MOL0     O 2354   5.817   5.143   9.417 -0.8131  0.1018  0.5627
  759MOL0     C 2355   5.938   5.189   9.456  0.6421 -0.8964 -0.3216
  759MOL0     C 2356   6.049   5.117   9.414  0.1389  0.6847  1.4220
  759MOL0     C 2357   6.182   5.154   9.459 -0.2206  0.2132 -0.1285
  759MOL0     C 2358   6.304   5.073   9.403  0.5242  0.3112  0.7811
  759MOL0     C 2359   6.194   5.248   9.568 -0.5278  1.5784 -0.0448
  759MOL0     C 2360   6.325   5.304   9.618  0.0570  0.0163 -0.0402
  759MOL0     O 2361   6.442   5.248   9.569  0.4004  0.2936 -0.5416
  759MOL0     C 2362   6.554   5.281   9.639  0.9606 -0.4040  0.1973
  759MOL0     C 2363   6.623   5.405   9.614 -0.1653  0.9493 -0.9863
  759MOL0     C 2364   6.739   5.426   9.699  0.1277 -0.6291  0.6855
  759MOL0     C 2365   6.769   5.336   9.801 -0.4115 -1.0769 -0.3475
  759MOL0     O 2366   6.875   5.345   9.875 -0.1333 -0.3513  0.7998
  759MOL0     C 2367   6.921   5.468   9.915 -0.4989 -0.1177  0.6407
  759MOL0     C 2368   7.040   5.431  10.012  0.1708  0.2824  0.2392
  759MOL0     C 2369   6.998   5.423  10.159 -0.3727  0.3763 -0.4475
  759MOL0     C 2370   6.920   5.298  10.205  0.0101  0.0020 -0.1955
  759MOL0     C 2371   6.872   5.322  10.354 -0.0862  0.8722  0.8458
  759MOL0     C 2372   6.793   5.203  10.401 -0.2611  0.1924 -0.2220
  759MOL0     C 2373   6.660   5.177  10.327 -0.3781 -1.0215 -0.1525
  759MOL0     C 2374   6.576   5.071  10.404 -0.5941 -0.0173 -0.2337
  759MOL0    Cl 2375   6.645   4.909  10.390 -0.1385 -0.4286  0.0683
  759MOL0     C 2376   6.685   5.230   9.831 -0.4210 -0.5071  0.0832
  759MOL0     C 2377   6.582   5.201   9.748  0.0878 -0.4125  0.7072
  759MOL0     O 2378   6.321   5.407   9.690 -0.1251  0.2457  0.5684
  759MOL0     C 2379   6.076   5.306   9.618 -0.8455  1.1165 -0.2142
  759MOL0     C 2380   5.956   5.286   9.554  0.8357  0.1635  0.5941
  759MOL0     N 2381   5.169   5.307   9.478 -0.1431  0.4748 -0.1949
  759MOL0     N 2382   5.041   5.280   9.500 -0.1014  0.2320  0.2009
  759MOL0     C 2383   3.981   5.032  10.001  0.3988 -0.3740 -1.0548
  759MOL0     C 2384   3.871   5.087   9.939  0.8390 -0.8773  0.5433
  759MOL0     C 2385   3.538   5.269   9.724 -0.6269  0.1395  0.1243
  759MOL0     C 2386   3.534   5.415   9.706  0.4247  0.8038  0.1406
  759MOL0     C 2387   3.419   5.490   9.685  0.5810  0.4738  0.0715
  759MOL0     C 2388   3.292   5.422   9.670 -1.2698 -1.3230  0.2564
  759MOL0     O 2389   3.167   5.480   9.648 -0.3735  0.4057 -0.0920
  759MOL0     C 2390   3.158   5.624   9.622  0.6651  0.3865  0.0955
  759MOL0     C 2391   3.013   5.655   9.548 -0.2456  0.4771  0.6185
  759MOL0     C 2392   2.893   5.590   9.615 -0.8899  0.2513 -0.3472
  759MOL0     C 2393   2.780   5.570   9.521  0.4343  0.0218 -0.0470
  759MOL0     C 2394   2.706   5.694   9.499 -0.5078 -0.3186 -0.2200
  759MOL0     C 2395   2.640   5.799   9.484  1.4553  0.2377  0.6457
  759MOL0     C 2396   3.303   5.282   9.667  0.2827 -0.1890  0.7372
  759MOL0     C 2397   3.415   5.206   9.692  0.0360  1.0123  0.2126
  759MOL0     H 2398   4.024   5.364   9.794  0.1496  1.5133  0.8685
  759MOL0     H 2399   4.201   5.271   9.907 -0.7142  1.5708 -1.0335
  759MOL0     H 2400   4.346   5.175  10.036 -1.6605  0.0743 -2.7877
  759MOL0     H 2401   4.403   5.014  10.101  2.5313  0.7377 -3.3413
  759MOL0     H 2402   4.350   4.911   9.899 -1.1091 -0.2387  0.3010
  759MOL0     H 2403   4.284   5.060   9.824  1.2086  0.3312 -0.5871
  759MOL0     H 2404   4.504   5.171   9.855  0.1806 -0.6906 -0.5225
  759MOL0     H 2405   4.564   5.027   9.930  0.6161  0.6223  0.4939
  759MOL0     H 2406   4.476   4.917   9.682  0.6350 -1.1344  2.2368
  759MOL0     H 2407   4.507   5.085   9.641  1.0576 -0.5281 -1.1415
  759MOL0     H 2408   4.744   5.064   9.733 -0.0653  0.2045  0.3002
  759MOL0     H 2409   4.714   4.901   9.787 -0.4448 -0.0048  0.6299
  759MOL0     H 2410   4.696   4.811   9.562 -3.2921  0.6330  2.8083
  759MOL0     H 2411   4.664   4.971   9.498  0.9662 -1.0759 -2.5384
  759MOL0     H 2412   4.913   4.996   9.647 -0.0139 -2.9210  0.8345
  759MOL0     H 2413   4.940   4.872   9.538 -1.7122 -2.9387  4.8884
  759MOL0     H 2414   4.806   5.141   9.500  1.3020  0.5115  2.1988
  759MOL0     H 2415   4.872   5.056   9.359  3.8601  0.4741 -1.2751
  759MOL0     H 2416   5.159   4.993   9.411  0.6737  1.0308 -0.9493
  759MOL0     H 2417   5.401   5.067   9.380 -0.6181 -0.7894 -2.2169
  759MOL0     H 2418   5.405   5.219   9.307 -0.3039 -0.7056  0.4131
  759MOL0     H 2419   5.408   5.203   9.609 -1.8125 -1.8919 -2.1464
  759MOL0     H 2420   5.455   5.337   9.500  0.6793  0.5922 -2.1360
  759MOL0     H 2421   5.596   5.065   9.514  0.1736 -0.6760 -0.2305
  759MOL0     H 2422   5.655   5.198   9.619  1.7883  3.5630 -1.5919
  759MOL0     H 2423   5.723   5.335   9.414 -0.7036  1.0301  1.5938
  759MOL0     H 2424   5.645   5.212   9.323  0.7610  2.3349  0.1359
  759MOL0     H 2425   6.041   5.040   9.338  1.8026  0.7403  1.1385
  759MOL0     H 2426   6.336   5.021   9.494 -3.0187  1.4619  2.8711
  759MOL0     H 2427   6.275   5.001   9.327  2.9280  2.7938 -2.7917
  759MOL0     H 2428   6.378   5.139   9.356  0.5921 -1.8528 -2.4455
  759MOL0     H 2429   6.587   5.467   9.532 -2.0129  1.8894  0.4656
  759MOL0     H 2430   6.793   5.519   9.684 -0.9709 -0.2159 -0.9944
  759MOL0     H 2431   6.951   5.521   9.825 -1.1666 -4.2043 -2.2697
  759MOL0     H 2432   6.850   5.526   9.976 -1.5817 -1.0647  0.3304
  759MOL0     H 2433   7.105   5.345   9.990 -2.7019 -2.1371  0.6322
  759MOL0     H 2434   7.113   5.512  10.001  2.3162 -1.5522  0.2197
  759MOL0     H 2435   6.932   5.506  10.185 -3.5956 -2.3731  0.8433
  759MOL0     H 2436   7.089   5.418  10.220  1.1570  1.8235 -2.4526
  759MOL0     H 2437   6.836   5.292  10.136  1.0299  0.4420 -1.5142
  759MOL0     H 2438   6.975   5.204  10.193  0.4472  0.1313  0.7531
  759MOL0     H 2439   6.818   5.416  10.371 -1.8940 -0.1143  0.7885
  759MOL0     H 2440   6.960   5.319  10.420 -0.9221  0.3248  1.9735
  759MOL0     H 2441   6.860   5.116  10.398  0.4744  0.7500 -0.4187
  759MOL0     H 2442   6.772   5.220  10.507  2.7764 -1.0606  0.6972
  759MOL0     H 2443   6.682   5.138  10.227  2.9788 -0.0362  0.0847
  759MOL0     H 2444   6.611   5.274  10.317 -1.7152 -1.5181  1.2464
  759MOL0     H 2445   6.470   5.067  10.375 -0.1966 -1.4740 -1.6225
  759MOL0     H 2446   6.587   5.106  10.507  3.5539 -0.9012 -0.2340
  759MOL0     H 2447   6.698   5.168   9.919 -1.2124 -1.2561 -0.3099
  759MOL0     H 2448   6.514   5.118   9.762  0.3792 -0.9860 -1.0602
  759MOL0     H 2449   6.070   5.381   9.696  1.7179 -0.4522  1.6481
  759MOL0     H 2450   5.872   5.348   9.583  1.8550  2.4296 -1.0443
  759MOL0     H 2451   3.969   4.935  10.048  0.9534  1.1593  2.6325
  759MOL0     H 2452   3.777   5.032   9.945  0.9060 -1.0514  0.0637
  759MOL0     H 2453   3.621   5.481   9.710  1.4108 -0.3827 -0.6815
  759MOL0     H 2454   3.420   5.598   9.693 -2.2943  0.4788  1.3467
  759MOL0     H 2455   3.156   5.684   9.715 -2.0128 -0.8989  0.9649
  759MOL0     H 2456   3.231   5.667   9.553 -2.4323  2.8672 -1.9410
  759MOL0     H 2457   3.022   5.615   9.446  0.8628 -2.5965  1.7956
  759MOL0     H 2458   3.002   5.763   9.539  0.1844  0.8529  3.6075
  759MOL0     H 2459   2.859   5.649   9.701  0.5441 -0.0286  0.4540
  759MOL0     H 2460   2.919   5.492   9.656  0.3276  1.5840  2.3407
  759MOL0     H 2461   2.711   5.500   9.568  1.0413  0.9827  2.3982
  759MOL0     H 2462   2.805   5.524   9.425 -0.0078  0.4955 -0.4009
  759MOL0     H 2463   2.575   5.884   9.494  1.7793  0.2432  4.0879
  759MOL0     H 2464   3.210   5.238   9.636  0.8504 -0.2197 -1.0139
  759MOL0     H 2465   3.390   5.100   9.686  1.6621  0.5933  0.2739
  760MOL0     O 2466   7.460   3.838   0.367 -0.1145 -0.1579  0.0695
  760MOL0     C 2467   7.442   3.964   0.370  0.6922  1.4567  0.4362
  760MOL0     O 2468   7.319   4.023   0.347  0.0444 -0.3583  0.0425
  760MOL0     C 2469   7.196   3.965   0.351  0.0406  0.4104 -0.1651
  760MOL0     C 2470   7.089   4.049   0.323 -0.1196  0.0357  0.3995
  760MOL0     C 2471   6.958   4.010   0.335  0.1731  0.6107 -0.4954
  760MOL0     C 2472   6.927   3.885   0.389  0.2904  0.2138 -0.8630
  760MOL0     O 2473   6.798   3.850   0.409 -0.2950 -0.0020 -0.2567
  760MOL0     C 2474   6.686   3.919   0.348  0.2391  0.6353 -0.4077
  760MOL0     C 2475   6.562   3.843   0.379 -0.0332 -0.7045 -0.2773
  760MOL0     C 2476   6.449   3.939   0.400 -0.2996 -0.2966  0.0648
  760MOL0     C 2477   6.433   4.054   0.296  0.8888 -0.5672  0.0142
  760MOL0     C 2478   6.385   3.984   0.172  0.6278 -0.5978  0.1736
  760MOL0     C 2479   6.318   4.086   0.085  0.7745  0.0899  0.2731
  760MOL0     C 2480   6.399   4.207   0.051  0.1666  0.0746 -0.3015
  760MOL0     C 2481   6.518   4.172  -0.031  0.3310  0.2256 -0.1139
  760MOL0     N 2482   6.592   4.302  -0.059 -0.1638  0.0541 -0.7990
  760MOL0     C 2483   6.556   4.397  -0.153 -0.9000 -0.8974 -0.6503
  760MOL0     C 2484   6.650   4.503  -0.135 -0.1396  0.0620  0.4339
  760MOL0     C 2485   6.662   4.632  -0.215  0.3892  0.0009  0.2732
  760MOL0     C 2486   6.669   4.764  -0.122 -0.6740  0.3900  0.4689
  760MOL0     C 2487   6.774   4.859  -0.180  0.2528 -0.9204  0.1128
  760MOL0     C 2488   6.735   5.001  -0.135  0.8497  0.0856 -0.5548
  760MOL0     O 2489   6.599   5.039  -0.177 -0.0196  0.3240 -0.7623
  760MOL0     C 2490   6.543   5.132  -0.093  0.4046  0.3735 -0.0855
  760MOL0     C 2491   6.593   5.259  -0.074 -0.0872  0.1428  0.7493
  760MOL0     C 2492   6.525   5.352   0.001 -0.1384 -0.4054 -0.0136
  760MOL0     C 2493   6.606   5.475   0.026  0.4012  0.5994  0.8130
  760MOL0     C 2494   6.391   5.333   0.048  0.2446  0.4068 -0.0099
  760MOL0     C 2495   6.306   5.424   0.131 -1.2724  0.0032  0.4346
  760MOL0     O 2496   6.177   5.401   0.125 -0.0202  0.8667 -0.1310
  760MOL0     C 2497   6.101   5.452   0.237 -1.1064 -0.6313  0.8830
  760MOL0     C 2498   6.088   5.595   0.251 -1.0787 -0.7758 -0.1498
  760MOL0     C 2499   5.996   5.641   0.350  0.5505 -0.3379  0.1403
  760MOL0     C 2500   5.927   5.555   0.436 -0.1871  0.0288  0.7066
  760MOL0     O 2501   5.836   5.593   0.531  0.1133  0.4615 -0.2778
  760MOL0     C 2502   5.854   5.721   0.591 -0.8997 -0.3944  0.3993
  760MOL0     C 2503   5.759   5.729   0.714 -0.2767 -0.9983  0.4925
  760MOL0     C 2504   5.616   5.729   0.671 -0.3271 -0.4408  0.1977
  760MOL0     C 2505   5.510   5.711   0.789 -0.7482 -0.0481  0.1159
  760MOL0     C 2506   5.372   5.675   0.729  0.1962 -0.3762  0.7703
  760MOL0     C 2507   5.303   5.785   0.650  0.2638  0.2932 -0.1571
  760MOL0     C 2508   5.190   5.731   0.563 -0.3341  0.2575  0.1446
  760MOL0     C 2509   5.122   5.837   0.477  0.5153  0.4397 -0.1851
  760MOL0    Cl 2510   4.958   5.769   0.432  0.0629 -0.4090 -0.3849
  760MOL0     C 2511   5.939   5.413   0.408  0.5499 -0.9179 -0.6005
  760MOL0     C 2512   6.026   5.363   0.314 -0.0928 -0.0122 -0.0157
  760MOL0     O 2513   6.360   5.499   0.214  0.6260 -0.1932  0.7998
  760MOL0     C 2514   6.334   5.204   0.014  0.3529 -0.6475  0.2961
  760MOL0     C 2515   6.413   5.104  -0.044 -0.1940 -0.2838  0.1770
  760MOL0     N 2516   6.737   4.466  -0.040  0.3490  1.0455 -0.1444
  760MOL0     N 2517   6.700   4.352   0.011  0.0265 -0.1540  0.7172
  760MOL0     C 2518   7.033   3.796   0.426  0.4096 -0.0629  0.0716
  760MOL0     C 2519   7.161   3.828   0.396 -0.4193 -0.5303 -0.0571
  760MOL0     C 2520   7.559   4.042   0.385  1.2211 -0.9687  0.5845
  760MOL0     C 2521   7.564   4.163   0.306 -0.6586  0.2212 -0.4942
  760MOL0     C 2522   7.681   4.246   0.316  0.8472  0.1381 -0.1100
  760MOL0     C 2523   7.794   4.210   0.391 -0.0079 -0.3335 -0.2276
  760MOL0     O 2524   7.905   4.285   0.408  0.9122 -0.7245 -0.1636
  760MOL0     C 2525   7.902   4.417   0.357  0.3847 -0.1244 -0.2882
  760MOL0     C 2526   8.030   4.485   0.409 -0.3218 -0.0186  0.6865
  760MOL0     C 2527   8.158   4.431   0.347 -0.1875  1.1890  0.8091
  760MOL0     C 2528   8.280   4.515   0.388 -0.4344  0.2455 -0.2226
  760MOL0     C 2529   8.326   4.602   0.281  0.1831 -0.7250 -1.1348
  760MOL0     C 2530   8.366   4.656   0.183  0.8203  0.5126 -0.5001
  760MOL0     C 2531   7.793   4.081   0.465  0.6863 -0.3168 -0.0281
  760MOL0     C 2532   7.670   4.000   0.462 -0.2302 -0.3992  0.6147
  760MOL0     H 2533   7.106   4.153   0.297  1.0759 -0.7017 -2.0839
  760MOL0     H 2534   6.879   4.074   0.299 -0.8411 -0.4766 -0.2503
  760MOL0     H 2535   6.682   4.022   0.385 -1.7775  1.2531 -2.1077
  760MOL0     H 2536   6.700   3.919   0.239 -0.8343  0.1912 -0.5627
  760MOL0     H 2537   6.550   3.771   0.297 -0.8099  0.8384 -1.5724
  760MOL0     H 2538   6.575   3.797   0.477 -2.0304  0.6227  0.6658
  760MOL0     H 2539   6.362   3.874   0.389 -0.5268  0.0030  0.0905
  760MOL0     H 2540   6.450   3.980   0.501 -5.1362  0.6162 -0.0144
  760MOL0     H 2541   6.354   4.121   0.330  2.2500 -0.0744  2.4179
  760MOL0     H 2542   6.517   4.119   0.271  2.2987 -2.5447 -0.6188
  760MOL0     H 2543   6.470   3.945   0.116  0.5625  0.3688 -0.6400
  760MOL0     H 2544   6.314   3.903   0.188  0.9279 -0.6333  1.3696
  760MOL0     H 2545   6.294   4.031  -0.007 -0.1668 -0.6472  0.9411
  760MOL0     H 2546   6.229   4.117   0.141  0.4303  0.4845 -0.4692
  760MOL0     H 2547   6.339   4.267  -0.018 -0.8152  1.4326  1.6319
  760MOL0     H 2548   6.424   4.271   0.136  3.1637 -0.2333 -0.8552
  760MOL0     H 2549   6.487   4.128  -0.127  0.0300  2.1067 -0.9238
  760MOL0     H 2550   6.590   4.110   0.023  1.9164  1.9062 -0.2331
  760MOL0     H 2551   6.472   4.393  -0.223 -2.5878 -1.9598  1.3126
  760MOL0     H 2552   6.750   4.635  -0.280  0.8315  1.9698  0.8952
  760MOL0     H 2553   6.577   4.643  -0.283  1.9776  1.6362 -1.5750
  760MOL0     H 2554   6.709   4.732  -0.025  1.1876 -1.8415 -0.9255
  760MOL0     H 2555   6.569   4.807  -0.117 -0.8007  0.1268  0.2008
  760MOL0     H 2556   6.773   4.844  -0.289  3.8695  0.0346 -0.1819
  760MOL0     H 2557   6.877   4.840  -0.146 -0.6519 -1.5090  2.7530
  760MOL0     H 2558   6.794   5.085  -0.173 -2.5754  4.1679  2.1761
  760MOL0     H 2559   6.742   5.011  -0.026 -1.0224 -1.4971 -0.2272
  760MOL0     H 2560   6.688   5.282  -0.120 -0.4876 -1.2104 -0.8407
  760MOL0     H 2561   6.685   5.466   0.100  1.5867 -1.1512 -0.5817
  760MOL0     H 2562   6.655   5.503  -0.068  2.5451 -1.4903  1.1988
  760MOL0     H 2563   6.548   5.563   0.056  0.3499  1.2526 -1.0707
  760MOL0     H 2564   6.154   5.653   0.187 -0.4410 -0.8623  0.4034
  760MOL0     H 2565   5.957   5.742   0.358 -2.7651 -1.4110 -0.7136
  760MOL0     H 2566   5.959   5.725   0.625 -1.0574 -1.5710  1.0831
  760MOL0     H 2567   5.828   5.804   0.525 -4.4311 -0.8196  1.0850
  760MOL0     H 2568   5.771   5.634   0.767 -1.1394  0.0872  2.7466
  760MOL0     H 2569   5.791   5.809   0.781  2.0728 -0.3424 -1.2484
  760MOL0     H 2570   5.611   5.644   0.602 -2.0575  1.0290 -1.6214
  760MOL0     H 2571   5.595   5.816   0.608  0.0388 -1.2354 -1.0514
  760MOL0     H 2572   5.538   5.627   0.853  1.4305 -0.5808 -1.4256
  760MOL0     H 2573   5.479   5.796   0.851 -4.0822  0.2130 -1.6671
  760MOL0     H 2574   5.303   5.653   0.811  1.9608 -0.3986  2.3318
  760MOL0     H 2575   5.380   5.586   0.667 -0.1585 -1.4676  2.2386
  760MOL0     H 2576   5.282   5.862   0.725  2.6151 -0.7565  1.7076
  760MOL0     H 2577   5.360   5.836   0.572 -0.1093 -0.6284 -1.0484
  760MOL0     H 2578   5.122   5.681   0.633 -0.6722 -1.9654 -1.6359
  760MOL0     H 2579   5.225   5.652   0.495  0.4422  0.2022  0.6082
  760MOL0     H 2580   5.178   5.858   0.385  1.6387  0.6604  0.5226
  760MOL0     H 2581   5.097   5.932   0.526 -0.7438  0.3363 -0.6038
  760MOL0     H 2582   5.877   5.346   0.467 -2.1246 -0.4622 -2.6932
  760MOL0     H 2583   6.030   5.255   0.304  2.5284 -0.3217  2.8566
  760MOL0     H 2584   6.234   5.177   0.049  1.4366 -4.2873  1.0743
  760MOL0     H 2585   6.375   5.003  -0.052 -1.2203  0.1862 -1.7783
  760MOL0     H 2586   7.008   3.705   0.480  0.3897 -0.7799 -1.1020
  760MOL0     H 2587   7.250   3.775   0.428  2.0018  1.8833 -2.1777
  760MOL0     H 2588   7.474   4.196   0.254 -0.8878  2.1775  1.0164
  760MOL0     H 2589   7.665   4.338   0.261 -3.4296 -2.4014 -3.8241
  760MOL0     H 2590   7.895   4.426   0.248 -1.6960  0.4206 -0.1612
  760MOL0     H 2591   7.821   4.476   0.400 -0.9084 -1.2204 -1.1188
  760MOL0     H 2592   8.044   4.468   0.517  0.0223 -0.5317  0.5657
  760MOL0     H 2593   8.026   4.590   0.379  0.9404  0.0189  0.6006
  760MOL0     H 2594   8.151   4.435   0.238  3.9878  0.8865  0.3573
  760MOL0     H 2595   8.177   4.327   0.378  0.2205  1.5564  1.8446
  760MOL0     H 2596   8.357   4.444   0.420 -0.1015  0.9671  0.6277
  760MOL0     H 2597   8.252   4.585   0.467  0.8517  2.1974 -1.4014
  760MOL0     H 2598   8.406   4.709   0.099  1.4157  0.7299 -0.0870
  760MOL0     H 2599   7.877   4.048   0.526  1.8525  3.0319  0.4353
  760MOL0     H 2600   7.670   3.911   0.524  1.9270 -0.1213  1.0927
  761MOL0     O 2601   8.436   4.466   3.562 -0.2399  0.1136 -0.3375
  761MOL0     C 2602   8.527   4.377   3.567 -0.3131  0.4206 -0.2652
  761MOL0     O 2603   8.562   4.307   3.682  0.4399 -0.0275 -0.7813
  761MOL0     C 2604   8.493   4.305   3.797 -0.1592  0.2308 -0.4683
  761MOL0     C 2605   8.491   4.420   3.874  0.5173  0.6847  0.0785
  761MOL0     C 2606   8.424   4.405   3.993  1.4338 -0.5993 -0.5473
  761MOL0     C 2607   8.361   4.284   4.041 -1.4527  0.6206  0.6562
  761MOL0     O 2608   8.298   4.275   4.157 -0.6282  0.4199 -0.4608
  761MOL0     C 2609   8.325   4.358   4.263 -0.4433 -1.0335  0.9182
  761MOL0     C 2610   8.254   4.324   4.392  0.3455  1.2865 -0.6847
  761MOL0     C 2611   8.307   4.397   4.514  0.4984  0.4475  0.8207
  761MOL0     C 2612   8.252   4.346   4.647  0.5328 -0.5442 -0.2178
  761MOL0     C 2613   8.327   4.388   4.764 -0.7712 -1.4061 -1.3101
  761MOL0     C 2614   8.265   4.361   4.902 -0.1927  0.7118 -0.4214
  761MOL0     C 2615   8.313   4.454   5.018  0.1872 -0.3534  0.3113
  761MOL0     C 2616   8.221   4.441   5.139 -0.3274  0.0557 -0.0629
  761MOL0     N 2617   8.213   4.304   5.198  0.3157  0.3721 -0.1394
  761MOL0     C 2618   8.303   4.197   5.184  0.2089 -0.0226  0.2329
  761MOL0     C 2619   8.228   4.098   5.235 -0.0457  0.1521  0.0138
  761MOL0     C 2620   8.276   3.957   5.245 -0.7229 -0.2083 -1.1701
  761MOL0     C 2621   8.260   3.870   5.121  0.3721  0.1035 -0.9702
  761MOL0     C 2622   8.114   3.868   5.078  0.4969  0.0818  0.6726
  761MOL0     C 2623   8.079   3.781   4.956  0.2452  0.0569  0.3749
  761MOL0     O 2624   8.094   3.642   4.971 -0.1283 -0.4954 -0.2247
  761MOL0     C 2625   8.015   3.558   5.058 -0.4716  0.3545  0.7691
  761MOL0     C 2626   7.905   3.610   5.122  0.3574 -0.2871  0.5387
  761MOL0     C 2627   7.825   3.522   5.200  0.1568 -0.7014  0.4320
  761MOL0     C 2628   7.713   3.585   5.282  0.1788 -0.4050 -0.2756
  761MOL0     C 2629   7.847   3.380   5.206  0.6961 -0.0360 -0.1756
  761MOL0     C 2630   7.778   3.289   5.296  0.1492  0.1344  0.2999
  761MOL0     O 2631   7.644   3.314   5.308 -0.0783 -0.0483  0.2176
  761MOL0     C 2632   7.557   3.223   5.356  0.2855  0.0076 -0.4528
  761MOL0     C 2633   7.475   3.257   5.461  0.4266 -0.4172  0.6297
  761MOL0     C 2634   7.373   3.169   5.510 -0.3627 -0.4699  0.5120
  761MOL0     C 2635   7.350   3.039   5.455 -1.0268 -0.2165  0.4073
  761MOL0     O 2636   7.265   2.947   5.506  0.0390 -0.1258  0.0866
  761MOL0     C 2637   7.238   2.968   5.643  0.9233  1.2027 -0.0496
  761MOL0     C 2638   7.167   2.840   5.701  0.0712 -0.0451  1.2389
  761MOL0     C 2639   7.039   2.791   5.617 -0.3580 -0.3989  0.2502
  761MOL0     C 2640   6.992   2.652   5.664  0.7236 -0.1213  0.8351
  761MOL0     C 2641   6.875   2.582   5.580  0.2199 -0.3341 -0.0795
  761MOL0     C 2642   6.760   2.684   5.548 -0.1941 -0.1151 -0.5582
  761MOL0     C 2643   6.632   2.603   5.520  0.0498 -0.2698 -0.0640
  761MOL0     C 2644   6.510   2.690   5.511 -0.6322  0.6011  0.7838
  761MOL0    Cl 2645   6.531   2.791   5.373  0.0167 -0.5103 -0.0457
  761MOL0     C 2646   7.430   3.008   5.345 -0.4965  0.2105 -0.2962
  761MOL0     C 2647   7.535   3.095   5.297  1.1846  0.0074 -0.4999
  761MOL0     O 2648   7.842   3.192   5.344  0.2948  0.5630  0.1046
  761MOL0     C 2649   7.946   3.330   5.125  0.3176 -0.5012  0.2354
  761MOL0     C 2650   8.032   3.417   5.051  0.3588 -0.2037  0.2644
  761MOL0     N 2651   8.104   4.142   5.281  0.4026 -0.2400  0.0327
  761MOL0     N 2652   8.096   4.265   5.255  0.0943 -0.9939  0.0293
  761MOL0     C 2653   8.368   4.175   3.961 -0.9501  0.1749 -0.2133
  761MOL0     C 2654   8.439   4.189   3.832  0.0288  0.4946  1.2755
  761MOL0     C 2655   8.594   4.338   3.442  0.5749 -0.0501 -0.6471
  761MOL0     C 2656   8.568   4.416   3.331 -1.0840  0.0428 -0.0416
  761MOL0     C 2657   8.622   4.382   3.203 -0.9727 -0.1877 -0.3508
  761MOL0     C 2658   8.709   4.271   3.195  0.7916  0.5265 -1.0420
  761MOL0     O 2659   8.761   4.251   3.070 -0.3852 -0.3372 -0.6916
  761MOL0     C 2660   8.876   4.167   3.049  0.2983  0.0490 -0.4436
  761MOL0     C 2661   8.989   4.264   3.046 -0.5668 -0.7213 -1.0719
  761MOL0     C 2662   8.955   4.405   2.990 -0.3932  0.2060  0.3397
  761MOL0     C 2663   8.909   4.418   2.844  0.4581  1.0548  0.6969
  761MOL0     C 2664   8.894   4.558   2.797  0.1279  0.5297 -0.4169
  761MOL0     C 2665   8.871   4.660   2.735 -0.4741  0.1963  0.5275
  761MOL0     C 2666   8.725   4.183   3.310  0.5337 -0.2989 -0.1390
  761MOL0     C 2667   8.683   4.224   3.433 -0.4409 -0.6044  0.2093
  761MOL0     H 2668   8.524   4.519   3.842  1.1109  1.2529  2.2805
  761MOL0     H 2669   8.416   4.496   4.051 -2.6636 -0.3692 -1.1538
  761MOL0     H 2670   8.433   4.359   4.279 -0.1584  2.0144 -0.4789
  761MOL0     H 2671   8.295   4.460   4.236  1.3575 -0.9337 -1.0482
  761MOL0     H 2672   8.144   4.330   4.392  0.2476  0.4243  1.5615
  761MOL0     H 2673   8.278   4.218   4.403  3.9541  2.0515  0.1348
  761MOL0     H 2674   8.414   4.376   4.510  0.3104 -1.0818  2.5558
  761MOL0     H 2675   8.278   4.502   4.508 -3.7065 -0.4993  1.1138
  761MOL0     H 2676   8.144   4.360   4.642  0.8266  1.6252 -1.5103
  761MOL0     H 2677   8.275   4.239   4.660  3.2495 -0.1434 -1.0725
  761MOL0     H 2678   8.424   4.337   4.770 -0.2542 -0.3624 -0.1986
  761MOL0     H 2679   8.348   4.494   4.745  3.7295 -1.9480 -0.5742
  761MOL0     H 2680   8.160   4.392   4.903 -0.0678  1.5673  3.4335
  761MOL0     H 2681   8.267   4.254   4.925 -2.9257  0.5651 -0.5822
  761MOL0     H 2682   8.418   4.429   5.038  0.6420  0.9524 -0.3618
  761MOL0     H 2683   8.316   4.557   4.982 -1.7247 -0.0833  0.8254
  761MOL0     H 2684   8.115   4.462   5.119  0.1008  1.6775 -0.7602
  761MOL0     H 2685   8.265   4.501   5.218  1.7067 -0.6498 -0.5928
  761MOL0     H 2686   8.408   4.208   5.163  0.3272  0.3541  1.0004
  761MOL0     H 2687   8.381   3.962   5.277 -1.4603  1.7065  1.2641
  761MOL0     H 2688   8.216   3.912   5.324 -2.6709  3.0726 -0.6005
  761MOL0     H 2689   8.296   3.769   5.141 -0.1309 -0.0746 -0.9708
  761MOL0     H 2690   8.326   3.913   5.045  0.8773 -0.1105 -0.6625
  761MOL0     H 2691   8.081   3.969   5.054  1.2677  0.7532  2.3037
  761MOL0     H 2692   8.042   3.844   5.157 -0.2377  1.4403  0.4419
  761MOL0     H 2693   8.144   3.816   4.875 -1.4518  2.3632 -0.1003
  761MOL0     H 2694   7.976   3.794   4.924  0.1544 -1.5858 -0.1043
  761MOL0     H 2695   7.881   3.715   5.134  2.3198  0.3207 -0.3305
  761MOL0     H 2696   7.725   3.543   5.383  4.2523 -1.3014 -0.9746
  761MOL0     H 2697   7.725   3.694   5.283 -2.2689 -0.0750 -0.9030
  761MOL0     H 2698   7.616   3.562   5.238 -0.0886 -2.7178  1.3254
  761MOL0     H 2699   7.471   3.358   5.499 -4.2236  0.0744 -0.5643
  761MOL0     H 2700   7.321   3.210   5.596  0.0003  1.5119 -0.1563
  761MOL0     H 2701   7.325   2.978   5.709  1.7338  1.2120 -1.1057
  761MOL0     H 2702   7.166   3.051   5.648  2.1009  2.2269  0.4987
  761MOL0     H 2703   7.243   2.762   5.698  1.6598  1.4140  2.1429
  761MOL0     H 2704   7.129   2.869   5.799 -2.1351 -0.1323  0.4730
  761MOL0     H 2705   7.068   2.794   5.511  0.7703  0.9515  0.5594
  761MOL0     H 2706   6.957   2.863   5.618  1.2466  1.5755 -0.8262
  761MOL0     H 2707   7.081   2.588   5.668  3.3107  3.2579  2.3666
  761MOL0     H 2708   6.946   2.658   5.763 -0.6127 -1.3539  0.3323
  761MOL0     H 2709   6.836   2.501   5.642 -2.7565  0.3603 -0.8617
  761MOL0     H 2710   6.905   2.539   5.484 -1.7327 -4.2111  0.8577
  761MOL0     H 2711   6.754   2.757   5.630  2.8524  1.8155 -1.8499
  761MOL0     H 2712   6.795   2.747   5.466  3.0564 -1.2399 -0.1702
  761MOL0     H 2713   6.605   2.528   5.595  1.2917  0.5374  1.2465
  761MOL0     H 2714   6.641   2.557   5.422  0.2127 -0.5099  0.0633
  761MOL0     H 2715   6.487   2.750   5.600 -0.5018  1.7789  0.0549
  761MOL0     H 2716   6.433   2.615   5.492  1.2532 -0.8935 -1.5194
  761MOL0     H 2717   7.419   2.904   5.316  1.0274 -0.5829  1.7784
  761MOL0     H 2718   7.603   3.059   5.220  0.3475 -1.2380 -0.6923
  761MOL0     H 2719   7.973   3.225   5.126  2.0658 -0.0784  0.8522
  761MOL0     H 2720   8.116   3.390   4.988  0.1929  0.4287 -0.2419
  761MOL0     H 2721   8.311   4.096   4.009 -1.8324  1.2013  0.5023
  761MOL0     H 2722   8.459   4.101   3.772 -0.2680  1.8723 -0.9617
  761MOL0     H 2723   8.492   4.494   3.328  0.0626  1.2557 -4.0661
  761MOL0     H 2724   8.603   4.435   3.111  1.6196 -1.6331 -1.8282
  761MOL0     H 2725   8.892   4.090   3.125 -2.7757  0.5889  0.9166
  761MOL0     H 2726   8.869   4.116   2.953  0.6040 -1.8893  0.5211
  761MOL0     H 2727   9.077   4.234   2.989 -1.2413 -1.3594 -1.8210
  761MOL0     H 2728   9.022   4.278   3.149  0.8309 -1.9674 -1.3198
  761MOL0     H 2729   9.054   4.448   3.009 -0.6044 -0.4289  3.3450
  761MOL0     H 2730   8.886   4.463   3.052  0.6425  1.9482 -0.0567
  761MOL0     H 2731   8.813   4.366   2.834  0.0960  1.7772  0.3974
  761MOL0     H 2732   8.990   4.373   2.785  1.0768  2.9206  0.0522
  761MOL0     H 2733   8.841   4.737   2.668  1.5829 -1.4985 -2.6195
  761MOL0     H 2734   8.795   4.100   3.311  0.7000 -0.2163  2.4946
  761MOL0     H 2735   8.705   4.166   3.522  0.1429 -0.0312  0.4489
  762MOL0     O 2736   8.230   0.863   8.092  0.3233  0.4956  0.0912
  762MOL0     C 2737   8.198   0.964   8.157 -0.2783  0.5024 -0.2963
  762MOL0     O 2738   8.276   1.078   8.174  0.1379 -0.1302 -0.2392
  762MOL0     C 2739   8.400   1.082   8.108  0.2115 -0.3663  0.0916
  762MOL0     C 2740   8.419   1.051   7.978 -0.3824 -0.5492  0.0329
  762MOL0     C 2741   8.550   1.057   7.921  0.1574 -0.4209 -0.5507
  762MOL0     C 2742   8.657   1.092   8.004  0.4211  0.6830 -0.3126
  762MOL0     O 2743   8.786   1.100   7.961 -0.0452  0.3209  0.8740
  762MOL0     C 2744   8.812   1.115   7.818  0.3881 -0.3729 -0.1739
  762MOL0     C 2745   8.958   1.161   7.799 -0.3209  0.3707 -0.2832
  762MOL0     C 2746   8.985   1.215   7.655 -0.4370  0.8501 -0.1074
  762MOL0     C 2747   9.135   1.240   7.623  0.1862  0.4582  0.2097
  762MOL0     C 2748   9.206   1.337   7.729  0.3215 -0.0997  0.1772
  762MOL0     C 2749   9.348   1.357   7.693 -0.4235 -0.2559  0.3574
  762MOL0     C 2750   9.432   1.436   7.802  0.0648 -0.2740 -0.3803
  762MOL0     C 2751   9.443   1.370   7.940  0.6531  0.0334  0.6927
  762MOL0     N 2752   9.535   1.454   8.029 -0.1344 -0.1668 -0.0527
  762MOL0     C 2753   9.671   1.464   8.023 -0.2529  0.8931  0.6695
  762MOL0     C 2754   9.712   1.542   8.121 -0.1310 -0.4201 -0.4746
  762MOL0     C 2755   9.847   1.588   8.160 -0.5839 -0.1021 -0.4296
  762MOL0     C 2756   9.885   1.731   8.118 -0.2798  0.3913  0.1791
  762MOL0     C 2757  10.028   1.745   8.163 -0.3753  0.6590  0.6549
  762MOL0     C 2758  10.058   1.888   8.182 -0.2159  0.0477 -0.4490
  762MOL0     O 2759  10.197   1.899   8.215 -0.5659  0.7277  0.3598
  762MOL0     C 2760  10.291   1.933   8.123  0.1906  0.8082  0.7414
  762MOL0     C 2761  10.416   1.939   8.174 -0.8585 -0.2779 -0.2616
  762MOL0     C 2762  10.525   1.986   8.098  0.2037 -0.2546 -0.1766
  762MOL0     C 2763  10.646   2.021   8.173  0.9512  0.9868  0.1574
  762MOL0     C 2764  10.503   2.003   7.955  0.6421 -0.0891  0.3845
  762MOL0     C 2765  10.607   2.042   7.857  1.1507  0.9190 -0.7595
  762MOL0     O 2766  10.576   2.090   7.726  0.0890  0.7031 -0.6133
  762MOL0     C 2767  10.669   2.104   7.628 -0.2211 -0.0235 -0.0516
  762MOL0     C 2768  10.779   2.014   7.614  0.0721 -0.4276 -1.0003
  762MOL0     C 2769  10.873   2.021   7.510  0.0436 -0.0421  0.0126
  762MOL0     C 2770  10.858   2.127   7.416 -0.1408  1.0536 -0.2638
  762MOL0     O 2771  10.949   2.129   7.310  1.5228  0.7043 -0.1408
  762MOL0     C 2772  10.991   2.249   7.247 -0.1270  0.5182 -0.2623
  762MOL0     C 2773  11.075   2.344   7.330  0.7808 -0.2755  0.2862
  762MOL0     C 2774  11.175   2.283   7.435 -0.1812 -0.3390  0.8767
  762MOL0     C 2775  11.251   2.378   7.525  0.2671 -0.0276  0.0009
  762MOL0     C 2776  11.369   2.427   7.453  0.2963 -0.3150 -0.4377
  762MOL0     C 2777  11.484   2.498   7.534  0.0392 -0.8053 -0.4166
  762MOL0     C 2778  11.622   2.489   7.462 -0.3265 -1.1642  0.0417
  762MOL0     C 2779  11.748   2.527   7.544 -0.9120 -0.0155 -0.5197
  762MOL0    Cl 2780  11.733   2.695   7.622 -0.5712  0.4161 -0.2196
  762MOL0     C 2781  10.747   2.220   7.423 -0.9471 -0.2007  0.1956
  762MOL0     C 2782  10.655   2.202   7.532 -0.0677 -0.1768 -0.2731
  762MOL0     O 2783  10.722   2.016   7.892 -0.3428 -0.1896 -0.2760
  762MOL0     C 2784  10.368   1.994   7.909 -0.1458 -0.2537  0.3010
  762MOL0     C 2785  10.271   1.944   7.988  0.4466 -0.1668  0.8615
  762MOL0     N 2786   9.593   1.586   8.184  0.5586 -0.1887  0.1089
  762MOL0     N 2787   9.487   1.527   8.124 -0.1184  0.2064 -0.1514
  762MOL0     C 2788   8.641   1.121   8.135 -0.2355  0.3100 -0.6068
  762MOL0     C 2789   8.511   1.118   8.186  1.0087 -0.2412  0.1729
  762MOL0     C 2790   8.065   0.969   8.225  1.3194  0.0149  0.2668
  762MOL0     C 2791   8.048   1.042   8.341  0.1953  0.4882  0.1301
  762MOL0     C 2792   7.926   1.050   8.404  0.2433  0.7043  0.5498
  762MOL0     C 2793   7.812   0.984   8.351 -0.1359  0.0789  0.1261
  762MOL0     O 2794   7.678   1.017   8.385 -0.5319  0.5446 -0.4633
  762MOL0     C 2795   7.640   1.128   8.477 -0.5707  0.4548  0.2686
  762MOL0     C 2796   7.649   1.271   8.424 -0.4240  0.4003 -0.2275
  762MOL0     C 2797   7.597   1.280   8.281 -0.8464 -0.5184  0.5656
  762MOL0     C 2798   7.567   1.429   8.231  0.3513  0.3597  1.4053
  762MOL0     C 2799   7.684   1.507   8.192 -0.5881  0.4974 -0.6565
  762MOL0     C 2800   7.789   1.572   8.179  0.2172 -0.3622 -0.1684
  762MOL0     C 2801   7.818   0.917   8.230 -0.4015  0.3892 -0.3326
  762MOL0     C 2802   7.951   0.893   8.175  0.8983  0.4987 -0.2152
  762MOL0     H 2803   8.337   1.031   7.909  0.1106 -0.1479 -0.6762
  762MOL0     H 2804   8.564   1.042   7.815  3.1610  4.9671 -1.2893
  762MOL0     H 2805   8.782   1.024   7.765 -1.7125  0.9844 -1.4804
  762MOL0     H 2806   8.745   1.192   7.778 -3.3270 -2.1344  2.1626
  762MOL0     H 2807   8.988   1.251   7.855 -0.5737  1.1523 -1.3686
  762MOL0     H 2808   9.027   1.077   7.811 -0.5008  0.1374 -0.8816
  762MOL0     H 2809   8.957   1.138   7.582 -0.1221  1.7352 -1.2046
  762MOL0     H 2810   8.920   1.302   7.637 -2.0060  0.1016  1.6274
  762MOL0     H 2811   9.186   1.143   7.624 -0.7270 -0.0821 -1.7729
  762MOL0     H 2812   9.148   1.284   7.525 -0.1477 -1.6505 -0.8450
  762MOL0     H 2813   9.151   1.431   7.724 -1.8622 -1.3514 -3.6737
  762MOL0     H 2814   9.214   1.299   7.831  1.2975  0.5170  0.3404
  762MOL0     H 2815   9.387   1.256   7.677 -2.3526 -1.1202  0.8217
  762MOL0     H 2816   9.358   1.411   7.598 -0.0154 -0.4628  0.2834
  762MOL0     H 2817   9.531   1.451   7.760  1.0978  1.7919  2.4295
  762MOL0     H 2818   9.394   1.537   7.822  0.6731  0.1704 -1.4072
  762MOL0     H 2819   9.488   1.271   7.933 -1.0351 -0.8550  1.7521
  762MOL0     H 2820   9.348   1.354   7.992  1.4843  0.2607  2.3301
  762MOL0     H 2821   9.740   1.424   7.950  0.0976  0.1619  1.3821
  762MOL0     H 2822   9.865   1.577   8.267 -0.5529  0.5944 -0.3573
  762MOL0     H 2823   9.912   1.517   8.107  1.0584  2.0682 -1.5125
  762MOL0     H 2824   9.817   1.799   8.171 -0.0262 -0.1597  1.2320
  762MOL0     H 2825   9.874   1.739   8.009 -2.1813 -0.4699  0.2668
  762MOL0     H 2826  10.094   1.704   8.086  0.2470 -0.6598  1.8283
  762MOL0     H 2827  10.052   1.701   8.260  0.6935  0.8302  0.4838
  762MOL0     H 2828  10.008   1.914   8.276  0.5821  0.7211 -0.2029
  762MOL0     H 2829  10.030   1.948   8.095  1.9557  1.0416 -0.5220
  762MOL0     H 2830  10.439   1.921   8.279  1.2865 -2.7442 -1.0382
  762MOL0     H 2831  10.701   1.927   8.182 -0.1872  0.3887  1.3926
  762MOL0     H 2832  10.713   2.090   8.122  3.4575 -2.3553 -1.4493
  762MOL0     H 2833  10.621   2.056   8.274 -7.1858 -0.3637 -0.6622
  762MOL0     H 2834  10.806   1.941   7.691 -1.5343  0.6880  0.6918
  762MOL0     H 2835  10.952   1.951   7.484 -1.0152 -0.6591 -1.7150
  762MOL0     H 2836  11.042   2.218   7.155 -0.4039 -0.3025 -0.1439
  762MOL0     H 2837  10.897   2.285   7.205  0.8063  1.5404 -1.5851
  762MOL0     H 2838  11.128   2.413   7.264  0.4043  0.2305  0.5078
  762MOL0     H 2839  11.003   2.403   7.388 -1.5591 -0.8163 -1.8818
  762MOL0     H 2840  11.248   2.212   7.394 -0.6458 -0.1138 -0.3867
  762MOL0     H 2841  11.108   2.233   7.505  0.1120 -0.6721  0.9246
  762MOL0     H 2842  11.198   2.467   7.560  1.2748 -0.5870  3.3658
  762MOL0     H 2843  11.292   2.328   7.614 -1.2199  0.7872  1.2040
  762MOL0     H 2844  11.329   2.499   7.381 -0.7424 -0.5740 -0.1397
  762MOL0     H 2845  11.419   2.339   7.410 -1.2776 -1.8908  0.8070
  762MOL0     H 2846  11.456   2.601   7.556 -1.4599 -1.0881 -0.8687
  762MOL0     H 2847  11.500   2.451   7.632 -1.9906 -2.0512 -0.6239
  762MOL0     H 2848  11.620   2.554   7.374  1.0463 -4.4958 -2.6762
  762MOL0     H 2849  11.648   2.388   7.428  0.5054 -1.4187  1.3753
  762MOL0     H 2850  11.836   2.514   7.481 -0.9734 -1.8948 -0.2726
  762MOL0     H 2851  11.771   2.458   7.625  1.3618 -2.3348 -2.9361
  762MOL0     H 2852  10.734   2.302   7.353 -0.9915  0.7177  1.2710
  762MOL0     H 2853  10.577   2.277   7.533  1.5707  1.6209 -0.7873
  762MOL0     H 2854  10.347   2.008   7.803  0.3630  1.3538  0.3931
  762MOL0     H 2855  10.179   1.904   7.947 -2.1683  2.7068  3.4186
  762MOL0     H 2856   8.729   1.133   8.198 -0.9249 -5.2525  2.0296
  762MOL0     H 2857   8.503   1.141   8.292  3.7881  0.0268  0.3766
  762MOL0     H 2858   8.130   1.103   8.379  2.1741 -1.4857 -0.7268
  762MOL0     H 2859   7.912   1.115   8.490 -0.8412  1.6991 -0.3374
  762MOL0     H 2860   7.545   1.101   8.523 -1.4669 -0.8455 -2.1696
  762MOL0     H 2861   7.710   1.109   8.558 -1.0207 -0.4013  0.4629
  762MOL0     H 2862   7.753   1.303   8.425 -0.4658  0.5475  1.1613
  762MOL0     H 2863   7.600   1.334   8.499 -0.2999 -1.0262  1.1022
  762MOL0     H 2864   7.514   1.209   8.275  0.3176 -1.8558 -0.6854
  762MOL0     H 2865   7.682   1.257   8.216  0.1119  1.1478  1.1779
  762MOL0     H 2866   7.513   1.478   8.313  2.9058  2.3317  2.0581
  762MOL0     H 2867   7.495   1.425   8.149  1.0491  3.8702  0.4442
  762MOL0     H 2868   7.875   1.633   8.162 -1.7334  1.4313 -5.3760
  762MOL0     H 2869   7.737   0.854   8.195 -0.5239  1.4044 -1.9964
  762MOL0     H 2870   7.957   0.825   8.091 -3.9205 -0.5154 -0.0400
  763MOL0     O 2871  11.085   4.376   0.767 -0.0590 -0.1910 -0.3873
  763MOL0     C 2872  11.195   4.411   0.814 -0.0444  0.1544  0.3396
  763MOL0     O 2873  11.213   4.459   0.937 -0.8902  0.1720 -0.7516
  763MOL0     C 2874  11.116   4.443   1.026  0.0447  0.4022 -0.0611
  763MOL0     C 2875  11.026   4.548   1.043  0.2977  0.7310  0.1866
  763MOL0     C 2876  10.937   4.537   1.153 -1.2413  0.6041  0.6217
  763MOL0     C 2877  10.948   4.429   1.244 -0.6082 -0.5778  1.4337
  763MOL0     O 2878  10.870   4.402   1.351  0.3047 -0.6563  0.3547
  763MOL0     C 2879  10.730   4.411   1.330  0.6694 -0.7727 -1.1742
  763MOL0     C 2880  10.671   4.356   1.456 -0.0208  0.6597 -0.6863
  763MOL0     C 2881  10.524   4.319   1.427 -0.3652  0.2887 -0.2117
  763MOL0     C 2882  10.430   4.440   1.451 -0.4769 -0.8218  0.0167
  763MOL0     C 2883  10.284   4.403   1.487  0.5471  0.2380 -0.7934
  763MOL0     C 2884  10.211   4.532   1.524 -0.3537  0.1274 -0.2375
  763MOL0     C 2885  10.053   4.535   1.518 -0.5832 -0.5919  0.0209
  763MOL0     C 2886   9.988   4.420   1.596  0.4795  0.1791 -0.0343
  763MOL0     N 2887   9.843   4.439   1.581  0.1313  0.9199 -0.0418
  763MOL0     C 2888   9.755   4.456   1.691  0.6172 -0.8472  0.7528
  763MOL0     C 2889   9.642   4.420   1.633 -0.3225 -0.1016 -0.2210
  763MOL0     C 2890   9.517   4.407   1.712  0.2802 -0.8489 -0.2598
  763MOL0     C 2891   9.469   4.541   1.749  0.8403  0.0710  0.1697
  763MOL0     C 2892   9.536   4.600   1.866 -0.1960  0.2555  0.4601
  763MOL0     C 2893   9.444   4.706   1.918  0.6237  0.0275  0.7238
  763MOL0     O 2894   9.318   4.640   1.967 -0.1645  0.4135  0.0626
  763MOL0     C 2895   9.217   4.708   2.030  1.0162  0.7080 -0.4213
  763MOL0     C 2896   9.125   4.626   2.105 -0.2922  1.2195  0.0340
  763MOL0     C 2897   9.018   4.685   2.167 -0.8832 -0.2697  1.2112
  763MOL0     C 2898   8.917   4.589   2.223  0.7204  0.1429 -1.2593
  763MOL0     C 2899   9.001   4.821   2.165  0.1796  0.5722 -0.0326
  763MOL0     C 2900   8.884   4.881   2.226  0.4420 -0.1369 -0.2500
  763MOL0     O 2901   8.898   4.960   2.336  0.6372 -0.2977  0.3078
  763MOL0     C 2902   8.792   4.994   2.420  0.6202  0.4644  0.9882
  763MOL0     C 2903   8.798   5.111   2.488  0.1175 -0.2305  0.7636
  763MOL0     C 2904   8.694   5.185   2.550  0.0628 -0.4837  0.8418
  763MOL0     C 2905   8.569   5.129   2.553  0.4285 -0.0521  0.2032
  763MOL0     O 2906   8.477   5.214   2.605 -0.5839  0.6938  0.2460
  763MOL0     C 2907   8.341   5.161   2.618 -0.0709 -1.0132  0.4164
  763MOL0     C 2908   8.249   5.267   2.681 -0.5267  1.0628  0.1156
  763MOL0     C 2909   8.110   5.215   2.661  0.1809  0.0319  0.4791
  763MOL0     C 2910   8.008   5.277   2.764 -0.5290  0.0854 -0.2130
  763MOL0     C 2911   8.020   5.233   2.905 -0.4375 -0.4224  0.7503
  763MOL0     C 2912   7.913   5.298   2.987  0.2727  0.6643 -0.0358
  763MOL0     C 2913   7.942   5.282   3.128 -0.5784 -0.0072 -0.0391
  763MOL0     C 2914   7.932   5.138   3.174 -0.0770  1.2550  0.5238
  763MOL0    Cl 2915   7.766   5.075   3.153  0.4072 -0.1524  0.2928
  763MOL0     C 2916   8.559   4.991   2.515 -0.6776 -1.0005 -0.2874
  763MOL0     C 2917   8.663   4.926   2.445  0.6828 -0.3717 -0.9723
  763MOL0     O 2918   8.779   4.865   2.157 -0.0001 -0.7553 -0.3375
  763MOL0     C 2919   9.101   4.903   2.112  0.2793  0.1993  0.8877
  763MOL0     C 2920   9.209   4.845   2.037  0.9152 -0.1671 -0.9420
  763MOL0     N 2921   9.652   4.396   1.496 -0.2333  0.3611  0.7844
  763MOL0     N 2922   9.774   4.393   1.473 -0.0302 -0.6579  0.2957
  763MOL0     C 2923  11.043   4.332   1.230 -0.0048 -0.1274 -0.3239
  763MOL0     C 2924  11.122   4.336   1.113 -0.1673  0.4637 -1.0688
  763MOL0     C 2925  11.310   4.378   0.733 -0.0952 -0.7002  0.3601
  763MOL0     C 2926  11.302   4.386   0.594  0.1626 -0.3987  0.7446
  763MOL0     C 2927  11.414   4.359   0.517  0.4544 -1.0174  0.2674
  763MOL0     C 2928  11.542   4.361   0.570  0.9881 -0.2086 -0.7295
  763MOL0     O 2929  11.651   4.369   0.483 -0.4529  0.2785  0.3529
  763MOL0     C 2930  11.731   4.494   0.477 -0.3663  0.3814  0.0456
  763MOL0     C 2931  11.858   4.467   0.564  0.0220 -0.2774  0.1834
  763MOL0     C 2932  11.940   4.599   0.564 -0.9358 -0.3412 -0.3463
  763MOL0     C 2933  12.056   4.590   0.670  0.0591 -0.1298  0.5916
  763MOL0     C 2934  12.162   4.490   0.658  0.8950 -0.2841  0.0367
  763MOL0     C 2935  12.245   4.407   0.652 -0.4299  1.8147  1.1980
  763MOL0     C 2936  11.559   4.347   0.709  0.3556 -0.1246 -0.1364
  763MOL0     C 2937  11.444   4.356   0.783 -0.3767 -0.1238  0.1937
  763MOL0     H 2938  11.036   4.630   0.972 -2.8217 -1.1330 -2.6886
  763MOL0     H 2939  10.866   4.619   1.163  0.1311  1.6749  1.9873
  763MOL0     H 2940  10.709   4.518   1.319  1.6484 -0.5435 -0.8981
  763MOL0     H 2941  10.690   4.363   1.241  0.4781 -0.4914 -1.2420
  763MOL0     H 2942  10.724   4.265   1.487 -3.7747 -0.8693  2.0257
  763MOL0     H 2943  10.673   4.420   1.545 -1.5087 -0.5563  0.2706
  763MOL0     H 2944  10.510   4.272   1.329  1.4641 -0.2505 -0.2605
  763MOL0     H 2945  10.511   4.235   1.496  3.1248  0.7405  1.1695
  763MOL0     H 2946  10.473   4.500   1.532  1.7522 -1.9108 -0.2683
  763MOL0     H 2947  10.425   4.502   1.361  2.0548  1.2383  1.1553
  763MOL0     H 2948  10.241   4.359   1.397 -0.7438  2.4523 -1.3307
  763MOL0     H 2949  10.271   4.335   1.572 -0.0024  1.7121  0.3511
  763MOL0     H 2950  10.237   4.538   1.630 -1.4335  2.9252 -0.0715
  763MOL0     H 2951  10.251   4.618   1.470  0.8961 -1.3451 -1.7830
  763MOL0     H 2952  10.019   4.632   1.556 -1.0222 -0.7900  0.1270
  763MOL0     H 2953  10.025   4.538   1.412 -0.6216 -2.8672 -0.0733
  763MOL0     H 2954  10.006   4.412   1.704  0.1649 -0.3487 -0.0163
  763MOL0     H 2955  10.013   4.324   1.549 -0.1060  0.2042 -0.4141
  763MOL0     H 2956   9.776   4.496   1.790  0.9370  1.8395 -0.3111
  763MOL0     H 2957   9.446   4.351   1.652  0.2759 -3.0062  1.6284
  763MOL0     H 2958   9.554   4.345   1.795 -1.6517  0.0476  1.3681
  763MOL0     H 2959   9.363   4.524   1.771  0.9629  0.8888  1.5015
  763MOL0     H 2960   9.467   4.599   1.657  0.2927 -0.4005 -0.1208
  763MOL0     H 2961   9.636   4.641   1.846 -0.3271 -0.1424 -1.1472
  763MOL0     H 2962   9.540   4.525   1.946 -4.5195  2.1359  2.7929
  763MOL0     H 2963   9.428   4.773   1.833  0.9317 -1.4219 -0.5175
  763MOL0     H 2964   9.486   4.754   2.007 -2.6638  3.2602  0.7570
  763MOL0     H 2965   9.132   4.518   2.112  2.1701  1.3480  0.8149
  763MOL0     H 2966   8.911   4.505   2.154  1.7981 -0.3997 -0.7200
  763MOL0     H 2967   8.963   4.573   2.321  1.6215 -0.8285 -1.8302
  763MOL0     H 2968   8.817   4.631   2.242  1.7939  2.2626  0.1734
  763MOL0     H 2969   8.890   5.169   2.483  1.2473 -1.7714  2.3961
  763MOL0     H 2970   8.714   5.281   2.596 -0.4704 -1.5392  3.4572
  763MOL0     H 2971   8.312   5.125   2.519 -0.0458  2.6057 -1.0476
  763MOL0     H 2972   8.338   5.070   2.678  1.2573 -2.2281 -1.2484
  763MOL0     H 2973   8.275   5.272   2.787  1.4750 -3.5722  0.0654
  763MOL0     H 2974   8.275   5.361   2.631  0.3914  0.3849 -0.7092
  763MOL0     H 2975   8.107   5.106   2.670  0.3228 -0.0647 -0.5858
  763MOL0     H 2976   8.074   5.255   2.566  2.8650  1.0692 -0.1757
  763MOL0     H 2977   8.009   5.386   2.771 -0.4631 -0.0002  1.7510
  763MOL0     H 2978   7.916   5.234   2.724  0.7843 -3.4396  0.2011
  763MOL0     H 2979   8.117   5.236   2.955  0.2155 -1.6188 -0.3732
  763MOL0     H 2980   7.994   5.127   2.914  1.9241 -1.5973 -3.3432
  763MOL0     H 2981   7.933   5.404   2.971 -0.4196  1.2823  2.7426
  763MOL0     H 2982   7.809   5.274   2.963 -0.2252  0.7198  1.8621
  763MOL0     H 2983   7.871   5.339   3.189  0.4207 -1.9420  3.1938
  763MOL0     H 2984   8.044   5.303   3.161 -0.7466 -2.5140  2.4718
  763MOL0     H 2985   7.953   5.141   3.281 -2.0313 -2.2458  1.1612
  763MOL0     H 2986   8.014   5.083   3.127 -1.5075  1.8681 -2.9621
  763MOL0     H 2987   8.467   4.935   2.526 -2.4413  2.1001  2.2878
  763MOL0     H 2988   8.645   4.832   2.394  2.6014 -1.0665 -0.4522
  763MOL0     H 2989   9.086   5.010   2.117  1.2304  0.3933 -0.1394
  763MOL0     H 2990   9.284   4.904   1.985 -0.2010 -0.0606 -2.5108
  763MOL0     H 2991  11.041   4.250   1.302  0.2823  2.3205  2.6792
  763MOL0     H 2992  11.187   4.251   1.092 -0.3843  0.6175 -2.4627
  763MOL0     H 2993  11.209   4.405   0.540  0.0650 -0.5570  0.8566
  763MOL0     H 2994  11.402   4.351   0.410  2.7493 -0.9263 -0.0445
  763MOL0     H 2995  11.764   4.505   0.373  0.7418 -0.0910  0.3325
  763MOL0     H 2996  11.678   4.580   0.520 -0.9013  0.4926 -0.8066
  763MOL0     H 2997  11.922   4.386   0.528 -2.0686 -2.6919  1.6250
  763MOL0     H 2998  11.836   4.442   0.668  0.5394 -0.1499  0.3293
  763MOL0     H 2999  11.875   4.683   0.587 -0.3729 -0.0290  0.1443
  763MOL0     H 3000  11.975   4.632   0.466 -1.5481  1.4106  0.0026
  763MOL0     H 3001  12.002   4.581   0.765 -2.2259 -0.1363 -0.6442
  763MOL0     H 3002  12.094   4.692   0.661 -1.7459  0.4997 -0.4436
  763MOL0     H 3003  12.324   4.335   0.642 -0.2158  2.0660  1.0879
  763MOL0     H 3004  11.644   4.333   0.775 -0.4274  1.5844  1.3119
  763MOL0     H 3005  11.461   4.342   0.890  1.3002 -0.8071 -0.1297
  764MOL0     O 3006   0.775   9.447   4.179  0.1261  0.0562 -0.0711
  764MOL0     C 3007   0.735   9.336   4.184 -0.2523  0.8157  0.7654
  764MOL0     O 3008   0.623   9.288   4.131 -0.9652  0.4718  0.3491
  764MOL0     C 3009   0.516   9.370   4.110  0.4632  0.7347  0.4575
  764MOL0     C 3010   0.409   9.305   4.036  0.2611  0.5263 -0.3731
  764MOL0     C 3011   0.290   9.379   4.006 -0.1475 -0.4446  0.0176
  764MOL0     C 3012   0.270   9.512   4.051 -0.1461  0.3293  0.5460
  764MOL0     O 3013   0.153   9.571   4.021  0.6977  0.1221 -0.6946
  764MOL0     C 3014   0.118   9.684   4.103 -0.3576  0.9982 -0.1610
  764MOL0     C 3015  -0.032   9.720   4.105 -0.1202 -0.1657  1.1511
  764MOL0     C 3016  -0.074   9.819   4.214 -0.7206  0.1316  0.9185
  764MOL0     C 3017  -0.219   9.855   4.201 -0.8634  0.0278  0.9781
  764MOL0     C 3018  -0.270   9.948   4.314 -0.0784  0.7382  0.6284
  764MOL0     C 3019  -0.419   9.975   4.299 -0.5203 -0.1573 -0.0245
  764MOL0     C 3020  -0.490   9.993   4.428 -0.0494  0.4547 -0.6869
  764MOL0     C 3021  -0.464  10.120   4.491 -0.3910 -0.6181  0.9380
  764MOL0     N 3022  -0.515  10.228   4.410 -0.4443  0.6572 -0.2544
  764MOL0     C 3023  -0.648  10.249   4.388  0.1051  0.1220  0.2513
  764MOL0     C 3024  -0.651  10.360   4.315 -0.5196  0.1952  0.4389
  764MOL0     C 3025  -0.771  10.424   4.254  0.2790 -0.3130 -0.8235
  764MOL0     C 3026  -0.787  10.390   4.109  0.1561 -0.4084  0.6949
  764MOL0     C 3027  -0.668  10.420   4.014 -0.0760 -0.7294 -0.5647
  764MOL0     C 3028  -0.683  10.561   3.959 -0.6728 -0.8973 -0.5367
  764MOL0     O 3029  -0.796  10.576   3.876  0.0594  0.4758  0.8870
  764MOL0     C 3030  -0.863  10.695   3.877 -0.2729 -0.1035 -0.4924
  764MOL0     C 3031  -0.995  10.689   3.901  0.7400 -0.2333 -0.1446
  764MOL0     C 3032  -1.069  10.814   3.890 -0.7593 -0.1205  1.1734
  764MOL0     C 3033  -1.220  10.796   3.889 -0.2689  0.0439  0.3788
  764MOL0     C 3034  -0.995  10.937   3.876  0.0956  0.5478 -0.6754
  764MOL0     C 3035  -1.058  11.073   3.865 -0.1881 -0.6970  0.0251
  764MOL0     O 3036  -0.978  11.180   3.871  0.7428  0.3073 -1.5295
  764MOL0     C 3037  -1.022  11.303   3.862  0.1396 -0.4021 -0.0084
  764MOL0     C 3038  -1.073  11.352   3.738  0.5931  0.7263 -0.0416
  764MOL0     C 3039  -1.094  11.491   3.720  0.2513  1.1393  0.0632
  764MOL0     C 3040  -1.103  11.575   3.835  0.1920  0.3331  0.3249
  764MOL0     O 3041  -1.109  11.711   3.844 -0.4230 -0.2042 -0.2746
  764MOL0     C 3042  -1.135  11.787   3.723 -0.6757 -0.6284  0.3272
  764MOL0     C 3043  -1.077  11.931   3.749  0.0960  1.2572  0.6113
  764MOL0     C 3044  -1.117  12.029   3.630  0.5423 -0.0551  0.2807
  764MOL0     C 3045  -1.036  12.012   3.491 -0.6836 -0.7507  0.1156
  764MOL0     C 3046  -1.084  12.110   3.388  0.1082 -0.0700  0.2931
  764MOL0     C 3047  -1.047  12.086   3.240  0.0323 -0.3194 -0.0573
  764MOL0     C 3048  -1.116  11.963   3.183  0.2332  0.5383 -0.6511
  764MOL0     C 3049  -1.141  11.974   3.040  0.1222  0.0543 -0.9013
  764MOL0    Cl 3050  -0.982  11.969   2.954 -0.2112 -0.3590  0.0574
  764MOL0     C 3051  -1.087  11.510   3.969  0.6677 -0.9155  0.3181
  764MOL0     C 3052  -1.049  11.378   3.976  0.4054 -0.5575 -0.7294
  764MOL0     O 3053  -1.178  11.075   3.848 -0.5241 -0.6752 -0.5044
  764MOL0     C 3054  -0.857  10.932   3.851 -0.3315 -0.5308  0.0873
  764MOL0     C 3055  -0.789  10.817   3.853  0.3480 -0.3110 -0.8431
  764MOL0     N 3056  -0.523  10.414   4.316 -0.1721  0.5781 -0.1040
  764MOL0     N 3057  -0.441  10.337   4.378  0.6034  0.3889 -0.1183
  764MOL0     C 3058   0.378   9.571   4.125  0.5752 -1.1058  0.9916
  764MOL0     C 3059   0.489   9.493   4.159 -0.2679  0.0001  0.3883
  764MOL0     C 3060   0.821   9.243   4.254  1.1184 -0.5586  0.0267
  764MOL0     C 3061   0.826   9.105   4.217  0.2506  0.3818 -0.8614
  764MOL0     C 3062   0.908   9.017   4.282 -0.3990 -0.5310 -0.1488
  764MOL0     C 3063   0.989   9.056   4.385 -0.1650 -0.2358 -0.2518
  764MOL0     O 3064   1.054   8.950   4.448  0.1684  0.2408 -0.3989
  764MOL0     C 3065   1.175   8.976   4.522 -0.1415 -0.7592 -0.0603
  764MOL0     C 3066   1.238   8.844   4.562  0.4471  0.7097 -0.3516
  764MOL0     C 3067   1.236   8.742   4.440  0.1565 -0.8481  0.6593
  764MOL0     C 3068   1.302   8.609   4.485  0.1183  1.2178  0.6186
  764MOL0     C 3069   1.327   8.528   4.366  0.1579 -0.6529  0.2667
  764MOL0     C 3070   1.340   8.465   4.258  0.0811  0.1535 -0.3758
  764MOL0     C 3071   1.002   9.192   4.414  0.9961  0.2035  0.3973
  764MOL0     C 3072   0.917   9.279   4.350  0.8333 -0.0619 -0.1343
  764MOL0     H 3073   0.416   9.203   4.000 -1.3967 -0.1568  1.1354
  764MOL0     H 3074   0.206   9.327   3.959 -0.6779 -0.4946  0.9949
  764MOL0     H 3075   0.130   9.659   4.209 -2.6689  1.8971  0.3594
  764MOL0     H 3076   0.177   9.772   4.077 -0.4860  0.7012 -1.5082
  764MOL0     H 3077  -0.058   9.768   4.011 -0.7456  1.6151  2.2009
  764MOL0     H 3078  -0.093   9.629   4.109  0.6993 -1.0954 -2.6859
  764MOL0     H 3079  -0.047   9.782   4.313 -1.0027  4.3037  2.7270
  764MOL0     H 3080  -0.016   9.911   4.202  0.3715 -0.4677  1.4717
  764MOL0     H 3081  -0.237   9.909   4.108 -0.3221  1.0886  1.4752
  764MOL0     H 3082  -0.278   9.763   4.207  0.7259 -1.2612 -1.3252
  764MOL0     H 3083  -0.243   9.929   4.418 -3.3124 -1.1628  1.2626
  764MOL0     H 3084  -0.216  10.040   4.292  1.2254 -0.0472  0.4593
  764MOL0     H 3085  -0.430  10.064   4.237  3.0495  0.2112 -0.3211
  764MOL0     H 3086  -0.470   9.896   4.242 -0.1535 -1.4446  1.3602
  764MOL0     H 3087  -0.596   9.964   4.426  0.5727 -2.0378 -3.9596
  764MOL0     H 3088  -0.435   9.926   4.495  0.0490  1.0983 -0.1039
  764MOL0     H 3089  -0.356  10.127   4.506 -0.1842  0.8474 -0.8822
  764MOL0     H 3090  -0.520  10.121   4.585  1.2444  1.1971  1.9458
  764MOL0     H 3091  -0.739  10.196   4.414 -0.6297  1.8193  1.2689
  764MOL0     H 3092  -0.861  10.392   4.308  1.3216 -0.1756  1.0728
  764MOL0     H 3093  -0.757  10.532   4.263  0.5764 -0.2557 -1.8119
  764MOL0     H 3094  -0.877  10.428   4.059  0.6875 -1.1274 -0.8484
  764MOL0     H 3095  -0.805  10.282   4.110 -0.1341 -0.3684  0.0662
  764MOL0     H 3096  -0.673  10.346   3.934 -2.0315 -1.3077  0.0386
  764MOL0     H 3097  -0.575  10.403   4.068 -0.3723 -1.1972 -0.2004
  764MOL0     H 3098  -0.598  10.569   3.890 -0.4264  1.0982 -0.0625
  764MOL0     H 3099  -0.677  10.640   4.035 -0.4064 -1.7373  0.3430
  764MOL0     H 3100  -1.037  10.592   3.925  0.6300 -0.0440  0.4338
  764MOL0     H 3101  -1.243  10.696   3.851  0.7230 -0.0284 -0.0562
  764MOL0     H 3102  -1.265  10.826   3.984 -0.8734 -2.0184  0.8085
  764MOL0     H 3103  -1.259  10.873   3.822 -2.6732  0.1589  1.7793
  764MOL0     H 3104  -1.069  11.287   3.652  0.0408 -1.0505  1.2220
  764MOL0     H 3105  -1.124  11.520   3.620 -1.0771  0.9614  0.3927
  764MOL0     H 3106  -1.074  11.754   3.638  2.7955  0.9967  1.9976
  764MOL0     H 3107  -1.244  11.783   3.710 -0.9451  3.0030  0.4479
  764MOL0     H 3108  -1.132  11.976   3.832  0.6525  0.9338  1.1610
  764MOL0     H 3109  -0.971  11.910   3.769  0.2882  1.1691 -0.4556
  764MOL0     H 3110  -1.115  12.134   3.660 -3.7118  0.5182 -0.6653
  764MOL0     H 3111  -1.222  12.008   3.607  0.4331  1.1870 -0.4287
  764MOL0     H 3112  -0.934  12.050   3.503 -0.6725 -1.0236  0.9790
  764MOL0     H 3113  -1.040  11.907   3.460  3.2538 -1.2521  0.6944
  764MOL0     H 3114  -1.049  12.207   3.423 -1.3275  0.0546  1.5410
  764MOL0     H 3115  -1.192  12.113   3.406 -0.0258 -0.4322 -0.4076
  764MOL0     H 3116  -1.078  12.179   3.193  0.1908  0.8181  1.9796
  764MOL0     H 3117  -0.939  12.066   3.231  0.0515  0.1746 -1.1130
  764MOL0     H 3118  -1.210  11.951   3.237  0.7452 -2.2352 -0.2170
  764MOL0     H 3119  -1.067  11.866   3.195  2.8230  1.5324 -2.3015
  764MOL0     H 3120  -1.195  12.062   3.006 -0.2620 -0.4929 -1.7432
  764MOL0     H 3121  -1.201  11.886   3.014 -1.5823  1.2171 -1.0352
  764MOL0     H 3122  -1.096  11.580   4.051  2.2365  0.0431 -0.2633
  764MOL0     H 3123  -1.013  11.332   4.068  1.8221 -1.4451 -1.6789
  764MOL0     H 3124  -0.804  11.015   3.805  0.9492 -1.9936 -1.2105
  764MOL0     H 3125  -0.685  10.808   3.825  0.2615 -1.4209 -0.8399
  764MOL0     H 3126   0.358   9.671   4.160 -2.9980 -0.7647 -1.4612
  764MOL0     H 3127   0.567   9.546   4.213  0.1381  0.2504 -0.4271
  764MOL0     H 3128   0.758   9.062   4.145 -2.1167  4.7747 -1.5715
  764MOL0     H 3129   0.913   8.910   4.263 -1.9239 -0.5523 -0.5368
  764MOL0     H 3130   1.247   9.041   4.471 -0.8791  0.5214  0.4877
  764MOL0     H 3131   1.146   9.023   4.616 -0.0948 -1.2385  0.1978
  764MOL0     H 3132   1.181   8.802   4.645  2.3484 -1.4556 -0.0283
  764MOL0     H 3133   1.338   8.854   4.605 -0.0539  1.9591  0.5658
  764MOL0     H 3134   1.291   8.787   4.357 -0.8430 -2.4271 -0.9380
  764MOL0     H 3135   1.135   8.720   4.402  0.3630  1.1509 -1.2500
  764MOL0     H 3136   1.231   8.555   4.548  1.1577 -2.2014 -0.9411
  764MOL0     H 3137   1.399   8.623   4.534 -0.0255  0.0590  1.2578
  764MOL0     H 3138   1.349   8.420   4.161 -2.3821  0.8642 -0.9923
  764MOL0     H 3139   1.076   9.224   4.486  0.7708 -1.1155  1.2611
  764MOL0     H 3140   0.926   9.387   4.359  1.1950 -0.0456 -0.6558
  765MOL0     O 3141   0.696   6.189  11.242 -0.0301  0.2971  0.2769
  765MOL0     C 3142   0.678   6.277  11.323  0.5317 -0.0409 -0.1217
  765MOL0     O 3143   0.558   6.304  11.376 -1.4019  0.3774  0.3069
  765MOL0     C 3144   0.461   6.209  11.359  0.1041  0.6215  0.3290
  765MOL0     C 3145   0.396   6.163  11.481  0.5281 -1.3954  0.4401
  765MOL0     C 3146   0.287   6.087  11.492 -0.3918  0.0679 -0.5071
  765MOL0     C 3147   0.232   6.030  11.374 -0.0557  0.3457  0.3838
  765MOL0     O 3148   0.121   5.941  11.384 -0.7121 -0.0982 -0.8541
  765MOL0     C 3149   0.071   5.864  11.276  0.6455 -0.8190 -0.8222
  765MOL0     C 3150  -0.007   5.759  11.342 -1.3917 -0.0224  0.7033
  765MOL0     C 3151   0.068   5.664  11.440 -0.1526  0.3628 -0.8817
  765MOL0     C 3152  -0.022   5.556  11.492 -0.6048  0.2818 -0.1156
  765MOL0     C 3153  -0.076   5.604  11.625  0.1150  0.8433 -0.2679
  765MOL0     C 3154  -0.168   5.500  11.702  0.7974 -0.7238  0.3136
  765MOL0     C 3155  -0.277   5.448  11.613 -0.4244  0.3037 -0.0585
  765MOL0     C 3156  -0.399   5.405  11.690  0.6655  0.2166  0.3305
  765MOL0     N 3157  -0.507   5.355  11.605 -0.4033  0.1206  0.2110
  765MOL0     C 3158  -0.558   5.229  11.613 -0.9261  0.2589  0.7070
  765MOL0     C 3159  -0.665   5.230  11.531  0.4690 -0.6890 -0.8350
  765MOL0     C 3160  -0.750   5.114  11.494  0.6001 -0.2227  0.2187
  765MOL0     C 3161  -0.812   5.048  11.617 -0.1765 -1.1467 -0.6145
  765MOL0     C 3162  -0.784   4.902  11.632  0.5767  0.7779 -0.0451
  765MOL0     C 3163  -0.837   4.812  11.513 -0.6121 -0.4857  0.7300
  765MOL0     O 3164  -0.954   4.873  11.448  0.4753  0.1501 -0.1136
  765MOL0     C 3165  -1.082   4.837  11.474  0.8531 -0.6158 -0.0616
  765MOL0     C 3166  -1.118   4.747  11.574  0.0613 -0.2051  0.0983
  765MOL0     C 3167  -1.249   4.706  11.600  0.8998 -0.2010  0.3362
  765MOL0     C 3168  -1.274   4.586  11.684  0.0789  0.4664  0.6399
  765MOL0     C 3169  -1.356   4.770  11.516  0.2522  0.2290 -0.0044
  765MOL0     C 3170  -1.502   4.750  11.546 -0.3493 -0.5771  1.1737
  765MOL0     O 3171  -1.531   4.730  11.677  0.2754  0.0204 -0.3460
  765MOL0     C 3172  -1.645   4.658  11.700 -0.5570 -0.6117 -0.0173
  765MOL0     C 3173  -1.768   4.715  11.679  0.2787  0.2185 -0.6114
  765MOL0     C 3174  -1.890   4.656  11.692 -0.0334  1.1205 -0.3900
  765MOL0     C 3175  -1.882   4.516  11.716 -0.4354 -0.0594 -0.0994
  765MOL0     O 3176  -2.004   4.453  11.721  0.7320  0.1360 -0.3242
  765MOL0     C 3177  -2.042   4.370  11.831 -0.4002 -0.4430  0.7568
  765MOL0     C 3178  -2.135   4.441  11.926 -0.3831  0.0617 -0.3942
  765MOL0     C 3179  -2.269   4.471  11.856 -0.3370  0.4613 -0.6206
  765MOL0     C 3180  -2.360   4.347  11.853 -0.3547 -0.6294 -0.0605
  765MOL0     C 3181  -2.512   4.376  11.815 -0.7508 -0.5868  0.3056
  765MOL0     C 3182  -2.591   4.246  11.814 -0.2414  0.2095  0.6356
  765MOL0     C 3183  -2.734   4.255  11.780  1.6103  0.5214 -0.4098
  765MOL0     C 3184  -2.761   4.268  11.630  0.6884  0.4482  0.2826
  765MOL0    Cl 3185  -2.943   4.290  11.612 -0.5533  0.3122  0.0392
  765MOL0     C 3186  -1.755   4.456  11.741 -0.0243  0.0153  0.1702
  765MOL0     C 3187  -1.633   4.524  11.731  0.8614  0.5531  0.0754
  765MOL0     O 3188  -1.577   4.764  11.445 -0.3216  0.0032 -1.0972
  765MOL0     C 3189  -1.320   4.856  11.409 -0.6691  0.2823  0.3944
  765MOL0     C 3190  -1.183   4.889  11.390  0.4495 -0.1974  0.4835
  765MOL0     N 3191  -0.670   5.360  11.469 -0.1708 -0.4578 -0.9493
  765MOL0     N 3192  -0.583   5.432  11.524 -0.1531  0.2771  0.6973
  765MOL0     C 3193   0.299   6.060  11.255  0.1450 -0.3806 -0.8998
  765MOL0     C 3194   0.407   6.153  11.245  0.4710 -0.0333 -0.3800
  765MOL0     C 3195   0.783   6.373  11.348 -1.0882  0.7491 -0.5477
  765MOL0     C 3196   0.752   6.485  11.420 -0.3027  0.3275  0.6205
  765MOL0     C 3197   0.849   6.585  11.449 -0.1742 -0.3687  1.0177
  765MOL0     C 3198   0.982   6.570  11.415  0.0536  0.1250  0.7495
  765MOL0     O 3199   1.062   6.664  11.478 -0.2781  0.3316  0.0803
  765MOL0     C 3200   1.202   6.643  11.454 -0.1254 -0.1724  0.4848
  765MOL0     C 3201   1.251   6.788  11.473 -0.3628 -0.2764 -0.9230
  765MOL0     C 3202   1.403   6.799  11.469  0.3410 -0.1906  0.2262
  765MOL0     C 3203   1.466   6.931  11.525 -0.7423 -0.0403 -0.6664
  765MOL0     C 3204   1.402   7.048  11.474 -0.7648  0.1477  0.8318
  765MOL0     C 3205   1.340   7.136  11.429  0.6628  1.3605 -0.6168
  765MOL0     C 3206   1.013   6.457  11.338  0.1199 -0.3977 -0.3264
  765MOL0     C 3207   0.918   6.360  11.306 -0.6757 -0.2188 -0.3281
  765MOL0     H 3208   0.440   6.204  11.571  0.1118  0.1020  0.0014
  765MOL0     H 3209   0.234   6.076  11.586  0.0475 -0.2394 -0.2926
  765MOL0     H 3210   0.007   5.931  11.217 -2.7459  1.6017  4.8151
  765MOL0     H 3211   0.145   5.816  11.212 -0.6815 -1.9194 -1.5984
  765MOL0     H 3212  -0.101   5.800  11.381 -0.3505  2.0698  1.2036
  765MOL0     H 3213  -0.042   5.698  11.259  0.5734  1.3824 -1.2689
  765MOL0     H 3214   0.155   5.621  11.390  0.8653  0.7559  0.4969
  765MOL0     H 3215   0.111   5.728  11.518 -2.4892  2.2825 -1.0523
  765MOL0     H 3216  -0.098   5.524  11.421  0.8602 -0.8951 -1.2121
  765MOL0     H 3217   0.044   5.473  11.519 -1.8012 -0.4507  0.6175
  765MOL0     H 3218   0.006   5.614  11.697  0.1966  0.1170 -0.2585
  765MOL0     H 3219  -0.124   5.700  11.601 -1.1908 -0.2264 -2.2347
  765MOL0     H 3220  -0.108   5.412  11.729  3.0485 -0.1907 -2.4919
  765MOL0     H 3221  -0.198   5.553  11.793  4.5935  4.0204 -0.8207
  765MOL0     H 3222  -0.309   5.518  11.535  3.1407  0.1184 -1.9294
  765MOL0     H 3223  -0.230   5.371  11.552 -0.8637  1.3735 -1.8394
  765MOL0     H 3224  -0.440   5.491  11.742  0.4336 -1.9456  4.0862
  765MOL0     H 3225  -0.369   5.327  11.761 -0.6238 -0.5587  0.0440
  765MOL0     H 3226  -0.510   5.144  11.661  0.2205 -1.1879 -2.6295
  765MOL0     H 3227  -0.835   5.136  11.429 -1.8521 -2.0227  2.6087
  765MOL0     H 3228  -0.688   5.038  11.445  1.2401  0.8342 -0.6677
  765MOL0     H 3229  -0.920   5.063  11.611 -0.0811  1.2510  1.7123
  765MOL0     H 3230  -0.776   5.094  11.709 -0.2135 -0.4967 -0.9186
  765MOL0     H 3231  -0.822   4.858  11.724  1.4397 -1.1006 -0.5338
  765MOL0     H 3232  -0.678   4.875  11.640  0.0668 -1.3353  0.2603
  765MOL0     H 3233  -0.860   4.708  11.537  0.1340 -0.8051  0.0930
  765MOL0     H 3234  -0.748   4.811  11.449 -0.9723  1.1356  0.1450
  765MOL0     H 3235  -1.043   4.693  11.632  0.1305  0.1706  0.3657
  765MOL0     H 3236  -1.318   4.506  11.624  1.5543  0.0338  0.0848
  765MOL0     H 3237  -1.183   4.536  11.720 -0.3922  0.4810  1.9034
  765MOL0     H 3238  -1.336   4.601  11.773 -0.4458 -1.3296  0.6145
  765MOL0     H 3239  -1.774   4.821  11.657 -2.9455  0.1735 -0.3669
  765MOL0     H 3240  -1.985   4.701  11.665 -0.2259  0.2336 -1.2378
  765MOL0     H 3241  -2.086   4.274  11.800  1.3089 -0.9363 -0.2870
  765MOL0     H 3242  -1.954   4.333  11.885  1.2234  1.0749 -0.7199
  765MOL0     H 3243  -2.153   4.388  12.020  0.3812 -0.2960 -0.4373
  765MOL0     H 3244  -2.095   4.536  11.962 -2.2491  1.0076 -0.6627
  765MOL0     H 3245  -2.254   4.519  11.760 -1.1121  0.7106 -0.6263
  765MOL0     H 3246  -2.315   4.542  11.926 -0.3453 -0.6268  0.5333
  765MOL0     H 3247  -2.323   4.268  11.786  1.0284 -0.8557  0.9408
  765MOL0     H 3248  -2.358   4.302  11.952 -0.7707  2.1908  1.3118
  765MOL0     H 3249  -2.523   4.416  11.714  1.0133  0.8989  0.6619
  765MOL0     H 3250  -2.556   4.451  11.882  0.7370  1.5149 -0.9561
  765MOL0     H 3251  -2.544   4.183  11.738  0.0779 -1.7027  2.3540
  765MOL0     H 3252  -2.570   4.206  11.913 -0.4620 -0.1253  0.5493
  765MOL0     H 3253  -2.764   4.354  11.818 -1.6074 -0.1194 -1.0330
  765MOL0     H 3254  -2.794   4.176  11.826  2.0099  0.0911 -0.6166
  765MOL0     H 3255  -2.733   4.171  11.588  0.0949  0.3766  0.0305
  765MOL0     H 3256  -2.711   4.353  11.584 -2.9717  1.3834 -2.4628
  765MOL0     H 3257  -1.748   4.350  11.766  0.4110 -0.7706 -2.8645
  765MOL0     H 3258  -1.536   4.484  11.757  0.8145  0.5363  0.2273
  765MOL0     H 3259  -1.391   4.890  11.334 -0.2902 -0.9674 -0.5710
  765MOL0     H 3260  -1.165   4.944  11.299 -3.8420 -2.0739 -1.8011
  765MOL0     H 3261   0.262   6.031  11.157  1.7275 -1.4144 -1.2259
  765MOL0     H 3262   0.445   6.193  11.152  1.5771  2.3940  1.0150
  765MOL0     H 3263   0.655   6.503  11.464 -0.4344  2.9236 -0.5707
  765MOL0     H 3264   0.824   6.661  11.523  0.7498  1.6347 -0.6366
  765MOL0     H 3265   1.247   6.571  11.522  3.8290  2.3464  0.8389
  765MOL0     H 3266   1.209   6.614  11.349  2.3691 -2.1074  1.0950
  765MOL0     H 3267   1.223   6.825  11.573 -1.4077 -0.2474 -1.2114
  765MOL0     H 3268   1.212   6.860  11.401  2.9838 -0.0673 -2.7052
  765MOL0     H 3269   1.435   6.777  11.366  3.1218 -3.2422  1.5629
  765MOL0     H 3270   1.435   6.716  11.532  0.0316 -0.9463 -0.5787
  765MOL0     H 3271   1.574   6.930  11.505 -0.9009 -0.2388 -1.5631
  765MOL0     H 3272   1.465   6.932  11.635 -2.8673 -1.2701 -0.6210
  765MOL0     H 3273   1.293   7.218  11.378  1.0426  2.0451  0.1055
  765MOL0     H 3274   1.115   6.434  11.307 -0.1172 -1.7298 -0.1848
  765MOL0     H 3275   0.943   6.279  11.238 -1.4842  0.7557 -1.8292
  766MOL0     O 3276   6.968   3.011   9.929  0.1309 -0.0471  0.1827
  766MOL0     C 3277   7.063   2.962   9.864  0.1115  0.1587  0.0149
  766MOL0     O 3278   7.057   2.862   9.767 -0.1824  0.5983 -0.7357
  766MOL0     C 3279   6.933   2.822   9.717  0.1232  0.7945 -0.3033
  766MOL0     C 3280   6.917   2.695   9.667 -0.3079  0.6738 -0.3187
  766MOL0     C 3281   6.791   2.653   9.622 -0.1841 -0.2449 -0.5318
  766MOL0     C 3282   6.685   2.740   9.612 -1.2898  0.7995 -0.2632
  766MOL0     O 3283   6.579   2.683   9.542 -0.4556  0.2216 -0.4854
  766MOL0     C 3284   6.469   2.759   9.506 -0.2790  0.6385  0.1509
  766MOL0     C 3285   6.383   2.684   9.395  0.0910  0.7750  1.0686
  766MOL0     C 3286   6.337   2.553   9.446  0.2455 -0.4231  0.2453
  766MOL0     C 3287   6.224   2.513   9.355  0.5827 -0.6448 -0.3748
  766MOL0     C 3288   6.151   2.379   9.387 -0.2137 -0.3272 -1.1640
  766MOL0     C 3289   6.062   2.319   9.266 -0.8275 -0.0448 -0.0830
  766MOL0     C 3290   5.956   2.409   9.219 -0.0879 -0.2215 -0.4707
  766MOL0     C 3291   5.852   2.336   9.132 -0.3682 -0.0007  0.9136
  766MOL0     N 3292   5.734   2.414   9.090 -0.3656 -0.0708  0.6395
  766MOL0     C 3293   5.698   2.545   9.106  0.5939 -0.3369  0.3773
  766MOL0     C 3294   5.572   2.558   9.060 -0.1910  0.6654  0.2005
  766MOL0     C 3295   5.476   2.676   9.058 -0.2730 -0.1899  0.5292
  766MOL0     C 3296   5.365   2.662   8.938  0.2316  0.2764 -1.0203
  766MOL0     C 3297   5.257   2.562   8.985  0.1657  0.8275  0.1585
  766MOL0     C 3298   5.179   2.520   8.860 -0.5095  0.1849 -0.2047
  766MOL0     O 3299   5.118   2.631   8.811 -0.4778  0.3742 -0.4804
  766MOL0     C 3300   4.982   2.657   8.833 -0.1228  0.1590 -0.7455
  766MOL0     C 3301   4.937   2.784   8.808 -0.2026  0.2758 -0.0745
  766MOL0     C 3302   4.805   2.831   8.816  0.4945 -0.9548  0.8165
  766MOL0     C 3303   4.790   2.978   8.798  0.2551  1.1149  0.1206
  766MOL0     C 3304   4.700   2.742   8.858 -0.7596  0.0525 -1.1884
  766MOL0     C 3305   4.557   2.778   8.883 -0.2096  0.5934  0.4960
  766MOL0     O 3306   4.509   2.896   8.837  0.7798 -0.1640  0.1821
  766MOL0     C 3307   4.371   2.912   8.843 -0.1545  1.1526 -0.2114
  766MOL0     C 3308   4.311   2.980   8.949  0.0263  0.7922  0.0004
  766MOL0     C 3309   4.173   2.997   8.958  0.2306 -0.0846  1.5512
  766MOL0     C 3310   4.091   2.952   8.847  0.7699  0.1729 -0.1718
  766MOL0     O 3311   3.955   2.966   8.840  0.7672 -0.0082  0.4335
  766MOL0     C 3312   3.901   3.033   8.959 -0.1607 -0.1745 -0.3421
  766MOL0     C 3313   3.758   3.031   8.950  0.3513  0.1647  1.5518
  766MOL0     C 3314   3.699   3.134   8.848 -0.1242 -1.1793  0.8102
  766MOL0     C 3315   3.551   3.099   8.807 -0.1132 -0.0466 -0.5650
  766MOL0     C 3316   3.462   3.141   8.920  0.7481  0.5721 -0.6577
  766MOL0     C 3317   3.313   3.107   8.903  0.8338 -0.3610 -0.2962
  766MOL0     C 3318   3.217   3.128   9.019  0.1135 -0.6752 -0.1790
  766MOL0     C 3319   3.068   3.150   8.970  0.2289 -0.4584 -0.9268
  766MOL0    Cl 3320   3.064   3.302   8.877 -0.4934 -0.0612  0.0602
  766MOL0     C 3321   4.145   2.881   8.740 -0.4672 -0.3958 -0.2411
  766MOL0     C 3322   4.285   2.861   8.735  0.2444 -0.5164 -0.4183
  766MOL0     O 3323   4.487   2.689   8.941  0.6147  0.4858  1.0567
  766MOL0     C 3324   4.752   2.610   8.898  0.4702  0.7167  0.5150
  766MOL0     C 3325   4.887   2.572   8.885  0.1604 -0.0954  0.5395
  766MOL0     N 3326   5.536   2.431   9.016  0.4129 -0.4633 -0.7448
  766MOL0     N 3327   5.631   2.354   9.033  0.1106 -0.3480 -0.2811
  766MOL0     C 3328   6.703   2.876   9.652  0.3677  0.8438  0.1303
  766MOL0     C 3329   6.828   2.912   9.703  0.8129 -0.4831  0.0621
  766MOL0     C 3330   7.203   2.994   9.910  0.2851 -0.4312  0.3115
  766MOL0     C 3331   7.227   3.108   9.979  1.3370 -0.1867  0.6923
  766MOL0     C 3332   7.358   3.129  10.032  0.7995 -0.3590 -0.4464
  766MOL0     C 3333   7.458   3.030  10.015 -0.4966  0.0207  0.4577
  766MOL0     O 3334   7.585   3.036  10.061 -0.2571 -0.5849  0.0331
  766MOL0     C 3335   7.627   3.164  10.110 -0.1159  0.1252 -0.4050
  766MOL0     C 3336   7.773   3.154  10.151  0.8336 -0.2745 -0.7806
  766MOL0     C 3337   7.804   3.273  10.251 -0.4742  0.6631  0.1528
  766MOL0     C 3338   7.936   3.244  10.317 -0.2057  0.3443 -0.8581
  766MOL0     C 3339   8.057   3.247  10.229  0.5574  0.7052 -0.3674
  766MOL0     C 3340   8.159   3.238  10.169  0.3725  0.4573  0.9325
  766MOL0     C 3341   7.424   2.915   9.941 -0.4955  0.3189 -0.6486
  766MOL0     C 3342   7.298   2.892   9.892 -0.3359  0.1349 -0.7511
  766MOL0     H 3343   6.989   2.614   9.664 -1.9201 -0.8698 -3.1072
  766MOL0     H 3344   6.785   2.552   9.582 -0.8804  0.4518 -2.3051
  766MOL0     H 3345   6.407   2.784   9.592 -2.7536  0.9043 -1.6196
  766MOL0     H 3346   6.513   2.854   9.472 -0.5252  0.0002 -2.0724
  766MOL0     H 3347   6.299   2.753   9.384  0.8225  1.7739  1.4813
  766MOL0     H 3348   6.443   2.678   9.304 -1.1659 -0.0231  0.2785
  766MOL0     H 3349   6.419   2.480   9.449 -0.5456 -1.3289  0.2690
  766MOL0     H 3350   6.309   2.563   9.552  1.9924  0.4871  0.6518
  766MOL0     H 3351   6.141   2.585   9.350  1.1738 -0.0178 -1.7070
  766MOL0     H 3352   6.260   2.511   9.252 -1.5901 -3.6605 -1.2222
  766MOL0     H 3353   6.218   2.302   9.426 -0.2714  1.0299  1.9968
  766MOL0     H 3354   6.082   2.397   9.470 -0.3749  0.3617 -1.4423
  766MOL0     H 3355   6.131   2.310   9.182 -2.1020  0.9156 -1.2692
  766MOL0     H 3356   6.013   2.223   9.284 -0.8499 -0.2918 -1.3499
  766MOL0     H 3357   5.909   2.452   9.309 -0.0594 -0.0060 -0.5574
  766MOL0     H 3358   6.005   2.489   9.162  1.9194 -0.6123  0.6322
  766MOL0     H 3359   5.806   2.250   9.181 -0.4034  0.4389  1.6582
  766MOL0     H 3360   5.909   2.310   9.042 -1.1277 -1.8461  0.9214
  766MOL0     H 3361   5.758   2.628   9.142  0.7070 -1.2007  2.3328
  766MOL0     H 3362   5.431   2.670   9.157 -0.1767 -0.2009  0.5715
  766MOL0     H 3363   5.527   2.773   9.054  1.1671 -0.7882  2.7103
  766MOL0     H 3364   5.417   2.633   8.847  1.7457  2.5716 -0.9913
  766MOL0     H 3365   5.317   2.759   8.925  1.5514  1.1531  0.1959
  766MOL0     H 3366   5.180   2.596   9.055  0.3641 -0.9842  1.3481
  766MOL0     H 3367   5.307   2.480   9.038 -0.7035 -0.5801 -1.1163
  766MOL0     H 3368   5.127   2.427   8.885 -0.0203 -0.1816 -0.5243
  766MOL0     H 3369   5.250   2.482   8.786 -0.9652 -2.4273  0.5835
  766MOL0     H 3370   5.015   2.858   8.791 -0.4796  0.5543 -0.1438
  766MOL0     H 3371   4.885   3.031   8.784 -0.7375  2.4401 -2.2356
  766MOL0     H 3372   4.732   3.018   8.715 -0.1491  1.0978  0.3912
  766MOL0     H 3373   4.741   3.013   8.889 -2.1202  0.1059 -0.6996
  766MOL0     H 3374   4.371   3.018   9.032  1.8142  1.5936 -1.5949
  766MOL0     H 3375   4.131   3.046   9.045 -2.3494  1.7524 -0.5749
  766MOL0     H 3376   3.932   2.983   9.051 -2.5974  0.3690  0.8752
  766MOL0     H 3377   3.930   3.138   8.961  2.1779 -0.7361 -1.2616
  766MOL0     H 3378   3.744   2.930   8.910 -0.1392  0.3960  1.1265
  766MOL0     H 3379   3.717   3.043   9.051  1.8647  4.9470  1.8243
  766MOL0     H 3380   3.773   3.134   8.768 -0.9223 -2.3831  0.0349
  766MOL0     H 3381   3.688   3.236   8.884 -1.4712  0.1458 -2.9074
  766MOL0     H 3382   3.518   3.158   8.722 -1.4720  1.1798  0.7587
  766MOL0     H 3383   3.535   2.991   8.796 -3.8402  0.3835 -0.8322
  766MOL0     H 3384   3.474   3.250   8.915  2.5272  0.3522 -2.1938
  766MOL0     H 3385   3.494   3.097   9.014 -2.0452 -0.0822  0.0935
  766MOL0     H 3386   3.281   3.175   8.824  3.2252  0.3340 -0.7514
  766MOL0     H 3387   3.295   3.012   8.852 -0.5883 -0.1366 -0.2479
  766MOL0     H 3388   3.241   3.212   9.084  1.1120 -2.2742  1.6485
  766MOL0     H 3389   3.217   3.035   9.077  3.5758  0.3740  1.7838
  766MOL0     H 3390   2.998   3.168   9.053  1.5422  2.7976 -0.3931
  766MOL0     H 3391   3.029   3.059   8.922 -0.4256  0.0513 -1.3692
  766MOL0     H 3392   4.083   2.847   8.658 -3.5525 -1.1133  2.1936
  766MOL0     H 3393   4.329   2.834   8.639  0.2300  1.0392 -0.8964
  766MOL0     H 3394   4.683   2.534   8.932 -1.3102  2.0486  0.0856
  766MOL0     H 3395   4.914   2.469   8.904  1.0953 -0.6631 -3.1012
  766MOL0     H 3396   6.624   2.948   9.633 -0.6479 -0.2784 -0.0019
  766MOL0     H 3397   6.829   3.020   9.715  0.0545  0.3277 -5.0458
  766MOL0     H 3398   7.158   3.180  10.022  1.0078  0.3005 -0.6127
  766MOL0     H 3399   7.379   3.218  10.091 -1.5205 -0.5113  0.7176
  766MOL0     H 3400   7.612   3.242  10.033 -2.2517 -1.2541 -1.5015
  766MOL0     H 3401   7.572   3.210  10.193  0.7429 -2.0286  1.4463
  766MOL0     H 3402   7.839   3.154  10.064  0.7261  1.9034 -0.8965
  766MOL0     H 3403   7.779   3.064  10.213  3.2004  1.6966  2.1528
  766MOL0     H 3404   7.727   3.271  10.329  1.2316  0.8574  1.9007
  766MOL0     H 3405   7.804   3.364  10.191 -2.0006 -0.5884 -1.8977
  766MOL0     H 3406   7.929   3.148  10.369 -0.3914  0.3801 -0.8189
  766MOL0     H 3407   7.954   3.318  10.396 -0.4376  0.2281 -0.6972
  766MOL0     H 3408   8.243   3.243  10.102 -0.7748 -1.9718 -0.8557
  766MOL0     H 3409   7.500   2.839   9.924  0.2469  0.7188  0.7530
  766MOL0     H 3410   7.282   2.808   9.824 -1.6559 -0.1225 -0.1499
  767MOL0     O 3411   5.196   2.357  10.668  0.1400 -0.3050 -0.0041
  767MOL0     C 3412   5.251   2.349  10.774  1.5501  0.1712 -0.5571
  767MOL0     O 3413   5.185   2.298  10.882  0.6285  0.1975 -0.8477
  767MOL0     C 3414   5.048   2.259  10.889 -0.2790 -0.6325  0.4984
  767MOL0     C 3415   4.946   2.311  10.802 -0.2644 -0.1022  0.3648
  767MOL0     C 3416   4.823   2.254  10.813  0.3071  0.0137  0.6441
  767MOL0     C 3417   4.785   2.174  10.928  0.1290 -0.0504 -0.2958
  767MOL0     O 3418   4.661   2.111  10.949  0.0696  0.2364 -0.3380
  767MOL0     C 3419   4.553   2.200  10.921 -0.3769  0.9353  0.3116
  767MOL0     C 3420   4.416   2.132  10.941  0.5835  0.4309  0.5571
  767MOL0     C 3421   4.376   2.029  10.828 -0.7575 -0.2891 -1.0325
  767MOL0     C 3422   4.239   1.961  10.864 -0.4961 -0.1436 -0.0688
  767MOL0     C 3423   4.123   2.058  10.838  0.4546 -0.5183 -0.4333
  767MOL0     C 3424   3.985   1.984  10.848 -0.0663 -0.0775  0.2000
  767MOL0     C 3425   3.970   1.920  10.980 -0.1419 -0.2183  0.4369
  767MOL0     C 3426   3.840   1.858  11.015  0.0186 -0.5363  0.3472
  767MOL0     N 3427   3.808   1.738  10.943  0.2103 -0.5901  0.0506
  767MOL0     C 3428   3.743   1.738  10.822 -0.0106 -0.2890  0.1398
  767MOL0     C 3429   3.740   1.609  10.778 -0.5028 -0.3496  0.1046
  767MOL0     C 3430   3.674   1.536  10.663 -0.3243 -0.3645  0.0222
  767MOL0     C 3431   3.721   1.587  10.526  0.3195  0.3181 -0.3541
  767MOL0     C 3432   3.868   1.560  10.507 -0.0167  0.4567 -0.1892
  767MOL0     C 3433   3.913   1.557  10.352  0.1909  0.2649 -0.2793
  767MOL0     O 3434   3.834   1.465  10.271 -0.2575  0.0930 -0.8518
  767MOL0     C 3435   3.834   1.336  10.304 -0.6059  0.2171  0.6714
  767MOL0     C 3436   3.709   1.269  10.313 -0.0549 -0.4243  0.5494
  767MOL0     C 3437   3.697   1.131  10.351 -0.5532 -0.5136  0.2705
  767MOL0     C 3438   3.550   1.082  10.367 -0.9813 -0.1570  0.1631
  767MOL0     C 3439   3.816   1.049  10.353  0.2839  0.2440  0.2996
  767MOL0     C 3440   3.812   0.916  10.397 -1.0716 -0.1488 -0.1605
  767MOL0     O 3441   3.751   0.900  10.515  0.2219  0.0912  0.4139
  767MOL0     C 3442   3.769   0.787  10.591  0.5907  0.4120 -0.9999
  767MOL0     C 3443   3.882   0.703  10.606 -0.2301 -0.1801 -0.6875
  767MOL0     C 3444   3.881   0.586  10.684  0.5926  0.8759 -0.5981
  767MOL0     C 3445   3.761   0.550  10.749  0.0396  0.5600  0.0198
  767MOL0     O 3446   3.736   0.434  10.822 -0.7707  1.1336  0.1898
  767MOL0     C 3447   3.835   0.333  10.869  0.3315 -0.7063  0.0288
  767MOL0     C 3448   3.793   0.189  10.842 -0.1762 -0.1343 -0.4840
  767MOL0     C 3449   3.701   0.147  10.953  0.0624  0.4261  0.9450
  767MOL0     C 3450   3.645   0.006  10.947  0.5530 -0.0206  0.1777
  767MOL0     C 3451   3.565  -0.009  11.073 -0.2050 -0.6453  0.4442
  767MOL0     C 3452   3.495  -0.149  11.102  0.0466 -0.3508 -0.5142
  767MOL0     C 3453   3.537  -0.271  11.016  0.8214  0.8869 -0.1360
  767MOL0     C 3454   3.454  -0.395  11.066 -0.3275 -0.5671  0.1417
  767MOL0    Cl 3455   3.277  -0.379  11.059 -0.1738  1.2994 -0.6675
  767MOL0     C 3456   3.657   0.638  10.742  0.4384  0.1940  0.4227
  767MOL0     C 3457   3.654   0.752  10.657 -0.2515  0.6672  0.3490
  767MOL0     O 3458   3.858   0.825  10.328  0.7932  0.7550 -1.0110
  767MOL0     C 3459   3.933   1.114  10.322  0.5688  0.5543  0.5152
  767MOL0     C 3460   3.942   1.252  10.299 -0.1731 -0.3808  0.2663
  767MOL0     N 3461   3.809   1.531  10.873 -0.2116  0.4253 -0.0616
  767MOL0     N 3462   3.852   1.609  10.965 -0.0239 -0.0847  0.0292
  767MOL0     C 3463   4.891   2.133  11.009  0.4095 -0.7547 -0.1873
  767MOL0     C 3464   5.024   2.171  10.989 -0.4162  0.0218  0.4169
  767MOL0     C 3465   5.389   2.377  10.787 -0.0141 -0.1044  0.0633
  767MOL0     C 3466   5.464   2.396  10.669 -0.2947  1.4397 -0.1004
  767MOL0     C 3467   5.601   2.415  10.689 -0.3316 -0.7213  0.3931
  767MOL0     C 3468   5.661   2.440  10.817 -0.1936  0.2585  0.5768
  767MOL0     O 3469   5.791   2.469  10.838 -0.7131  0.0069  0.0585
  767MOL0     C 3470   5.883   2.466  10.721 -0.0145  0.5827 -0.2477
  767MOL0     C 3471   6.036   2.430  10.744  0.3289  0.8981  0.1314
  767MOL0     C 3472   6.049   2.288  10.817  0.1711  0.1075  0.0279
  767MOL0     C 3473   6.170   2.282  10.896 -0.6716 -0.3010 -0.6814
  767MOL0     C 3474   6.184   2.164  10.981  0.4144 -0.2200 -0.9200
  767MOL0     C 3475   6.196   2.070  11.054  0.1621  0.9243  1.2057
  767MOL0     C 3476   5.579   2.431  10.929 -0.5053 -0.7792 -0.4857
  767MOL0     C 3477   5.445   2.397  10.917 -0.3325 -0.9679 -0.0018
  767MOL0     H 3478   4.977   2.386  10.730 -0.3270 -1.4491 -1.1241
  767MOL0     H 3479   4.749   2.281  10.739  1.5612 -0.3921 -0.7924
  767MOL0     H 3480   4.552   2.287  10.987 -3.2484  0.5897  0.8345
  767MOL0     H 3481   4.551   2.242  10.820 -1.3521  1.8851  0.7103
  767MOL0     H 3482   4.423   2.085  11.039 -0.0003  1.0569  0.9104
  767MOL0     H 3483   4.346   2.216  10.952 -1.2829 -1.2496  2.3246
  767MOL0     H 3484   4.385   2.069  10.727  2.6916 -0.1848 -0.7892
  767MOL0     H 3485   4.450   1.949  10.834 -2.2028 -1.6225 -0.2595
  767MOL0     H 3486   4.226   1.883  10.788 -1.5525  1.8401 -2.0868
  767MOL0     H 3487   4.243   1.915  10.963  2.3345 -1.1120 -0.5552
  767MOL0     H 3488   4.107   2.146  10.902  2.2337 -2.1966  2.5504
  767MOL0     H 3489   4.135   2.102  10.739 -1.6963  4.0418  1.0353
  767MOL0     H 3490   3.901   2.051  10.825  1.0831  1.6068  0.6820
  767MOL0     H 3491   3.981   1.911  10.767  0.3064 -0.2271  0.3161
  767MOL0     H 3492   4.045   1.842  10.994  1.6843  1.0082 -1.7805
  767MOL0     H 3493   3.979   2.000  11.053 -3.3126 -0.6794  1.5082
  767MOL0     H 3494   3.754   1.925  11.005  1.6157  1.5761  0.0613
  767MOL0     H 3495   3.849   1.836  11.122  0.4379  0.7623  0.5970
  767MOL0     H 3496   3.703   1.830  10.779 -1.1307 -1.1347 -0.6993
  767MOL0     H 3497   3.678   1.429  10.682 -1.9240 -0.0551  2.4735
  767MOL0     H 3498   3.569   1.565  10.659 -0.0613  0.7796  0.7887
  767MOL0     H 3499   3.719   1.695  10.515 -0.1659  0.1451 -2.2083
  767MOL0     H 3500   3.656   1.541  10.451 -1.2016 -3.9117  3.1269
  767MOL0     H 3501   3.888   1.462  10.552  0.0634  0.8210  0.5789
  767MOL0     H 3502   3.924   1.633  10.566  1.0380 -0.2360 -0.3151
  767MOL0     H 3503   4.018   1.527  10.343  0.9095  2.8850 -1.6635
  767MOL0     H 3504   3.900   1.658  10.313 -0.3851  1.0521  1.7954
  767MOL0     H 3505   3.621   1.331  10.300 -0.5941 -1.3021 -0.1646
  767MOL0     H 3506   3.489   1.174  10.365 -0.5167  0.1858 -2.3173
  767MOL0     H 3507   3.517   1.028  10.278 -1.5262 -2.3161  1.6098
  767MOL0     H 3508   3.531   1.017  10.453 -0.3883  0.0685  0.4667
  767MOL0     H 3509   3.976   0.730  10.560 -0.6534  2.6371 -0.0940
  767MOL0     H 3510   3.976   0.540  10.709  0.1036  1.4095  2.6870
  767MOL0     H 3511   3.935   0.359  10.832  1.4473 -0.9307  2.6711
  767MOL0     H 3512   3.844   0.348  10.977 -0.6987  1.0923 -0.0884
  767MOL0     H 3513   3.743   0.176  10.745  1.0903 -1.4272 -0.9903
  767MOL0     H 3514   3.882   0.126  10.846 -0.7664 -0.9317  0.6148
  767MOL0     H 3515   3.619   0.219  10.958 -0.6133 -0.2988  0.4818
  767MOL0     H 3516   3.753   0.154  11.049 -1.0867 -3.2169  1.9868
  767MOL0     H 3517   3.589  -0.020  10.856  0.8018  1.5692 -0.4624
  767MOL0     H 3518   3.721  -0.073  10.951  0.7161  0.0219 -1.4660
  767MOL0     H 3519   3.490   0.070  11.086 -0.8000 -1.2678  0.8554
  767MOL0     H 3520   3.644  -0.011  11.148 -1.1054 -2.4675  1.3990
  767MOL0     H 3521   3.522  -0.168  11.206 -1.9749  0.9501  0.2990
  767MOL0     H 3522   3.386  -0.144  11.099 -0.3799  0.9205  5.3667
  767MOL0     H 3523   3.642  -0.296  11.031  0.3519  0.5899  3.3541
  767MOL0     H 3524   3.513  -0.256  10.910  0.6156 -1.4001 -0.4458
  767MOL0     H 3525   3.481  -0.416  11.169 -1.3300 -1.1437  0.2963
  767MOL0     H 3526   3.486  -0.486  11.015  0.8618 -0.1417  0.0766
  767MOL0     H 3527   3.569   0.618  10.802 -1.4106  5.6382  0.1156
  767MOL0     H 3528   3.560   0.806  10.646 -2.3046 -2.5620  0.5331
  767MOL0     H 3529   4.035   1.075  10.327 -0.5765 -3.0277 -0.8279
  767MOL0     H 3530   4.041   1.295  10.282 -0.8671  1.9066  1.5443
  767MOL0     H 3531   4.879   2.062  11.090  2.9577 -0.7168  0.3082
  767MOL0     H 3532   5.114   2.141  11.043  0.8770  0.2768 -1.5095
  767MOL0     H 3533   5.419   2.390  10.570 -1.9561 -1.8353  0.7204
  767MOL0     H 3534   5.664   2.429  10.602 -0.7877  1.3684  0.3618
  767MOL0     H 3535   5.849   2.381  10.660 -1.4271  1.1426 -0.2701
  767MOL0     H 3536   5.880   2.558  10.663  1.0752  0.2079 -0.9217
  767MOL0     H 3537   6.074   2.509  10.810 -2.1493  0.9542  1.6423
  767MOL0     H 3538   6.094   2.430  10.652  1.4490 -1.1421  0.7757
  767MOL0     H 3539   6.061   2.210  10.741  2.3041  0.2266  0.1894
  767MOL0     H 3540   5.960   2.262  10.875  2.0632 -2.5806  1.9806
  767MOL0     H 3541   6.172   2.367  10.966  2.6541 -0.1574 -0.8061
  767MOL0     H 3542   6.260   2.281  10.835 -0.6756 -1.3784 -0.6870
  767MOL0     H 3543   6.173   1.992  11.124 -0.9628  0.1899  0.0497
  767MOL0     H 3544   5.628   2.435  11.026 -0.5286  0.3682 -0.5178
  767MOL0     H 3545   5.386   2.384  11.007  0.6609 -2.3411  0.4855
  768MOL0     O 3546   5.928   6.448   1.194 -0.6266  0.6362 -0.3625
  768MOL0     C 3547   5.962   6.349   1.265 -0.3513 -0.2799 -0.1875
  768MOL0     O 3548   5.883   6.248   1.304  1.1743 -0.6515 -0.2946
  768MOL0     C 3549   5.747   6.239   1.284  0.8199 -0.2535 -1.0987
  768MOL0     C 3550   5.671   6.170   1.384  0.9303 -0.1560  0.1286
  768MOL0     C 3551   5.528   6.160   1.367 -0.5932  0.3058  0.1357
  768MOL0     C 3552   5.469   6.221   1.258 -0.3470 -0.2111  0.4897
  768MOL0     O 3553   5.331   6.214   1.247  0.6090  0.9942  0.0309
  768MOL0     C 3554   5.272   6.214   1.120 -0.8972 -0.1761 -0.1321
  768MOL0     C 3555   5.140   6.134   1.102 -0.0460 -0.4510 -0.6436
  768MOL0     C 3556   5.015   6.198   1.167 -0.3417  1.0616 -0.8035
  768MOL0     C 3557   4.891   6.135   1.107  0.0388  0.8521 -0.6753
  768MOL0     C 3558   4.756   6.162   1.191  0.0775 -0.9544  0.8962
  768MOL0     C 3559   4.710   6.309   1.216 -0.0661 -0.5024 -0.6199
  768MOL0     C 3560   4.780   6.360   1.343 -0.2394  0.1755 -0.0875
  768MOL0     C 3561   4.741   6.505   1.372 -0.9626 -0.8307  0.4711
  768MOL0     N 3562   4.798   6.605   1.276  0.4487  0.4967  0.0888
  768MOL0     C 3563   4.723   6.675   1.181  0.1631  0.2957 -0.0507
  768MOL0     C 3564   4.811   6.745   1.106  0.8313  1.4234  0.2411
  768MOL0     C 3565   4.785   6.840   0.988  0.4691 -0.0597 -0.1080
  768MOL0     C 3566   4.638   6.873   0.958 -1.1207 -0.2686  0.1669
  768MOL0     C 3567   4.640   7.001   0.864  0.0122 -0.2995  0.2208
  768MOL0     C 3568   4.501   7.026   0.800  0.3222  0.7887  0.1473
  768MOL0     O 3569   4.404   7.034   0.911 -0.3086 -0.5549  0.4368
  768MOL0     C 3570   4.269   7.034   0.887 -0.1325  0.5008  0.1823
  768MOL0     C 3571   4.208   7.040   0.765 -0.0471  0.5039 -0.0668
  768MOL0     C 3572   4.072   7.037   0.750 -0.4035 -0.5627  0.0841
  768MOL0     C 3573   4.027   7.042   0.599 -0.3183  0.1183 -0.8644
  768MOL0     C 3574   3.988   7.042   0.866 -0.4712  0.1797  0.0146
  768MOL0     C 3575   3.844   7.052   0.860  0.2137 -0.1062 -0.8724
  768MOL0     O 3576   3.771   6.962   0.939  0.6418 -0.0126  0.6546
  768MOL0     C 3577   3.632   6.937   0.913  0.0715 -0.4334  0.1300
  768MOL0     C 3578   3.558   6.855   1.007 -0.4908 -0.4290  0.7083
  768MOL0     C 3579   3.423   6.837   0.996 -0.1196 -0.1922 -0.0164
  768MOL0     C 3580   3.350   6.887   0.884 -0.9053 -0.2007  0.9837
  768MOL0     O 3581   3.216   6.897   0.869 -0.2723 -0.2257 -0.2655
  768MOL0     C 3582   3.131   6.854   0.975 -0.8376  0.7851  0.3358
  768MOL0     C 3583   2.992   6.897   0.930  0.0263  0.2227 -0.2338
  768MOL0     C 3584   2.890   6.855   1.043  0.7590  0.7164  0.1307
  768MOL0     C 3585   2.910   6.906   1.189  0.4828 -1.1861 -0.2154
  768MOL0     C 3586   2.823   6.826   1.296  0.0716 -0.3615 -0.3260
  768MOL0     C 3587   2.818   6.900   1.426  0.1293 -0.0814  0.0838
  768MOL0     C 3588   2.760   7.036   1.410 -0.0962  0.1411 -0.0706
  768MOL0     C 3589   2.687   7.073   1.540 -0.3162 -0.0727  0.9664
  768MOL0    Cl 3590   2.799   7.048   1.677  0.0802  0.0805  0.1391
  768MOL0     C 3591   3.418   6.957   0.782 -0.8258  0.2779 -0.0103
  768MOL0     C 3592   3.564   6.979   0.789  0.2282 -0.2217 -0.4738
  768MOL0     O 3593   3.793   7.137   0.788 -0.6886 -0.0236  0.3842
  768MOL0     C 3594   4.056   7.051   0.993  0.4935  0.5990 -0.0422
  768MOL0     C 3595   4.192   7.044   0.999  0.3193  0.0969 -0.1153
  768MOL0     N 3596   4.934   6.730   1.171  0.2725  0.0620  0.2144
  768MOL0     N 3597   4.925   6.637   1.262 -0.2974 -0.5919 -0.6909
  768MOL0     C 3598   5.544   6.297   1.161 -0.0384 -0.7012  0.0495
  768MOL0     C 3599   5.685   6.286   1.170  0.2551 -0.6444 -1.4834
  768MOL0     C 3600   6.106   6.340   1.322  0.6041  0.6007  0.9654
  768MOL0     C 3601   6.184   6.453   1.326 -1.0395 -0.2237  0.2075
  768MOL0     C 3602   6.312   6.463   1.388 -0.5912  0.8773  0.6952
  768MOL0     C 3603   6.355   6.345   1.454  0.1495  0.0863  0.1994
  768MOL0     O 3604   6.463   6.369   1.528  0.4687  0.6322 -0.5528
  768MOL0     C 3605   6.506   6.271   1.626 -0.1578 -0.3598  0.2456
  768MOL0     C 3606   6.594   6.155   1.572 -0.9007  0.2757  0.2512
  768MOL0     C 3607   6.728   6.208   1.509 -0.0770 -0.4464 -0.4781
  768MOL0     C 3608   6.805   6.094   1.449  0.1101  0.0972 -0.6751
  768MOL0     C 3609   6.948   6.108   1.469  0.4385 -0.6584 -0.3719
  768MOL0     C 3610   7.063   6.149   1.469  0.0756 -0.0925  0.2055
  768MOL0     C 3611   6.284   6.227   1.443 -0.0847 -0.0987  0.7014
  768MOL0     C 3612   6.159   6.219   1.368 -0.5279 -0.4758 -0.2447
  768MOL0     H 3613   5.721   6.113   1.461 -0.6763 -2.8214 -0.6575
  768MOL0     H 3614   5.458   6.110   1.433  0.5190 -4.4652 -1.8264
  768MOL0     H 3615   5.253   6.319   1.098  2.3356  0.5121 -0.1465
  768MOL0     H 3616   5.346   6.169   1.054 -2.3452 -1.2134 -1.1134
  768MOL0     H 3617   5.116   6.127   0.995 -3.4638  0.8068 -0.0788
  768MOL0     H 3618   5.148   6.035   1.148 -3.0754 -0.6687 -0.3662
  768MOL0     H 3619   5.013   6.178   1.274  1.2188 -3.0962 -1.3951
  768MOL0     H 3620   5.024   6.307   1.156  0.7421  0.7068 -5.7219
  768MOL0     H 3621   4.869   6.161   1.003  0.6451 -1.8543 -1.5675
  768MOL0     H 3622   4.908   6.027   1.108  1.6497  1.0775 -0.3565
  768MOL0     H 3623   4.677   6.133   1.121  1.6666  3.9367 -3.5615
  768MOL0     H 3624   4.762   6.108   1.285  0.9643  2.4361  2.9475
  768MOL0     H 3625   4.735   6.370   1.128  2.4007 -0.4793  0.0297
  768MOL0     H 3626   4.603   6.320   1.236 -0.1440 -2.7048  0.4594
  768MOL0     H 3627   4.765   6.298   1.433 -0.4048  1.8246  1.0613
  768MOL0     H 3628   4.889   6.349   1.339  0.2107  3.4702  0.3496
  768MOL0     H 3629   4.790   6.531   1.467 -0.1742  0.8682 -0.3568
  768MOL0     H 3630   4.634   6.522   1.380 -0.7788  0.4023  0.5329
  768MOL0     H 3631   4.617   6.663   1.159 -0.9603  0.4883  4.2729
  768MOL0     H 3632   4.840   6.931   1.013  1.0341 -0.9497  2.1101
  768MOL0     H 3633   4.823   6.803   0.892 -2.6766 -0.4908 -1.2954
  768MOL0     H 3634   4.590   6.918   1.045  1.6340  3.9155 -0.1662
  768MOL0     H 3635   4.591   6.781   0.922 -1.0951 -0.2633  0.1188
  768MOL0     H 3636   4.718   6.986   0.789  2.0024 -0.6642  2.2486
  768MOL0     H 3637   4.671   7.085   0.927 -1.3577  1.0350 -0.7994
  768MOL0     H 3638   4.483   6.939   0.736  0.3732  0.3782  0.6785
  768MOL0     H 3639   4.500   7.119   0.743 -1.5642  1.5482  1.3132
  768MOL0     H 3640   4.259   7.023   0.671 -1.5561 -2.7145 -0.4592
  768MOL0     H 3641   3.922   7.022   0.576 -0.4953  1.6440 -1.5128
  768MOL0     H 3642   4.053   7.137   0.552 -1.1285  1.1097  0.6059
  768MOL0     H 3643   4.084   6.959   0.557  0.7269  0.4067 -0.0702
  768MOL0     H 3644   3.638   6.831   1.076  4.2310  3.2855 -2.6933
  768MOL0     H 3645   3.382   6.785   1.082  0.8021  0.4607  0.8365
  768MOL0     H 3646   3.122   6.746   0.987 -2.2998  0.8767  0.2911
  768MOL0     H 3647   3.156   6.906   1.068 -0.8713 -0.3230  0.9755
  768MOL0     H 3648   3.000   7.006   0.925 -0.2339  0.3401  1.2570
  768MOL0     H 3649   2.965   6.839   0.841 -1.7908 -1.7912  1.5142
  768MOL0     H 3650   2.878   6.747   1.035  0.9125  0.5299  1.9818
  768MOL0     H 3651   2.792   6.898   1.020  0.6002  3.4514  4.6343
  768MOL0     H 3652   3.008   6.901   1.236 -0.2955 -1.0547  1.5090
  768MOL0     H 3653   2.877   7.010   1.183  1.7734 -0.8633 -3.3772
  768MOL0     H 3654   2.866   6.727   1.309  0.3779 -0.0252  1.4932
  768MOL0     H 3655   2.720   6.811   1.261 -1.2727  1.7334  2.3871
  768MOL0     H 3656   2.750   6.845   1.492 -0.2837  1.3622  0.9275
  768MOL0     H 3657   2.909   6.914   1.486 -0.9786  3.0335  1.2484
  768MOL0     H 3658   2.686   7.040   1.330  0.9804 -0.7717 -1.1405
  768MOL0     H 3659   2.834   7.112   1.386  1.0415 -0.8689  0.1457
  768MOL0     H 3660   2.588   7.027   1.548 -0.1809 -0.3725  0.9307
  768MOL0     H 3661   2.672   7.181   1.531  1.2427  0.0360 -0.8871
  768MOL0     H 3662   3.368   6.992   0.692 -1.0727 -0.5392 -0.1937
  768MOL0     H 3663   3.611   7.038   0.710  0.7992  0.1606  0.1336
  768MOL0     H 3664   4.000   7.063   1.085 -0.6175 -4.9850  0.3594
  768MOL0     H 3665   4.229   7.040   1.101 -1.2118  0.8079  0.4996
  768MOL0     H 3666   5.497   6.347   1.077 -1.4504 -2.6482 -0.3899
  768MOL0     H 3667   5.741   6.333   1.090  1.4516  0.3258 -0.1382
  768MOL0     H 3668   6.150   6.539   1.270 -2.1368 -0.6969  0.1222
  768MOL0     H 3669   6.373   6.552   1.396  0.2386  0.3716  0.1633
  768MOL0     H 3670   6.568   6.310   1.707  0.5288  2.7138 -1.5997
  768MOL0     H 3671   6.423   6.230   1.683 -0.0120 -1.1588 -0.0942
  768MOL0     H 3672   6.537   6.096   1.500  0.0958 -0.8967  0.3741
  768MOL0     H 3673   6.621   6.087   1.654 -0.6239  3.2798  2.8713
  768MOL0     H 3674   6.791   6.258   1.584  1.3204  0.4418 -2.1704
  768MOL0     H 3675   6.711   6.286   1.435  0.4573  1.1193  0.9630
  768MOL0     H 3676   6.795   6.088   1.340 -0.1229 -1.3880 -0.6019
  768MOL0     H 3677   6.774   5.997   1.489  1.8865  0.2677  1.2780
  768MOL0     H 3678   7.161   6.193   1.462 -0.2886  0.4932 -1.8115
  768MOL0     H 3679   6.316   6.137   1.495 -2.3487 -1.2264  0.2690
  768MOL0     H 3680   6.104   6.126   1.367 -1.6428 -0.0354  3.4324
  769MOL0     O 3681   0.539   6.147   3.734 -0.6199 -0.0855 -0.3624
  769MOL0     C 3682   0.643   6.172   3.673  0.4605 -0.0495  0.1557
  769MOL0     O 3683   0.768   6.106   3.682  0.4124  0.1980  0.2226
  769MOL0     C 3684   0.800   6.011   3.775 -0.4416  0.3370 -0.7418
  769MOL0     C 3685   0.713   5.928   3.850 -0.4964 -0.1443  0.1531
  769MOL0     C 3686   0.767   5.835   3.941 -0.3909 -0.9909 -0.1998
  769MOL0     C 3687   0.909   5.814   3.962  0.0456  0.0227  0.2483
  769MOL0     O 3688   0.965   5.744   4.064  0.9366  0.1077 -0.0394
  769MOL0     C 3689   0.881   5.691   4.167 -0.8051  0.0549  0.5125
  769MOL0     C 3690   0.907   5.540   4.170 -0.2694 -0.2622 -0.3242
  769MOL0     C 3691   0.822   5.484   4.057  0.5814  0.4561  0.4447
  769MOL0     C 3692   0.868   5.341   4.029  0.8145 -0.4887  0.4726
  769MOL0     C 3693   0.775   5.236   4.082 -0.6261  0.5445  0.6270
  769MOL0     C 3694   0.803   5.091   4.065  0.5495  0.1841  1.0121
  769MOL0     C 3695   0.708   4.989   4.126  0.0465 -0.1763  0.2369
  769MOL0     C 3696   0.561   5.002   4.089  0.2616  0.8658  0.0577
  769MOL0     N 3697   0.486   4.887   4.133  0.0218 -0.0335 -0.0115
  769MOL0     C 3698   0.428   4.875   4.256 -0.6988  0.5047  0.1442
  769MOL0     C 3699   0.384   4.747   4.266  0.1462  0.6885 -0.0314
  769MOL0     C 3700   0.309   4.685   4.391 -0.1174  0.3310 -0.5281
  769MOL0     C 3701   0.225   4.797   4.458 -0.6377  1.5065 -0.3400
  769MOL0     C 3702   0.091   4.751   4.506 -0.6438  0.0158 -0.5446
  769MOL0     C 3703  -0.002   4.872   4.542 -0.7265  0.6600 -0.0162
  769MOL0     O 3704   0.024   4.930   4.667  0.1416  0.2232  0.5900
  769MOL0     C 3705  -0.049   5.041   4.704  0.1778 -0.2143 -0.4038
  769MOL0     C 3706  -0.040   5.077   4.838  1.2624  0.7979 -0.2195
  769MOL0     C 3707  -0.099   5.186   4.894 -0.2876  0.5507  0.7348
  769MOL0     C 3708  -0.074   5.196   5.038 -0.9366  0.4688 -0.7683
  769MOL0     C 3709  -0.176   5.268   4.805 -0.0796  0.2586 -0.6095
  769MOL0     C 3710  -0.241   5.395   4.850  0.0785 -0.8210  0.6862
  769MOL0     O 3711  -0.271   5.485   4.753 -0.4688 -0.2194 -0.6078
  769MOL0     C 3712  -0.346   5.597   4.762  0.0272 -0.0489  0.2856
  769MOL0     C 3713  -0.405   5.642   4.641  0.0735 -0.1169  0.4720
  769MOL0     C 3714  -0.475   5.758   4.630 -0.0426 -1.4408  0.7666
  769MOL0     C 3715  -0.504   5.836   4.745  0.1812  0.2914  0.6081
  769MOL0     O 3716  -0.587   5.941   4.754 -0.1817 -0.0078  0.1067
  769MOL0     C 3717  -0.629   6.003   4.630 -0.3812  0.7764 -0.3054
  769MOL0     C 3718  -0.685   6.140   4.654  0.2434 -0.8226 -0.1960
  769MOL0     C 3719  -0.792   6.163   4.760  0.6552  1.1618  0.2958
  769MOL0     C 3720  -0.866   6.297   4.740 -0.1060 -0.8007 -0.2999
  769MOL0     C 3721  -0.800   6.402   4.826 -0.6936 -0.3356 -0.3020
  769MOL0     C 3722  -0.885   6.522   4.882  0.6772 -0.0485  0.0238
  769MOL0     C 3723  -0.959   6.587   4.768 -0.2039  1.1878  0.7870
  769MOL0     C 3724  -0.995   6.721   4.833 -0.8467 -0.0253 -0.3376
  769MOL0    Cl 3725  -1.120   6.710   4.962 -0.4072 -0.2654 -0.5108
  769MOL0     C 3726  -0.435   5.799   4.863  0.1499  0.3093 -0.2158
  769MOL0     C 3727  -0.368   5.676   4.877 -0.9887 -0.0117 -0.8590
  769MOL0     O 3728  -0.278   5.408   4.971  0.4899  0.0592  1.1554
  769MOL0     C 3729  -0.177   5.238   4.667  0.0963  1.6978 -0.0191
  769MOL0     C 3730  -0.132   5.121   4.625  0.0502  0.5985 -0.1724
  769MOL0     N 3731   0.416   4.687   4.140  0.8505 -0.6456  0.7275
  769MOL0     N 3732   0.474   4.775   4.062 -0.9180  0.7836  0.0775
  769MOL0     C 3733   0.990   5.904   3.894 -0.2310 -1.2214 -0.0993
  769MOL0     C 3734   0.936   6.002   3.800 -0.0121 -0.3584  0.1518
  769MOL0     C 3735   0.638   6.285   3.574  0.6494 -0.0286  0.2838
  769MOL0     C 3736   0.516   6.337   3.525  0.4604 -0.7314 -0.0429
  769MOL0     C 3737   0.516   6.431   3.419 -0.0817  0.0228 -0.2792
  769MOL0     C 3738   0.639   6.462   3.371 -0.0831  1.0376 -0.0787
  769MOL0     O 3739   0.639   6.547   3.263 -0.0736 -0.7557  0.4755
  769MOL0     C 3740   0.580   6.675   3.276  0.0882 -0.1056  0.6940
  769MOL0     C 3741   0.623   6.738   3.402 -0.4367 -0.4888  0.7798
  769MOL0     C 3742   0.626   6.888   3.401 -0.1472 -0.3148  0.2987
  769MOL0     C 3743   0.487   6.952   3.385  0.8895  1.0495  0.3454
  769MOL0     C 3744   0.494   7.095   3.411 -0.7692  0.2802 -0.6752
  769MOL0     C 3745   0.470   7.209   3.448  0.2464 -0.5012  0.1968
  769MOL0     C 3746   0.757   6.421   3.420  0.2403 -1.1894  0.1744
  769MOL0     C 3747   0.760   6.332   3.523 -0.3659  0.6991 -0.5941
  769MOL0     H 3748   0.605   5.940   3.851 -0.5614 -0.4391 -1.0263
  769MOL0     H 3749   0.700   5.771   3.996 -0.1590 -0.1336  1.1189
  769MOL0     H 3750   0.917   5.735   4.260 -1.7288 -1.6187  1.7196
  769MOL0     H 3751   0.776   5.721   4.164 -0.3822  1.5869 -1.4437
  769MOL0     H 3752   1.012   5.511   4.178  0.2066  1.2486 -0.6755
  769MOL0     H 3753   0.853   5.515   4.262 -2.3150  1.7276 -0.8958
  769MOL0     H 3754   0.714   5.494   4.071  0.6800  1.7291  0.3677
  769MOL0     H 3755   0.831   5.540   3.964 -4.1262 -0.1536 -0.6490
  769MOL0     H 3756   0.870   5.327   3.921  2.5232  1.9794  0.1039
  769MOL0     H 3757   0.968   5.325   4.070  1.3365  0.8885 -0.1985
  769MOL0     H 3758   0.747   5.251   4.186  1.2140  2.8962  0.8619
  769MOL0     H 3759   0.688   5.262   4.019  1.1916  3.1895 -1.0313
  769MOL0     H 3760   0.807   5.070   3.958 -0.8856 -2.2261  1.3486
  769MOL0     H 3761   0.907   5.065   4.088  0.6554  1.1576  1.7172
  769MOL0     H 3762   0.752   4.898   4.084  1.1137  0.0850  0.7452
  769MOL0     H 3763   0.722   4.984   4.235 -0.2222  0.9205  0.3350
  769MOL0     H 3764   0.554   5.010   3.980 -0.8648  0.3957  0.0821
  769MOL0     H 3765   0.523   5.094   4.135 -0.1490 -0.4710  2.5705
  769MOL0     H 3766   0.423   4.944   4.339 -1.2833  0.2828  0.2941
  769MOL0     H 3767   0.253   4.592   4.376  1.9372 -1.0606  0.1455
  769MOL0     H 3768   0.395   4.664   4.454 -1.8743 -0.5341  1.6918
  769MOL0     H 3769   0.205   4.881   4.390 -0.9077  1.9799  0.3104
  769MOL0     H 3770   0.283   4.834   4.543 -1.4723  0.9827  0.4755
  769MOL0     H 3771   0.095   4.693   4.599 -2.3182  2.9217  1.5006
  769MOL0     H 3772   0.051   4.700   4.418  1.2245  1.1310 -2.1211
  769MOL0     H 3773  -0.107   4.839   4.539 -0.8307  0.7724  1.4362
  769MOL0     H 3774   0.012   4.952   4.469  0.4168 -1.9602 -2.8821
  769MOL0     H 3775   0.033   5.015   4.888 -0.3105 -0.6597  0.3584
  769MOL0     H 3776  -0.164   5.226   5.093 -0.0927  3.1004 -0.6975
  769MOL0     H 3777  -0.030   5.105   5.079 -0.9803  0.5488 -0.5383
  769MOL0     H 3778   0.003   5.273   5.052 -0.3293  0.3289 -2.9921
  769MOL0     H 3779  -0.388   5.581   4.553  0.0564 -0.1438  0.4870
  769MOL0     H 3780  -0.527   5.784   4.538 -2.2680  1.6304  2.6881
  769MOL0     H 3781  -0.544   6.003   4.562 -0.9441  2.2074 -1.0400
  769MOL0     H 3782  -0.711   5.940   4.595 -2.4161  1.9567  2.0004
  769MOL0     H 3783  -0.599   6.205   4.674  0.0676 -1.2867  2.4419
  769MOL0     H 3784  -0.716   6.185   4.559  1.7065 -1.8307 -1.2078
  769MOL0     H 3785  -0.758   6.159   4.863 -0.3797  1.9201  0.6847
  769MOL0     H 3786  -0.861   6.078   4.748  2.3368 -0.0015 -2.1276
  769MOL0     H 3787  -0.864   6.326   4.635 -2.6463 -4.7684 -1.6667
  769MOL0     H 3788  -0.975   6.288   4.752 -0.2873  1.7669  0.6705
  769MOL0     H 3789  -0.717   6.436   4.764 -1.1990  2.1531  0.2829
  769MOL0     H 3790  -0.757   6.355   4.915 -1.0601 -2.1825 -1.0528
  769MOL0     H 3791  -0.972   6.486   4.939  0.5576 -1.3420 -0.9440
  769MOL0     H 3792  -0.816   6.575   4.949  0.6570 -0.6793  0.5620
  769MOL0     H 3793  -1.048   6.532   4.736  0.8422  0.4415 -1.0039
  769MOL0     H 3794  -0.890   6.593   4.683  1.7042 -4.5985  1.4799
  769MOL0     H 3795  -1.051   6.775   4.756 -1.9649 -0.5120  0.1086
  769MOL0     H 3796  -0.905   6.769   4.872 -0.3863  0.1786 -1.6128
  769MOL0     H 3797  -0.446   5.855   4.955 -2.3060  2.0077 -1.4610
  769MOL0     H 3798  -0.329   5.661   4.977 -0.5865  0.4553 -0.9391
  769MOL0     H 3799  -0.228   5.293   4.588 -0.8954 -1.3075 -1.6286
  769MOL0     H 3800  -0.149   5.098   4.520  0.7695 -1.5940  0.1449
  769MOL0     H 3801   1.096   5.898   3.913  0.2487  3.5550 -0.0586
  769MOL0     H 3802   1.008   6.068   3.751 -0.5264  1.0030  1.1706
  769MOL0     H 3803   0.417   6.311   3.561  0.7727 -0.9394  0.6861
  769MOL0     H 3804   0.419   6.465   3.385 -0.7602  0.7111  2.1193
  769MOL0     H 3805   0.607   6.733   3.187 -0.3023 -0.6103  0.2474
  769MOL0     H 3806   0.471   6.664   3.275  0.3207 -2.9761 -0.7850
  769MOL0     H 3807   0.725   6.708   3.423 -0.2768 -2.2000 -1.9692
  769MOL0     H 3808   0.555   6.693   3.475 -3.2468 -1.5548 -2.2244
  769MOL0     H 3809   0.698   6.928   3.329 -0.1165  0.6747  0.8495
  769MOL0     H 3810   0.658   6.912   3.503 -1.3331  0.3943  0.5304
  769MOL0     H 3811   0.406   6.908   3.445 -0.3555  1.3727 -1.0427
  769MOL0     H 3812   0.461   6.935   3.280 -1.3556 -1.2633  1.1508
  769MOL0     H 3813   0.463   7.311   3.480  2.8931 -0.8382  2.2004
  769MOL0     H 3814   0.854   6.449   3.379  0.8485  0.8313  2.7806
  769MOL0     H 3815   0.857   6.297   3.559 -0.7230  0.8304  0.5598
  770MOL0     O 3816   1.384   1.707   8.267  0.3428 -0.8233  0.0381
  770MOL0     C 3817   1.361   1.769   8.376  0.5150  0.1039  0.7134
  770MOL0     O 3818   1.453   1.777   8.477  0.2588  0.4330  0.1469
  770MOL0     C 3819   1.583   1.739   8.448 -0.5668 -0.2915 -0.3704
  770MOL0     C 3820   1.680   1.836   8.407  0.7978  0.5746 -0.2632
  770MOL0     C 3821   1.800   1.791   8.352 -0.2488 -0.4675 -0.5923
  770MOL0     C 3822   1.826   1.651   8.335  1.2337 -0.1762  0.3189
  770MOL0     O 3823   1.943   1.605   8.285 -0.5347 -0.3603 -0.1566
  770MOL0     C 3824   1.999   1.477   8.321  0.4236 -0.4690 -0.4243
  770MOL0     C 3825   2.150   1.481   8.295 -0.5256  0.0655 -1.3469
  770MOL0     C 3826   2.203   1.339   8.318 -0.2547 -0.4302 -0.5237
  770MOL0     C 3827   2.355   1.325   8.301  0.0363 -0.9979 -0.0921
  770MOL0     C 3828   2.418   1.192   8.317 -0.4859 -0.1724 -0.2032
  770MOL0     C 3829   2.572   1.193   8.321  0.8497 -1.0034 -0.4041
  770MOL0     C 3830   2.646   1.329   8.292  0.8688  0.4709 -0.5882
  770MOL0     C 3831   2.799   1.317   8.299  0.7132  0.2603  0.2656
  770MOL0     N 3832   2.863   1.200   8.237 -0.1081 -0.4148  0.0131
  770MOL0     C 3833   2.917   1.186   8.111  0.4417 -1.1472 -0.4499
  770MOL0     C 3834   2.999   1.079   8.118 -0.5934  0.4457 -0.5496
  770MOL0     C 3835   3.098   1.033   8.004  0.2635 -0.0620  0.6379
  770MOL0     C 3836   3.240   1.022   8.057  1.0055  0.1693  0.9244
  770MOL0     C 3837   3.347   1.040   7.967 -1.3955 -0.2309 -0.6494
  770MOL0     C 3838   3.491   1.022   8.027 -0.2431 -0.0456 -0.8135
  770MOL0     O 3839   3.489   0.892   8.094 -0.0137  0.0644  0.7120
  770MOL0     C 3840   3.611   0.832   8.122 -0.1217 -0.6002  0.3524
  770MOL0     C 3841   3.738   0.909   8.128  0.3522  0.3386  0.2205
  770MOL0     C 3842   3.865   0.842   8.160 -0.5677 -1.0209  1.2356
  770MOL0     C 3843   3.991   0.930   8.145 -0.1844 -0.1732  0.3326
  770MOL0     C 3844   3.869   0.701   8.181  0.0052  0.7130 -1.1015
  770MOL0     C 3845   3.992   0.628   8.183 -0.7660 -0.0943  1.0052
  770MOL0     O 3846   3.996   0.511   8.124 -0.3813 -0.0052  0.1473
  770MOL0     C 3847   4.113   0.439   8.111  0.8680 -0.1225 -0.7282
  770MOL0     C 3848   4.107   0.301   8.132  0.5109  0.1194  0.0911
  770MOL0     C 3849   4.219   0.216   8.115  0.7838  0.1724  0.7544
  770MOL0     C 3850   4.342   0.275   8.072  0.4299 -1.3648  1.0974
  770MOL0     O 3851   4.451   0.189   8.058 -0.5249 -0.1236  0.2499
  770MOL0     C 3852   4.536   0.214   7.943  0.0285  0.5567  0.2406
  770MOL0     C 3853   4.674   0.251   8.014  1.2066 -0.2569  0.0230
  770MOL0     C 3854   4.783   0.274   7.905 -0.5558  0.0604 -0.2802
  770MOL0     C 3855   4.926   0.285   7.960 -0.3321  1.0238  0.5925
  770MOL0     C 3856   4.960   0.417   8.026 -0.1330  0.2597  0.2782
  770MOL0     C 3857   5.110   0.431   8.064 -0.2996 -0.1639 -0.3468
  770MOL0     C 3858   5.161   0.321   8.162 -0.2846 -0.2656 -0.5378
  770MOL0     C 3859   5.315   0.342   8.184  0.6686  0.1141 -0.2047
  770MOL0    Cl 3860   5.367   0.204   8.289 -0.1468  0.1195 -0.1767
  770MOL0     C 3861   4.340   0.423   8.052  0.5232 -0.0397  0.2183
  770MOL0     C 3862   4.221   0.494   8.058  0.2043 -0.0715  0.6230
  770MOL0     O 3863   4.082   0.671   8.249 -0.4764 -0.0848 -0.1493
  770MOL0     C 3864   3.749   0.632   8.169  0.2599 -0.3850  0.0892
  770MOL0     C 3865   3.620   0.692   8.153  0.3658 -0.5785  1.5074
  770MOL0     N 3866   2.992   1.015   8.243  0.4459 -0.1539 -0.6736
  770MOL0     N 3867   2.914   1.097   8.314 -0.5106 -0.1493 -0.1548
  770MOL0     C 3868   1.729   1.559   8.377 -0.0241 -0.4737  0.1098
  770MOL0     C 3869   1.611   1.606   8.439 -0.0441  0.9506 -0.8438
  770MOL0     C 3870   1.220   1.799   8.401  1.0578 -0.5897 -0.2324
  770MOL0     C 3871   1.188   1.832   8.542  1.0105 -0.2739 -0.6483
  770MOL0     C 3872   1.058   1.843   8.578  0.3929 -0.1008  0.4586
  770MOL0     C 3873   0.958   1.809   8.486  0.0457 -0.8958 -0.0142
  770MOL0     O 3874   0.825   1.786   8.517 -0.6672 -0.2352  0.5216
  770MOL0     C 3875   0.787   1.776   8.652 -0.3859  0.3505 -0.8169
  770MOL0     C 3876   0.641   1.770   8.678 -0.6151 -0.1674 -0.0049
  770MOL0     C 3877   0.594   1.797   8.824 -0.9531  0.5288 -0.2608
  770MOL0     C 3878   0.623   1.686   8.936  0.0090 -0.3915 -0.3407
  770MOL0     C 3879   0.587   1.744   9.067  0.0652  0.2781  0.2188
  770MOL0     C 3880   0.547   1.796   9.171  0.1117  0.2382  0.3064
  770MOL0     C 3881   0.992   1.774   8.354 -0.4363 -0.4465  0.3592
  770MOL0     C 3882   1.120   1.776   8.307  0.1765  0.2875  0.0160
  770MOL0     H 3883   1.653   1.941   8.397 -2.2974  0.0307  1.2583
  770MOL0     H 3884   1.880   1.860   8.326  0.9068 -1.4299  0.2585
  770MOL0     H 3885   1.987   1.455   8.427 -2.6858  4.6626  0.6383
  770MOL0     H 3886   1.942   1.403   8.264 -0.4068  1.1665 -1.8262
  770MOL0     H 3887   2.177   1.523   8.198  2.9208 -1.2884 -1.1154
  770MOL0     H 3888   2.188   1.551   8.371  0.8293 -1.5508 -0.4622
  770MOL0     H 3889   2.178   1.306   8.420 -1.4229 -4.8228 -2.0395
  770MOL0     H 3890   2.151   1.269   8.253 -1.0238  1.3770 -1.9225
  770MOL0     H 3891   2.382   1.372   8.206 -1.2586 -1.9271 -0.9655
  770MOL0     H 3892   2.395   1.386   8.382 -1.6593  0.2502 -0.1361
  770MOL0     H 3893   2.378   1.142   8.406 -0.4363  2.7256  1.5642
  770MOL0     H 3894   2.388   1.136   8.228  0.4414  2.0909 -2.0275
  770MOL0     H 3895   2.605   1.150   8.416 -1.0467 -1.7714 -0.0547
  770MOL0     H 3896   2.603   1.131   8.236  0.1513 -2.1431  0.1414
  770MOL0     H 3897   2.612   1.362   8.193  0.2960 -3.3556 -1.8345
  770MOL0     H 3898   2.612   1.398   8.369  1.2349 -0.6102  0.5656
  770MOL0     H 3899   2.823   1.305   8.405 -0.8328  3.1119  1.0476
  770MOL0     H 3900   2.838   1.412   8.259 -1.0278  1.0194  0.2913
  770MOL0     H 3901   2.914   1.263   8.034  0.9370 -0.6094  0.0594
  770MOL0     H 3902   3.069   0.939   7.955 -1.0485  1.2042 -1.1532
  770MOL0     H 3903   3.097   1.112   7.928 -0.5719 -0.7525 -0.1007
  770MOL0     H 3904   3.240   0.922   8.101 -1.7441 -0.6146 -0.6392
  770MOL0     H 3905   3.253   1.102   8.130 -2.7214  1.5300  0.3126
  770MOL0     H 3906   3.347   1.141   7.924 -0.3975 -1.0067 -2.5956
  770MOL0     H 3907   3.335   0.967   7.886 -2.8993 -0.4746 -0.2400
  770MOL0     H 3908   3.517   1.105   8.093  1.9504  1.1356 -2.9875
  770MOL0     H 3909   3.559   1.023   7.941 -1.7372  0.2167 -2.0550
  770MOL0     H 3910   3.749   1.017   8.121  3.4000  0.1539  0.7418
  770MOL0     H 3911   4.066   0.876   8.086 -0.5401 -0.8622  0.4955
  770MOL0     H 3912   3.953   1.026   8.110 -0.3898 -0.1888  0.5157
  770MOL0     H 3913   4.040   0.947   8.241  1.3941 -2.2751 -0.0162
  770MOL0     H 3914   4.011   0.260   8.163  0.9539 -0.5176  0.6603
  770MOL0     H 3915   4.219   0.109   8.136  2.1132 -0.4253 -1.9182
  770MOL0     H 3916   4.549   0.123   7.883 -1.6765  1.2474 -1.2566
  770MOL0     H 3917   4.515   0.295   7.874  3.1378  2.1984  1.0821
  770MOL0     H 3918   4.661   0.343   8.071  0.4728 -1.2611  1.5273
  770MOL0     H 3919   4.698   0.171   8.084 -0.4942  1.5516  2.8329
  770MOL0     H 3920   4.760   0.364   7.847  1.0565 -0.1883 -1.3813
  770MOL0     H 3921   4.790   0.189   7.836  0.9173 -1.9434  2.1652
  770MOL0     H 3922   4.935   0.200   8.028  0.2459 -0.5117 -1.3062
  770MOL0     H 3923   5.002   0.279   7.881 -0.1304  1.0186  0.7871
  770MOL0     H 3924   4.902   0.417   8.119 -0.5952 -0.5629  0.0050
  770MOL0     H 3925   4.933   0.498   7.958 -0.9155  0.1767  0.4778
  770MOL0     H 3926   5.167   0.444   7.972 -0.6804  2.0909 -0.3275
  770MOL0     H 3927   5.131   0.531   8.105  1.0925 -0.0932 -1.1791
  770MOL0     H 3928   5.132   0.220   8.133 -1.4209  0.0849 -0.6921
  770MOL0     H 3929   5.108   0.327   8.257 -0.3029 -3.7643 -0.1998
  770MOL0     H 3930   5.337   0.447   8.205  0.9867  0.3386 -1.5467
  770MOL0     H 3931   5.362   0.338   8.085  1.2086 -0.9302  0.0846
  770MOL0     H 3932   4.429   0.466   8.007  0.2586 -1.3640 -1.6740
  770MOL0     H 3933   4.230   0.599   8.031 -2.8386  0.5251  1.5589
  770MOL0     H 3934   3.748   0.523   8.173 -3.2241 -0.4267  3.5459
  770MOL0     H 3935   3.536   0.624   8.146  1.2864 -1.6291 -0.0269
  770MOL0     H 3936   1.750   1.453   8.375  2.0354 -0.1012 -0.0326
  770MOL0     H 3937   1.528   1.540   8.461  0.7685  0.5157  1.1258
  770MOL0     H 3938   1.264   1.846   8.618  1.0619  0.1788 -0.7813
  770MOL0     H 3939   1.039   1.859   8.684  1.0289 -0.2949  0.6013
  770MOL0     H 3940   0.819   1.684   8.700  0.8337  0.8568 -0.6350
  770MOL0     H 3941   0.833   1.859   8.707 -0.4695 -0.5771  0.6988
  770MOL0     H 3942   0.594   1.677   8.646 -0.3988 -0.8018  1.4371
  770MOL0     H 3943   0.599   1.855   8.623  2.5270 -0.7059 -3.6546
  770MOL0     H 3944   0.485   1.808   8.821 -0.8618  1.6965  0.0510
  770MOL0     H 3945   0.623   1.892   8.870  1.8724 -0.1016 -0.5375
  770MOL0     H 3946   0.729   1.659   8.928  0.2119  0.2797  0.0734
  770MOL0     H 3947   0.556   1.604   8.907 -0.8578  1.3008 -3.6521
  770MOL0     H 3948   0.522   1.821   9.272 -0.9457  1.6107 -0.2586
  770MOL0     H 3949   0.917   1.745   8.281 -1.3516 -0.0896  1.1445
  770MOL0     H 3950   1.127   1.755   8.201 -1.2353  1.3821 -0.3315
  771MOL0     O 3951  11.116   3.759   9.483 -0.0478  0.8342  0.0218
  771MOL0     C 3952  11.156   3.838   9.404  0.0871 -0.7610  0.3967
  771MOL0     O 3953  11.067   3.928   9.334  0.6557  0.4665 -0.9582
  771MOL0     C 3954  10.936   3.921   9.348  0.1951 -0.3446 -0.3307
  771MOL0     C 3955  10.865   3.923   9.475 -0.6643 -0.0904  0.8348
  771MOL0     C 3956  10.732   3.910   9.492 -0.0568 -0.3664 -0.3528
  771MOL0     C 3957  10.653   3.882   9.382  0.4679  0.3032  1.4598
  771MOL0     O 3958  10.515   3.872   9.401  0.1977 -0.1453 -0.0273
  771MOL0     C 3959  10.440   3.812   9.289  0.3282  0.1395  0.2238
  771MOL0     C 3960  10.307   3.758   9.347 -0.0547 -0.4425  0.7639
  771MOL0     C 3961  10.250   3.665   9.231 -0.3967 -0.0836 -0.5382
  771MOL0     C 3962  10.101   3.666   9.238 -0.6457 -0.0001 -0.9419
  771MOL0     C 3963  10.016   3.611   9.119  0.7210 -0.1063 -0.2475
  771MOL0     C 3964   9.883   3.691   9.101 -0.3687  0.2608  0.4105
  771MOL0     C 3965   9.812   3.639   8.976 -0.1366 -0.3821 -0.5739
  771MOL0     C 3966   9.741   3.500   9.005  0.6816 -0.2254  1.3734
  771MOL0     N 3967   9.623   3.525   9.097  0.0081  0.8629  0.1057
  771MOL0     C 3968   9.529   3.619   9.076  0.0439  0.5377  0.6105
  771MOL0     C 3969   9.498   3.659   9.199  1.1425 -1.2647  0.1429
  771MOL0     C 3970   9.392   3.767   9.220  0.1118  0.3964  0.2489
  771MOL0     C 3971   9.262   3.704   9.270 -1.0305  0.4789 -0.0649
  771MOL0     C 3972   9.274   3.661   9.412  0.6797  0.1117 -1.0327
  771MOL0     C 3973   9.146   3.610   9.466  0.7748 -0.5868 -0.9168
  771MOL0     O 3974   9.096   3.493   9.408  0.4552  0.2797 -0.8360
  771MOL0     C 3975   8.973   3.454   9.463  1.1879 -0.5086 -0.2092
  771MOL0     C 3976   8.923   3.470   9.596  0.3831  0.2047  0.2341
  771MOL0     C 3977   8.798   3.411   9.648 -0.4098  0.4658 -0.5057
  771MOL0     C 3978   8.758   3.444   9.792  0.1037  0.7133  0.2171
  771MOL0     C 3979   8.715   3.336   9.557 -0.0774 -0.9689  0.2554
  771MOL0     C 3980   8.584   3.280   9.592 -0.0820  0.6155 -0.4724
  771MOL0     O 3981   8.527   3.313   9.705 -0.3842 -0.7614  0.4749
  771MOL0     C 3982   8.401   3.268   9.730  0.7045 -1.9319  0.3524
  771MOL0     C 3983   8.296   3.323   9.664 -0.5338 -1.3363 -0.3887
  771MOL0     C 3984   8.165   3.279   9.691  0.4795  0.7456 -0.3068
  771MOL0     C 3985   8.147   3.171   9.782  0.0475 -0.1191  0.5397
  771MOL0     O 3986   8.013   3.116   9.791 -0.5305 -0.4494  0.1208
  771MOL0     C 3987   7.993   2.986   9.866  0.0235 -0.8736 -0.7493
  771MOL0     C 3988   7.861   2.944   9.825  0.3281  0.8004 -0.2741
  771MOL0     C 3989   7.846   2.795   9.864  0.3158  0.6483  0.1110
  771MOL0     C 3990   7.820   2.779  10.015  0.2542  0.3720  0.1513
  771MOL0     C 3991   7.862   2.634  10.073  0.2260 -0.6907  0.4377
  771MOL0     C 3992   7.742   2.544  10.039  0.5932 -0.9403 -0.6708
  771MOL0     C 3993   7.762   2.399  10.076  0.2703  0.0772 -1.3166
  771MOL0     C 3994   7.679   2.304   9.995 -0.2678  0.2366  0.4587
  771MOL0    Cl 3995   7.515   2.315  10.058  0.2534 -0.1476 -0.5729
  771MOL0     C 3996   8.257   3.125   9.854 -0.0997  0.7158 -0.4899
  771MOL0     C 3997   8.382   3.178   9.832  0.0073  0.5674  0.1196
  771MOL0     O 3998   8.529   3.207   9.510 -0.6047 -0.5651  0.0827
  771MOL0     C 3999   8.770   3.306   9.433 -0.1282 -0.3330 -0.4756
  771MOL0     C 4000   8.892   3.365   9.389 -0.4976  0.8978  0.6774
  771MOL0     N 4001   9.568   3.581   9.287  0.7179  0.0019  0.1818
  771MOL0     N 4002   9.643   3.492   9.225 -0.2731 -0.6540  0.1226
  771MOL0     C 4003  10.719   3.868   9.259 -0.4333  0.8205 -0.9055
  771MOL0     C 4004  10.852   3.902   9.241 -0.0044 -1.1706  0.0451
  771MOL0     C 4005  11.305   3.852   9.396  0.2381  0.5661  0.4915
  771MOL0     C 4006  11.389   3.790   9.493  0.4674  0.3867 -0.9966
  771MOL0     C 4007  11.526   3.792   9.469 -0.5287  1.1107  0.0285
  771MOL0     C 4008  11.590   3.859   9.372  0.0685 -0.9138 -0.9219
  771MOL0     O 4009  11.731   3.870   9.373  0.4343  0.0110 -0.2931
  771MOL0     C 4010  11.793   3.976   9.302 -1.0397  0.0295  0.8149
  771MOL0     C 4011  11.939   4.004   9.350 -0.6857 -0.6184  0.1501
  771MOL0     C 4012  11.945   4.050   9.502  0.6904 -0.1433 -0.8537
  771MOL0     C 4013  12.055   4.149   9.522  0.2639 -0.2133 -0.0455
  771MOL0     C 4014  12.192   4.107   9.501  0.1159 -0.8015  0.5988
  771MOL0     C 4015  12.306   4.078   9.489  0.3622  0.0768  0.4828
  771MOL0     C 4016  11.506   3.914   9.272  0.3396  0.1696 -0.6497
  771MOL0     C 4017  11.368   3.911   9.285  0.0724 -0.0846 -0.0924
  771MOL0     H 4018  10.911   3.954   9.568 -0.1409  4.7738 -0.7693
  771MOL0     H 4019  10.691   3.931   9.590  0.4252 -0.7294 -0.0662
  771MOL0     H 4020  10.428   3.882   9.205 -0.7264  2.7549  2.4151
  771MOL0     H 4021  10.495   3.726   9.250 -0.8915 -0.7042  0.3302
  771MOL0     H 4022  10.322   3.695   9.435 -0.2148 -1.0125  0.3944
  771MOL0     H 4023  10.238   3.841   9.363  0.4449  0.2999 -0.7079
  771MOL0     H 4024  10.273   3.699   9.129 -0.9579  1.7486 -0.0916
  771MOL0     H 4025  10.304   3.571   9.242  5.1739  2.3808 -3.0389
  771MOL0     H 4026  10.085   3.611   9.331  0.2393 -0.8072 -1.2598
  771MOL0     H 4027  10.076   3.772   9.252  1.7865  0.6650 -1.2366
  771MOL0     H 4028  10.077   3.612   9.029 -1.5986  1.0542 -1.9077
  771MOL0     H 4029   9.994   3.506   9.143 -2.6475  0.6193  0.4546
  771MOL0     H 4030   9.823   3.707   9.191 -0.8945 -0.6508  0.2351
  771MOL0     H 4031   9.922   3.792   9.089  0.2578  0.0678  0.7865
  771MOL0     H 4032   9.745   3.711   8.928 -2.4014 -3.1897 -1.9884
  771MOL0     H 4033   9.882   3.627   8.893  0.0689  0.1841 -0.4844
  771MOL0     H 4034   9.823   3.442   9.048  1.9855  0.4275 -0.1569
  771MOL0     H 4035   9.710   3.443   8.917  1.4203 -1.1500  1.6941
  771MOL0     H 4036   9.481   3.666   8.991 -2.0307 -0.2679  1.2813
  771MOL0     H 4037   9.424   3.842   9.294  0.3992  0.2664  0.2579
  771MOL0     H 4038   9.375   3.809   9.121 -1.9771  0.3956  0.5641
  771MOL0     H 4039   9.234   3.618   9.209 -0.6130  1.5887 -1.9207
  771MOL0     H 4040   9.180   3.776   9.262 -1.7040 -0.2618  0.0246
  771MOL0     H 4041   9.307   3.743   9.476 -0.2692 -0.6250  0.4677
  771MOL0     H 4042   9.344   3.578   9.421 -1.3033 -1.8018 -2.0980
  771MOL0     H 4043   9.071   3.690   9.457 -0.9553 -2.3431 -3.3965
  771MOL0     H 4044   9.164   3.598   9.573 -2.1269  0.1230 -0.2454
  771MOL0     H 4045   8.984   3.534   9.658  0.9450 -1.1679  1.1486
  771MOL0     H 4046   8.788   3.361   9.857 -0.2062 -1.3059 -2.0953
  771MOL0     H 4047   8.813   3.532   9.827  2.5496 -0.6373 -0.0153
  771MOL0     H 4048   8.652   3.467   9.808 -0.1308  0.6067 -1.0866
  771MOL0     H 4049   8.329   3.400   9.595  0.5915 -0.1824  1.3488
  771MOL0     H 4050   8.082   3.326   9.640 -2.0504 -3.3087 -0.3714
  771MOL0     H 4051   8.073   2.920   9.832  1.0944  1.3539 -2.8984
  771MOL0     H 4052   8.000   3.011   9.972  3.6747 -1.3699 -0.7275
  771MOL0     H 4053   7.793   3.010   9.880  1.3613 -0.9975  3.5359
  771MOL0     H 4054   7.852   2.940   9.716 -4.0049 -1.0139 -0.0550
  771MOL0     H 4055   7.932   2.744   9.820 -1.2403 -0.6999 -1.5325
  771MOL0     H 4056   7.765   2.746   9.809  1.9596  0.3444 -2.2041
  771MOL0     H 4057   7.876   2.855  10.071  1.0515 -0.8497  1.0487
  771MOL0     H 4058   7.716   2.807  10.033  0.0788 -1.2591  1.9010
  771MOL0     H 4059   7.875   2.628  10.181  2.6503 -2.4137  0.1536
  771MOL0     H 4060   7.958   2.613  10.024  0.6520 -0.3488  1.1204
  771MOL0     H 4061   7.659   2.593  10.091  1.9361  0.0047  0.6488
  771MOL0     H 4062   7.710   2.544   9.934 -2.3852  0.0200  0.1405
  771MOL0     H 4063   7.740   2.391  10.183 -1.9687  0.8618 -1.6869
  771MOL0     H 4064   7.866   2.386  10.044  0.0520  2.0255 -3.0144
  771MOL0     H 4065   7.722   2.203   9.994 -0.3589  0.1787  1.5030
  771MOL0     H 4066   7.682   2.333   9.890 -3.2424  0.1476  0.2664
  771MOL0     H 4067   8.234   3.052   9.931  1.1851  1.2893  0.4701
  771MOL0     H 4068   8.472   3.135   9.874 -0.4229  0.9875  1.5289
  771MOL0     H 4069   8.722   3.226   9.376 -3.9998 -1.2903  3.6087
  771MOL0     H 4070   8.936   3.330   9.297 -0.6647 -1.2722  1.3774
  771MOL0     H 4071  10.667   3.864   9.164 -1.0107  0.8961 -0.6000
  771MOL0     H 4072  10.896   3.892   9.142 -0.0944  0.1434 -0.1457
  771MOL0     H 4073  11.358   3.745   9.587  0.8568  1.1895 -0.4711
  771MOL0     H 4074  11.582   3.753   9.554 -2.0409  2.0322  1.5136
  771MOL0     H 4075  11.809   3.940   9.200  2.5148  0.2869  1.1564
  771MOL0     H 4076  11.737   4.070   9.312 -0.2568  0.5322  0.5601
  771MOL0     H 4077  11.985   4.081   9.286  1.6931 -2.6465 -0.7191
  771MOL0     H 4078  12.003   3.919   9.329  1.8173  0.7984  1.5790
  771MOL0     H 4079  11.984   3.969   9.564 -2.3567  0.0509  1.5338
  771MOL0     H 4080  11.849   4.084   9.541  0.8951 -1.7078  1.1910
  771MOL0     H 4081  12.048   4.171   9.629  0.2319 -0.6127  0.0341
  771MOL0     H 4082  12.038   4.234   9.454  3.5880  0.7213  0.1255
  771MOL0     H 4083  12.405   4.036   9.497  1.2683  2.0786  0.2421
  771MOL0     H 4084  11.554   3.965   9.189 -1.1481  3.5398  0.3888
  771MOL0     H 4085  11.302   3.953   9.210 -0.9663 -1.6866 -0.1186
  772MOL0     O 4086   9.818   1.451   9.031 -0.9761 -1.0261 -0.3661
  772MOL0     C 4087   9.893   1.498   8.948  0.0615  0.5637 -0.6057
  772MOL0     O 4088   9.866   1.512   8.824  0.8782  0.4392 -0.2669
  772MOL0     C 4089   9.732   1.489   8.779 -0.0277  0.1318 -0.3267
  772MOL0     C 4090   9.646   1.596   8.732 -0.1405 -0.2006  0.2767
  772MOL0     C 4091   9.514   1.568   8.694  1.0356 -0.3174  0.0844
  772MOL0     C 4092   9.463   1.436   8.708 -0.2335  0.5444 -0.3050
  772MOL0     O 4093   9.331   1.394   8.695  0.2706 -1.5056  0.1445
  772MOL0     C 4094   9.247   1.466   8.612  0.3615  1.0082 -0.5024
  772MOL0     C 4095   9.114   1.395   8.595 -0.1383 -0.3943 -0.4916
  772MOL0     C 4096   9.120   1.256   8.519  0.1850 -0.3468 -0.1350
  772MOL0     C 4097   9.185   1.280   8.380 -0.2944 -0.5676 -0.1847
  772MOL0     C 4098   9.182   1.158   8.298 -0.4041  0.4137 -0.6995
  772MOL0     C 4099   9.046   1.121   8.241 -0.2987 -0.2623 -0.4150
  772MOL0     C 4100   9.046   0.981   8.203 -0.1891 -0.1942  0.1662
  772MOL0     C 4101   8.932   0.899   8.267 -0.2610 -0.2335  0.1891
  772MOL0     N 4102   8.946   0.886   8.413  0.3653  0.8517  0.5484
  772MOL0     C 4103   9.055   0.860   8.494  0.4655 -0.6111 -0.2682
  772MOL0     C 4104   9.008   0.899   8.621  1.0014 -0.4814  0.8781
  772MOL0     C 4105   9.085   0.879   8.740 -0.1309 -0.4911  0.2407
  772MOL0     C 4106   9.141   1.012   8.787 -0.4133  0.2158 -0.8015
  772MOL0     C 4107   9.207   0.997   8.929 -0.2724 -0.0633 -0.3255
  772MOL0     C 4108   9.278   1.124   8.980 -0.0871 -0.2125  0.0101
  772MOL0     O 4109   9.381   1.091   9.076  0.7042 -0.8748 -0.3785
  772MOL0     C 4110   9.510   1.070   9.044 -0.3125 -0.1015  1.0473
  772MOL0     C 4111   9.545   0.988   8.938  0.5116 -0.5019  0.2000
  772MOL0     C 4112   9.682   0.977   8.893  0.2086 -0.0843  0.7012
  772MOL0     C 4113   9.712   0.867   8.792  0.5036 -0.1105  0.5210
  772MOL0     C 4114   9.778   1.057   8.971  0.1050 -0.1169 -0.1803
  772MOL0     C 4115   9.930   1.048   8.940  0.9516 -0.0281  0.3163
  772MOL0     O 4116  10.012   1.113   9.026  0.0899 -0.5753 -0.6403
  772MOL0     C 4117  10.144   1.097   9.001  0.0751  0.4948 -1.0197
  772MOL0     C 4118  10.210   0.983   9.052  0.1726 -0.6904  0.3820
  772MOL0     C 4119  10.343   0.955   9.032 -0.4459  0.2008  0.2870
  772MOL0     C 4120  10.418   1.046   8.964  0.2671 -0.1844 -0.0424
  772MOL0     O 4121  10.549   1.032   8.948 -0.6910 -0.0890 -0.4888
  772MOL0     C 4122  10.616   1.110   8.846 -0.1381 -0.2518 -0.5243
  772MOL0     C 4123  10.744   1.045   8.808 -0.5832 -1.3219 -0.3548
  772MOL0     C 4124  10.806   1.122   8.692 -0.3036 -0.0052  0.0220
  772MOL0     C 4125  10.918   1.042   8.639 -0.2501 -1.0560 -0.2974
  772MOL0     C 4126  11.007   1.101   8.527  0.2681  0.5910  0.1970
  772MOL0     C 4127  11.098   0.993   8.471  0.0694  0.1779 -0.6619
  772MOL0     C 4128  11.212   1.049   8.378  0.0283 -0.8111  0.1980
  772MOL0     C 4129  11.325   0.951   8.363 -0.0108 -0.2889  1.0395
  772MOL0    Cl 4130  11.414   1.017   8.222 -0.1757  0.4038 -0.7309
  772MOL0     C 4131  10.347   1.157   8.913  0.3937 -0.0065  0.0103
  772MOL0     C 4132  10.215   1.182   8.923  0.3097  0.1337  0.3587
  772MOL0     O 4133   9.966   0.991   8.838 -1.0225  0.2577  0.5068
  772MOL0     C 4134   9.741   1.142   9.071  0.4468 -0.6306 -0.8145
  772MOL0     C 4135   9.603   1.148   9.111  0.0285  0.0834 -0.0925
  772MOL0     N 4136   8.869   0.922   8.611  0.4415 -0.1869 -0.9703
  772MOL0     N 4137   8.835   0.913   8.485 -0.4650 -0.1535  0.4999
  772MOL0     C 4138   9.554   1.328   8.715 -0.6370 -1.4531  0.8206
  772MOL0     C 4139   9.685   1.357   8.755 -0.1558 -0.5845  0.1830
  772MOL0     C 4140  10.021   1.535   9.000  0.4640  0.0801  0.7588
  772MOL0     C 4141  10.116   1.608   8.927 -0.5507  0.0004 -0.5528
  772MOL0     C 4142  10.243   1.612   8.973 -0.4534 -0.0739  0.4529
  772MOL0     C 4143  10.281   1.541   9.082 -0.4233 -0.7906 -0.7958
  772MOL0     O 4144  10.413   1.541   9.124  0.6097  0.0547  0.1194
  772MOL0     C 4145  10.496   1.465   9.034  0.2946 -0.2930 -0.9675
  772MOL0     C 4146  10.626   1.548   9.008  0.2493 -0.3820 -0.0214
  772MOL0     C 4147  10.714   1.480   8.905 -0.3282 -0.9157  0.0897
  772MOL0     C 4148  10.800   1.584   8.841  0.5226  0.4046  0.0861
  772MOL0     C 4149  10.728   1.646   8.730  0.7573 -0.1245 -0.5479
  772MOL0     C 4150  10.678   1.718   8.645 -0.2266  0.3861 -0.3431
  772MOL0     C 4151  10.183   1.488   9.169 -0.9841 -0.1221  0.0226
  772MOL0     C 4152  10.060   1.485   9.124  1.0579 -0.4831  0.6840
  772MOL0     H 4153   9.668   1.702   8.741  0.2398 -0.1984 -0.6404
  772MOL0     H 4154   9.443   1.641   8.660 -1.3973 -2.2479  0.7041
  772MOL0     H 4155   9.227   1.565   8.653 -2.3431  0.5736 -0.5739
  772MOL0     H 4156   9.291   1.482   8.513  1.0499 -1.7128 -0.7210
  772MOL0     H 4157   9.085   1.373   8.698 -0.8664  2.9598  0.1264
  772MOL0     H 4158   9.037   1.457   8.549  0.9562  2.0724  0.8283
  772MOL0     H 4159   9.183   1.197   8.585  0.2530 -0.8197 -0.6168
  772MOL0     H 4160   9.017   1.221   8.509  0.2921 -0.4295 -1.1180
  772MOL0     H 4161   9.131   1.360   8.329 -1.1169 -1.9524 -1.5692
  772MOL0     H 4162   9.291   1.303   8.391 -0.6737  0.9491  0.5583
  772MOL0     H 4163   9.257   1.168   8.218  3.3258  2.4237  2.6530
  772MOL0     H 4164   9.212   1.078   8.367 -2.6307  2.8144  3.4639
  772MOL0     H 4165   8.959   1.132   8.306  0.5221 -0.6806  0.7876
  772MOL0     H 4166   9.031   1.183   8.152 -0.4634 -0.2532 -0.3794
  772MOL0     H 4167   9.022   0.982   8.096 -1.9141  2.5022  0.4746
  772MOL0     H 4168   9.140   0.928   8.217  1.0706  0.6112 -3.9473
  772MOL0     H 4169   8.928   0.803   8.215  0.6994  1.4840 -3.3647
  772MOL0     H 4170   8.845   0.959   8.239  1.5358  1.1942 -2.8334
  772MOL0     H 4171   9.155   0.824   8.472  0.4688 -0.8313  0.0971
  772MOL0     H 4172   9.025   0.841   8.823 -1.0590  1.5605  0.5765
  772MOL0     H 4173   9.161   0.805   8.715  0.0554 -0.4237  0.6037
  772MOL0     H 4174   9.076   1.096   8.813  1.1442  0.8057  1.4343
  772MOL0     H 4175   9.207   1.049   8.709 -0.7417  0.0492 -1.1639
  772MOL0     H 4176   9.268   0.911   8.959 -1.3789 -0.7707 -0.0638
  772MOL0     H 4177   9.113   0.990   8.984 -0.9735 -0.8563 -1.5714
  772MOL0     H 4178   9.198   1.184   9.024  0.1125  0.7401 -0.8709
  772MOL0     H 4179   9.314   1.189   8.899 -0.6342  0.5013  0.3261
  772MOL0     H 4180   9.476   0.924   8.884  0.7605 -0.3656 -0.2854
  772MOL0     H 4181   9.724   0.905   8.690  0.1424 -0.4384  0.3526
  772MOL0     H 4182   9.805   0.817   8.821  1.0186  2.6551  4.4836
  772MOL0     H 4183   9.637   0.786   8.796 -2.5093  2.2893 -2.1931
  772MOL0     H 4184  10.153   0.910   9.109  2.9648 -3.0225  0.4193
  772MOL0     H 4185  10.392   0.867   9.075 -0.2391 -0.6489 -1.5955
  772MOL0     H 4186  10.560   1.099   8.754 -0.0289  0.3120 -0.6599
  772MOL0     H 4187  10.617   1.217   8.865 -2.5102 -0.0901 -1.0577
  772MOL0     H 4188  10.814   1.028   8.891 -0.9985 -0.7636  0.1237
  772MOL0     H 4189  10.713   0.945   8.778 -0.3102 -1.1828 -1.1197
  772MOL0     H 4190  10.852   1.212   8.733  3.2085 -1.6009  0.0207
  772MOL0     H 4191  10.737   1.142   8.610  1.2869 -0.8237 -1.5961
  772MOL0     H 4192  10.982   1.003   8.719  1.2430 -2.6286 -2.1530
  772MOL0     H 4193  10.861   0.957   8.601 -2.1892 -1.6999  3.5220
  772MOL0     H 4194  11.071   1.186   8.552  4.0323 -1.4375 -1.6950
  772MOL0     H 4195  10.941   1.137   8.448  1.6459  2.5366 -0.1260
  772MOL0     H 4196  11.138   0.932   8.553  4.1429 -0.2388 -2.6880
  772MOL0     H 4197  11.036   0.925   8.413  0.9317 -0.9062 -0.3441
  772MOL0     H 4198  11.232   1.153   8.401  0.1603  0.0374 -3.1844
  772MOL0     H 4199  11.172   1.054   8.276  0.1515  0.7331  0.2013
  772MOL0     H 4200  11.281   0.856   8.332 -1.4265  0.4940  0.5893
  772MOL0     H 4201  11.396   0.946   8.446  0.9644  1.7911  0.4065
  772MOL0     H 4202  10.397   1.230   8.850  1.7101  0.2127  1.2658
  772MOL0     H 4203  10.160   1.264   8.877  1.5144 -1.2704 -4.0854
  772MOL0     H 4204   9.799   1.224   9.112 -1.6824  1.2241 -1.2935
  772MOL0     H 4205   9.570   1.214   9.191  0.4697  0.6014 -0.3286
  772MOL0     H 4206   9.527   1.229   8.678 -3.6530 -0.3683 -0.2209
  772MOL0     H 4207   9.758   1.277   8.761 -1.8985 -2.1412  1.7873
  772MOL0     H 4208  10.086   1.670   8.843  4.2182 -0.3082 -2.8339
  772MOL0     H 4209  10.321   1.668   8.922 -1.1544  0.2165 -0.3246
  772MOL0     H 4210  10.532   1.376   9.088  0.5862  0.3821 -0.0308
  772MOL0     H 4211  10.450   1.433   8.941 -1.8235 -0.4973  0.0874
  772MOL0     H 4212  10.693   1.561   9.093  1.5080 -1.2213 -0.8617
  772MOL0     H 4213  10.601   1.647   8.971  0.2061 -0.0649  0.8250
  772MOL0     H 4214  10.644   1.433   8.836 -1.3431  0.9955 -0.2577
  772MOL0     H 4215  10.780   1.410   8.956 -0.2839  0.1319  1.5369
  772MOL0     H 4216  10.887   1.536   8.796  0.2658  0.0166  0.0045
  772MOL0     H 4217  10.827   1.659   8.916  0.4988  1.8959 -1.3341
  772MOL0     H 4218  10.645   1.775   8.560  1.1938 -0.9219 -1.8414
  772MOL0     H 4219  10.201   1.451   9.269 -0.8435 -0.5619 -0.1630
  772MOL0     H 4220   9.996   1.421   9.184  2.8133 -1.7275  1.3266
  773MOL0     O 4221   6.480   1.837   7.068 -0.4042 -0.1983 -0.2829
  773MOL0     C 4222   6.574   1.897   7.017 -0.1968 -0.7446 -0.1384
  773MOL0     O 4223   6.699   1.841   7.001  0.3991  0.0644 -0.3940
  773MOL0     C 4224   6.717   1.719   7.056  0.3999  0.1286  0.4535
  773MOL0     C 4225   6.639   1.609   7.014  0.1295  0.2027  0.2769
  773MOL0     C 4226   6.680   1.479   7.048  0.5036  0.8007  0.0304
  773MOL0     C 4227   6.801   1.459   7.118 -0.0041  0.4824  0.4696
  773MOL0     O 4228   6.849   1.327   7.134  0.1836 -0.1628  0.0920
  773MOL0     C 4229   6.978   1.296   7.183  0.0206 -1.1343  0.4182
  773MOL0     C 4230   6.979   1.140   7.183 -0.2977  0.0036 -0.2207
  773MOL0     C 4231   6.886   1.081   7.284 -0.4044  0.5832  0.2292
  773MOL0     C 4232   6.875   0.926   7.287  0.0264 -0.4242 -0.2170
  773MOL0     C 4233   6.769   0.880   7.396 -0.5277 -0.2878  0.2377
  773MOL0     C 4234   6.821   0.911   7.539 -0.6417 -0.1389 -0.0533
  773MOL0     C 4235   6.721   0.875   7.644  0.8148  0.6689 -0.2089
  773MOL0     C 4236   6.786   0.895   7.781 -0.1390  0.2394  0.3926
  773MOL0     N 4237   6.805   1.030   7.824  0.3408  0.2873 -0.2189
  773MOL0     C 4238   6.721   1.107   7.911 -0.3098  0.0899 -1.0148
  773MOL0     C 4239   6.786   1.213   7.940 -0.5978 -0.6541 -0.3892
  773MOL0     C 4240   6.738   1.317   8.040 -0.3800 -0.5074  1.2516
  773MOL0     C 4241   6.808   1.320   8.177 -0.1539 -0.1929  0.3135
  773MOL0     C 4242   6.785   1.187   8.250  0.7134  0.9495 -0.2695
  773MOL0     C 4243   6.645   1.156   8.290 -0.1134  0.0214 -0.5357
  773MOL0     O 4244   6.652   1.092   8.414  0.4125  0.2043  0.2409
  773MOL0     C 4245   6.536   1.038   8.460 -0.5237 -0.1558  0.1957
  773MOL0     C 4246   6.410   1.083   8.438  0.3271  0.4859 -0.2455
  773MOL0     C 4247   6.296   1.015   8.486  0.2086 -0.0261 -0.0143
  773MOL0     C 4248   6.170   1.102   8.468  0.4597 -0.1443  0.7058
  773MOL0     C 4249   6.307   0.895   8.565 -0.0125 -0.4168  0.0757
  773MOL0     C 4250   6.202   0.822   8.641 -0.0694 -0.3079  0.6036
  773MOL0     O 4251   6.228   0.691   8.667 -0.1033 -0.3186 -0.0278
  773MOL0     C 4252   6.135   0.615   8.743 -0.2114  0.2350 -0.2504
  773MOL0     C 4253   5.995   0.617   8.712  0.6531 -0.0222 -0.3833
  773MOL0     C 4254   5.906   0.531   8.777  0.0381  0.2222  0.0273
  773MOL0     C 4255   5.951   0.445   8.876 -0.7476 -0.1309 -0.0609
  773MOL0     O 4256   5.863   0.355   8.929  0.0319 -0.1927  0.2335
  773MOL0     C 4257   5.883   0.309   9.066 -0.3235  0.5754  0.4623
  773MOL0     C 4258   5.754   0.238   9.122  0.3297  0.2897  0.3531
  773MOL0     C 4259   5.635   0.342   9.134  0.3783 -0.5035 -0.1845
  773MOL0     C 4260   5.516   0.291   9.211  0.0092  0.2028  0.1649
  773MOL0     C 4261   5.405   0.391   9.205  1.4291 -0.2937 -0.3645
  773MOL0     C 4262   5.290   0.339   9.290 -0.1141  0.1514 -0.0420
  773MOL0     C 4263   5.303   0.348   9.446  0.8811  0.3051  0.0717
  773MOL0     C 4264   5.166   0.338   9.497  0.0185  0.1896 -0.0246
  773MOL0    Cl 4265   5.091   0.499   9.500 -0.1582  0.0174  0.3229
  773MOL0     C 4266   6.084   0.451   8.923  0.4808 -0.0956  0.4625
  773MOL0     C 4267   6.175   0.539   8.855 -0.2101  0.5126  1.1225
  773MOL0     O 4268   6.096   0.884   8.670 -0.3250  0.7434 -0.3331
  773MOL0     C 4269   6.446   0.856   8.580 -0.4307 -0.1797 -0.5967
  773MOL0     C 4270   6.553   0.920   8.521 -0.3561 -0.0263 -0.1170
  773MOL0     N 4271   6.908   1.215   7.868  0.2172  0.3823  0.0129
  773MOL0     N 4272   6.919   1.100   7.806 -1.5682  0.5417  0.3627
  773MOL0     C 4273   6.874   1.572   7.159  0.5657  0.5098  0.1315
  773MOL0     C 4274   6.840   1.702   7.122 -0.0026 -0.7079 -0.0982
  773MOL0     C 4275   6.552   2.047   6.999  0.3377  0.0494 -1.0087
  773MOL0     C 4276   6.442   2.100   7.051  0.6760  0.4026 -0.6074
  773MOL0     C 4277   6.405   2.227   7.013  0.4443  0.4722  0.1996
  773MOL0     C 4278   6.498   2.310   6.953  0.1725  0.3798 -0.7027
  773MOL0     O 4279   6.466   2.442   6.954 -0.4728 -0.5679 -0.0076
  773MOL0     C 4280   6.530   2.535   6.870  0.0804  0.2225  0.0402
  773MOL0     C 4281   6.436   2.654   6.885  0.1761 -0.5628  0.4327
  773MOL0     C 4282   6.515   2.780   6.840  0.1042 -0.5800  0.1275
  773MOL0     C 4283   6.467   2.917   6.902  0.8008 -1.5899  0.3251
  773MOL0     C 4284   6.540   3.026   6.837  0.6512 -0.1942 -0.5306
  773MOL0     C 4285   6.594   3.121   6.789  0.4686 -0.1788 -0.1127
  773MOL0     C 4286   6.610   2.260   6.907  0.2627 -0.3374  1.7570
  773MOL0     C 4287   6.642   2.128   6.934 -0.4713 -0.8087  1.0093
  773MOL0     H 4288   6.552   1.605   6.949  0.8872 -0.2264 -0.7304
  773MOL0     H 4289   6.626   1.391   7.013  0.1033  1.1595 -0.2560
  773MOL0     H 4290   7.059   1.324   7.115 -1.4775 -0.9220 -1.3746
  773MOL0     H 4291   6.988   1.345   7.280  0.0291  0.3402 -0.3098
  773MOL0     H 4292   6.963   1.088   7.087 -0.2003  0.1171 -0.2986
  773MOL0     H 4293   7.077   1.103   7.211 -0.3785 -0.4931 -0.5780
  773MOL0     H 4294   6.905   1.126   7.382  0.2125  2.6962 -0.7874
  773MOL0     H 4295   6.785   1.111   7.252  0.2999  1.1078 -1.6615
  773MOL0     H 4296   6.840   0.885   7.192  1.9102 -1.9906 -0.2942
  773MOL0     H 4297   6.970   0.879   7.312  0.7029  0.2979 -1.3557
  773MOL0     H 4298   6.683   0.948   7.392  1.4066  2.3314  0.5108
  773MOL0     H 4299   6.735   0.778   7.376  3.0467 -1.7226  0.6953
  773MOL0     H 4300   6.903   0.841   7.552 -2.7124 -2.8475 -0.7549
  773MOL0     H 4301   6.844   1.018   7.549  1.1740 -0.6442  1.6761
  773MOL0     H 4302   6.625   0.926   7.631  0.2847  0.0746  1.2427
  773MOL0     H 4303   6.696   0.769   7.642 -1.1912  0.9002  3.4981
  773MOL0     H 4304   6.887   0.857   7.769 -1.1816 -2.0575 -2.0640
  773MOL0     H 4305   6.735   0.842   7.861  0.5917  1.7461  1.9284
  773MOL0     H 4306   6.625   1.075   7.950 -0.3445  1.4333  0.0538
  773MOL0     H 4307   6.767   1.405   7.982 -1.1739 -0.8876  0.2411
  773MOL0     H 4308   6.629   1.319   8.052 -0.9168 -2.7633 -1.8902
  773MOL0     H 4309   6.784   1.406   8.239  0.3330  0.3773 -0.2771
  773MOL0     H 4310   6.917   1.324   8.163 -0.4309 -0.2176 -2.4816
  773MOL0     H 4311   6.844   1.210   8.339  3.5509  1.1845 -2.1056
  773MOL0     H 4312   6.837   1.098   8.213 -4.1195 -2.5336  0.3464
  773MOL0     H 4313   6.591   1.093   8.218  0.2721 -0.1256 -0.6945
  773MOL0     H 4314   6.601   1.254   8.308 -1.2675 -0.5852  0.1273
  773MOL0     H 4315   6.389   1.171   8.377  2.4303  3.2686  2.6794
  773MOL0     H 4316   6.163   1.187   8.536  2.6525  1.2390 -0.6391
  773MOL0     H 4317   6.171   1.140   8.365  1.1462  1.3610  1.2421
  773MOL0     H 4318   6.080   1.040   8.471 -0.0534  0.0848 -3.5552
  773MOL0     H 4319   5.961   0.687   8.637  0.1045 -0.4509 -0.5419
  773MOL0     H 4320   5.801   0.527   8.752  0.4896  0.1747 -2.0652
  773MOL0     H 4321   5.955   0.227   9.064 -3.4856 -2.5042  1.6655
  773MOL0     H 4322   5.907   0.390   9.136 -2.2343 -1.7116  4.1112
  773MOL0     H 4323   5.715   0.163   9.053  1.8988 -0.5625  0.3406
  773MOL0     H 4324   5.773   0.192   9.220  3.7147  0.7602  0.0479
  773MOL0     H 4325   5.595   0.364   9.035  0.0429  1.8829  0.4340
  773MOL0     H 4326   5.665   0.439   9.175  2.4336 -1.0332 -0.2928
  773MOL0     H 4327   5.484   0.198   9.162 -1.4501  1.4292 -1.2962
  773MOL0     H 4328   5.546   0.271   9.314 -1.3761  0.8329  0.7196
  773MOL0     H 4329   5.367   0.408   9.104  0.2192 -1.7027 -0.1850
  773MOL0     H 4330   5.435   0.492   9.235 -4.0293  1.6524 -0.2643
  773MOL0     H 4331   5.207   0.398   9.252  0.1190 -0.1594 -1.0658
  773MOL0     H 4332   5.273   0.233   9.270 -2.3444  0.9982 -3.3540
  773MOL0     H 4333   5.344   0.443   9.480  0.3362  0.5161  0.1540
  773MOL0     H 4334   5.350   0.262   9.495  0.0298 -0.7804 -0.9383
  773MOL0     H 4335   5.166   0.304   9.601 -2.3696  1.9027  0.6079
  773MOL0     H 4336   5.106   0.259   9.451 -0.7514  0.4902  0.4487
  773MOL0     H 4337   6.120   0.385   9.001 -1.1384 -3.4897 -1.4336
  773MOL0     H 4338   6.276   0.550   8.894  0.2394 -0.1803  0.1781
  773MOL0     H 4339   6.467   0.772   8.645 -0.6778 -0.1075 -0.4211
  773MOL0     H 4340   6.653   0.881   8.532  0.4221  1.9385  0.1694
  773MOL0     H 4341   6.967   1.564   7.215  0.8502 -0.9642 -0.4980
  773MOL0     H 4342   6.907   1.778   7.160  1.5400 -2.0796  0.0527
  773MOL0     H 4343   6.370   2.035   7.100  1.7427 -1.5941 -1.5854
  773MOL0     H 4344   6.306   2.262   7.042 -0.8183 -2.6154 -0.0703
  773MOL0     H 4345   6.633   2.559   6.898  0.4241  0.0602 -1.0397
  773MOL0     H 4346   6.525   2.510   6.764 -1.1817  1.2539 -0.1749
  773MOL0     H 4347   6.415   2.664   6.992 -3.9044  0.9592 -0.3438
  773MOL0     H 4348   6.339   2.633   6.840 -0.2079  0.1113  0.9253
  773MOL0     H 4349   6.487   2.788   6.735 -3.6934  0.7904  1.0625
  773MOL0     H 4350   6.622   2.773   6.862 -0.0913 -0.9647  1.0062
  773MOL0     H 4351   6.482   2.911   7.010  1.4676  0.1032  0.3496
  773MOL0     H 4352   6.361   2.939   6.885  1.1850 -0.6825 -1.0215
  773MOL0     H 4353   6.641   3.211   6.756 -1.4178  1.0678  0.4500
  773MOL0     H 4354   6.683   2.318   6.853  0.0947  0.3111  2.2142
  773MOL0     H 4355   6.740   2.092   6.903  0.3005  1.3084  0.8782
  774MOL0     O 4356   5.497   4.644   3.875  0.5279  0.8427 -0.2836
  774MOL0     C 4357   5.465   4.674   3.986 -0.2652 -0.7521 -0.5339
  774MOL0     O 4358   5.555   4.679   4.092  1.6074  0.4388 -0.4545
  774MOL0     C 4359   5.682   4.653   4.078 -0.6687  0.2524 -0.4188
  774MOL0     C 4360   5.762   4.711   3.978 -0.2438  0.5823 -0.1904
  774MOL0     C 4361   5.902   4.711   3.970  0.6417 -0.0305  0.4023
  774MOL0     C 4362   5.966   4.635   4.070  0.0759  0.0700 -0.4952
  774MOL0     O 4363   6.098   4.612   4.087 -0.0450 -0.1204  0.0095
  774MOL0     C 4364   6.176   4.646   3.973  1.3671  0.6553 -0.2984
  774MOL0     C 4365   6.318   4.610   4.014 -0.3063 -0.2815 -0.4433
  774MOL0     C 4366   6.385   4.707   4.117  0.5456  0.0181 -0.2045
  774MOL0     C 4367   6.536   4.673   4.145  0.8148  1.0388 -0.6783
  774MOL0     C 4368   6.616   4.773   4.232  0.1657  0.0727 -0.5823
  774MOL0     C 4369   6.762   4.754   4.195 -0.5334  0.7456  0.5198
  774MOL0     C 4370   6.851   4.865   4.252 -0.5974  0.9710  0.0161
  774MOL0     C 4371   6.983   4.801   4.263 -0.1158 -0.0965  0.6628
  774MOL0     N 4372   7.082   4.894   4.318 -0.7341  0.1723  0.3127
  774MOL0     C 4373   7.175   4.979   4.250  1.0545  0.5479  0.2906
  774MOL0     C 4374   7.236   5.034   4.350 -0.8702  0.5037  0.0287
  774MOL0     C 4375   7.336   5.143   4.334 -0.2427 -0.3687  1.0219
  774MOL0     C 4376   7.327   5.252   4.443 -0.2674 -0.2712 -0.0670
  774MOL0     C 4377   7.229   5.360   4.406  0.4190  1.0011 -1.0103
  774MOL0     C 4378   7.093   5.326   4.450 -0.0047  0.3788 -0.2697
  774MOL0     O 4379   7.017   5.443   4.471 -0.7140 -0.6145  0.2383
  774MOL0     C 4380   6.882   5.427   4.456 -0.0484 -0.2759 -0.1258
  774MOL0     C 4381   6.809   5.310   4.451 -1.2157 -0.7385 -0.0388
  774MOL0     C 4382   6.669   5.318   4.417  0.3661  0.3936  0.1611
  774MOL0     C 4383   6.602   5.192   4.364  0.2252 -0.0636 -0.1451
  774MOL0     C 4384   6.597   5.438   4.427 -0.9245  0.2176 -1.0652
  774MOL0     C 4385   6.452   5.438   4.432 -0.4499 -0.3267  0.4229
  774MOL0     O 4386   6.394   5.524   4.347  0.1581  0.6001  0.4470
  774MOL0     C 4387   6.263   5.559   4.349 -0.5267  0.5095  1.0606
  774MOL0     C 4388   6.154   5.477   4.387  0.4785 -0.5595  0.1530
  774MOL0     C 4389   6.025   5.538   4.395 -0.4830  0.3650  1.2566
  774MOL0     C 4390   5.999   5.665   4.372 -0.9476  0.3526 -0.2309
  774MOL0     O 4391   5.881   5.723   4.402 -0.0914  0.5319  0.0711
  774MOL0     C 4392   5.783   5.659   4.497 -0.9899  0.2645 -0.2865
  774MOL0     C 4393   5.675   5.761   4.535  0.0212  0.3039  0.6926
  774MOL0     C 4394   5.551   5.722   4.625 -0.7281 -0.7532  0.1069
  774MOL0     C 4395   5.466   5.610   4.552 -0.0591 -0.1462  0.2124
  774MOL0     C 4396   5.343   5.580   4.635  0.1052 -0.0683 -0.0991
  774MOL0     C 4397   5.267   5.455   4.575  0.0936  0.9192 -0.0620
  774MOL0     C 4398   5.197   5.386   4.687  0.5787  0.4618 -0.9471
  774MOL0     C 4399   5.163   5.238   4.657 -0.4835 -0.1980  1.5082
  774MOL0    Cl 4400   5.306   5.135   4.670 -0.7127 -0.3566 -0.3945
  774MOL0     C 4401   6.108   5.748   4.338  1.3072 -0.3932  0.7455
  774MOL0     C 4402   6.237   5.698   4.324 -0.0910 -0.7564  0.1453
  774MOL0     O 4403   6.398   5.368   4.511  0.2428  0.0655 -0.3174
  774MOL0     C 4404   6.671   5.554   4.443 -0.3814  0.5639 -0.4562
  774MOL0     C 4405   6.813   5.548   4.454  0.1658  0.2853  0.2650
  774MOL0     N 4406   7.195   4.984   4.472 -0.1517 -0.1295 -0.2137
  774MOL0     N 4407   7.103   4.901   4.450 -0.5871  0.7840 -0.5923
  774MOL0     C 4408   5.880   4.561   4.159 -0.9584 -0.4864 -0.3604
  774MOL0     C 4409   5.748   4.574   4.173  0.4988  0.1300  0.3689
  774MOL0     C 4410   5.322   4.709   4.013 -0.2109  0.1742  0.0076
  774MOL0     C 4411   5.236   4.726   3.902  0.4096  0.2174  0.0316
  774MOL0     C 4412   5.100   4.760   3.909 -0.6983  1.0444  0.3253
  774MOL0     C 4413   5.053   4.766   4.034  0.2578 -0.3373 -0.7577
  774MOL0     O 4414   4.919   4.791   4.051  0.4045 -0.5755  0.1400
  774MOL0     C 4415   4.874   4.921   3.994  0.6046  0.0295 -0.3211
  774MOL0     C 4416   4.718   4.919   3.983 -0.5925 -0.3025  0.5390
  774MOL0     C 4417   4.659   4.815   3.887  0.3174  0.7003 -0.3250
  774MOL0     C 4418   4.717   4.812   3.741  0.2783  0.7204  0.1176
  774MOL0     C 4419   4.637   4.737   3.643  0.6791 -0.6508  0.1291
  774MOL0     C 4420   4.589   4.664   3.552  0.6971 -0.2337 -0.2486
  774MOL0     C 4421   5.125   4.751   4.147 -0.5661  0.5273  0.6965
  774MOL0     C 4422   5.261   4.735   4.144 -0.1616 -0.4925 -0.0708
  774MOL0     H 4423   5.733   4.779   3.898  1.7610  0.7325 -0.8377
  774MOL0     H 4424   5.952   4.769   3.893 -2.3426  1.8426 -0.2828
  774MOL0     H 4425   6.156   4.579   3.889 -0.8995  0.4850  0.3182
  774MOL0     H 4426   6.184   4.751   3.941 -0.3909 -0.6193 -6.2273
  774MOL0     H 4427   6.316   4.506   4.046  2.1518 -1.0985 -2.5716
  774MOL0     H 4428   6.374   4.621   3.921  1.6805  1.8087  0.8881
  774MOL0     H 4429   6.389   4.812   4.087  1.4902 -0.2952 -1.2726
  774MOL0     H 4430   6.324   4.701   4.207 -2.3912 -2.4484 -2.1085
  774MOL0     H 4431   6.552   4.571   4.181 -2.1421  0.7140  0.0230
  774MOL0     H 4432   6.582   4.675   4.046  1.0535 -4.4185 -0.9802
  774MOL0     H 4433   6.578   4.871   4.201 -0.4248 -0.2153 -0.7896
  774MOL0     H 4434   6.595   4.751   4.337 -0.9825  3.0040 -0.0900
  774MOL0     H 4435   6.791   4.662   4.246  2.2956  1.9623  1.3163
  774MOL0     H 4436   6.781   4.739   4.088  1.0226  1.6435  0.6309
  774MOL0     H 4437   6.858   4.950   4.184  0.5415  0.4921 -0.4860
  774MOL0     H 4438   6.815   4.888   4.353 -0.0248  0.7785  0.2709
  774MOL0     H 4439   7.004   4.756   4.166 -0.3310  3.0809 -0.9894
  774MOL0     H 4440   6.968   4.725   4.341  0.2666  0.8792  1.7310
  774MOL0     H 4441   7.195   4.989   4.144 -0.4772  1.9021  0.1022
  774MOL0     H 4442   7.435   5.097   4.338 -0.3786 -0.5940  1.9731
  774MOL0     H 4443   7.318   5.193   4.238 -1.0109 -1.7856  0.4086
  774MOL0     H 4444   7.423   5.304   4.455 -1.5481  2.6270 -1.3574
  774MOL0     H 4445   7.297   5.206   4.537 -4.6181 -0.2554 -1.2182
  774MOL0     H 4446   7.228   5.388   4.300  0.9481  0.0372 -1.2773
  774MOL0     H 4447   7.269   5.449   4.457 -0.5159  1.6940 -1.4392
  774MOL0     H 4448   7.092   5.276   4.547 -1.4533  2.0301  0.6065
  774MOL0     H 4449   7.053   5.267   4.366 -1.9515  2.5311 -0.9476
  774MOL0     H 4450   6.853   5.211   4.440  0.5488  0.2410 -3.0280
  774MOL0     H 4451   6.572   5.133   4.452  1.7924 -2.0963 -0.8823
  774MOL0     H 4452   6.508   5.210   4.312  0.1403 -0.4067 -0.1157
  774MOL0     H 4453   6.670   5.126   4.309  2.5472  0.5602  1.7715
  774MOL0     H 4454   6.168   5.380   4.435 -1.7994 -0.8647  0.3031
  774MOL0     H 4455   5.951   5.476   4.443  1.2823  0.6903  4.6683
  774MOL0     H 4456   5.726   5.579   4.448 -2.6646  1.3653 -0.2089
  774MOL0     H 4457   5.833   5.615   4.583 -4.9648  0.1246  2.1694
  774MOL0     H 4458   5.724   5.847   4.582  1.1304 -0.7058  1.4475
  774MOL0     H 4459   5.633   5.806   4.445 -2.3917 -0.1528  1.5103
  774MOL0     H 4460   5.484   5.806   4.645  0.9753  0.8589 -0.7045
  774MOL0     H 4461   5.583   5.683   4.722  3.5178  0.3559 -0.6407
  774MOL0     H 4462   5.431   5.641   4.454  0.3064  1.7292  0.6260
  774MOL0     H 4463   5.523   5.518   4.538 -1.7710 -1.8626  3.4114
  774MOL0     H 4464   5.280   5.669   4.644 -3.1591 -2.3134  1.5813
  774MOL0     H 4465   5.383   5.563   4.735 -1.9482 -0.7686  0.6525
  774MOL0     H 4466   5.203   5.477   4.489  0.5601  3.1921  0.1035
  774MOL0     H 4467   5.338   5.376   4.546  1.8506  0.4810  4.6561
  774MOL0     H 4468   5.106   5.442   4.706  0.3267 -0.4413  0.7052
  774MOL0     H 4469   5.255   5.386   4.779 -1.8216  0.0097  0.6386
  774MOL0     H 4470   5.125   5.222   4.555  0.9204 -1.9068  1.2083
  774MOL0     H 4471   5.095   5.204   4.736 -1.8538 -2.5885 -0.5430
  774MOL0     H 4472   6.090   5.854   4.323  0.1076 -0.9589 -2.8133
  774MOL0     H 4473   6.318   5.764   4.297 -0.6198  0.9594  2.5044
  774MOL0     H 4474   6.613   5.646   4.445  0.5295  1.1543 -0.3212
  774MOL0     H 4475   6.869   5.641   4.452 -1.1496  1.1489  1.8566
  774MOL0     H 4476   5.928   4.483   4.217 -1.5612  0.3886  1.3993
  774MOL0     H 4477   5.701   4.521   4.254  1.6021 -0.8571  0.3935
  774MOL0     H 4478   5.274   4.712   3.801  0.7253  2.5043 -0.2256
  774MOL0     H 4479   5.050   4.767   3.813  2.3701  0.8032 -1.3895
  774MOL0     H 4480   4.908   4.992   4.070  2.2156 -1.0802  0.0549
  774MOL0     H 4481   4.919   4.949   3.898  0.6152  1.0699 -0.0286
  774MOL0     H 4482   4.679   5.019   3.963 -0.5655 -0.2654  0.6663
  774MOL0     H 4483   4.685   4.901   4.086  2.0346 -1.5142  1.2509
  774MOL0     H 4484   4.556   4.846   3.867  0.3096 -0.6300 -2.6652
  774MOL0     H 4485   4.668   4.718   3.935  1.6613  0.3788 -1.1639
  774MOL0     H 4486   4.807   4.754   3.763  0.4775  1.2603  0.7714
  774MOL0     H 4487   4.746   4.907   3.695 -0.9109  1.8021  1.5226
  774MOL0     H 4488   4.549   4.606   3.472 -0.4027  1.4248 -0.9510
  774MOL0     H 4489   5.081   4.760   4.247 -0.3998 -1.5686  1.0097
  774MOL0     H 4490   5.314   4.731   4.239  0.0402 -0.1317 -0.1635
  775MOL0     O 4491   4.374   5.539   9.929  0.0998 -0.4657  0.4570
  775MOL0     C 4492   4.357   5.628  10.005  0.4848 -0.6156 -0.8619
  775MOL0     O 4493   4.244   5.697  10.015  0.7138 -0.2446  0.3928
  775MOL0     C 4494   4.140   5.681   9.929  0.7782 -0.0800  0.4628
  775MOL0     C 4495   4.163   5.705   9.793  0.8692 -0.7089  0.0576
  775MOL0     C 4496   4.071   5.658   9.699  0.7476  0.7077  0.1642
  775MOL0     C 4497   3.945   5.609   9.742  0.0106  0.2403 -0.0157
  775MOL0     O 4498   3.845   5.598   9.653 -0.4224  0.2196 -0.4864
  775MOL0     C 4499   3.851   5.655   9.520 -0.0895 -0.6215  0.3986
  775MOL0     C 4500   3.709   5.637   9.455 -0.1111 -0.5757  0.1145
  775MOL0     C 4501   3.688   5.502   9.392 -0.8359  0.0351  0.0512
  775MOL0     C 4502   3.536   5.485   9.350 -0.1126  0.4105  0.2040
  775MOL0     C 4503   3.527   5.349   9.283  0.2531  0.6058 -0.4842
  775MOL0     C 4504   3.381   5.314   9.267  0.1937  0.3692 -0.6651
  775MOL0     C 4505   3.293   5.429   9.214  0.5032  0.5345 -0.2638
  775MOL0     C 4506   3.156   5.374   9.201 -0.0891 -0.4709  0.1368
  775MOL0     N 4507   3.067   5.483   9.172  0.8725 -0.1783 -0.5263
  775MOL0     C 4508   2.924   5.467   9.161  0.1234  0.3248  0.2112
  775MOL0     C 4509   2.876   5.580   9.091 -0.6510 -0.7619  0.1371
  775MOL0     C 4510   2.744   5.632   9.041 -0.2091  0.2392 -0.9308
  775MOL0     C 4511   2.693   5.574   8.913  0.0530 -0.3993 -0.5779
  775MOL0     C 4512   2.646   5.430   8.930  1.1420 -1.4949 -1.0270
  775MOL0     C 4513   2.505   5.417   8.976  1.0776 -0.1643 -0.5959
  775MOL0     O 4514   2.411   5.412   8.865  0.7055  0.3830  0.0516
  775MOL0     C 4515   2.271   5.412   8.892 -0.0866  0.0632 -0.3095
  775MOL0     C 4516   2.171   5.396   8.796 -0.5663  0.3662 -0.2490
  775MOL0     C 4517   2.036   5.375   8.822  0.4030  0.1384  0.7281
  775MOL0     C 4518   1.954   5.340   8.696 -0.1625  0.1601 -0.3257
  775MOL0     C 4519   1.987   5.386   8.956  0.2029  0.6212  0.3831
  775MOL0     C 4520   1.854   5.371   9.007  0.0101  0.0159 -0.1302
  775MOL0     O 4521   1.833   5.300   9.122 -0.1469 -0.3393  0.2976
  775MOL0     C 4522   1.705   5.278   9.169 -0.0111 -0.2674 -0.4586
  775MOL0     C 4523   1.611   5.377   9.197  0.1542  0.6007 -0.2083
  775MOL0     C 4524   1.475   5.335   9.224 -0.9484 -0.2821  0.8026
  775MOL0     C 4525   1.445   5.199   9.233  0.2857  0.1694 -0.3258
  775MOL0     O 4526   1.310   5.164   9.268  0.6613  0.4919  0.5649
  775MOL0     C 4527   1.202   5.203   9.174 -0.6012 -0.1234 -0.2192
  775MOL0     C 4528   1.084   5.108   9.200 -0.2015  0.9616 -0.8160
  775MOL0     C 4529   0.954   5.171   9.139  0.1365  0.2403 -0.4165
  775MOL0     C 4530   0.839   5.076   9.116  0.7236 -0.9825 -0.5849
  775MOL0     C 4531   0.729   5.139   9.034  0.2020 -0.5742 -1.1470
  775MOL0     C 4532   0.621   5.047   9.011 -0.2588 -0.5539  0.0385
  775MOL0     C 4533   0.509   5.126   8.939  1.8702 -0.8782  0.4251
  775MOL0     C 4534   0.390   5.033   8.900 -0.8391 -0.2973  0.8946
  775MOL0    Cl 4535   0.274   5.149   8.802  0.5445 -0.3394  0.1376
  775MOL0     C 4536   1.544   5.107   9.231 -0.1229  0.4772 -0.0415
  775MOL0     C 4537   1.675   5.148   9.196  0.2353 -0.2723  0.1822
  775MOL0     O 4538   1.763   5.398   8.926 -0.5650 -0.3299 -1.0906
  775MOL0     C 4539   2.085   5.390   9.057 -0.4641 -0.2438  0.1463
  775MOL0     C 4540   2.223   5.409   9.025  0.6167  0.2241 -0.1214
  775MOL0     N 4541   2.992   5.651   9.045 -0.4021 -0.5192 -0.5545
  775MOL0     N 4542   3.098   5.587   9.094  0.2432 -0.7174  0.4349
  775MOL0     C 4543   3.925   5.601   9.877  0.0221  0.7878 -0.2244
  775MOL0     C 4544   4.017   5.635   9.970 -0.2718  0.2450  0.6300
  775MOL0     C 4545   4.463   5.654  10.112  0.4906 -0.7712  0.6217
  775MOL0     C 4546   4.428   5.727  10.230  0.1780 -0.1782  0.3030
  775MOL0     C 4547   4.519   5.762  10.327 -0.1790  0.1422 -0.7789
  775MOL0     C 4548   4.658   5.746  10.297  0.4517 -0.2122  0.1924
  775MOL0     O 4549   4.758   5.799  10.375 -0.8278 -0.5753 -0.7112
  775MOL0     C 4550   4.721   5.888  10.479 -0.0569  0.0894  0.4796
  775MOL0     C 4551   4.844   5.964  10.528  0.7407 -0.5288  0.5349
  775MOL0     C 4552   4.930   6.010  10.409 -0.5384  0.0620  0.3414
  775MOL0     C 4553   5.011   6.138  10.455 -0.3194 -1.0263 -0.1217
  775MOL0     C 4554   5.096   6.129  10.578  0.5254  0.1202  0.7903
  775MOL0     C 4555   5.183   6.128  10.662 -0.5985  0.1884  0.0057
  775MOL0     C 4556   4.693   5.670  10.189  0.3379 -0.6339 -0.5909
  775MOL0     C 4557   4.602   5.627  10.098  0.4946  0.2109 -0.7432
  775MOL0     H 4558   4.262   5.730   9.755  0.8329 -1.2592 -0.4240
  775MOL0     H 4559   4.092   5.667   9.593 -1.5472 -0.0595 -0.4091
  775MOL0     H 4560   3.884   5.756   9.546  2.6776 -1.2293 -0.4579
  775MOL0     H 4561   3.933   5.614   9.460  1.4371  2.3425  0.2596
  775MOL0     H 4562   3.645   5.650   9.543 -0.8144 -2.5863 -0.0485
  775MOL0     H 4563   3.703   5.716   9.380  2.6000 -1.1813 -0.8338
  775MOL0     H 4564   3.759   5.486   9.310  0.8306  3.9904  0.5127
  775MOL0     H 4565   3.693   5.431   9.475 -0.3439 -0.8641 -0.7322
  775MOL0     H 4566   3.474   5.503   9.438  0.0703 -1.8613  0.8797
  775MOL0     H 4567   3.524   5.560   9.271  1.0607  0.1734 -0.2297
  775MOL0     H 4568   3.588   5.345   9.193 -0.7377 -5.2905 -1.3302
  775MOL0     H 4569   3.573   5.270   9.343 -4.5474 -0.2260  2.7100
  775MOL0     H 4570   3.371   5.220   9.211  3.5515 -0.3430 -0.2653
  775MOL0     H 4571   3.345   5.285   9.367 -1.3903  0.0872 -1.2737
  775MOL0     H 4572   3.296   5.519   9.276 -1.4419 -0.9550  2.1994
  775MOL0     H 4573   3.336   5.469   9.122 -1.4311  3.0571 -0.1694
  775MOL0     H 4574   3.127   5.342   9.302 -0.3735 -2.9109 -0.6677
  775MOL0     H 4575   3.156   5.294   9.127  1.9896 -1.8222  1.5055
  775MOL0     H 4576   2.869   5.387   9.210 -0.0397 -0.4478 -1.1712
  775MOL0     H 4577   2.671   5.606   9.118  1.0865  0.5731  0.4516
  775MOL0     H 4578   2.749   5.740   9.025 -2.3176  0.2105 -2.1437
  775MOL0     H 4579   2.772   5.569   8.838 -0.0050 -2.8852 -0.5362
  775MOL0     H 4580   2.616   5.639   8.869 -1.2591 -0.6599  1.2363
  775MOL0     H 4581   2.710   5.366   8.991 -0.2615 -2.8672 -0.9160
  775MOL0     H 4582   2.641   5.386   8.830 -0.1222  1.3438 -2.3413
  775MOL0     H 4583   2.485   5.501   9.043  1.5553 -0.2778 -0.3107
  775MOL0     H 4584   2.504   5.321   9.028  0.3783  0.5070  0.6815
  775MOL0     H 4585   2.208   5.396   8.694  0.2654 -0.4309  0.0397
  775MOL0     H 4586   1.923   5.235   8.693  1.7081 -0.4140 -2.5956
  775MOL0     H 4587   1.862   5.398   8.683 -1.1921 -1.5051 -0.6841
  775MOL0     H 4588   2.002   5.363   8.600  0.7112  3.2456  0.7266
  775MOL0     H 4589   1.644   5.479   9.177  0.0460  0.8017  0.5921
  775MOL0     H 4590   1.403   5.415   9.239  1.0947  2.2357 -1.6849
  775MOL0     H 4591   1.169   5.306   9.191 -1.7807 -0.6976  1.1528
  775MOL0     H 4592   1.241   5.192   9.072  0.3729 -0.1621  0.1405
  775MOL0     H 4593   1.098   5.005   9.167 -0.9668  0.1058  1.3255
  775MOL0     H 4594   1.066   5.084   9.305 -1.3271 -1.4522 -1.4906
  775MOL0     H 4595   0.979   5.216   9.043 -0.8912  2.6225  0.3686
  775MOL0     H 4596   0.922   5.248   9.209 -1.2643 -0.9115  0.2592
  775MOL0     H 4597   0.884   4.986   9.074  1.5507 -0.1847 -1.4343
  775MOL0     H 4598   0.798   5.035   9.209 -0.0106  0.0905 -0.4138
  775MOL0     H 4599   0.773   5.163   8.936  0.8340 -2.6819 -1.4311
  775MOL0     H 4600   0.693   5.227   9.089 -0.0185 -2.0491  1.1786
  775MOL0     H 4601   0.659   4.962   8.955 -0.5774  0.0301 -1.1050
  775MOL0     H 4602   0.584   5.009   9.106 -1.8114 -4.0101 -1.7554
  775MOL0     H 4603   0.548   5.179   8.852 -0.2427 -0.2734 -0.2093
  775MOL0     H 4604   0.464   5.200   9.005 -2.3860 -0.2568 -2.7860
  775MOL0     H 4605   0.348   4.993   8.993  0.5338 -0.4684  1.4710
  775MOL0     H 4606   0.423   4.943   8.848 -2.9882 -1.0981  0.7987
  775MOL0     H 4607   1.527   5.003   9.257 -0.7201  0.4871 -0.3736
  775MOL0     H 4608   1.749   5.070   9.183  2.9673  2.1999  0.0735
  775MOL0     H 4609   2.071   5.376   9.164  0.8808  1.2258  0.5612
  775MOL0     H 4610   2.292   5.407   9.109 -0.4892  1.6482  0.8730
  775MOL0     H 4611   3.828   5.561   9.904  0.0992  0.6022 -0.2176
  775MOL0     H 4612   4.010   5.607  10.074 -2.5579  1.3664  0.8459
  775MOL0     H 4613   4.322   5.732  10.253 -0.9594 -2.9644 -3.3573
  775MOL0     H 4614   4.474   5.803  10.417 -2.6017 -2.1490 -0.8134
  775MOL0     H 4615   4.647   5.960  10.445 -2.2588 -1.2419  2.1632
  775MOL0     H 4616   4.678   5.842  10.569 -1.4749  1.8447  0.7570
  775MOL0     H 4617   4.904   5.899  10.593  0.3403 -2.5127 -0.9828
  775MOL0     H 4618   4.819   6.053  10.588 -2.0767 -2.6953  2.8840
  775MOL0     H 4619   4.861   6.011  10.324  1.0772 -1.9080 -1.0922
  775MOL0     H 4620   5.002   5.930  10.390 -0.9597 -0.9942  2.7508
  775MOL0     H 4621   4.931   6.209  10.479  1.2437  0.5934  0.4835
  775MOL0     H 4622   5.066   6.173  10.367 -2.8941  0.2923 -1.3196
  775MOL0     H 4623   5.253   6.144  10.741 -4.5099  0.1706  3.8356
  775MOL0     H 4624   4.798   5.647  10.176  0.7383  0.1741  1.0369
  775MOL0     H 4625   4.648   5.596  10.005 -2.0224  3.6444 -3.4108
  776MOL0     O 4626   1.966   4.463   3.935  0.9804  0.1590  0.4029
  776MOL0     C 4627   2.019   4.408   4.035 -0.4070  0.3255 -0.3818
  776MOL0     O 4628   1.953   4.366   4.146 -0.1044  0.4505 -0.8000
  776MOL0     C 4629   1.825   4.387   4.171  0.6954  0.6377  0.4757
  776MOL0     C 4630   1.785   4.378   4.306 -0.1422  0.2845  0.6917
  776MOL0     C 4631   1.652   4.395   4.344 -0.8225 -0.6635 -0.2804
  776MOL0     C 4632   1.559   4.432   4.252  0.8613  0.0476  0.2763
  776MOL0     O 4633   1.432   4.446   4.303 -0.3895 -0.4626 -0.0521
  776MOL0     C 4634   1.330   4.380   4.236 -0.0771 -0.1101  0.7199
  776MOL0     C 4635   1.206   4.391   4.324  0.3829  0.0658  1.1881
  776MOL0     C 4636   1.135   4.526   4.314  0.0778 -0.1798  0.0140
  776MOL0     C 4637   1.016   4.534   4.402 -0.2568 -0.4448 -0.1713
  776MOL0     C 4638   0.934   4.656   4.384  0.6972 -0.7828  0.8284
  776MOL0     C 4639   0.803   4.645   4.473  0.3315 -0.2415 -0.9248
  776MOL0     C 4640   0.693   4.755   4.466 -0.2009 -0.0498 -0.7937
  776MOL0     C 4641   0.742   4.886   4.532  0.3856 -0.3435  0.1616
  776MOL0     N 4642   0.646   5.001   4.524 -0.3014  0.5464 -0.2010
  776MOL0     C 4643   0.517   5.008   4.583 -0.3882  0.3908 -0.3185
  776MOL0     C 4644   0.461   5.105   4.509 -0.2182 -0.1561 -0.2082
  776MOL0     C 4645   0.312   5.139   4.517 -0.9860  0.3654  0.0746
  776MOL0     C 4646   0.302   5.293   4.533 -0.5532  0.0602  0.6875
  776MOL0     C 4647   0.157   5.346   4.527  0.9049 -0.4090 -0.4498
  776MOL0     C 4648   0.117   5.383   4.391  0.1419 -0.6676  0.4033
  776MOL0     O 4649  -0.019   5.418   4.397  0.3140  0.4018  0.6477
  776MOL0     C 4650  -0.041   5.555   4.402 -0.2455 -0.0356  0.6123
  776MOL0     C 4651  -0.042   5.620   4.522 -0.2419 -0.7472  0.0056
  776MOL0     C 4652  -0.044   5.756   4.525  0.0184  0.8927 -0.2765
  776MOL0     C 4653  -0.020   5.817   4.665  0.2327 -0.4694 -0.1048
  776MOL0     C 4654  -0.053   5.825   4.400 -0.2119 -0.2108 -0.5499
  776MOL0     C 4655  -0.089   5.969   4.398 -0.8268  0.1542 -0.3024
  776MOL0     O 4656  -0.074   6.055   4.511 -0.2557  0.6468 -0.7710
  776MOL0     C 4657  -0.166   6.162   4.518 -0.0008 -0.9977  0.5033
  776MOL0     C 4658  -0.123   6.292   4.547  1.2405 -0.2102  0.6487
  776MOL0     C 4659  -0.211   6.399   4.548 -0.1291 -0.6696  1.1017
  776MOL0     C 4660  -0.346   6.378   4.521  0.4673 -0.0124  0.1141
  776MOL0     O 4661  -0.442   6.470   4.537  0.5483 -0.2793  1.0089
  776MOL0     C 4662  -0.420   6.592   4.619  0.4676  0.5968  0.1032
  776MOL0     C 4663  -0.544   6.680   4.636 -0.0352  0.8634  0.5418
  776MOL0     C 4664  -0.508   6.815   4.701 -0.3832 -0.5761  0.5679
  776MOL0     C 4665  -0.599   6.852   4.814 -0.0227  0.2495  0.4600
  776MOL0     C 4666  -0.588   6.763   4.934  0.4196 -0.9910 -0.2065
  776MOL0     C 4667  -0.448   6.775   5.002  0.0950 -0.2739  0.6105
  776MOL0     C 4668  -0.402   6.920   5.045  0.5820  0.4907 -0.2186
  776MOL0     C 4669  -0.264   6.918   5.100  0.1959  0.9229  0.0414
  776MOL0    Cl 4670  -0.110   6.879   5.003  0.5963 -0.1062 -0.5523
  776MOL0     C 4671  -0.392   6.254   4.483  0.1461  1.3110  0.6661
  776MOL0     C 4672  -0.302   6.146   4.481 -0.1631  0.8372 -0.5792
  776MOL0     O 4673  -0.142   5.998   4.289 -0.2714 -0.2493 -0.1335
  776MOL0     C 4674  -0.038   5.755   4.281 -0.1067  0.0632 -0.1147
  776MOL0     C 4675  -0.043   5.620   4.278 -0.3148 -0.4863  0.2518
  776MOL0     N 4676   0.546   5.161   4.416 -0.4302  0.1382 -0.1105
  776MOL0     N 4677   0.664   5.110   4.440  0.6837  0.4555 -0.2296
  776MOL0     C 4678   1.598   4.442   4.113  0.0965 -0.0877 -0.9226
  776MOL0     C 4679   1.732   4.427   4.077 -0.3623  0.3528 -0.0843
  776MOL0     C 4680   2.171   4.401   4.031  1.2197 -0.2416 -0.0545
  776MOL0     C 4681   2.243   4.378   4.145  0.5692 -0.4420 -0.9926
  776MOL0     C 4682   2.376   4.365   4.147 -0.2488  0.1218 -0.2063
  776MOL0     C 4683   2.457   4.385   4.029  0.8007  0.1039 -0.1741
  776MOL0     O 4684   2.594   4.379   4.029  0.3418 -0.2124 -0.6062
  776MOL0     C 4685   2.652   4.335   3.910 -0.1382  0.5194  0.3718
  776MOL0     C 4686   2.701   4.453   3.818 -0.2842  0.1226  0.5043
  776MOL0     C 4687   2.707   4.400   3.669 -0.4296  0.0638 -0.8790
  776MOL0     C 4688   2.807   4.481   3.583 -0.5874  0.0631  0.1110
  776MOL0     C 4689   2.744   4.605   3.532  0.8621 -0.3818  0.5517
  776MOL0     C 4690   2.691   4.718   3.511  0.1898 -0.2787 -0.4991
  776MOL0     C 4691   2.381   4.431   3.911  0.0734 -0.2455 -0.7059
  776MOL0     C 4692   2.244   4.450   3.917 -0.9433  0.5022 -0.1809
  776MOL0     H 4693   1.869   4.352   4.369  1.9334  1.4988 -1.4091
  776MOL0     H 4694   1.640   4.378   4.450  3.0243  0.4736  0.4952
  776MOL0     H 4695   1.310   4.409   4.132  0.8732 -1.5452  0.1106
  776MOL0     H 4696   1.354   4.274   4.222 -1.5279 -0.5310  1.2744
  776MOL0     H 4697   1.129   4.322   4.288  0.3167  0.9017 -0.3316
  776MOL0     H 4698   1.224   4.357   4.427 -3.8019 -0.3363  1.9855
  776MOL0     H 4699   1.200   4.612   4.338  0.9215 -1.0302  0.8543
  776MOL0     H 4700   1.110   4.532   4.208  3.8016  3.0166 -0.9535
  776MOL0     H 4701   0.954   4.451   4.367  0.1121 -1.3818  1.2965
  776MOL0     H 4702   1.056   4.523   4.503 -2.2454  1.2708  0.8655
  776MOL0     H 4703   0.982   4.751   4.409 -1.5038  1.5083 -2.7623
  776MOL0     H 4704   0.904   4.661   4.279  2.4589 -4.7850 -0.0902
  776MOL0     H 4705   0.747   4.553   4.459  2.2991 -2.0828  2.0687
  776MOL0     H 4706   0.841   4.642   4.576  1.5799 -1.1316 -1.3823
  776MOL0     H 4707   0.659   4.760   4.362  1.4598 -1.9125 -1.5134
  776MOL0     H 4708   0.612   4.725   4.534 -1.3122 -1.7401 -2.7394
  776MOL0     H 4709   0.828   4.921   4.474 -0.4344  2.7126  0.5804
  776MOL0     H 4710   0.779   4.861   4.631 -2.3276 -0.9348  1.1015
  776MOL0     H 4711   0.463   4.948   4.656 -0.4770  0.2737 -0.4796
  776MOL0     H 4712   0.263   5.094   4.430  2.2364  1.3065 -2.4537
  776MOL0     H 4713   0.273   5.093   4.608  0.9210  2.1658  1.9313
  776MOL0     H 4714   0.354   5.342   4.450 -1.5242  4.6130  2.4523
  776MOL0     H 4715   0.361   5.332   4.616 -0.2243  0.8214  0.1039
  776MOL0     H 4716   0.155   5.439   4.583  2.6855 -1.7043  1.9559
  776MOL0     H 4717   0.089   5.269   4.566  1.4096 -0.4434  0.3711
  776MOL0     H 4718   0.139   5.302   4.321  1.4834 -0.3178  0.4085
  776MOL0     H 4719   0.162   5.474   4.352 -2.9232  1.3596  1.2316
  776MOL0     H 4720  -0.025   5.565   4.614 -0.0254 -1.1588 -0.2753
  776MOL0     H 4721   0.068   5.882   4.667 -0.5444  0.8183 -2.5862
  776MOL0     H 4722  -0.109   5.875   4.694  1.0494  0.6548  0.2255
  776MOL0     H 4723   0.008   5.738   4.736 -1.1887 -1.3488 -0.4891
  776MOL0     H 4724  -0.020   6.305   4.578  1.2859  2.1343 -0.2834
  776MOL0     H 4725  -0.165   6.491   4.582  0.4600 -0.8314  0.7591
  776MOL0     H 4726  -0.382   6.549   4.712 -1.3009 -1.6027 -0.1013
  776MOL0     H 4727  -0.349   6.667   4.582 -1.7698  2.6958 -0.2039
  776MOL0     H 4728  -0.588   6.708   4.540  0.4379 -0.0888  0.0292
  776MOL0     H 4729  -0.621   6.620   4.686 -1.2151  1.6554 -0.2779
  776MOL0     H 4730  -0.513   6.895   4.627 -1.0397 -2.0638 -1.0583
  776MOL0     H 4731  -0.406   6.819   4.741  1.3536  1.1442 -3.4164
  776MOL0     H 4732  -0.588   6.959   4.834  2.6736  0.1024  0.1522
  776MOL0     H 4733  -0.694   6.829   4.764  1.5045 -1.4564 -1.9259
  776MOL0     H 4734  -0.615   6.657   4.934  1.4895 -1.3245 -2.5922
  776MOL0     H 4735  -0.651   6.815   5.006  3.5016  1.7420  0.7513
  776MOL0     H 4736  -0.437   6.715   5.093  4.2461  1.3573  1.3859
  776MOL0     H 4737  -0.379   6.744   4.924 -0.3312  1.7830 -0.6547
  776MOL0     H 4738  -0.485   6.950   5.110 -0.0625 -1.9028  0.1920
  776MOL0     H 4739  -0.386   6.981   4.956  1.3235 -1.0046 -1.1678
  776MOL0     H 4740  -0.262   6.849   5.185  0.0379 -1.9223 -2.1283
  776MOL0     H 4741  -0.245   7.018   5.140  0.7460  0.1924  1.7144
  776MOL0     H 4742  -0.496   6.253   4.454  0.4667  4.5777 -1.0035
  776MOL0     H 4743  -0.349   6.050   4.462 -0.9234  1.0650  0.0575
  776MOL0     H 4744  -0.039   5.811   4.188 -1.5254 -0.7092 -0.5841
  776MOL0     H 4745  -0.042   5.562   4.187  0.8798 -0.4640  0.2276
  776MOL0     H 4746   1.527   4.472   4.036  0.0656  0.6509 -0.6169
  776MOL0     H 4747   1.749   4.444   3.971 -0.7193  2.6010  0.1742
  776MOL0     H 4748   2.200   4.340   4.237 -2.0091 -2.0295 -2.7124
  776MOL0     H 4749   2.432   4.333   4.234  0.3513 -0.0898 -0.6659
  776MOL0     H 4750   2.734   4.269   3.938  0.3354  1.6688  1.8245
  776MOL0     H 4751   2.586   4.269   3.853  1.0008 -1.4070  1.2057
  776MOL0     H 4752   2.797   4.494   3.851  0.2917  0.0971 -1.0821
  776MOL0     H 4753   2.628   4.535   3.819  0.4066  0.8334 -1.6827
  776MOL0     H 4754   2.611   4.406   3.617  0.2368 -2.4490 -2.5619
  776MOL0     H 4755   2.738   4.296   3.681 -1.4081 -0.0992  0.3912
  776MOL0     H 4756   2.847   4.429   3.495 -1.3061  0.9597 -0.7806
  776MOL0     H 4757   2.895   4.514   3.639 -1.4937  0.9140  1.0875
  776MOL0     H 4758   2.632   4.807   3.509 -2.3691 -1.8445  1.0174
  776MOL0     H 4759   2.430   4.479   3.828  1.7980 -0.3528  0.2098
  776MOL0     H 4760   2.198   4.494   3.829 -1.7402  1.5659  0.7327
  777MOL0     O 4761   7.367   7.156   2.363  0.6750  0.6263  0.3302
  777MOL0     C 4762   7.346   7.213   2.473 -0.7244 -0.0947  0.7135
  777MOL0     O 4763   7.438   7.250   2.565  0.2993 -0.6199 -0.2683
  777MOL0     C 4764   7.558   7.189   2.571  0.3622  0.0697  0.4420
  777MOL0     C 4765   7.553   7.055   2.590  0.0236  0.5818 -0.0996
  777MOL0     C 4766   7.673   6.976   2.597  1.0089  0.2770  0.5362
  777MOL0     C 4767   7.798   7.038   2.601  0.8649  0.0137  0.4262
  777MOL0     O 4768   7.913   6.970   2.635 -0.3543  0.6044  0.1502
  777MOL0     C 4769   8.030   6.994   2.561 -0.8320  0.4413  0.7587
  777MOL0     C 4770   8.122   6.861   2.559  0.7720 -0.5499 -0.6989
  777MOL0     C 4771   8.258   6.882   2.482 -0.3365 -0.9761 -0.2013
  777MOL0     C 4772   8.360   6.777   2.527 -0.9318  0.2270  0.1465
  777MOL0     C 4773   8.498   6.794   2.480  0.0796  0.1648 -0.3278
  777MOL0     C 4774   8.577   6.664   2.505  0.5977  0.7169  1.0677
  777MOL0     C 4775   8.721   6.691   2.470 -1.2266  0.1986  0.4733
  777MOL0     C 4776   8.820   6.578   2.498  0.2374 -0.6496  0.1727
  777MOL0     N 4777   8.836   6.540   2.644 -0.0221 -0.4623 -0.7941
  777MOL0     C 4778   8.889   6.618   2.738 -1.0615 -0.4699  0.1374
  777MOL0     C 4779   8.889   6.545   2.847 -0.3810  0.2822 -0.6589
  777MOL0     C 4780   8.941   6.587   2.979 -0.0046  1.0438  0.8840
  777MOL0     C 4781   8.861   6.706   3.039 -0.7679  0.4728 -0.3232
  777MOL0     C 4782   8.903   6.843   2.978 -0.1344  0.1547 -0.4557
  777MOL0     C 4783   8.930   6.943   3.087 -0.0169 -0.3069 -0.3867
  777MOL0     O 4784   9.050   6.890   3.150 -0.5123  0.4294 -0.2075
  777MOL0     C 4785   9.088   6.955   3.265  0.5323  0.3112  0.3195
  777MOL0     C 4786   9.055   7.091   3.291 -0.8825  0.7384  0.4236
  777MOL0     C 4787   9.090   7.154   3.408 -0.2641  0.4388  0.2761
  777MOL0     C 4788   9.046   7.290   3.422  0.4477  0.5120  0.4314
  777MOL0     C 4789   9.166   7.083   3.511 -0.5073 -0.5387 -0.9534
  777MOL0     C 4790   9.217   7.148   3.640 -0.1609  0.5343  0.6360
  777MOL0     O 4791   9.250   7.066   3.746  0.4577 -1.2481  0.4142
  777MOL0     C 4792   9.322   7.104   3.854  0.5117 -0.6663 -0.1771
  777MOL0     C 4793   9.290   7.214   3.936  0.2079 -0.7077  0.3284
  777MOL0     C 4794   9.364   7.230   4.066  0.1628  0.3625  0.5169
  777MOL0     C 4795   9.468   7.146   4.105  2.1716  0.4134  0.0940
  777MOL0     O 4796   9.542   7.191   4.208  0.6406 -0.5434 -0.7539
  777MOL0     C 4797   9.669   7.130   4.230 -0.7209  0.2184  0.5642
  777MOL0     C 4798   9.731   7.192   4.356  0.2688 -0.4054 -1.0804
  777MOL0     C 4799   9.856   7.122   4.395 -0.7493  0.0985  0.5851
  777MOL0     C 4800   9.869   7.101   4.553 -1.0619  0.6581  0.1187
  777MOL0     C 4801   9.885   7.230   4.638 -0.6717  0.2204  1.1293
  777MOL0     C 4802   9.911   7.184   4.785 -0.0281 -0.1480  0.1763
  777MOL0     C 4803   9.864   7.290   4.889  0.3143  0.4425  0.4648
  777MOL0     C 4804   9.919   7.268   5.031 -0.4551  0.0971 -1.1965
  777MOL0    Cl 4805   9.883   7.106   5.100  0.3314 -0.3465 -0.0233
  777MOL0     C 4806   9.499   7.041   4.016  0.7191  0.1820  0.1285
  777MOL0     C 4807   9.426   7.015   3.898  0.6736  0.0161 -0.2259
  777MOL0     O 4808   9.241   7.268   3.626  0.2733  0.4489 -0.9531
  777MOL0     C 4809   9.201   6.949   3.481 -0.4275  0.1627 -0.9294
  777MOL0     C 4810   9.154   6.888   3.365 -0.1766 -0.1285  0.1382
  777MOL0     N 4811   8.819   6.421   2.822 -0.8823 -0.3456 -0.0736
  777MOL0     N 4812   8.808   6.416   2.694 -0.7044 -0.0253 -0.3532
  777MOL0     C 4813   7.798   7.178   2.581  0.0808  0.8035 -0.2984
  777MOL0     C 4814   7.681   7.252   2.555  0.0064 -0.4263  0.6307
  777MOL0     C 4815   7.215   7.276   2.506 -0.3918  0.7431  0.1265
  777MOL0     C 4816   7.188   7.326   2.634  1.1968  0.3085 -0.1744
  777MOL0     C 4817   7.063   7.373   2.661  0.1902 -0.6573  0.5813
  777MOL0     C 4818   6.963   7.389   2.555  0.8149  0.1967  0.0585
  777MOL0     O 4819   6.836   7.442   2.571  0.2079  0.5503 -0.5498
  777MOL0     C 4820   6.816   7.509   2.700 -0.0688 -0.0318 -0.4552
  777MOL0     C 4821   6.689   7.587   2.690 -0.0135 -0.2598  0.4253
  777MOL0     C 4822   6.686   7.678   2.561  0.7206 -0.5780  0.4449
  777MOL0     C 4823   6.547   7.745   2.546  1.2496 -0.0661  0.9321
  777MOL0     C 4824   6.536   7.848   2.652  0.4060  0.3044 -0.3523
  777MOL0     C 4825   6.527   7.924   2.745 -0.1144 -0.8973  0.6706
  777MOL0     C 4826   7.000   7.355   2.429 -0.4570  1.1793  1.0227
  777MOL0     C 4827   7.124   7.292   2.403 -0.6156  0.1442 -0.0697
  777MOL0     H 4828   7.458   7.002   2.589  0.5069 -0.3264 -0.8728
  777MOL0     H 4829   7.676   6.870   2.619  2.3583 -0.3069 -2.0749
  777MOL0     H 4830   8.013   7.032   2.460 -4.3504 -1.9515  0.2813
  777MOL0     H 4831   8.100   7.061   2.612  0.2882 -0.7826  0.8928
  777MOL0     H 4832   8.144   6.830   2.662 -0.2201  2.4855  0.5459
  777MOL0     H 4833   8.071   6.775   2.515 -1.8396  0.1337  0.8249
  777MOL0     H 4834   8.251   6.871   2.373  0.5827 -0.2176 -0.3464
  777MOL0     H 4835   8.287   6.985   2.501  0.8826 -1.2602 -0.4089
  777MOL0     H 4836   8.362   6.760   2.635 -0.1101 -1.0979 -0.0548
  777MOL0     H 4837   8.327   6.682   2.484  0.1213 -0.5131  0.9586
  777MOL0     H 4838   8.518   6.833   2.380  0.2053  1.8387  0.3081
  777MOL0     H 4839   8.536   6.875   2.544  2.1821  0.2135 -1.5465
  777MOL0     H 4840   8.576   6.646   2.613  1.4505 -0.6703  0.8722
  777MOL0     H 4841   8.529   6.578   2.456  1.3537 -0.6531  2.6467
  777MOL0     H 4842   8.731   6.707   2.362 -2.5327  0.4534  0.3726
  777MOL0     H 4843   8.750   6.784   2.519  0.1100 -0.3268  0.7265
  777MOL0     H 4844   8.911   6.596   2.441 -0.6757 -1.6280 -1.6928
  777MOL0     H 4845   8.772   6.497   2.442  1.6416 -0.5119 -1.2728
  777MOL0     H 4846   8.941   6.713   2.728  0.0704 -0.9208  1.3371
  777MOL0     H 4847   8.920   6.501   3.044 -3.7868  0.7324 -0.5222
  777MOL0     H 4848   9.048   6.593   2.956 -0.2798 -0.5305 -1.0618
  777MOL0     H 4849   8.889   6.703   3.145 -0.3495 -1.3556 -0.4472
  777MOL0     H 4850   8.756   6.678   3.027 -0.6068 -2.3932  3.2168
  777MOL0     H 4851   8.835   6.885   2.903  3.5336  2.5739 -2.7658
  777MOL0     H 4852   8.999   6.829   2.927 -1.3898 -0.9021 -2.6960
  777MOL0     H 4853   8.847   6.950   3.158  1.2259 -1.0361  1.1798
  777MOL0     H 4854   8.945   7.042   3.044  1.0117  0.7134  2.1594
  777MOL0     H 4855   9.002   7.145   3.213 -0.7926  0.6850  0.3259
  777MOL0     H 4856   9.133   7.357   3.423  1.1694 -0.4160  1.6280
  777MOL0     H 4857   8.970   7.307   3.345 -1.2476 -2.2797  1.3280
  777MOL0     H 4858   8.999   7.302   3.520 -0.1322 -5.2936  1.2059
  777MOL0     H 4859   9.216   7.286   3.903  0.0468 -2.1382 -2.7603
  777MOL0     H 4860   9.347   7.310   4.137  2.2377 -0.2609  1.7808
  777MOL0     H 4861   9.656   7.023   4.241 -1.9794 -0.0897 -2.8077
  777MOL0     H 4862   9.738   7.156   4.149 -1.1294 -1.1868 -0.2591
  777MOL0     H 4863   9.754   7.298   4.342 -0.7952  0.2780  1.6813
  777MOL0     H 4864   9.652   7.178   4.430 -1.4343  1.6769 -2.3699
  777MOL0     H 4865   9.937   7.187   4.359  2.1810 -3.2737  0.5582
  777MOL0     H 4866   9.871   7.033   4.334  0.6401  0.7225 -0.0365
  777MOL0     H 4867   9.787   7.045   4.598  1.3129 -0.5493  3.2771
  777MOL0     H 4868   9.955   7.037   4.574 -0.0894  2.0216  0.3900
  777MOL0     H 4869   9.795   7.292   4.626 -0.1128  1.1496  1.5885
  777MOL0     H 4870   9.970   7.284   4.595 -1.2631 -0.5556 -1.1970
  777MOL0     H 4871   9.863   7.088   4.803 -1.9216  0.3264 -1.9121
  777MOL0     H 4872  10.016   7.167   4.810  0.2260 -0.0030 -0.7639
  777MOL0     H 4873   9.755   7.286   4.901  0.3473 -2.6343  0.4885
  777MOL0     H 4874   9.889   7.390   4.852  3.7226 -0.1951  0.7403
  777MOL0     H 4875   9.879   7.348   5.093  1.5544  1.2535 -1.3075
  777MOL0     H 4876  10.027   7.283   5.024 -0.4917  0.8526 -0.2574
  777MOL0     H 4877   9.581   6.979   4.051  0.1553 -1.4165 -1.2485
  777MOL0     H 4878   9.430   6.927   3.834 -3.5199  0.8105 -1.9224
  777MOL0     H 4879   9.249   6.880   3.550 -1.4404 -1.9599 -2.2282
  777MOL0     H 4880   9.169   6.783   3.341 -0.6508  0.0441 -0.9764
  777MOL0     H 4881   7.900   7.215   2.575  0.6706 -0.7874 -0.4036
  777MOL0     H 4882   7.682   7.357   2.529  0.1058 -1.1714 -3.0150
  777MOL0     H 4883   7.263   7.307   2.711 -0.3799 -1.0164  1.1091
  777MOL0     H 4884   7.049   7.426   2.754 -0.5777  3.0563 -1.4342
  777MOL0     H 4885   6.804   7.435   2.779  1.9163  0.5467  0.4414
  777MOL0     H 4886   6.903   7.574   2.718  2.5209 -3.4124  0.1983
  777MOL0     H 4887   6.675   7.649   2.778  1.5465 -0.2320  0.6804
  777MOL0     H 4888   6.606   7.516   2.678 -1.5962  1.6413 -0.3594
  777MOL0     H 4889   6.715   7.624   2.471  3.0089 -0.1950  0.8941
  777MOL0     H 4890   6.763   7.756   2.561  0.5627 -0.4226  0.1409
  777MOL0     H 4891   6.470   7.669   2.562 -0.6028  1.1831 -1.5453
  777MOL0     H 4892   6.525   7.789   2.449  0.5157 -0.8513  0.7273
  777MOL0     H 4893   6.525   8.007   2.812 -1.3460  0.3945 -0.8909
  777MOL0     H 4894   6.926   7.362   2.350 -0.2914  1.5649  0.8995
  777MOL0     H 4895   7.151   7.262   2.303  1.0449  1.3454 -0.0112
  778MOL0     O 4896   1.085   7.827   2.665 -0.3282  0.1168  1.1981
  778MOL0     C 4897   1.066   7.887   2.556  0.5371 -0.2801 -0.9013
  778MOL0     O 4898   0.947   7.894   2.492  0.2930  0.7402  0.4666
  778MOL0     C 4899   0.843   7.810   2.537  0.1765 -0.8495  0.3801
  778MOL0     C 4900   0.837   7.679   2.598 -1.5298 -0.7418  0.0669
  778MOL0     C 4901   0.722   7.612   2.614 -0.8879 -0.0474  0.0383
  778MOL0     C 4902   0.597   7.672   2.599  0.8112  1.0232 -0.0125
  778MOL0     O 4903   0.476   7.604   2.621 -0.5316 -0.6377 -0.1717
  778MOL0     C 4904   0.369   7.683   2.693 -0.3994 -0.3577  0.5646
  778MOL0     C 4905   0.239   7.612   2.688 -0.5088  0.4932 -0.9263
  778MOL0     C 4906   0.135   7.671   2.785 -1.1184  0.0443 -0.2533
  778MOL0     C 4907  -0.008   7.655   2.755 -0.5347  0.2753  0.1931
  778MOL0     C 4908  -0.100   7.736   2.840  0.4244 -0.3732  0.0506
  778MOL0     C 4909  -0.244   7.736   2.782  1.2986  0.5744  0.3870
  778MOL0     C 4910  -0.342   7.835   2.860  0.0490  0.2009  0.1091
  778MOL0     C 4911  -0.482   7.827   2.793  0.0835 -0.6840  0.8904
  778MOL0     N 4912  -0.537   7.698   2.842 -0.4033 -0.0901 -0.2382
  778MOL0     C 4913  -0.536   7.657   2.974 -0.8577  0.6180 -0.0675
  778MOL0     C 4914  -0.617   7.547   2.968 -0.1804 -1.1565  0.8035
  778MOL0     C 4915  -0.660   7.461   3.082  0.0312 -0.0353 -0.3445
  778MOL0     C 4916  -0.567   7.347   3.125 -0.0971 -0.1154 -0.5694
  778MOL0     C 4917  -0.438   7.400   3.168 -0.7583 -1.1838 -0.2670
  778MOL0     C 4918  -0.323   7.296   3.173 -0.3383  0.1763  0.3351
  778MOL0     O 4919  -0.203   7.363   3.222 -0.1938  0.4010  0.7250
  778MOL0     C 4920  -0.090   7.305   3.167  0.1607  0.5882 -0.4245
  778MOL0     C 4921  -0.042   7.189   3.230 -0.4648 -0.4585 -0.0270
  778MOL0     C 4922   0.080   7.126   3.180 -0.0934  0.6184 -0.4962
  778MOL0     C 4923   0.114   6.995   3.254  0.7878 -0.6622  0.1338
  778MOL0     C 4924   0.150   7.186   3.073  0.0236  0.5993  0.6362
  778MOL0     C 4925   0.267   7.121   3.005  0.5861 -0.4069  0.3283
  778MOL0     O 4926   0.310   7.197   2.898  1.4046  0.3509 -0.3182
  778MOL0     C 4927   0.440   7.194   2.866 -0.4866 -0.3811  0.3655
  778MOL0     C 4928   0.476   7.230   2.733  0.9401  0.0724  0.3188
  778MOL0     C 4929   0.609   7.232   2.686  0.4145  0.8843  0.2348
  778MOL0     C 4930   0.711   7.204   2.775 -0.8457  0.1432 -0.2922
  778MOL0     O 4931   0.851   7.190   2.753 -0.1381  0.5073 -0.0163
  778MOL0     C 4932   0.907   7.201   2.628 -0.4402 -0.0210 -0.1156
  778MOL0     C 4933   1.059   7.209   2.660  0.0636 -0.5821 -0.9341
  778MOL0     C 4934   1.096   7.340   2.730 -0.0858  1.2019  0.1437
  778MOL0     C 4935   1.086   7.340   2.890 -0.3839 -0.1102  0.0934
  778MOL0     C 4936   1.083   7.487   2.950  0.8414  0.2635 -0.6949
  778MOL0     C 4937   1.219   7.536   2.956 -1.1087  0.3798  0.6379
  778MOL0     C 4938   1.215   7.690   2.972  0.2760 -0.3568 -0.1222
  778MOL0     C 4939   1.358   7.744   2.994  0.9641  0.7171  0.6911
  778MOL0    Cl 4940   1.452   7.718   2.846 -0.2298  0.0431 -0.0652
  778MOL0     C 4941   0.675   7.175   2.912  0.9351 -0.2706  0.4660
  778MOL0     C 4942   0.545   7.171   2.961  0.4393  0.2229 -0.1528
  778MOL0     O 4943   0.321   7.025   3.055  0.3683 -0.0953 -0.2043
  778MOL0     C 4944   0.101   7.304   3.013  0.8386 -0.1916  0.2279
  778MOL0     C 4945  -0.031   7.351   3.056 -0.0906 -0.7745 -0.2655
  778MOL0     N 4946  -0.656   7.519   2.836 -0.1282  0.2892 -0.8504
  778MOL0     N 4947  -0.603   7.604   2.762  0.8618  0.2900 -0.0388
  778MOL0     C 4948   0.596   7.799   2.544 -0.4536 -0.7152  0.6125
  778MOL0     C 4949   0.724   7.868   2.506  0.8560  0.0121 -0.0947
  778MOL0     C 4950   1.173   7.970   2.499 -0.8102 -0.0249  0.0911
  778MOL0     C 4951   1.174   8.039   2.369  0.4709  0.0414 -0.5002
  778MOL0     C 4952   1.277   8.116   2.322  0.7201  1.0348  0.0964
  778MOL0     C 4953   1.396   8.119   2.389 -0.6177 -0.0009  0.3799
  778MOL0     O 4954   1.500   8.214   2.354 -0.0406  0.4189  0.0077
  778MOL0     C 4955   1.633   8.182   2.358 -0.4502 -0.1579 -0.3677
  778MOL0     C 4956   1.720   8.316   2.353 -0.6528 -0.3296 -0.0281
  778MOL0     C 4957   1.697   8.402   2.225 -0.7729 -0.0328 -0.2894
  778MOL0     C 4958   1.783   8.352   2.118 -0.4743  0.0964  0.1849
  778MOL0     C 4959   1.734   8.412   1.999  0.8809 -0.3928  0.9669
  778MOL0     C 4960   1.693   8.448   1.887  0.5961 -0.0290 -0.7621
  778MOL0     C 4961   1.405   8.046   2.503 -0.9931 -0.0782 -0.4735
  778MOL0     C 4962   1.306   7.977   2.554  0.0872  0.1204  0.4581
  778MOL0     H 4963   0.931   7.637   2.632  0.7163  2.2068 -1.9350
  778MOL0     H 4964   0.711   7.510   2.650 -0.7934  0.2482  0.9284
  778MOL0     H 4965   0.402   7.716   2.792  2.5350  0.1709 -0.4939
  778MOL0     H 4966   0.353   7.776   2.638  2.7468 -2.1363 -3.9123
  778MOL0     H 4967   0.198   7.607   2.587  0.7215 -1.3157 -1.3753
  778MOL0     H 4968   0.262   7.507   2.709  1.4401  0.8086 -1.3081
  778MOL0     H 4969   0.156   7.629   2.884 -0.1518  1.4913  0.1923
  778MOL0     H 4970   0.146   7.779   2.790 -4.0470  0.3734  1.1560
  778MOL0     H 4971  -0.013   7.681   2.649 -1.8105 -3.3958 -0.7857
  778MOL0     H 4972  -0.038   7.551   2.770  3.3647 -0.9659  0.6458
  778MOL0     H 4973  -0.102   7.693   2.941 -3.0467 -0.4636  0.0568
  778MOL0     H 4974  -0.061   7.838   2.843  0.5556 -0.4007  3.0686
  778MOL0     H 4975  -0.243   7.763   2.676 -1.0136  0.7590  0.3643
  778MOL0     H 4976  -0.283   7.634   2.785  1.4700  0.4386 -1.3164
  778MOL0     H 4977  -0.347   7.809   2.966  1.2141 -0.1880  0.0918
  778MOL0     H 4978  -0.310   7.939   2.867  3.5358 -0.7148 -0.2992
  778MOL0     H 4979  -0.491   7.811   2.685 -4.4687  1.4394  0.7289
  778MOL0     H 4980  -0.545   7.910   2.827 -0.2549  0.6846 -2.7182
  778MOL0     H 4981  -0.488   7.701   3.062  2.1902 -1.7007 -0.4152
  778MOL0     H 4982  -0.676   7.522   3.171 -3.4032  1.7755 -2.0077
  778MOL0     H 4983  -0.757   7.419   3.052  0.1579  2.1864 -4.6468
  778MOL0     H 4984  -0.560   7.271   3.046  0.9067  0.2873 -0.8878
  778MOL0     H 4985  -0.614   7.296   3.209 -2.5188  2.5247 -0.1937
  778MOL0     H 4986  -0.441   7.439   3.270 -3.0584  0.0930 -0.7459
  778MOL0     H 4987  -0.417   7.488   3.107 -0.9895  0.2057  1.5778
  778MOL0     H 4988  -0.311   7.257   3.072  0.3129  1.1271  0.0399
  778MOL0     H 4989  -0.343   7.222   3.251  1.1574  2.8390  3.4919
  778MOL0     H 4990  -0.093   7.145   3.315 -0.6425 -0.8517 -0.3318
  778MOL0     H 4991   0.220   6.975   3.269  1.2255 -0.1478 -1.9413
  778MOL0     H 4992   0.057   6.995   3.348 -0.3896 -0.7643 -0.5599
  778MOL0     H 4993   0.076   6.914   3.191 -0.5046  1.5612 -2.1375
  778MOL0     H 4994   0.398   7.264   2.666  1.3380  0.2952 -0.0343
  778MOL0     H 4995   0.635   7.245   2.582 -1.3994 -2.7896 -0.8911
  778MOL0     H 4996   0.896   7.108   2.571 -0.1359  0.2158 -0.5728
  778MOL0     H 4997   0.881   7.290   2.570  3.3229  0.0491 -2.0227
  778MOL0     H 4998   1.104   7.122   2.709  0.8998 -0.5126 -1.5539
  778MOL0     H 4999   1.112   7.203   2.565  0.0803  2.4202 -1.2063
  778MOL0     H 5000   1.039   7.412   2.669 -1.3263 -1.1931 -1.7407
  778MOL0     H 5001   1.199   7.367   2.704 -0.3633  2.3426  0.2016
  778MOL0     H 5002   0.990   7.296   2.918  0.7906 -2.2613  1.0175
  778MOL0     H 5003   1.154   7.270   2.939 -0.1153 -0.5900 -0.9332
  778MOL0     H 5004   1.039   7.508   3.048  0.5999  0.8878 -0.9369
  778MOL0     H 5005   1.021   7.550   2.886 -1.1559 -0.1627  0.7394
  778MOL0     H 5006   1.279   7.491   3.036 -0.4297 -0.0535 -0.0994
  778MOL0     H 5007   1.272   7.502   2.866 -0.6850 -1.4436  1.5293
  778MOL0     H 5008   1.153   7.736   3.050  0.7207  1.2461 -0.6771
  778MOL0     H 5009   1.166   7.723   2.880  0.0613 -1.5703 -0.4620
  778MOL0     H 5010   1.404   7.683   3.073  4.5036  1.8372 -0.3279
  778MOL0     H 5011   1.349   7.843   3.040  0.3285 -0.4362  3.2727
  778MOL0     H 5012   0.755   7.152   2.982  1.6044 -1.1869 -0.5668
  778MOL0     H 5013   0.538   7.142   3.065  1.7059 -0.2085 -0.1752
  778MOL0     H 5014   0.147   7.353   2.928  1.3807  0.6649  0.9860
  778MOL0     H 5015  -0.082   7.438   3.017 -1.1305  0.2765  3.1156
  778MOL0     H 5016   0.504   7.838   2.502  0.9157  1.6523 -0.3558
  778MOL0     H 5017   0.738   7.962   2.455  2.4140 -1.1594 -1.9577
  778MOL0     H 5018   1.089   8.027   2.303  1.2334 -1.7947 -1.2167
  778MOL0     H 5019   1.276   8.174   2.230  5.2612 -0.0075 -0.8819
  778MOL0     H 5020   1.653   8.139   2.456 -0.5734  1.7794  0.5491
  778MOL0     H 5021   1.680   8.111   2.289  0.9337  1.6050 -1.3301
  778MOL0     H 5022   1.826   8.291   2.359 -1.0410 -1.8954  0.7381
  778MOL0     H 5023   1.706   8.374   2.445 -0.2485  0.3366 -0.3758
  778MOL0     H 5024   1.711   8.509   2.246 -2.0238 -0.0001  0.4260
  778MOL0     H 5025   1.595   8.379   2.194 -0.0614 -2.7963 -0.8376
  778MOL0     H 5026   1.788   8.243   2.113  1.3404  0.2124 -2.0991
  778MOL0     H 5027   1.883   8.396   2.126 -0.0930 -0.8026  0.4752
  778MOL0     H 5028   1.662   8.482   1.791  1.0798  2.2915 -0.1650
  778MOL0     H 5029   1.498   8.044   2.560 -1.0207  1.3771 -0.3298
  778MOL0     H 5030   1.327   7.924   2.646 -0.6192 -0.1937  0.4451
  779MOL0     O 5031   4.771   7.765   8.658 -0.1183  1.2418 -0.3530
  779MOL0     C 5032   4.786   7.661   8.730 -0.1887 -0.8124  0.3787
  779MOL0     O 5033   4.700   7.558   8.738 -0.0574 -0.0050  0.2667
  779MOL0     C 5034   4.605   7.533   8.644 -0.4928  0.0094  1.0203
  779MOL0     C 5035   4.499   7.452   8.663 -0.9432  0.3979  0.2146
  779MOL0     C 5036   4.429   7.385   8.568  0.7042  0.5114 -0.1396
  779MOL0     C 5037   4.451   7.413   8.434 -0.9102 -0.2075  0.2689
  779MOL0     O 5038   4.361   7.361   8.343  0.0422 -0.7070 -0.0803
  779MOL0     C 5039   4.401   7.313   8.219  0.9387  0.1487 -0.4175
  779MOL0     C 5040   4.339   7.407   8.122  0.0705 -0.5503 -0.1937
  779MOL0     C 5041   4.355   7.381   7.967  0.7775 -0.0487  0.6646
  779MOL0     C 5042   4.282   7.253   7.936  0.6870  0.1049 -0.2657
  779MOL0     C 5043   4.281   7.235   7.779 -0.9734  0.9579 -0.4269
  779MOL0     C 5044   4.240   7.095   7.741 -0.0481  0.2756 -0.2609
  779MOL0     C 5045   4.206   7.072   7.590  0.2918 -0.2326  0.8860
  779MOL0     C 5046   4.194   6.917   7.552  0.0647 -1.3028 -0.6169
  779MOL0     N 5047   4.116   6.894   7.426 -0.2382  0.5191 -0.2859
  779MOL0     C 5048   3.981   6.862   7.422 -0.5936 -0.4290 -1.3164
  779MOL0     C 5049   3.952   6.883   7.294  0.7699 -1.1276 -0.2939
  779MOL0     C 5050   3.813   6.884   7.233 -0.2979  1.1115  0.7424
  779MOL0     C 5051   3.760   6.733   7.188 -0.5352 -0.1964  0.1876
  779MOL0     C 5052   3.620   6.736   7.107  0.2251  0.0793 -0.0191
  779MOL0     C 5053   3.521   6.826   7.168 -0.0596  0.5140  0.1083
  779MOL0     O 5054   3.393   6.806   7.103 -0.4455 -0.5987 -0.5072
  779MOL0     C 5055   3.288   6.876   7.162  0.2951  0.2702 -0.1556
  779MOL0     C 5056   3.157   6.832   7.135 -0.0792  0.7722 -0.4980
  779MOL0     C 5057   3.041   6.901   7.175 -0.4069 -0.5289  0.5552
  779MOL0     C 5058   2.910   6.822   7.161 -0.1248  0.1498  0.5396
  779MOL0     C 5059   3.061   7.032   7.225  0.0504 -0.1940  0.3675
  779MOL0     C 5060   2.955   7.136   7.243  1.3339  0.0440  0.4483
  779MOL0     O 5061   2.827   7.113   7.191 -0.4796 -0.1080  0.1463
  779MOL0     C 5062   2.719   7.190   7.230  0.6242 -0.2935 -0.1388
  779MOL0     C 5063   2.619   7.237   7.137 -0.4732 -0.0433  0.0569
  779MOL0     C 5064   2.504   7.308   7.177  0.6143  0.4616  0.4490
  779MOL0     C 5065   2.480   7.343   7.313  0.1212 -0.3930  0.3243
  779MOL0     O 5066   2.355   7.399   7.341  0.1684  0.0416 -0.4724
  779MOL0     C 5067   2.273   7.310   7.405  0.3489 -0.6087  0.2083
  779MOL0     C 5068   2.182   7.377   7.500  0.0679  1.0394 -0.2389
  779MOL0     C 5069   2.117   7.495   7.442  0.3171 -0.4633 -0.1752
  779MOL0     C 5070   2.031   7.579   7.541  0.0086  0.1226 -0.0688
  779MOL0     C 5071   1.955   7.690   7.480  1.1444  0.3201  0.5256
  779MOL0     C 5072   1.908   7.788   7.590 -0.4470 -0.1570  0.1959
  779MOL0     C 5073   1.800   7.882   7.547  0.1174  0.1128  0.3525
  779MOL0     C 5074   1.707   7.905   7.670 -0.8472  0.7703  0.3083
  779MOL0    Cl 5075   1.786   8.003   7.804 -0.2401 -0.2809  0.0914
  779MOL0     C 5076   2.578   7.312   7.403 -0.3326 -0.2535  0.6721
  779MOL0     C 5077   2.692   7.232   7.362  0.6224  0.0598  0.6175
  779MOL0     O 5078   2.988   7.238   7.301  0.0200 -0.1239  0.9745
  779MOL0     C 5079   3.193   7.080   7.245 -0.8630  0.7435 -0.3134
  779MOL0     C 5080   3.303   6.999   7.216 -0.0836 -0.5597  0.4112
  779MOL0     N 5081   4.070   6.913   7.228  0.2594 -0.1071  0.2045
  779MOL0     N 5082   4.169   6.920   7.299 -0.8614 -0.7280 -0.4774
  779MOL0     C 5083   4.553   7.509   8.404 -0.5969  0.8994  1.0444
  779MOL0     C 5084   4.633   7.562   8.505  0.4993  0.0855 -0.1562
  779MOL0     C 5085   4.903   7.677   8.815  1.2140  0.4306 -1.1668
  779MOL0     C 5086   4.958   7.798   8.854 -0.0142 -0.2670 -0.8460
  779MOL0     C 5087   5.070   7.795   8.937  0.1085  0.3346 -0.0650
  779MOL0     C 5088   5.141   7.675   8.983  0.3921 -0.6214  0.9384
  779MOL0     O 5089   5.258   7.665   9.058 -0.1235 -0.5315  0.2792
  779MOL0     C 5090   5.332   7.783   9.098  0.6069  0.4667  0.0477
  779MOL0     C 5091   5.428   7.816   8.980  0.2373  0.8493 -0.0225
  779MOL0     C 5092   5.532   7.921   9.015 -0.4753 -0.2646  0.1603
  779MOL0     C 5093   5.636   7.883   9.120 -0.7302 -0.7224  0.0826
  779MOL0     C 5094   5.755   7.971   9.140  0.6584  1.4311 -0.0634
  779MOL0     C 5095   5.855   8.032   9.166 -0.0238  0.1910  0.2813
  779MOL0     C 5096   5.085   7.559   8.934  0.0981  0.1530 -0.6742
  779MOL0     C 5097   4.967   7.555   8.860 -0.7086 -0.2747  1.0805
  779MOL0     H 5098   4.472   7.435   8.767 -1.1477 -1.4757 -0.1044
  779MOL0     H 5099   4.356   7.312   8.601  1.3624  0.0567  0.3396
  779MOL0     H 5100   4.511   7.314   8.213  0.9745  3.7334 -1.8056
  779MOL0     H 5101   4.371   7.209   8.208 -0.6950  0.8207 -3.0703
  779MOL0     H 5102   4.234   7.428   8.147  0.6407  1.3237  0.8441
  779MOL0     H 5103   4.385   7.503   8.149 -0.0658 -0.3104 -0.7896
  779MOL0     H 5104   4.299   7.464   7.921 -0.4242 -1.7721 -1.1521
  779MOL0     H 5105   4.458   7.372   7.930 -0.2528 -3.9551 -1.8670
  779MOL0     H 5106   4.330   7.165   7.980  0.4995  0.4295  0.5991
  779MOL0     H 5107   4.177   7.259   7.965  1.2954 -0.6892  2.2758
  779MOL0     H 5108   4.212   7.310   7.739 -0.9580  2.0806  1.4793
  779MOL0     H 5109   4.384   7.252   7.746 -0.3757 -0.1605  0.7646
  779MOL0     H 5110   4.314   7.018   7.765 -2.0564 -1.9592 -0.8097
  779MOL0     H 5111   4.150   7.061   7.794 -1.5721 -2.0364 -3.9443
  779MOL0     H 5112   4.121   7.134   7.560 -0.0632 -1.2043 -0.1845
  779MOL0     H 5113   4.291   7.110   7.533  2.4759  0.6359  4.4226
  779MOL0     H 5114   4.139   6.881   7.640  1.9667  1.5837  1.9506
  779MOL0     H 5115   4.295   6.876   7.556  1.0029  0.4428 -3.3300
  779MOL0     H 5116   3.916   6.840   7.507  2.1946 -0.0598  1.0849
  779MOL0     H 5117   3.750   6.920   7.314  1.1819  0.3966  2.2607
  779MOL0     H 5118   3.835   6.953   7.151  1.1259  1.5489  1.4522
  779MOL0     H 5119   3.743   6.674   7.278 -1.4786 -0.0447  0.1279
  779MOL0     H 5120   3.842   6.684   7.134 -0.2120  0.9736 -0.4146
  779MOL0     H 5121   3.584   6.633   7.102  1.0742 -0.3187  1.5285
  779MOL0     H 5122   3.641   6.772   7.006  1.8871 -2.3958 -0.6438
  779MOL0     H 5123   3.560   6.928   7.153  2.2075 -0.4640 -1.1265
  779MOL0     H 5124   3.509   6.801   7.274  0.4861 -1.7314 -0.3168
  779MOL0     H 5125   3.142   6.733   7.092 -0.0718 -0.5188  2.2472
  779MOL0     H 5126   2.831   6.879   7.110  0.7917  1.3910  0.4524
  779MOL0     H 5127   2.942   6.739   7.098 -0.6940  0.3126  0.0242
  779MOL0     H 5128   2.868   6.786   7.256 -2.0194  0.1292 -0.2679
  779MOL0     H 5129   2.632   7.201   7.036  0.8200 -2.3965  0.9758
  779MOL0     H 5130   2.428   7.325   7.101  1.5660 -1.1565 -0.9386
  779MOL0     H 5131   2.205   7.267   7.330 -1.3161 -0.3714  1.5010
  779MOL0     H 5132   2.318   7.232   7.467 -1.2903 -2.0522 -0.3071
  779MOL0     H 5133   2.106   7.303   7.526 -1.2670  2.0512 -1.0807
  779MOL0     H 5134   2.246   7.403   7.586  0.0117 -0.8699  0.4163
  779MOL0     H 5135   2.058   7.457   7.358  1.3214  1.2787 -1.7562
  779MOL0     H 5136   2.198   7.557   7.402 -0.8308  1.1469 -0.0826
  779MOL0     H 5137   1.962   7.513   7.593  2.0994 -2.7087 -0.5996
  779MOL0     H 5138   2.106   7.616   7.611  0.7432 -1.5453  0.0785
  779MOL0     H 5139   1.870   7.654   7.421  1.6694  1.7719 -1.2173
  779MOL0     H 5140   2.012   7.745   7.405 -1.2671  0.4514 -1.3281
  779MOL0     H 5141   1.869   7.728   7.673 -2.8805  2.3442  0.9785
  779MOL0     H 5142   1.995   7.843   7.627 -1.2724  0.7040  0.8872
  779MOL0     H 5143   1.732   7.834   7.476  0.1689 -0.5400  0.7277
  779MOL0     H 5144   1.847   7.971   7.504  3.0422 -1.7965 -0.7250
  779MOL0     H 5145   1.686   7.811   7.722  1.7417 -0.1608 -0.1867
  779MOL0     H 5146   1.609   7.946   7.642 -2.0115 -0.9573  1.6421
  779MOL0     H 5147   2.580   7.335   7.509  0.1441 -0.0494  0.6233
  779MOL0     H 5148   2.765   7.191   7.431  1.1106 -1.3612 -0.6760
  779MOL0     H 5149   3.216   7.168   7.304 -0.4657 -1.2812  2.7680
  779MOL0     H 5150   3.404   7.039   7.224  1.4328 -2.8613 -3.6726
  779MOL0     H 5151   4.575   7.542   8.303  0.9436  1.2969  1.4827
  779MOL0     H 5152   4.716   7.627   8.477 -0.2660  1.8839  1.5607
  779MOL0     H 5153   4.911   7.893   8.833 -0.5514 -0.5143 -0.7767
  779MOL0     H 5154   5.122   7.887   8.964 -2.7666  1.2426  2.9963
  779MOL0     H 5155   5.259   7.863   9.113 -0.5464 -0.7681  1.2960
  779MOL0     H 5156   5.387   7.772   9.191  1.0452 -1.1080 -0.3742
  779MOL0     H 5157   5.359   7.848   8.902 -0.9173 -3.0522 -0.8492
  779MOL0     H 5158   5.483   7.724   8.958  1.0916  0.4389  3.2188
  779MOL0     H 5159   5.489   8.017   9.046  0.6929  1.2946 -2.6772
  779MOL0     H 5160   5.598   7.954   8.934 -0.0296  1.7480  1.2600
  779MOL0     H 5161   5.676   7.786   9.089 -0.4763 -0.3748 -0.7074
  779MOL0     H 5162   5.588   7.879   9.218 -3.0302 -1.7085 -1.0053
  779MOL0     H 5163   5.944   8.089   9.181 -0.4115  2.0055 -3.2371
  779MOL0     H 5164   5.134   7.465   8.956 -2.1030 -0.9437 -0.1159
  779MOL0     H 5165   4.931   7.462   8.818 -0.3467 -0.9003  2.1068
  780MOL0     O 5166   9.214   4.674   0.831  0.0249  0.5199  0.3425
  780MOL0     C 5167   9.152   4.730   0.732  0.2898  0.1486 -0.6311
  780MOL0     O 5168   9.017   4.725   0.715  0.3644  0.6922 -0.7316
  780MOL0     C 5169   8.949   4.681   0.827  0.6927  0.0496  0.0860
  780MOL0     C 5170   8.859   4.573   0.807 -0.6287  0.7544 -0.2968
  780MOL0     C 5171   8.772   4.525   0.909  0.0097 -0.8221  0.8928
  780MOL0     C 5172   8.785   4.593   1.028  0.3314 -1.1027 -0.1309
  780MOL0     O 5173   8.715   4.536   1.130  0.0334  0.7106 -0.0082
  780MOL0     C 5174   8.572   4.563   1.129  1.1040 -0.2694  0.8867
  780MOL0     C 5175   8.520   4.559   1.275 -0.1801 -0.9643  0.3367
  780MOL0     C 5176   8.525   4.424   1.348  0.3965  0.1890  0.9339
  780MOL0     C 5177   8.482   4.417   1.490  0.4370  0.2753 -0.0452
  780MOL0     C 5178   8.491   4.272   1.547 -1.0475  0.9575 -0.4636
  780MOL0     C 5179   8.387   4.178   1.490  0.0703  0.2111  0.2382
  780MOL0     C 5180   8.414   4.025   1.502 -0.2887 -0.0207 -0.1272
  780MOL0     C 5181   8.290   3.946   1.451 -0.1991 -0.0841  0.7447
  780MOL0     N 5182   8.179   3.958   1.547 -0.6596 -0.0011  0.1389
  780MOL0     C 5183   8.068   4.039   1.548  0.2000  0.1658  0.4079
  780MOL0     C 5184   7.990   4.012   1.659 -0.2193  0.4478  0.0886
  780MOL0     C 5185   7.869   4.075   1.722 -0.3120  0.3884  0.0489
  780MOL0     C 5186   7.733   3.999   1.686 -0.4471 -0.1254  0.4576
  780MOL0     C 5187   7.622   4.067   1.765  0.6571  0.1954 -0.5133
  780MOL0     C 5188   7.482   4.019   1.727 -0.1396 -0.4263 -0.4936
  780MOL0     O 5189   7.400   4.105   1.644 -0.1543 -0.2461 -0.2712
  780MOL0     C 5190   7.262   4.078   1.656 -0.3826  0.0754 -0.0464
  780MOL0     C 5191   7.200   3.965   1.713 -0.0559 -0.3272  0.2508
  780MOL0     C 5192   7.058   3.963   1.716 -0.4750 -1.2460 -0.0592
  780MOL0     C 5193   6.994   3.842   1.789 -0.4528 -0.0709  0.9875
  780MOL0     C 5194   6.982   4.058   1.635 -0.8040 -1.0312  0.5481
  780MOL0     C 5195   6.834   4.063   1.632 -0.1170 -0.1227 -0.6245
  780MOL0     O 5196   6.781   4.172   1.560  0.6372 -0.3456 -0.7730
  780MOL0     C 5197   6.645   4.166   1.537 -0.9751 -0.7160  0.9013
  780MOL0     C 5198   6.581   4.288   1.549  0.5144 -0.2879 -0.3568
  780MOL0     C 5199   6.439   4.295   1.518 -0.2245  0.4276 -0.6076
  780MOL0     C 5200   6.366   4.176   1.499 -0.2852  0.0356  0.4611
  780MOL0     O 5201   6.228   4.191   1.493 -0.5084  0.6543  0.7462
  780MOL0     C 5202   6.137   4.089   1.532  0.5307 -0.6188  0.3910
  780MOL0     C 5203   6.005   4.154   1.548  0.6352 -0.1683  0.3470
  780MOL0     C 5204   5.892   4.067   1.598 -0.1341  0.0680  1.1720
  780MOL0     C 5205   5.768   4.149   1.612 -0.3648  0.0822 -0.6916
  780MOL0     C 5206   5.713   4.215   1.483 -0.4375 -0.0598  0.3097
  780MOL0     C 5207   5.584   4.279   1.500  0.2694 -0.1456  0.3263
  780MOL0     C 5208   5.468   4.183   1.476  0.1166  0.9947 -0.1228
  780MOL0     C 5209   5.341   4.264   1.496 -1.0418 -0.4122 -0.0800
  780MOL0    Cl 5210   5.199   4.162   1.467 -0.1317 -0.2429 -0.3194
  780MOL0     C 5211   6.433   4.054   1.490 -0.2289  0.1196  0.6540
  780MOL0     C 5212   6.570   4.050   1.499  0.1674  0.1339 -0.1867
  780MOL0     O 5213   6.775   3.968   1.679  0.6065 -0.3315  0.3402
  780MOL0     C 5214   7.050   4.169   1.577 -0.4785 -0.4626 -1.2320
  780MOL0     C 5215   7.184   4.172   1.597  0.1292 -0.0494  0.0953
  780MOL0     N 5216   8.052   3.897   1.720  0.0238  0.1047 -0.3053
  780MOL0     N 5217   8.167   3.877   1.656 -0.0158 -0.3390 -0.3770
  780MOL0     C 5218   8.872   4.704   1.051  0.3020  0.6972  0.5617
  780MOL0     C 5219   8.949   4.751   0.945 -0.8057  0.2663 -0.3239
  780MOL0     C 5220   9.232   4.810   0.638 -0.7063  0.6615  0.8189
  780MOL0     C 5221   9.368   4.810   0.637 -0.7158  0.1779  0.5187
  780MOL0     C 5222   9.446   4.884   0.541 -0.1974  0.1005  0.6092
  780MOL0     C 5223   9.387   4.975   0.453  0.2586  0.2594  0.4237
  780MOL0     O 5224   9.475   5.050   0.374  0.3161 -0.5219 -0.6063
  780MOL0     C 5225   9.416   5.168   0.310 -0.2617  0.3816 -0.3750
  780MOL0     C 5226   9.510   5.261   0.232  0.5112 -0.1334  0.1061
  780MOL0     C 5227   9.638   5.191   0.189 -0.7895 -0.1098  0.1975
  780MOL0     C 5228   9.744   5.193   0.304 -0.0154  0.0470 -0.7371
  780MOL0     C 5229   9.870   5.138   0.262  0.1688 -0.5449  0.3300
  780MOL0     C 5230   9.975   5.077   0.257  0.2943 -0.1349 -0.1314
  780MOL0     C 5231   9.243   4.982   0.460  0.8403 -0.3180 -0.2555
  780MOL0     C 5232   9.164   4.894   0.540  0.6615 -0.2702  0.5114
  780MOL0     H 5233   8.843   4.525   0.711 -0.1680  1.3722 -0.6933
  780MOL0     H 5234   8.710   4.437   0.894 -1.6012  0.8790 -4.3998
  780MOL0     H 5235   8.555   4.658   1.078  1.1995 -1.5172 -1.6082
  780MOL0     H 5236   8.519   4.483   1.077 -3.5305  2.7962  0.2289
  780MOL0     H 5237   8.593   4.617   1.331 -1.2634 -0.0564  0.8508
  780MOL0     H 5238   8.413   4.581   1.281 -0.5871 -2.4562 -0.8029
  780MOL0     H 5239   8.466   4.356   1.286  3.2214 -0.7305 -0.9414
  780MOL0     H 5240   8.627   4.385   1.356  1.7677  2.3505 -3.2666
  780MOL0     H 5241   8.542   4.484   1.552 -2.5513 -0.3043  3.8964
  780MOL0     H 5242   8.381   4.456   1.506  0.5111  0.4595 -0.0202
  780MOL0     H 5243   8.592   4.242   1.518 -0.7786  1.3484  0.0588
  780MOL0     H 5244   8.477   4.270   1.655 -1.3262 -0.5258 -0.5081
  780MOL0     H 5245   8.287   4.207   1.525 -1.7925 -2.4594 -2.4058
  780MOL0     H 5246   8.389   4.187   1.381  0.2593 -2.1786 -0.0145
  780MOL0     H 5247   8.504   3.990   1.451  0.3855  1.4934 -0.0619
  780MOL0     H 5248   8.429   3.999   1.608  2.1008 -1.9083 -0.8499
  780MOL0     H 5249   8.310   3.838   1.446 -1.7670 -0.5791  3.3339
  780MOL0     H 5250   8.259   3.973   1.350 -0.3754 -0.6730  0.6376
  780MOL0     H 5251   8.051   4.111   1.468  1.7416  0.6648  0.4953
  780MOL0     H 5252   7.895   4.074   1.829 -0.6759  1.5244  0.1586
  780MOL0     H 5253   7.842   4.179   1.703 -2.7695 -0.6461 -2.6977
  780MOL0     H 5254   7.750   3.894   1.711  5.5899  0.1328 -0.9911
  780MOL0     H 5255   7.714   3.998   1.578  2.7316  0.2540 -0.2166
  780MOL0     H 5256   7.630   4.176   1.760  2.1111  0.0714 -1.3493
  780MOL0     H 5257   7.628   4.051   1.873  1.2010  1.7649 -0.2725
  780MOL0     H 5258   7.435   4.004   1.825 -1.7683 -2.3407 -1.5057
  780MOL0     H 5259   7.494   3.923   1.677 -1.2996 -0.4113 -0.8253
  780MOL0     H 5260   7.259   3.892   1.766  1.7524 -2.5839 -4.3641
  780MOL0     H 5261   6.911   3.873   1.852 -0.6859  0.5705  0.3780
  780MOL0     H 5262   6.960   3.776   1.709 -0.2136 -0.5063  1.2423
  780MOL0     H 5263   7.057   3.777   1.850 -3.1414 -3.4584  0.4247
  780MOL0     H 5264   6.645   4.372   1.573  4.0686 -3.0168  0.4465
  780MOL0     H 5265   6.385   4.389   1.523  0.9856  1.1778 -1.0403
  780MOL0     H 5266   6.132   4.010   1.457  0.1161  2.4524 -3.1139
  780MOL0     H 5267   6.169   4.034   1.621  0.3718 -2.0060 -0.3930
  780MOL0     H 5268   6.013   4.236   1.619 -3.6140  0.9615 -0.1472
  780MOL0     H 5269   5.971   4.206   1.458  3.6027  2.1337  0.4278
  780MOL0     H 5270   5.914   4.017   1.693  3.4114  2.5971  1.9033
  780MOL0     H 5271   5.873   3.993   1.520 -1.2219  1.8198 -0.3150
  780MOL0     H 5272   5.690   4.077   1.638 -1.2597 -0.3232 -3.9872
  780MOL0     H 5273   5.775   4.211   1.702 -0.0993 -1.1562  0.1721
  780MOL0     H 5274   5.707   4.141   1.402  2.2258 -1.8296  1.5884
  780MOL0     H 5275   5.777   4.296   1.446 -0.8087  0.9993  1.8963
  780MOL0     H 5276   5.580   4.317   1.603  1.2173  1.8102 -0.3003
  780MOL0     H 5277   5.576   4.366   1.434 -1.8469  1.5579  2.6372
  780MOL0     H 5278   5.482   4.103   1.550 -0.9044  1.1816  0.2815
  780MOL0     H 5279   5.484   4.143   1.376  2.3217 -0.5810  0.7648
  780MOL0     H 5280   5.340   4.349   1.427  0.3303 -0.3622 -0.0583
  780MOL0     H 5281   5.338   4.297   1.601 -0.8019  0.6592 -0.3913
  780MOL0     H 5282   6.383   3.959   1.477 -0.7016  0.5500 -0.8417
  780MOL0     H 5283   6.620   3.954   1.489  1.4794  0.7955 -0.1694
  780MOL0     H 5284   7.008   4.248   1.516 -1.5604 -0.9300 -1.1186
  780MOL0     H 5285   7.216   4.267   1.555 -0.0088 -0.2346 -0.4361
  780MOL0     H 5286   8.878   4.757   1.146 -0.1892  1.7813  0.0149
  780MOL0     H 5287   8.999   4.847   0.952 -0.9052  0.2885  0.1364
  780MOL0     H 5288   9.427   4.745   0.701 -0.2402 -0.6322 -0.7167
  780MOL0     H 5289   9.554   4.884   0.557  0.4578 -3.0766 -2.4254
  780MOL0     H 5290   9.341   5.131   0.239 -1.7882  5.3110 -1.6823
  780MOL0     H 5291   9.356   5.225   0.382 -0.4361  0.5886 -0.6844
  780MOL0     H 5292   9.539   5.344   0.297  1.6370  0.5749 -1.2516
  780MOL0     H 5293   9.463   5.301   0.142  1.2821 -1.9763 -1.1631
  780MOL0     H 5294   9.683   5.252   0.110 -2.1970  2.5306  1.2991
  780MOL0     H 5295   9.622   5.085   0.170 -1.1507 -0.2203  1.0826
  780MOL0     H 5296   9.714   5.136   0.392 -0.3077  0.4566 -0.5686
  780MOL0     H 5297   9.751   5.299   0.333 -2.4826  0.1790 -0.4285
  780MOL0     H 5298  10.065   5.021   0.267 -0.8251 -2.3850 -1.7656
  780MOL0     H 5299   9.207   5.056   0.389  0.9119  0.5434  0.5782
  780MOL0     H 5300   9.056   4.904   0.540  0.4999 -1.7718  0.4414
  781MOL0     O 5301   1.010  11.126  10.430 -0.9178 -0.1218  0.0733
  781MOL0     C 5302   0.960  11.182  10.336  0.4043 -0.6932  0.0084
  781MOL0     O 5303   0.823  11.199  10.309  0.0478 -0.2393  0.5777
  781MOL0     C 5304   0.726  11.141  10.388 -0.1373  0.4084 -0.5271
  781MOL0     C 5305   0.603  11.210  10.402  1.0305  0.3319 -0.2889
  781MOL0     C 5306   0.504  11.164  10.489  0.7246 -0.2581 -0.3519
  781MOL0     C 5307   0.521  11.056  10.574 -0.6811  0.1867 -0.1835
  781MOL0     O 5308   0.417  11.010  10.647 -0.2906  0.3680  0.2342
  781MOL0     C 5309   0.401  10.864  10.679  0.0871 -0.1523  0.2261
  781MOL0     C 5310   0.474  10.837  10.809 -0.9397 -0.2027 -0.5919
  781MOL0     C 5311   0.496  10.684  10.816  0.4115  0.7033 -0.5049
  781MOL0     C 5312   0.626  10.638  10.743 -0.1223 -0.5489  0.5366
  781MOL0     C 5313   0.649  10.484  10.747 -0.3261  1.1661 -0.4647
  781MOL0     C 5314   0.682  10.438  10.607  0.6226  0.4993  0.4519
  781MOL0     C 5315   0.721  10.292  10.588  0.7759  0.3329  0.0350
  781MOL0     C 5316   0.754  10.253  10.433  0.6258 -0.5859 -0.7006
  781MOL0     N 5317   0.896  10.286  10.396  0.8854 -0.3763  0.1557
  781MOL0     C 5318   1.010  10.241  10.455 -0.7828  0.3473  0.3919
  781MOL0     C 5319   1.100  10.321  10.395  0.6274 -0.6937 -0.0819
  781MOL0     C 5320   1.246  10.316  10.429 -0.2713  0.5548  0.9690
  781MOL0     C 5321   1.320  10.205  10.354 -1.2268 -0.4150 -0.0334
  781MOL0     C 5322   1.467  10.202  10.412  0.6480  0.2719 -0.1361
  781MOL0     C 5323   1.563  10.137  10.314 -0.2490 -0.0512 -0.3778
  781MOL0     O 5324   1.699  10.157  10.369  0.5335 -0.0008 -0.1384
  781MOL0     C 5325   1.810  10.119  10.295  0.9957  0.1136  0.6113
  781MOL0     C 5326   1.813  10.054  10.173 -0.1980 -0.1649 -0.4043
  781MOL0     C 5327   1.931  10.027  10.101 -0.3565 -1.0967 -0.2924
  781MOL0     C 5328   1.930   9.943   9.981  0.5956 -0.0667 -0.1986
  781MOL0     C 5329   2.057  10.086  10.147 -0.0477 -0.0266 -0.2199
  781MOL0     C 5330   2.180  10.058  10.085 -1.2067 -0.2588  0.6826
  781MOL0     O 5331   2.211  10.089   9.954  0.3386  0.8578 -0.3528
  781MOL0     C 5332   2.325  10.039   9.889  1.3716  0.1545  0.0491
  781MOL0     C 5333   2.316   9.984   9.765  0.4690 -0.0513  0.9699
  781MOL0     C 5334   2.415   9.913   9.696 -0.3024  0.7352 -0.4744
  781MOL0     C 5335   2.542   9.907   9.763 -0.3701  0.4316 -0.6690
  781MOL0     O 5336   2.646   9.855   9.691  0.7110 -0.3183  0.1058
  781MOL0     C 5337   2.725   9.753   9.748 -0.6223  0.0868 -0.5408
  781MOL0     C 5338   2.649   9.624   9.799 -0.5825  0.7292 -0.4267
  781MOL0     C 5339   2.565   9.572   9.684  0.1410 -0.6920 -0.2050
  781MOL0     C 5340   2.539   9.419   9.697  0.4095  0.4088 -0.6334
  781MOL0     C 5341   2.517   9.359   9.557  1.0254  0.1015  0.0859
  781MOL0     C 5342   2.636   9.355   9.448  0.2774 -0.0800 -0.1581
  781MOL0     C 5343   2.750   9.262   9.489 -0.1709  0.3969  0.6137
  781MOL0     C 5344   2.727   9.112   9.458 -0.0430 -0.1001 -0.0477
  781MOL0    Cl 5345   2.697   9.073   9.283 -0.0645 -0.2472  0.3707
  781MOL0     C 5346   2.557   9.968   9.887 -0.1959 -0.2320 -0.5230
  781MOL0     C 5347   2.454  10.030   9.954  0.2685  0.8841 -0.4083
  781MOL0     O 5348   2.256  10.017  10.166 -0.1560 -0.3621  0.9551
  781MOL0     C 5349   2.051  10.154  10.276  0.1499  0.1322  0.2573
  781MOL0     C 5350   1.931  10.167  10.342 -0.4492  0.3572  0.2632
  781MOL0     N 5351   1.047  10.397  10.295  0.2048 -0.1245  0.4917
  781MOL0     N 5352   0.920  10.380  10.302  0.7882 -0.5044  0.4264
  781MOL0     C 5353   0.641  10.976  10.555 -0.5620 -1.1376 -0.6981
  781MOL0     C 5354   0.742  11.021  10.465  0.2082  0.5966 -0.4181
  781MOL0     C 5355   1.047  11.241  10.231 -0.2694 -0.3325  0.0364
  781MOL0     C 5356   1.185  11.239  10.250 -0.8071  0.4122 -0.1001
  781MOL0     C 5357   1.270  11.294  10.154 -0.6134  0.3063 -1.1798
  781MOL0     C 5358   1.222  11.344  10.037 -0.0255 -0.3241 -0.2256
  781MOL0     O 5359   1.292  11.409   9.944 -0.0618 -0.0583  0.0926
  781MOL0     C 5360   1.433  11.413   9.957  0.7989  0.2005  0.4547
  781MOL0     C 5361   1.481  11.444   9.816  0.1148  0.1802 -0.5681
  781MOL0     C 5362   1.497  11.329   9.727 -0.5451 -1.0399  0.3812
  781MOL0     C 5363   1.647  11.308   9.691 -0.6379 -1.1432  1.0505
  781MOL0     C 5364   1.727  11.412   9.632  0.6002  0.2643 -0.8971
  781MOL0     C 5365   1.785  11.523   9.612 -0.1182 -0.0598  0.3002
  781MOL0     C 5366   1.084  11.347  10.014 -0.8259 -0.4402  0.4659
  781MOL0     C 5367   1.000  11.285  10.103 -0.0478 -0.4746  0.4097
  781MOL0     H 5368   0.587  11.299  10.342 -3.7154 -1.8437 -2.7726
  781MOL0     H 5369   0.413  11.221  10.504  1.6681  1.0673  0.5452
  781MOL0     H 5370   0.296  10.834  10.690  0.2902 -0.3866  1.6501
  781MOL0     H 5371   0.438  10.811  10.590  2.1351  1.5078 -0.0007
  781MOL0     H 5372   0.567  10.892  10.824 -0.8250  0.2561 -2.6149
  781MOL0     H 5373   0.406  10.865  10.889 -0.6776  0.5386 -0.6252
  781MOL0     H 5374   0.501  10.655  10.922 -2.1754 -1.7423 -0.9326
  781MOL0     H 5375   0.419  10.624  10.767  0.3870 -1.7544  2.2472
  781MOL0     H 5376   0.638  10.675  10.641  0.3220  0.9968  1.1256
  781MOL0     H 5377   0.711  10.685  10.793 -0.1265  1.7537 -1.4346
  781MOL0     H 5378   0.731  10.449  10.811 -0.1863 -2.8056 -2.5199
  781MOL0     H 5379   0.555  10.435  10.773 -2.0696  2.3813 -3.9673
  781MOL0     H 5380   0.594  10.449  10.542 -1.0592 -1.3134  2.2753
  781MOL0     H 5381   0.760  10.507  10.574  0.4932  0.9536  1.0768
  781MOL0     H 5382   0.797  10.268  10.664 -0.2923 -2.3666  0.3597
  781MOL0     H 5383   0.633  10.232  10.610  0.3207 -0.0937 -2.6490
  781MOL0     H 5384   0.686  10.306  10.366  0.4255  1.2694  0.8923
  781MOL0     H 5385   0.727  10.149  10.411  2.1344 -1.4994  1.4413
  781MOL0     H 5386   1.032  10.182  10.543 -0.6488 -1.8988 -1.0660
  781MOL0     H 5387   1.292  10.413  10.409 -0.3196  0.5413  0.7860
  781MOL0     H 5388   1.252  10.293  10.536 -3.4191 -1.0418  0.9245
  781MOL0     H 5389   1.321  10.221  10.246 -0.2588  2.6013  0.3301
  781MOL0     H 5390   1.261  10.114  10.370 -1.0758 -0.6143 -0.5546
  781MOL0     H 5391   1.469  10.147  10.506 -0.7548  1.1090  0.3998
  781MOL0     H 5392   1.495  10.304  10.439  0.9486  0.2450 -0.3314
  781MOL0     H 5393   1.556  10.189  10.218  0.4051 -0.8154 -0.8500
  781MOL0     H 5394   1.537  10.031  10.309 -0.9896  0.0854  0.4676
  781MOL0     H 5395   1.721  10.026  10.123 -1.1302  1.6792  0.1928
  781MOL0     H 5396   1.995   9.990   9.907  2.6735  0.9091  2.1224
  781MOL0     H 5397   1.975   9.845  10.002  0.1454  0.2530  2.5517
  781MOL0     H 5398   1.828   9.935   9.941  0.3611  2.4984 -0.2653
  781MOL0     H 5399   2.231  10.004   9.700 -0.4405 -1.5914  1.6226
  781MOL0     H 5400   2.407   9.859   9.602  2.1685 -0.5408 -0.0531
  781MOL0     H 5401   2.803   9.730   9.675  0.6671  3.1037 -0.2755
  781MOL0     H 5402   2.793   9.797   9.821  2.1795 -1.9765 -1.7487
  781MOL0     H 5403   2.720   9.543   9.815 -1.5343 -0.1625 -0.6575
  781MOL0     H 5404   2.594   9.650   9.890  0.5996 -1.7177  1.0994
  781MOL0     H 5405   2.612   9.595   9.589  3.7537 -0.0807  1.5481
  781MOL0     H 5406   2.467   9.619   9.678  0.0413 -0.8674  0.0093
  781MOL0     H 5407   2.619   9.366   9.749 -0.7639 -1.5713 -0.7295
  781MOL0     H 5408   2.447   9.403   9.755  2.4889  0.2616  2.9032
  781MOL0     H 5409   2.426   9.413   9.529  1.4500  1.7680  1.7510
  781MOL0     H 5410   2.483   9.255   9.564  1.3865 -0.7220 -5.4760
  781MOL0     H 5411   2.591   9.330   9.351 -2.5670  0.3839  0.9588
  781MOL0     H 5412   2.685   9.453   9.442  1.8441 -0.7372  1.2560
  781MOL0     H 5413   2.777   9.270   9.594 -0.0884  3.0106  0.4572
  781MOL0     H 5414   2.842   9.271   9.431 -0.3792 -1.0111  0.0399
  781MOL0     H 5415   2.633   9.077   9.502 -0.8367 -0.2898 -1.8077
  781MOL0     H 5416   2.806   9.050   9.501  0.0060 -0.0194 -0.0212
  781MOL0     H 5417   2.649   9.962   9.944 -0.5861 -3.6082 -0.0589
  781MOL0     H 5418   2.471  10.061  10.056  1.9608 -1.5393  0.1431
  781MOL0     H 5419   2.141  10.196  10.319  0.4240  2.1497 -2.0988
  781MOL0     H 5420   1.916  10.228  10.430  1.1386 -0.1550  0.9226
  781MOL0     H 5421   0.651  10.876  10.596  2.5835 -0.0772  1.5120
  781MOL0     H 5422   0.830  10.958  10.454  0.0072  0.2143  0.1547
  781MOL0     H 5423   1.232  11.208  10.343 -1.1813  2.3918  0.8103
  781MOL0     H 5424   1.377  11.287  10.175 -1.0878 -0.7506  1.2222
  781MOL0     H 5425   1.469  11.490  10.027  0.7126  1.0110 -0.3705
  781MOL0     H 5426   1.471  11.313   9.980 -0.6687 -2.1055 -5.3854
  781MOL0     H 5427   1.571  11.506   9.824  1.4695 -1.7538 -0.1267
  781MOL0     H 5428   1.401  11.504   9.772 -1.3780 -0.3353  1.3211
  781MOL0     H 5429   1.443  11.341   9.632  0.3710  1.6703  0.1079
  781MOL0     H 5430   1.457  11.236   9.770 -1.7119 -1.8621 -2.2617
  781MOL0     H 5431   1.653  11.211   9.640  0.4323 -0.6080  0.1102
  781MOL0     H 5432   1.693  11.272   9.784 -1.0800 -2.8621  0.6334
  781MOL0     H 5433   1.844  11.611   9.600 -0.1607 -0.3700 -3.9619
  781MOL0     H 5434   1.056  11.370   9.912  0.9502  0.7940  0.2079
  781MOL0     H 5435   0.894  11.282  10.078  0.6394  1.7614 -3.8007
  782MOL0     O 5436   5.306   3.667   4.808  0.2757 -0.0688  0.0136
  782MOL0     C 5437   5.378   3.579   4.838 -1.0894  0.0921  0.0723
  782MOL0     O 5438   5.483   3.533   4.760 -0.3863  0.2063 -0.2840
  782MOL0     C 5439   5.524   3.606   4.644  0.1949  0.0654  0.7622
  782MOL0     C 5440   5.657   3.639   4.615  0.1973 -0.9732  0.3808
  782MOL0     C 5441   5.699   3.709   4.504  0.0804  0.1077 -0.1613
  782MOL0     C 5442   5.616   3.742   4.406 -0.5670  0.0948  0.1950
  782MOL0     O 5443   5.664   3.817   4.297 -0.1466  0.2240 -0.0492
  782MOL0     C 5444   5.600   3.946   4.289 -1.0476  0.9297  0.6895
  782MOL0     C 5445   5.614   3.986   4.135  0.5381 -0.6325 -1.1493
  782MOL0     C 5446   5.529   4.109   4.093  0.3639  0.0009  0.1629
  782MOL0     C 5447   5.588   4.246   4.153  0.8187  0.8175 -0.4900
  782MOL0     C 5448   5.482   4.323   4.236  0.3504 -0.1809 -0.0495
  782MOL0     C 5449   5.456   4.263   4.380 -0.8995 -0.1740 -0.7968
  782MOL0     C 5450   5.342   4.338   4.448  0.0863 -0.4198 -0.2937
  782MOL0     C 5451   5.289   4.258   4.571  0.4357 -0.0659  0.1412
  782MOL0     N 5452   5.199   4.144   4.544  0.0554 -0.3754  0.5087
  782MOL0     C 5453   5.233   4.009   4.529  0.2474  0.0701  0.4410
  782MOL0     C 5454   5.115   3.952   4.486  0.4457  0.1769  0.2503
  782MOL0     C 5455   5.103   3.824   4.418  0.5278  0.8514  0.1285
  782MOL0     C 5456   4.985   3.736   4.468 -0.4177 -0.9103 -0.7457
  782MOL0     C 5457   4.992   3.592   4.426  0.4843 -0.3479 -0.0892
  782MOL0     C 5458   4.890   3.504   4.499 -0.1981 -0.4806  1.3527
  782MOL0     O 5459   4.934   3.495   4.633  0.1190  0.4251 -0.0498
  782MOL0     C 5460   4.906   3.372   4.687  0.1609  0.9707  0.3852
  782MOL0     C 5461   4.982   3.327   4.792 -0.6909 -0.4333 -0.4796
  782MOL0     C 5462   4.972   3.216   4.872  0.0987  0.0858  0.8489
  782MOL0     C 5463   5.067   3.199   4.991  0.8104 -0.5996 -0.6378
  782MOL0     C 5464   4.861   3.129   4.838 -0.0738  0.6896 -0.2151
  782MOL0     C 5465   4.827   3.005   4.914 -0.3545  0.2348 -0.0474
  782MOL0     O 5466   4.713   2.945   4.866 -0.1598 -0.6078  0.1555
  782MOL0     C 5467   4.678   2.833   4.929 -0.7421  0.0294 -0.2491
  782MOL0     C 5468   4.632   2.742   4.838  0.3550  0.5341 -0.1463
  782MOL0     C 5469   4.575   2.619   4.876 -0.0328 -0.1139  0.6372
  782MOL0     C 5470   4.557   2.588   5.011 -0.1913  0.8040 -0.5709
  782MOL0     O 5471   4.504   2.465   5.048 -0.4855  0.3397  0.5293
  782MOL0     C 5472   4.415   2.463   5.159  0.2233 -0.1159  0.5420
  782MOL0     C 5473   4.328   2.341   5.160  0.2596  0.2146  0.2843
  782MOL0     C 5474   4.426   2.218   5.164  0.4581 -0.7551 -0.4064
  782MOL0     C 5475   4.359   2.075   5.189  0.0448 -0.0429  0.1506
  782MOL0     C 5476   4.445   1.962   5.142 -0.1232  0.2513  0.2628
  782MOL0     C 5477   4.548   1.934   5.237 -1.1537  0.1455 -1.5581
  782MOL0     C 5478   4.620   1.806   5.212  0.2883 -0.5859  1.0656
  782MOL0     C 5479   4.700   1.752   5.330 -0.0955 -0.1422 -0.1253
  782MOL0    Cl 5480   4.831   1.869   5.345 -0.3003 -0.3535 -0.1630
  782MOL0     C 5481   4.620   2.671   5.105  0.2992  0.0442 -0.3591
  782MOL0     C 5482   4.683   2.792   5.070 -0.2991 -0.3062  0.5237
  782MOL0     O 5483   4.905   2.955   4.995 -0.1388  0.1720 -0.5737
  782MOL0     C 5484   4.776   3.174   4.730 -0.3908 -0.2717 -1.2595
  782MOL0     C 5485   4.797   3.290   4.658 -0.9775  0.4237 -0.8101
  782MOL0     N 5486   5.011   4.046   4.492  0.6333  0.0395  0.2834
  782MOL0     N 5487   5.064   4.157   4.530  0.2608 -0.9192 -0.2107
  782MOL0     C 5488   5.485   3.700   4.419 -0.7872  0.5078  0.3331
  782MOL0     C 5489   5.436   3.638   4.531  0.6308  0.2126 -0.3433
  782MOL0     C 5490   5.364   3.512   4.973  0.8608  0.3121 -0.2780
  782MOL0     C 5491   5.447   3.405   5.008 -0.4620 -0.0694  0.0885
  782MOL0     C 5492   5.443   3.346   5.134  0.5747 -0.7335  0.0928
  782MOL0     C 5493   5.344   3.377   5.225  0.4651 -0.2288 -0.0853
  782MOL0     O 5494   5.324   3.299   5.337 -0.5471 -0.3813  0.0276
  782MOL0     C 5495   5.443   3.297   5.412 -0.6031  0.9622  0.3642
  782MOL0     C 5496   5.419   3.227   5.552  0.0685  0.4826 -0.8988
  782MOL0     C 5497   5.363   3.335   5.655  0.2094  0.5837 -0.0019
  782MOL0     C 5498   5.211   3.330   5.652 -1.2840  0.3841 -0.3369
  782MOL0     C 5499   5.154   3.408   5.754  0.2141  0.0839 -1.1001
  782MOL0     C 5500   5.090   3.474   5.844 -0.0837 -0.1328  0.8386
  782MOL0     C 5501   5.258   3.479   5.188  0.4639 -0.9156  0.8926
  782MOL0     C 5502   5.262   3.543   5.065  0.2812 -0.1095 -0.3631
  782MOL0     H 5503   5.730   3.622   4.694  0.9626  0.1757 -0.0613
  782MOL0     H 5504   5.802   3.737   4.485 -0.2184 -0.6982 -3.5274
  782MOL0     H 5505   5.499   3.951   4.331 -0.2361 -0.3225  2.9542
  782MOL0     H 5506   5.667   4.022   4.331 -0.3129  0.9517 -0.4796
  782MOL0     H 5507   5.722   3.994   4.123  0.7793 -2.4263 -0.4686
  782MOL0     H 5508   5.565   3.914   4.068  0.0222  0.2648 -1.7684
  782MOL0     H 5509   5.538   4.112   3.984 -1.3267 -0.4615 -0.0174
  782MOL0     H 5510   5.422   4.100   4.112 -0.1033  0.7816 -1.8179
  782MOL0     H 5511   5.673   4.215   4.215 -0.2181 -0.4804  0.3567
  782MOL0     H 5512   5.620   4.309   4.070  1.7754 -0.0191 -0.7796
  782MOL0     H 5513   5.513   4.427   4.242  2.2382 -0.5201 -2.3164
  782MOL0     H 5514   5.389   4.323   4.178 -0.0265 -0.2508  0.5489
  782MOL0     H 5515   5.438   4.156   4.380  0.1516 -0.3622 -1.0205
  782MOL0     H 5516   5.545   4.267   4.445 -0.3683 -5.0010 -0.8977
  782MOL0     H 5517   5.382   4.430   4.491  0.6473 -0.9406  0.3287
  782MOL0     H 5518   5.263   4.359   4.375 -1.6203 -0.2874  1.4948
  782MOL0     H 5519   5.233   4.338   4.621  2.5411  1.3712  0.2915
  782MOL0     H 5520   5.364   4.219   4.641  1.6175  1.2494 -0.3539
  782MOL0     H 5521   5.326   3.955   4.538  0.4970  0.6429  1.5046
  782MOL0     H 5522   5.088   3.846   4.312  0.4164  3.1819  0.5691
  782MOL0     H 5523   5.195   3.768   4.435  1.8806  3.0395  0.3872
  782MOL0     H 5524   4.899   3.789   4.425  1.3215  0.6704 -2.4806
  782MOL0     H 5525   4.995   3.746   4.577 -1.7582  0.8635 -0.7294
  782MOL0     H 5526   5.094   3.553   4.434  0.4283 -0.6714 -0.8632
  782MOL0     H 5527   4.970   3.595   4.319  0.7433 -1.4178 -0.1777
  782MOL0     H 5528   4.890   3.408   4.447 -1.1351 -0.4446  1.2734
  782MOL0     H 5529   4.792   3.551   4.504 -1.2492 -2.6612  4.3633
  782MOL0     H 5530   5.067   3.386   4.824  0.2686 -2.2599  0.4964
  782MOL0     H 5531   5.023   3.241   5.082  0.5301  0.5194 -1.2646
  782MOL0     H 5532   5.093   3.094   5.007 -0.2251 -0.9864 -1.3761
  782MOL0     H 5533   5.155   3.263   4.983 -0.8315  1.9786  0.5448
  782MOL0     H 5534   4.632   2.759   4.731 -2.6178  0.3788 -0.2421
  782MOL0     H 5535   4.544   2.552   4.796  2.3030 -1.7512  0.9962
  782MOL0     H 5536   4.474   2.472   5.251  0.0103  1.0723  0.5814
  782MOL0     H 5537   4.348   2.550   5.159  0.1107 -0.1937  1.3537
  782MOL0     H 5538   4.261   2.345   5.247 -2.7976 -1.2669 -1.8091
  782MOL0     H 5539   4.258   2.344   5.076 -0.9476  0.4163  1.2578
  782MOL0     H 5540   4.509   2.232   5.235  1.7902 -0.4927 -1.9595
  782MOL0     H 5541   4.469   2.204   5.065 -0.3278  0.8903 -1.0208
  782MOL0     H 5542   4.338   2.060   5.295  0.3145  0.1429  0.2322
  782MOL0     H 5543   4.264   2.069   5.137 -0.9414  1.8014  1.5967
  782MOL0     H 5544   4.490   1.972   5.043  1.5274 -2.0758  0.6832
  782MOL0     H 5545   4.376   1.878   5.138 -1.0723  1.0555 -3.6229
  782MOL0     H 5546   4.625   2.011   5.222 -1.5273  0.5876 -1.2303
  782MOL0     H 5547   4.507   1.952   5.337 -0.1935  4.3474 -1.7210
  782MOL0     H 5548   4.683   1.814   5.124 -2.5488  2.4137 -0.9501
  782MOL0     H 5549   4.537   1.736   5.199  0.4162 -1.1094  2.8260
  782MOL0     H 5550   4.747   1.660   5.294 -1.7362 -0.9208 -0.3611
  782MOL0     H 5551   4.639   1.738   5.420 -1.6328  1.3368 -0.8966
  782MOL0     H 5552   4.619   2.643   5.210  2.4817 -1.8435 -0.7628
  782MOL0     H 5553   4.734   2.858   5.140  3.5505 -0.8485 -1.4749
  782MOL0     H 5554   4.694   3.115   4.692 -0.9185  0.2254 -0.9062
  782MOL0     H 5555   4.721   3.313   4.584 -0.6436  1.5732 -0.8264
  782MOL0     H 5556   5.413   3.711   4.338 -1.0665  0.2362  0.5407
  782MOL0     H 5557   5.333   3.604   4.530  0.7501 -0.1732  0.0455
  782MOL0     H 5558   5.528   3.374   4.943  2.0446  3.2940  1.3528
  782MOL0     H 5559   5.519   3.272   5.157 -0.2100 -1.1195  1.5566
  782MOL0     H 5560   5.515   3.234   5.359  0.3840  2.6316 -0.3668
  782MOL0     H 5561   5.492   3.394   5.426  2.7613 -0.8241  2.1207
  782MOL0     H 5562   5.521   3.203   5.585 -0.1295  0.1691 -0.4987
  782MOL0     H 5563   5.365   3.133   5.541  0.4381  0.4519 -2.8465
  782MOL0     H 5564   5.389   3.437   5.626  3.6393 -0.3356 -0.5460
  782MOL0     H 5565   5.403   3.326   5.756  1.2917  0.8805 -0.3872
  782MOL0     H 5566   5.190   3.226   5.678  0.4524  0.1931  0.4475
  782MOL0     H 5567   5.182   3.341   5.547  2.9960 -0.9252 -1.8969
  782MOL0     H 5568   5.039   3.542   5.909 -0.0632 -0.0306  0.7495
  782MOL0     H 5569   5.176   3.511   5.250 -1.9902  0.8702 -2.8723
  782MOL0     H 5570   5.187   3.621   5.059 -0.1710 -0.2823  2.0408
  783MOL0     O 5571   4.560   9.359   7.697 -0.3358  0.1409  0.2589
  783MOL0     C 5572   4.533   9.286   7.604 -0.1865 -0.2728  0.2375
  783MOL0     O 5573   4.584   9.299   7.474 -0.0678  0.4161  0.3522
  783MOL0     C 5574   4.671   9.407   7.467 -1.5119  0.6720  1.0120
  783MOL0     C 5575   4.812   9.383   7.481  1.0661  0.0632  0.1311
  783MOL0     C 5576   4.901   9.493   7.484  0.4275  0.0171  0.1114
  783MOL0     C 5577   4.864   9.627   7.484  0.2147 -0.5761  0.4814
  783MOL0     O 5578   4.957   9.733   7.489  0.0203 -0.1635 -0.5746
  783MOL0     C 5579   4.909   9.846   7.563 -0.3319  0.0623 -0.5821
  783MOL0     C 5580   5.022   9.950   7.540  0.2790 -0.0902 -0.1030
  783MOL0     C 5581   5.018  10.034   7.663  0.0325 -1.6313 -0.1534
  783MOL0     C 5582   5.093  10.169   7.634  0.1963 -0.3025  0.5937
  783MOL0     C 5583   5.132  10.246   7.768  0.0921  0.3011  1.1529
  783MOL0     C 5584   5.142  10.396   7.750 -0.3376 -0.1328  0.5924
  783MOL0     C 5585   5.208  10.472   7.867  0.5773 -0.2015  0.6591
  783MOL0     C 5586   5.179  10.414   8.000  0.4589 -0.0068 -0.6005
  783MOL0     N 5587   5.253  10.487   8.104 -1.0739  0.3122  0.1886
  783MOL0     C 5588   5.284  10.621   8.115 -0.0208  0.9150  1.2294
  783MOL0     C 5589   5.349  10.641   8.229 -0.2425  0.0612 -0.3397
  783MOL0     C 5590   5.425  10.767   8.280 -0.3402 -0.4251  0.9666
  783MOL0     C 5591   5.341  10.892   8.303 -0.4346  0.0375  0.1838
  783MOL0     C 5592   5.423  11.017   8.338 -0.2448  0.1499 -0.6867
  783MOL0     C 5593   5.342  11.153   8.345 -0.5379  0.1234 -0.3494
  783MOL0     O 5594   5.264  11.151   8.466 -0.1846  0.9301 -0.1408
  783MOL0     C 5595   5.166  11.248   8.461 -0.1608  0.4416 -0.9359
  783MOL0     C 5596   5.060  11.230   8.548 -0.3349  0.2290  0.3757
  783MOL0     C 5597   4.949  11.316   8.561 -0.8163  0.3474 -0.4287
  783MOL0     C 5598   4.862  11.291   8.679  0.5287 -0.0431  0.3284
  783MOL0     C 5599   4.941  11.423   8.479  0.5376 -0.0795 -0.5979
  783MOL0     C 5600   4.825  11.518   8.463  0.4013 -0.4430  0.3732
  783MOL0     O 5601   4.843  11.638   8.412  0.5358 -0.2056  0.5976
  783MOL0     C 5602   4.749  11.740   8.395 -0.2387 -0.8669  0.0466
  783MOL0     C 5603   4.806  11.867   8.360 -0.2112  0.3594 -0.3536
  783MOL0     C 5604   4.733  11.979   8.323  0.1228 -0.7540  0.2341
  783MOL0     C 5605   4.595  11.963   8.325 -0.7382  0.4229 -0.9496
  783MOL0     O 5606   4.532  12.071   8.282 -0.3499  0.4562  0.8448
  783MOL0     C 5607   4.401  12.102   8.324  0.4923  0.3901 -0.2842
  783MOL0     C 5608   4.409  12.150   8.473  0.5817  0.2333  0.0600
  783MOL0     C 5609   4.524  12.250   8.495 -0.7803  0.2640  1.4336
  783MOL0     C 5610   4.499  12.375   8.412 -0.8251 -0.5518 -0.0875
  783MOL0     C 5611   4.582  12.498   8.459  0.6649  0.2646  0.0433
  783MOL0     C 5612   4.578  12.532   8.607  0.2173  0.3683 -0.0352
  783MOL0     C 5613   4.626  12.674   8.642  0.4144  0.7863  0.1842
  783MOL0     C 5614   4.724  12.679   8.763 -0.4649 -0.3110  0.6706
  783MOL0    Cl 5615   4.864  12.572   8.739 -0.0014 -0.2214  0.2874
  783MOL0     C 5616   4.534  11.846   8.359  0.1583  1.0886  0.5810
  783MOL0     C 5617   4.613  11.729   8.394 -1.4350  0.0005 -0.5736
  783MOL0     O 5618   4.727  11.481   8.514  0.1819 -0.0316 -0.7724
  783MOL0     C 5619   5.050  11.441   8.388 -0.2834  0.3995  0.1840
  783MOL0     C 5620   5.161  11.350   8.378  0.0296 -0.4468 -0.1393
  783MOL0     N 5621   5.367  10.511   8.287 -0.1923 -0.2168  0.6204
  783MOL0     N 5622   5.315  10.418   8.211 -0.0861 -0.4067  0.1331
  783MOL0     C 5623   4.725   9.649   7.484  0.3786  0.4161 -0.5476
  783MOL0     C 5624   4.631   9.544   7.480 -0.2754 -0.0670  0.5843
  783MOL0     C 5625   4.449   9.167   7.642  0.0558 -0.9633  0.2192
  783MOL0     C 5626   4.444   9.111   7.767  0.3296  0.1198  0.8796
  783MOL0     C 5627   4.377   8.991   7.797 -0.1920 -0.0246 -0.4962
  783MOL0     C 5628   4.296   8.932   7.701 -0.5434  0.5722 -0.2102
  783MOL0     O 5629   4.240   8.807   7.713  0.1866  0.6774  0.2965
  783MOL0     C 5630   4.287   8.702   7.807  0.3978  0.1044 -0.2641
  783MOL0     C 5631   4.198   8.587   7.784 -0.2136  0.4046  0.3127
  783MOL0     C 5632   4.234   8.483   7.888  0.2880  0.3628  0.3888
  783MOL0     C 5633   4.158   8.356   7.854 -0.6765  0.4581 -0.9363
  783MOL0     C 5634   4.245   8.242   7.876  0.2087 -0.0613 -0.8174
  783MOL0     C 5635   4.320   8.146   7.884 -0.5148 -0.3475 -0.3490
  783MOL0     C 5636   4.298   8.981   7.577 -0.6489 -0.3745  0.1867
  783MOL0     C 5637   4.369   9.099   7.540 -0.8618  0.3180 -0.0115
  783MOL0     H 5638   4.852   9.282   7.484  1.5907  0.2790  0.6600
  783MOL0     H 5639   5.006   9.465   7.487  0.5862  0.6723  0.7416
  783MOL0     H 5640   4.820   9.899   7.528  0.5424  2.7082  0.9477
  783MOL0     H 5641   4.890   9.823   7.668 -2.3382  0.9121 -0.7104
  783MOL0     H 5642   5.115   9.893   7.539 -0.7182 -1.7873  0.2157
  783MOL0     H 5643   5.006  10.006   7.447 -0.8183 -1.4227 -0.7526
  783MOL0     H 5644   4.912  10.054   7.680 -0.2243 -2.8172 -0.2731
  783MOL0     H 5645   5.068   9.997   7.752 -3.1162  0.9718  2.9744
  783MOL0     H 5646   5.190  10.151   7.587 -0.9688 -0.4536 -1.9227
  783MOL0     H 5647   5.030  10.230   7.568  2.3281  0.3425 -0.9398
  783MOL0     H 5648   5.055  10.216   7.839 -1.4442  1.5090  0.0616
  783MOL0     H 5649   5.220  10.194   7.808 -2.1312 -3.0625  2.1440
  783MOL0     H 5650   5.207  10.414   7.664  1.3657 -1.9000  1.4240
  783MOL0     H 5651   5.042  10.437   7.734  1.0255  2.4301 -2.2216
  783MOL0     H 5652   5.314  10.474   7.843  1.1033 -4.6303  1.6001
  783MOL0     H 5653   5.170  10.574   7.867 -0.2517 -0.4889  1.7923
  783MOL0     H 5654   5.207  10.308   8.001  0.1064 -0.1668 -2.7708
  783MOL0     H 5655   5.070  10.418   8.009  0.2435 -0.5209 -2.4059
  783MOL0     H 5656   5.259  10.699   8.043 -3.5422  0.4088  1.7122
  783MOL0     H 5657   5.480  10.739   8.370  2.0659 -0.0887 -0.3097
  783MOL0     H 5658   5.501  10.795   8.206 -2.2390  0.8827 -0.6116
  783MOL0     H 5659   5.272  10.868   8.384  0.0722  0.2135  0.6818
  783MOL0     H 5660   5.273  10.914   8.220 -1.1531 -0.5657  0.6085
  783MOL0     H 5661   5.487  11.026   8.250 -0.4629 -0.0885 -0.8716
  783MOL0     H 5662   5.480  10.999   8.430  1.4878 -2.0224 -2.1102
  783MOL0     H 5663   5.271  11.158   8.261 -0.7353 -3.1796 -0.5365
  783MOL0     H 5664   5.408  11.238   8.362  0.1769 -0.5901  0.5105
  783MOL0     H 5665   5.088  11.149   8.615  2.9852  0.6727 -0.3216
  783MOL0     H 5666   4.920  11.234   8.752 -3.1244  1.1476  4.6311
  783MOL0     H 5667   4.845  11.383   8.735  0.9555 -0.2801  0.8599
  783MOL0     H 5668   4.769  11.242   8.649 -0.6086  1.2860  1.5308
  783MOL0     H 5669   4.914  11.878   8.356 -0.1509 -0.0997 -0.0972
  783MOL0     H 5670   4.765  12.077   8.288 -3.1582  0.8410  1.2655
  783MOL0     H 5671   4.357  12.175   8.255 -4.4458 -3.1762 -1.4643
  783MOL0     H 5672   4.331  12.019   8.309  1.6233 -0.1019 -4.0050
  783MOL0     H 5673   4.327  12.208   8.516  0.9350 -0.8521  2.3522
  783MOL0     H 5674   4.423  12.060   8.533 -1.2504  0.3688  0.7653
  783MOL0     H 5675   4.617  12.196   8.475 -1.5867 -0.9632  0.8735
  783MOL0     H 5676   4.525  12.269   8.602 -0.9337  1.8840  1.1794
  783MOL0     H 5677   4.541  12.353   8.314 -0.6528 -2.7490  0.4381
  783MOL0     H 5678   4.393  12.403   8.402 -0.6012  0.0060 -1.0236
  783MOL0     H 5679   4.558  12.586   8.399  0.5393  0.3233  0.1799
  783MOL0     H 5680   4.686  12.477   8.434  0.1849  0.8479 -2.7274
  783MOL0     H 5681   4.476  12.523   8.646 -0.4090  2.3410 -1.0428
  783MOL0     H 5682   4.631  12.457   8.666 -1.4591  0.2473  1.4010
  783MOL0     H 5683   4.535  12.733   8.657  0.4800  1.0972 -0.5940
  783MOL0     H 5684   4.678  12.712   8.553  0.3028  2.0899  0.6635
  783MOL0     H 5685   4.670  12.656   8.855 -0.6531 -0.6414  0.4800
  783MOL0     H 5686   4.746  12.786   8.776 -2.4244  0.4165 -1.2849
  783MOL0     H 5687   4.427  11.830   8.361  0.4906 -1.8798 -0.7089
  783MOL0     H 5688   4.555  11.645   8.430 -1.0693  0.0704  0.1882
  783MOL0     H 5689   5.050  11.530   8.327  0.0025  0.1932 -0.1238
  783MOL0     H 5690   5.246  11.374   8.315  1.3595  0.5205  1.9280
  783MOL0     H 5691   4.690   9.752   7.487  0.2543  0.3710  2.2519
  783MOL0     H 5692   4.524   9.560   7.468 -0.0692  2.1159  1.3124
  783MOL0     H 5693   4.490   9.164   7.849  0.5878  1.9045 -0.3537
  783MOL0     H 5694   4.382   8.954   7.899 -3.2865  0.5969 -0.0264
  783MOL0     H 5695   4.389   8.671   7.784  0.7807  0.9129  0.3013
  783MOL0     H 5696   4.284   8.739   7.910 -1.8778 -1.6276  0.3808
  783MOL0     H 5697   4.225   8.553   7.683  1.2742 -0.2601  0.9101
  783MOL0     H 5698   4.093   8.615   7.795  0.0689  0.4546  4.0772
  783MOL0     H 5699   4.198   8.510   7.988 -0.3144 -1.2294  0.6352
  783MOL0     H 5700   4.342   8.467   7.884  0.4949  1.8455 -1.9734
  783MOL0     H 5701   4.135   8.348   7.748  1.0061  2.5881 -1.5411
  783MOL0     H 5702   4.063   8.353   7.909  0.4695  1.0734  1.1716
  783MOL0     H 5703   4.385   8.062   7.900  1.0276  1.1678  2.1054
  783MOL0     H 5704   4.251   8.921   7.501  0.6742 -0.4044 -0.6508
  783MOL0     H 5705   4.369   9.148   7.443  0.4007  2.2387  0.8893
  784MOL0     O 5706   0.534  10.343   2.836 -0.3217  0.2434 -0.5226
  784MOL0     C 5707   0.507  10.222   2.834  0.2651 -0.6074 -0.8764
  784MOL0     O 5708   0.401  10.162   2.900 -0.0592 -0.3923  0.7721
  784MOL0     C 5709   0.299  10.235   2.954 -0.5464 -0.4319 -0.3740
  784MOL0     C 5710   0.231  10.176   3.064 -0.6145  0.2305  0.1539
  784MOL0     C 5711   0.132  10.235   3.135 -0.0946 -0.2917  1.0778
  784MOL0     C 5712   0.077  10.361   3.092  0.3498 -0.2901 -0.1901
  784MOL0     O 5713  -0.035  10.408   3.157  0.5959 -0.3786 -0.8565
  784MOL0     C 5714  -0.094  10.529   3.111 -0.7300  0.2970 -0.2921
  784MOL0     C 5715  -0.166  10.581   3.236 -0.2692  0.0181  0.1171
  784MOL0     C 5716  -0.230  10.719   3.205 -0.0184  0.5582 -0.5729
  784MOL0     C 5717  -0.300  10.782   3.330  0.0946  0.0731  0.1593
  784MOL0     C 5718  -0.451  10.734   3.349 -0.6046  0.0680 -0.3051
  784MOL0     C 5719  -0.491  10.737   3.499  0.6367  0.4035  0.7418
  784MOL0     C 5720  -0.486  10.878   3.552 -0.3928 -0.6454 -0.2745
  784MOL0     C 5721  -0.535  10.999   3.476  0.6471 -0.0746  0.3091
  784MOL0     N 5722  -0.682  11.018   3.496  0.3087 -0.7211  0.5140
  784MOL0     C 5723  -0.779  10.913   3.502 -0.1469  0.1836  0.4065
  784MOL0     C 5724  -0.899  10.984   3.523 -0.4259  0.3972  0.4853
  784MOL0     C 5725  -1.040  10.925   3.516 -0.1884  0.0442 -0.0454
  784MOL0     C 5726  -1.039  10.773   3.518  0.6128 -0.2591  0.1657
  784MOL0     C 5727  -1.001  10.705   3.385  1.0382 -1.1165 -0.6390
  784MOL0     C 5728  -0.992  10.558   3.386  0.3459  1.1779  0.8370
  784MOL0     O 5729  -1.099  10.510   3.463  0.1881 -0.5928 -0.4383
  784MOL0     C 5730  -1.086  10.437   3.578  0.4601  0.3564  0.4961
  784MOL0     C 5731  -0.988  10.339   3.604 -0.8825  0.1676  0.0592
  784MOL0     C 5732  -0.981  10.267   3.723  0.6363  0.3488  0.7176
  784MOL0     C 5733  -0.880  10.160   3.735  0.0629 -0.9749  0.2046
  784MOL0     C 5734  -1.084  10.300   3.824  0.0677 -0.2072  0.6801
  784MOL0     C 5735  -1.089  10.244   3.961  0.2605 -0.2217 -0.8976
  784MOL0     O 5736  -1.041  10.118   3.992  0.4062  0.2539 -0.0214
  784MOL0     C 5737  -1.044  10.069   4.122  0.0407 -0.0746 -0.3634
  784MOL0     C 5738  -1.066  10.140   4.242 -0.5116 -0.0197  0.4245
  784MOL0     C 5739  -1.059  10.077   4.369 -0.5782 -0.0728  0.9102
  784MOL0     C 5740  -1.067   9.937   4.370  0.3647  0.0203  0.2410
  784MOL0     O 5741  -1.063   9.851   4.479 -0.3543  0.1996  0.3619
  784MOL0     C 5742  -1.007   9.905   4.609 -0.1224 -0.1730 -0.4689
  784MOL0     C 5743  -1.036   9.806   4.716 -0.5939  0.2802 -0.4561
  784MOL0     C 5744  -1.190   9.772   4.709 -0.2361  0.2091  0.2844
  784MOL0     C 5745  -1.291   9.886   4.747  0.4077  1.4245 -0.2145
  784MOL0     C 5746  -1.425   9.827   4.778 -0.8144 -0.2233 -1.0969
  784MOL0     C 5747  -1.514   9.951   4.823  0.7563  0.6531 -0.8472
  784MOL0     C 5748  -1.666   9.903   4.828  0.4251  0.3545  0.2986
  784MOL0     C 5749  -1.716   9.840   4.958  0.1036 -0.2028 -0.8385
  784MOL0    Cl 5750  -1.717   9.957   5.102 -0.1311 -0.0723 -0.0840
  784MOL0     C 5751  -1.053   9.867   4.247 -0.2038 -0.5162  0.0590
  784MOL0     C 5752  -1.049   9.932   4.130 -0.4981 -0.6537 -0.1442
  784MOL0     O 5753  -1.148  10.313   4.046 -0.6745  0.4154  1.1605
  784MOL0     C 5754  -1.185  10.390   3.791  0.0184  0.2107  0.1567
  784MOL0     C 5755  -1.188  10.449   3.670  0.0088  0.1510  0.0479
  784MOL0     N 5756  -0.872  11.118   3.543 -0.7931 -1.3057 -0.2524
  784MOL0     N 5757  -0.738  11.137   3.529  0.5125  0.2385  0.6303
  784MOL0     C 5758   0.152  10.421   2.990  0.5524 -0.0461 -0.6946
  784MOL0     C 5759   0.258  10.361   2.921 -0.0559  0.2266 -1.0813
  784MOL0     C 5760   0.609  10.135   2.785  0.1415  0.5686  0.3815
  784MOL0     C 5761   0.724  10.193   2.730  0.3651 -0.5854  0.2013
  784MOL0     C 5762   0.831  10.114   2.673  0.5018 -0.4223 -0.0888
  784MOL0     C 5763   0.829   9.973   2.684 -1.0532 -0.3407  0.6203
  784MOL0     O 5764   0.917   9.879   2.631 -0.3664 -0.5505 -0.7709
  784MOL0     C 5765   1.044   9.921   2.574  0.3237  0.1483 -0.3593
  784MOL0     C 5766   1.061   9.825   2.453  0.3041 -0.1046 -0.7202
  784MOL0     C 5767   1.083   9.683   2.503  0.6906  1.0409  0.0050
  784MOL0     C 5768   1.231   9.657   2.531  0.0495 -0.3050 -0.3249
  784MOL0     C 5769   1.242   9.551   2.630  0.2113  1.2155  0.0244
  784MOL0     C 5770   1.240   9.461   2.711 -0.0949  0.3181 -0.3645
  784MOL0     C 5771   0.710   9.918   2.734 -0.6444 -0.4666 -0.8906
  784MOL0     C 5772   0.603   9.999   2.782  0.7826  0.6081  0.0018
  784MOL0     H 5773   0.248  10.072   3.089 -0.6404  0.3566  0.7034
  784MOL0     H 5774   0.069  10.183   3.207 -0.4470 -1.0187  0.2666
  784MOL0     H 5775  -0.024  10.606   3.078 -3.9877  2.2361 -3.4146
  784MOL0     H 5776  -0.161  10.512   3.027 -1.3933  2.3491 -0.2240
  784MOL0     H 5777  -0.240  10.513   3.280  0.4866 -0.6443  0.4013
  784MOL0     H 5778  -0.095  10.594   3.318 -0.3052 -1.6722  0.4708
  784MOL0     H 5779  -0.154  10.791   3.173  1.5482 -0.9898 -0.4595
  784MOL0     H 5780  -0.306  10.715   3.126 -0.7129  0.0316  0.1140
  784MOL0     H 5781  -0.239  10.771   3.420  1.5876  3.7547 -0.2262
  784MOL0     H 5782  -0.298  10.889   3.307 -0.4400 -0.2389 -1.4855
  784MOL0     H 5783  -0.511  10.804   3.290  2.4753  0.2473 -3.5117
  784MOL0     H 5784  -0.457  10.636   3.301 -1.6832 -0.7373  1.3684
  784MOL0     H 5785  -0.592  10.701   3.520  1.0418  0.4953  3.1722
  784MOL0     H 5786  -0.433  10.664   3.557 -0.5571  0.1817  1.6953
  784MOL0     H 5787  -0.538  10.882   3.648 -0.9557  0.3706 -0.6056
  784MOL0     H 5788  -0.382  10.907   3.570 -0.7160  1.7221 -1.7819
  784MOL0     H 5789  -0.514  10.989   3.370 -0.1469  1.3175  0.0005
  784MOL0     H 5790  -0.487  11.091   3.509 -0.0718  1.7708 -3.3769
  784MOL0     H 5791  -0.777  10.805   3.500 -2.7955  0.0554 -1.2117
  784MOL0     H 5792  -1.099  10.972   3.596  1.6574 -0.1918  1.5206
  784MOL0     H 5793  -1.094  10.960   3.427  0.6835  2.3799  0.2800
  784MOL0     H 5794  -1.144  10.748   3.536 -0.0333  0.7428 -1.9791
  784MOL0     H 5795  -0.972  10.725   3.590  2.3219  0.5462 -0.8322
  784MOL0     H 5796  -0.913  10.744   3.333  1.5886 -2.8129 -1.0329
  784MOL0     H 5797  -1.082  10.733   3.317  1.9180  0.9139 -0.9224
  784MOL0     H 5798  -0.895  10.526   3.423 -1.0190 -3.9983  0.7389
  784MOL0     H 5799  -1.007  10.523   3.283  1.0626 -2.5574  1.8788
  784MOL0     H 5800  -0.925  10.330   3.516 -0.6512 -0.2514  0.2648
  784MOL0     H 5801  -0.798  10.178   3.665  0.3875  3.1440  1.3847
  784MOL0     H 5802  -0.839  10.169   3.837 -0.3209  0.1790  0.2728
  784MOL0     H 5803  -0.931  10.064   3.733 -2.0813  0.1289 -0.9718
  784MOL0     H 5804  -1.065  10.249   4.240 -0.6011  0.0554  2.3548
  784MOL0     H 5805  -1.050  10.148   4.451  0.8262 -1.4533  1.9973
  784MOL0     H 5806  -0.900   9.926   4.605 -0.3093  0.8268 -0.5423
  784MOL0     H 5807  -1.062   9.998   4.628 -3.5864 -1.8116 -1.6008
  784MOL0     H 5808  -0.981   9.713   4.701 -1.4909 -0.7637  2.1383
  784MOL0     H 5809  -1.006   9.855   4.809  0.9964  0.4737 -1.0477
  784MOL0     H 5810  -1.215   9.699   4.787  2.0231  0.6765  1.5284
  784MOL0     H 5811  -1.207   9.731   4.610 -2.3082  1.3892  0.0905
  784MOL0     H 5812  -1.248   9.925   4.840  1.6697  0.9294 -0.5677
  784MOL0     H 5813  -1.297   9.971   4.678 -1.6666  2.5356  1.2065
  784MOL0     H 5814  -1.426   9.756   4.862  0.8929  0.8200 -0.1301
  784MOL0     H 5815  -1.475   9.782   4.692 -2.8435 -0.6912  0.2550
  784MOL0     H 5816  -1.484   9.995   4.918 -2.1939 -0.9149  0.9371
  784MOL0     H 5817  -1.510  10.032   4.749 -1.0734  1.9976  0.4259
  784MOL0     H 5818  -1.692   9.833   4.748  1.3938  2.3664 -1.9118
  784MOL0     H 5819  -1.734   9.986   4.805  0.8667  0.3210 -1.2486
  784MOL0     H 5820  -1.649   9.760   4.993  2.1889  1.6073 -0.4094
  784MOL0     H 5821  -1.817   9.801   4.947  0.0783 -0.9064  1.2941
  784MOL0     H 5822  -1.073   9.760   4.242 -3.5590  0.0590 -0.9337
  784MOL0     H 5823  -1.050   9.870   4.041 -2.4618 -0.6808 -0.1321
  784MOL0     H 5824  -1.264  10.415   3.860 -1.2475  0.4502 -1.3272
  784MOL0     H 5825  -1.267  10.523   3.656  1.0571  1.1044 -1.0396
  784MOL0     H 5826   0.145  10.524   2.957 -0.6393 -0.3914 -1.5419
  784MOL0     H 5827   0.302  10.426   2.846  0.8014  3.9721  2.2754
  784MOL0     H 5828   0.731  10.300   2.710  0.6550 -0.5494  0.4944
  784MOL0     H 5829   0.914  10.167   2.628 -1.0931 -1.8676 -5.4986
  784MOL0     H 5830   1.054  10.025   2.541  3.7387  0.0312 -0.1101
  784MOL0     H 5831   1.126   9.903   2.644  1.3858 -1.9017 -2.0130
  784MOL0     H 5832   1.145   9.873   2.403 -2.0759  2.8324 -2.2357
  784MOL0     H 5833   0.978   9.822   2.382 -1.9037  1.7537  1.5965
  784MOL0     H 5834   1.057   9.620   2.418  2.1881 -1.4389  1.2732
  784MOL0     H 5835   1.028   9.664   2.596 -2.1099  3.7049 -0.9474
  784MOL0     H 5836   1.284   9.743   2.573 -0.9162 -0.0028  0.2995
  784MOL0     H 5837   1.280   9.631   2.437 -0.4872  1.4473 -1.1215
  784MOL0     H 5838   1.244   9.380   2.781 -1.5884 -0.9101 -1.6398
  784MOL0     H 5839   0.708   9.809   2.739 -2.3785 -0.4039  1.6581
  784MOL0     H 5840   0.509   9.950   2.809  0.4568  1.4713  0.4660
  785MOL0     O 5841   3.331   0.800   9.710 -0.9254  0.5325  0.5339
  785MOL0     C 5842   3.320   0.803   9.827  0.3669  0.1594 -1.1672
  785MOL0     O 5843   3.322   0.692   9.899  0.4287  0.5609 -0.2718
  785MOL0     C 5844   3.412   0.596   9.861 -0.0441  0.9660  0.0056
  785MOL0     C 5845   3.361   0.461   9.851  0.2593 -0.0414 -0.3631
  785MOL0     C 5846   3.427   0.354   9.806 -0.9659  0.8119 -0.1105
  785MOL0     C 5847   3.564   0.378   9.774 -0.4592  0.4739  0.0294
  785MOL0     O 5848   3.636   0.267   9.729 -0.5685  0.4779 -0.1302
  785MOL0     C 5849   3.740   0.292   9.639 -0.0362  0.0915 -0.1099
  785MOL0     C 5850   3.784   0.161   9.575  0.6226 -0.2915  0.1496
  785MOL0     C 5851   3.856   0.075   9.684  0.4826  0.3930  0.1710
  785MOL0     C 5852   3.874  -0.063   9.609  0.8370 -0.9206 -0.1222
  785MOL0     C 5853   3.925  -0.165   9.710 -0.3467  0.0509  0.3967
  785MOL0     C 5854   4.013  -0.277   9.644 -0.7704 -0.6205 -0.4555
  785MOL0     C 5855   4.058  -0.380   9.740  0.0621 -0.2870 -0.4171
  785MOL0     C 5856   4.086  -0.515   9.679 -0.1708  0.1552 -0.5097
  785MOL0     N 5857   3.965  -0.570   9.620  0.2313 -0.6759 -0.0424
  785MOL0     C 5858   3.844  -0.613   9.679 -0.4247 -0.5579 -0.4782
  785MOL0     C 5859   3.768  -0.665   9.586  0.1879 -0.5258 -0.1759
  785MOL0     C 5860   3.625  -0.708   9.601  0.2694  0.2972  0.1681
  785MOL0     C 5861   3.539  -0.622   9.690 -0.4491 -0.3468  0.5369
  785MOL0     C 5862   3.525  -0.480   9.633  0.0018 -0.8363  1.3553
  785MOL0     C 5863   3.475  -0.379   9.731  0.5952  0.0653 -0.1908
  785MOL0     O 5864   3.432  -0.254   9.682 -0.1220  1.2806 -0.0466
  785MOL0     C 5865   3.296  -0.232   9.700  0.5433  0.2251 -0.3620
  785MOL0     C 5866   3.196  -0.234   9.604 -0.0949 -0.5963 -0.7173
  785MOL0     C 5867   3.055  -0.215   9.632  0.3618 -0.5911 -0.2475
  785MOL0     C 5868   2.966  -0.248   9.518  0.3714  0.1011  0.3988
  785MOL0     C 5869   3.020  -0.185   9.765 -0.9620 -0.0883  0.1983
  785MOL0     C 5870   2.873  -0.154   9.807  0.1728 -0.4778  0.2715
  785MOL0     O 5871   2.857  -0.150   9.938 -0.0739 -0.4671 -0.7042
  785MOL0     C 5872   2.745  -0.090   9.990  0.1119  0.2614 -0.7308
  785MOL0     C 5873   2.629  -0.160  10.027 -0.5299  0.7619  0.5521
  785MOL0     C 5874   2.529  -0.103  10.090  0.0631 -0.1178  0.6362
  785MOL0     C 5875   2.526   0.036  10.108  0.2692  0.4078 -0.5028
  785MOL0     O 5876   2.416   0.078  10.173  0.6674 -0.4883  0.6771
  785MOL0     C 5877   2.391   0.219  10.181  0.4916 -0.7132  0.0240
  785MOL0     C 5878   2.300   0.246  10.291  0.1007 -0.0365 -0.4692
  785MOL0     C 5879   2.170   0.161  10.288  0.7101  0.3092  0.0953
  785MOL0     C 5880   2.047   0.227  10.355  0.0863 -0.6445  0.3060
  785MOL0     C 5881   1.918   0.167  10.300 -0.1600  0.5288 -0.3276
  785MOL0     C 5882   1.890   0.025  10.360 -0.3981  0.2186  0.2746
  785MOL0     C 5883   1.746  -0.028  10.348  0.3397 -0.3852 -0.0908
  785MOL0     C 5884   1.719  -0.150  10.428 -0.0088 -0.1481  0.3510
  785MOL0    Cl 5885   1.534  -0.150  10.454  0.4564 -0.1698 -0.2730
  785MOL0     C 5886   2.631   0.115  10.069 -0.5345 -0.2172 -0.0648
  785MOL0     C 5887   2.738   0.054  10.005 -0.4140  1.2659 -0.2247
  785MOL0     O 5888   2.785  -0.120   9.727  0.4770  0.1391 -0.1242
  785MOL0     C 5889   3.117  -0.190   9.867 -0.5219  0.0183 -0.3679
  785MOL0     C 5890   3.249  -0.233   9.836 -0.3124 -1.4973  0.7572
  785MOL0     N 5891   3.839  -0.649   9.468  0.0538  0.0583 -0.4079
  785MOL0     N 5892   3.962  -0.604   9.487 -0.1108  0.4389  0.7932
  785MOL0     C 5893   3.620   0.509   9.780 -0.5844  0.5034 -0.5066
  785MOL0     C 5894   3.543   0.615   9.829 -0.1822 -0.7736  0.1854
  785MOL0     C 5895   3.282   0.927   9.903 -0.0048 -0.1078  0.5590
  785MOL0     C 5896   3.242   0.920  10.034  0.6301 -0.8927  0.7562
  785MOL0     C 5897   3.201   1.035  10.102 -0.1618 -0.7989  0.5733
  785MOL0     C 5898   3.193   1.160  10.034  0.4456  0.3206 -0.2642
  785MOL0     O 5899   3.141   1.262  10.108 -0.0950  0.1349 -0.5849
  785MOL0     C 5900   3.174   1.400  10.079 -0.2409  0.4439  0.6510
  785MOL0     C 5901   3.133   1.487  10.196 -0.8532 -0.4185 -0.8306
  785MOL0     C 5902   3.176   1.626  10.176  0.4593 -0.0133  0.0545
  785MOL0     C 5903   3.323   1.650  10.229  0.5365  0.3851  1.5027
  785MOL0     C 5904   3.327   1.678  10.370  1.0969 -0.1790 -0.1196
  785MOL0     C 5905   3.330   1.701  10.490 -0.5855 -0.3546  0.4929
  785MOL0     C 5906   3.237   1.165   9.903  0.6306 -0.7114  0.9076
  785MOL0     C 5907   3.275   1.048   9.831  0.1211 -0.6656 -0.1083
  785MOL0     H 5908   3.260   0.462   9.890  0.8413  1.3723  1.2785
  785MOL0     H 5909   3.364   0.265   9.808 -3.6785  2.5833  2.8025
  785MOL0     H 5910   3.717   0.357   9.553  1.2660  1.2582  0.3752
  785MOL0     H 5911   3.830   0.326   9.691 -0.9207 -0.8077  2.0802
  785MOL0     H 5912   3.688   0.112   9.557 -0.5357  1.7046  0.6256
  785MOL0     H 5913   3.839   0.176   9.482  0.4526 -4.6058 -0.8830
  785MOL0     H 5914   3.957   0.109   9.710  0.1309  0.6907  1.1779
  785MOL0     H 5915   3.793   0.070   9.773 -0.0415  1.8200 -0.0980
  785MOL0     H 5916   3.780  -0.105   9.571  0.2704 -2.3959  2.6453
  785MOL0     H 5917   3.941  -0.051   9.523 -1.8699 -0.0487 -2.2783
  785MOL0     H 5918   3.992  -0.110   9.777  2.3315 -2.7647  0.2586
  785MOL0     H 5919   3.838  -0.207   9.760 -0.4879 -2.3436 -1.6536
  785MOL0     H 5920   3.967  -0.318   9.553  1.4498  0.1442 -1.9876
  785MOL0     H 5921   4.103  -0.228   9.606  0.5509  0.7714  3.9473
  785MOL0     H 5922   4.146  -0.342   9.793 -0.8962 -0.1692  1.1379
  785MOL0     H 5923   3.985  -0.397   9.820  2.9104  0.7957  2.6273
  785MOL0     H 5924   4.117  -0.588   9.754 -1.2866  0.4213  0.2372
  785MOL0     H 5925   4.162  -0.505   9.602 -0.1800  1.6043 -0.3657
  785MOL0     H 5926   3.827  -0.617   9.786  3.4450  2.1287  0.4641
  785MOL0     H 5927   3.577  -0.711   9.503 -0.7919  2.9652  0.5154
  785MOL0     H 5928   3.613  -0.803   9.654 -2.0931 -0.0133 -0.7894
  785MOL0     H 5929   3.585  -0.614   9.789  1.9596  6.8752 -0.5382
  785MOL0     H 5930   3.440  -0.669   9.700 -0.1056 -0.9999  0.9102
  785MOL0     H 5931   3.452  -0.492   9.553 -0.1598  3.5296  0.6183
  785MOL0     H 5932   3.613  -0.446   9.578 -1.0364  0.2595  0.3053
  785MOL0     H 5933   3.564  -0.353   9.790  2.0510 -0.1197 -2.1978
  785MOL0     H 5934   3.413  -0.420   9.811  4.0695 -0.3522  2.5487
  785MOL0     H 5935   3.229  -0.265   9.506 -3.5021 -0.9493 -1.8975
  785MOL0     H 5936   2.948  -0.354   9.536 -2.1476  0.4391  0.3194
  785MOL0     H 5937   2.873  -0.191   9.502  1.2925  1.2473 -1.2391
  785MOL0     H 5938   3.027  -0.232   9.428 -0.6097  0.8360 -0.1699
  785MOL0     H 5939   2.616  -0.268  10.016  2.7118  0.1825  1.4669
  785MOL0     H 5940   2.444  -0.161  10.125  0.2551 -0.2464  0.8913
  785MOL0     H 5941   2.477   0.283  10.204 -0.8421  0.6074  1.5882
  785MOL0     H 5942   2.345   0.244  10.085  0.7119 -0.7504 -0.0917
  785MOL0     H 5943   2.347   0.217  10.385  0.9242  1.2083 -0.4847
  785MOL0     H 5944   2.293   0.355  10.294 -0.0060  0.0105 -1.8013
  785MOL0     H 5945   2.193   0.068  10.341 -0.3789 -1.3341 -2.1277
  785MOL0     H 5946   2.146   0.130  10.186 -0.0508 -3.0392  1.1484
  785MOL0     H 5947   2.049   0.212  10.464  2.1887  1.1109  0.5758
  785MOL0     H 5948   2.036   0.334  10.335 -1.9160 -0.8075  0.3725
  785MOL0     H 5949   1.930   0.165  10.191  1.7575  2.4424 -0.2194
  785MOL0     H 5950   1.829   0.225  10.324  0.9279  1.7040  1.0490
  785MOL0     H 5951   1.948  -0.048  10.303 -2.3785 -2.8034  1.7963
  785MOL0     H 5952   1.907   0.019  10.468 -2.9721 -1.3993  0.7083
  785MOL0     H 5953   1.724  -0.038  10.242 -0.3112  3.0019 -0.3682
  785MOL0     H 5954   1.682   0.053  10.385 -1.4848 -1.7334 -0.1489
  785MOL0     H 5955   1.775  -0.151  10.523 -0.9555  0.9735  0.9361
  785MOL0     H 5956   1.746  -0.238  10.368 -5.2916  0.6159 -3.8740
  785MOL0     H 5957   2.629   0.221  10.093  1.0835 -0.9185  3.9174
  785MOL0     H 5958   2.828   0.111   9.982  0.7919 -0.7972 -0.8958
  785MOL0     H 5959   3.081  -0.163   9.966 -5.0933 -0.4414 -1.6826
  785MOL0     H 5960   3.328  -0.248   9.910 -2.5533 -2.4839  3.0986
  785MOL0     H 5961   3.723   0.530   9.754 -1.4244  2.1835 -2.8428
  785MOL0     H 5962   3.587   0.714   9.838  0.1589 -0.6213 -2.4283
  785MOL0     H 5963   3.251   0.826  10.087  0.4385 -1.3760 -0.0597
  785MOL0     H 5964   3.158   1.040  10.201  0.7369  1.3888  0.9045
  785MOL0     H 5965   3.282   1.400  10.061 -0.1434  0.5712  1.1938
  785MOL0     H 5966   3.127   1.430   9.985  1.4116  2.6182  0.4399
  785MOL0     H 5967   3.186   1.447  10.283 -3.1530  1.3116  1.5190
  785MOL0     H 5968   3.025   1.486  10.213 -0.6971 -3.9531  0.9931
  785MOL0     H 5969   3.099   1.688  10.222  0.2931  0.7491 -1.2113
  785MOL0     H 5970   3.185   1.651  10.070 -0.1359 -0.1044 -0.0196
  785MOL0     H 5971   3.364   1.736  10.176 -0.1619  0.5380  1.1912
  785MOL0     H 5972   3.387   1.564  10.209 -0.6791  0.0463 -1.4302
  785MOL0     H 5973   3.322   1.734  10.592  1.8400 -0.3948  0.7598
  785MOL0     H 5974   3.215   1.253   9.843  1.9359 -0.2221  1.0909
  785MOL0     H 5975   3.289   1.052   9.723 -0.3490 -0.3020 -0.1589
  786MOL0     O 5976   1.820   4.867   2.925 -0.3184 -0.0774  0.9446
  786MOL0     C 5977   1.881   4.887   2.820  0.2603  0.7370  0.9648
  786MOL0     O 5978   1.828   4.879   2.693  0.0376 -0.2514  0.2362
  786MOL0     C 5979   1.690   4.892   2.672  0.5775 -0.5239  0.3261
  786MOL0     C 5980   1.639   5.011   2.626  0.4276 -0.0471  0.0673
  786MOL0     C 5981   1.501   5.031   2.598  0.0166 -0.0894 -0.5359
  786MOL0     C 5982   1.412   4.924   2.603  0.0517 -0.2845  0.0353
  786MOL0     O 5983   1.284   4.956   2.565  0.0711  0.0770 -0.0717
  786MOL0     C 5984   1.179   4.863   2.560 -0.2366  0.0411 -0.4698
  786MOL0     C 5985   1.115   4.816   2.688  0.3882  0.0150 -0.4811
  786MOL0     C 5986   1.054   4.674   2.679  0.3060  1.0036  0.5280
  786MOL0     C 5987   0.930   4.645   2.583 -0.5507  0.0265  0.0663
  786MOL0     C 5988   0.808   4.722   2.627 -0.1238  0.3763 -0.4280
  786MOL0     C 5989   0.687   4.692   2.542  0.7005  0.0994 -0.9630
  786MOL0     C 5990   0.577   4.798   2.572 -0.3759  0.7347  0.2854
  786MOL0     C 5991   0.458   4.779   2.483  0.4534 -0.5279 -0.1736
  786MOL0     N 5992   0.340   4.853   2.531  0.4715  0.3662 -0.4663
  786MOL0     C 5993   0.266   4.833   2.643 -0.7091 -0.5203  0.6142
  786MOL0     C 5994   0.153   4.912   2.637  0.3467 -0.1992  0.2434
  786MOL0     C 5995   0.058   4.936   2.740 -0.7687 -1.1384  0.3473
  786MOL0     C 5996  -0.058   4.841   2.723 -0.3189  0.7030  0.1843
  786MOL0     C 5997  -0.085   4.753   2.843  0.2874  0.3038  0.1224
  786MOL0     C 5998  -0.175   4.807   2.951 -0.6616 -0.0372 -0.0719
  786MOL0     O 5999  -0.304   4.803   2.895  1.0467  0.5025 -0.3925
  786MOL0     C 6000  -0.400   4.869   2.967  0.2583  0.3295  0.0658
  786MOL0     C 6001  -0.386   4.907   3.101  0.1387  0.9530 -0.0952
  786MOL0     C 6002  -0.471   4.995   3.161  0.2578  0.6754 -1.1645
  786MOL0     C 6003  -0.441   5.044   3.306  0.0742 -0.2480 -0.1146
  786MOL0     C 6004  -0.588   5.040   3.085 -0.0490 -0.2826 -0.3159
  786MOL0     C 6005  -0.688   5.133   3.150  0.3507  0.2632 -1.0479
  786MOL0     O 6006  -0.687   5.170   3.280 -1.0863  0.5910  0.9675
  786MOL0     C 6007  -0.760   5.266   3.325 -0.8339 -1.4189  0.0795
  786MOL0     C 6008  -0.818   5.258   3.445 -0.2491  0.0215 -0.5547
  786MOL0     C 6009  -0.890   5.372   3.496  0.7595 -0.4094 -0.6612
  786MOL0     C 6010  -0.913   5.487   3.425  1.0990 -0.3103 -0.0396
  786MOL0     O 6011  -0.981   5.602   3.464  0.6917  0.7659  0.1828
  786MOL0     C 6012  -1.081   5.587   3.566  0.0695 -0.5688 -0.2113
  786MOL0     C 6013  -1.131   5.734   3.619 -0.1979  0.1789 -0.2060
  786MOL0     C 6014  -1.242   5.735   3.722  0.7347  0.4768 -0.4936
  786MOL0     C 6015  -1.221   5.644   3.851 -0.1140 -0.7584  0.6428
  786MOL0     C 6016  -1.328   5.661   3.964 -0.4863  0.4597  0.8336
  786MOL0     C 6017  -1.453   5.599   3.914  0.8075 -0.0260 -0.5051
  786MOL0     C 6018  -1.571   5.627   4.017  0.4535  0.6479  0.6835
  786MOL0     C 6019  -1.699   5.605   3.933 -0.7489  0.1522 -0.2144
  786MOL0    Cl 6020  -1.695   5.464   3.822  0.1153  0.3728 -0.0357
  786MOL0     C 6021  -0.839   5.496   3.313  1.1513 -0.6775  0.1681
  786MOL0     C 6022  -0.757   5.392   3.263  0.6025 -0.0619 -0.0320
  786MOL0     O 6023  -0.766   5.180   3.070  0.7370  0.8984 -0.1251
  786MOL0     C 6024  -0.599   4.995   2.959 -0.1394  0.0875  0.8879
  786MOL0     C 6025  -0.515   4.908   2.899 -0.9934 -0.2307  0.2372
  786MOL0     N 6026   0.143   4.956   2.512  0.4776  0.6944 -0.1228
  786MOL0     N 6027   0.252   4.919   2.453  0.4538 -0.3693 -0.3544
  786MOL0     C 6028   1.461   4.797   2.640  0.4140 -0.1672 -0.8905
  786MOL0     C 6029   1.595   4.783   2.680  1.0083  0.4402  0.5477
  786MOL0     C 6030   2.033   4.884   2.832  0.4139 -0.2343  0.4034
  786MOL0     C 6031   2.117   4.939   2.733  0.2348  0.1185 -0.8062
  786MOL0     C 6032   2.257   4.921   2.738 -0.4924  0.3752 -0.1369
  786MOL0     C 6033   2.317   4.844   2.834  1.1682  0.8164 -0.7048
  786MOL0     O 6034   2.443   4.812   2.854 -0.3590 -0.0209  0.2175
  786MOL0     C 6035   2.545   4.879   2.776  0.4478 -0.2529 -0.0849
  786MOL0     C 6036   2.677   4.823   2.813 -1.8625  0.3336 -0.2477
  786MOL0     C 6037   2.811   4.892   2.747 -0.3278  0.8480  0.8102
  786MOL0     C 6038   2.842   5.018   2.818 -0.3283  0.0351 -0.7549
  786MOL0     C 6039   2.993   5.033   2.809  0.8449 -0.4629  0.5090
  786MOL0     C 6040   3.111   5.046   2.794 -0.3291  0.2260 -0.4201
  786MOL0     C 6041   2.227   4.794   2.931 -0.0041  0.8009 -0.4003
  786MOL0     C 6042   2.090   4.810   2.931 -0.1620  0.7685  0.4454
  786MOL0     H 6043   1.709   5.093   2.620  1.5956 -0.6388  3.4680
  786MOL0     H 6044   1.467   5.130   2.566  1.7188  0.7302  0.1021
  786MOL0     H 6045   1.100   4.910   2.501 -0.5969 -1.2998 -1.1047
  786MOL0     H 6046   1.215   4.777   2.503 -1.5762 -1.9293  1.4640
  786MOL0     H 6047   1.197   4.816   2.761 -1.4359  0.2069  1.6782
  786MOL0     H 6048   1.048   4.899   2.709  1.4535  0.0842  3.3725
  786MOL0     H 6049   1.134   4.610   2.639 -1.6962 -1.0718 -0.3852
  786MOL0     H 6050   1.019   4.642   2.777 -1.6494  0.7353 -0.2038
  786MOL0     H 6051   0.975   4.671   2.487  0.1532  1.1619  0.6819
  786MOL0     H 6052   0.898   4.540   2.588 -3.8737  0.9671  1.6757
  786MOL0     H 6053   0.785   4.702   2.732  3.0405 -0.1965  0.2525
  786MOL0     H 6054   0.836   4.827   2.615  2.8971 -0.0705  1.6108
  786MOL0     H 6055   0.717   4.683   2.438 -1.7427 -6.6020 -1.5886
  786MOL0     H 6056   0.647   4.592   2.560 -4.9017  2.2640  1.0941
  786MOL0     H 6057   0.551   4.789   2.678  0.2368 -2.5562  0.2768
  786MOL0     H 6058   0.624   4.891   2.541  2.2643 -0.4753  0.3470
  786MOL0     H 6059   0.425   4.678   2.461 -2.6588  0.9488 -3.2207
  786MOL0     H 6060   0.471   4.812   2.379 -3.1354 -1.3036 -1.0094
  786MOL0     H 6061   0.301   4.779   2.730  2.1968 -2.3092 -1.4631
  786MOL0     H 6062   0.089   4.940   2.845 -0.0275  0.8519  0.0895
  786MOL0     H 6063   0.029   5.042   2.738 -0.3342 -0.9793  1.4205
  786MOL0     H 6064  -0.032   4.769   2.645  1.7691 -1.0586  2.3405
  786MOL0     H 6065  -0.151   4.895   2.702  0.0608  1.0622 -0.6005
  786MOL0     H 6066   0.008   4.729   2.895 -0.1891  0.5487  1.1167
  786MOL0     H 6067  -0.115   4.650   2.821  3.0358 -1.0112  1.9119
  786MOL0     H 6068  -0.152   4.908   2.985 -2.3025  0.8623 -1.4543
  786MOL0     H 6069  -0.183   4.741   3.038  0.0503 -0.2879 -0.1978
  786MOL0     H 6070  -0.299   4.869   3.153 -1.3218 -2.9506 -0.2311
  786MOL0     H 6071  -0.353   5.000   3.352 -0.1445  2.4435  3.2647
  786MOL0     H 6072  -0.429   5.151   3.320  0.9467 -0.3374 -0.1707
  786MOL0     H 6073  -0.531   5.019   3.364  0.3533  4.1329  2.6504
  786MOL0     H 6074  -0.800   5.166   3.499 -1.2726  0.5280  0.6995
  786MOL0     H 6075  -0.930   5.367   3.597  2.3573  0.0106  0.0240
  786MOL0     H 6076  -1.155   5.517   3.527  2.3384 -1.6727 -2.8750
  786MOL0     H 6077  -1.038   5.545   3.658 -1.0917 -0.6023  0.3344
  786MOL0     H 6078  -1.044   5.776   3.669 -0.9782  2.1872 -0.4540
  786MOL0     H 6079  -1.157   5.800   3.536  0.6899  2.5237  1.2766
  786MOL0     H 6080  -1.331   5.692   3.675  0.2498 -1.5896  2.0438
  786MOL0     H 6081  -1.253   5.834   3.765 -0.4752 -0.3707  1.2650
  786MOL0     H 6082  -1.205   5.539   3.824  0.7964 -0.2868 -0.7336
  786MOL0     H 6083  -1.134   5.692   3.896  0.2048 -0.8152  0.0917
  786MOL0     H 6084  -1.341   5.768   3.983  1.9657  1.0490 -0.4424
  786MOL0     H 6085  -1.291   5.613   4.054 -0.2874  0.9073  0.9941
  786MOL0     H 6086  -1.480   5.645   3.818 -0.1147  2.5380  0.8787
  786MOL0     H 6087  -1.440   5.491   3.902  2.6530  0.0622  0.2950
  786MOL0     H 6088  -1.562   5.734   4.040  0.7059  1.7530 -3.7250
  786MOL0     H 6089  -1.560   5.555   4.099 -0.0822 -2.6530 -1.9422
  786MOL0     H 6090  -1.710   5.701   3.880 -2.1391 -0.3653 -0.9184
  786MOL0     H 6091  -1.789   5.596   3.995 -1.1819  1.4775 -0.5996
  786MOL0     H 6092  -0.829   5.599   3.279 -1.0709  0.4902  2.6648
  786MOL0     H 6093  -0.696   5.403   3.174  0.3938  0.4476 -0.1193
  786MOL0     H 6094  -0.691   5.025   2.909 -0.8207 -1.5751  1.0493
  786MOL0     H 6095  -0.532   4.876   2.797 -0.1023  1.9870 -0.6797
  786MOL0     H 6096   1.390   4.716   2.651  0.4138 -0.0142  0.3377
  786MOL0     H 6097   1.640   4.697   2.727  1.1215  0.7861  1.0841
  786MOL0     H 6098   2.082   5.010   2.658 -3.0910 -2.2085 -1.7064
  786MOL0     H 6099   2.313   4.974   2.662 -0.3379 -0.1753 -0.4085
  786MOL0     H 6100   2.523   4.851   2.673 -0.1336  3.0902 -0.9763
  786MOL0     H 6101   2.543   4.987   2.789  2.7563 -0.1752  0.1593
  786MOL0     H 6102   2.669   4.718   2.784 -1.9692  1.1093 -3.4180
  786MOL0     H 6103   2.693   4.830   2.921  3.9112 -3.1039 -0.4602
  786MOL0     H 6104   2.800   4.906   2.639 -0.4691 -1.0082  0.5572
  786MOL0     H 6105   2.884   4.812   2.759  0.0444  1.2730  1.3990
  786MOL0     H 6106   2.822   5.007   2.925  2.0014  0.4488 -0.2327
  786MOL0     H 6107   2.784   5.096   2.767  1.2833 -0.7669 -4.0616
  786MOL0     H 6108   3.215   5.050   2.767  0.2998  3.2412  1.9451
  786MOL0     H 6109   2.271   4.723   3.001  0.6695  0.8260 -0.7865
  786MOL0     H 6110   2.036   4.751   3.004 -0.8108 -0.9413 -1.3050
  787MOL0     O 6111   9.711   9.721  10.255  0.0473  0.1529 -0.3477
  787MOL0     C 6112   9.787   9.629  10.228 -0.6183  1.4199 -0.5106
  787MOL0     O 6113   9.760   9.500  10.235 -0.4934  0.4316  0.3687
  787MOL0     C 6114   9.628   9.451  10.244  0.4811  0.0461  0.6987
  787MOL0     C 6115   9.599   9.328  10.294 -0.4723  0.6176  0.5542
  787MOL0     C 6116   9.476   9.263  10.304  0.2350  0.0365 -0.2770
  787MOL0     C 6117   9.368   9.324  10.237 -0.3319 -0.2785  0.5721
  787MOL0     O 6118   9.242   9.269  10.240 -0.3773 -0.1765  0.0550
  787MOL0     C 6119   9.235   9.127  10.264 -0.2489 -0.3504  0.2071
  787MOL0     C 6120   9.106   9.090  10.197 -0.1464  0.1251 -0.4394
  787MOL0     C 6121   9.089   8.935  10.185  0.5326  0.2812  0.0861
  787MOL0     C 6122   8.987   8.886  10.092 -0.5892  1.3174 -0.6571
  787MOL0     C 6123   8.993   8.945   9.954  0.2290  0.1606  0.9497
  787MOL0     C 6124   8.947   8.858   9.836 -0.6992  0.5966 -0.1734
  787MOL0     C 6125   9.035   8.884   9.715 -0.4240  0.2463 -1.4570
  787MOL0     C 6126   9.005   8.788   9.595 -0.8555  0.2587 -0.8064
  787MOL0     N 6127   9.044   8.829   9.464 -0.6236  0.2690  0.4620
  787MOL0     C 6128   8.974   8.931   9.394 -0.6281  0.7265  0.3458
  787MOL0     C 6129   8.991   8.886   9.267 -0.6392 -0.1908  0.4763
  787MOL0     C 6130   8.929   8.965   9.141  0.2240  0.3216 -1.2014
  787MOL0     C 6131   9.020   9.084   9.114  0.6097  0.3611 -0.0251
  787MOL0     C 6132   9.128   9.051   9.017 -0.2310 -1.4758 -0.1776
  787MOL0     C 6133   9.261   9.022   9.077 -1.5037 -0.2791  0.2457
  787MOL0     O 6134   9.357   9.052   8.969 -0.1417  0.1912 -1.5082
  787MOL0     C 6135   9.482   9.076   9.008 -0.3563  0.1003  1.4338
  787MOL0     C 6136   9.576   8.979   9.020 -0.4964 -0.1869 -0.4758
  787MOL0     C 6137   9.703   9.011   9.066 -0.5778 -0.8211  0.7502
  787MOL0     C 6138   9.803   8.902   9.078 -0.3425 -0.4036 -0.4604
  787MOL0     C 6139   9.749   9.146   9.072 -0.1314 -0.4671 -1.1617
  787MOL0     C 6140   9.891   9.206   9.078 -0.0455  0.3878 -0.2740
  787MOL0     O 6141   9.980   9.146   9.009  0.0059  0.4756 -0.0718
  787MOL0     C 6142  10.112   9.187   9.001  0.5601  0.5295 -0.0522
  787MOL0     C 6143  10.168   9.224   8.869 -0.2448  1.4434 -0.7362
  787MOL0     C 6144  10.308   9.246   8.861 -0.5677 -0.2966  0.3538
  787MOL0     C 6145  10.390   9.234   8.972  1.0476 -0.2902  0.2883
  787MOL0     O 6146  10.524   9.244   8.943  0.1020  0.3416  0.4899
  787MOL0     C 6147  10.610   9.279   9.051  0.1373  0.1395 -0.7694
  787MOL0     C 6148  10.748   9.317   8.992 -0.0723 -0.0553  0.5558
  787MOL0     C 6149  10.827   9.423   9.072  0.3576 -0.1026  0.1890
  787MOL0     C 6150  10.984   9.434   9.060  0.2392 -0.0830 -1.0046
  787MOL0     C 6151  11.034   9.511   8.938 -0.7333  0.4370 -0.1800
  787MOL0     C 6152  11.170   9.578   8.970 -0.4937  0.3902  0.1637
  787MOL0     C 6153  11.244   9.624   8.845 -0.1574 -0.3584  0.3055
  787MOL0     C 6154  11.387   9.661   8.869  0.9444  0.0185  0.9460
  787MOL0    Cl 6155  11.383   9.811   8.959  0.2551 -0.1267 -0.2589
  787MOL0     C 6156  10.326   9.208   9.096  0.4576 -0.3480  0.9214
  787MOL0     C 6157  10.192   9.191   9.119  0.2537 -0.6743  0.1552
  787MOL0     O 6158   9.915   9.308   9.151  0.5318 -0.6073 -0.1676
  787MOL0     C 6159   9.649   9.242   9.053  0.2213  0.6707  0.4876
  787MOL0     C 6160   9.526   9.208   9.013 -0.3299 -0.2008 -0.2452
  787MOL0     N 6161   9.059   8.761   9.264  0.3022  0.1568 -0.5059
  787MOL0     N 6162   9.083   8.729   9.385 -0.2660 -0.2574  0.0513
  787MOL0     C 6163   9.388   9.444  10.174 -0.0225 -1.8106  0.1930
  787MOL0     C 6164   9.518   9.510  10.182  0.2006 -0.3788  0.5704
  787MOL0     C 6165   9.932   9.661  10.195 -0.4963 -0.8486  1.0777
  787MOL0     C 6166  10.043   9.571  10.207 -0.5277  0.4879  0.4566
  787MOL0     C 6167  10.175   9.607  10.185  0.6399 -0.7857 -0.5219
  787MOL0     C 6168  10.202   9.742  10.155 -0.3313  0.0330  0.5891
  787MOL0     O 6169  10.328   9.797  10.134  0.8166 -0.1100  0.3054
  787MOL0     C 6170  10.438   9.710  10.129 -0.1132  0.6517  0.1678
  787MOL0     C 6171  10.572   9.791  10.113 -0.0464 -0.3602  0.2978
  787MOL0     C 6172  10.692   9.708  10.048 -0.3433 -0.2704 -0.3129
  787MOL0     C 6173  10.816   9.792  10.009 -0.2042  0.4008  0.2367
  787MOL0     C 6174  10.790   9.890   9.904 -0.1988  0.4702 -0.3762
  787MOL0     C 6175  10.784   9.983   9.823  0.2268  0.8615 -0.4817
  787MOL0     C 6176  10.099   9.831  10.140 -0.9140  0.2141 -0.6891
  787MOL0     C 6177   9.968   9.790  10.157  0.0249  1.2328  0.5599
  787MOL0     H 6178   9.681   9.275  10.340 -0.3785 -1.4628 -1.7792
  787MOL0     H 6179   9.469   9.169  10.357 -2.1468  1.0246  1.3734
  787MOL0     H 6180   9.316   9.078  10.209  1.6942  0.9946  1.6911
  787MOL0     H 6181   9.242   9.107  10.372  1.5874  0.8588  0.3672
  787MOL0     H 6182   9.021   9.139  10.245  2.1266  2.3071  1.6582
  787MOL0     H 6183   9.116   9.124  10.093 -0.2605 -0.7952 -0.7623
  787MOL0     H 6184   9.181   8.891  10.145 -0.0920  0.4378 -1.6222
  787MOL0     H 6185   9.065   8.900  10.286 -0.2621 -0.3659 -0.3078
  787MOL0     H 6186   8.997   8.777  10.091 -3.6638  0.9499 -0.3133
  787MOL0     H 6187   8.887   8.905  10.130 -0.9124  0.5823 -1.1146
  787MOL0     H 6188   8.940   9.041   9.949 -1.6053 -0.8561 -0.5882
  787MOL0     H 6189   9.095   8.977   9.927  0.5610 -2.4689 -1.3253
  787MOL0     H 6190   8.963   8.755   9.869  3.3900  0.7275 -1.2215
  787MOL0     H 6191   8.839   8.864   9.820 -1.1482 -0.9219  1.8672
  787MOL0     H 6192   9.034   8.987   9.678  0.3453  0.6181 -0.4946
  787MOL0     H 6193   9.139   8.857   9.737 -0.4382  1.3793  0.1476
  787MOL0     H 6194   8.895   8.788   9.594 -0.9472 -1.0399  1.7743
  787MOL0     H 6195   9.034   8.688   9.628  1.9171  1.8067  1.8313
  787MOL0     H 6196   8.932   9.023   9.432 -2.0367  0.7047 -1.0637
  787MOL0     H 6197   8.900   8.902   9.056 -3.4708  0.3646 -0.1206
  787MOL0     H 6198   8.837   9.009   9.179 -0.3016 -1.1223 -0.7362
  787MOL0     H 6199   9.063   9.126   9.205  0.5336  2.2647 -0.8100
  787MOL0     H 6200   8.961   9.168   9.074  1.4100  1.2229  0.5606
  787MOL0     H 6201   9.141   9.128   8.941 -0.4516  0.0825  1.3069
  787MOL0     H 6202   9.103   8.969   8.950 -0.8060 -0.5715 -1.0879
  787MOL0     H 6203   9.278   8.919   9.108 -0.5273 -0.1397  0.2281
  787MOL0     H 6204   9.282   9.090   9.160  1.1889 -0.7692  0.0507
  787MOL0     H 6205   9.535   8.882   8.994  0.3532 -0.9536  0.8899
  787MOL0     H 6206   9.882   8.897   9.004  4.1385 -1.9961  3.8903
  787MOL0     H 6207   9.863   8.909   9.169  1.2731  1.2689 -1.5914
  787MOL0     H 6208   9.754   8.804   9.082 -1.9272  0.3663  0.0730
  787MOL0     H 6209  10.118   9.238   8.774 -0.8763 -1.3535 -0.9000
  787MOL0     H 6210  10.351   9.291   8.773  0.0012 -0.1142  0.7159
  787MOL0     H 6211  10.577   9.362   9.114 -2.2484 -0.5867 -0.9743
  787MOL0     H 6212  10.616   9.190   9.115  0.1873 -2.4732 -4.1210
  787MOL0     H 6213  10.802   9.223   8.981 -3.0152 -1.7110 -1.1730
  787MOL0     H 6214  10.740   9.365   8.894  0.8976  1.0351  0.9852
  787MOL0     H 6215  10.806   9.385   9.173 -1.3442  1.1474  0.3676
  787MOL0     H 6216  10.784   9.524   9.076  1.6476  0.4313  1.1822
  787MOL0     H 6217  11.023   9.479   9.152  3.1107 -3.4824 -0.3723
  787MOL0     H 6218  11.025   9.333   9.061  1.5931  0.4537 -0.4991
  787MOL0     H 6219  10.965   9.590   8.907 -1.2638 -0.6830 -2.0175
  787MOL0     H 6220  11.034   9.440   8.855  0.0240 -1.0414  1.0247
  787MOL0     H 6221  11.152   9.657   9.043 -1.1814  0.6030 -0.2376
  787MOL0     H 6222  11.240   9.502   9.008 -0.6550 -0.7310 -1.6963
  787MOL0     H 6223  11.192   9.713   8.809  2.0008  1.0824  0.6187
  787MOL0     H 6224  11.241   9.547   8.767 -1.0550  0.2762 -0.3118
  787MOL0     H 6225  11.452   9.672   8.781  0.0202 -1.7024 -0.0067
  787MOL0     H 6226  11.444   9.588   8.926  0.8163  0.6468  1.8951
  787MOL0     H 6227  10.386   9.200   9.186  1.5541 -1.1016  0.1521
  787MOL0     H 6228  10.166   9.178   9.223 -2.3252  3.5407  0.2752
  787MOL0     H 6229   9.665   9.349   9.051 -1.8878  1.0217 -1.6782
  787MOL0     H 6230   9.475   9.303   9.007  2.6647  1.4510 -2.3189
  787MOL0     H 6231   9.303   9.492  10.129  1.1595 -1.7697 -2.1429
  787MOL0     H 6232   9.535   9.598  10.120  1.3340 -1.1980 -0.3258
  787MOL0     H 6233  10.020   9.469  10.236 -1.1151 -0.1271 -1.9596
  787MOL0     H 6234  10.258   9.542  10.209  3.1954  2.4077 -0.0846
  787MOL0     H 6235  10.452   9.653  10.221 -2.0217 -0.0928  0.0493
  787MOL0     H 6236  10.420   9.638  10.049  0.0646 -1.3539  1.8428
  787MOL0     H 6237  10.609   9.834  10.206  2.4838 -1.0101 -0.3380
  787MOL0     H 6238  10.569   9.873  10.040  0.9774  1.8018  2.5411
  787MOL0     H 6239  10.670   9.662   9.952  1.7405  2.2360 -2.1317
  787MOL0     H 6240  10.725   9.632  10.119 -0.4084  1.1451  1.3131
  787MOL0     H 6241  10.900   9.729   9.977 -0.9686  0.2304 -1.5259
  787MOL0     H 6242  10.828   9.847  10.103 -2.0004 -0.8106  1.2252
  787MOL0     H 6243  10.773  10.077   9.774 -2.4418  0.4190 -0.8846
  787MOL0     H 6244  10.122   9.935  10.124  0.4540  0.4148  2.0890
  787MOL0     H 6245   9.886   9.862  10.155  1.4540  2.9127 -1.1536
  788MOL0     O 6246   9.863  11.319   9.512 -0.5991 -0.5456 -0.3824
  788MOL0     C 6247   9.952  11.297   9.595  0.1391 -0.7050 -0.3633
  788MOL0     O 6248   9.953  11.196   9.697 -0.3467  0.2069 -0.3384
  788MOL0     C 6249   9.840  11.128   9.726  0.2662 -0.2668 -0.6384
  788MOL0     C 6250   9.864  11.001   9.771  0.4135 -0.4006 -0.0430
  788MOL0     C 6251   9.757  10.912   9.797 -0.5238 -0.3025  0.2013
  788MOL0     C 6252   9.631  10.950   9.763  1.0455 -0.0976  0.2708
  788MOL0     O 6253   9.535  10.851   9.771 -0.6997  0.6427 -0.3079
  788MOL0     C 6254   9.417  10.870   9.694 -0.0234 -0.0204 -0.3489
  788MOL0     C 6255   9.331  10.747   9.699  0.1055  0.2965 -0.4935
  788MOL0     C 6256   9.184  10.766   9.637 -0.6993 -0.2657  0.7578
  788MOL0     C 6257   9.096  10.642   9.646 -0.0473  0.0826  0.1888
  788MOL0     C 6258   8.961  10.687   9.570 -0.0097 -0.5793 -0.6271
  788MOL0     C 6259   8.855  10.759   9.653  0.7957 -0.5992 -0.3716
  788MOL0     C 6260   8.809  10.690   9.781 -0.1760  0.1543 -0.2163
  788MOL0     C 6261   8.765  10.543   9.766  0.3650  0.3477  0.4051
  788MOL0     N 6262   8.649  10.527   9.675  0.2590 -0.2737 -0.2969
  788MOL0     C 6263   8.516  10.573   9.700  0.5416  0.2034  0.6560
  788MOL0     C 6264   8.447  10.552   9.581  0.4087 -0.5368 -0.5704
  788MOL0     C 6265   8.300  10.568   9.554 -0.8152  0.0209 -0.5628
  788MOL0     C 6266   8.226  10.439   9.496 -0.5337  0.5944  1.1180
  788MOL0     C 6267   8.183  10.335   9.605 -0.4603 -0.1924 -0.1480
  788MOL0     C 6268   8.067  10.383   9.691 -0.7323 -0.1812  1.0943
  788MOL0     O 6269   7.996  10.282   9.763  0.6335 -0.3541 -0.2664
  788MOL0     C 6270   7.895  10.218   9.709  0.6587 -0.6961  1.2991
  788MOL0     C 6271   7.823  10.130   9.784  0.3573 -0.0928  1.0669
  788MOL0     C 6272   7.708  10.067   9.732  0.0255  0.5061  0.2765
  788MOL0     C 6273   7.623   9.995   9.830 -0.5546  0.2857 -0.1213
  788MOL0     C 6274   7.669  10.087   9.589 -0.0087  0.3659  0.0495
  788MOL0     C 6275   7.546  10.024   9.542  0.0649 -0.5001  0.2204
  788MOL0     O 6276   7.536  10.023   9.399 -0.1634  0.0670 -0.5317
  788MOL0     C 6277   7.439   9.945   9.330  0.4863 -0.6041  0.3849
  788MOL0     C 6278   7.372   9.831   9.371 -0.1273 -0.4363 -0.2893
  788MOL0     C 6279   7.270   9.780   9.291  1.3003 -1.1880  0.6902
  788MOL0     C 6280   7.233   9.838   9.177 -0.1761  0.7959  0.5071
  788MOL0     O 6281   7.147   9.770   9.097 -0.4215 -0.1780  0.6850
  788MOL0     C 6282   7.166   9.781   8.953  1.1988  0.3840 -0.7993
  788MOL0     C 6283   7.061   9.681   8.893  0.0734  1.0605 -0.5171
  788MOL0     C 6284   6.915   9.693   8.950  0.1544 -1.4015 -0.9250
  788MOL0     C 6285   6.803   9.628   8.863 -0.6643 -0.2334  1.0809
  788MOL0     C 6286   6.669   9.622   8.936  0.0374 -0.8786  0.1989
  788MOL0     C 6287   6.559   9.610   8.829 -0.4347 -0.2852 -0.2707
  788MOL0     C 6288   6.431   9.573   8.895 -0.0501 -0.2446 -0.0264
  788MOL0     C 6289   6.311   9.579   8.802  0.1942 -0.1858  0.0339
  788MOL0    Cl 6290   6.163   9.532   8.896 -0.5411  0.1379  0.3112
  788MOL0     C 6291   7.295   9.957   9.131  0.3738  0.2168 -0.0067
  788MOL0     C 6292   7.399  10.011   9.207 -1.5894 -1.0254 -0.5061
  788MOL0     O 6293   7.452   9.989   9.612 -0.4107 -0.0991 -1.1339
  788MOL0     C 6294   7.751  10.167   9.510 -0.1310  0.2390  0.4025
  788MOL0     C 6295   7.867  10.220   9.568 -0.0313 -0.2446 -0.2500
  788MOL0     N 6296   8.543  10.522   9.486 -0.1903 -0.6147 -0.3754
  788MOL0     N 6297   8.658  10.501   9.546 -0.0941  0.2245  0.1252
  788MOL0     C 6298   9.603  11.081   9.715 -0.0136  0.2571 -0.5212
  788MOL0     C 6299   9.708  11.174   9.705 -0.1941  0.2837 -0.7526
  788MOL0     C 6300  10.096  11.342   9.561  0.7385  0.6734  1.1638
  788MOL0     C 6301  10.212  11.318   9.642  0.6324 -0.5665  0.2533
  788MOL0     C 6302  10.334  11.384   9.608  0.7807  0.1006  0.3086
  788MOL0     C 6303  10.363  11.431   9.484 -0.9318  0.5491  0.0441
  788MOL0     O 6304  10.491  11.477   9.460  0.2198 -0.1878  0.1015
  788MOL0     C 6305  10.512  11.534   9.321  0.2558  0.4478 -0.6073
  788MOL0     C 6306  10.649  11.585   9.295  0.0125  0.7661  0.0574
  788MOL0     C 6307  10.760  11.477   9.312 -0.0589  0.3547 -0.5127
  788MOL0     C 6308  10.901  11.532   9.282  0.3568 -0.0876  0.2123
  788MOL0     C 6309  10.907  11.607   9.162  0.4632  0.2966  0.1129
  788MOL0     C 6310  10.892  11.671   9.062 -1.5601 -0.5822 -0.3152
  788MOL0     C 6311  10.254  11.433   9.393 -0.6920 -0.2577 -0.5797
  788MOL0     C 6312  10.116  11.405   9.437 -0.8418  0.5706  1.3480
  788MOL0     H 6313   9.966  10.972   9.792 -0.2837 -2.7732  0.3915
  788MOL0     H 6314   9.775  10.813   9.837 -2.9787 -1.7096 -1.8959
  788MOL0     H 6315   9.360  10.958   9.724  1.0593  0.1658  1.3320
  788MOL0     H 6316   9.454  10.877   9.592  0.1383 -2.1016 -0.4725
  788MOL0     H 6317   9.388  10.664   9.654 -1.7033 -1.5552  0.4489
  788MOL0     H 6318   9.301  10.723   9.801 -2.5759 -0.3853 -1.3640
  788MOL0     H 6319   9.135  10.848   9.689  1.1170  3.7271 -3.2052
  788MOL0     H 6320   9.184  10.812   9.538  1.4302  0.3286  0.9959
  788MOL0     H 6321   9.120  10.549   9.594 -2.1935 -0.3349 -0.1599
  788MOL0     H 6322   9.070  10.617   9.749 -3.5425 -1.9465 -1.0175
  788MOL0     H 6323   8.983  10.756   9.488  0.2407 -1.2762 -1.1598
  788MOL0     H 6324   8.921  10.600   9.518  1.5073 -1.8830  0.2523
  788MOL0     H 6325   8.896  10.857   9.682  2.3510 -1.8015  1.7818
  788MOL0     H 6326   8.771  10.769   9.584  0.2847 -0.6841  0.2364
  788MOL0     H 6327   8.872  10.697   9.871 -2.1087 -0.3734  1.2321
  788MOL0     H 6328   8.721  10.740   9.823 -0.4131 -1.8550  1.8613
  788MOL0     H 6329   8.735  10.508   9.865 -2.2042 -0.1309 -0.4696
  788MOL0     H 6330   8.843  10.476   9.730 -0.1035  0.6609 -1.2643
  788MOL0     H 6331   8.464  10.597   9.792 -2.3688 -0.0910 -0.7977
  788MOL0     H 6332   8.250  10.599   9.646  1.1510 -1.1172  0.9703
  788MOL0     H 6333   8.284  10.652   9.485 -1.5004 -0.6603 -1.2550
  788MOL0     H 6334   8.286  10.381   9.426  0.8366  1.2228  1.7235
  788MOL0     H 6335   8.127  10.469   9.459 -0.9497 -0.5692  1.2609
  788MOL0     H 6336   8.275  10.313   9.661 -0.0165  2.4568  0.2937
  788MOL0     H 6337   8.151  10.238   9.565 -0.8329 -0.3412  0.4967
  788MOL0     H 6338   8.000  10.453   9.640 -1.0352 -0.5371  1.0019
  788MOL0     H 6339   8.111  10.442   9.772  1.1532  0.4232 -0.3119
  788MOL0     H 6340   7.865  10.123   9.883 -0.5113  0.3908  1.4846
  788MOL0     H 6341   7.543  10.066   9.852 -1.3051  0.0430 -1.9768
  788MOL0     H 6342   7.579   9.901   9.796 -0.6916  0.0667  0.6320
  788MOL0     H 6343   7.684   9.977   9.919 -1.1255  2.9134  0.9130
  788MOL0     H 6344   7.396   9.800   9.472  0.0076  2.2356  0.5904
  788MOL0     H 6345   7.204   9.701   9.324  1.8373 -0.6811  3.1959
  788MOL0     H 6346   7.140   9.884   8.926 -1.7630  1.1505  3.8282
  788MOL0     H 6347   7.263   9.750   8.913 -0.7793 -1.9403 -4.3027
  788MOL0     H 6348   7.064   9.689   8.784  2.0786  0.0528 -0.5684
  788MOL0     H 6349   7.104   9.584   8.918 -2.5825 -0.5709 -1.8748
  788MOL0     H 6350   6.890   9.799   8.963  0.1732 -1.5581  0.6355
  788MOL0     H 6351   6.919   9.641   9.046  1.2287 -2.5643 -1.5682
  788MOL0     H 6352   6.800   9.692   8.775  1.3845 -0.5843  0.7079
  788MOL0     H 6353   6.829   9.531   8.819 -1.8013  0.0723 -0.3448
  788MOL0     H 6354   6.664   9.717   8.990 -1.4237  0.6931 -2.4572
  788MOL0     H 6355   6.669   9.537   9.005 -0.2834  0.7932  2.3509
  788MOL0     H 6356   6.550   9.705   8.775  4.8583 -0.6515 -2.4032
  788MOL0     H 6357   6.599   9.537   8.759  2.1460  1.7062 -1.0354
  788MOL0     H 6358   6.415   9.643   8.978  3.4444 -1.7122  2.1069
  788MOL0     H 6359   6.443   9.469   8.925  0.4199 -1.4499 -3.7953
  788MOL0     H 6360   6.312   9.511   8.716  0.1085 -0.6762  0.4151
  788MOL0     H 6361   6.294   9.676   8.753 -1.2864  0.3645  1.5378
  788MOL0     H 6362   7.258  10.017   9.049 -2.8754 -0.8663  0.5257
  788MOL0     H 6363   7.441  10.102   9.165 -2.6892 -0.2255  0.0655
  788MOL0     H 6364   7.738  10.170   9.403  0.5566 -1.6741  0.2180
  788MOL0     H 6365   7.924  10.268   9.489 -2.0479  1.0848 -0.9570
  788MOL0     H 6366   9.509  11.126   9.684  0.1714  0.6185 -0.5612
  788MOL0     H 6367   9.682  11.277   9.682  0.1645  0.2471 -1.3500
  788MOL0     H 6368  10.200  11.271   9.739  2.3038 -0.8545  0.3503
  788MOL0     H 6369  10.419  11.374   9.676  0.5983  0.7297  0.6352
  788MOL0     H 6370  10.502  11.448   9.253  1.1222 -0.8150  0.8124
  788MOL0     H 6371  10.430  11.599   9.288  0.4714 -0.3109 -2.7797
  788MOL0     H 6372  10.676  11.679   9.344 -1.8081  1.7249 -0.6827
  788MOL0     H 6373  10.643  11.616   9.191 -0.6548  0.5925  0.0370
  788MOL0     H 6374  10.737  11.393   9.245 -1.7934  2.5460 -2.8429
  788MOL0     H 6375  10.761  11.431   9.412 -0.4445  2.0483  0.3081
  788MOL0     H 6376  10.972  11.449   9.283  0.9274  0.2945 -2.0839
  788MOL0     H 6377  10.932  11.596   9.365  2.7383 -2.5310  1.3907
  788MOL0     H 6378  10.876  11.731   8.975 -1.0249  3.0465  1.8740
  788MOL0     H 6379  10.281  11.465   9.293 -0.2103 -0.1919 -0.4274
  788MOL0     H 6380  10.044  11.422   9.358  0.3082 -0.5009  0.0311
  789MOL0     O 6381   0.190   3.040   5.546 -0.3667 -0.4859 -0.2339
  789MOL0     C 6382   0.268   3.106   5.622 -0.6043  0.5142  0.4318
  789MOL0     O 6383   0.241   3.224   5.676 -0.1014 -0.9660  0.0573
  789MOL0     C 6384   0.113   3.262   5.641 -0.3928 -0.1104 -0.6757
  789MOL0     C 6385   0.101   3.338   5.527 -0.2201  0.5091 -0.7933
  789MOL0     C 6386  -0.032   3.363   5.493  0.4661 -0.5653  0.1774
  789MOL0     C 6387  -0.138   3.320   5.565  0.2452 -0.3988  0.8638
  789MOL0     O 6388  -0.270   3.347   5.523 -0.3130 -0.1244  0.1368
  789MOL0     C 6389  -0.297   3.488   5.509 -0.6739 -0.0053  0.6642
  789MOL0     C 6390  -0.445   3.504   5.478  0.6907 -0.8804 -0.1756
  789MOL0     C 6391  -0.511   3.445   5.351  0.4307 -0.7012 -0.6851
  789MOL0     C 6392  -0.660   3.487   5.343 -0.5314  0.1819  0.9604
  789MOL0     C 6393  -0.715   3.394   5.240  0.3218 -0.2509 -0.8269
  789MOL0     C 6394  -0.852   3.436   5.192 -0.0158 -0.0473 -0.7801
  789MOL0     C 6395  -0.890   3.353   5.069 -0.0459  0.3126 -1.0001
  789MOL0     C 6396  -0.936   3.217   5.117 -1.1469 -0.2459 -0.8145
  789MOL0     N 6397  -1.081   3.219   5.156 -0.4996 -0.4730  0.3507
  789MOL0     C 6398  -1.127   3.230   5.277 -0.1541  0.4365 -0.5811
  789MOL0     C 6399  -1.263   3.239   5.256  0.1712  0.8246  0.0814
  789MOL0     C 6400  -1.386   3.250   5.349  0.4446 -0.2291 -0.8339
  789MOL0     C 6401  -1.411   3.131   5.447 -0.3103 -0.2718  1.0588
  789MOL0     C 6402  -1.525   3.152   5.538  0.8333 -0.1569 -0.3969
  789MOL0     C 6403  -1.670   3.162   5.484  0.6143 -0.1962 -0.1311
  789MOL0     O 6404  -1.762   3.160   5.597 -1.2103  0.9873  0.0610
  789MOL0     C 6405  -1.841   3.051   5.617  0.4850 -0.2504  0.2985
  789MOL0     C 6406  -1.815   2.958   5.727 -0.5950 -0.2411 -0.2417
  789MOL0     C 6407  -1.899   2.853   5.745 -0.2939 -0.5303  0.3881
  789MOL0     C 6408  -1.879   2.769   5.870 -0.0025  0.8440 -0.2929
  789MOL0     C 6409  -2.013   2.835   5.668  0.2004  0.5414  0.0697
  789MOL0     C 6410  -2.121   2.734   5.701  0.0420  0.0718  0.0502
  789MOL0     O 6411  -2.159   2.650   5.599 -0.2233 -0.7303  0.0362
  789MOL0     C 6412  -2.244   2.549   5.631 -0.4397  0.7465  0.3295
  789MOL0     C 6413  -2.193   2.425   5.670  0.1900 -0.4095 -0.1078
  789MOL0     C 6414  -2.276   2.323   5.711 -0.6634  0.4261  0.5320
  789MOL0     C 6415  -2.412   2.330   5.702  0.3661  0.3132 -0.1529
  789MOL0     O 6416  -2.475   2.214   5.737  0.3927 -0.2894  0.3547
  789MOL0     C 6417  -2.600   2.186   5.688  0.3520 -0.2724  0.7675
  789MOL0     C 6418  -2.639   2.042   5.711 -0.7476  0.5866 -0.4885
  789MOL0     C 6419  -2.546   1.940   5.647 -0.5759  0.6740 -0.5825
  789MOL0     C 6420  -2.434   1.897   5.751  0.2316  0.2616  0.0843
  789MOL0     C 6421  -2.349   1.779   5.696 -1.3168  1.0418  0.2339
  789MOL0     C 6422  -2.257   1.719   5.800  0.3388  0.4850  0.2839
  789MOL0     C 6423  -2.122   1.786   5.802 -0.2299 -0.2801  0.2039
  789MOL0     C 6424  -2.030   1.728   5.909 -0.7473 -0.3923  0.2296
  789MOL0    Cl 6425  -1.868   1.811   5.926 -0.2239  0.1922  0.3034
  789MOL0     C 6426  -2.467   2.452   5.662  0.6115  0.4324  0.4716
  789MOL0     C 6427  -2.385   2.558   5.620 -0.5832 -1.1861 -0.0443
  789MOL0     O 6428  -2.151   2.718   5.817  0.6393 -0.3231 -0.5109
  789MOL0     C 6429  -2.033   2.918   5.562 -0.4734  0.2364 -0.8791
  789MOL0     C 6430  -1.944   3.019   5.527 -0.6797  0.2131 -0.0121
  789MOL0     N 6431  -1.292   3.228   5.120 -0.5913 -0.2359 -0.1396
  789MOL0     N 6432  -1.182   3.228   5.066 -0.8043 -0.2876  0.5366
  789MOL0     C 6433  -0.120   3.246   5.684 -0.3567 -0.5970  0.1238
  789MOL0     C 6434   0.003   3.207   5.720 -0.7779 -0.2674  0.3876
  789MOL0     C 6435   0.402   3.042   5.666  0.3853 -0.4070  1.5034
  789MOL0     C 6436   0.462   2.944   5.585  0.6626 -0.4100 -0.3100
  789MOL0     C 6437   0.592   2.912   5.617 -0.3745  0.8581  0.4476
  789MOL0     C 6438   0.659   2.952   5.732  0.4499  0.5041 -0.4849
  789MOL0     O 6439   0.782   2.908   5.783 -0.0940 -0.1914  0.4477
  789MOL0     C 6440   0.885   2.866   5.691 -0.3103  0.5680  1.1713
  789MOL0     C 6441   1.016   2.903   5.756 -1.3155 -0.2170 -0.8751
  789MOL0     C 6442   1.138   2.902   5.657  0.3534  0.1487 -0.3520
  789MOL0     C 6443   1.280   2.925   5.716  0.1058  0.4442 -0.3240
  789MOL0     C 6444   1.309   3.065   5.753  0.4378  0.6354 -0.0126
  789MOL0     C 6445   1.348   3.172   5.805 -0.6000  0.8946 -0.1644
  789MOL0     C 6446   0.585   3.024   5.822 -0.0566 -0.1695 -0.2723
  789MOL0     C 6447   0.462   3.076   5.789  0.0087 -1.0960 -0.3397
  789MOL0     H 6448   0.186   3.381   5.476  0.7115  0.4300  0.6475
  789MOL0     H 6449  -0.056   3.409   5.398  0.4269  0.7418  0.7999
  789MOL0     H 6450  -0.278   3.535   5.606  0.1896 -0.3180  0.6565
  789MOL0     H 6451  -0.236   3.536   5.432 -0.4598  0.4021  1.0859
  789MOL0     H 6452  -0.505   3.455   5.556 -1.0323 -1.6947 -1.9295
  789MOL0     H 6453  -0.469   3.611   5.483 -0.5763 -0.7999 -4.4853
  789MOL0     H 6454  -0.459   3.487   5.265 -3.0303  1.8474 -1.7581
  789MOL0     H 6455  -0.500   3.337   5.368  1.4831 -0.5102 -0.0878
  789MOL0     H 6456  -0.709   3.478   5.440  3.7073 -5.1628  3.1422
  789MOL0     H 6457  -0.666   3.588   5.302 -1.0167 -0.1296  0.2481
  789MOL0     H 6458  -0.651   3.387   5.152 -0.9036  0.7690 -1.8333
  789MOL0     H 6459  -0.725   3.291   5.278 -0.5533 -1.3658 -3.7646
  789MOL0     H 6460  -0.924   3.424   5.273 -0.0929  1.6303 -0.5671
  789MOL0     H 6461  -0.850   3.541   5.161 -2.7000  0.2072 -0.3410
  789MOL0     H 6462  -0.971   3.401   5.013  0.8589 -2.1374 -4.8270
  789MOL0     H 6463  -0.805   3.350   5.001  2.9536  1.6126  2.3799
  789MOL0     H 6464  -0.878   3.161   5.191  0.7666  0.9330 -1.3327
  789MOL0     H 6465  -0.929   3.160   5.024 -0.7538 -1.3371 -0.1312
  789MOL0     H 6466  -1.067   3.225   5.367 -0.2423 -0.9846 -0.5841
  789MOL0     H 6467  -1.370   3.341   5.408 -1.6267  1.0973 -2.1559
  789MOL0     H 6468  -1.481   3.278   5.304 -1.8509  0.0850  3.6644
  789MOL0     H 6469  -1.332   3.099   5.515  0.3259 -2.3444 -0.5415
  789MOL0     H 6470  -1.432   3.044   5.384  0.0951 -0.4455  1.1587
  789MOL0     H 6471  -1.502   3.247   5.587 -1.9956 -0.5728  2.0644
  789MOL0     H 6472  -1.522   3.073   5.614  0.9866 -1.2917 -1.5545
  789MOL0     H 6473  -1.702   3.090   5.408 -0.7540  1.6945 -1.4660
  789MOL0     H 6474  -1.675   3.265   5.447  2.3159  0.3992  1.1749
  789MOL0     H 6475  -1.726   2.979   5.784 -1.1763  2.2588 -0.1527
  789MOL0     H 6476  -1.925   2.670   5.877 -0.0920  0.9697  1.0509
  789MOL0     H 6477  -1.775   2.768   5.902  0.0850  2.5250 -0.4075
  789MOL0     H 6478  -1.921   2.823   5.955  2.0086 -0.9863  1.9781
  789MOL0     H 6479  -2.086   2.410   5.683 -0.3177 -2.6261  2.5984
  789MOL0     H 6480  -2.228   2.234   5.751 -2.9508 -0.5826  1.1606
  789MOL0     H 6481  -2.668   2.260   5.730 -1.1007 -1.1502  0.0506
  789MOL0     H 6482  -2.611   2.194   5.579  1.4408 -1.5833  0.5329
  789MOL0     H 6483  -2.640   2.019   5.818 -0.1162 -1.8741 -0.9486
  789MOL0     H 6484  -2.736   2.032   5.662  0.1089 -1.0618 -1.9300
  789MOL0     H 6485  -2.491   1.985   5.564 -1.2594 -1.1208 -2.0595
  789MOL0     H 6486  -2.593   1.851   5.605  0.6634  1.0967 -3.0285
  789MOL0     H 6487  -2.379   1.989   5.772  0.2931  0.3118 -0.3060
  789MOL0     H 6488  -2.479   1.863   5.845  1.5307  0.5052  0.8262
  789MOL0     H 6489  -2.284   1.812   5.614  2.5337  0.3447  2.7515
  789MOL0     H 6490  -2.413   1.697   5.661 -2.0584  0.1883  3.2961
  789MOL0     H 6491  -2.307   1.715   5.897 -0.2226 -0.4971 -0.0265
  789MOL0     H 6492  -2.242   1.612   5.785  0.8322  0.5627  0.2218
  789MOL0     H 6493  -2.133   1.894   5.814  1.5771  0.4144 -3.2364
  789MOL0     H 6494  -2.081   1.765   5.703 -0.6941  2.8421 -0.7776
  789MOL0     H 6495  -2.008   1.623   5.888 -0.2340 -0.3904  0.7427
  789MOL0     H 6496  -2.088   1.742   6.002 -0.9608 -0.5581  0.1227
  789MOL0     H 6497  -2.573   2.473   5.671  0.4443 -0.3387  0.3653
  789MOL0     H 6498  -2.422   2.652   5.582  0.5495 -0.1469  1.2785
  789MOL0     H 6499  -2.111   2.895   5.490  1.4777 -0.6394 -2.8354
  789MOL0     H 6500  -1.963   3.085   5.443 -1.3111 -1.9673 -1.6420
  789MOL0     H 6501  -0.214   3.210   5.723 -4.0851  3.0780 -4.2180
  789MOL0     H 6502   0.013   3.133   5.799 -2.2991 -1.6830 -0.6731
  789MOL0     H 6503   0.417   2.909   5.492 -0.3181  0.6838 -0.2623
  789MOL0     H 6504   0.646   2.846   5.550  1.5693  4.1975 -1.5711
  789MOL0     H 6505   0.887   2.759   5.670  1.4952  0.8516 -0.4673
  789MOL0     H 6506   0.881   2.926   5.599  0.2870  2.0606  2.0791
  789MOL0     H 6507   1.023   2.825   5.832  1.4044  2.0211  1.3888
  789MOL0     H 6508   1.004   3.000   5.805  0.2236  0.5809 -1.9994
  789MOL0     H 6509   1.112   2.973   5.579 -2.1260 -2.0641 -1.6808
  789MOL0     H 6510   1.139   2.803   5.610  0.8449  0.4632 -1.0140
  789MOL0     H 6511   1.350   2.891   5.640 -1.3260 -1.1262 -1.0123
  789MOL0     H 6512   1.294   2.857   5.801 -1.7945 -1.9821 -1.8445
  789MOL0     H 6513   1.403   3.251   5.852  1.5460  1.2465 -2.9674
  789MOL0     H 6514   0.626   3.049   5.920 -0.9252 -6.8907  2.3635
  789MOL0     H 6515   0.412   3.139   5.861  2.2566 -0.4456  0.7454
  790MOL0     O 6516  11.376   3.230   6.503  0.0842  0.4645  0.0861
  790MOL0     C 6517  11.456   3.301   6.446 -0.0866 -0.0824 -1.1870
  790MOL0     O 6518  11.415   3.402   6.360  0.2939  0.1660  0.0828
  790MOL0     C 6519  11.293   3.451   6.376  0.0771  0.2210  0.3455
  790MOL0     C 6520  11.175   3.376   6.366  1.0257 -0.5141  0.8580
  790MOL0     C 6521  11.050   3.438   6.386 -0.0738 -0.3671 -0.2750
  790MOL0     C 6522  11.041   3.575   6.400 -0.2954 -0.3514  0.3880
  790MOL0     O 6523  10.923   3.646   6.404 -0.2496  0.1458 -0.1600
  790MOL0     C 6524  10.801   3.600   6.340  0.2044  0.4252 -0.0324
  790MOL0     C 6525  10.711   3.721   6.317  0.3000  1.1824  0.2313
  790MOL0     C 6526  10.633   3.761   6.445  0.4909 -0.1549 -0.9116
  790MOL0     C 6527  10.523   3.665   6.474  0.0461 -0.5629  0.7727
  790MOL0     C 6528  10.444   3.707   6.594 -0.6547  0.0276  0.0445
  790MOL0     C 6529  10.308   3.653   6.592 -0.8130 -0.4863 -0.4072
  790MOL0     C 6530  10.232   3.670   6.712  0.0147  0.3384  0.0959
  790MOL0     C 6531  10.104   3.604   6.702 -0.2880 -0.3337 -0.4205
  790MOL0     N 6532  10.116   3.462   6.733  0.0679 -0.3245  0.7603
  790MOL0     C 6533  10.016   3.370   6.734 -0.0195 -0.1216  0.9294
  790MOL0     C 6534  10.061   3.253   6.767  0.3802  0.6790 -0.0900
  790MOL0     C 6535   9.998   3.118   6.768  0.7121  0.8034  1.0603
  790MOL0     C 6536   9.905   3.095   6.884 -0.2281  0.2799  0.7089
  790MOL0     C 6537   9.972   3.115   7.010 -1.1780 -0.0461 -0.4036
  790MOL0     C 6538   9.870   3.147   7.118 -0.7453  0.1166 -0.0729
  790MOL0     O 6539   9.754   3.059   7.117  0.5114 -0.6417  1.0532
  790MOL0     C 6540   9.636   3.108   7.176 -0.2126  0.6947 -0.9950
  790MOL0     C 6541   9.521   3.035   7.144  0.5181 -0.5826  0.3742
  790MOL0     C 6542   9.399   3.074   7.195 -0.0759 -0.2568 -0.4847
  790MOL0     C 6543   9.287   2.979   7.168  0.1457  0.6349  0.5742
  790MOL0     C 6544   9.390   3.192   7.280  0.6708 -0.1169  0.2640
  790MOL0     C 6545   9.261   3.247   7.343  0.5281 -0.6451  0.2285
  790MOL0     O 6546   9.260   3.388   7.376 -0.0335 -0.0401  0.0182
  790MOL0     C 6547   9.139   3.430   7.424 -0.1355  0.3084  0.4757
  790MOL0     C 6548   9.021   3.433   7.351  0.4204  1.0859  0.6373
  790MOL0     C 6549   8.908   3.492   7.403  0.9147  0.1042 -0.7067
  790MOL0     C 6550   8.893   3.534   7.540 -0.4407 -0.4616 -0.0396
  790MOL0     O 6551   8.774   3.576   7.595  0.0831 -0.2667  1.0452
  790MOL0     C 6552   8.642   3.540   7.538 -0.9248  0.1792 -0.2765
  790MOL0     C 6553   8.539   3.621   7.611  1.2632  0.0232  0.5178
  790MOL0     C 6554   8.523   3.576   7.759  0.0284  0.9542  0.7015
  790MOL0     C 6555   8.394   3.632   7.818 -0.2049 -0.1513  1.4686
  790MOL0     C 6556   8.280   3.531   7.828  0.2859 -0.4198 -0.2431
  790MOL0     C 6557   8.297   3.432   7.938 -1.1256  0.5110  0.7332
  790MOL0     C 6558   8.166   3.357   7.961 -0.0497 -0.6959 -0.5598
  790MOL0     C 6559   8.182   3.204   7.996 -0.6238 -0.7700 -0.0337
  790MOL0    Cl 6560   8.028   3.122   8.012  0.0266  0.2825 -0.2524
  790MOL0     C 6561   9.011   3.523   7.618  0.7557 -0.0205 -0.4591
  790MOL0     C 6562   9.131   3.470   7.564  0.6725  0.8436 -1.1476
  790MOL0     O 6563   9.169   3.167   7.348  0.5281  0.2505  0.1963
  790MOL0     C 6564   9.508   3.255   7.310 -0.6566 -0.2442  0.2431
  790MOL0     C 6565   9.631   3.221   7.255  0.0644 -0.6777 -0.7881
  790MOL0     N 6566  10.193   3.276   6.779  0.0881  0.2880  0.8211
  790MOL0     N 6567  10.229   3.397   6.766 -0.4425  0.0352  0.4931
  790MOL0     C 6568  11.154   3.654   6.390 -0.2963  0.5252 -0.6795
  790MOL0     C 6569  11.279   3.591   6.385  0.5263  0.4766  0.4116
  790MOL0     C 6570  11.599   3.270   6.446 -0.1541 -0.6850  0.5705
  790MOL0     C 6571  11.631   3.145   6.505 -0.2293  0.5471 -1.0689
  790MOL0     C 6572  11.760   3.116   6.536 -0.0298 -0.1037  0.0130
  790MOL0     C 6573  11.869   3.202   6.508 -0.2051 -1.2147  0.3669
  790MOL0     O 6574  11.997   3.170   6.540 -0.6679  0.0036 -0.4937
  790MOL0     C 6575  12.101   3.271   6.551 -0.5140 -0.3464  0.1572
  790MOL0     C 6576  12.097   3.364   6.669  0.3222 -0.0194  1.1783
  790MOL0     C 6577  12.205   3.476   6.675  0.4870  0.4260 -0.6166
  790MOL0     C 6578  12.156   3.604   6.749  1.7369  0.4290  0.4315
  790MOL0     C 6579  12.057   3.693   6.664 -0.6766 -0.2721 -0.4031
  790MOL0     C 6580  12.000   3.769   6.589 -0.2548  0.3895 -0.1018
  790MOL0     C 6581  11.832   3.325   6.459 -1.2452 -0.2472  0.2338
  790MOL0     C 6582  11.701   3.368   6.429 -0.7273  1.3311 -0.0929
  790MOL0     H 6583  11.180   3.268   6.357 -0.0055 -0.3962 -2.0399
  790MOL0     H 6584  10.969   3.367   6.384 -1.6782  1.4065 -2.0360
  790MOL0     H 6585  10.826   3.549   6.246 -0.6986 -0.5740  0.2510
  790MOL0     H 6586  10.757   3.521   6.401  0.4506 -0.5247 -1.0448
  790MOL0     H 6587  10.771   3.804   6.279  0.0046  0.8628 -0.9553
  790MOL0     H 6588  10.638   3.700   6.239 -0.4884  1.8989  0.7652
  790MOL0     H 6589  10.695   3.764   6.534  0.1821 -2.1944 -0.5809
  790MOL0     H 6590  10.593   3.860   6.419  1.4000  0.1531 -1.1660
  790MOL0     H 6591  10.452   3.671   6.392 -2.6274 -1.6004  2.8601
  790MOL0     H 6592  10.564   3.564   6.491 -0.6518 -0.9546  0.1766
  790MOL0     H 6593  10.485   3.697   6.695 -1.0273 -2.7546 -0.0064
  790MOL0     H 6594  10.435   3.816   6.584  4.4795  0.6434 -0.6082
  790MOL0     H 6595  10.256   3.699   6.507  0.3397 -0.3503 -1.0680
  790MOL0     H 6596  10.329   3.546   6.584  2.6766 -0.0071  0.4653
  790MOL0     H 6597  10.294   3.635   6.795  0.7070 -0.2025 -0.6361
  790MOL0     H 6598  10.209   3.777   6.715  1.2210  0.6667 -1.3152
  790MOL0     H 6599  10.069   3.600   6.598  2.1717 -0.1515 -1.3247
  790MOL0     H 6600  10.022   3.653   6.757  0.0477 -1.4146  1.0878
  790MOL0     H 6601   9.914   3.372   6.697 -0.2457  1.0136  1.5806
  790MOL0     H 6602   9.943   3.089   6.678  0.3799 -0.3198  1.6080
  790MOL0     H 6603  10.069   3.036   6.768 -0.1799 -0.0067 -0.1657
  790MOL0     H 6604   9.870   2.992   6.876  1.0643 -0.0610 -1.9079
  790MOL0     H 6605   9.821   3.164   6.872 -0.6916 -0.6479 -2.4941
  790MOL0     H 6606  10.044   3.197   7.004 -0.8258  0.4285  5.2734
  790MOL0     H 6607  10.033   3.028   7.036  1.3720  1.4891 -0.9314
  790MOL0     H 6608   9.841   3.252   7.107  2.2509  1.3556  2.2419
  790MOL0     H 6609   9.916   3.135   7.216 -1.5237 -0.2178  0.2635
  790MOL0     H 6610   9.528   2.948   7.080 -2.0846 -0.6216  0.0344
  790MOL0     H 6611   9.322   2.881   7.132 -0.1481  0.6513  0.2379
  790MOL0     H 6612   9.224   2.958   7.255 -2.6124  2.6405 -0.7847
  790MOL0     H 6613   9.209   3.026   7.108 -3.5075 -2.1760  2.6734
  790MOL0     H 6614   9.011   3.400   7.249 -4.7967 -2.7354  1.9390
  790MOL0     H 6615   8.817   3.516   7.348  0.0501  2.7412  1.5917
  790MOL0     H 6616   8.637   3.580   7.436  1.1887  0.0123 -0.4978
  790MOL0     H 6617   8.615   3.434   7.535 -0.7675  0.1588 -1.6496
  790MOL0     H 6618   8.559   3.727   7.595 -0.1281  0.3473  0.7555
  790MOL0     H 6619   8.443   3.593   7.566  0.1697  3.4887  0.4146
  790MOL0     H 6620   8.618   3.601   7.807 -0.0063 -0.8475  1.8130
  790MOL0     H 6621   8.517   3.466   7.763 -3.6827  1.0680  2.7258
  790MOL0     H 6622   8.421   3.668   7.918  2.4667  1.2311  0.3251
  790MOL0     H 6623   8.371   3.719   7.756  2.0853 -1.1967 -1.0413
  790MOL0     H 6624   8.247   3.484   7.735 -1.4357 -0.2991  0.2657
  790MOL0     H 6625   8.200   3.593   7.871  2.1472  0.6175  1.9433
  790MOL0     H 6626   8.371   3.358   7.907 -0.5759  1.2471  0.2389
  790MOL0     H 6627   8.328   3.475   8.034  1.2902  0.9723 -0.1847
  790MOL0     H 6628   8.102   3.378   7.874  1.7922  3.0708 -1.1824
  790MOL0     H 6629   8.115   3.401   8.047 -2.8729 -2.8021 -0.9710
  790MOL0     H 6630   8.239   3.189   8.088 -0.3534 -1.7900 -0.3571
  790MOL0     H 6631   8.238   3.145   7.922 -1.7092 -2.2853  0.3015
  790MOL0     H 6632   9.005   3.565   7.719 -2.3460 -1.9295  0.2979
  790MOL0     H 6633   9.216   3.472   7.631  1.2107 -1.2508 -1.7115
  790MOL0     H 6634   9.513   3.334   7.384  0.5557  0.0371 -0.1146
  790MOL0     H 6635   9.719   3.281   7.277 -1.4819  1.1089  0.9344
  790MOL0     H 6636  11.155   3.762   6.398  1.1759  0.6876 -2.3711
  790MOL0     H 6637  11.372   3.647   6.383  0.6060  0.3594  0.7310
  790MOL0     H 6638  11.553   3.070   6.518  0.2896  0.4083  2.4544
  790MOL0     H 6639  11.784   3.018   6.575  1.4778  0.7029  1.2218
  790MOL0     H 6640  12.195   3.216   6.561  0.0775  0.2947 -1.5079
  790MOL0     H 6641  12.113   3.323   6.456 -1.1381  1.2775  0.9279
  790MOL0     H 6642  12.105   3.311   6.765  0.4596  1.3877  1.9731
  790MOL0     H 6643  12.003   3.418   6.655  0.1144 -0.9575 -1.4747
  790MOL0     H 6644  12.242   3.496   6.574 -2.2502 -0.1256 -1.8108
  790MOL0     H 6645  12.293   3.432   6.723  2.0442  4.1624  0.3175
  790MOL0     H 6646  12.248   3.660   6.769  2.6384 -0.2874 -1.5213
  790MOL0     H 6647  12.109   3.570   6.842  2.5828 -2.0979  0.0015
  790MOL0     H 6648  11.942   3.830   6.522 -0.0615  0.0059 -0.6180
  790MOL0     H 6649  11.912   3.395   6.436 -1.4159 -0.5991 -1.5819
  790MOL0     H 6650  11.700   3.465   6.381 -0.7752  0.9466 -0.8867
  791MOL0     O 6651   0.627   4.357   9.985 -0.1853 -0.2883  0.7047
  791MOL0     C 6652   0.560   4.267  10.039  0.4929 -0.3593 -0.3834
  791MOL0     O 6653   0.429   4.276  10.084 -0.4139  0.6391 -0.0239
  791MOL0     C 6654   0.360   4.392  10.097 -0.5667  0.8801  0.0369
  791MOL0     C 6655   0.248   4.407  10.019 -0.4584 -0.0216  1.1788
  791MOL0     C 6656   0.175   4.529  10.027 -0.1517  0.3997  1.1643
  791MOL0     C 6657   0.230   4.642  10.099  0.3691 -0.4683 -0.3907
  791MOL0     O 6658   0.160   4.765  10.102  0.3923  0.6414  0.4330
  791MOL0     C 6659   0.235   4.880  10.146 -0.4239  0.2437  0.2499
  791MOL0     C 6660   0.159   5.014  10.128 -0.3622 -1.0829  0.3401
  791MOL0     C 6661   0.250   5.138  10.133 -0.5438 -0.8900  0.5652
  791MOL0     C 6662   0.306   5.156  10.268  0.2420  0.2133  0.4010
  791MOL0     C 6663   0.389   5.274  10.285 -0.5756  0.2250 -0.7215
  791MOL0     C 6664   0.533   5.253  10.242 -0.5898 -0.7851  0.1153
  791MOL0     C 6665   0.635   5.372  10.272  0.0037  0.6177 -0.2787
  791MOL0     C 6666   0.780   5.330  10.219 -0.0361 -0.2797  0.7427
  791MOL0     N 6667   0.846   5.240  10.318  0.4069 -0.5453  0.5071
  791MOL0     C 6668   0.849   5.099  10.300 -0.7071 -0.1441 -0.0175
  791MOL0     C 6669   0.921   5.056  10.400 -0.3043  0.0878  0.2114
  791MOL0     C 6670   0.952   4.912  10.432  0.0982  0.6230  0.0408
  791MOL0     C 6671   1.104   4.891  10.462  0.0184 -0.2359  0.4374
  791MOL0     C 6672   1.152   4.740  10.470  0.0591  0.1902  0.1538
  791MOL0     C 6673   1.296   4.702  10.470  0.2357 -0.4169 -0.3219
  791MOL0     O 6674   1.306   4.564  10.434  0.1092 -0.2341 -0.4903
  791MOL0     C 6675   1.424   4.502  10.403  0.9705  0.2860  0.7538
  791MOL0     C 6676   1.433   4.360  10.396  0.6933 -0.6844 -0.0924
  791MOL0     C 6677   1.548   4.291  10.377  0.0148  0.0552 -0.0052
  791MOL0     C 6678   1.523   4.139  10.367  0.0155  0.1058  0.3143
  791MOL0     C 6679   1.659   4.363  10.339 -1.2571 -0.3942 -0.4180
  791MOL0     C 6680   1.788   4.298  10.306 -0.6012  0.2367  0.5469
  791MOL0     O 6681   1.901   4.359  10.346 -0.3883 -0.1520  0.3300
  791MOL0     C 6682   2.017   4.295  10.340  0.5720  0.0960  0.6987
  791MOL0     C 6683   2.043   4.161  10.383  0.5431  0.2923  0.6896
  791MOL0     C 6684   2.175   4.106  10.371  0.1667 -0.1838  0.0338
  791MOL0     C 6685   2.277   4.190  10.327 -0.0252 -0.4984  0.0431
  791MOL0     O 6686   2.401   4.132  10.302 -0.6038 -0.2131 -0.0504
  791MOL0     C 6687   2.508   4.197  10.369  0.1636 -1.2094  0.0155
  791MOL0     C 6688   2.619   4.087  10.398 -0.6321  0.0696 -1.0214
  791MOL0     C 6689   2.729   4.156  10.482 -0.9516 -0.7052 -0.3463
  791MOL0     C 6690   2.691   4.173  10.633 -0.1735  0.8050  0.1209
  791MOL0     C 6691   2.803   4.231  10.723 -0.4461 -0.4370  0.2944
  791MOL0     C 6692   2.902   4.114  10.760  0.6208 -0.1395  0.4424
  791MOL0     C 6693   3.029   4.181  10.812  0.9670  0.4457  0.8333
  791MOL0     C 6694   3.138   4.077  10.833  0.0776  0.0982 -0.4852
  791MOL0    Cl 6695   3.275   4.182  10.884  0.4533  0.1198 -0.0150
  791MOL0     C 6696   2.248   4.315  10.274 -1.2959 -0.9862 -0.2392
  791MOL0     C 6697   2.127   4.371  10.287  0.3247 -0.3834 -0.0920
  791MOL0     O 6698   1.782   4.199  10.232 -0.6208  0.0859  0.3363
  791MOL0     C 6699   1.662   4.506  10.359 -0.2589 -0.5154  0.1048
  791MOL0     C 6700   1.544   4.577  10.382  0.6631  0.3509  0.1322
  791MOL0     N 6701   0.967   5.165  10.470  0.0607 -0.0630 -0.5461
  791MOL0     N 6702   0.917   5.277  10.422 -1.0451 -0.1690  0.8257
  791MOL0     C 6703   0.353   4.622  10.165 -0.5956  0.8593  0.8726
  791MOL0     C 6704   0.413   4.498  10.172 -0.1254 -0.7752 -0.4550
  791MOL0     C 6705   0.618   4.131  10.041  0.5424  0.2888  0.9715
  791MOL0     C 6706   0.542   4.028  10.091  0.9899 -0.2543 -0.8148
  791MOL0     C 6707   0.603   3.899  10.132  0.1225 -0.7930 -0.1466
  791MOL0     C 6708   0.737   3.881  10.114  0.4123 -0.2264 -0.3406
  791MOL0     O 6709   0.780   3.749  10.141 -1.1495  0.4768  0.2599
  791MOL0     C 6710   0.913   3.697  10.113  0.5658 -1.3975  0.2369
  791MOL0     C 6711   0.932   3.553  10.153  0.3889  0.2555 -0.2447
  791MOL0     C 6712   0.857   3.464  10.054 -0.4765 -0.3070 -0.1059
  791MOL0     C 6713   0.894   3.315  10.064 -0.1875 -0.3482  0.6011
  791MOL0     C 6714   0.876   3.263  10.203  0.4136 -0.1585  0.8875
  791MOL0     C 6715   0.852   3.230  10.308 -0.8035  0.1884 -0.1810
  791MOL0     C 6716   0.813   3.992  10.074  0.0928  0.3063  0.1597
  791MOL0     C 6717   0.755   4.115  10.044  0.0097  0.3712  0.6954
  791MOL0     H 6718   0.228   4.322   9.955 -0.1694  0.9805 -0.2871
  791MOL0     H 6719   0.093   4.548   9.959  0.3174 -2.9370 -0.5596
  791MOL0     H 6720   0.259   4.868  10.252 -4.1426 -1.8913  1.0312
  791MOL0     H 6721   0.323   4.886  10.081 -1.2154 -2.7439 -1.2363
  791MOL0     H 6722   0.110   5.019  10.030  0.2411  2.1058  0.1082
  791MOL0     H 6723   0.073   5.017  10.196 -0.6346  1.2284 -0.0557
  791MOL0     H 6724   0.332   5.129  10.061 -1.6278 -2.3805 -0.5391
  791MOL0     H 6725   0.181   5.219  10.111  2.0522  1.8130  1.6105
  791MOL0     H 6726   0.221   5.173  10.335 -0.9007 -0.1394 -0.9002
  791MOL0     H 6727   0.363   5.071  10.306  0.0288  0.1108  0.4969
  791MOL0     H 6728   0.344   5.353  10.224 -1.0922 -0.3062 -1.0421
  791MOL0     H 6729   0.398   5.310  10.388  0.5657 -2.1671  0.0725
  791MOL0     H 6730   0.571   5.160  10.285 -1.1936 -2.5310 -2.8598
  791MOL0     H 6731   0.517   5.235  10.135 -1.7352 -3.8317  0.7322
  791MOL0     H 6732   0.602   5.472  10.239  3.0400  2.6361  2.2119
  791MOL0     H 6733   0.645   5.361  10.380  4.1625 -1.5939 -0.7204
  791MOL0     H 6734   0.847   5.414  10.197 -0.0250 -0.9086 -2.0521
  791MOL0     H 6735   0.768   5.272  10.127  0.2638 -2.8604  2.2479
  791MOL0     H 6736   0.801   5.046  10.219 -0.6725  0.9515 -0.7896
  791MOL0     H 6737   0.899   4.877  10.521 -0.5808  2.9974  0.6412
  791MOL0     H 6738   0.930   4.856  10.341 -2.1388 -1.1173  1.5423
  791MOL0     H 6739   1.136   4.939  10.555  1.2114  1.6666 -0.8694
  791MOL0     H 6740   1.167   4.925  10.379  3.7617 -2.5917  2.0369
  791MOL0     H 6741   1.115   4.702  10.374  0.8788 -3.6218  1.1807
  791MOL0     H 6742   1.098   4.683  10.546 -0.9775  0.9980  0.0449
  791MOL0     H 6743   1.354   4.727  10.559  1.2331  1.0429 -1.3299
  791MOL0     H 6744   1.337   4.767  10.392  1.2012  0.5086  0.9314
  791MOL0     H 6745   1.338   4.317  10.424  0.9442 -1.7072 -0.7453
  791MOL0     H 6746   1.578   4.085  10.289 -0.1633  1.0637 -0.5016
  791MOL0     H 6747   1.549   4.101  10.466  0.7048 -0.7527 -0.1939
  791MOL0     H 6748   1.419   4.111  10.345 -0.4378  2.0178 -0.2342
  791MOL0     H 6749   1.961   4.104  10.425  0.6297  0.6893  1.4173
  791MOL0     H 6750   2.202   4.007  10.406 -0.7091  0.1416  1.7618
  791MOL0     H 6751   2.541   4.282  10.309 -1.4077 -1.0449 -0.6537
  791MOL0     H 6752   2.467   4.241  10.460 -0.4860  1.8795 -1.6396
  791MOL0     H 6753   2.578   4.011  10.465  0.2637  0.7724  0.3869
  791MOL0     H 6754   2.669   4.037  10.314  1.1298 -3.3370  1.7737
  791MOL0     H 6755   2.733   4.252  10.430 -3.1291  0.5927  1.6974
  791MOL0     H 6756   2.815   4.089  10.480  0.2177  0.6298  1.7736
  791MOL0     H 6757   2.598   4.230  10.639 -0.6345  0.0684  0.0526
  791MOL0     H 6758   2.668   4.074  10.674 -3.6380  1.5990  0.4391
  791MOL0     H 6759   2.756   4.291  10.802 -0.2273  1.2169 -0.7772
  791MOL0     H 6760   2.855   4.303  10.659  0.6927 -0.6616  0.9398
  791MOL0     H 6761   2.863   4.054  10.843  2.4742 -0.0091  1.4655
  791MOL0     H 6762   2.911   4.047  10.674  2.5034 -0.8047  1.1115
  791MOL0     H 6763   3.001   4.230  10.906 -5.5271 -2.3030  0.8665
  791MOL0     H 6764   3.073   4.260  10.751  1.0197  1.3927  2.0453
  791MOL0     H 6765   3.167   4.023  10.742  0.5587 -0.3285 -0.0868
  791MOL0     H 6766   3.107   4.011  10.915 -1.2608  1.3541  0.0583
  791MOL0     H 6767   2.328   4.373  10.230  0.0643 -2.8076 -0.2451
  791MOL0     H 6768   2.115   4.474  10.253  3.4281  0.4231  0.8889
  791MOL0     H 6769   1.748   4.564  10.329  1.1658 -3.1780 -1.3014
  791MOL0     H 6770   1.551   4.685  10.386  0.8139  0.4113 -1.2952
  791MOL0     H 6771   0.405   4.699  10.221  3.7861 -0.5094 -0.9005
  791MOL0     H 6772   0.495   4.460  10.233  1.4661 -1.9842 -3.1836
  791MOL0     H 6773   0.434   4.034  10.090  0.8421 -1.8971  0.2896
  791MOL0     H 6774   0.541   3.816  10.163 -0.8933  0.3187  0.8950
  791MOL0     H 6775   0.937   3.707  10.006 -1.3194 -4.8683 -0.6634
  791MOL0     H 6776   0.983   3.758  10.169 -1.0056  0.6741  0.0528
  791MOL0     H 6777   0.886   3.533  10.250  1.0813  1.1251  0.2741
  791MOL0     H 6778   1.037   3.524  10.158  0.1040 -0.9887 -0.9984
  791MOL0     H 6779   0.895   3.492   9.956  2.6683  0.4503  1.2241
  791MOL0     H 6780   0.748   3.477  10.057 -0.4805  0.1753 -1.7652
  791MOL0     H 6781   1.000   3.303  10.039  0.3119 -0.1419  2.4551
  791MOL0     H 6782   0.826   3.267   9.992 -2.1400 -0.6892  2.5742
  791MOL0     H 6783   0.829   3.212  10.411 -0.1017  1.4839  0.2210
  791MOL0     H 6784   0.921   3.997  10.060  0.0383  0.1109 -0.3815
  791MOL0     H 6785   0.806   4.211  10.043 -2.9217  2.2493  4.2708
  792MOL0     O 6786   1.565  10.222   5.723 -0.0720 -0.4641 -0.5675
  792MOL0     C 6787   1.609  10.178   5.619  0.8513  0.0869  0.9529
  792MOL0     O 6788   1.529  10.128   5.517 -0.8779  0.7858 -0.1633
  792MOL0     C 6789   1.397  10.164   5.527  0.1228  0.2153  0.2128
  792MOL0     C 6790   1.335  10.265   5.450  0.3847  0.4326 -1.0183
  792MOL0     C 6791   1.203  10.300   5.467  0.1577  0.4647  0.0040
  792MOL0     C 6792   1.128  10.227   5.556 -0.3206  0.2738  0.3641
  792MOL0     O 6793   0.994  10.266   5.568 -0.9346 -0.1803 -0.2962
  792MOL0     C 6794   0.905  10.187   5.657 -0.3363  0.2890  1.4556
  792MOL0     C 6795   0.756  10.238   5.641 -1.0458 -0.4106 -0.7218
  792MOL0     C 6796   0.653  10.127   5.672 -0.2017  0.6741  0.3709
  792MOL0     C 6797   0.517  10.185   5.658  0.0715  1.0838  0.3376
  792MOL0     C 6798   0.399  10.092   5.692 -0.1057 -0.1000 -0.9946
  792MOL0     C 6799   0.266  10.181   5.701 -0.1357  0.0724 -0.4508
  792MOL0     C 6800   0.137  10.104   5.646 -0.0524 -0.2380  0.2355
  792MOL0     C 6801   0.102   9.980   5.717  0.5862  0.1361 -0.1770
  792MOL0     N 6802   0.004   9.908   5.629 -0.0710 -0.2657 -0.7833
  792MOL0     C 6803  -0.131   9.920   5.634 -0.1343 -0.5904 -0.1857
  792MOL0     C 6804  -0.182   9.829   5.544 -0.4755 -0.5072  1.5431
  792MOL0     C 6805  -0.325   9.793   5.521 -0.0271  0.2249  1.0610
  792MOL0     C 6806  -0.426   9.883   5.593  0.1593 -0.0365 -0.4415
  792MOL0     C 6807  -0.565   9.828   5.558 -0.8950 -0.0030 -0.2655
  792MOL0     C 6808  -0.677   9.896   5.634  0.2434 -0.7017  0.2718
  792MOL0     O 6809  -0.670  10.040   5.620 -0.0767 -0.6393 -0.1836
  792MOL0     C 6810  -0.788  10.122   5.631 -0.3076  0.7775 -0.3351
  792MOL0     C 6811  -0.925  10.076   5.630 -0.7376  1.3139 -0.5238
  792MOL0     C 6812  -1.041  10.150   5.646 -0.2826  0.1382 -0.8326
  792MOL0     C 6813  -1.166  10.069   5.644  0.9106 -0.8035  0.0573
  792MOL0     C 6814  -1.021  10.295   5.659 -0.1486 -0.1102 -0.2873
  792MOL0     C 6815  -1.129  10.388   5.676  0.2210 -0.6152  0.6034
  792MOL0     O 6816  -1.251  10.334   5.691 -0.5480 -0.4396 -0.0459
  792MOL0     C 6817  -1.351  10.426   5.722 -0.9560  0.3592  0.2657
  792MOL0     C 6818  -1.423  10.505   5.624  0.0380 -1.3690 -0.0718
  792MOL0     C 6819  -1.508  10.616   5.663  0.4761  0.8011  0.6050
  792MOL0     C 6820  -1.505  10.647   5.805 -0.4584  0.2193  0.1880
  792MOL0     O 6821  -1.585  10.740   5.861  0.3529 -0.2199  0.5229
  792MOL0     C 6822  -1.540  10.875   5.838  0.4977  0.4301 -0.8372
  792MOL0     C 6823  -1.663  10.973   5.828  0.0034 -0.9486 -0.2196
  792MOL0     C 6824  -1.738  10.999   5.961 -0.0733  0.4184 -0.1096
  792MOL0     C 6825  -1.881  11.052   5.932 -0.0985 -0.7492 -0.4965
  792MOL0     C 6826  -1.932  11.148   6.039  0.2010 -0.1738 -0.3241
  792MOL0     C 6827  -1.870  11.285   6.041 -0.0082 -0.4098  0.0836
  792MOL0     C 6828  -1.924  11.373   6.138 -0.7651  0.4436  0.4756
  792MOL0     C 6829  -1.928  11.527   6.097  0.0894 -0.0216  0.0943
  792MOL0    Cl 6830  -1.762  11.590   6.056  0.1709 -0.4607 -0.3466
  792MOL0     C 6831  -1.439  10.569   5.898  0.0298  0.0379  1.0531
  792MOL0     C 6832  -1.358  10.464   5.858 -0.6177 -0.0027  0.6344
  792MOL0     O 6833  -1.095  10.513   5.671  0.3311  0.6821 -0.4958
  792MOL0     C 6834  -0.887  10.346   5.660  0.3457  1.0604 -0.3154
  792MOL0     C 6835  -0.775  10.258   5.642  0.2786  0.2964  0.6653
  792MOL0     N 6836  -0.070   9.756   5.500  0.0384 -0.3003  0.3081
  792MOL0     N 6837   0.038   9.806   5.548 -0.2375 -0.5632  0.3559
  792MOL0     C 6838   1.178  10.118   5.628 -0.1860 -0.6978 -0.0140
  792MOL0     C 6839   1.318  10.084   5.613  0.2876 -0.1971 -0.4259
  792MOL0     C 6840   1.761  10.171   5.611 -0.2699  0.4031 -0.0114
  792MOL0     C 6841   1.815  10.081   5.521 -0.2290  0.5892  0.2668
  792MOL0     C 6842   1.951  10.045   5.523  0.4397 -0.7486 -0.1671
  792MOL0     C 6843   2.036  10.106   5.612 -0.0032 -0.1324  0.8224
  792MOL0     O 6844   2.172  10.092   5.607 -0.5925  0.0147  0.3620
  792MOL0     C 6845   2.246  10.024   5.499 -0.2099 -0.0004  0.3627
  792MOL0     C 6846   2.394  10.052   5.523  0.0247  0.1463 -0.3150
  792MOL0     C 6847   2.494   9.991   5.423  0.4503  0.0504 -0.4099
  792MOL0     C 6848   2.641  10.014   5.447 -0.8699  0.5944  0.1601
  792MOL0     C 6849   2.692  10.153   5.480  0.9848  0.3562 -0.1588
  792MOL0     C 6850   2.740  10.257   5.514  0.0011 -0.1364  0.4524
  792MOL0     C 6851   1.983  10.200   5.697 -0.3636  0.0660  0.4466
  792MOL0     C 6852   1.852  10.225   5.702 -0.2656 -0.2081  0.1538
  792MOL0     H 6853   1.393  10.322   5.379  0.9898  1.0499 -0.0616
  792MOL0     H 6854   1.179  10.381   5.400  4.3897  1.0003 -1.1163
  792MOL0     H 6855   0.920  10.080   5.638 -1.2518  0.5721 -1.3372
  792MOL0     H 6856   0.939  10.198   5.760 -0.0306  0.4803  1.3350
  792MOL0     H 6857   0.739  10.315   5.716 -1.0273  1.6065 -2.6957
  792MOL0     H 6858   0.747  10.292   5.547  2.7933  0.8157 -0.5557
  792MOL0     H 6859   0.659  10.036   5.612 -2.7847  0.6996 -0.0690
  792MOL0     H 6860   0.647  10.109   5.780 -1.7310  0.9172  0.3592
  792MOL0     H 6861   0.511  10.275   5.721 -1.1223  0.0188  1.8284
  792MOL0     H 6862   0.500  10.214   5.554 -0.0474  1.4751  0.4624
  792MOL0     H 6863   0.390  10.006   5.625 -3.9914 -1.0602  0.4711
  792MOL0     H 6864   0.415  10.051   5.792 -2.2880  0.8057 -0.2059
  792MOL0     H 6865   0.253  10.212   5.806  1.3158  0.4617 -0.3680
  792MOL0     H 6866   0.265  10.266   5.632 -0.0805  0.4718  0.0345
  792MOL0     H 6867   0.049  10.169   5.641 -0.6053 -0.9925 -0.1001
  792MOL0     H 6868   0.158  10.081   5.541  1.6896  0.2928  0.4389
  792MOL0     H 6869   0.065   9.996   5.818 -0.6846 -0.2188 -0.5632
  792MOL0     H 6870   0.197   9.926   5.726 -0.0988 -1.4888 -1.9775
  792MOL0     H 6871  -0.194   9.983   5.696  0.5453  0.7484 -0.8039
  792MOL0     H 6872  -0.341   9.799   5.412 -1.0038  2.4678  1.2800
  792MOL0     H 6873  -0.323   9.689   5.556  0.2198 -0.0655  0.2244
  792MOL0     H 6874  -0.420   9.989   5.566 -0.5754 -0.2575 -1.5523
  792MOL0     H 6875  -0.410   9.874   5.700  1.1319 -3.4544 -0.7529
  792MOL0     H 6876  -0.555   9.723   5.585  2.9656 -0.1162 -1.4490
  792MOL0     H 6877  -0.575   9.832   5.449 -0.3040 -2.0887 -0.4383
  792MOL0     H 6878  -0.680   9.889   5.743  0.0541 -0.5523  0.2776
  792MOL0     H 6879  -0.766   9.844   5.596 -0.1152 -1.8453  2.5345
  792MOL0     H 6880  -0.929   9.974   5.594  0.4281  1.1239 -0.1667
  792MOL0     H 6881  -1.235  10.098   5.723 -1.7692  2.4570 -3.1460
  792MOL0     H 6882  -1.212  10.087   5.547  0.9560  0.9343  0.3379
  792MOL0     H 6883  -1.139   9.963   5.653  1.3267 -0.5447  5.2263
  792MOL0     H 6884  -1.412  10.477   5.520 -1.1625 -0.2406 -0.5314
  792MOL0     H 6885  -1.564  10.674   5.589 -3.7626  2.7261  4.7956
  792MOL0     H 6886  -1.470  10.904   5.917  0.6931  2.9126 -1.8272
  792MOL0     H 6887  -1.474  10.887   5.752 -0.0758  3.4849 -0.9832
  792MOL0     H 6888  -1.614  11.056   5.776  1.9899 -0.8699  1.6340
  792MOL0     H 6889  -1.730  10.927   5.755 -0.0186  1.2348 -1.6727
  792MOL0     H 6890  -1.671  11.054   6.028  1.0287 -1.6243  0.5302
  792MOL0     H 6891  -1.750  10.901   6.008 -1.5638  0.0368 -1.2071
  792MOL0     H 6892  -1.887  11.107   5.838 -0.3589 -0.1330 -0.1189
  792MOL0     H 6893  -1.939  10.959   5.923 -1.8116  0.2244 -0.0273
  792MOL0     H 6894  -1.936  11.093   6.133 -1.5953 -1.4746 -1.1091
  792MOL0     H 6895  -2.033  11.178   6.009  0.2731 -1.0060 -1.4826
  792MOL0     H 6896  -1.762  11.283   6.058  0.3048 -2.4398 -1.7126
  792MOL0     H 6897  -1.896  11.326   5.943 -1.1575 -0.0617  0.5172
  792MOL0     H 6898  -1.876  11.370   6.236  1.1105 -0.9816 -0.4279
  792MOL0     H 6899  -2.029  11.350   6.161 -1.0773  1.3025 -0.0368
  792MOL0     H 6900  -1.972  11.589   6.175  1.0362 -1.7777  2.1347
  792MOL0     H 6901  -1.976  11.527   5.998  3.0065 -2.7015 -1.5188
  792MOL0     H 6902  -1.428  10.611   5.998  0.9338  1.4367  0.3904
  792MOL0     H 6903  -1.298  10.403   5.925 -0.9005 -1.0748 -0.0604
  792MOL0     H 6904  -0.862  10.447   5.689  0.4121  0.8279  0.4566
  792MOL0     H 6905  -0.676  10.299   5.626 -0.6391  2.6449  0.5226
  792MOL0     H 6906   1.125  10.053   5.697 -2.6699  2.1973  1.0275
  792MOL0     H 6907   1.357  10.006   5.678 -0.0059  1.5969  2.0481
  792MOL0     H 6908   1.743  10.026   5.460 -1.1074  3.4382 -1.4616
  792MOL0     H 6909   1.971   9.955   5.466 -0.7019 -0.7218 -0.6425
  792MOL0     H 6910   2.216   9.920   5.513  1.3399 -0.6489 -0.8355
  792MOL0     H 6911   2.203  10.047   5.401 -0.4524 -2.7663 -0.2734
  792MOL0     H 6912   2.430  10.024   5.622 -0.7255 -1.1754 -0.3937
  792MOL0     H 6913   2.389  10.161   5.514 -1.1793  0.0958 -0.4035
  792MOL0     H 6914   2.470  10.025   5.322  0.9496 -0.3730 -0.6782
  792MOL0     H 6915   2.485   9.882   5.432  1.1006 -0.0920 -1.3460
  792MOL0     H 6916   2.704   9.987   5.362 -0.6823  0.3343  0.3806
  792MOL0     H 6917   2.672   9.967   5.541 -0.0385  3.0554  1.1738
  792MOL0     H 6918   2.804  10.338   5.545  0.3083  1.2344 -3.2745
  792MOL0     H 6919   2.055  10.253   5.758 -0.8519  2.6364 -1.0071
  792MOL0     H 6920   1.801  10.299   5.763  0.7563  3.6934 -3.2768
  793MOL0     O 6921   0.615   2.708  10.848  0.0275  0.3895  0.9938
  793MOL0     C 6922   0.612   2.645  10.747  0.7529  0.6950 -0.2835
  793MOL0     O 6923   0.716   2.561  10.696 -0.5131 -0.0169 -0.1953
  793MOL0     C 6924   0.841   2.560  10.750 -0.1586 -0.9009  0.5288
  793MOL0     C 6925   0.897   2.643  10.851  0.3365 -0.3165 -0.0581
  793MOL0     C 6926   1.029   2.627  10.908  0.7821  0.1040  0.2223
  793MOL0     C 6927   1.110   2.529  10.863 -0.4472 -0.8937 -0.4200
  793MOL0     O 6928   1.226   2.518  10.928 -0.5552 -0.6316  0.2101
  793MOL0     C 6929   1.325   2.429  10.863 -0.0440 -0.3457 -0.2331
  793MOL0     C 6930   1.460   2.499  10.915 -0.2033 -0.3908  0.6328
  793MOL0     C 6931   1.489   2.629  10.829 -0.4322 -0.4149  0.3106
  793MOL0     C 6932   1.631   2.664  10.816 -1.0544  0.3961  0.0165
  793MOL0     C 6933   1.663   2.798  10.737 -1.0962  0.9278 -0.4227
  793MOL0     C 6934   1.614   2.782  10.587  0.4355  0.0125  0.3994
  793MOL0     C 6935   1.486   2.871  10.583 -0.7584  1.0686  0.1128
  793MOL0     C 6936   1.430   2.881  10.450 -0.3315  0.2450 -0.2311
  793MOL0     N 6937   1.285   2.907  10.446 -0.9880 -0.2410  0.4009
  793MOL0     C 6938   1.189   2.812  10.461  0.5324 -0.3698 -0.2463
  793MOL0     C 6939   1.068   2.866  10.430 -0.6653 -0.5000 -0.1535
  793MOL0     C 6940   0.932   2.793  10.447  0.0032  0.7196 -0.2369
  793MOL0     C 6941   0.821   2.872  10.519  0.0557 -0.2485 -0.6570
  793MOL0     C 6942   0.867   2.948  10.643 -0.3459  0.3934  0.0648
  793MOL0     C 6943   0.751   3.013  10.709  0.3861 -0.7729 -0.4074
  793MOL0     O 6944   0.712   3.113  10.613 -0.1234 -0.1008 -0.1498
  793MOL0     C 6945   0.581   3.116  10.605 -0.0128 -0.0883 -0.3298
  793MOL0     C 6946   0.512   3.210  10.681 -0.1633 -0.4609 -0.5632
  793MOL0     C 6947   0.373   3.236  10.668  0.0288  0.3936  0.0147
  793MOL0     C 6948   0.305   3.314  10.773  0.4293 -0.0939 -0.2615
  793MOL0     C 6949   0.296   3.168  10.565 -0.9359  0.0111 -0.4799
  793MOL0     C 6950   0.154   3.188  10.524  0.6380 -0.3448 -0.5516
  793MOL0     O 6951   0.100   3.126  10.411  0.8000  0.1099  0.4334
  793MOL0     C 6952  -0.030   3.147  10.376  0.5129 -0.0170 -0.3998
  793MOL0     C 6953  -0.061   3.261  10.302  0.7239 -0.8546  0.4188
  793MOL0     C 6954  -0.185   3.291  10.261 -0.0887  0.0388  0.0433
  793MOL0     C 6955  -0.290   3.218  10.301  0.5167 -0.6582 -0.1589
  793MOL0     O 6956  -0.406   3.266  10.252 -0.5589 -0.2750 -0.0277
  793MOL0     C 6957  -0.515   3.182  10.271  0.7210 -0.2320  0.2792
  793MOL0     C 6958  -0.633   3.240  10.192  0.1456  0.2650 -0.1388
  793MOL0     C 6959  -0.713   3.332  10.279  0.3059 -0.5927 -0.3380
  793MOL0     C 6960  -0.800   3.409  10.175 -0.4421  0.2538 -0.4531
  793MOL0     C 6961  -0.915   3.482  10.236  0.4467  0.4185  0.0811
  793MOL0     C 6962  -0.985   3.570  10.127 -0.6431  0.1567  0.0130
  793MOL0     C 6963  -1.089   3.671  10.170  0.0635 -0.7320 -0.4504
  793MOL0     C 6964  -1.224   3.590  10.163 -0.3973 -0.4742 -0.0738
  793MOL0    Cl 6965  -1.274   3.555   9.992 -0.5760 -0.1512 -0.1063
  793MOL0     C 6966  -0.262   3.100  10.371  0.1099 -0.2206  0.3764
  793MOL0     C 6967  -0.132   3.074  10.421 -0.0949 -0.0924  0.2114
  793MOL0     O 6968   0.088   3.272  10.591  0.4373  0.8853 -0.6984
  793MOL0     C 6969   0.375   3.076  10.489  0.8034  0.4288 -0.2178
  793MOL0     C 6970   0.509   3.058  10.512 -0.8696  0.9736 -0.1444
  793MOL0     N 6971   1.096   2.994  10.369  0.2161  0.3334 -0.3754
  793MOL0     N 6972   1.225   3.017  10.385 -0.4926  0.8158 -0.1337
  793MOL0     C 6973   1.061   2.448  10.764  0.5586 -0.7276  0.6229
  793MOL0     C 6974   0.935   2.467  10.705 -0.8093 -0.1112 -0.2556
  793MOL0     C 6975   0.504   2.683  10.655 -0.0366 -0.2619  0.0255
  793MOL0     C 6976   0.374   2.708  10.711  0.3848 -0.9885  0.3368
  793MOL0     C 6977   0.253   2.723  10.635 -0.0067 -0.2053 -0.6915
  793MOL0     C 6978   0.278   2.714  10.491  0.8947  0.1926  1.2489
  793MOL0     O 6979   0.170   2.736  10.401  0.0779 -0.4663 -0.2198
  793MOL0     C 6980   0.030   2.721  10.445 -0.5695 -0.0247 -0.4230
  793MOL0     C 6981  -0.081   2.735  10.342 -0.3286 -0.1920 -0.4660
  793MOL0     C 6982  -0.208   2.721  10.433 -0.3832 -1.0127 -0.0868
  793MOL0     C 6983  -0.332   2.737  10.345  0.7879 -0.2358  0.2605
  793MOL0     C 6984  -0.455   2.725  10.428  0.6878 -0.4344  0.3981
  793MOL0     C 6985  -0.558   2.712  10.490 -0.6987  0.4249  0.7753
  793MOL0     C 6986   0.401   2.689  10.437  0.0242  1.0487 -0.0716
  793MOL0     C 6987   0.515   2.666  10.513 -0.8728 -1.6910 -0.4688
  793MOL0     H 6988   0.847   2.734  10.882  2.7466  1.1339 -0.1798
  793MOL0     H 6989   1.054   2.697  10.988 -1.7241  0.0775  1.1285
  793MOL0     H 6990   1.311   2.322  10.883 -0.4849 -0.0093  1.3483
  793MOL0     H 6991   1.328   2.443  10.754  0.7092 -0.0387 -0.1763
  793MOL0     H 6992   1.453   2.533  11.019 -0.0962 -0.9540  0.8280
  793MOL0     H 6993   1.541   2.427  10.904 -0.0094  0.2884 -4.6296
  793MOL0     H 6994   1.458   2.607  10.726 -0.9176  1.6746 -0.0295
  793MOL0     H 6995   1.431   2.714  10.866  3.4357  2.6934 -0.1053
  793MOL0     H 6996   1.663   2.666  10.921 -0.2046 -0.8284 -0.1980
  793MOL0     H 6997   1.681   2.581  10.766 -1.8584 -2.1434  3.1198
  793MOL0     H 6998   1.624   2.891  10.780 -1.9000  0.9983 -1.2885
  793MOL0     H 6999   1.772   2.809  10.733 -0.9318  2.4928  3.6660
  793MOL0     H 7000   1.690   2.823  10.520  0.5204 -0.1584  0.3897
  793MOL0     H 7001   1.601   2.677  10.561  2.6099  0.2017 -1.9162
  793MOL0     H 7002   1.421   2.824  10.657 -0.8355  1.5091  0.3295
  793MOL0     H 7003   1.505   2.976  10.607  2.3383  0.5407  0.2775
  793MOL0     H 7004   1.454   2.787  10.400  0.7419 -0.5812  1.7177
  793MOL0     H 7005   1.480   2.960  10.394  0.7683 -0.0459  0.3086
  793MOL0     H 7006   1.202   2.708  10.492  1.2854  0.4848  2.5443
  793MOL0     H 7007   0.888   2.748  10.357 -0.7910 -2.4151  1.5615
  793MOL0     H 7008   0.956   2.710  10.515 -0.2969 -0.8637 -1.9621
  793MOL0     H 7009   0.746   2.801  10.555 -1.0782  1.0956 -0.2572
  793MOL0     H 7010   0.780   2.946  10.450  3.2878  1.5747 -0.8205
  793MOL0     H 7011   0.935   3.027  10.611 -1.0861  0.9398 -0.1824
  793MOL0     H 7012   0.912   2.877  10.714  1.1583  1.7241  0.4847
  793MOL0     H 7013   0.789   3.058  10.802  1.6846 -3.4174  0.4282
  793MOL0     H 7014   0.671   2.940  10.728 -1.2173  0.2679 -2.7412
  793MOL0     H 7015   0.565   3.248  10.767 -0.5154 -1.3984  0.0802
  793MOL0     H 7016   0.248   3.248  10.838 -0.0629 -0.6798 -1.2742
  793MOL0     H 7017   0.373   3.359  10.847 -0.4997  1.4215 -0.2914
  793MOL0     H 7018   0.235   3.388  10.734  0.0727 -0.2660  0.0536
  793MOL0     H 7019   0.024   3.318  10.266 -1.3615  1.9644 -0.3190
  793MOL0     H 7020  -0.200   3.382  10.203 -0.0437  1.0882  1.6142
  793MOL0     H 7021  -0.493   3.085  10.225  1.7846  0.4257 -0.6689
  793MOL0     H 7022  -0.542   3.159  10.374 -2.8543 -0.8130 -0.6532
  793MOL0     H 7023  -0.611   3.295  10.100  2.6912  1.7219  1.2164
  793MOL0     H 7024  -0.698   3.155  10.170  1.1176 -0.8775  1.1573
  793MOL0     H 7025  -0.647   3.411  10.316 -1.2967  0.8118 -0.3143
  793MOL0     H 7026  -0.763   3.284  10.364  1.7300 -1.0475  0.2682
  793MOL0     H 7027  -0.733   3.479  10.125  1.6197  0.8324  2.8507
  793MOL0     H 7028  -0.840   3.330  10.109 -2.5884  0.8697  0.0371
  793MOL0     H 7029  -0.885   3.537  10.326 -0.3862  0.9085  0.0713
  793MOL0     H 7030  -0.992   3.412  10.271  1.0126  0.5976  1.8158
  793MOL0     H 7031  -0.900   3.632  10.097  0.5215 -2.0058 -1.4399
  793MOL0     H 7032  -1.017   3.509  10.041 -1.7748 -1.1812  1.3380
  793MOL0     H 7033  -1.093   3.756  10.102  1.0577  2.1671  2.8357
  793MOL0     H 7034  -1.079   3.714  10.270 -1.9217  1.4188 -1.0883
  793MOL0     H 7035  -1.302   3.658  10.200 -0.3008 -0.3608 -0.0771
  793MOL0     H 7036  -1.220   3.501  10.226 -0.9046 -0.2990  0.2119
  793MOL0     H 7037  -0.349   3.039  10.394  0.0482 -0.3277 -0.1293
  793MOL0     H 7038  -0.117   2.988  10.486  2.3472 -0.9207 -1.3161
  793MOL0     H 7039   0.339   3.024  10.401  2.2224  0.1581 -0.6605
  793MOL0     H 7040   0.569   2.993  10.449 -0.8266  2.1916 -1.3959
  793MOL0     H 7041   1.128   2.375  10.720 -0.5271 -0.3225 -1.9265
  793MOL0     H 7042   0.909   2.405  10.619  1.5137 -0.1000 -1.0236
  793MOL0     H 7043   0.375   2.703  10.820  3.1356 -0.7039  0.3927
  793MOL0     H 7044   0.153   2.731  10.676 -0.7218 -0.3667 -2.3344
  793MOL0     H 7045   0.009   2.625  10.493  0.2580 -1.8387 -3.4061
  793MOL0     H 7046   0.019   2.796  10.523  0.2787 -2.9337  2.7404
  793MOL0     H 7047  -0.069   2.664  10.260 -1.6918  0.4803 -1.2998
  793MOL0     H 7048  -0.085   2.828  10.285 -1.1628 -1.4343 -2.5564
  793MOL0     H 7049  -0.213   2.803  10.504 -0.4035 -0.7951 -0.3348
  793MOL0     H 7050  -0.214   2.622  10.479 -2.3271 -0.5629  0.7091
  793MOL0     H 7051  -0.336   2.674  10.255  1.2081  0.2604 -0.1149
  793MOL0     H 7052  -0.326   2.837  10.302 -0.7486  1.2986  3.3014
  793MOL0     H 7053  -0.648   2.703  10.547 -0.2007 -0.9892  1.3803
  793MOL0     H 7054   0.429   2.685  10.332  5.6983  0.7492  1.1117
  793MOL0     H 7055   0.611   2.657  10.464  0.2650 -1.8383  1.6369
  794MOL0     O 7056   9.882  10.356   8.333 -0.0893  0.4439  0.3736
  794MOL0     C 7057   9.904  10.470   8.378 -0.1583  0.6354 -0.5926
  794MOL0     O 7058   9.805  10.563   8.404  0.0255  0.0597 -0.1005
  794MOL0     C 7059   9.672  10.528   8.397  0.5930 -0.1374  0.0727
  794MOL0     C 7060   9.581  10.598   8.482  0.2961 -0.0588 -0.0966
  794MOL0     C 7061   9.441  10.579   8.480 -1.0703  0.1955 -0.4097
  794MOL0     C 7062   9.391  10.488   8.379  0.7174 -0.1228 -1.3230
  794MOL0     O 7063   9.253  10.473   8.355  0.0862 -0.5067 -0.0626
  794MOL0     C 7064   9.215  10.512   8.221 -0.3022  0.1676 -0.4321
  794MOL0     C 7065   9.226  10.664   8.206 -0.2176 -0.0094  1.1132
  794MOL0     C 7066   9.132  10.723   8.100 -0.0815  0.6703 -0.1578
  794MOL0     C 7067   8.981  10.714   8.142 -0.4646  0.5055  0.4382
  794MOL0     C 7068   8.899  10.785   8.040  0.5832 -0.0472  0.1385
  794MOL0     C 7069   8.753  10.786   8.090  0.3019  0.1857  0.2537
  794MOL0     C 7070   8.649  10.859   8.008  0.4586  0.4792  0.2468
  794MOL0     C 7071   8.624  10.787   7.878  0.4483 -0.1148 -0.1620
  794MOL0     N 7072   8.505  10.832   7.803  0.1337  0.5815  0.7136
  794MOL0     C 7073   8.379  10.825   7.851  0.3190  0.2220 -0.0932
  794MOL0     C 7074   8.300  10.878   7.752 -0.0461 -0.7248 -0.3513
  794MOL0     C 7075   8.151  10.877   7.769 -0.1669  0.2272  0.1698
  794MOL0     C 7076   8.079  10.863   7.640  0.3373 -0.3391 -0.2372
  794MOL0     C 7077   7.926  10.859   7.678 -0.0707  0.7130  0.3572
  794MOL0     C 7078   7.830  10.872   7.559  0.5328 -0.7416  0.0770
  794MOL0     O 7079   7.800  11.012   7.537  0.1267 -0.7531  0.0877
  794MOL0     C 7080   7.668  11.028   7.496  0.1575  0.6195  1.2731
  794MOL0     C 7081   7.577  11.099   7.573 -0.2409  0.5502 -0.3963
  794MOL0     C 7082   7.448  11.123   7.532  0.0371 -0.0849  0.4869
  794MOL0     C 7083   7.377  11.232   7.614  0.0299 -1.0368  0.0901
  794MOL0     C 7084   7.394  11.053   7.420 -0.2976 -0.1548  0.1802
  794MOL0     C 7085   7.253  11.059   7.382 -0.5712  0.0897 -0.1163
  794MOL0     O 7086   7.228  11.041   7.255  0.3461 -0.6110 -0.2860
  794MOL0     C 7087   7.116  11.089   7.189  0.5492  0.4592 -0.1280
  794MOL0     C 7088   7.007  11.171   7.228 -0.8137  0.4264 -0.0163
  794MOL0     C 7089   6.926  11.233   7.134  0.7946  0.2879  0.4650
  794MOL0     C 7090   6.948  11.210   7.000  0.2981  0.2642  0.0812
  794MOL0     O 7091   6.847  11.277   6.925 -0.0510 -0.5269 -0.2026
  794MOL0     C 7092   6.836  11.214   6.798 -0.3012  1.3163  0.2403
  794MOL0     C 7093   6.719  11.263   6.721  0.3696 -0.4420 -0.0643
  794MOL0     C 7094   6.593  11.179   6.757  0.4383  0.0445  0.2501
  794MOL0     C 7095   6.478  11.214   6.654 -1.3977 -0.6127  0.4678
  794MOL0     C 7096   6.351  11.145   6.684 -0.6980 -0.1025 -1.0405
  794MOL0     C 7097   6.244  11.220   6.601  0.1843  0.4879  0.2534
  794MOL0     C 7098   6.101  11.168   6.639  0.2880 -0.2201  0.1725
  794MOL0     C 7099   5.977  11.238   6.570  0.1142  0.6753  0.2518
  794MOL0    Cl 7100   5.940  11.401   6.656  0.3949  0.5039 -0.0332
  794MOL0     C 7101   7.050  11.120   6.955 -0.2256 -0.4212 -0.8396
  794MOL0     C 7102   7.134  11.066   7.051  0.4024  0.7417 -0.1559
  794MOL0     O 7103   7.167  11.086   7.467  0.0959 -0.3670 -0.1106
  794MOL0     C 7104   7.488  10.987   7.336  0.0418 -0.3443  0.1311
  794MOL0     C 7105   7.621  10.973   7.378 -0.2949  1.0899  0.1225
  794MOL0     N 7106   8.379  10.918   7.644 -0.2220  0.9202  0.4814
  794MOL0     N 7107   8.502  10.881   7.678  0.6896 -0.5945 -0.2269
  794MOL0     C 7108   9.479  10.413   8.306 -0.3993 -0.3298  0.1615
  794MOL0     C 7109   9.614  10.434   8.312  0.8786  0.0177 -0.0183
  794MOL0     C 7110  10.040  10.502   8.424  0.1557  0.5898 -0.3031
  794MOL0     C 7111  10.131  10.401   8.429 -0.1320  0.3302 -0.0553
  794MOL0     C 7112  10.264  10.432   8.467  0.5381  0.1356 -0.5868
  794MOL0     C 7113  10.299  10.566   8.507 -0.1630  0.3515  0.2825
  794MOL0     O 7114  10.427  10.612   8.552 -0.1117 -1.0417  0.2247
  794MOL0     C 7115  10.539  10.528   8.596  0.2981  0.0663  0.0402
  794MOL0     C 7116  10.658  10.615   8.601  1.0110 -0.3705  0.6078
  794MOL0     C 7117  10.729  10.653   8.457 -0.0784  0.8400 -0.3199
  794MOL0     C 7118  10.878  10.606   8.449  0.2567  0.0535  0.4670
  794MOL0     C 7119  10.937  10.649   8.320 -0.2264 -0.0804  0.3556
  794MOL0     C 7120  10.976  10.687   8.208  0.4589  0.1803 -0.2338
  794MOL0     C 7121  10.203  10.669   8.495  0.8900 -0.7175  0.1598
  794MOL0     C 7122  10.072  10.633   8.447 -0.2737  0.2079  0.1229
  794MOL0     H 7123   9.620  10.673   8.550  0.8307  0.3183 -0.7992
  794MOL0     H 7124   9.379  10.641   8.544  0.0270 -0.4599  1.3501
  794MOL0     H 7125   9.274  10.459   8.146  1.1439 -1.7473  1.8871
  794MOL0     H 7126   9.112  10.476   8.211 -0.4477  0.3393  0.3195
  794MOL0     H 7127   9.190  10.697   8.303  0.5845  0.5140  1.2448
  794MOL0     H 7128   9.331  10.694   8.194 -0.8169  2.8946  2.2529
  794MOL0     H 7129   9.166  10.823   8.070 -3.2340  1.4444 -1.5255
  794MOL0     H 7130   9.149  10.658   8.014  0.9799  3.7550 -2.4590
  794MOL0     H 7131   8.950  10.609   8.140  1.6829 -0.1799 -1.5133
  794MOL0     H 7132   8.962  10.752   8.243  0.3877 -4.0650  2.5886
  794MOL0     H 7133   8.932  10.889   8.037 -2.3256  1.0055  1.5343
  794MOL0     H 7134   8.909  10.744   7.939  2.7460  2.9972 -1.0174
  794MOL0     H 7135   8.728  10.679   8.095  1.6764 -0.1619  0.0456
  794MOL0     H 7136   8.759  10.829   8.190 -2.8380  0.1798  0.5536
  794MOL0     H 7137   8.562  10.851   8.073  0.9164  0.9196  0.9359
  794MOL0     H 7138   8.673  10.966   7.999 -0.3472  1.0387  3.5093
  794MOL0     H 7139   8.623  10.679   7.894 -1.7128  0.2153  2.6313
  794MOL0     H 7140   8.705  10.817   7.810  1.2618 -1.9480 -0.0529
  794MOL0     H 7141   8.342  10.771   7.938  0.1875 -1.2938 -1.0521
  794MOL0     H 7142   8.112  10.803   7.839 -5.5158  1.4838 -1.0086
  794MOL0     H 7143   8.129  10.980   7.796 -0.1428  1.1995 -3.0458
  794MOL0     H 7144   8.118  10.776   7.588  0.2179  0.1675 -1.2041
  794MOL0     H 7145   8.107  10.959   7.594  0.8272 -0.0886  0.5718
  794MOL0     H 7146   7.910  10.943   7.745  0.9981 -0.4576  2.1620
  794MOL0     H 7147   7.901  10.769   7.736 -1.6570  1.8645  1.5262
  794MOL0     H 7148   7.741  10.816   7.589  2.7212 -2.7881  3.5420
  794MOL0     H 7149   7.875  10.831   7.468  0.5692  2.0972 -1.2703
  794MOL0     H 7150   7.619  11.152   7.658 -0.4021  2.4903 -1.4592
  794MOL0     H 7151   7.458  11.303   7.631  1.1823 -2.2138 -0.3005
  794MOL0     H 7152   7.293  11.290   7.573 -0.2769  0.1117  2.2246
  794MOL0     H 7153   7.338  11.192   7.708  2.2465  1.3469  2.1739
  794MOL0     H 7154   6.982  11.195   7.331 -0.8557  0.1616  0.0378
  794MOL0     H 7155   6.837  11.294   7.148 -0.0349  0.3101 -3.5449
  794MOL0     H 7156   6.921  11.252   6.741 -0.4567  0.6111 -0.4752
  794MOL0     H 7157   6.845  11.106   6.783  1.6508  1.2251  1.6437
  794MOL0     H 7158   6.711  11.370   6.742  0.8445 -0.6680  1.3565
  794MOL0     H 7159   6.743  11.242   6.616  1.5988  0.8652 -0.0766
  794MOL0     H 7160   6.567  11.214   6.857 -1.5712 -1.9489  0.4857
  794MOL0     H 7161   6.616  11.073   6.745  0.3949  0.3122 -3.8651
  794MOL0     H 7162   6.464  11.322   6.663  1.1819 -0.1018 -0.5645
  794MOL0     H 7163   6.503  11.192   6.549  1.7754 -1.5246  1.2993
  794MOL0     H 7164   6.330  11.141   6.791  0.9247  1.2341 -0.6513
  794MOL0     H 7165   6.345  11.039   6.656 -1.0345 -0.6413  0.8801
  794MOL0     H 7166   6.238  11.327   6.619 -3.7633  0.6028 -0.8534
  794MOL0     H 7167   6.261  11.205   6.494  1.8348  2.3860  0.1945
  794MOL0     H 7168   6.080  11.170   6.747  4.4763  3.4355  1.2217
  794MOL0     H 7169   6.098  11.063   6.607 -1.7803  0.0642 -0.6931
  794MOL0     H 7170   5.885  11.179   6.578  2.0196 -2.3701  1.3686
  794MOL0     H 7171   6.000  11.249   6.464 -0.5602 -2.1550 -0.2879
  794MOL0     H 7172   7.061  11.078   6.856 -0.1952 -1.2309 -0.4947
  794MOL0     H 7173   7.220  11.013   7.013 -0.2971 -0.8248  0.3935
  794MOL0     H 7174   7.457  10.934   7.247 -4.1686  0.3105  1.0077
  794MOL0     H 7175   7.688  10.908   7.323 -0.2903 -0.6942  2.0836
  794MOL0     H 7176   9.449  10.341   8.231  1.8197  0.2285 -1.3771
  794MOL0     H 7177   9.680  10.387   8.241  2.6153 -0.5788  1.8827
  794MOL0     H 7178  10.097  10.300   8.409  1.7215 -0.1309 -1.0990
  794MOL0     H 7179  10.333  10.349   8.482 -0.1690 -0.5472 -1.0623
  794MOL0     H 7180  10.518  10.478   8.691  2.3003 -2.7496 -0.8759
  794MOL0     H 7181  10.557  10.444   8.528 -0.4523  1.3840 -1.8836
  794MOL0     H 7182  10.734  10.573   8.668  0.5831 -3.2635 -0.5623
  794MOL0     H 7183  10.621  10.707   8.648  0.0639 -0.4321  0.0012
  794MOL0     H 7184  10.729  10.762   8.452 -0.8576  0.9044  0.7013
  794MOL0     H 7185  10.672  10.605   8.376  1.1215  1.2040 -1.4004
  794MOL0     H 7186  10.877  10.497   8.463 -1.0435  0.2440  2.1534
  794MOL0     H 7187  10.934  10.650   8.532 -1.4479 -0.2953  1.8609
  794MOL0     H 7188  11.035  10.715   8.123  1.1119  1.4594  0.6014
  794MOL0     H 7189  10.231  10.771   8.516 -2.4486 -0.2905  3.5570
  794MOL0     H 7190   9.992  10.707   8.443 -0.9564 -0.3081  2.5769
  795MOL0     O 7191   1.260   7.548   7.059  0.1407 -0.1617 -0.0733
  795MOL0     C 7192   1.284   7.522   7.177 -0.3837  0.5650  1.0780
  795MOL0     O 7193   1.287   7.616   7.272  0.0678 -0.2014 -0.2458
  795MOL0     C 7194   1.231   7.744   7.263 -0.0250  1.0653 -0.2423
  795MOL0     C 7195   1.104   7.775   7.304 -0.2371  0.0635  0.1417
  795MOL0     C 7196   1.059   7.904   7.313  0.4562 -0.2723  0.3273
  795MOL0     C 7197   1.136   8.008   7.255  0.1649  0.6835 -0.6662
  795MOL0     O 7198   1.077   8.130   7.260  0.5900  0.7935 -0.1393
  795MOL0     C 7199   1.143   8.239   7.199  0.1668  0.3012 -0.1956
  795MOL0     C 7200   1.040   8.354   7.179  0.4901  0.3648 -0.3646
  795MOL0     C 7201   0.914   8.292   7.115 -0.1131 -0.6122  0.1700
  795MOL0     C 7202   0.805   8.405   7.088  0.3171 -0.4974 -0.0258
  795MOL0     C 7203   0.759   8.485   7.208  0.6694  0.0035 -0.4906
  795MOL0     C 7204   0.817   8.627   7.200  0.3235 -0.2883 -0.8496
  795MOL0     C 7205   0.743   8.694   7.083  0.3402 -0.3417 -0.2255
  795MOL0     C 7206   0.748   8.847   7.080  0.4914 -0.6297  0.6593
  795MOL0     N 7207   0.869   8.911   7.018  0.0035  0.5374  0.1969
  795MOL0     C 7208   0.978   8.931   7.099 -1.3768 -0.3157  1.2193
  795MOL0     C 7209   1.060   9.018   7.021 -0.6732 -0.3509  0.0284
  795MOL0     C 7210   1.216   9.050   7.040  0.5383  0.3490  0.4810
  795MOL0     C 7211   1.278   8.974   6.925 -0.2557 -1.5379 -0.8824
  795MOL0     C 7212   1.430   8.960   6.952  0.1843 -0.6992  0.3918
  795MOL0     C 7213   1.524   8.980   6.830  0.1136  0.3629  0.1871
  795MOL0     O 7214   1.497   8.878   6.729  0.0012  0.0373 -0.4157
  795MOL0     C 7215   1.561   8.755   6.735 -0.4048  0.3969 -0.9427
  795MOL0     C 7216   1.548   8.682   6.623 -0.2508 -0.6178 -0.3157
  795MOL0     C 7217   1.607   8.557   6.596  0.2271  0.3211 -0.0171
  795MOL0     C 7218   1.597   8.497   6.455 -0.1002 -0.5109 -0.0023
  795MOL0     C 7219   1.676   8.483   6.696  0.0286 -0.6091  0.1097
  795MOL0     C 7220   1.747   8.350   6.686  0.4404  0.3975  0.9055
  795MOL0     O 7221   1.794   8.281   6.796 -0.6014  0.1323  0.3270
  795MOL0     C 7222   1.845   8.155   6.774 -0.4380  0.9230  0.2791
  795MOL0     C 7223   1.987   8.140   6.765  0.1135  0.6341  0.1571
  795MOL0     C 7224   2.041   8.012   6.773  0.6196 -1.2413 -0.2893
  795MOL0     C 7225   1.957   7.902   6.791 -0.3184  1.0325  0.5414
  795MOL0     O 7226   1.999   7.773   6.809  0.9301 -0.4901  0.5847
  795MOL0     C 7227   2.140   7.751   6.800 -0.2793 -0.9328  0.1378
  795MOL0     C 7228   2.165   7.598   6.796 -0.1687 -0.1968  0.4162
  795MOL0     C 7229   2.309   7.559   6.778 -0.2116 -0.6996  0.6416
  795MOL0     C 7230   2.330   7.403   6.780  0.4816  0.1276  0.1716
  795MOL0     C 7231   2.474   7.352   6.772  0.4537  0.2399 -0.3789
  795MOL0     C 7232   2.497   7.212   6.736  0.1026 -0.0553  0.0380
  795MOL0     C 7233   2.653   7.174   6.736 -0.7390 -0.0384 -0.2660
  795MOL0     C 7234   2.691   7.024   6.779  0.0856 -1.2436  0.1674
  795MOL0    Cl 7235   2.872   7.032   6.841 -0.1257  0.0303  0.2650
  795MOL0     C 7236   1.821   7.916   6.789  0.8973  0.1814  0.1493
  795MOL0     C 7237   1.762   8.043   6.775  0.0950  0.0349 -0.7314
  795MOL0     O 7238   1.762   8.302   6.569 -0.4571 -0.4028  0.5609
  795MOL0     C 7239   1.681   8.555   6.818  0.0145 -0.4384  1.6153
  795MOL0     C 7240   1.626   8.685   6.837  0.7919  0.2297 -0.0729
  795MOL0     N 7241   0.994   9.051   6.909  0.3618  0.3197  0.0162
  795MOL0     N 7242   0.871   8.993   6.913  0.3071 -0.2775 -0.4476
  795MOL0     C 7243   1.254   7.973   7.197 -0.3388  0.6267  0.4038
  795MOL0     C 7244   1.304   7.840   7.194 -0.6256 -0.1697 -0.3621
  795MOL0     C 7245   1.339   7.384   7.210 -0.2164  1.0996  0.1655
  795MOL0     C 7246   1.358   7.286   7.114  0.6374 -0.3917  0.6875
  795MOL0     C 7247   1.407   7.164   7.152  0.7275  0.5827  0.3832
  795MOL0     C 7248   1.438   7.129   7.291 -0.2647 -0.0039  0.2636
  795MOL0     O 7249   1.499   7.009   7.322 -0.6343 -0.7374  0.3600
  795MOL0     C 7250   1.561   6.927   7.223  0.7809  0.4077  0.9016
  795MOL0     C 7251   1.647   6.820   7.292 -0.5421 -0.7320 -0.3618
  795MOL0     C 7252   1.756   6.768   7.195 -0.0194  0.2211 -0.3235
  795MOL0     C 7253   1.826   6.637   7.234 -0.5170  0.6484 -0.6781
  795MOL0     C 7254   1.967   6.624   7.193 -0.0899 -0.2620 -0.2161
  795MOL0     C 7255   2.084   6.627   7.171  0.5536  0.0950 -0.0255
  795MOL0     C 7256   1.404   7.231   7.385 -0.0227  0.9105  0.0256
  795MOL0     C 7257   1.352   7.349   7.346 -0.8821 -0.5563 -0.1933
  795MOL0     H 7258   1.049   7.688   7.339  0.4360  0.0509  1.1987
  795MOL0     H 7259   0.976   7.926   7.379 -1.1596 -2.0841 -0.9905
  795MOL0     H 7260   1.231   8.258   7.260 -0.1857 -0.1610  0.4803
  795MOL0     H 7261   1.170   8.190   7.105  0.1624 -1.5593  0.7284
  795MOL0     H 7262   1.028   8.401   7.276 -0.0526 -0.4118 -0.0445
  795MOL0     H 7263   1.081   8.440   7.126 -1.6205  2.2430  0.8774
  795MOL0     H 7264   0.940   8.243   7.021  0.9221 -1.2839  0.7802
  795MOL0     H 7265   0.870   8.214   7.178  1.0083 -0.3378  1.3476
  795MOL0     H 7266   0.849   8.462   7.006 -2.7963  2.8623  0.3625
  795MOL0     H 7267   0.712   8.369   7.043 -0.6057 -0.4448  1.7570
  795MOL0     H 7268   0.650   8.494   7.215  0.4580 -2.6122  1.0227
  795MOL0     H 7269   0.800   8.436   7.297 -2.6018  0.8765  1.6996
  795MOL0     H 7270   0.807   8.690   7.289  0.8566 -1.7785  0.3244
  795MOL0     H 7271   0.924   8.617   7.180 -0.2271 -2.6683 -3.0614
  795MOL0     H 7272   0.784   8.658   6.988 -0.1832  0.6117 -0.8306
  795MOL0     H 7273   0.637   8.666   7.076  0.2707 -0.0985 -0.1512
  795MOL0     H 7274   0.734   8.890   7.180  3.5072  1.0250  0.5139
  795MOL0     H 7275   0.670   8.879   7.011  2.2942  1.1050 -0.6961
  795MOL0     H 7276   1.020   8.879   7.185  2.1801  1.6615  0.8860
  795MOL0     H 7277   1.222   9.158   7.026 -1.2112  0.6308  1.5181
  795MOL0     H 7278   1.250   9.021   7.140  2.5011  1.8708  0.2960
  795MOL0     H 7279   1.280   9.046   6.842  2.2955 -0.8418 -0.3025
  795MOL0     H 7280   1.229   8.880   6.899 -1.9883 -0.7214 -0.7085
  795MOL0     H 7281   1.458   8.865   6.997 -0.5719 -0.2020  1.9856
  795MOL0     H 7282   1.464   9.030   7.029  0.7961  0.7355 -1.1170
  795MOL0     H 7283   1.629   8.978   6.861  0.8056 -5.5071 -1.3213
  795MOL0     H 7284   1.501   9.073   6.777  0.5750 -0.3927 -1.3920
  795MOL0     H 7285   1.493   8.748   6.557  1.4332  4.6476  2.8486
  795MOL0     H 7286   1.694   8.497   6.404  1.8856  1.1776  3.4458
  795MOL0     H 7287   1.556   8.395   6.448 -0.8882 -0.1384 -1.0280
  795MOL0     H 7288   1.523   8.548   6.393 -0.7495 -1.6952 -0.2239
  795MOL0     H 7289   2.041   8.233   6.754  0.4845  0.3439 -0.5403
  795MOL0     H 7290   2.149   8.006   6.768  0.6720  0.1712 -1.5520
  795MOL0     H 7291   2.173   7.798   6.707 -1.9172  1.1266  0.5177
  795MOL0     H 7292   2.184   7.807   6.884  0.9918  1.4892 -2.0045
  795MOL0     H 7293   2.139   7.559   6.895 -2.9704  0.5947  0.0607
  795MOL0     H 7294   2.094   7.556   6.724 -0.3480  0.5395  0.1618
  795MOL0     H 7295   2.374   7.608   6.852 -0.2244  2.2455 -1.1072
  795MOL0     H 7296   2.342   7.594   6.679 -0.2492 -1.5650  0.3159
  795MOL0     H 7297   2.301   7.380   6.883  0.9343 -0.2976  0.2065
  795MOL0     H 7298   2.255   7.353   6.718 -0.9730  0.7838  1.3272
  795MOL0     H 7299   2.523   7.384   6.864 -0.3875 -2.9859  1.3461
  795MOL0     H 7300   2.522   7.392   6.682 -0.1500 -0.6982 -1.1440
  795MOL0     H 7301   2.441   7.149   6.805 -0.1292  0.6455  0.4996
  795MOL0     H 7302   2.449   7.182   6.642 -2.3175  0.6689  0.9605
  795MOL0     H 7303   2.702   7.236   6.812  0.2616 -2.6632  1.3253
  795MOL0     H 7304   2.697   7.192   6.637 -0.6136 -2.0147 -0.6084
  795MOL0     H 7305   2.695   6.957   6.693  2.4982 -0.9137 -0.0448
  795MOL0     H 7306   2.629   6.977   6.855  0.0481 -1.9991 -0.3259
  795MOL0     H 7307   1.772   7.820   6.804  1.0896  0.3391  2.0330
  795MOL0     H 7308   1.654   8.048   6.780  0.1740  1.5125  0.2239
  795MOL0     H 7309   1.729   8.512   6.905  0.0974  1.1763  2.4009
  795MOL0     H 7310   1.612   8.724   6.937  3.8537  0.4865  0.3572
  795MOL0     H 7311   1.315   8.059   7.171 -0.1016 -0.3107 -2.4708
  795MOL0     H 7312   1.408   7.822   7.170 -0.0626  1.6318  0.5361
  795MOL0     H 7313   1.340   7.308   7.009  0.2666  2.1846  1.2282
  795MOL0     H 7314   1.414   7.095   7.069  2.2979 -1.1813  1.8976
  795MOL0     H 7315   1.489   6.870   7.163  0.2746 -0.0618  1.9358
  795MOL0     H 7316   1.622   6.994   7.162  1.3205 -1.3428 -0.6075
  795MOL0     H 7317   1.580   6.746   7.336  0.3287 -0.1858  2.0698
  795MOL0     H 7318   1.694   6.870   7.378  1.0087 -1.8024 -0.5469
  795MOL0     H 7319   1.833   6.846   7.200 -0.2465  0.4078  0.3741
  795MOL0     H 7320   1.706   6.761   7.098 -1.4135  1.5698  0.2516
  795MOL0     H 7321   1.775   6.550   7.192 -1.9407  0.6780  0.8891
  795MOL0     H 7322   1.825   6.615   7.341 -0.7243 -2.7297 -1.2902
  795MOL0     H 7323   2.191   6.629   7.177  0.5486  0.7255 -0.0859
  795MOL0     H 7324   1.425   7.203   7.488 -0.4344 -2.3972 -0.6723
  795MOL0     H 7325   1.331   7.423   7.422  2.2103  2.9598 -2.3977
  796MOL0     O 7326   4.832   4.367   7.556 -0.0037 -0.3020 -1.2242
  796MOL0     C 7327   4.941   4.379   7.498 -0.1995  1.0711 -0.3615
  796MOL0     O 7328   4.962   4.443   7.380  0.5932  0.1606  0.9298
  796MOL0     C 7329   4.855   4.478   7.313 -0.8919 -0.7463  0.2002
  796MOL0     C 7330   4.834   4.429   7.182 -0.0460 -0.0538  0.5069
  796MOL0     C 7331   4.730   4.476   7.097  0.5304 -0.7075  0.2222
  796MOL0     C 7332   4.647   4.581   7.148  0.0889  0.8293 -0.0505
  796MOL0     O 7333   4.536   4.635   7.087 -0.0671 -0.7919  0.2998
  796MOL0     C 7334   4.520   4.623   6.954  0.6155 -0.0607  0.6149
  796MOL0     C 7335   4.412   4.513   6.913  0.6757 -0.5985 -0.4627
  796MOL0     C 7336   4.274   4.543   6.975  0.2365 -0.1808 -0.3525
  796MOL0     C 7337   4.156   4.469   6.911  1.2605 -0.3177 -0.1088
  796MOL0     C 7338   4.029   4.546   6.942  1.0028  0.0155  0.1349
  796MOL0     C 7339   3.903   4.453   6.927 -0.3556  0.0754  0.2455
  796MOL0     C 7340   3.888   4.376   6.791 -0.0097  0.3856  0.5794
  796MOL0     C 7341   3.794   4.251   6.803  0.2497 -0.2511  0.0248
  796MOL0     N 7342   3.655   4.287   6.838 -1.2515  0.0351 -0.0907
  796MOL0     C 7343   3.598   4.329   6.959 -0.4514  0.6375  0.0523
  796MOL0     C 7344   3.469   4.337   6.940 -0.5482  0.1440  0.4019
  796MOL0     C 7345   3.366   4.390   7.033 -0.3012 -0.9917 -0.0323
  796MOL0     C 7346   3.232   4.399   6.982  0.0264 -0.9333 -0.1858
  796MOL0     C 7347   3.172   4.262   6.941  0.4357 -0.1816  0.5064
  796MOL0     C 7348   3.032   4.288   6.902  0.6063  0.5813  0.5058
  796MOL0     O 7349   2.958   4.300   7.028  0.9557  0.2887  0.7142
  796MOL0     C 7350   2.827   4.319   7.003 -0.9935  1.5971  0.1890
  796MOL0     C 7351   2.741   4.235   7.061  0.3425  0.5976 -0.8559
  796MOL0     C 7352   2.598   4.252   7.043  0.0633 -0.3576  0.1252
  796MOL0     C 7353   2.510   4.163   7.117  0.2416  0.6233  0.4902
  796MOL0     C 7354   2.548   4.352   6.952 -0.8619  0.8201  1.0937
  796MOL0     C 7355   2.411   4.347   6.889  0.0573  0.4334 -0.4532
  796MOL0     O 7356   2.372   4.466   6.824  0.0834  0.7295 -0.2533
  796MOL0     C 7357   2.253   4.467   6.766  0.6706 -0.6085 -0.6530
  796MOL0     C 7358   2.245   4.444   6.629  1.0743 -0.9170  0.2786
  796MOL0     C 7359   2.122   4.459   6.565  0.5800 -0.1172 -0.4082
  796MOL0     C 7360   2.008   4.495   6.635  0.4731 -0.2348 -0.7834
  796MOL0     O 7361   1.886   4.535   6.573 -0.5615 -0.3865  0.2400
  796MOL0     C 7362   1.770   4.458   6.616 -0.2381  0.0282 -0.0913
  796MOL0     C 7363   1.646   4.544   6.590 -0.1876 -0.8051 -0.0699
  796MOL0     C 7364   1.591   4.559   6.450 -0.5508  0.6519  0.4006
  796MOL0     C 7365   1.449   4.632   6.465  0.0342 -0.6278  0.4291
  796MOL0     C 7366   1.387   4.631   6.325 -0.5504 -0.6689 -0.1018
  796MOL0     C 7367   1.300   4.517   6.276  0.0941  0.2449 -0.8730
  796MOL0     C 7368   1.228   4.544   6.146 -0.1506  1.1234  0.1496
  796MOL0     C 7369   1.175   4.410   6.087 -0.0336  0.8035  0.3344
  796MOL0    Cl 7370   1.320   4.304   6.048 -0.7705  0.0927 -0.3723
  796MOL0     C 7371   2.015   4.509   6.773 -0.1588 -0.5496 -0.4263
  796MOL0     C 7372   2.133   4.487   6.841 -0.8332 -0.7746  0.3462
  796MOL0     O 7373   2.340   4.243   6.897  0.0915 -0.3422  0.6561
  796MOL0     C 7374   2.641   4.452   6.912 -0.3634 -0.0825 -0.1679
  796MOL0     C 7375   2.779   4.427   6.928 -0.5794 -0.2667 -1.2231
  796MOL0     N 7376   3.442   4.313   6.803 -0.1838  0.0732  0.9988
  796MOL0     N 7377   3.558   4.290   6.752  0.0225 -0.5274  0.2216
  796MOL0     C 7378   4.676   4.628   7.279  1.2959 -0.0249 -0.4010
  796MOL0     C 7379   4.774   4.585   7.364  0.4482  0.1846  0.2305
  796MOL0     C 7380   5.067   4.319   7.559  1.0589  0.3171 -0.2133
  796MOL0     C 7381   5.087   4.280   7.688  1.5814  0.2258 -1.1194
  796MOL0     C 7382   5.209   4.236   7.748  0.2626  0.6424  0.4337
  796MOL0     C 7383   5.313   4.225   7.664 -0.8120 -0.1682 -0.7720
  796MOL0     O 7384   5.424   4.156   7.707 -0.1202  0.0303  0.2589
  796MOL0     C 7385   5.548   4.164   7.640  0.0009 -0.0379  0.5517
  796MOL0     C 7386   5.661   4.078   7.705 -1.0801 -0.8234  0.1442
  796MOL0     C 7387   5.788   4.089   7.613 -0.5535 -0.1402  0.0111
  796MOL0     C 7388   5.908   4.009   7.682  0.0053 -0.3024 -0.0324
  796MOL0     C 7389   6.024   4.023   7.604 -0.7612  0.3284  0.0981
  796MOL0     C 7390   6.133   4.004   7.561  0.1012  0.0415 -0.3828
  796MOL0     C 7391   5.299   4.268   7.530 -0.5561  0.9045 -0.9736
  796MOL0     C 7392   5.181   4.310   7.474  0.0891 -1.0991 -0.4772
  796MOL0     H 7393   4.882   4.339   7.144 -0.1359  1.0803 -2.5385
  796MOL0     H 7394   4.695   4.444   7.000 -0.1554 -1.6910  0.7695
  796MOL0     H 7395   4.491   4.722   6.918  1.1527 -0.4468 -0.9938
  796MOL0     H 7396   4.614   4.592   6.907  0.2422  0.2436 -0.3671
  796MOL0     H 7397   4.397   4.509   6.804  0.3501 -1.3735 -0.3923
  796MOL0     H 7398   4.442   4.412   6.941  0.4492 -1.3687 -2.7296
  796MOL0     H 7399   4.282   4.501   7.075  0.9680 -2.6293 -1.3605
  796MOL0     H 7400   4.255   4.651   6.981  2.4571  0.1661  2.7527
  796MOL0     H 7401   4.169   4.453   6.804  0.4361  2.3523 -0.6741
  796MOL0     H 7402   4.161   4.376   6.969 -2.3814 -1.5289 -1.4147
  796MOL0     H 7403   4.020   4.584   7.044 -4.2611  1.8992 -0.7135
  796MOL0     H 7404   4.009   4.637   6.885 -1.2125 -0.2402  0.4146
  796MOL0     H 7405   3.902   4.386   7.013  0.6460  0.3540  0.4847
  796MOL0     H 7406   3.806   4.504   6.934  0.2295  1.0316  2.0333
  796MOL0     H 7407   3.850   4.441   6.712 -0.2936  1.2199  1.3839
  796MOL0     H 7408   3.989   4.337   6.772  0.6893  1.7228  1.3804
  796MOL0     H 7409   3.838   4.185   6.878 -0.5739 -0.8307  0.0121
  796MOL0     H 7410   3.805   4.187   6.715 -1.3866 -0.8240  0.2023
  796MOL0     H 7411   3.653   4.342   7.052  0.8061 -1.0700 -0.3924
  796MOL0     H 7412   3.361   4.327   7.123 -0.1922 -0.9250  0.0213
  796MOL0     H 7413   3.408   4.488   7.057  2.4313 -1.9802 -0.5258
  796MOL0     H 7414   3.241   4.465   6.895  2.4483 -1.2704 -0.2531
  796MOL0     H 7415   3.177   4.451   7.061  0.1932 -1.0134 -0.0171
  796MOL0     H 7416   3.189   4.194   7.024 -1.7109  1.3555  2.3480
  796MOL0     H 7417   3.228   4.214   6.860  1.6347 -0.4840  1.4987
  796MOL0     H 7418   2.985   4.211   6.841 -0.0434  2.3312 -1.3136
  796MOL0     H 7419   3.024   4.376   6.837 -0.6481  0.9331  1.1013
  796MOL0     H 7420   2.767   4.171   7.145 -2.8358 -0.2058 -0.3678
  796MOL0     H 7421   2.547   4.132   7.216  2.6318 -1.0173 -0.8219
  796MOL0     H 7422   2.407   4.197   7.124  0.5041  1.2359  1.8068
  796MOL0     H 7423   2.505   4.077   7.050 -0.0656  2.0696 -1.4306
  796MOL0     H 7424   2.335   4.425   6.572  1.4405  3.0938 -0.7360
  796MOL0     H 7425   2.114   4.465   6.456 -1.7799 -2.4988 -0.4526
  796MOL0     H 7426   1.774   4.367   6.555 -1.7247  0.9021 -1.5886
  796MOL0     H 7427   1.771   4.426   6.720 -0.5500  4.0504  1.3505
  796MOL0     H 7428   1.574   4.486   6.649 -0.2379  0.2208  0.9041
  796MOL0     H 7429   1.668   4.640   6.638  1.8437 -1.0514 -0.4030
  796MOL0     H 7430   1.592   4.464   6.396 -1.2858  1.0107 -0.2600
  796MOL0     H 7431   1.663   4.611   6.387  2.3703 -2.3110  1.0054
  796MOL0     H 7432   1.381   4.576   6.530 -1.0287  0.2232  0.0917
  796MOL0     H 7433   1.471   4.735   6.492  1.8598 -1.1750  1.2045
  796MOL0     H 7434   1.471   4.659   6.261  1.0637 -0.7331  1.8926
  796MOL0     H 7435   1.318   4.716   6.322 -0.7863 -0.8689 -0.4687
  796MOL0     H 7436   1.368   4.431   6.271 -2.7695 -2.2108 -0.5545
  796MOL0     H 7437   1.220   4.494   6.347  0.6627 -1.0921 -0.6372
  796MOL0     H 7438   1.292   4.596   6.075 -0.5410 -1.8374 -2.6490
  796MOL0     H 7439   1.135   4.599   6.162 -1.6628 -1.1469 -0.2411
  796MOL0     H 7440   1.120   4.442   5.997 -1.8528 -2.6855  0.0628
  796MOL0     H 7441   1.115   4.353   6.158  2.0248 -1.6708  0.2058
  796MOL0     H 7442   1.922   4.528   6.825 -1.4663 -1.4493 -2.3280
  796MOL0     H 7443   2.120   4.492   6.948 -0.7471 -3.7144  0.5897
  796MOL0     H 7444   2.615   4.544   6.861  0.9634 -0.1800 -1.0603
  796MOL0     H 7445   2.837   4.509   6.888 -1.5731  2.1485  1.8781
  796MOL0     H 7446   4.632   4.717   7.322  2.2328 -0.9147  2.7020
  796MOL0     H 7447   4.789   4.634   7.460  0.6951 -1.6229  1.1621
  796MOL0     H 7448   5.014   4.304   7.765 -1.8568 -3.3901 -2.9144
  796MOL0     H 7449   5.208   4.188   7.845 -2.7510 -1.0449 -0.2813
  796MOL0     H 7450   5.526   4.147   7.534  2.1719 -1.0619  0.1934
  796MOL0     H 7451   5.586   4.267   7.644  1.0311 -0.3288 -0.8566
  796MOL0     H 7452   5.644   3.971   7.687 -0.4343 -0.4297 -3.4059
  796MOL0     H 7453   5.681   4.124   7.802  2.9097  4.0724 -2.5501
  796MOL0     H 7454   5.813   4.196   7.605 -1.2598 -0.1129 -3.1296
  796MOL0     H 7455   5.768   4.051   7.513 -0.1723  1.3220 -0.6498
  796MOL0     H 7456   5.877   3.907   7.705  0.4325 -0.8850 -1.9025
  796MOL0     H 7457   5.925   4.053   7.781  0.5625 -1.7088  0.5233
  796MOL0     H 7458   6.225   3.979   7.512  0.4669 -1.1561  0.8483
  796MOL0     H 7459   5.375   4.258   7.453 -1.7750  3.4919 -2.6607
  796MOL0     H 7460   5.176   4.337   7.369  0.5928  3.1269  0.4039
  797MOL0     O 7461   2.772  11.358   7.731 -0.2142 -0.6756 -0.0803
  797MOL0     C 7462   2.738  11.427   7.829  0.3361 -0.1493  0.4536
  797MOL0     O 7463   2.702  11.382   7.954 -0.4159 -0.5338 -0.0826
  797MOL0     C 7464   2.676  11.247   7.973  0.3125 -0.2012  0.2892
  797MOL0     C 7465   2.608  11.157   7.888  0.0893  0.5207 -0.1357
  797MOL0     C 7466   2.579  11.026   7.930  0.6144 -1.1982 -0.8185
  797MOL0     C 7467   2.616  10.981   8.058  0.7749 -0.5090 -0.0599
  797MOL0     O 7468   2.591  10.854   8.102 -0.5448  0.2911 -0.1017
  797MOL0     C 7469   2.476  10.792   8.059 -0.3322  0.5914  0.3015
  797MOL0     C 7470   2.470  10.659   8.131  0.4670  0.4429 -0.1553
  797MOL0     C 7471   2.450  10.672   8.281  0.4244 -0.4631 -0.1171
  797MOL0     C 7472   2.313  10.725   8.327 -0.1927 -0.6354 -0.5570
  797MOL0     C 7473   2.317  10.731   8.480  0.3580  0.6746 -1.2838
  797MOL0     C 7474   2.186  10.813   8.514 -1.1365  0.7973 -0.3347
  797MOL0     C 7475   2.168  10.847   8.663  0.0666  0.8479 -0.6208
  797MOL0     C 7476   2.176  10.718   8.763  0.3308 -0.0519 -0.0433
  797MOL0     N 7477   2.078  10.624   8.719  0.1739  0.5976  0.4916
  797MOL0     C 7478   1.944  10.649   8.721  0.5081  0.0327 -0.3139
  797MOL0     C 7479   1.890  10.523   8.683  0.0945 -0.3044 -0.0655
  797MOL0     C 7480   1.748  10.488   8.644  0.1613  0.2876  0.5090
  797MOL0     C 7481   1.635  10.559   8.730  0.1694 -0.2997  0.9707
  797MOL0     C 7482   1.644  10.543   8.886 -0.9372 -0.4943  0.0174
  797MOL0     C 7483   1.623  10.402   8.919  0.2423 -0.3072 -0.2573
  797MOL0     O 7484   1.563  10.404   9.052  0.1509  0.0227  0.1774
  797MOL0     C 7485   1.425  10.425   9.062  0.1412  0.9229 -0.7830
  797MOL0     C 7486   1.331  10.445   8.961 -0.9699 -0.1008 -0.8963
  797MOL0     C 7487   1.196  10.442   8.986  0.0956 -0.2516  0.6906
  797MOL0     C 7488   1.109  10.460   8.862 -0.6981 -0.0549 -0.1908
  797MOL0     C 7489   1.145  10.425   9.122  0.4132  0.1001 -0.4230
  797MOL0     C 7490   1.000  10.425   9.163  0.0918 -0.6837 -0.2233
  797MOL0     O 7491   0.976  10.371   9.293  0.2868  0.1506 -0.1656
  797MOL0     C 7492   0.848  10.340   9.344 -0.2471  0.1253  0.2623
  797MOL0     C 7493   0.837  10.315   9.491 -0.5421 -0.2864 -0.3835
  797MOL0     C 7494   0.714  10.286   9.559  0.6423  0.1468 -0.0514
  797MOL0     C 7495   0.601  10.282   9.474 -0.0778 -0.7664  0.6391
  797MOL0     O 7496   0.470  10.253   9.505  0.1041  0.1662  0.4758
  797MOL0     C 7497   0.451  10.196   9.629  0.4911  0.8334  0.1660
  797MOL0     C 7498   0.296  10.188   9.647 -0.2918 -0.5474 -0.1216
  797MOL0     C 7499   0.208  10.171   9.524  0.0303  0.2781  0.0471
  797MOL0     C 7500   0.076  10.104   9.567  1.4699 -0.6163 -0.3012
  797MOL0     C 7501  -0.013  10.050   9.452  0.3966 -0.2924  0.0552
  797MOL0     C 7502  -0.132   9.963   9.511 -1.1913 -0.9817 -0.2491
  797MOL0     C 7503  -0.221   9.917   9.399 -0.5525  0.5715  0.1498
  797MOL0     C 7504  -0.352   9.852   9.438 -0.3177 -0.3178  0.2836
  797MOL0    Cl 7505  -0.482   9.962   9.504 -0.5447  0.2934  0.2216
  797MOL0     C 7506   0.609  10.319   9.339  0.2895  0.0309  0.8083
  797MOL0     C 7507   0.727  10.354   9.275  0.1710  0.8318 -0.1023
  797MOL0     O 7508   0.918  10.454   9.080  0.0341  0.5005 -0.9279
  797MOL0     C 7509   1.238  10.405   9.223 -0.8217  0.4575  0.3852
  797MOL0     C 7510   1.373  10.398   9.189  0.2435 -0.5329  0.5640
  797MOL0     N 7511   2.000  10.448   8.652 -0.4475 -0.4326  1.7203
  797MOL0     N 7512   2.113  10.499   8.684  0.4764 -0.0900 -0.4074
  797MOL0     C 7513   2.672  11.077   8.146  0.4265 -0.4459  0.5523
  797MOL0     C 7514   2.707  11.203   8.099  0.6096 -0.2616  0.0044
  797MOL0     C 7515   2.717  11.571   7.807 -0.1746 -0.2440  0.3005
  797MOL0     C 7516   2.629  11.638   7.889  0.4809  0.6981 -0.8717
  797MOL0     C 7517   2.604  11.782   7.882 -0.1257  0.2255 -0.6961
  797MOL0     C 7518   2.671  11.857   7.789 -0.2174 -0.0222  0.6691
  797MOL0     O 7519   2.639  11.991   7.777 -0.7667 -0.7264 -0.6942
  797MOL0     C 7520   2.721  12.092   7.829 -0.3338 -0.1195  0.1679
  797MOL0     C 7521   2.648  12.156   7.947  1.3408  0.3046  1.2487
  797MOL0     C 7522   2.511  12.213   7.902 -0.2271  0.2088 -0.7760
  797MOL0     C 7523   2.441  12.283   8.025 -0.3905  0.7429 -0.7199
  797MOL0     C 7524   2.317  12.341   7.983  0.2318 -0.1317  0.4701
  797MOL0     C 7525   2.208  12.374   7.933  0.7924  0.9710 -0.4052
  797MOL0     C 7526   2.766  11.789   7.708  0.0827 -0.1910  0.6155
  797MOL0     C 7527   2.786  11.654   7.715 -0.4760  0.4168 -0.1480
  797MOL0     H 7528   2.594  11.181   7.783 -0.5039  2.3090  0.3240
  797MOL0     H 7529   2.539  10.951   7.863 -0.9973 -2.0426  0.9811
  797MOL0     H 7530   2.388  10.853   8.081 -0.7478  0.6219 -1.3054
  797MOL0     H 7531   2.472  10.775   7.951 -2.9449  1.1829  0.2584
  797MOL0     H 7532   2.387  10.599   8.093  0.1090  0.3800  0.7020
  797MOL0     H 7533   2.556  10.594   8.114  0.6879 -0.0897  2.6031
  797MOL0     H 7534   2.465  10.571   8.319 -0.8896 -1.9489 -3.1832
  797MOL0     H 7535   2.533  10.725   8.328 -0.3018 -0.2722  0.9768
  797MOL0     H 7536   2.302  10.827   8.291 -1.9375 -0.1874  1.1294
  797MOL0     H 7537   2.222  10.678   8.288 -0.6320  0.3445 -0.7318
  797MOL0     H 7538   2.318  10.631   8.525  2.0517  1.2783  0.1368
  797MOL0     H 7539   2.410  10.773   8.519  0.4643 -1.3420  0.8535
  797MOL0     H 7540   2.181  10.904   8.452 -0.0476 -0.0733 -1.7569
  797MOL0     H 7541   2.103  10.750   8.481 -1.3027  0.4653  0.6768
  797MOL0     H 7542   2.242  10.923   8.689 -2.1582  2.8423  0.3166
  797MOL0     H 7543   2.074  10.903   8.668  0.4284  1.7249 -2.6376
  797MOL0     H 7544   2.153  10.756   8.863  4.8153  1.5055  0.5868
  797MOL0     H 7545   2.274  10.670   8.752  1.0112  1.6317 -1.7072
  797MOL0     H 7546   1.892  10.740   8.750 -0.4418 -0.0075 -1.7842
  797MOL0     H 7547   1.730  10.508   8.539 -0.9945  0.7137  0.7736
  797MOL0     H 7548   1.732  10.380   8.649  0.1405  0.2630 -0.0936
  797MOL0     H 7549   1.540  10.525   8.689 -0.0691  1.4870 -0.0826
  797MOL0     H 7550   1.623  10.668   8.723  1.2914 -0.0320  2.5464
  797MOL0     H 7551   1.571  10.608   8.935  0.2464  1.8819 -1.2254
  797MOL0     H 7552   1.744  10.571   8.919 -0.7970 -0.3196 -0.5438
  797MOL0     H 7553   1.722  10.355   8.926  1.1478  1.2604 -1.7423
  797MOL0     H 7554   1.560  10.347   8.849 -2.6199 -2.0609  3.3484
  797MOL0     H 7555   1.365  10.468   8.861 -0.4440  1.2734 -0.4254
  797MOL0     H 7556   1.164  10.511   8.783 -1.5463 -0.3185 -0.9731
  797MOL0     H 7557   1.090  10.361   8.818 -0.1163  0.1792 -0.9968
  797MOL0     H 7558   1.022  10.526   8.873 -0.5954 -0.3280  3.4658
  797MOL0     H 7559   0.930  10.319   9.548 -0.7689  2.1814 -0.0542
  797MOL0     H 7560   0.702  10.274   9.666  1.1549  2.1167  0.2616
  797MOL0     H 7561   0.492  10.094   9.625 -1.0670  0.2142 -0.9721
  797MOL0     H 7562   0.496  10.254   9.710  0.3068  3.8990 -1.7595
  797MOL0     H 7563   0.267  10.106   9.713 -3.9610 -2.5122 -3.7338
  797MOL0     H 7564   0.275  10.285   9.694 -1.5391 -0.5603 -0.6130
  797MOL0     H 7565   0.264  10.101   9.461  0.3656  1.1122 -0.6013
  797MOL0     H 7566   0.187  10.265   9.473 -0.5448  0.4469  0.5888
  797MOL0     H 7567   0.090  10.013   9.626  2.2549 -1.1137 -1.2215
  797MOL0     H 7568   0.012  10.170   9.626 -2.2771 -2.8871 -1.4483
  797MOL0     H 7569   0.046   9.980   9.392 -3.4276  0.1506 -4.8528
  797MOL0     H 7570  -0.052  10.132   9.391  0.4115  1.2944  2.0769
  797MOL0     H 7571  -0.111   9.892   9.591 -1.2048  1.2338  1.8569
  797MOL0     H 7572  -0.201  10.036   9.555 -0.6441 -1.5862  1.7265
  797MOL0     H 7573  -0.166   9.831   9.358 -0.2307 -0.0924  1.8802
  797MOL0     H 7574  -0.236   9.999   9.329 -1.5102  0.1634 -0.1416
  797MOL0     H 7575  -0.329   9.769   9.505  1.1599 -1.3301 -1.3990
  797MOL0     H 7576  -0.398   9.801   9.353  1.7386  1.1143 -1.8123
  797MOL0     H 7577   0.526  10.315   9.269  0.0516  2.8852  0.8304
  797MOL0     H 7578   0.713  10.375   9.169  0.7874 -1.4247 -0.6657
  797MOL0     H 7579   1.211  10.378   9.324  1.4111 -1.5073  0.5343
  797MOL0     H 7580   1.446  10.355   9.257 -1.9817 -1.6677  2.3763
  797MOL0     H 7581   2.674  11.051   8.251 -1.8743  1.5379  1.1857
  797MOL0     H 7582   2.744  11.283   8.162 -2.5447  0.6134  0.9477
  797MOL0     H 7583   2.568  11.590   7.965  1.4871  1.4112  0.4212
  797MOL0     H 7584   2.538  11.839   7.947  1.8020 -1.1680  2.7554
  797MOL0     H 7585   2.816  12.050   7.863  0.0148  0.9904  0.5939
  797MOL0     H 7586   2.728  12.163   7.746 -1.0029 -3.2034 -2.7442
  797MOL0     H 7587   2.717  12.229   7.990  2.6920 -0.4996  0.5312
  797MOL0     H 7588   2.627  12.083   8.025 -1.1173 -0.0413  0.3725
  797MOL0     H 7589   2.449  12.133   7.859  0.5999 -0.1127 -1.4000
  797MOL0     H 7590   2.541  12.278   7.819  1.4944 -1.0219 -1.1783
  797MOL0     H 7591   2.496  12.369   8.065 -0.3392 -0.6091  2.4470
  797MOL0     H 7592   2.420  12.215   8.108 -0.7794  0.3434 -1.1402
  797MOL0     H 7593   2.109  12.392   7.895  0.1353 -0.0939  0.7125
  797MOL0     H 7594   2.832  11.843   7.640  1.3814  1.1704  2.8065
  797MOL0     H 7595   2.847  11.592   7.649  0.2742  1.7112 -0.7137
  798MOL0     O 7596  10.921  10.712   0.020  0.4346 -0.0538 -0.4267
  798MOL0     C 7597  10.976  10.776  -0.066  0.1468 -0.1613  0.7792
  798MOL0     O 7598  10.918  10.816  -0.180  0.2972 -0.2703 -0.3500
  798MOL0     C 7599  10.791  10.764  -0.218 -0.7468 -0.1069  0.2930
  798MOL0     C 7600  10.702  10.855  -0.277 -0.7678  0.0235 -0.1534
  798MOL0     C 7601  10.585  10.795  -0.323 -0.5099  0.0097  0.3148
  798MOL0     C 7602  10.555  10.655  -0.311  0.7147 -0.0033  1.1555
  798MOL0     O 7603  10.433  10.616  -0.358  0.6520 -0.4288 -0.0385
  798MOL0     C 7604  10.384  10.684  -0.483  0.0523  0.7280 -0.6273
  798MOL0     C 7605  10.264  10.600  -0.511 -0.2076  0.2970 -0.1758
  798MOL0     C 7606  10.153  10.601  -0.410  0.0288 -0.6375 -0.0162
  798MOL0     C 7607  10.034  10.512  -0.452  0.1678  0.0792 -0.1134
  798MOL0     C 7608   9.908  10.554  -0.374 -0.2880  0.8121  0.9708
  798MOL0     C 7609   9.793  10.455  -0.409  0.1151 -0.1407  0.6045
  798MOL0     C 7610   9.656  10.499  -0.377  0.1166 -1.0537  0.3879
  798MOL0     C 7611   9.615  10.620  -0.466  0.1295  0.3706  1.0251
  798MOL0     N 7612   9.475  10.623  -0.491 -0.2918 -0.0365 -0.4886
  798MOL0     C 7613   9.413  10.544  -0.582  0.6935  0.3233 -0.1929
  798MOL0     C 7614   9.285  10.592  -0.592 -0.1533  0.2929 -0.0248
  798MOL0     C 7615   9.171  10.529  -0.661 -0.2713 -1.0580 -0.7729
  798MOL0     C 7616   9.063  10.629  -0.707  0.4838 -0.2745 -0.1283
  798MOL0     C 7617   8.921  10.565  -0.740 -0.4969  0.9525  0.2811
  798MOL0     C 7618   8.848  10.546  -0.604  0.7238  0.0420 -0.3159
  798MOL0     O 7619   8.721  10.485  -0.593 -0.1067  0.0028  0.2871
  798MOL0     C 7620   8.608  10.559  -0.604 -0.2675  0.8167  0.4193
  798MOL0     C 7621   8.494  10.491  -0.580 -0.2064 -0.5501  0.5244
  798MOL0     C 7622   8.367  10.547  -0.596  0.3699  0.4467  0.4422
  798MOL0     C 7623   8.234  10.469  -0.569  0.0644  1.0349  0.4666
  798MOL0     C 7624   8.359  10.687  -0.636  0.0670  0.4768  0.3142
  798MOL0     C 7625   8.235  10.759  -0.662 -0.0977  0.5506 -0.8091
  798MOL0     O 7626   8.243  10.877  -0.733  0.6459 -0.8705  0.2467
  798MOL0     C 7627   8.132  10.949  -0.766  0.4592  0.1451 -0.2914
  798MOL0     C 7628   8.136  11.090  -0.746  0.3425 -0.7531  0.6363
  798MOL0     C 7629   8.045  11.175  -0.812 -0.6874  0.0825 -0.5482
  798MOL0     C 7630   7.934  11.120  -0.886 -0.4574  0.8120  0.6719
  798MOL0     O 7631   7.824  11.191  -0.919  0.0281  0.0039  0.2851
  798MOL0     C 7632   7.735  11.190  -0.803  0.0410 -0.6075 -0.1896
  798MOL0     C 7633   7.640  11.318  -0.813 -0.1150 -0.8555 -0.1060
  798MOL0     C 7634   7.717  11.451  -0.833 -0.3615 -0.2330  0.1484
  798MOL0     C 7635   7.805  11.494  -0.712 -0.4848 -0.2543  0.1290
  798MOL0     C 7636   7.909  11.592  -0.760  0.0945 -0.6531  0.1704
  798MOL0     C 7637   7.856  11.734  -0.799  0.5217  0.1419  0.2834
  798MOL0     C 7638   7.797  11.813  -0.680  0.2492  0.1905 -0.1994
  798MOL0     C 7639   7.779  11.954  -0.704  0.0685 -0.6134  0.1270
  798MOL0    Cl 7640   7.632  11.988  -0.805 -0.1793 -0.3012 -0.2534
  798MOL0     C 7641   7.926  10.986  -0.899 -0.2299 -0.5460  0.4539
  798MOL0     C 7642   8.024  10.905  -0.841  0.0875  0.6194 -0.2740
  798MOL0     O 7643   8.127  10.704  -0.636  0.0620 -0.8026 -0.7808
  798MOL0     C 7644   8.476  10.756  -0.663  0.3000  0.3958  0.3660
  798MOL0     C 7645   8.601  10.698  -0.652 -0.2699 -0.0914  0.2129
  798MOL0     N 7646   9.275  10.690  -0.493 -0.1063  0.4779 -0.1542
  798MOL0     N 7647   9.388  10.716  -0.439 -0.9625  0.0608 -0.0063
  798MOL0     C 7648  10.639  10.571  -0.246 -0.5173 -0.9792  0.3293
  798MOL0     C 7649  10.758  10.626  -0.206 -0.8757  0.7314  0.5440
  798MOL0     C 7650  11.119  10.798  -0.058 -0.0836 -0.1960  0.0279
  798MOL0     C 7651  11.187  10.860  -0.160 -0.2193  0.5968 -0.9950
  798MOL0     C 7652  11.326  10.862  -0.158 -0.4604  0.3071  0.2712
  798MOL0     C 7653  11.409  10.820  -0.053 -0.8439  0.1100 -0.1193
  798MOL0     O 7654  11.541  10.824  -0.072 -1.3895 -0.1119 -0.3615
  798MOL0     C 7655  11.629  10.762   0.033  0.2537 -0.0360 -0.3932
  798MOL0     C 7656  11.642  10.843   0.167 -0.4215  0.4284 -0.3549
  798MOL0     C 7657  11.699  10.776   0.287  0.0986  0.4749 -0.3848
  798MOL0     C 7658  11.843  10.751   0.267  1.0564  0.9009 -1.0168
  798MOL0     C 7659  11.877  10.640   0.173  0.1944 -0.3331  0.1440
  798MOL0     C 7660  11.912  10.556   0.097 -0.5512  0.5272 -0.4308
  798MOL0     C 7661  11.332  10.768   0.055 -0.3072  0.0097 -0.1379
  798MOL0     C 7662  11.191  10.761   0.059 -0.3885 -0.3902 -0.5544
  798MOL0     H 7663  10.722  10.959  -0.300 -1.6763 -0.1293 -1.8208
  798MOL0     H 7664  10.520  10.866  -0.373  1.6331  1.3532 -0.7255
  798MOL0     H 7665  10.341  10.784  -0.470 -1.1723  0.0094  1.3857
  798MOL0     H 7666  10.457  10.694  -0.563  0.2764 -2.0538 -0.8701
  798MOL0     H 7667  10.224  10.627  -0.609  1.8237  0.0770 -1.1330
  798MOL0     H 7668  10.299  10.496  -0.523 -1.9047 -0.1693 -1.5260
  798MOL0     H 7669  10.196  10.558  -0.319  1.9966  1.4705  0.1139
  798MOL0     H 7670  10.113  10.702  -0.399 -2.8691 -1.1028 -4.0264
  798MOL0     H 7671  10.016  10.524  -0.559  1.7522 -3.1773 -0.8739
  798MOL0     H 7672  10.056  10.408  -0.429 -1.3297  0.1276  1.7357
  798MOL0     H 7673   9.941  10.536  -0.272 -1.7881 -1.3975  1.1415
  798MOL0     H 7674   9.878  10.659  -0.386  2.7945  1.5522 -1.8596
  798MOL0     H 7675   9.800  10.433  -0.516  0.9258 -0.9816  0.8157
  798MOL0     H 7676   9.803  10.355  -0.364 -2.4704 -0.8221 -0.1576
  798MOL0     H 7677   9.584  10.418  -0.391  1.4501 -2.0683 -0.8999
  798MOL0     H 7678   9.658  10.535  -0.274 -1.7295  0.5488 -0.0717
  798MOL0     H 7679   9.668  10.622  -0.562 -0.2333 -0.2847  0.7957
  798MOL0     H 7680   9.634  10.716  -0.418  1.5029  2.1055 -2.5677
  798MOL0     H 7681   9.448  10.450  -0.622  1.9198 -0.5307  2.6439
  798MOL0     H 7682   9.205  10.483  -0.754 -3.4836 -0.3676 -2.4003
  798MOL0     H 7683   9.134  10.445  -0.601  1.4290 -1.0989  0.3101
  798MOL0     H 7684   9.097  10.671  -0.802  0.7064 -0.2740 -0.0490
  798MOL0     H 7685   9.065  10.715  -0.639 -0.1642  0.2780 -0.7922
  798MOL0     H 7686   8.942  10.474  -0.797 -0.8669  0.3928  1.0185
  798MOL0     H 7687   8.866  10.644  -0.792 -3.1274  0.0127  1.4772
  798MOL0     H 7688   8.829  10.643  -0.558 -0.4436 -1.4435  2.5732
  798MOL0     H 7689   8.900  10.483  -0.531  2.3676  1.0440 -0.5744
  798MOL0     H 7690   8.501  10.383  -0.577  1.4897 -0.4540  0.8600
  798MOL0     H 7691   8.180  10.519  -0.487  1.0779  1.2476  1.0268
  798MOL0     H 7692   8.169  10.472  -0.657 -1.0811  0.2100  1.2595
  798MOL0     H 7693   8.258  10.365  -0.545 -1.0635  0.5043 -0.6180
  798MOL0     H 7694   8.223  11.122  -0.690 -0.6739  0.5052  1.5441
  798MOL0     H 7695   8.043  11.283  -0.803 -1.6931  0.0348 -0.1115
  798MOL0     H 7696   7.667  11.104  -0.814  2.8740 -2.8753 -1.1416
  798MOL0     H 7697   7.786  11.191  -0.706 -1.4351  2.3048  0.6776
  798MOL0     H 7698   7.572  11.306  -0.899 -0.6356 -0.3834  0.2311
  798MOL0     H 7699   7.588  11.325  -0.717  2.8331 -1.6889  1.6649
  798MOL0     H 7700   7.639  11.525  -0.856 -1.9603 -1.5182  1.1934
  798MOL0     H 7701   7.773  11.443  -0.926 -2.6281 -0.3620 -1.3021
  798MOL0     H 7702   7.737  11.545  -0.643  0.9225  1.8739  0.0560
  798MOL0     H 7703   7.836  11.412  -0.646 -0.3946  0.7503  1.3827
  798MOL0     H 7704   7.967  11.557  -0.845  1.3950  1.2848  0.1834
  798MOL0     H 7705   7.984  11.605  -0.681  0.2848 -3.4571  0.5420
  798MOL0     H 7706   7.947  11.782  -0.836  0.6030 -0.0662  0.2114
  798MOL0     H 7707   7.784  11.720  -0.880 -0.3978 -2.5005  1.4212
  798MOL0     H 7708   7.875  11.801  -0.604  0.9152 -0.7316 -1.0015
  798MOL0     H 7709   7.702  11.775  -0.642  1.3439 -0.3059  2.2327
  798MOL0     H 7710   7.868  11.998  -0.749 -1.5256  1.6868 -1.0022
  798MOL0     H 7711   7.771  11.998  -0.604  0.7025  1.3719 -0.6559
  798MOL0     H 7712   7.836  10.950  -0.949 -0.4901 -0.4682  0.8550
  798MOL0     H 7713   8.027  10.799  -0.864  0.9600  0.3406  1.0437
  798MOL0     H 7714   8.490  10.860  -0.691 -0.0125  0.7799  1.5807
  798MOL0     H 7715   8.695  10.748  -0.672  0.1414  0.0591  2.3452
  798MOL0     H 7716  10.625  10.463  -0.245  1.8018 -1.4010 -2.2668
  798MOL0     H 7717  10.831  10.557  -0.165 -1.5638  0.7668  1.8757
  798MOL0     H 7718  11.128  10.896  -0.244 -3.9096  0.8830  1.5068
  798MOL0     H 7719  11.368  10.891  -0.253 -3.6591  1.8116 -0.8213
  798MOL0     H 7720  11.584  10.666   0.058 -2.5239  2.0816  4.3290
  798MOL0     H 7721  11.725  10.746  -0.016  0.7791 -1.3639  1.0078
  798MOL0     H 7722  11.542  10.882   0.189  0.3248  2.3078 -0.1353
  798MOL0     H 7723  11.707  10.929   0.149 -2.2497  2.1042  0.6017
  798MOL0     H 7724  11.638  10.686   0.299  1.7677 -0.6925 -0.3548
  798MOL0     H 7725  11.689  10.838   0.377  0.6967 -1.2097  0.8840
  798MOL0     H 7726  11.884  10.726   0.366 -1.0845  1.1902 -0.0109
  798MOL0     H 7727  11.891  10.841   0.228  1.1725 -0.0741 -3.2885
  798MOL0     H 7728  11.941  10.491   0.017 -2.3748 -0.4674 -0.3440
  798MOL0     H 7729  11.393  10.723   0.132 -0.5510 -2.2549 -1.1634
  798MOL0     H 7730  11.141  10.721   0.147 -3.5584  0.7826 -1.6705
  799MOL0     O 7731  10.871   2.574   3.916 -0.4281  0.4278  0.5326
  799MOL0     C 7732  10.795   2.507   3.990  0.3739 -0.6150  0.0621
  799MOL0     O 7733  10.829   2.457   4.112  0.1828  0.0639  0.0671
  799MOL0     C 7734  10.947   2.476   4.172 -0.1541 -0.1854 -0.4671
  799MOL0     C 7735  10.998   2.375   4.247  0.0155 -0.4764 -0.0738
  799MOL0     C 7736  11.115   2.375   4.316 -0.5602  0.1924 -0.3708
  799MOL0     C 7737  11.194   2.503   4.315 -0.5284 -0.1289 -1.0147
  799MOL0     O 7738  11.304   2.510   4.392 -0.1019 -0.3293  0.6837
  799MOL0     C 7739  11.261   2.497   4.531 -0.4764  0.4324  0.2945
  799MOL0     C 7740  11.353   2.559   4.631 -0.1919 -0.1889 -0.4549
  799MOL0     C 7741  11.402   2.695   4.600 -0.0139 -0.0309  0.0039
  799MOL0     C 7742  11.511   2.729   4.699 -0.1841  0.7507 -1.1367
  799MOL0     C 7743  11.565   2.870   4.675  0.0037  0.0101 -0.2221
  799MOL0     C 7744  11.710   2.874   4.706  0.6071 -0.4742 -1.0245
  799MOL0     C 7745  11.766   3.008   4.694 -0.3247  0.0287  0.7626
  799MOL0     C 7746  11.763   3.090   4.817  0.3200 -0.1134 -1.1699
  799MOL0     N 7747  11.822   3.216   4.795  0.2383 -0.7084 -0.9146
  799MOL0     C 7748  11.763   3.312   4.712  1.0291 -0.0604 -0.3402
  799MOL0     C 7749  11.856   3.404   4.677 -0.4562  1.1545  1.0472
  799MOL0     C 7750  11.823   3.530   4.602  0.1538  1.0090 -0.0295
  799MOL0     C 7751  11.846   3.656   4.687  0.2680 -0.5498  0.0597
  799MOL0     C 7752  11.993   3.710   4.670  0.1197  1.0135 -1.1374
  799MOL0     C 7753  12.026   3.813   4.783 -1.4053  0.0687 -0.0860
  799MOL0     O 7754  12.165   3.847   4.757  0.1645  0.1242  0.1038
  799MOL0     C 7755  12.220   3.966   4.793  0.0501  0.1169 -0.5642
  799MOL0     C 7756  12.324   4.019   4.711  0.1933 -0.3486 -0.0402
  799MOL0     C 7757  12.380   4.140   4.731 -0.4761  0.1749 -1.0562
  799MOL0     C 7758  12.483   4.183   4.634  0.5903 -0.4356  0.2596
  799MOL0     C 7759  12.343   4.212   4.848 -0.1302 -0.0339 -0.0624
  799MOL0     C 7760  12.372   4.362   4.853  0.6174  0.0137 -0.3622
  799MOL0     O 7761  12.414   4.415   4.976 -0.3399 -0.0836  0.4264
  799MOL0     C 7762  12.440   4.549   4.989 -0.2160  0.3444 -0.6579
  799MOL0     C 7763  12.354   4.643   4.945 -0.4769 -0.1845  0.8058
  799MOL0     C 7764  12.380   4.784   4.949  0.5798  1.2559 -0.2451
  799MOL0     C 7765  12.487   4.824   5.023  0.9406 -0.1251 -0.0246
  799MOL0     O 7766  12.513   4.958   5.029  0.0922  0.5338  0.2874
  799MOL0     C 7767  12.410   5.041   5.076  0.0265 -0.5787  0.3575
  799MOL0     C 7768  12.369   5.008   5.219  0.0243  0.5225 -0.6176
  799MOL0     C 7769  12.244   5.094   5.276 -0.5653 -0.5294  0.5624
  799MOL0     C 7770  12.242   5.252   5.247 -0.0161 -0.1297 -0.7127
  799MOL0     C 7771  12.143   5.337   5.328  0.1543  0.2018 -0.1277
  799MOL0     C 7772  12.122   5.475   5.255 -0.7324  0.5004 -0.1817
  799MOL0     C 7773  11.994   5.549   5.304  0.0533  0.0553  0.1634
  799MOL0     C 7774  11.920   5.637   5.197  0.0303  0.4944 -0.5448
  799MOL0    Cl 7775  12.031   5.721   5.079  0.2721 -0.4024  0.1511
  799MOL0     C 7776  12.575   4.732   5.068 -1.4931  0.2313 -1.0148
  799MOL0     C 7777  12.556   4.592   5.062 -0.4136  0.0173  0.4182
  799MOL0     O 7778  12.359   4.431   4.750  0.3486 -0.5569  0.2531
  799MOL0     C 7779  12.255   4.155   4.945  0.7579  0.1025 -0.7795
  799MOL0     C 7780  12.198   4.020   4.922 -0.3988  0.2058  0.7140
  799MOL0     N 7781  11.978   3.354   4.728  0.1279  0.6384 -0.4684
  799MOL0     N 7782  11.956   3.250   4.794 -0.3609  0.4635 -0.4783
  799MOL0     C 7783  11.150   2.598   4.223  0.4834 -0.1257 -1.0955
  799MOL0     C 7784  11.021   2.584   4.167  0.8402 -0.1696 -0.1225
  799MOL0     C 7785  10.657   2.487   3.952 -0.5534 -0.1152 -0.2457
  799MOL0     C 7786  10.603   2.523   3.830  0.2032 -0.1910 -0.3163
  799MOL0     C 7787  10.469   2.505   3.787  0.4141 -0.2061  0.4777
  799MOL0     C 7788  10.394   2.432   3.877  0.5398 -0.3597  0.1209
  799MOL0     O 7789  10.263   2.396   3.853 -0.2026 -0.1853 -0.8440
  799MOL0     C 7790  10.223   2.380   3.716  0.4492 -0.1370  0.4737
  799MOL0     C 7791  10.094   2.293   3.725 -0.7434 -0.0781 -0.1696
  799MOL0     C 7792   9.988   2.327   3.622 -0.6079  0.4342  0.4520
  799MOL0     C 7793   9.875   2.223   3.646 -0.7985  0.2689  0.2547
  799MOL0     C 7794   9.755   2.247   3.581 -0.5086 -0.0155 -0.6478
  799MOL0     C 7795   9.648   2.250   3.532  0.1680 -0.3537 -0.3928
  799MOL0     C 7796  10.445   2.386   4.002 -0.0188 -0.8720  0.9640
  799MOL0     C 7797  10.571   2.418   4.043  0.0647 -0.2390  0.0683
  799MOL0     H 7798  10.928   2.294   4.260 -0.6694  0.2827  1.2622
  799MOL0     H 7799  11.150   2.277   4.346  0.9427  0.9470  0.4866
  799MOL0     H 7800  11.162   2.542   4.538 -0.1037  1.3556 -0.1271
  799MOL0     H 7801  11.234   2.393   4.553 -2.8296 -0.2524 -4.5160
  799MOL0     H 7802  11.314   2.547   4.733  3.0384 -5.0972  0.5379
  799MOL0     H 7803  11.441   2.495   4.637  0.4526  0.6236 -1.0050
  799MOL0     H 7804  11.436   2.704   4.497  2.3492  1.0983  0.7796
  799MOL0     H 7805  11.316   2.761   4.612  0.3184  0.2784  0.8183
  799MOL0     H 7806  11.483   2.714   4.804 -1.1224  3.4882 -0.9288
  799MOL0     H 7807  11.593   2.658   4.681 -0.8755 -0.5860  0.6886
  799MOL0     H 7808  11.549   2.899   4.571  1.3559  0.9732 -0.1840
  799MOL0     H 7809  11.501   2.937   4.734 -0.3065  0.8337 -1.4605
  799MOL0     H 7810  11.734   2.816   4.795  0.0365 -0.3185 -0.7648
  799MOL0     H 7811  11.757   2.826   4.620  0.6154  0.1877 -1.3965
  799MOL0     H 7812  11.869   2.999   4.660  0.0489  1.7032  1.3266
  799MOL0     H 7813  11.707   3.065   4.621  2.6191  0.8087 -1.1807
  799MOL0     H 7814  11.804   3.038   4.903 -3.4879 -0.4833  0.5988
  799MOL0     H 7815  11.660   3.113   4.845  1.5348  4.2165  0.6659
  799MOL0     H 7816  11.656   3.314   4.690  0.2710 -1.2366  2.6349
  799MOL0     H 7817  11.892   3.529   4.518  2.7589 -0.6829  1.9468
  799MOL0     H 7818  11.723   3.517   4.561 -0.3948  0.5233  1.3750
  799MOL0     H 7819  11.819   3.630   4.790  0.7952  1.6898  0.8219
  799MOL0     H 7820  11.778   3.737   4.660 -0.8844 -1.1379  1.0819
  799MOL0     H 7821  12.005   3.757   4.571  1.6568  3.5485  0.1420
  799MOL0     H 7822  12.055   3.620   4.663  1.0611  1.4543  0.8637
  799MOL0     H 7823  12.021   3.752   4.874  2.3751 -0.9327 -0.3661
  799MOL0     H 7824  11.967   3.905   4.787  0.4458  1.2699  1.3720
  799MOL0     H 7825  12.338   3.967   4.617 -0.4772  2.1291 -1.5738
  799MOL0     H 7826  12.550   4.251   4.686 -0.4249 -0.0953  1.1556
  799MOL0     H 7827  12.530   4.088   4.606 -1.6361 -0.8835 -2.4440
  799MOL0     H 7828  12.447   4.243   4.550  1.1796 -0.3521  0.0652
  799MOL0     H 7829  12.265   4.611   4.892  0.0814 -1.9330  0.8570
  799MOL0     H 7830  12.309   4.845   4.895  0.5726  1.1444 -0.3631
  799MOL0     H 7831  12.449   5.143   5.067 -0.1581 -0.5203  0.2296
  799MOL0     H 7832  12.328   5.029   5.005  0.1221 -1.3237  0.3645
  799MOL0     H 7833  12.342   4.901   5.223 -0.1147  0.5376 -1.0819
  799MOL0     H 7834  12.458   5.001   5.281 -0.9178 -0.9430  0.6566
  799MOL0     H 7835  12.241   5.093   5.386 -5.3068  3.6630  0.8902
  799MOL0     H 7836  12.149   5.045   5.252 -0.6054 -1.0345  1.6664
  799MOL0     H 7837  12.342   5.280   5.280 -0.3887 -1.1783  1.5098
  799MOL0     H 7838  12.224   5.275   5.142  0.2196  1.6920 -0.3830
  799MOL0     H 7839  12.173   5.356   5.431  0.7463  1.6793 -0.5574
  799MOL0     H 7840  12.052   5.277   5.335 -1.9050  3.2178  0.8032
  799MOL0     H 7841  12.213   5.532   5.278 -2.3975  2.7456  1.2673
  799MOL0     H 7842  12.116   5.461   5.147  3.5531 -1.3769 -0.3951
  799MOL0     H 7843  12.037   5.620   5.374  0.4074  0.3207 -0.3162
  799MOL0     H 7844  11.929   5.482   5.361  1.5020 -1.1624  0.4429
  799MOL0     H 7845  11.863   5.715   5.247 -1.4210 -0.5026 -0.5947
  799MOL0     H 7846  11.852   5.571   5.142 -0.1359  0.4812 -0.3232
  799MOL0     H 7847  12.668   4.769   5.108 -2.6925  1.0898  1.1353
  799MOL0     H 7848  12.628   4.522   5.103 -1.9108 -1.4435  0.6884
  799MOL0     H 7849  12.240   4.215   5.034  2.6286 -2.1250  1.1695
  799MOL0     H 7850  12.135   3.968   4.993 -0.1128 -1.6970 -0.3584
  799MOL0     H 7851  11.197   2.695   4.210  1.2113 -0.1134  1.1877
  799MOL0     H 7852  10.991   2.662   4.097  3.5662  1.3239  0.2336
  799MOL0     H 7853  10.659   2.587   3.762  0.5990 -0.4548 -0.2435
  799MOL0     H 7854  10.421   2.539   3.695  1.5335 -0.9217 -0.4075
  799MOL0     H 7855  10.206   2.474   3.662 -1.6785 -0.9541 -0.4018
  799MOL0     H 7856  10.296   2.321   3.659 -0.3492 -2.3915  1.6453
  799MOL0     H 7857  10.063   2.297   3.830  1.8493  2.2576  0.6570
  799MOL0     H 7858  10.125   2.191   3.703  2.2320  1.2155 -2.8411
  799MOL0     H 7859  10.031   2.311   3.522 -0.9585 -0.6530  0.4567
  799MOL0     H 7860   9.956   2.431   3.632  3.9198  1.8267  3.3302
  799MOL0     H 7861   9.849   2.218   3.753 -1.2023  0.2988  0.1592
  799MOL0     H 7862   9.907   2.121   3.620  1.1814  0.2809  2.2470
  799MOL0     H 7863   9.562   2.257   3.468  1.8859 -1.0950 -2.9088
  799MOL0     H 7864  10.372   2.326   4.056 -1.9149  0.2149 -0.2578
  799MOL0     H 7865  10.597   2.378   4.140  4.1249 -3.3062 -1.9475
  800MOL0     O 7866   0.052   4.325   6.760 -0.6643  0.9461  0.4144
  800MOL0     C 7867  -0.035   4.345   6.669  0.7851 -0.3017  0.5245
  800MOL0     O 7868  -0.093   4.250   6.591  0.0007  0.2020  0.1008
  800MOL0     C 7869  -0.042   4.124   6.592  0.0990 -0.0023  0.1591
  800MOL0     C 7870  -0.121   4.011   6.619  0.1752 -0.2847 -1.2682
  800MOL0     C 7871  -0.080   3.878   6.616 -0.6099  0.3247 -1.1112
  800MOL0     C 7872   0.054   3.860   6.573 -0.8542  0.5787  0.2015
  800MOL0     O 7873   0.124   3.736   6.570  0.1105 -0.4895  0.6435
  800MOL0     C 7874   0.105   3.648   6.674  0.2243  1.0622  0.7078
  800MOL0     C 7875   0.235   3.588   6.722 -0.3774 -0.1177  0.5613
  800MOL0     C 7876   0.205   3.479   6.830 -0.1250  0.4264 -0.2691
  800MOL0     C 7877   0.342   3.437   6.898  0.1080 -0.0165  0.6871
  800MOL0     C 7878   0.313   3.347   7.018  0.0666  0.3658  0.2825
  800MOL0     C 7879   0.251   3.411   7.143  0.8433 -0.0566 -0.2312
  800MOL0     C 7880   0.242   3.300   7.258  0.2444 -0.8386  0.8759
  800MOL0     C 7881   0.192   3.370   7.388 -0.1550  0.9267 -0.2619
  800MOL0     N 7882   0.046   3.352   7.403 -0.1529  0.1115  0.5319
  800MOL0     C 7883  -0.047   3.452   7.394  0.0703  0.7445 -0.5158
  800MOL0     C 7884  -0.165   3.383   7.408  0.6997 -0.0442 -0.6094
  800MOL0     C 7885  -0.296   3.447   7.403 -0.3882 -0.1030  0.4437
  800MOL0     C 7886  -0.407   3.358   7.376  0.5607 -0.0038 -0.6682
  800MOL0     C 7887  -0.406   3.283   7.237  0.1074  0.2366  0.4556
  800MOL0     C 7888  -0.541   3.220   7.202 -0.5748 -0.3023 -0.8495
  800MOL0     O 7889  -0.596   3.144   7.310 -0.1840 -0.6259  0.0389
  800MOL0     C 7890  -0.734   3.122   7.313 -0.0450 -0.9836  0.0453
  800MOL0     C 7891  -0.829   3.169   7.209 -0.0129 -0.0929 -0.9939
  800MOL0     C 7892  -0.966   3.143   7.219 -0.8636 -0.0410 -0.6804
  800MOL0     C 7893  -1.056   3.185   7.102  0.1265  0.5284 -0.2956
  800MOL0     C 7894  -1.011   3.092   7.343 -0.1613  0.2086  0.2664
  800MOL0     C 7895  -1.146   3.051   7.360 -0.0845 -0.1000  0.2202
  800MOL0     O 7896  -1.190   3.061   7.490 -0.2691 -0.2307 -0.2957
  800MOL0     C 7897  -1.327   3.057   7.517  0.5655  0.5613  0.5060
  800MOL0     C 7898  -1.396   2.937   7.519 -0.7309  0.2238 -0.6301
  800MOL0     C 7899  -1.534   2.937   7.546 -0.7605  0.2345 -0.0867
  800MOL0     C 7900  -1.604   3.062   7.563 -1.0404  0.4071 -0.5613
  800MOL0     O 7901  -1.737   3.071   7.600  0.1013 -0.0816 -0.4806
  800MOL0     C 7902  -1.829   2.967   7.569  0.6535  0.3327  0.0754
  800MOL0     C 7903  -1.972   2.999   7.583 -0.3615 -0.4931 -0.6576
  800MOL0     C 7904  -2.013   3.045   7.729 -0.1624  0.3322  0.1941
  800MOL0     C 7905  -2.146   3.120   7.728 -0.2715  1.1284 -0.4275
  800MOL0     C 7906  -2.194   3.164   7.863  0.1937  0.0486 -0.0461
  800MOL0     C 7907  -2.302   3.274   7.873  0.4354 -0.6617  0.5611
  800MOL0     C 7908  -2.348   3.299   8.016  0.3294 -0.4684  0.2228
  800MOL0     C 7909  -2.384   3.174   8.108  0.0014 -0.2708 -0.1136
  800MOL0    Cl 7910  -2.535   3.077   8.057 -0.3804 -0.2526 -0.8513
  800MOL0     C 7911  -1.530   3.181   7.547  1.7397  0.0033 -0.4900
  800MOL0     C 7912  -1.397   3.181   7.524  0.0995 -0.7218  0.2120
  800MOL0     O 7913  -1.218   3.016   7.262 -1.0686  0.7130  0.0636
  800MOL0     C 7914  -0.923   3.069   7.455  0.1604 -0.3266  0.4777
  800MOL0     C 7915  -0.790   3.084   7.433  0.5375  0.6091 -0.0176
  800MOL0     N 7916  -0.140   3.248   7.426  0.1983 -0.3495 -0.2998
  800MOL0     N 7917  -0.019   3.231   7.428 -0.0703  0.7433 -0.3535
  800MOL0     C 7918   0.131   3.969   6.542  0.1361  0.4085 -0.0482
  800MOL0     C 7919   0.089   4.101   6.548 -0.5799 -0.2114  0.0594
  800MOL0     C 7920  -0.088   4.485   6.660  0.3349 -0.5319  1.3092
  800MOL0     C 7921  -0.197   4.518   6.577 -0.0104  0.4602 -0.9269
  800MOL0     C 7922  -0.248   4.650   6.578 -0.3136  0.8775  0.0129
  800MOL0     C 7923  -0.203   4.749   6.659  0.2484 -0.0625  0.5386
  800MOL0     O 7924  -0.276   4.867   6.675 -0.2511  1.0797 -0.8011
  800MOL0     C 7925  -0.208   4.982   6.701 -0.3570 -0.4610 -0.6148
  800MOL0     C 7926  -0.302   5.109   6.694  0.4880  0.2074 -0.8854
  800MOL0     C 7927  -0.426   5.088   6.787 -0.3972  0.6391 -0.8168
  800MOL0     C 7928  -0.555   5.093   6.719 -0.1644 -0.7151 -0.9291
  800MOL0     C 7929  -0.566   4.981   6.628 -0.5367  0.0326  0.4713
  800MOL0     C 7930  -0.549   4.885   6.557  0.2624 -0.8989 -0.2935
  800MOL0     C 7931  -0.090   4.719   6.738 -0.9766 -0.2484  0.0893
  800MOL0     C 7932  -0.037   4.593   6.735  0.3744 -0.2229 -0.2646
  800MOL0     H 7933  -0.223   4.032   6.648 -0.0449 -3.5332  0.7887
  800MOL0     H 7934  -0.145   3.799   6.651  1.2703 -0.1063  1.7856
  800MOL0     H 7935   0.043   3.686   6.756 -1.7763 -0.3281 -0.0679
  800MOL0     H 7936   0.042   3.567   6.637  1.3122 -0.3327  1.8227
  800MOL0     H 7937   0.288   3.549   6.634 -3.8057  0.8729 -2.1480
  800MOL0     H 7938   0.293   3.663   6.776 -0.1953 -1.2861  2.0391
  800MOL0     H 7939   0.136   3.524   6.902 -1.7071  0.0378 -1.4941
  800MOL0     H 7940   0.156   3.394   6.781 -0.2212  0.5202 -0.3352
  800MOL0     H 7941   0.404   3.375   6.832  1.2741  1.6825  0.1267
  800MOL0     H 7942   0.395   3.529   6.925  1.6742 -1.0919  1.4784
  800MOL0     H 7943   0.242   3.270   6.987 -1.1540  2.0960 -1.4042
  800MOL0     H 7944   0.406   3.310   7.062  0.3444 -0.3272 -0.8636
  800MOL0     H 7945   0.314   3.491   7.183 -0.1249  1.1194 -0.9603
  800MOL0     H 7946   0.152   3.451   7.121  0.7640  0.5681  1.1352
  800MOL0     H 7947   0.168   3.224   7.231 -2.8879  2.8887 -2.3303
  800MOL0     H 7948   0.342   3.257   7.268  0.5319 -0.2949  0.4327
  800MOL0     H 7949   0.214   3.478   7.382 -0.3190  1.0272  0.8395
  800MOL0     H 7950   0.250   3.325   7.468 -0.4248  0.2503 -0.4375
  800MOL0     H 7951  -0.037   3.555   7.362 -1.0108  0.8355 -0.5809
  800MOL0     H 7952  -0.314   3.506   7.493  1.2721 -1.8515  1.9976
  800MOL0     H 7953  -0.287   3.513   7.316 -1.6679 -0.5685 -0.0659
  800MOL0     H 7954  -0.509   3.398   7.387 -0.5730 -2.2029 -2.2673
  800MOL0     H 7955  -0.403   3.271   7.442  1.0838 -0.3244 -1.1134
  800MOL0     H 7956  -0.320   3.218   7.217 -0.4163  0.8068 -4.8699
  800MOL0     H 7957  -0.389   3.362   7.164 -1.9542 -1.5740 -2.1395
  800MOL0     H 7958  -0.524   3.146   7.124 -3.7116 -1.6423 -0.3905
  800MOL0     H 7959  -0.613   3.297   7.172 -1.3784  0.4542  2.4900
  800MOL0     H 7960  -0.792   3.206   7.114  0.2689  1.0120 -0.4768
  800MOL0     H 7961  -1.131   3.256   7.139  2.3748  3.6015 -1.1534
  800MOL0     H 7962  -0.999   3.255   7.040 -0.3975  1.0351 -0.2193
  800MOL0     H 7963  -1.103   3.096   7.061  0.4334 -0.0957  0.6754
  800MOL0     H 7964  -1.339   2.845   7.511  0.3048  0.8430 -0.4996
  800MOL0     H 7965  -1.578   2.839   7.555  1.0018 -0.8835 -2.4627
  800MOL0     H 7966  -1.821   2.941   7.464 -2.0710  3.6878 -1.1634
  800MOL0     H 7967  -1.814   2.886   7.641 -3.0965 -1.4641 -0.9338
  800MOL0     H 7968  -1.990   3.087   7.520 -0.3369 -0.2605 -0.3391
  800MOL0     H 7969  -2.034   2.918   7.543 -0.3407  0.8650 -3.8154
  800MOL0     H 7970  -1.934   3.111   7.767 -0.2850  1.3716 -1.2952
  800MOL0     H 7971  -2.029   2.958   7.794 -0.8472 -2.1505 -3.0699
  800MOL0     H 7972  -2.127   3.212   7.672  1.2953  1.2906  0.3012
  800MOL0     H 7973  -2.214   3.061   7.666  0.5426  0.4006 -0.6488
  800MOL0     H 7974  -2.104   3.190   7.919 -0.5238  0.0133  1.1519
  800MOL0     H 7975  -2.230   3.072   7.909 -0.3095 -0.1291 -0.7762
  800MOL0     H 7976  -2.272   3.373   7.837 -1.1090 -0.2560  0.2903
  800MOL0     H 7977  -2.391   3.240   7.819  0.5647  0.4783 -0.4143
  800MOL0     H 7978  -2.425   3.375   8.007 -0.0923 -0.6656  1.8372
  800MOL0     H 7979  -2.272   3.357   8.069  0.4653 -0.5867  0.1568
  800MOL0     H 7980  -2.394   3.214   8.210 -0.5947 -1.1796  0.1988
  800MOL0     H 7981  -2.298   3.107   8.110  0.9895  0.9625  0.6207
  800MOL0     H 7982  -1.591   3.270   7.563 -1.0759 -1.5238 -1.9711
  800MOL0     H 7983  -1.352   3.279   7.510 -2.9340  0.6007 -1.2386
  800MOL0     H 7984  -0.956   3.031   7.551  1.5011 -0.2040  1.0178
  800MOL0     H 7985  -0.722   3.053   7.512  1.1036  0.0590 -0.7066
  800MOL0     H 7986   0.236   3.954   6.518  0.4954 -1.3701  2.2203
  800MOL0     H 7987   0.159   4.184   6.538  0.3147 -0.5024  3.0104
  800MOL0     H 7988  -0.247   4.438   6.523 -1.4643  0.4683  0.3469
  800MOL0     H 7989  -0.331   4.678   6.514  2.6317 -0.7710 -5.0774
  800MOL0     H 7990  -0.157   4.980   6.798  1.0624 -1.4029 -1.3447
  800MOL0     H 7991  -0.133   4.991   6.623  1.4775 -1.5530  0.9343
  800MOL0     H 7992  -0.327   5.139   6.591  2.3298  2.8707 -0.6619
  800MOL0     H 7993  -0.253   5.194   6.743  1.8086 -0.4904 -0.9681
  800MOL0     H 7994  -0.425   5.172   6.857  4.1245  0.1805 -0.0739
  800MOL0     H 7995  -0.411   4.998   6.847  1.5299 -0.2445 -2.4987
  800MOL0     H 7996  -0.563   5.185   6.660  2.3274 -1.3080 -2.3127
  800MOL0     H 7997  -0.638   5.088   6.790 -0.0626 -1.0667 -0.8358
  800MOL0     H 7998  -0.512   4.792   6.517 -0.3653 -1.8916  1.3712
  800MOL0     H 7999  -0.039   4.794   6.798  2.2684 -1.8833 -0.4100
  800MOL0     H 8000   0.052   4.583   6.795  1.6100 -0.4523 -2.0649
  801MOL0     O 8001   8.607   6.711   5.384  0.3794 -0.9472  0.3514
  801MOL0     C 8002   8.594   6.617   5.464  0.0648 -0.3656 -0.2579
  801MOL0     O 8003   8.502   6.603   5.574 -0.2525 -0.1866  0.0291
  801MOL0     C 8004   8.426   6.713   5.599  0.4446 -1.2078 -0.4617
  801MOL0     C 8005   8.470   6.849   5.606  0.3076  0.5599  0.0401
  801MOL0     C 8006   8.380   6.946   5.639 -0.0396 -0.2964  0.6334
  801MOL0     C 8007   8.246   6.930   5.678  0.1267 -0.2973 -1.0533
  801MOL0     O 8008   8.164   7.043   5.706 -0.2612  0.5822  0.1814
  801MOL0     C 8009   8.051   7.019   5.795 -0.8370 -0.4939  0.7172
  801MOL0     C 8010   7.981   7.146   5.846 -0.3166 -0.3643  0.3943
  801MOL0     C 8011   7.869   7.115   5.950  0.1361 -0.7873 -0.2614
  801MOL0     C 8012   7.831   7.241   6.029  0.3930 -0.6073 -0.2435
  801MOL0     C 8013   7.954   7.289   6.113  0.4939  0.1597 -1.0522
  801MOL0     C 8014   7.901   7.356   6.245 -0.4973 -0.2805  0.5737
  801MOL0     C 8015   8.020   7.383   6.335  0.8185 -0.5342 -0.8304
  801MOL0     C 8016   8.089   7.519   6.314  0.6126 -0.2996 -0.8513
  801MOL0     N 8017   8.177   7.556   6.429 -0.2539  0.2505 -0.6455
  801MOL0     C 8018   8.125   7.590   6.549  1.1050  0.3037 -0.4172
  801MOL0     C 8019   8.229   7.659   6.600  0.3888  0.1675 -0.8470
  801MOL0     C 8020   8.246   7.733   6.735  1.0396 -0.2151 -0.1089
  801MOL0     C 8021   8.123   7.817   6.791  0.2517 -0.1956 -0.0607
  801MOL0     C 8022   8.031   7.722   6.880 -0.7174 -0.0580  0.0704
  801MOL0     C 8023   7.909   7.786   6.950 -0.3437 -0.1511  0.4382
  801MOL0     O 8024   7.840   7.874   6.853 -0.1692 -0.4910 -0.3138
  801MOL0     C 8025   7.786   7.815   6.738 -0.0691  0.2631 -0.5094
  801MOL0     C 8026   7.745   7.683   6.725 -0.5384 -0.5794 -0.3019
  801MOL0     C 8027   7.684   7.638   6.608  0.3152  0.2134 -0.1673
  801MOL0     C 8028   7.647   7.494   6.608 -0.5095  0.2752  0.0427
  801MOL0     C 8029   7.680   7.726   6.497 -0.0072  0.0690  0.1119
  801MOL0     C 8030   7.601   7.689   6.374 -0.1755 -0.2709 -0.2138
  801MOL0     O 8031   7.662   7.606   6.293  0.3077 -0.7066  0.1444
  801MOL0     C 8032   7.596   7.587   6.173  0.5952 -0.2774 -0.5683
  801MOL0     C 8033   7.651   7.630   6.053 -1.4378 -0.3227  0.2300
  801MOL0     C 8034   7.582   7.607   5.924  0.3551 -1.0980  0.7051
  801MOL0     C 8035   7.458   7.538   5.919 -1.0821 -0.8580 -0.5635
  801MOL0     O 8036   7.393   7.519   5.805 -0.2763  0.2725  0.4284
  801MOL0     C 8037   7.393   7.389   5.747 -0.2707  0.8586 -0.1911
  801MOL0     C 8038   7.537   7.340   5.704 -0.1300  0.0992 -0.2416
  801MOL0     C 8039   7.586   7.431   5.592 -0.0518  0.2873 -0.0579
  801MOL0     C 8040   7.713   7.362   5.533 -0.0783  0.0659 -0.3219
  801MOL0     C 8041   7.783   7.456   5.432  0.5255 -0.0588  0.0057
  801MOL0     C 8042   7.883   7.377   5.354  0.0103 -0.1939 -0.1526
  801MOL0     C 8043   7.968   7.455   5.254 -0.8807 -0.4457 -0.4586
  801MOL0     C 8044   8.019   7.369   5.142 -0.0052  0.4737  0.1553
  801MOL0    Cl 8045   7.875   7.332   5.027  0.2555 -0.4634 -0.1613
  801MOL0     C 8046   7.417   7.485   6.038  0.7416 -0.6014  0.2510
  801MOL0     C 8047   7.477   7.505   6.164 -0.2413  0.3239  0.3285
  801MOL0     O 8048   7.500   7.758   6.351  0.1928 -0.0908  1.2271
  801MOL0     C 8049   7.742   7.852   6.504 -1.0970  0.4757 -0.5902
  801MOL0     C 8050   7.798   7.895   6.627 -0.0594  0.0173 -0.4179
  801MOL0     N 8051   8.337   7.669   6.516  0.8292  0.1755 -0.3035
  801MOL0     N 8052   8.310   7.595   6.422  0.3742  0.4416 -0.4122
  801MOL0     C 8053   8.210   6.797   5.682 -0.2714  0.3416 -0.9611
  801MOL0     C 8054   8.296   6.692   5.634 -0.5436  0.1237  0.5402
  801MOL0     C 8055   8.680   6.501   5.446  0.0122  0.2293 -0.2859
  801MOL0     C 8056   8.726   6.472   5.316 -0.6316 -0.0162  0.9753
  801MOL0     C 8057   8.797   6.351   5.290  0.7632  0.4103 -0.1584
  801MOL0     C 8058   8.807   6.255   5.388 -0.1212 -0.1053 -1.0786
  801MOL0     O 8059   8.861   6.131   5.370  0.2937  0.8646 -0.1343
  801MOL0     C 8060   8.932   6.104   5.246 -0.1225  0.3347 -0.0579
  801MOL0     C 8061   9.040   6.005   5.280  0.7174 -0.3235  0.3066
  801MOL0     C 8062   8.987   5.859   5.269  0.4285 -0.1444 -0.3051
  801MOL0     C 8063   9.082   5.772   5.353  0.2483 -0.2274  1.2540
  801MOL0     C 8064   9.221   5.770   5.306 -0.2053 -0.4839 -0.9456
  801MOL0     C 8065   9.325   5.760   5.248 -0.1311  0.4443 -0.6919
  801MOL0     C 8066   8.755   6.285   5.516 -0.4558 -0.3781  0.2962
  801MOL0     C 8067   8.690   6.401   5.549 -0.7618  0.1425  0.6789
  801MOL0     H 8068   8.574   6.878   5.600  0.2261  0.8864  0.1986
  801MOL0     H 8069   8.419   7.047   5.633  0.5084 -0.5748 -0.9924
  801MOL0     H 8070   7.974   6.961   5.743 -0.5271 -0.5039  0.2678
  801MOL0     H 8071   8.091   6.964   5.880 -0.1859  1.6499  1.8856
  801MOL0     H 8072   8.058   7.214   5.885  0.0447  1.2958 -2.8750
  801MOL0     H 8073   7.942   7.189   5.754  0.0159 -2.9292 -1.0543
  801MOL0     H 8074   7.781   7.094   5.889  1.6161 -1.6932 -2.1889
  801MOL0     H 8075   7.895   7.040   6.025 -1.5095  0.2619  1.4110
  801MOL0     H 8076   7.806   7.315   5.952  2.0729  2.4823  1.9523
  801MOL0     H 8077   7.745   7.235   6.097  0.2902  0.6158 -0.2443
  801MOL0     H 8078   8.013   7.198   6.131 -1.9261 -1.8878 -2.7442
  801MOL0     H 8079   8.010   7.358   6.050  1.1455  0.4870 -0.1319
  801MOL0     H 8080   7.847   7.446   6.217 -0.5742 -1.1046 -2.2370
  801MOL0     H 8081   7.835   7.283   6.294  0.8061 -2.0875 -0.2286
  801MOL0     H 8082   7.985   7.371   6.438  0.6840  0.6540 -0.7296
  801MOL0     H 8083   8.099   7.308   6.320  1.6926  0.5927 -2.0105
  801MOL0     H 8084   8.007   7.590   6.302 -0.6362 -1.7394 -1.0006
  801MOL0     H 8085   8.150   7.521   6.223 -1.4029 -1.2762 -2.2876
  801MOL0     H 8086   8.028   7.567   6.591  1.8942 -1.9588  0.3261
  801MOL0     H 8087   8.283   7.664   6.811 -1.4057  0.5183  1.8889
  801MOL0     H 8088   8.335   7.794   6.719  0.0305  1.3205 -0.0770
  801MOL0     H 8089   8.069   7.860   6.707 -0.7822  1.4136  1.3505
  801MOL0     H 8090   8.157   7.896   6.859 -1.2251 -2.5473  3.7260
  801MOL0     H 8091   8.096   7.673   6.953  1.5086 -0.1853 -1.8881
  801MOL0     H 8092   8.003   7.642   6.811  0.1687 -0.1736 -0.1593
  801MOL0     H 8093   7.924   7.842   7.043  0.3879 -0.7427  0.6865
  801MOL0     H 8094   7.843   7.700   6.971 -1.6941  0.7606  0.0631
  801MOL0     H 8095   7.750   7.626   6.817  3.6146  0.8433  0.5912
  801MOL0     H 8096   7.550   7.472   6.563  0.1504 -0.7791 -0.9109
  801MOL0     H 8097   7.721   7.439   6.549 -0.0109  0.1704  0.7514
  801MOL0     H 8098   7.654   7.442   6.705  2.2281  0.3676 -0.0283
  801MOL0     H 8099   7.744   7.685   6.057 -2.0646  0.6986  1.4030
  801MOL0     H 8100   7.619   7.649   5.832 -1.1077  1.3997  1.1626
  801MOL0     H 8101   7.346   7.320   5.817  0.0916 -0.4838 -1.2225
  801MOL0     H 8102   7.329   7.394   5.658 -2.1905 -0.0702  1.0732
  801MOL0     H 8103   7.611   7.347   5.784  0.6502 -1.1796 -0.8318
  801MOL0     H 8104   7.529   7.237   5.669 -0.7861 -0.3311  1.1252
  801MOL0     H 8105   7.614   7.531   5.627 -2.4352  0.3320  1.9851
  801MOL0     H 8106   7.510   7.455   5.517  1.7965  0.6314 -1.9134
  801MOL0     H 8107   7.792   7.344   5.607  0.9169 -0.8822 -1.5676
  801MOL0     H 8108   7.685   7.265   5.491  2.7626 -0.6913 -0.6791
  801MOL0     H 8109   7.820   7.543   5.487 -1.5829  0.8897  0.0332
  801MOL0     H 8110   7.711   7.491   5.357  0.5382 -1.7263 -0.8483
  801MOL0     H 8111   7.945   7.331   5.432 -1.8942  0.4513  1.8379
  801MOL0     H 8112   7.834   7.295   5.301  0.5508 -0.6307  0.0157
  801MOL0     H 8113   8.043   7.522   5.296 -2.5460  1.3738 -0.2614
  801MOL0     H 8114   7.904   7.527   5.203 -3.3816 -0.7762  1.9908
  801MOL0     H 8115   8.068   7.276   5.173 -1.5937 -1.2594 -2.1680
  801MOL0     H 8116   8.088   7.432   5.086  0.1015 -0.9276 -1.3950
  801MOL0     H 8117   7.323   7.430   6.039 -0.3990  1.1556  3.6563
  801MOL0     H 8118   7.440   7.451   6.250 -0.6451  0.4631  0.2468
  801MOL0     H 8119   7.751   7.906   6.411  2.2503  1.8026  0.3391
  801MOL0     H 8120   7.845   7.991   6.644 -1.6980  0.6212  0.9359
  801MOL0     H 8121   8.108   6.767   5.702  0.7476 -1.7842  1.7147
  801MOL0     H 8122   8.256   6.592   5.621  2.2558 -1.1416  0.8220
  801MOL0     H 8123   8.704   6.541   5.235 -1.9956 -0.7762  0.6609
  801MOL0     H 8124   8.828   6.335   5.188  1.4350 -0.9500  0.2308
  801MOL0     H 8125   8.867   6.076   5.162  0.2439  1.8754 -0.8990
  801MOL0     H 8126   8.984   6.195   5.213  1.9839 -0.7147  0.2310
  801MOL0     H 8127   9.084   6.031   5.377  1.2277  3.5732 -0.7621
  801MOL0     H 8128   9.129   6.011   5.216  0.1059  1.2222 -0.4521
  801MOL0     H 8129   8.993   5.821   5.166  1.6231  1.0598 -0.7115
  801MOL0     H 8130   8.882   5.863   5.299  0.3676  1.0098 -0.6255
  801MOL0     H 8131   9.043   5.670   5.350 -1.0635  0.2809 -0.6416
  801MOL0     H 8132   9.077   5.813   5.454  0.4709  1.8007  0.4763
  801MOL0     H 8133   9.415   5.754   5.190  1.2070 -0.3953  1.3578
  801MOL0     H 8134   8.773   6.207   5.590 -1.1996 -0.3334  0.5290
  801MOL0     H 8135   8.656   6.406   5.652 -0.2024  1.1455  0.8291
  802MOL0     O 8136   0.250   8.368   1.397 -0.4290 -0.4739  0.2907
  802MOL0     C 8137   0.357   8.329   1.348  0.2495  0.7464 -0.2922
  802MOL0     O 8138   0.393   8.194   1.330 -0.3301 -0.0290  0.1422
  802MOL0     C 8139   0.286   8.110   1.331 -0.1937  0.4671 -0.6568
  802MOL0     C 8140   0.199   8.126   1.225  0.6901  1.1799 -0.1367
  802MOL0     C 8141   0.084   8.042   1.208 -1.0880 -0.9990  0.3155
  802MOL0     C 8142   0.053   7.950   1.304 -0.4890 -0.3820 -0.3468
  802MOL0     O 8143  -0.058   7.871   1.280 -0.4273  0.5672  0.1845
  802MOL0     C 8144  -0.106   7.810   1.402 -0.2414 -0.7641 -0.7906
  802MOL0     C 8145  -0.232   7.743   1.382 -0.0671  0.5380 -0.7871
  802MOL0     C 8146  -0.352   7.850   1.391 -0.3429 -0.6542 -0.4063
  802MOL0     C 8147  -0.487   7.780   1.346 -0.3292  0.5438 -0.4059
  802MOL0     C 8148  -0.562   7.722   1.468 -0.3822 -0.2954  0.4602
  802MOL0     C 8149  -0.712   7.710   1.437 -0.7633  0.2979  0.2286
  802MOL0     C 8150  -0.796   7.714   1.565 -0.7272  0.4548 -0.7078
  802MOL0     C 8151  -0.842   7.857   1.606  0.4782 -0.1871  0.1268
  802MOL0     N 8152  -0.917   7.931   1.497 -0.2533  0.6547 -0.3389
  802MOL0     C 8153  -1.053   7.915   1.455  0.0250  0.2152 -0.8587
  802MOL0     C 8154  -1.073   8.015   1.375  0.6491  0.1570  0.0673
  802MOL0     C 8155  -1.221   8.040   1.319 -0.2899  0.3525  0.3381
  802MOL0     C 8156  -1.213   8.085   1.172 -0.5501 -0.7976  0.6317
  802MOL0     C 8157  -1.349   8.095   1.093 -1.0573 -0.4839 -1.1139
  802MOL0     C 8158  -1.424   8.216   1.144 -0.8092  0.0787  0.3298
  802MOL0     O 8159  -1.511   8.180   1.256  0.1314 -0.4505  0.4220
  802MOL0     C 8160  -1.651   8.170   1.233 -0.1604  0.3155  0.6091
  802MOL0     C 8161  -1.702   8.079   1.144  0.7039 -0.2754 -0.0166
  802MOL0     C 8162  -1.841   8.064   1.122  0.3150  0.1726  0.1338
  802MOL0     C 8163  -1.882   7.963   1.023 -0.0729  0.2735  0.2479
  802MOL0     C 8164  -1.934   8.152   1.184  0.1227  0.2708 -0.2760
  802MOL0     C 8165  -2.086   8.145   1.176  0.1402 -1.0704 -0.8760
  802MOL0     O 8166  -2.138   8.122   1.057  0.1980  0.1119  0.5092
  802MOL0     C 8167  -2.277   8.099   1.042  0.2565  0.4464  0.0027
  802MOL0     C 8168  -2.363   8.192   0.978 -1.0266 -0.5266  0.0811
  802MOL0     C 8169  -2.500   8.163   0.960  0.6176  0.1421 -0.0038
  802MOL0     C 8170  -2.557   8.042   1.013  0.6333  0.2914 -0.4334
  802MOL0     O 8171  -2.693   8.024   1.001  0.0934  0.0273 -0.9654
  802MOL0     C 8172  -2.742   7.893   0.978  0.9369 -0.3233 -0.0940
  802MOL0     C 8173  -2.893   7.913   0.973  0.8352  0.9288 -0.1148
  802MOL0     C 8174  -2.967   7.775   0.982  0.0841 -0.1908  0.0147
  802MOL0     C 8175  -2.999   7.719   0.841  0.2964  0.6033 -0.2411
  802MOL0     C 8176  -3.064   7.576   0.837 -0.6145 -0.3799  0.5678
  802MOL0     C 8177  -2.982   7.477   0.909  0.7742 -0.3570 -1.0179
  802MOL0     C 8178  -2.976   7.337   0.848 -0.6330  0.4966  0.6819
  802MOL0     C 8179  -2.860   7.270   0.919 -0.6552 -0.2627 -0.2468
  802MOL0    Cl 8180  -2.700   7.343   0.886 -0.0370  0.3436 -0.3277
  802MOL0     C 8181  -2.470   7.954   1.082  0.6673  0.3776 -0.6611
  802MOL0     C 8182  -2.334   7.981   1.092  0.8820 -0.2592 -0.8749
  802MOL0     O 8183  -2.150   8.154   1.279 -0.4448 -0.8583  0.4615
  802MOL0     C 8184  -1.877   8.231   1.284 -0.2424 -0.7637 -0.6017
  802MOL0     C 8185  -1.740   8.246   1.303 -0.0870 -0.0169  0.1093
  802MOL0     N 8186  -0.964   8.095   1.373  0.5597 -0.3093  0.3243
  802MOL0     N 8187  -0.874   8.045   1.452  0.1219  0.8750  0.0090
  802MOL0     C 8188   0.141   7.937   1.414  0.1534 -0.1953  0.7476
  802MOL0     C 8189   0.260   8.010   1.428  0.7389  0.2179 -0.5618
  802MOL0     C 8190   0.450   8.429   1.307 -1.0653  0.0164 -0.5192
  802MOL0     C 8191   0.593   8.405   1.292 -0.6554 -0.4950  0.1513
  802MOL0     C 8192   0.675   8.507   1.249  0.0190  0.5790 -0.1851
  802MOL0     C 8193   0.636   8.637   1.221 -0.0712 -0.6364  0.0996
  802MOL0     O 8194   0.717   8.741   1.173 -0.1363 -0.4458 -1.0120
  802MOL0     C 8195   0.862   8.714   1.160 -0.6454  0.1556  0.5839
  802MOL0     C 8196   0.930   8.809   1.062 -0.3332  0.3102 -0.8678
  802MOL0     C 8197   0.965   8.941   1.128  0.6111  0.4512 -0.3259
  802MOL0     C 8198   1.094   9.008   1.075  0.8293  0.3189  0.2488
  802MOL0     C 8199   1.086   9.090   0.955 -0.0412 -0.5994  0.1936
  802MOL0     C 8200   1.072   9.167   0.858  0.3632  0.3979 -0.2111
  802MOL0     C 8201   0.503   8.661   1.247 -1.3061 -0.1758  0.7082
  802MOL0     C 8202   0.412   8.563   1.293 -0.5690 -0.3990  0.4062
  802MOL0     H 8203   0.217   8.210   1.159  0.3234 -0.2473 -2.1300
  802MOL0     H 8204   0.024   8.053   1.118  1.6408  1.6237 -1.3669
  802MOL0     H 8205  -0.034   7.732   1.428 -2.0279 -1.5604  2.1811
  802MOL0     H 8206  -0.117   7.890   1.475 -0.2256 -0.9238 -0.6142
  802MOL0     H 8207  -0.229   7.683   1.291  0.3648 -0.1930 -0.3117
  802MOL0     H 8208  -0.238   7.665   1.459  1.3680  1.3126  0.1767
  802MOL0     H 8209  -0.359   7.899   1.489 -2.2820 -0.5281 -0.5603
  802MOL0     H 8210  -0.322   7.933   1.327 -0.7393  0.5847  0.9529
  802MOL0     H 8211  -0.548   7.857   1.297  0.8865  2.3041  0.7029
  802MOL0     H 8212  -0.460   7.701   1.275 -0.4680  0.2355 -0.1176
  802MOL0     H 8213  -0.517   7.633   1.513  0.0077  1.1739  3.2209
  802MOL0     H 8214  -0.564   7.799   1.547 -1.2790  0.5444 -0.3502
  802MOL0     H 8215  -0.745   7.785   1.365  0.6251  0.3088 -0.4362
  802MOL0     H 8216  -0.734   7.614   1.388 -0.6274 -0.3547  1.4037
  802MOL0     H 8217  -0.887   7.653   1.563 -1.2911  0.9796  2.7628
  802MOL0     H 8218  -0.745   7.672   1.652 -3.3891 -1.4081  0.0970
  802MOL0     H 8219  -0.762   7.916   1.650 -1.5578  3.6154 -0.8544
  802MOL0     H 8220  -0.911   7.850   1.692 -0.1841  0.2080 -0.3633
  802MOL0     H 8221  -1.121   7.835   1.483 -1.6567  0.9935 -2.5024
  802MOL0     H 8222  -1.285   7.952   1.324 -0.9152  0.5622 -2.5675
  802MOL0     H 8223  -1.260   8.127   1.373  1.4158  2.0622 -1.0439
  802MOL0     H 8224  -1.161   8.002   1.123 -0.6129  0.1663 -1.1687
  802MOL0     H 8225  -1.158   8.178   1.155 -2.4747  0.1225 -1.2018
  802MOL0     H 8226  -1.413   8.008   1.108  1.6655 -2.8862 -2.3283
  802MOL0     H 8227  -1.327   8.101   0.986  0.5700 -3.2533 -1.0475
  802MOL0     H 8228  -1.496   8.244   1.067 -1.2695 -1.6518  0.0778
  802MOL0     H 8229  -1.353   8.293   1.175 -1.7229  0.7819  0.7394
  802MOL0     H 8230  -1.624   8.020   1.098  1.0486  0.7620 -0.8071
  802MOL0     H 8231  -1.919   8.022   0.938  1.2635 -0.3463 -0.8038
  802MOL0     H 8232  -1.797   7.910   0.980  1.7974  1.0600  2.7644
  802MOL0     H 8233  -1.965   7.901   1.056 -2.6472  3.2576 -0.1111
  802MOL0     H 8234  -2.319   8.281   0.935 -2.4355  1.5053  2.5165
  802MOL0     H 8235  -2.566   8.238   0.917  0.1624  0.1591  0.7066
  802MOL0     H 8236  -2.715   7.856   0.879  1.6715 -2.4422  0.8632
  802MOL0     H 8237  -2.713   7.829   1.061 -1.1248  1.0355  1.8173
  802MOL0     H 8238  -2.933   7.971   1.057 -0.4667 -1.7048  1.1976
  802MOL0     H 8239  -2.909   7.960   0.876 -0.3951 -0.4395 -0.5945
  802MOL0     H 8240  -3.067   7.790   1.022 -0.5392 -0.3142 -1.4403
  802MOL0     H 8241  -2.924   7.701   1.050 -2.1701 -1.5490  0.0732
  802MOL0     H 8242  -3.068   7.795   0.802 -1.5842 -0.8206  0.1659
  802MOL0     H 8243  -2.906   7.719   0.782  0.6691 -0.7906  0.3101
  802MOL0     H 8244  -3.082   7.562   0.730  0.5954 -0.3688  0.3511
  802MOL0     H 8245  -3.158   7.569   0.892  0.9758 -1.4329  3.3611
  802MOL0     H 8246  -2.881   7.514   0.926  0.5199 -0.1609  0.1575
  802MOL0     H 8247  -3.031   7.481   1.006  0.4977 -2.1817 -1.0385
  802MOL0     H 8248  -2.951   7.351   0.742 -2.2740  2.4964  0.4943
  802MOL0     H 8249  -3.064   7.271   0.845  0.5507 -1.2274  2.0979
  802MOL0     H 8250  -2.866   7.162   0.906 -0.0736 -0.3666  0.2567
  802MOL0     H 8251  -2.874   7.284   1.027 -2.8540  2.7487 -0.7960
  802MOL0     H 8252  -2.509   7.862   1.125 -0.5014 -0.0115 -2.4343
  802MOL0     H 8253  -2.267   7.910   1.139  3.5429  0.5894 -3.0679
  802MOL0     H 8254  -1.946   8.285   1.349 -3.6717 -0.9197 -3.7906
  802MOL0     H 8255  -1.696   8.308   1.380  0.6119  0.7010 -0.8507
  802MOL0     H 8256   0.130   7.882   1.506 -1.1931  2.6317  2.4291
  802MOL0     H 8257   0.315   7.996   1.520  0.0487 -2.1546 -0.4296
  802MOL0     H 8258   0.625   8.301   1.296 -3.2861 -1.3708  1.0830
  802MOL0     H 8259   0.779   8.477   1.245  0.7999  2.9850  0.2542
  802MOL0     H 8260   0.923   8.710   1.250  0.9003  3.0125 -0.1954
  802MOL0     H 8261   0.873   8.619   1.107 -0.5382 -0.4722  1.7081
  802MOL0     H 8262   0.871   8.841   0.975  1.0497  2.5031 -1.0985
  802MOL0     H 8263   1.015   8.752   1.024 -0.5621 -0.2990 -0.4759
  802MOL0     H 8264   0.988   8.916   1.232  1.2004 -1.1685 -0.8242
  802MOL0     H 8265   0.887   9.018   1.126  1.7681  1.6663  0.2881
  802MOL0     H 8266   1.165   8.926   1.066 -0.0402 -0.4900  0.5722
  802MOL0     H 8267   1.129   9.077   1.153 -0.3111  1.3988 -0.1489
  802MOL0     H 8268   1.061   9.252   0.794 -1.6814 -0.3289 -0.9003
  802MOL0     H 8269   0.478   8.765   1.226 -1.4540 -0.4884 -0.8138
  802MOL0     H 8270   0.305   8.584   1.298 -0.3303  0.9793  0.2051
  803MOL0     O 8271   1.581   0.777   2.005  0.6478  0.4185  0.5247
  803MOL0     C 8272   1.509   0.803   1.907  0.8202 -0.2224  0.1424
  803MOL0     O 8273   1.476   0.715   1.808 -0.1163  0.6098 -0.1493
  803MOL0     C 8274   1.520   0.582   1.837  0.7995  0.2525 -0.1830
  803MOL0     C 8275   1.455   0.493   1.923 -0.3616 -0.1617 -0.4910
  803MOL0     C 8276   1.496   0.355   1.942  0.1068  0.1217 -0.1839
  803MOL0     C 8277   1.612   0.307   1.875 -0.3981 -0.4352  0.0093
  803MOL0     O 8278   1.649   0.168   1.881 -0.3238 -0.2945  0.2081
  803MOL0     C 8279   1.787   0.136   1.869  0.5031 -0.2990 -0.2851
  803MOL0     C 8280   1.788  -0.016   1.882 -0.1180  0.1438  1.1563
  803MOL0     C 8281   1.913  -0.084   1.894 -0.0914  0.4151  0.2099
  803MOL0     C 8282   1.984  -0.070   1.758 -0.0728 -0.2144  0.0362
  803MOL0     C 8283   2.102  -0.163   1.738 -0.4954 -0.2576 -0.5556
  803MOL0     C 8284   2.056  -0.311   1.748  0.4936  0.4010  0.4316
  803MOL0     C 8285   2.148  -0.407   1.689  0.4409 -0.1925  0.8417
  803MOL0     C 8286   2.141  -0.550   1.743  0.6280  0.6106 -0.2840
  803MOL0     N 8287   2.209  -0.641   1.649  0.3131  0.4837 -0.4982
  803MOL0     C 8288   2.295  -0.737   1.699 -0.5121 -0.4410 -0.0294
  803MOL0     C 8289   2.339  -0.809   1.590  0.8542  0.0666 -0.1460
  803MOL0     C 8290   2.424  -0.932   1.600  0.5868  0.0729  0.9776
  803MOL0     C 8291   2.554  -0.936   1.512  0.3286  0.0149 -0.2618
  803MOL0     C 8292   2.649  -0.824   1.552  0.0796 -0.3821  0.7380
  803MOL0     C 8293   2.782  -0.815   1.472 -1.0192 -0.3616 -0.1739
  803MOL0     O 8294   2.881  -0.752   1.543 -0.0950 -0.3951  0.8664
  803MOL0     C 8295   2.999  -0.727   1.471 -0.2211  0.5645  0.0770
  803MOL0     C 8296   3.092  -0.651   1.540  0.4503  0.3225  0.2304
  803MOL0     C 8297   3.210  -0.613   1.471 -0.1983 -0.5283 -0.7073
  803MOL0     C 8298   3.319  -0.526   1.540 -0.6878 -0.5342 -0.2759
  803MOL0     C 8299   3.241  -0.665   1.347 -0.1563 -0.9067  0.2823
  803MOL0     C 8300   3.367  -0.653   1.269 -0.0751  0.1157 -0.4399
  803MOL0     O 8301   3.401  -0.522   1.247 -0.1522 -0.2383  0.1110
  803MOL0     C 8302   3.532  -0.490   1.203 -0.0799  1.0280 -0.8964
  803MOL0     C 8303   3.643  -0.568   1.222  0.2296 -1.0498 -0.5329
  803MOL0     C 8304   3.769  -0.522   1.173 -0.3570  0.2011 -0.7524
  803MOL0     C 8305   3.774  -0.398   1.094 -0.5568 -0.0255  0.1778
  803MOL0     O 8306   3.882  -0.350   1.028  0.0497  0.0303 -0.1387
  803MOL0     C 8307   3.999  -0.435   1.016  0.5666  0.5494 -0.4305
  803MOL0     C 8308   4.091  -0.389   0.905 -0.0047  0.2409 -0.3353
  803MOL0     C 8309   4.118  -0.239   0.926  0.4228  0.1732 -0.7326
  803MOL0     C 8310   4.215  -0.187   0.817 -0.1048 -0.1083  0.4760
  803MOL0     C 8311   4.244  -0.040   0.842 -0.0654 -0.1865 -0.1558
  803MOL0     C 8312   4.327   0.034   0.744 -0.2722 -0.4009  0.2282
  803MOL0     C 8313   4.335   0.181   0.779  0.0195  0.0223 -0.1602
  803MOL0     C 8314   4.453   0.248   0.713  0.3634 -0.2319 -0.1708
  803MOL0    Cl 8315   4.450   0.241   0.542  0.0428  0.0257  0.0127
  803MOL0     C 8316   3.659  -0.320   1.088  0.0289 -0.6458 -0.6094
  803MOL0     C 8317   3.539  -0.369   1.145 -0.2066 -0.0993  0.2820
  803MOL0     O 8318   3.430  -0.755   1.226  0.1545  0.1376 -0.1430
  803MOL0     C 8319   3.152  -0.754   1.291 -0.7088  0.1290 -0.3474
  803MOL0     C 8320   3.026  -0.777   1.341  0.7765 -0.9309  0.8950
  803MOL0     N 8321   2.285  -0.748   1.481  0.8905  0.8889  0.0229
  803MOL0     N 8322   2.202  -0.654   1.511  0.5748  0.3309 -0.7150
  803MOL0     C 8323   1.679   0.403   1.795 -0.1439  0.5904  0.0136
  803MOL0     C 8324   1.631   0.531   1.769 -0.1506 -0.2525 -0.2686
  803MOL0     C 8325   1.458   0.942   1.900  0.3044 -0.4813 -0.2210
  803MOL0     C 8326   1.410   0.997   1.777  0.1814 -0.3759  0.1699
  803MOL0     C 8327   1.358   1.134   1.778 -0.0629  0.0951 -1.1529
  803MOL0     C 8328   1.339   1.198   1.903  0.2455  0.7978 -0.2777
  803MOL0     O 8329   1.273   1.313   1.921  0.0670 -0.3049  0.0419
  803MOL0     C 8330   1.176   1.365   1.825 -0.1476 -0.2663 -1.0093
  803MOL0     C 8331   1.095   1.475   1.890 -1.1723  0.8470  0.2272
  803MOL0     C 8332   0.951   1.489   1.835  1.0737 -0.4983 -0.7566
  803MOL0     C 8333   0.871   1.615   1.887  0.0199 -0.7681  0.1012
  803MOL0     C 8334   0.761   1.663   1.805 -0.2231  0.1018 -0.5213
  803MOL0     C 8335   0.667   1.689   1.736 -0.9057 -0.7719 -0.8071
  803MOL0     C 8336   1.377   1.131   2.011 -0.4534  0.3109 -0.5574
  803MOL0     C 8337   1.435   1.009   2.021  0.3962  0.0023 -0.0234
  803MOL0     H 8338   1.372   0.532   1.981 -0.2432 -0.2566 -0.2549
  803MOL0     H 8339   1.442   0.303   2.021 -0.5606 -0.9335 -1.2968
  803MOL0     H 8340   1.829   0.177   1.776  1.8099 -3.7714 -1.3768
  803MOL0     H 8341   1.838   0.187   1.951  1.0061  1.2261 -1.4864
  803MOL0     H 8342   1.732  -0.039   1.973  2.2245  1.9831  3.2051
  803MOL0     H 8343   1.734  -0.058   1.797  1.3024  1.2957 -0.3837
  803MOL0     H 8344   1.976  -0.039   1.971 -0.8402  4.3552 -1.2545
  803MOL0     H 8345   1.887  -0.188   1.917 -1.6015  0.7241 -0.0248
  803MOL0     H 8346   1.911  -0.085   1.678 -1.0381 -1.8890  1.1718
  803MOL0     H 8347   2.021   0.033   1.752 -0.0902 -0.2160 -0.0939
  803MOL0     H 8348   2.144  -0.147   1.638  0.4065 -0.9652 -0.3121
  803MOL0     H 8349   2.185  -0.150   1.808  1.8242 -0.4372 -3.0964
  803MOL0     H 8350   2.042  -0.330   1.855  0.8201 -0.5507  0.3139
  803MOL0     H 8351   1.960  -0.336   1.701  2.8552 -2.7146 -3.3042
  803MOL0     H 8352   2.120  -0.405   1.583  2.8037  1.3764  0.1547
  803MOL0     H 8353   2.251  -0.374   1.706  0.0272  2.3117 -0.8534
  803MOL0     H 8354   2.034  -0.571   1.733  0.6781  1.3539 -3.0276
  803MOL0     H 8355   2.175  -0.563   1.846 -1.8589 -1.7810  0.3716
  803MOL0     H 8356   2.308  -0.770   1.801  0.5191 -0.4892 -0.1676
  803MOL0     H 8357   2.452  -0.957   1.703 -0.7061  0.3684  1.4170
  803MOL0     H 8358   2.364  -1.017   1.566  0.7331 -0.4807  2.0525
  803MOL0     H 8359   2.538  -0.932   1.404 -1.2357  3.2089 -0.0251
  803MOL0     H 8360   2.606  -1.031   1.528  1.0185  0.1337 -1.6570
  803MOL0     H 8361   2.663  -0.837   1.660 -0.6827  2.3597  1.2495
  803MOL0     H 8362   2.593  -0.730   1.546 -2.5112 -1.8787 -0.0620
  803MOL0     H 8363   2.759  -0.750   1.386 -1.4276 -1.2544 -0.7579
  803MOL0     H 8364   2.806  -0.917   1.439  0.5924 -0.1484  0.2739
  803MOL0     H 8365   3.081  -0.615   1.642 -2.3141  2.1445 -0.5751
  803MOL0     H 8366   3.419  -0.548   1.502 -0.5824  2.0289 -1.6398
  803MOL0     H 8367   3.307  -0.419   1.521 -0.6668 -0.7246 -1.3733
  803MOL0     H 8368   3.327  -0.541   1.648  1.6121  0.1423 -0.3133
  803MOL0     H 8369   3.630  -0.655   1.285  0.5850 -0.1931  0.7577
  803MOL0     H 8370   3.863  -0.571   1.195 -2.0454 -2.6595  0.6826
  803MOL0     H 8371   4.047  -0.435   1.114  0.2021  1.3117 -0.2412
  803MOL0     H 8372   3.962  -0.534   0.987 -2.1570  1.4782 -0.4215
  803MOL0     H 8373   4.178  -0.455   0.895 -0.0986  0.4716 -3.9548
  803MOL0     H 8374   4.036  -0.411   0.813  0.3703 -5.5730  0.4680
  803MOL0     H 8375   4.152  -0.228   1.030 -1.3397 -1.9823  0.1541
  803MOL0     H 8376   4.023  -0.186   0.927 -0.6623 -1.5050  2.9331
  803MOL0     H 8377   4.309  -0.240   0.796 -0.3508  0.4832 -2.5328
  803MOL0     H 8378   4.171  -0.196   0.717  0.4821 -1.5191  0.3278
  803MOL0     H 8379   4.303  -0.044   0.934 -0.9146 -2.6754  0.3372
  803MOL0     H 8380   4.146   0.006   0.857  0.4211  0.5528  0.8859
  803MOL0     H 8381   4.422  -0.019   0.747  0.3782  0.7622  2.8764
  803MOL0     H 8382   4.288   0.019   0.643  3.6576 -2.1238 -1.1957
  803MOL0     H 8383   4.338   0.179   0.888 -2.2374 -0.1871 -0.0584
  803MOL0     H 8384   4.238   0.224   0.752 -0.6220 -1.7993 -0.9281
  803MOL0     H 8385   4.548   0.207   0.749 -0.7331 -1.7371  1.1533
  803MOL0     H 8386   4.440   0.352   0.743 -3.3891 -0.0336 -1.8544
  803MOL0     H 8387   3.651  -0.222   1.042 -2.0818 -1.3864 -1.9598
  803MOL0     H 8388   3.444  -0.315   1.142 -0.9131 -1.2990  0.4702
  803MOL0     H 8389   3.188  -0.791   1.195 -1.6132 -0.1507 -0.5891
  803MOL0     H 8390   2.960  -0.832   1.276  1.0257  2.3543 -2.4391
  803MOL0     H 8391   1.766   0.366   1.741  0.4135  1.7807  0.0594
  803MOL0     H 8392   1.682   0.594   1.697  1.1912 -2.5505 -1.4593
  803MOL0     H 8393   1.408   0.952   1.679 -0.1268  2.8710 -1.4405
  803MOL0     H 8394   1.319   1.183   1.690 -0.9844  0.2090 -0.6895
  803MOL0     H 8395   1.228   1.402   1.736  1.4260 -1.5140 -0.6643
  803MOL0     H 8396   1.111   1.280   1.803 -0.5935 -1.3171  3.3725
  803MOL0     H 8397   1.150   1.567   1.867  0.9474 -0.9522 -2.5612
  803MOL0     H 8398   1.092   1.453   1.997 -1.7415  3.9687  0.9466
  803MOL0     H 8399   0.896   1.400   1.868 -1.1751  0.6420 -1.2342
  803MOL0     H 8400   0.964   1.483   1.726 -0.4969 -0.9668 -0.9505
  803MOL0     H 8401   0.945   1.692   1.864 -0.7480 -0.2921 -0.8488
  803MOL0     H 8402   0.840   1.615   1.992  0.3166 -2.0414  0.1991
  803MOL0     H 8403   0.587   1.711   1.668  1.2539  0.4053 -3.1381
  803MOL0     H 8404   1.353   1.175   2.107 -0.3202  1.3171 -0.9734
  803MOL0     H 8405   1.471   0.969   2.116  2.6740 -0.6171 -1.0809
  804MOL0     O 8406   2.201   2.195   3.704  0.1925 -0.9894 -0.1911
  804MOL0     C 8407   2.167   2.203   3.585  0.0771 -0.9271 -0.1904
  804MOL0     O 8408   2.062   2.139   3.524  0.5506  0.7704 -0.2473
  804MOL0     C 8409   1.986   2.045   3.597 -0.8017 -0.4101 -0.3838
  804MOL0     C 8410   1.846   2.079   3.614  0.4012 -0.1006 -0.0029
  804MOL0     C 8411   1.756   1.992   3.667 -1.2757  0.8608 -0.9433
  804MOL0     C 8412   1.799   1.861   3.696 -0.2774 -1.2676  0.0005
  804MOL0     O 8413   1.720   1.764   3.738  1.2959 -0.1367  0.5146
  804MOL0     C 8414   1.667   1.795   3.871  0.0049 -0.0706  0.5306
  804MOL0     C 8415   1.542   1.716   3.915 -0.3215 -0.2982 -0.2162
  804MOL0     C 8416   1.504   1.747   4.058  0.1081 -0.0389  0.5325
  804MOL0     C 8417   1.399   1.648   4.110  0.5434  0.5804  0.1358
  804MOL0     C 8418   1.269   1.621   4.020 -0.8748  0.1412  0.5185
  804MOL0     C 8419   1.195   1.503   4.077  0.2308 -0.1570 -0.7144
  804MOL0     C 8420   1.044   1.490   4.049  0.5711 -0.3187 -0.0983
  804MOL0     C 8421   1.028   1.462   3.904 -0.1855  0.1101  0.4177
  804MOL0     N 8422   1.062   1.325   3.859 -0.3223  0.5768 -0.7813
  804MOL0     C 8423   1.001   1.213   3.914  0.3769  0.0172  0.1999
  804MOL0     C 8424   1.060   1.101   3.867  0.7467  0.7734 -0.6063
  804MOL0     C 8425   1.036   0.951   3.905 -0.3860 -0.1478  0.2132
  804MOL0     C 8426   0.924   0.898   3.805 -0.1978 -0.2356 -0.4425
  804MOL0     C 8427   0.778   0.924   3.837 -0.7476 -0.0747  0.3464
  804MOL0     C 8428   0.699   0.810   3.776  0.1105 -1.4496 -0.6444
  804MOL0     O 8429   0.554   0.827   3.800  0.4704  0.0527 -0.1716
  804MOL0     C 8430   0.463   0.779   3.701 -0.2562 -0.3611 -1.0667
  804MOL0     C 8431   0.500   0.700   3.590  0.1019 -0.6742 -0.9159
  804MOL0     C 8432   0.405   0.651   3.500  0.8418  0.9780  0.6516
  804MOL0     C 8433   0.458   0.552   3.394  0.7586  0.5655 -0.0148
  804MOL0     C 8434   0.270   0.699   3.504 -0.4440  0.5540 -0.6050
  804MOL0     C 8435   0.178   0.704   3.385 -0.2679 -0.4473  0.3501
  804MOL0     O 8436   0.236   0.744   3.273 -0.7722  0.5052 -0.6570
  804MOL0     C 8437   0.149   0.767   3.167  0.6110 -0.9534 -0.3966
  804MOL0     C 8438   0.107   0.674   3.073 -0.8566  1.0047 -0.6682
  804MOL0     C 8439   0.001   0.707   2.985 -0.1750  0.3603 -0.3911
  804MOL0     C 8440  -0.057   0.835   2.982 -0.3818 -0.1535  0.8707
  804MOL0     O 8441  -0.161   0.867   2.889 -0.1549 -0.6926 -0.5335
  804MOL0     C 8442  -0.285   0.810   2.937  0.0700 -0.5552  0.7893
  804MOL0     C 8443  -0.389   0.928   2.954  0.7803  0.0078 -0.4364
  804MOL0     C 8444  -0.354   1.010   3.080 -0.1806 -0.2956  0.5360
  804MOL0     C 8445  -0.489   1.088   3.117 -0.2986 -0.0102 -0.0474
  804MOL0     C 8446  -0.466   1.197   3.223 -0.1456 -0.7042  0.4143
  804MOL0     C 8447  -0.366   1.308   3.186 -0.0291 -0.1404 -0.0028
  804MOL0     C 8448  -0.389   1.426   3.278 -0.3923 -0.6486 -0.4873
  804MOL0     C 8449  -0.329   1.417   3.412 -0.8836 -0.6776 -0.7610
  804MOL0    Cl 8450  -0.147   1.429   3.404  0.2818  0.5631  0.0569
  804MOL0     C 8451  -0.007   0.935   3.067  0.2586 -0.1726  0.7009
  804MOL0     C 8452   0.099   0.899   3.157 -0.1592  0.0658 -0.1566
  804MOL0     O 8453   0.057   0.689   3.404 -0.1489 -0.1937  0.7039
  804MOL0     C 8454   0.232   0.771   3.619 -0.0464  0.0650 -0.9749
  804MOL0     C 8455   0.330   0.804   3.716 -0.4954  0.0500 -0.3497
  804MOL0     N 8456   1.163   1.149   3.793 -0.3109  0.3345  0.2741
  804MOL0     N 8457   1.165   1.277   3.789  1.1297 -0.5780 -0.2017
  804MOL0     C 8458   1.935   1.832   3.699 -0.6020  0.2082  0.2481
  804MOL0     C 8459   2.026   1.924   3.644 -1.1874 -0.1276 -0.5728
  804MOL0     C 8460   2.269   2.272   3.495 -0.6120 -0.8864  0.3830
  804MOL0     C 8461   2.397   2.303   3.539  0.3365 -1.4160 -0.2753
  804MOL0     C 8462   2.491   2.349   3.454  0.5979 -0.5987  0.4380
  804MOL0     C 8463   2.461   2.361   3.317  0.7946  0.3044 -0.1893
  804MOL0     O 8464   2.562   2.407   3.238  0.9231  0.3407  0.0265
  804MOL0     C 8465   2.521   2.433   3.101  0.0151  0.3169 -0.3724
  804MOL0     C 8466   2.636   2.493   3.023  0.4619 -1.6355 -0.1111
  804MOL0     C 8467   2.697   2.618   3.101 -0.4415  0.0231  0.3830
  804MOL0     C 8468   2.817   2.690   3.033  0.2218 -0.0238  0.8282
  804MOL0     C 8469   2.803   2.722   2.884  0.4766 -0.1054 -0.1098
  804MOL0     C 8470   2.774   2.757   2.771 -0.7272 -0.0180 -0.0281
  804MOL0     C 8471   2.328   2.332   3.272 -0.4184 -0.5854 -1.3230
  804MOL0     C 8472   2.236   2.298   3.363  0.0035  0.2344  0.6257
  804MOL0     H 8473   1.816   2.177   3.578  0.8466 -0.4655 -1.4775
  804MOL0     H 8474   1.652   2.022   3.666 -0.7634  2.8642 -2.5163
  804MOL0     H 8475   1.743   1.795   3.950 -0.5334 -1.2969  1.0749
  804MOL0     H 8476   1.623   1.895   3.871  1.4326  0.6866 -2.3369
  804MOL0     H 8477   1.462   1.730   3.841  2.1939 -0.7745 -3.2518
  804MOL0     H 8478   1.557   1.608   3.906 -3.0228 -0.8240  0.6211
  804MOL0     H 8479   1.597   1.747   4.115  0.5434  1.0433 -0.1473
  804MOL0     H 8480   1.458   1.846   4.062  0.8937  0.3793 -0.3973
  804MOL0     H 8481   1.433   1.547   4.132 -0.9256  0.1370  0.5195
  804MOL0     H 8482   1.360   1.696   4.201 -2.3660  1.1895 -1.2986
  804MOL0     H 8483   1.196   1.703   4.023 -1.0025  0.0022  2.7866
  804MOL0     H 8484   1.299   1.609   3.915  0.3219  2.2514  0.5502
  804MOL0     H 8485   1.240   1.410   4.040 -3.2346 -1.3885 -2.3389
  804MOL0     H 8486   1.217   1.505   4.184 -4.4396 -2.9228  0.6275
  804MOL0     H 8487   0.996   1.408   4.104 -0.4757 -0.1083 -0.6868
  804MOL0     H 8488   0.987   1.580   4.072  2.8901  0.9314  1.1678
  804MOL0     H 8489   1.084   1.540   3.851 -1.3206  1.8142  1.6374
  804MOL0     H 8490   0.925   1.487   3.877  1.7179  4.2873 -4.8002
  804MOL0     H 8491   0.907   1.221   3.966 -1.3168  0.3916 -2.6912
  804MOL0     H 8492   1.131   0.898   3.894  0.8173  1.3378  2.5655
  804MOL0     H 8493   1.007   0.944   4.010  0.2211  0.2235  0.4141
  804MOL0     H 8494   0.938   0.790   3.819 -0.3833 -0.0045  2.0396
  804MOL0     H 8495   0.960   0.916   3.704 -0.3296 -1.6238 -0.7645
  804MOL0     H 8496   0.753   1.025   3.805  2.6806  1.5468  2.2290
  804MOL0     H 8497   0.765   0.904   3.944 -0.1680  1.2989  0.6861
  804MOL0     H 8498   0.729   0.713   3.816  1.3349 -1.0290 -0.4833
  804MOL0     H 8499   0.727   0.818   3.671  1.7015 -0.6184 -0.2012
  804MOL0     H 8500   0.599   0.663   3.613 -1.2221 -3.0753  1.5489
  804MOL0     H 8501   0.378   0.505   3.337  1.1919 -2.3371  1.5477
  804MOL0     H 8502   0.516   0.615   3.326  1.2064 -0.1299 -0.2884
  804MOL0     H 8503   0.517   0.464   3.424 -1.1668 -0.7709 -0.0122
  804MOL0     H 8504   0.147   0.573   3.078 -0.2038  1.2083 -1.5210
  804MOL0     H 8505  -0.042   0.633   2.918  0.8562 -0.0139 -0.6625
  804MOL0     H 8506  -0.324   0.743   2.859 -1.7472  0.0174  1.1654
  804MOL0     H 8507  -0.276   0.754   3.030  4.5438 -1.0282  0.2896
  804MOL0     H 8508  -0.404   0.987   2.863  2.6013 -0.4166 -1.0591
  804MOL0     H 8509  -0.477   0.864   2.965  0.8405  0.0082  0.0779
  804MOL0     H 8510  -0.279   1.086   3.056 -1.3590  0.5873 -0.4906
  804MOL0     H 8511  -0.329   0.944   3.164 -1.1238  0.4409  1.4221
  804MOL0     H 8512  -0.533   1.134   3.028  0.1999 -1.2799 -0.9913
  804MOL0     H 8513  -0.553   1.008   3.155  0.0136 -0.7986 -1.1029
  804MOL0     H 8514  -0.411   1.136   3.296  3.3607  0.4859 -0.9930
  804MOL0     H 8515  -0.558   1.243   3.259  0.5620 -0.1412  1.5414
  804MOL0     H 8516  -0.262   1.276   3.175 -0.3415 -0.9812 -0.6399
  804MOL0     H 8517  -0.394   1.337   3.084  2.4022 -0.3788 -0.7988
  804MOL0     H 8518  -0.494   1.456   3.282  0.1833  1.9299 -1.8142
  804MOL0     H 8519  -0.341   1.517   3.239  0.6252 -0.7169  0.5522
  804MOL0     H 8520  -0.377   1.334   3.463 -0.4742 -0.8403 -0.6418
  804MOL0     H 8521  -0.354   1.511   3.462  0.3891 -0.9483  0.4570
  804MOL0     H 8522  -0.046   1.036   3.055  0.2222 -0.3871 -1.4290
  804MOL0     H 8523   0.138   0.968   3.230 -2.7478 -1.7253  3.1759
  804MOL0     H 8524   0.130   0.804   3.634 -0.3008 -0.6589 -1.0941
  804MOL0     H 8525   0.300   0.863   3.802  0.4054  2.8997 -1.8435
  804MOL0     H 8526   1.974   1.738   3.735 -0.6081  0.5332  1.1151
  804MOL0     H 8527   2.131   1.899   3.631 -1.3025 -0.5495 -0.7009
  804MOL0     H 8528   2.431   2.289   3.641  1.5171 -2.2973 -0.7643
  804MOL0     H 8529   2.581   2.380   3.505 -0.6645  0.0705  2.3976
  804MOL0     H 8530   2.491   2.338   3.057 -3.0094  0.9297  0.1450
  804MOL0     H 8531   2.442   2.508   3.108 -0.9277 -0.7501  0.8330
  804MOL0     H 8532   2.608   2.533   2.926  1.0188 -0.9680 -0.0039
  804MOL0     H 8533   2.715   2.417   3.015  1.5179 -0.8919  2.1949
  804MOL0     H 8534   2.729   2.593   3.202  2.0872  3.3632  0.5744
  804MOL0     H 8535   2.623   2.697   3.115 -1.3937 -0.8745  0.5847
  804MOL0     H 8536   2.915   2.645   3.053 -1.0680 -2.7854  1.4805
  804MOL0     H 8537   2.815   2.786   3.084  0.1520 -0.1830  1.1267
  804MOL0     H 8538   2.756   2.788   2.670  0.8665 -1.2628 -0.7451
  804MOL0     H 8539   2.297   2.326   3.169 -3.0700  0.3924 -0.6639
  804MOL0     H 8540   2.144   2.256   3.325 -1.1221  0.8230  2.5252
  805MOL0     O 8541   2.889  10.499   2.211 -0.5411 -0.7147  0.3057
  805MOL0     C 8542   2.868  10.398   2.274  0.5521  0.4939  0.1390
  805MOL0     O 8543   2.759  10.323   2.267 -0.2246  1.0414  0.3111
  805MOL0     C 8544   2.669  10.344   2.166  0.1529  0.3113  1.8568
  805MOL0     C 8545   2.597  10.228   2.136 -1.0240 -0.7381  0.0789
  805MOL0     C 8546   2.493  10.231   2.043 -0.2196 -0.1209  0.4973
  805MOL0     C 8547   2.442  10.359   1.997 -0.2883 -0.0146 -0.1720
  805MOL0     O 8548   2.331  10.375   1.925  0.4964  0.6443 -0.2724
  805MOL0     C 8549   2.240  10.271   1.878 -0.2556  0.0210  0.1648
  805MOL0     C 8550   2.128  10.317   1.782  0.1685 -0.1908  0.3755
  805MOL0     C 8551   2.043  10.417   1.866 -1.2646 -0.0860  0.0705
  805MOL0     C 8552   1.934  10.466   1.773  0.5244 -0.2680  0.6822
  805MOL0     C 8553   1.822  10.555   1.838 -0.2741 -0.0017 -0.5692
  805MOL0     C 8554   1.701  10.591   1.750  0.7994 -0.4763 -0.0745
  805MOL0     C 8555   1.600  10.476   1.721 -0.1416  0.4131  0.0691
  805MOL0     C 8556   1.520  10.499   1.586 -0.6291 -0.6603 -0.4157
  805MOL0     N 8557   1.427  10.617   1.605 -0.2342 -0.2893 -0.0127
  805MOL0     C 8558   1.314  10.589   1.675  0.3196 -0.2226 -0.0240
  805MOL0     C 8559   1.247  10.705   1.674  0.2021  0.0853 -0.1001
  805MOL0     C 8560   1.111  10.742   1.735 -0.0891  1.0897 -0.1233
  805MOL0     C 8561   1.016  10.618   1.735 -0.0611 -0.2910 -0.2756
  805MOL0     C 8562   0.887  10.639   1.812  0.4137 -0.0871 -0.2901
  805MOL0     C 8563   0.823  10.758   1.762 -0.2780 -0.5288 -0.0400
  805MOL0     O 8564   0.686  10.744   1.804 -0.2486 -0.1919  0.4357
  805MOL0     C 8565   0.579  10.750   1.717 -0.2855 -0.1729  0.5788
  805MOL0     C 8566   0.567  10.855   1.626  0.5529 -0.9730  0.4606
  805MOL0     C 8567   0.443  10.879   1.559 -0.2628 -0.6550 -0.6510
  805MOL0     C 8568   0.444  10.974   1.447  0.7960 -1.1081  0.0901
  805MOL0     C 8569   0.329  10.814   1.594  0.5834  0.5716 -0.1987
  805MOL0     C 8570   0.194  10.835   1.537  0.8142  0.3556  1.1670
  805MOL0     O 8571   0.091  10.748   1.575 -0.5953 -0.3446  0.1409
  805MOL0     C 8572  -0.039  10.754   1.512 -0.7891  0.2020 -0.4195
  805MOL0     C 8573  -0.135  10.655   1.559  0.0889 -0.1632  0.6500
  805MOL0     C 8574  -0.266  10.640   1.510  0.0874 -0.3443 -0.7720
  805MOL0     C 8575  -0.312  10.726   1.408 -0.9830  0.1319 -0.4608
  805MOL0     O 8576  -0.443  10.725   1.360 -0.6768  0.2797 -0.2510
  805MOL0     C 8577  -0.538  10.651   1.441  0.3249  0.3176 -0.4802
  805MOL0     C 8578  -0.675  10.680   1.375 -0.1019  0.3171  0.1711
  805MOL0     C 8579  -0.799  10.602   1.432 -0.3065 -0.0227 -0.1114
  805MOL0     C 8580  -0.883  10.670   1.544 -0.1239  0.1920 -0.1069
  805MOL0     C 8581  -0.988  10.568   1.600 -0.0582  0.2714 -0.5144
  805MOL0     C 8582  -1.108  10.528   1.509 -0.1377 -0.9705  0.3710
  805MOL0     C 8583  -1.230  10.454   1.565  0.1143  0.0517  0.8960
  805MOL0     C 8584  -1.339  10.437   1.462 -0.0767  0.1574  0.0539
  805MOL0    Cl 8585  -1.483  10.365   1.538  0.0513 -0.2218  0.3983
  805MOL0     C 8586  -0.221  10.821   1.359  0.5357  0.4326 -0.9955
  805MOL0     C 8587  -0.091  10.824   1.407  0.0462  0.6864  0.2864
  805MOL0     O 8588   0.174  10.935   1.469 -0.3033 -0.2321  0.2757
  805MOL0     C 8589   0.343  10.707   1.684  0.7025 -0.4327 -0.3621
  805MOL0     C 8590   0.463  10.687   1.751  0.6712  0.1944  0.4150
  805MOL0     N 8591   1.327  10.803   1.624 -0.7094  0.3179  0.0427
  805MOL0     N 8592   1.443  10.749   1.587 -1.1084 -0.4397  0.6533
  805MOL0     C 8593   2.512  10.468   2.034  0.0442 -0.2357  0.5320
  805MOL0     C 8594   2.631  10.469   2.110 -0.8199  0.9724 -0.4196
  805MOL0     C 8595   2.970  10.350   2.370 -0.3723  0.3047 -0.4724
  805MOL0     C 8596   3.105  10.387   2.350  0.3361 -0.0711 -1.0857
  805MOL0     C 8597   3.205  10.341   2.445 -0.1496  0.2464 -0.5485
  805MOL0     C 8598   3.162  10.252   2.551  0.3375 -0.2404 -0.7067
  805MOL0     O 8599   3.248  10.197   2.642  0.6854  0.7367  0.3664
  805MOL0     C 8600   3.366  10.260   2.681  1.1031  0.3372 -0.7133
  805MOL0     C 8601   3.347  10.373   2.784  0.2673 -0.8462 -0.8558
  805MOL0     C 8602   3.293  10.323   2.923 -0.5340 -0.3634  1.0858
  805MOL0     C 8603   3.406  10.269   3.017  0.3039 -0.4694  0.5634
  805MOL0     C 8604   3.338  10.198   3.128 -0.1743  0.0422  0.2942
  805MOL0     C 8605   3.281  10.140   3.222  0.6427  0.5240 -0.1626
  805MOL0     C 8606   3.037  10.207   2.555  0.2584  0.0940 -0.5133
  805MOL0     C 8607   2.939  10.257   2.469  0.3366 -0.1597 -0.3950
  805MOL0     H 8608   2.628  10.132   2.176  0.3013 -0.2194  0.3335
  805MOL0     H 8609   2.441  10.141   2.010 -2.9074  1.0728  1.2074
  805MOL0     H 8610   2.297  10.190   1.831 -0.5529 -1.3874  2.1137
  805MOL0     H 8611   2.195  10.231   1.969  3.2291 -0.6669  1.7493
  805MOL0     H 8612   2.167  10.366   1.693  1.1100  1.5409  1.6614
  805MOL0     H 8613   2.071  10.230   1.749  2.0697 -0.3146 -3.0290
  805MOL0     H 8614   1.993  10.370   1.951 -4.1271 -0.8359 -1.8753
  805MOL0     H 8615   2.099  10.508   1.892 -1.8782  1.0869 -2.4003
  805MOL0     H 8616   1.986  10.511   1.688  0.0090 -1.9766 -0.6297
  805MOL0     H 8617   1.874  10.383   1.732 -1.9239  1.4568  0.5009
  805MOL0     H 8618   1.790  10.497   1.925 -1.0409  0.3171 -0.6282
  805MOL0     H 8619   1.872  10.644   1.878  1.7747 -1.4916  0.3571
  805MOL0     H 8620   1.645  10.662   1.812  1.7129 -0.3343  0.6200
  805MOL0     H 8621   1.739  10.641   1.661  0.9717  1.8274  1.2177
  805MOL0     H 8622   1.661  10.385   1.712  1.5611  1.4718  0.3290
  805MOL0     H 8623   1.533  10.459   1.806 -1.8540  1.3160 -1.0614
  805MOL0     H 8624   1.482  10.401   1.554  3.5792 -2.1198 -1.6434
  805MOL0     H 8625   1.595  10.525   1.511 -0.5701 -1.0922 -0.5077
  805MOL0     H 8626   1.296  10.492   1.721  4.5983  0.3501  3.4544
  805MOL0     H 8627   1.138  10.782   1.832 -0.6746 -0.1180  0.5669
  805MOL0     H 8628   1.058  10.818   1.677 -3.1368 -1.3389 -0.8322
  805MOL0     H 8629   1.065  10.528   1.773 -0.8699  0.6637  3.3892
  805MOL0     H 8630   0.987  10.588   1.633  0.9288 -0.1749 -0.6007
  805MOL0     H 8631   0.918  10.643   1.917  0.7411  0.5066 -0.4032
  805MOL0     H 8632   0.815  10.557   1.808  0.4049 -0.1017  0.1589
  805MOL0     H 8633   0.821  10.765   1.652 -4.5152  1.2015 -0.0475
  805MOL0     H 8634   0.863  10.858   1.777  1.5437 -0.7740 -2.4992
  805MOL0     H 8635   0.650  10.922   1.611  0.1393 -0.4427  0.5082
  805MOL0     H 8636   0.378  11.061   1.456  1.4421 -0.4881 -0.9819
  805MOL0     H 8637   0.546  11.010   1.429 -0.1422  0.9855 -1.4472
  805MOL0     H 8638   0.413  10.914   1.361  0.9176 -0.5560 -0.3398
  805MOL0     H 8639  -0.083  10.581   1.618 -0.0902 -1.4580 -0.7569
  805MOL0     H 8640  -0.331  10.567   1.558  3.4914 -1.4108  2.7123
  805MOL0     H 8641  -0.532  10.542   1.434  3.3332  0.2314  1.4720
  805MOL0     H 8642  -0.530  10.692   1.542 -0.5305  0.5874 -0.5098
  805MOL0     H 8643  -0.690  10.788   1.390  0.3756  0.3385  0.5018
  805MOL0     H 8644  -0.659  10.649   1.271  0.9939 -3.5748  1.3314
  805MOL0     H 8645  -0.758  10.510   1.474  1.1352  0.1328 -1.1145
  805MOL0     H 8646  -0.864  10.569   1.350 -1.5157 -1.7589  1.4758
  805MOL0     H 8647  -0.827  10.706   1.631 -1.0452 -0.8271  0.9564
  805MOL0     H 8648  -0.938  10.755   1.503 -0.3253 -0.1133 -0.4771
  805MOL0     H 8649  -1.024  10.605   1.697  3.0943 -0.9120  1.2356
  805MOL0     H 8650  -0.931  10.478   1.625  0.4438  0.2467 -1.7015
  805MOL0     H 8651  -1.146  10.623   1.469 -1.7880 -0.7958  2.1589
  805MOL0     H 8652  -1.062  10.469   1.430  1.7890 -1.0153  1.4665
  805MOL0     H 8653  -1.262  10.517   1.648  1.5262  1.7790  0.1985
  805MOL0     H 8654  -1.198  10.356   1.602  3.1236  0.8111  0.5814
  805MOL0     H 8655  -1.301  10.381   1.376  1.1016 -1.2334  1.4145
  805MOL0     H 8656  -1.375  10.534   1.426 -3.1901  0.0996  2.6083
  805MOL0     H 8657  -0.271  10.881   1.284  1.6653  2.7743  0.0449
  805MOL0     H 8658  -0.034  10.910   1.370  1.1391 -1.3681 -3.2560
  805MOL0     H 8659   0.257  10.646   1.709 -0.0450 -0.1247 -2.0050
  805MOL0     H 8660   0.471  10.607   1.824  0.2044 -1.3697 -1.1849
  805MOL0     H 8661   2.466  10.561   2.000 -1.9600 -1.2301  0.3881
  805MOL0     H 8662   2.676  10.563   2.142  0.0166  0.4656 -0.0709
  805MOL0     H 8663   3.139  10.460   2.278  1.6427 -0.8593 -1.2968
  805MOL0     H 8664   3.306  10.377   2.431 -0.6357  2.3326  0.8767
  805MOL0     H 8665   3.433  10.185   2.723  2.4611  1.7170 -0.2876
  805MOL0     H 8666   3.426  10.294   2.596 -0.9276 -0.0289 -2.3641
  805MOL0     H 8667   3.292  10.461   2.748 -2.2371 -1.9028  0.1463
  805MOL0     H 8668   3.441  10.419   2.819 -0.8916  0.6391  0.4892
  805MOL0     H 8669   3.204  10.261   2.915  0.1637 -1.1187 -1.9275
  805MOL0     H 8670   3.241  10.402   2.978 -1.7854  0.4857 -1.1857
  805MOL0     H 8671   3.472  10.346   3.058 -0.3364  0.1167  0.5181
  805MOL0     H 8672   3.470  10.205   2.956  0.4286  0.2352 -0.0516
  805MOL0     H 8673   3.236  10.101   3.311 -1.1562 -1.5634 -1.8977
  805MOL0     H 8674   3.008  10.123   2.618 -0.5462  3.0621  3.5172
  805MOL0     H 8675   2.836  10.226   2.477 -0.4565  2.0396 -1.2714
  806MOL0     O 8676   9.030   3.130   9.637 -0.1553  0.6891 -0.6216
  806MOL0     C 8677   9.103   3.035   9.637  0.6416  0.7656  0.3478
  806MOL0     O 8678   9.071   2.902   9.680  0.3995 -0.5027  0.7185
  806MOL0     C 8679   8.946   2.878   9.721  0.1357 -0.6685 -0.4199
  806MOL0     C 8680   8.921   2.798   9.833  0.8572 -0.2251  0.0644
  806MOL0     C 8681   8.785   2.780   9.884  0.5456  0.4224 -0.4931
  806MOL0     C 8682   8.674   2.840   9.821 -0.6088 -0.6953  0.0509
  806MOL0     O 8683   8.546   2.832   9.863  0.3133  0.6568 -0.1558
  806MOL0     C 8684   8.536   2.790  10.003  0.5944 -0.0988  0.0853
  806MOL0     C 8685   8.391   2.817  10.038  0.6162 -0.6987  0.0171
  806MOL0     C 8686   8.347   2.796  10.183  0.0705 -0.2115 -0.1071
  806MOL0     C 8687   8.206   2.842  10.200 -0.9994  0.5344  0.3871
  806MOL0     C 8688   8.154   2.774  10.322  0.0921  0.7297 -0.5265
  806MOL0     C 8689   8.030   2.833  10.370  0.4834  0.5741  0.1512
  806MOL0     C 8690   7.970   2.759  10.489  0.1815 -0.0394  1.1242
  806MOL0     C 8691   7.837   2.817  10.542  0.1428  0.6251  0.2037
  806MOL0     N 8692   7.738   2.829  10.431  0.1015 -0.3047 -0.4844
  806MOL0     C 8693   7.654   2.729  10.387  0.5274 -0.4934 -0.1351
  806MOL0     C 8694   7.551   2.793  10.319 -0.4059  0.4660 -0.2933
  806MOL0     C 8695   7.440   2.746  10.235  0.0779 -0.7173  0.1834
  806MOL0     C 8696   7.359   2.653  10.319  0.2063  0.1879 -0.1140
  806MOL0     C 8697   7.205   2.655  10.280 -0.5133  0.3512 -1.0237
  806MOL0     C 8698   7.148   2.796  10.301 -0.4456 -0.8058  0.3319
  806MOL0     O 8699   7.017   2.804  10.355  0.2053  0.3410 -0.6552
  806MOL0     C 8700   6.907   2.765  10.285  0.0709  0.3305 -0.7994
  806MOL0     C 8701   6.782   2.780  10.355  0.5767  0.2804 -0.0048
  806MOL0     C 8702   6.658   2.768  10.285 -0.6235 -1.0291 -0.5649
  806MOL0     C 8703   6.536   2.796  10.374  0.6953 -0.0349 -0.4294
  806MOL0     C 8704   6.654   2.718  10.152 -0.4379 -0.0281  0.0558
  806MOL0     C 8705   6.527   2.688  10.074 -0.3209  0.2162  0.1138
  806MOL0     O 8706   6.416   2.639  10.144  0.4582 -0.3914  0.0443
  806MOL0     C 8707   6.294   2.621  10.069  0.6047 -0.2005  0.3678
  806MOL0     C 8708   6.289   2.534   9.962  0.6893  1.0682 -0.2093
  806MOL0     C 8709   6.171   2.501   9.901  0.9205 -0.4708  0.0688
  806MOL0     C 8710   6.052   2.563   9.959 -0.2147 -0.4432  0.6393
  806MOL0     O 8711   5.924   2.533   9.918  0.5544  0.1011  0.8356
  806MOL0     C 8712   5.912   2.452   9.798 -0.1408 -0.5819  0.1786
  806MOL0     C 8713   5.755   2.439   9.759  0.1165  0.0288  0.6563
  806MOL0     C 8714   5.736   2.352   9.631 -0.5936 -0.7549 -0.6565
  806MOL0     C 8715   5.593   2.340   9.568 -0.0339  0.2797 -0.2696
  806MOL0     C 8716   5.605   2.265   9.441 -0.4077  0.0485 -0.2596
  806MOL0     C 8717   5.681   2.138   9.427 -0.0065 -0.5222  0.0627
  806MOL0     C 8718   5.626   2.017   9.505  0.3014 -0.1239  0.2352
  806MOL0     C 8719   5.697   1.894   9.482 -0.1484 -0.6055 -0.2014
  806MOL0    Cl 8720   5.597   1.740   9.514 -0.1020  0.3448  0.1849
  806MOL0     C 8721   6.055   2.658  10.055  0.0124  0.1007  0.3043
  806MOL0     C 8722   6.177   2.693  10.114  0.2904  0.2793  0.8371
  806MOL0     O 8723   6.536   2.690   9.951  0.6009 -0.9076 -0.4012
  806MOL0     C 8724   6.779   2.711  10.082  0.1039  0.3082  0.1631
  806MOL0     C 8725   6.900   2.736  10.152  0.1383 -0.9983  0.9615
  806MOL0     N 8726   7.561   2.922  10.345 -0.1563  0.7087  0.3393
  806MOL0     N 8727   7.665   2.942  10.413  0.4497  0.0109 -0.3891
  806MOL0     C 8728   8.700   2.903   9.691  0.2270 -0.3129 -0.2988
  806MOL0     C 8729   8.833   2.929   9.653  0.2496 -0.2846  0.3634
  806MOL0     C 8730   9.238   3.055   9.592 -0.7594  0.4924 -0.5125
  806MOL0     C 8731   9.270   3.162   9.507 -0.2800  0.3678  0.4974
  806MOL0     C 8732   9.398   3.168   9.455 -0.4634 -0.4392  0.4213
  806MOL0     C 8733   9.503   3.087   9.488  0.6124  0.6335  0.3461
  806MOL0     O 8734   9.634   3.098   9.442  0.4435 -0.8865 -0.2391
  806MOL0     C 8735   9.680   3.230   9.413 -0.2947  0.0227  0.2017
  806MOL0     C 8736   9.827   3.231   9.446 -1.1081  0.3982 -0.6345
  806MOL0     C 8737   9.894   3.365   9.399  0.5599  0.4891  0.6865
  806MOL0     C 8738   9.852   3.480   9.477  0.1280  0.4120  0.3240
  806MOL0     C 8739   9.940   3.473   9.595  1.9046 -0.0250 -0.4084
  806MOL0     C 8740  10.031   3.453   9.673  0.2305 -0.0025 -0.7945
  806MOL0     C 8741   9.468   2.980   9.579 -1.2556  0.4037 -0.7695
  806MOL0     C 8742   9.334   2.956   9.619  0.6720 -0.7228 -0.6424
  806MOL0     H 8743   9.000   2.744   9.884  0.4495 -1.0885 -0.2040
  806MOL0     H 8744   8.778   2.728   9.978  0.3342  0.9873 -0.1860
  806MOL0     H 8745   8.554   2.685  10.026 -1.5375 -0.2156  1.5180
  806MOL0     H 8746   8.596   2.854  10.067  1.1009 -0.1496 -0.3335
  806MOL0     H 8747   8.379   2.924  10.015 -4.4742 -1.4434 -2.1450
  806MOL0     H 8748   8.321   2.761   9.975 -1.5075 -0.0576  1.6717
  806MOL0     H 8749   8.367   2.692  10.209 -0.6846 -0.4231 -0.3424
  806MOL0     H 8750   8.418   2.861  10.235 -1.7349  2.1339 -0.3807
  806MOL0     H 8751   8.199   2.948  10.224 -0.0017  0.1717  2.5578
  806MOL0     H 8752   8.155   2.806  10.110  0.9234 -0.7284 -0.2800
  806MOL0     H 8753   8.126   2.670  10.300 -0.1039  0.7786 -0.5118
  806MOL0     H 8754   8.221   2.773  10.408 -1.6599  5.1643  1.2032
  806MOL0     H 8755   8.050   2.937  10.400  0.6547  0.8838 -0.9806
  806MOL0     H 8756   7.967   2.832  10.280  1.1142 -2.3421 -0.3390
  806MOL0     H 8757   7.955   2.656  10.456  2.7092 -0.1775  0.1844
  806MOL0     H 8758   8.036   2.740  10.574 -0.3537 -2.8418  1.0277
  806MOL0     H 8759   7.849   2.915  10.590  3.0815 -0.1293  1.2226
  806MOL0     H 8760   7.786   2.747  10.609  1.4774  0.7565  1.3991
  806MOL0     H 8761   7.667   2.622  10.395 -1.2214 -0.6564  0.9790
  806MOL0     H 8762   7.384   2.832  10.198  1.9667  2.0757  3.2463
  806MOL0     H 8763   7.457   2.694  10.140 -0.5088 -1.0083  0.2291
  806MOL0     H 8764   7.366   2.669  10.427 -0.8385  2.1821 -0.2849
  806MOL0     H 8765   7.400   2.553  10.310  2.7383  1.2804 -1.6986
  806MOL0     H 8766   7.150   2.581  10.338  0.5544 -0.6941 -1.3076
  806MOL0     H 8767   7.203   2.626  10.174 -0.1275  2.8129 -1.7926
  806MOL0     H 8768   7.148   2.852  10.207 -1.2565 -1.5517 -0.1220
  806MOL0     H 8769   7.208   2.851  10.375 -1.4745 -0.4022  0.8897
  806MOL0     H 8770   6.791   2.794  10.463 -0.9949 -0.5598  0.2728
  806MOL0     H 8771   6.538   2.875  10.450 -3.0496 -1.6526  1.6066
  806MOL0     H 8772   6.448   2.808  10.310  1.1176 -0.5147 -1.1057
  806MOL0     H 8773   6.533   2.707  10.437  1.2156 -1.4690 -2.3685
  806MOL0     H 8774   6.383   2.487   9.937  0.9458  2.4218 -2.0616
  806MOL0     H 8775   6.172   2.420   9.828  1.6757 -1.8931  1.5996
  806MOL0     H 8776   5.951   2.504   9.710 -0.4021  0.5664  0.7129
  806MOL0     H 8777   5.951   2.352   9.818  1.8528  0.2493  0.6900
  806MOL0     H 8778   5.705   2.390   9.843  3.0614 -3.4189  0.6166
  806MOL0     H 8779   5.704   2.530   9.728  0.7385  0.9019  2.0770
  806MOL0     H 8780   5.765   2.250   9.658  0.3773 -0.1388  0.7252
  806MOL0     H 8781   5.813   2.383   9.560  0.3981 -3.5029 -0.9007
  806MOL0     H 8782   5.530   2.287   9.640 -1.3693  1.0420 -0.8498
  806MOL0     H 8783   5.549   2.437   9.547 -2.5519 -0.4294  1.3000
  806MOL0     H 8784   5.646   2.341   9.373 -1.6661  2.8316  1.8864
  806MOL0     H 8785   5.503   2.241   9.407 -1.6937  1.3587  2.4034
  806MOL0     H 8786   5.673   2.106   9.323 -2.5469 -0.7533  0.2712
  806MOL0     H 8787   5.780   2.152   9.470 -0.4354  2.1663  0.3442
  806MOL0     H 8788   5.522   2.005   9.474  0.6119  0.1486 -0.9686
  806MOL0     H 8789   5.622   2.041   9.612  0.0966 -0.1097  0.2223
  806MOL0     H 8790   5.775   1.895   9.559  0.3445  0.1834 -0.6899
  806MOL0     H 8791   5.747   1.889   9.385 -0.8211 -1.4547 -0.5168
  806MOL0     H 8792   5.968   2.711  10.092 -1.3846 -2.4901  0.9735
  806MOL0     H 8793   6.200   2.770  10.187  0.6513  2.2339 -1.2204
  806MOL0     H 8794   6.793   2.704   9.975 -1.4454  0.4208 -0.0676
  806MOL0     H 8795   6.988   2.758  10.093 -0.2506 -1.1751  0.3114
  806MOL0     H 8796   8.622   2.957   9.638  0.2833  0.5005  0.4195
  806MOL0     H 8797   8.853   3.005   9.578 -4.4419 -0.1803 -1.0764
  806MOL0     H 8798   9.191   3.227   9.469 -0.6617  0.6319  1.6662
  806MOL0     H 8799   9.420   3.248   9.385  0.8334 -1.2211 -0.1119
  806MOL0     H 8800   9.666   3.236   9.305  0.4589  1.6435  0.1677
  806MOL0     H 8801   9.618   3.305   9.463  1.4691  1.0776  0.9029
  806MOL0     H 8802   9.876   3.147   9.397  0.2324  1.0339 -0.4433
  806MOL0     H 8803   9.845   3.214   9.553 -1.0347 -0.5788 -0.7982
  806MOL0     H 8804   9.861   3.381   9.296  0.0570  0.0854  0.7754
  806MOL0     H 8805  10.002   3.350   9.396  0.3665 -1.0051 -1.2201
  806MOL0     H 8806   9.748   3.495   9.506  0.5366 -0.3080  2.3210
  806MOL0     H 8807   9.866   3.570   9.416 -2.4627 -1.2342 -3.0475
  806MOL0     H 8808  10.111   3.439   9.743 -0.2547  0.5661 -0.1122
  806MOL0     H 8809   9.546   2.913   9.613 -0.7729  0.7528 -1.1702
  806MOL0     H 8810   9.301   2.866   9.669 -4.1769  1.7138  1.2422
  807MOL0     O 8811   5.219   7.205   8.861 -0.5021  0.2696 -0.2034
  807MOL0     C 8812   5.256   7.234   8.976 -0.5421 -0.6649 -0.2320
  807MOL0     O 8813   5.181   7.217   9.091 -0.0410  0.0738  0.2198
  807MOL0     C 8814   5.056   7.171   9.074 -0.0802  0.1136 -0.0080
  807MOL0     C 8815   5.030   7.031   9.059 -0.5428 -0.5925 -0.8143
  807MOL0     C 8816   4.894   6.995   9.050 -0.4392 -0.5017  0.3768
  807MOL0     C 8817   4.783   7.088   9.041  0.7276  0.2332  0.2908
  807MOL0     O 8818   4.653   7.034   9.036  0.0805  0.4360  0.2806
  807MOL0     C 8819   4.550   7.121   8.961  0.2348 -0.5984  0.4668
  807MOL0     C 8820   4.431   7.032   8.928 -0.2594  0.1102 -0.5106
  807MOL0     C 8821   4.350   6.991   9.051  0.6722  0.5153 -0.2496
  807MOL0     C 8822   4.255   6.881   8.998  0.6778  0.6762 -0.0355
  807MOL0     C 8823   4.128   6.871   9.081 -0.1348 -0.2676 -0.0555
  807MOL0     C 8824   4.025   6.792   9.000  0.4416 -0.3686 -0.4961
  807MOL0     C 8825   3.895   6.760   9.077 -0.1461 -0.1632 -0.6964
  807MOL0     C 8826   3.784   6.730   8.977 -0.3067 -0.5474  0.3840
  807MOL0     N 8827   3.726   6.836   8.891  0.7279  0.9517 -0.5820
  807MOL0     C 8828   3.674   6.949   8.962 -0.3717  0.2293  0.0105
  807MOL0     C 8829   3.617   7.017   8.857  0.1517  0.2325  0.0921
  807MOL0     C 8830   3.548   7.154   8.876  0.0713 -0.1225 -0.6505
  807MOL0     C 8831   3.502   7.222   8.746  0.3938 -0.7384  0.8872
  807MOL0     C 8832   3.439   7.356   8.768  0.0914 -0.3614 -0.0411
  807MOL0     C 8833   3.305   7.346   8.854  0.9972  0.5773 -0.1496
  807MOL0     O 8834   3.221   7.278   8.763  0.5458  0.4753 -0.0478
  807MOL0     C 8835   3.088   7.260   8.797 -0.0966  0.3995  0.3668
  807MOL0     C 8836   2.999   7.215   8.700 -0.2205  0.1125  0.0911
  807MOL0     C 8837   2.861   7.202   8.715 -0.0143 -0.3918 -0.0844
  807MOL0     C 8838   2.789   7.159   8.595 -0.3970 -0.4918  0.6966
  807MOL0     C 8839   2.810   7.238   8.838  0.1262  0.2152 -0.6799
  807MOL0     C 8840   2.665   7.224   8.876 -0.0083 -0.7191 -0.8570
  807MOL0     O 8841   2.570   7.251   8.777 -0.1221  0.1933  0.0493
  807MOL0     C 8842   2.439   7.243   8.814  0.3060 -1.6220 -0.6674
  807MOL0     C 8843   2.350   7.174   8.729  0.1290 -0.7649  0.5986
  807MOL0     C 8844   2.217   7.159   8.768  0.6233 -0.4156  0.9588
  807MOL0     C 8845   2.161   7.230   8.872 -0.1730  0.2785  0.1430
  807MOL0     O 8846   2.029   7.233   8.896 -0.1362  0.1583  0.2214
  807MOL0     C 8847   1.976   7.177   9.017 -0.6670 -0.1241 -0.3358
  807MOL0     C 8848   1.825   7.203   9.014  0.6797  0.9680 -0.7054
  807MOL0     C 8849   1.750   7.130   8.889 -0.9137  0.4448 -0.3641
  807MOL0     C 8850   1.596   7.090   8.897  0.7936  0.3683  0.1546
  807MOL0     C 8851   1.509   7.054   8.775  0.0337 -0.0599  0.3590
  807MOL0     C 8852   1.548   6.926   8.715 -0.1359 -0.2750 -0.2269
  807MOL0     C 8853   1.471   6.897   8.590 -0.1432  0.0204  0.0814
  807MOL0     C 8854   1.523   6.760   8.542  0.2589 -0.3346  0.4424
  807MOL0    Cl 8855   1.693   6.749   8.509 -0.5848 -0.0777  0.4386
  807MOL0     C 8856   2.250   7.314   8.943  0.5926  0.1781  0.7271
  807MOL0     C 8857   2.385   7.321   8.916 -0.6298  0.4040  1.1006
  807MOL0     O 8858   2.647   7.174   8.991 -0.0336 -0.3495 -0.3658
  807MOL0     C 8859   2.898   7.273   8.942 -0.2123 -0.2313 -0.1249
  807MOL0     C 8860   3.037   7.280   8.925  0.6602 -0.5996  0.5825
  807MOL0     N 8861   3.626   6.951   8.731  0.1825 -0.2613  0.0530
  807MOL0     N 8862   3.701   6.852   8.762 -0.0922  0.0931 -0.3547
  807MOL0     C 8863   4.812   7.228   9.059  0.3834  0.3660  0.2489
  807MOL0     C 8864   4.950   7.265   9.087  0.6364 -0.4574  1.4316
  807MOL0     C 8865   5.389   7.296   9.000  0.5889 -0.3399 -0.6917
  807MOL0     C 8866   5.433   7.338   9.124 -0.8237  0.4973 -0.2312
  807MOL0     C 8867   5.553   7.404   9.140  0.1757 -0.4340 -0.6807
  807MOL0     C 8868   5.637   7.424   9.033 -0.2291 -0.1769 -0.0431
  807MOL0     O 8869   5.758   7.490   9.042  0.4964 -0.1541  0.0487
  807MOL0     C 8870   5.808   7.537   9.176 -0.2428 -0.7451  0.8539
  807MOL0     C 8871   5.964   7.544   9.176  1.0412  0.8795 -0.7984
  807MOL0     C 8872   6.026   7.409   9.170 -0.3738  0.0133 -0.3778
  807MOL0     C 8873   6.174   7.420   9.134 -0.0684 -0.0646 -0.1506
  807MOL0     C 8874   6.259   7.464   9.240 -0.2526  0.5775 -0.7589
  807MOL0     C 8875   6.335   7.514   9.319 -0.4637 -0.2497  0.0347
  807MOL0     C 8876   5.599   7.380   8.908  1.0912 -0.5726 -0.5834
  807MOL0     C 8877   5.476   7.317   8.892 -0.4153  0.2523 -0.7753
  807MOL0     H 8878   5.104   6.952   9.053 -2.6822 -2.6826 -0.9807
  807MOL0     H 8879   4.874   6.889   9.051  0.6494 -0.7260 -0.2628
  807MOL0     H 8880   4.510   7.204   9.020  0.0167 -1.5431  1.6660
  807MOL0     H 8881   4.589   7.148   8.862 -0.3416 -3.6724 -0.7015
  807MOL0     H 8882   4.367   7.094   8.865  0.2593  1.7224  0.5023
  807MOL0     H 8883   4.474   6.946   8.875  2.5436  0.9144  0.3242
  807MOL0     H 8884   4.404   6.945   9.135  1.6851 -0.8532 -1.5869
  807MOL0     H 8885   4.297   7.083   9.077 -0.4221 -0.0090 -0.5726
  807MOL0     H 8886   4.230   6.896   8.893  1.5654  1.7832 -0.1136
  807MOL0     H 8887   4.311   6.787   8.995  0.2216  0.2764  2.0250
  807MOL0     H 8888   4.135   6.828   9.181 -0.4936 -0.4063 -0.0907
  807MOL0     H 8889   4.103   6.977   9.092  0.5335 -0.1531  0.4736
  807MOL0     H 8890   3.997   6.846   8.909 -2.7514 -1.9820 -0.5921
  807MOL0     H 8891   4.074   6.698   8.975  0.7859 -1.1239  2.6301
  807MOL0     H 8892   3.924   6.688   9.155 -0.0748  3.5769  3.1221
  807MOL0     H 8893   3.875   6.838   9.151  2.0279 -1.3937  1.3319
  807MOL0     H 8894   3.710   6.684   9.044  0.7903  0.8435  2.6918
  807MOL0     H 8895   3.825   6.649   8.917 -2.0951 -1.4916  0.3709
  807MOL0     H 8896   3.687   6.978   9.065  2.7153 -2.6542  0.5871
  807MOL0     H 8897   3.462   7.158   8.943  0.3328  2.9017 -0.3664
  807MOL0     H 8898   3.626   7.215   8.922  1.8856 -2.8374  0.1010
  807MOL0     H 8899   3.430   7.151   8.704  1.8250 -2.5638  1.3620
  807MOL0     H 8900   3.596   7.237   8.693  1.4740  0.0661  2.9130
  807MOL0     H 8901   3.420   7.410   8.675  3.1511 -2.1709 -1.8871
  807MOL0     H 8902   3.511   7.422   8.819  1.5284 -1.1676 -0.9820
  807MOL0     H 8903   3.261   7.445   8.872 -1.4779 -0.3490 -0.7097
  807MOL0     H 8904   3.297   7.293   8.949 -0.7296 -0.3673 -0.7648
  807MOL0     H 8905   3.056   7.198   8.609  0.7567  0.5403  0.6061
  807MOL0     H 8906   2.689   7.124   8.621 -0.5856 -2.1657 -1.8630
  807MOL0     H 8907   2.768   7.233   8.517 -1.5989 -1.5143 -0.0060
  807MOL0     H 8908   2.836   7.073   8.546 -0.5613 -0.1248 -0.1244
  807MOL0     H 8909   2.377   7.132   8.633 -1.7274  0.4110 -0.5148
  807MOL0     H 8910   2.153   7.089   8.714  1.7360  1.2497 -2.8317
  807MOL0     H 8911   2.009   7.073   9.026 -1.9959 -0.4077  1.6711
  807MOL0     H 8912   2.015   7.236   9.100 -0.7441  1.6715 -1.5276
  807MOL0     H 8913   1.797   7.158   9.109  2.9055 -0.0363 -0.4704
  807MOL0     H 8914   1.801   7.310   9.011 -0.1806  0.8456  0.9373
  807MOL0     H 8915   1.813   7.047   8.856 -2.9534 -1.4644  0.3552
  807MOL0     H 8916   1.763   7.206   8.811  1.7922 -0.3729 -0.8197
  807MOL0     H 8917   1.588   7.002   8.961  1.6617 -1.7057 -2.3928
  807MOL0     H 8918   1.543   7.158   8.963  0.3779 -4.3615  5.4351
  807MOL0     H 8919   1.520   7.141   8.709  2.4359 -1.6267 -1.4648
  807MOL0     H 8920   1.406   7.030   8.800 -0.1741 -0.7313 -1.0541
  807MOL0     H 8921   1.656   6.937   8.698  0.8156 -0.8853  4.1496
  807MOL0     H 8922   1.539   6.846   8.789  1.0508  0.9541  1.3225
  807MOL0     H 8923   1.492   6.969   8.511  1.6935  1.4571  1.7719
  807MOL0     H 8924   1.364   6.885   8.610  0.0747 -0.9554  0.7529
  807MOL0     H 8925   1.477   6.725   8.449  0.7931 -1.7076  0.6642
  807MOL0     H 8926   1.508   6.682   8.618  1.4408  0.6138  1.7111
  807MOL0     H 8927   2.218   7.379   9.024 -4.0439  0.0480 -0.7344
  807MOL0     H 8928   2.461   7.373   8.974  1.0598 -1.3818  0.5983
  807MOL0     H 8929   2.868   7.291   9.044  0.8412  6.5031 -0.5476
  807MOL0     H 8930   3.110   7.302   9.002 -0.7691 -0.6273  2.0070
  807MOL0     H 8931   4.743   7.311   9.072  2.4877  2.1187  0.7524
  807MOL0     H 8932   4.983   7.365   9.112  1.5483 -1.2718  3.6787
  807MOL0     H 8933   5.366   7.327   9.208  1.7868  1.3391  2.0969
  807MOL0     H 8934   5.571   7.446   9.238  1.5964 -0.7478 -0.7799
  807MOL0     H 8935   5.770   7.634   9.210 -1.5265 -1.2305  0.8694
  807MOL0     H 8936   5.788   7.461   9.253  0.8255 -1.5054  0.3959
  807MOL0     H 8937   5.999   7.597   9.265  0.0168 -3.2626  2.3536
  807MOL0     H 8938   5.990   7.610   9.092  0.1462  1.1169 -0.8908
  807MOL0     H 8939   5.974   7.344   9.099 -0.4987  1.2834 -1.4829
  807MOL0     H 8940   6.022   7.367   9.271 -0.7860  1.5642  0.2852
  807MOL0     H 8941   6.192   7.491   9.054  1.1404  0.2269  0.3608
  807MOL0     H 8942   6.214   7.323   9.102 -0.5756 -0.1602 -0.5029
  807MOL0     H 8943   6.412   7.524   9.393 -0.1188  2.7265 -0.6128
  807MOL0     H 8944   5.669   7.406   8.829 -1.7311 -1.0766 -3.4348
  807MOL0     H 8945   5.454   7.277   8.794  1.2912  0.7393 -1.4027
  808MOL0     O 8946   9.846   0.053   2.795  0.1640  0.8316  0.2459
  808MOL0     C 8947   9.799  -0.059   2.784  0.6617  0.1075 -0.1102
  808MOL0     O 8948   9.854  -0.165   2.728  0.9320  0.2354 -0.8273
  808MOL0     C 8949   9.968  -0.147   2.664  0.5110 -0.3065 -0.5615
  808MOL0     C 8950  10.083  -0.178   2.729 -0.1128  1.1006 -0.5204
  808MOL0     C 8951  10.197  -0.165   2.661 -0.6586  0.4410  0.0448
  808MOL0     C 8952  10.208  -0.089   2.539  0.2559  0.1523  0.0116
  808MOL0     O 8953  10.323  -0.050   2.480 -0.5796 -0.6021 -0.1027
  808MOL0     C 8954  10.422   0.031   2.550 -0.1185 -0.0628 -0.1167
  808MOL0     C 8955  10.491   0.122   2.446  0.3418  0.8506 -0.1379
  808MOL0     C 8956  10.609   0.209   2.497 -0.1969  0.2704 -0.3744
  808MOL0     C 8957  10.676   0.286   2.395  0.0686  0.0940 -0.8174
  808MOL0     C 8958  10.805   0.364   2.450 -0.2415  0.6606 -0.5382
  808MOL0     C 8959  10.865   0.472   2.368  0.4161 -0.1337  0.1144
  808MOL0     C 8960  10.805   0.621   2.390  0.0208 -0.4914 -0.2629
  808MOL0     C 8961  10.672   0.659   2.316  0.9074  0.8017  0.2516
  808MOL0     N 8962  10.539   0.612   2.377 -0.0165 -0.3266  0.0845
  808MOL0     C 8963  10.506   0.559   2.502  0.8068 -0.2294  0.2061
  808MOL0     C 8964  10.377   0.523   2.499  0.4927  0.8622  0.5651
  808MOL0     C 8965  10.306   0.452   2.605  0.4240  0.3538  0.1119
  808MOL0     C 8966  10.157   0.422   2.581  0.2242  0.5690 -0.2760
  808MOL0     C 8967  10.140   0.305   2.488 -1.2775  0.2115 -0.1244
  808MOL0     C 8968  10.003   0.257   2.478 -0.6281  0.5524 -0.0557
  808MOL0     O 8969   9.904   0.354   2.426  0.0131  0.0530 -0.4525
  808MOL0     C 8970   9.773   0.353   2.463  0.2710 -0.8036 -0.5778
  808MOL0     C 8971   9.698   0.461   2.417 -0.5579 -0.4258  0.1704
  808MOL0     C 8972   9.567   0.465   2.464 -0.3114  0.9018  0.8810
  808MOL0     C 8973   9.484   0.568   2.394  0.2281 -0.4010 -0.0860
  808MOL0     C 8974   9.509   0.360   2.542 -0.0810  0.2548 -0.0346
  808MOL0     C 8975   9.375   0.361   2.597  0.8643 -0.2103  0.5850
  808MOL0     O 8976   9.352   0.319   2.719  0.4419  0.3847 -0.6745
  808MOL0     C 8977   9.221   0.279   2.761 -0.4386 -0.3919 -1.1755
  808MOL0     C 8978   9.140   0.200   2.677 -0.2701  0.0586 -0.5501
  808MOL0     C 8979   9.016   0.154   2.716  1.2857 -0.3589  0.6481
  808MOL0     C 8980   8.958   0.199   2.845 -0.3864  0.1172 -0.2852
  808MOL0     O 8981   8.840   0.158   2.903  0.1934 -0.0736 -0.4749
  808MOL0     C 8982   8.758   0.068   2.834  0.2295  0.0200 -0.3128
  808MOL0     C 8983   8.641   0.006   2.920 -0.1133 -0.5338  0.7663
  808MOL0     C 8984   8.543  -0.062   2.825 -0.4310  0.6708 -0.0963
  808MOL0     C 8985   8.432  -0.136   2.910  0.0489 -0.0996 -0.4013
  808MOL0     C 8986   8.301  -0.050   2.918  0.4330 -0.4121  0.3225
  808MOL0     C 8987   8.185  -0.126   2.997  0.1282  0.8730 -0.9244
  808MOL0     C 8988   8.172  -0.098   3.144  0.5813 -0.4904  0.3141
  808MOL0     C 8989   8.277  -0.164   3.233 -0.4151 -0.6997  0.1047
  808MOL0    Cl 8990   8.395  -0.032   3.285 -0.0581  0.1100  0.0580
  808MOL0     C 8991   9.043   0.268   2.930 -0.7030 -0.3823  0.3987
  808MOL0     C 8992   9.173   0.311   2.888 -0.3802  0.6737  0.7196
  808MOL0     O 8993   9.282   0.407   2.518  0.0278 -0.7733 -0.3686
  808MOL0     C 8994   9.589   0.255   2.589  0.3061  0.3001 -0.5712
  808MOL0     C 8995   9.720   0.249   2.540 -0.1112  0.5513 -0.5287
  808MOL0     N 8996  10.326   0.560   2.374  0.2240  0.7952  0.9780
  808MOL0     N 8997  10.421   0.620   2.306  0.6752 -0.6511 -0.3241
  808MOL0     C 8998  10.092  -0.057   2.474 -0.5911  0.2237  0.1436
  808MOL0     C 8999   9.968  -0.076   2.537 -0.2206  0.2420 -0.3009
  808MOL0     C 9000   9.661  -0.080   2.847  0.3421 -0.3094  0.1949
  808MOL0     C 9001   9.611   0.002   2.949  0.2494  0.1595  0.2950
  808MOL0     C 9002   9.481   0.001   2.988  0.1507 -0.1678  0.5376
  808MOL0     C 9003   9.396  -0.102   2.946 -0.1427  0.2409  0.4208
  808MOL0     O 9004   9.275  -0.109   3.007  0.5205  0.1656 -0.0136
  808MOL0     C 9005   9.188  -0.224   2.993 -0.1795  0.3766  0.4099
  808MOL0     C 9006   9.054  -0.176   3.044  0.0726 -0.7497  0.1303
  808MOL0     C 9007   8.931  -0.261   3.010 -0.0601  0.0209 -0.7500
  808MOL0     C 9008   8.874  -0.342   3.126  0.4670  0.6478  0.5351
  808MOL0     C 9009   8.801  -0.264   3.228 -1.3772  0.2739  0.3077
  808MOL0     C 9010   8.748  -0.187   3.308  0.0630  0.5792  0.0523
  808MOL0     C 9011   9.445  -0.203   2.860 -0.6406 -0.0775  0.0632
  808MOL0     C 9012   9.572  -0.192   2.811 -0.4168  0.0088 -0.2495
  808MOL0     H 9013  10.088  -0.203   2.834 -0.9128  2.0899 -0.2278
  808MOL0     H 9014  10.283  -0.207   2.713 -0.7513  1.0980  0.7359
  808MOL0     H 9015  10.367   0.094   2.621  0.7865 -0.9730  1.4540
  808MOL0     H 9016  10.486  -0.035   2.610 -1.0209 -0.6273  0.2623
  808MOL0     H 9017  10.531   0.053   2.371 -0.7321 -0.8611  0.7861
  808MOL0     H 9018  10.429   0.192   2.390  2.9226  1.8690 -1.8831
  808MOL0     H 9019  10.572   0.270   2.579 -0.3083 -0.7630  0.3722
  808MOL0     H 9020  10.683   0.139   2.538  0.0560  0.2735 -0.8221
  808MOL0     H 9021  10.711   0.216   2.318  5.6491 -1.3828  2.4864
  808MOL0     H 9022  10.607   0.357   2.349  0.3199  0.2538 -0.9536
  808MOL0     H 9023  10.772   0.401   2.548 -2.6491 -2.9401  0.2098
  808MOL0     H 9024  10.882   0.290   2.471 -1.8691 -1.4315 -1.5809
  808MOL0     H 9025  10.969   0.480   2.399  1.0623  0.5900 -2.1187
  808MOL0     H 9026  10.869   0.451   2.261  0.5979 -1.5480  0.3772
  808MOL0     H 9027  10.801   0.641   2.497 -1.6167 -1.4437 -0.1144
  808MOL0     H 9028  10.880   0.691   2.351 -0.1959 -0.1680 -0.1049
  808MOL0     H 9029  10.673   0.640   2.208 -1.4799  0.1407  0.2967
  808MOL0     H 9030  10.664   0.768   2.325  2.6884  1.0786 -0.9253
  808MOL0     H 9031  10.573   0.547   2.586  3.8300 -0.4480 -2.0753
  808MOL0     H 9032  10.360   0.357   2.617  3.2186  1.5828 -1.7305
  808MOL0     H 9033  10.316   0.510   2.698  1.4512  2.0587 -0.9987
  808MOL0     H 9034  10.104   0.508   2.539  1.9113  1.1717 -1.2813
  808MOL0     H 9035  10.121   0.391   2.679  1.7739 -1.8364 -0.3912
  808MOL0     H 9036  10.199   0.218   2.517  0.0713  1.3200  0.5763
  808MOL0     H 9037  10.177   0.332   2.388 -1.7477 -0.3145 -0.4477
  808MOL0     H 9038   9.977   0.224   2.579  0.0838 -0.8341 -0.3034
  808MOL0     H 9039  10.017   0.171   2.413  1.6327 -1.6309  3.0038
  808MOL0     H 9040   9.732   0.544   2.357 -3.3252  1.1259  0.5818
  808MOL0     H 9041   9.550   0.647   2.356  1.1420 -1.6785 -1.2805
  808MOL0     H 9042   9.440   0.527   2.303 -0.4799 -0.6655  0.3690
  808MOL0     H 9043   9.398   0.602   2.453 -0.3118 -0.4328 -0.8370
  808MOL0     H 9044   9.186   0.183   2.580 -1.0751  1.9409 -1.3069
  808MOL0     H 9045   8.955   0.083   2.661  0.0090  0.1742  1.3371
  808MOL0     H 9046   8.712   0.111   2.745 -0.0401 -3.2612 -1.9272
  808MOL0     H 9047   8.818  -0.017   2.798 -1.2883 -1.1865 -0.1083
  808MOL0     H 9048   8.675  -0.066   2.994 -1.0451  0.6228  2.3946
  808MOL0     H 9049   8.591   0.087   2.975  1.6963  0.6624  0.7302
  808MOL0     H 9050   8.600  -0.133   2.765 -0.7318  1.0369 -0.8328
  808MOL0     H 9051   8.495   0.012   2.760  0.9270  2.0649  0.3956
  808MOL0     H 9052   8.413  -0.233   2.863  1.2573 -0.6933  0.2802
  808MOL0     H 9053   8.467  -0.173   3.007  1.2624 -1.0190 -1.1728
  808MOL0     H 9054   8.274  -0.019   2.816  0.6179 -2.3450 -0.3594
  808MOL0     H 9055   8.323   0.044   2.970  0.3824  0.1915 -0.7098
  808MOL0     H 9056   8.091  -0.084   2.960 -1.1038 -1.5776 -0.8020
  808MOL0     H 9057   8.184  -0.235   2.985 -0.5442  0.6840  0.6255
  808MOL0     H 9058   8.077  -0.146   3.170  0.6712 -0.3412  0.9265
  808MOL0     H 9059   8.162   0.010   3.159  0.9423 -0.3243 -0.5912
  808MOL0     H 9060   8.327  -0.252   3.190  0.8686 -0.7703  1.6544
  808MOL0     H 9061   8.224  -0.192   3.324 -0.2418  1.9900  1.1122
  808MOL0     H 9062   9.006   0.319   3.018  0.0459  0.0072  0.5051
  808MOL0     H 9063   9.230   0.373   2.957 -0.3390  1.4125  0.0379
  808MOL0     H 9064   9.551   0.176   2.652  0.0857  0.8999  0.0553
  808MOL0     H 9065   9.785   0.172   2.580 -1.1237 -1.1357 -1.9593
  808MOL0     H 9066  10.095  -0.002   2.381  0.4409 -0.8579 -0.4893
  808MOL0     H 9067   9.876  -0.033   2.498  1.3249  3.1426 -1.0206
  808MOL0     H 9068   9.674   0.078   2.994 -0.0177  0.8793 -0.5265
  808MOL0     H 9069   9.460   0.077   3.063  0.8893 -0.0748  0.6561
  808MOL0     H 9070   9.184  -0.264   2.891  2.3070  3.9528 -1.2827
  808MOL0     H 9071   9.217  -0.310   3.055  0.7551  1.9683  2.2605
  808MOL0     H 9072   9.043  -0.072   3.013 -2.7879 -0.6190  1.2758
  808MOL0     H 9073   9.063  -0.172   3.153  0.6373 -0.4008  0.0767
  808MOL0     H 9074   8.959  -0.326   2.926 -2.5695 -2.5606  0.2391
  808MOL0     H 9075   8.848  -0.203   2.969 -1.7253  0.6635  3.1677
  808MOL0     H 9076   8.956  -0.403   3.166 -0.3722 -1.7516 -1.2102
  808MOL0     H 9077   8.809  -0.416   3.079  0.6615  0.4639  0.5482
  808MOL0     H 9078   8.702  -0.112   3.369  2.0076 -1.6835  4.7511
  808MOL0     H 9079   9.391  -0.292   2.829  2.8784 -2.4822  0.3068
  808MOL0     H 9080   9.602  -0.261   2.732 -1.4171 -1.5756  0.7045
  809MOL0     O 9081   5.818   2.818   4.750 -0.3240 -0.3122 -0.4669
  809MOL0     C 9082   5.893   2.773   4.665  0.1766 -0.0675 -0.7324
  809MOL0     O 9083   5.874   2.654   4.593 -0.4958 -1.0710 -0.0400
  809MOL0     C 9084   5.754   2.620   4.539  0.8503  0.9537 -0.2220
  809MOL0     C 9085   5.651   2.708   4.520 -0.1457  0.3612  0.8925
  809MOL0     C 9086   5.525   2.672   4.467  0.6559  0.4556  0.1718
  809MOL0     C 9087   5.510   2.536   4.433 -1.1211 -0.8594 -0.8895
  809MOL0     O 9088   5.395   2.475   4.400 -0.4338 -0.1145  0.9666
  809MOL0     C 9089   5.280   2.557   4.390  0.8556  0.0447 -0.5043
  809MOL0     C 9090   5.153   2.467   4.410  0.1503  0.2201  0.4555
  809MOL0     C 9091   5.160   2.340   4.314  0.2700  0.7765 -0.6510
  809MOL0     C 9092   5.019   2.273   4.326 -0.3312 -0.2491 -0.2606
  809MOL0     C 9093   5.012   2.173   4.211 -0.0286 -0.3717  0.0480
  809MOL0     C 9094   4.868   2.121   4.211 -0.0045 -0.0335 -0.2920
  809MOL0     C 9095   4.763   2.213   4.154 -0.3581  1.0945  0.6971
  809MOL0     C 9096   4.636   2.127   4.121 -0.4541 -1.3291 -0.0459
  809MOL0     N 9097   4.524   2.214   4.082  0.6515  0.2348  0.2802
  809MOL0     C 9098   4.522   2.306   3.983 -0.8843  0.5825 -1.4108
  809MOL0     C 9099   4.411   2.376   4.000 -0.2676 -0.8280  0.0558
  809MOL0     C 9100   4.359   2.504   3.922 -0.9979  0.3322  0.1473
  809MOL0     C 9101   4.286   2.474   3.783 -0.5490  0.3311 -0.0050
  809MOL0     C 9102   4.150   2.408   3.804  0.2357 -0.2330  0.1250
  809MOL0     C 9103   4.054   2.444   3.689 -0.3456 -0.0286 -0.6074
  809MOL0     O 9104   3.937   2.365   3.698  0.3320  0.7493  0.0872
  809MOL0     C 9105   3.838   2.374   3.605 -0.2198  0.5495 -0.1427
  809MOL0     C 9106   3.727   2.293   3.612 -0.4511  0.0419  0.3093
  809MOL0     C 9107   3.628   2.276   3.512  0.4349 -0.8119  0.9012
  809MOL0     C 9108   3.529   2.167   3.538 -0.2741  0.9937  0.1382
  809MOL0     C 9109   3.647   2.354   3.395  0.2242  0.2314  0.2410
  809MOL0     C 9110   3.574   2.332   3.263  0.0142 -0.0053 -0.8293
  809MOL0     O 9111   3.515   2.210   3.247  0.3407 -0.7590  0.4330
  809MOL0     C 9112   3.450   2.177   3.130  0.6867  0.8371 -0.6006
  809MOL0     C 9113   3.507   2.214   3.007  0.6868  0.4546 -0.4965
  809MOL0     C 9114   3.441   2.170   2.890  0.2787  0.5545 -0.3302
  809MOL0     C 9115   3.329   2.079   2.888 -0.3066 -0.6605 -1.1368
  809MOL0     O 9116   3.272   2.023   2.776  0.2205 -0.3595 -0.1634
  809MOL0     C 9117   3.147   2.083   2.736 -0.4752 -1.0280 -0.4507
  809MOL0     C 9118   3.011   2.017   2.788  0.0917 -0.1147  0.4642
  809MOL0     C 9119   2.983   1.883   2.713  0.4087  0.0582  0.5774
  809MOL0     C 9120   2.827   1.838   2.728 -0.4787 -0.3715  0.2379
  809MOL0     C 9121   2.793   1.720   2.629  0.0137  0.5637 -0.1759
  809MOL0     C 9122   2.643   1.713   2.582 -0.4247 -0.7508 -0.2656
  809MOL0     C 9123   2.595   1.854   2.535  0.2517 -0.2320 -0.8883
  809MOL0     C 9124   2.499   1.859   2.417  0.4444 -0.1514 -0.2380
  809MOL0    Cl 9125   2.455   2.021   2.352 -0.3746 -0.3580  0.0408
  809MOL0     C 9126   3.289   2.030   3.019  0.3138 -0.5277 -0.3944
  809MOL0     C 9127   3.344   2.086   3.137  0.1225 -0.2923 -0.4412
  809MOL0     O 9128   3.570   2.429   3.187 -0.2195  0.6822  0.1190
  809MOL0     C 9129   3.741   2.458   3.401  0.0760 -0.1955  0.1464
  809MOL0     C 9130   3.833   2.462   3.502 -0.3431  0.5332  1.1204
  809MOL0     N 9131   4.333   2.314   4.093  0.2122  0.1608  0.5626
  809MOL0     N 9132   4.402   2.224   4.147 -0.8086 -0.0821  0.0087
  809MOL0     C 9133   5.614   2.445   4.448 -1.3256 -0.1493 -0.6127
  809MOL0     C 9134   5.741   2.488   4.501  0.9807  0.0216  0.2835
  809MOL0     C 9135   6.031   2.845   4.665 -0.0715  0.5662 -0.9896
  809MOL0     C 9136   6.145   2.771   4.636 -0.8116  0.5410  0.0211
  809MOL0     C 9137   6.263   2.837   4.617 -0.7703 -1.2666  0.1402
  809MOL0     C 9138   6.285   2.970   4.657  0.1115 -0.8253 -0.9376
  809MOL0     O 9139   6.406   3.040   4.655 -0.2856  0.2771 -0.3195
  809MOL0     C 9140   6.524   2.970   4.620 -0.2316  0.0314  0.3315
  809MOL0     C 9141   6.648   3.064   4.643 -0.0233  1.0908  0.7412
  809MOL0     C 9142   6.674   3.157   4.521  0.1011 -0.1159 -0.3369
  809MOL0     C 9143   6.799   3.243   4.527  0.2711 -0.4009  0.1977
  809MOL0     C 9144   6.791   3.342   4.419 -1.3749 -0.0267  0.0822
  809MOL0     C 9145   6.802   3.422   4.332  0.5585 -0.8546  0.3275
  809MOL0     C 9146   6.171   3.053   4.698  0.1566  0.7597 -1.1795
  809MOL0     C 9147   6.047   2.987   4.698 -0.0601 -0.7486  0.5807
  809MOL0     H 9148   5.665   2.813   4.543  0.5869  0.2123  1.1603
  809MOL0     H 9149   5.450   2.750   4.467  0.6596  0.4622 -0.2144
  809MOL0     H 9150   5.269   2.638   4.463 -3.7398  0.6019 -1.5030
  809MOL0     H 9151   5.289   2.587   4.285 -2.3848 -0.7220 -1.1136
  809MOL0     H 9152   5.148   2.437   4.515  0.9581  0.3678  0.5415
  809MOL0     H 9153   5.061   2.517   4.379  0.1797  0.4940  0.8088
  809MOL0     H 9154   5.176   2.375   4.212 -2.5896  0.0293 -1.4564
  809MOL0     H 9155   5.244   2.274   4.337 -0.9418 -0.2924  0.9839
  809MOL0     H 9156   5.013   2.234   4.428 -0.8941 -0.0889 -0.2271
  809MOL0     H 9157   4.947   2.353   4.307  1.8152  1.1116 -3.6269
  809MOL0     H 9158   5.039   2.211   4.112 -0.8252  4.1686  1.3564
  809MOL0     H 9159   5.077   2.092   4.245  3.4822  2.2803  0.2072
  809MOL0     H 9160   4.865   2.027   4.155 -3.8627  0.6120 -1.5080
  809MOL0     H 9161   4.854   2.091   4.316 -0.5334 -0.4965 -0.4901
  809MOL0     H 9162   4.741   2.286   4.233 -3.2222 -0.8070  1.8131
  809MOL0     H 9163   4.797   2.249   4.057 -1.6048 -0.1077 -0.2261
  809MOL0     H 9164   4.613   2.077   4.216  1.4713  0.5016  1.5152
  809MOL0     H 9165   4.654   2.062   4.035  2.2192 -1.8272  0.8035
  809MOL0     H 9166   4.608   2.312   3.917  3.2494  0.5950  3.3592
  809MOL0     H 9167   4.302   2.574   3.984  1.3245  2.3909  0.1156
  809MOL0     H 9168   4.447   2.564   3.898 -0.5860 -1.3353 -2.9523
  809MOL0     H 9169   4.350   2.422   3.710 -0.7399 -0.4812  0.3934
  809MOL0     H 9170   4.258   2.571   3.740 -3.3205  0.0010  0.8294
  809MOL0     H 9171   4.106   2.447   3.896 -1.3494  0.4496 -0.8780
  809MOL0     H 9172   4.177   2.303   3.819  4.9217  0.6073 -0.6969
  809MOL0     H 9173   4.109   2.439   3.594  0.3608 -0.7396 -0.1737
  809MOL0     H 9174   4.022   2.549   3.685  0.1414  0.1402 -0.1351
  809MOL0     H 9175   3.697   2.242   3.702 -1.3608 -0.5455 -0.3019
  809MOL0     H 9176   3.573   2.073   3.503 -1.4691  0.0481  1.1124
  809MOL0     H 9177   3.519   2.158   3.646 -0.7550  0.3699  0.0488
  809MOL0     H 9178   3.433   2.172   3.486  0.3622  0.0555 -1.2025
  809MOL0     H 9179   3.595   2.277   2.998  0.9008  0.3854  0.8960
  809MOL0     H 9180   3.483   2.192   2.792 -0.3403  0.8931 -0.5236
  809MOL0     H 9181   3.149   2.189   2.764  2.1502 -0.6924 -1.6337
  809MOL0     H 9182   3.144   2.085   2.627 -0.9538  2.6071 -0.4954
  809MOL0     H 9183   3.026   2.008   2.897  0.4977  0.9958  0.5102
  809MOL0     H 9184   2.930   2.085   2.762  0.6082 -0.0551 -1.0564
  809MOL0     H 9185   3.055   1.806   2.739  1.3883  0.0493 -1.8891
  809MOL0     H 9186   3.000   1.919   2.611  0.0183  0.7938  0.7601
  809MOL0     H 9187   2.804   1.799   2.828 -0.8119 -0.1946  0.2325
  809MOL0     H 9188   2.766   1.926   2.706  3.2160  2.2511 -0.5316
  809MOL0     H 9189   2.812   1.623   2.675 -0.2194 -0.6646 -2.5107
  809MOL0     H 9190   2.857   1.725   2.540 -0.8499  1.2027 -0.7805
  809MOL0     H 9191   2.632   1.651   2.492  1.2939  0.2275 -1.1913
  809MOL0     H 9192   2.574   1.671   2.656 -0.4801 -0.3938 -0.1112
  809MOL0     H 9193   2.686   1.909   2.508  1.6102 -2.8969 -2.1653
  809MOL0     H 9194   2.548   1.912   2.615 -0.7909 -1.5420 -0.5042
  809MOL0     H 9195   2.410   1.797   2.436  0.3837 -0.1021 -0.3550
  809MOL0     H 9196   2.555   1.827   2.329  1.3339  1.0163 -0.1140
  809MOL0     H 9197   3.211   1.955   3.019  0.6036 -0.8461  0.8351
  809MOL0     H 9198   3.315   2.050   3.236 -0.4203  0.9734 -0.1239
  809MOL0     H 9199   3.768   2.518   3.315  0.6797 -0.4202  0.1732
  809MOL0     H 9200   3.916   2.531   3.493 -0.3663  0.7226  2.3208
  809MOL0     H 9201   5.588   2.340   4.440 -1.1909 -0.3528  1.1109
  809MOL0     H 9202   5.818   2.414   4.516  1.0246  0.0687  0.2921
  809MOL0     H 9203   6.137   2.665   4.613 -1.9885  1.0952 -2.4684
  809MOL0     H 9204   6.343   2.787   4.563  1.0253  0.6965  0.8140
  809MOL0     H 9205   6.531   2.879   4.681 -0.0870 -1.1791 -1.4291
  809MOL0     H 9206   6.522   2.937   4.516  2.5762  2.0677 -0.4895
  809MOL0     H 9207   6.739   3.007   4.660  0.2028  1.1186 -0.3077
  809MOL0     H 9208   6.616   3.123   4.730 -0.3299  2.0307  0.0126
  809MOL0     H 9209   6.594   3.225   4.490  1.7288  0.8518 -2.7566
  809MOL0     H 9210   6.690   3.102   4.428 -3.0665  0.5465 -1.4050
  809MOL0     H 9211   6.887   3.179   4.522  0.8829  0.1224  3.0362
  809MOL0     H 9212   6.805   3.292   4.624  0.2470  1.6613 -0.7896
  809MOL0     H 9213   6.822   3.486   4.249  4.0651 -1.2774  0.6921
  809MOL0     H 9214   6.181   3.155   4.736 -2.2678  0.3611  0.8265
  809MOL0     H 9215   5.954   3.031   4.733 -0.1757 -2.1097  2.1225
  810MOL0     O 9216   6.614   0.524   8.500 -0.0627 -0.2399  0.2518
  810MOL0     C 9217   6.625   0.592   8.392  0.2818  0.1570  0.3276
  810MOL0     O 9218   6.532   0.595   8.292  0.3529  0.4547  0.1436
  810MOL0     C 9219   6.412   0.525   8.311 -0.6511  0.3569  0.7011
  810MOL0     C 9220   6.359   0.451   8.194 -1.3221 -0.4118 -0.6866
  810MOL0     C 9221   6.243   0.375   8.208 -0.7072 -0.6691 -0.2994
  810MOL0     C 9222   6.168   0.381   8.321 -0.4029  0.3893 -0.3482
  810MOL0     O 9223   6.046   0.317   8.311 -0.3440  0.4683  0.3285
  810MOL0     C 9224   5.967   0.315   8.431  1.2928  0.0313  0.2760
  810MOL0     C 9225   5.841   0.234   8.403  0.3939 -0.8187  0.5797
  810MOL0     C 9226   5.747   0.230   8.514 -0.1119 -0.2881 -0.2323
  810MOL0     C 9227   5.673   0.361   8.530  0.4144  0.1241  0.2501
  810MOL0     C 9228   5.570   0.349   8.644 -0.0247  0.0868  0.4189
  810MOL0     C 9229   5.496   0.477   8.666  0.2692 -0.6192 -1.0761
  810MOL0     C 9230   5.388   0.474   8.777 -0.5662  0.3538 -0.0610
  810MOL0     C 9231   5.254   0.427   8.712  0.4059  0.7057 -0.7921
  810MOL0     N 9232   5.184   0.529   8.627 -0.5204 -0.0919  0.3960
  810MOL0     C 9233   5.122   0.645   8.663  0.1087  0.3803 -0.4470
  810MOL0     C 9234   5.088   0.700   8.541 -0.4241  0.5045  0.3758
  810MOL0     C 9235   5.026   0.833   8.513  0.1047 -0.7891 -0.0275
  810MOL0     C 9236   5.114   0.921   8.436 -0.0027 -0.3228 -0.0806
  810MOL0     C 9237   5.066   1.072   8.466 -0.4365 -0.3989 -0.2852
  810MOL0     C 9238   5.151   1.177   8.392 -0.1562  0.0541  0.1849
  810MOL0     O 9239   5.161   1.313   8.442  0.5935 -0.2098 -0.4894
  810MOL0     C 9240   5.240   1.331   8.553 -0.0667 -0.4928 -0.8569
  810MOL0     C 9241   5.168   1.354   8.676  0.3852 -0.2968 -0.5163
  810MOL0     C 9242   5.234   1.372   8.803  0.1761  0.4211 -0.1409
  810MOL0     C 9243   5.149   1.394   8.924 -1.0561  0.2831 -1.1811
  810MOL0     C 9244   5.377   1.378   8.802 -0.6056  0.2154 -0.6600
  810MOL0     C 9245   5.458   1.395   8.925 -0.8180  0.0054  0.7375
  810MOL0     O 9246   5.577   1.330   8.929 -0.8335  0.1851  1.1363
  810MOL0     C 9247   5.617   1.330   9.061 -0.4694  0.4042  0.0036
  810MOL0     C 9248   5.685   1.439   9.121 -1.4681  1.0423 -0.3653
  810MOL0     C 9249   5.747   1.422   9.255 -0.0203  1.6245  0.3485
  810MOL0     C 9250   5.721   1.303   9.324 -0.6204  0.5577 -0.2018
  810MOL0     O 9251   5.723   1.292   9.463 -0.2803 -0.3886  0.2758
  810MOL0     C 9252   5.704   1.418   9.536 -0.0864  0.2448 -0.1944
  810MOL0     C 9253   5.707   1.376   9.680 -0.0358  0.0295 -0.2235
  810MOL0     C 9254   5.573   1.302   9.723  0.5972  0.8806  0.6207
  810MOL0     C 9255   5.574   1.294   9.876  0.5606 -0.8670 -0.6981
  810MOL0     C 9256   5.476   1.195   9.939  0.2221  0.4171 -0.3489
  810MOL0     C 9257   5.332   1.226   9.904 -0.2719 -0.5275 -0.2135
  810MOL0     C 9258   5.232   1.144   9.984  0.3317 -0.6000  0.3140
  810MOL0     C 9259   5.227   1.000   9.923 -0.6257 -0.4206 -0.2215
  810MOL0    Cl 9260   5.100   0.912  10.028 -0.0704  0.0256  0.0656
  810MOL0     C 9261   5.677   1.191   9.255  0.2296 -0.0645  0.3021
  810MOL0     C 9262   5.623   1.206   9.126 -0.5314  0.0877  0.1548
  810MOL0     O 9263   5.425   1.485   9.003 -0.3490 -0.5649 -0.9619
  810MOL0     C 9264   5.445   1.360   8.682 -0.4622 -0.2572  0.3611
  810MOL0     C 9265   5.380   1.341   8.563 -0.1035  0.3128  0.0625
  810MOL0     N 9266   5.122   0.612   8.439  0.2745  0.7138 -0.0273
  810MOL0     N 9267   5.173   0.508   8.491  0.3878  0.1272 -0.3331
  810MOL0     C 9268   6.220   0.458   8.433 -0.1005  0.9012  0.5518
  810MOL0     C 9269   6.346   0.526   8.428  0.9887 -0.6681  0.9743
  810MOL0     C 9270   6.750   0.656   8.358 -0.5866 -0.1667 -0.3439
  810MOL0     C 9271   6.765   0.725   8.243 -0.0615  0.5584  0.6353
  810MOL0     C 9272   6.884   0.796   8.202  0.2219 -0.3304  0.3023
  810MOL0     C 9273   6.989   0.792   8.291 -0.7459 -0.0486  0.7839
  810MOL0     O 9274   7.113   0.846   8.267 -1.4441  0.1441 -0.3287
  810MOL0     C 9275   7.135   0.932   8.166 -0.8011 -0.1992  0.0682
  810MOL0     C 9276   7.279   0.981   8.164 -0.2366  0.4522  0.6925
  810MOL0     C 9277   7.303   1.112   8.093 -1.0151 -0.0155  0.4556
  810MOL0     C 9278   7.205   1.219   8.154  0.1742 -0.9139 -0.9746
  810MOL0     C 9279   7.225   1.244   8.296 -0.3456 -0.2656  0.8969
  810MOL0     C 9280   7.247   1.273   8.411 -0.2567 -0.2527 -0.0087
  810MOL0     C 9281   6.983   0.707   8.400 -1.0063 -0.0947 -0.0866
  810MOL0     C 9282   6.864   0.650   8.437  0.6710 -0.6911 -0.1628
  810MOL0     H 9283   6.416   0.462   8.103 -1.0776 -1.6719 -0.6963
  810MOL0     H 9284   6.201   0.311   8.131 -1.0121 -2.9909  1.7014
  810MOL0     H 9285   6.010   0.250   8.508  0.1462 -1.7327 -0.5153
  810MOL0     H 9286   5.946   0.415   8.470 -1.0412  0.6751 -2.3429
  810MOL0     H 9287   5.796   0.282   8.315 -0.1343 -2.0416  0.1655
  810MOL0     H 9288   5.874   0.134   8.373 -0.0059 -1.0978  1.0770
  810MOL0     H 9289   5.676   0.151   8.488  0.0490  0.0086 -1.6117
  810MOL0     H 9290   5.788   0.211   8.614 -2.9313  1.9176  1.5194
  810MOL0     H 9291   5.746   0.442   8.541 -1.3771  2.1297 -1.6504
  810MOL0     H 9292   5.611   0.382   8.442 -0.0961 -0.9876  0.3364
  810MOL0     H 9293   5.489   0.282   8.613 -1.8422  1.0105  2.8219
  810MOL0     H 9294   5.617   0.318   8.738 -0.2351  2.6474  1.4445
  810MOL0     H 9295   5.576   0.531   8.718 -1.0724 -0.1879  0.6295
  810MOL0     H 9296   5.476   0.532   8.573  2.2971 -2.6216 -2.8085
  810MOL0     H 9297   5.418   0.402   8.853 -3.3189  2.5275  3.4232
  810MOL0     H 9298   5.371   0.570   8.827  1.8148  0.9604 -0.2995
  810MOL0     H 9299   5.189   0.408   8.798  1.0558  1.0750 -0.2099
  810MOL0     H 9300   5.264   0.331   8.660  0.1917 -0.4110  1.1507
  810MOL0     H 9301   5.093   0.672   8.764  1.5942 -2.2635  0.7952
  810MOL0     H 9302   4.930   0.815   8.464  0.6839 -4.8382 -0.0204
  810MOL0     H 9303   5.015   0.886   8.608  2.0310  0.7097 -0.5721
  810MOL0     H 9304   5.120   0.894   8.330  1.0921 -2.2413  0.4286
  810MOL0     H 9305   5.217   0.901   8.468  1.0114 -2.1140 -3.9331
  810MOL0     H 9306   5.062   1.094   8.573  0.9443 -1.4617  0.0257
  810MOL0     H 9307   4.959   1.079   8.442 -0.9927 -0.4860  1.9622
  810MOL0     H 9308   5.116   1.198   8.290  0.8570  0.5786 -0.0725
  810MOL0     H 9309   5.253   1.139   8.383 -0.6328 -0.8256 -2.2353
  810MOL0     H 9310   5.059   1.353   8.668  0.2179  1.8836  0.7284
  810MOL0     H 9311   5.046   1.369   8.898 -0.6578 -1.4449 -1.1951
  810MOL0     H 9312   5.186   1.320   8.995 -0.5266  1.7694  0.1569
  810MOL0     H 9313   5.144   1.495   8.964  1.0492  0.3891 -1.1001
  810MOL0     H 9314   5.688   1.536   9.071 -3.3341  0.9459 -0.7433
  810MOL0     H 9315   5.805   1.497   9.308 -0.5372  3.0891 -1.0551
  810MOL0     H 9316   5.787   1.484   9.510  0.7341 -0.7318 -0.0894
  810MOL0     H 9317   5.609   1.463   9.507 -1.3964 -1.8616  0.5632
  810MOL0     H 9318   5.792   1.307   9.693 -1.1681 -1.5256 -0.8407
  810MOL0     H 9319   5.723   1.452   9.758  0.5113 -3.6996  3.7376
  810MOL0     H 9320   5.552   1.205   9.678 -4.2543  1.3812  1.1836
  810MOL0     H 9321   5.488   1.367   9.700 -0.9108 -0.4707  2.1189
  810MOL0     H 9322   5.677   1.272   9.905  0.6428 -0.3476 -0.5810
  810MOL0     H 9323   5.541   1.391   9.913 -0.9894 -0.7504 -2.2912
  810MOL0     H 9324   5.492   1.191  10.047  0.5345 -1.2913 -0.4351
  810MOL0     H 9325   5.504   1.094   9.908  0.1982  0.1234  0.5636
  810MOL0     H 9326   5.318   1.332   9.930  1.5090 -0.6349  1.3837
  810MOL0     H 9327   5.312   1.200   9.799 -3.0420  0.3401  0.0037
  810MOL0     H 9328   5.134   1.192   9.979  1.0050  0.7847 -0.3186
  810MOL0     H 9329   5.261   1.139  10.089 -1.8795  0.6593  1.0371
  810MOL0     H 9330   5.325   0.953   9.928 -0.9483 -1.5102 -2.7293
  810MOL0     H 9331   5.192   1.008   9.820  1.0142 -0.7185 -0.8280
  810MOL0     H 9332   5.681   1.098   9.311  0.7485 -0.3662 -0.2136
  810MOL0     H 9333   5.581   1.115   9.083  0.5100  0.5417 -1.9678
  810MOL0     H 9334   5.553   1.370   8.678 -0.6262  2.0482  0.2310
  810MOL0     H 9335   5.440   1.321   8.475  2.9982  1.7442  1.6638
  810MOL0     H 9336   6.158   0.459   8.522 -0.6184 -1.5432  0.2952
  810MOL0     H 9337   6.389   0.583   8.510 -0.1734  1.6103  0.0642
  810MOL0     H 9338   6.683   0.735   8.173 -0.4517 -0.4001  0.9347
  810MOL0     H 9339   6.883   0.858   8.113 -1.8551  1.5183  1.4958
  810MOL0     H 9340   7.117   0.885   8.069 -2.0552 -1.8635  1.0484
  810MOL0     H 9341   7.053   1.002   8.182 -2.4220 -1.9070 -0.3355
  810MOL0     H 9342   7.342   0.910   8.110 -0.3840  1.0147 -0.2674
  810MOL0     H 9343   7.322   0.992   8.264  2.6164  2.5980 -0.5982
  810MOL0     H 9344   7.280   1.117   7.987  0.1184  1.8556  0.2687
  810MOL0     H 9345   7.403   1.153   8.110 -0.8568  0.2991 -1.1439
  810MOL0     H 9346   7.102   1.196   8.128 -0.8083  1.2396  0.6943
  810MOL0     H 9347   7.221   1.314   8.103 -0.8871  0.2398  0.7438
  810MOL0     H 9348   7.254   1.295   8.515 -2.5684 -0.0984  0.1599
  810MOL0     H 9349   7.080   0.695   8.447  1.5639  5.0828 -3.2113
  810MOL0     H 9350   6.864   0.599   8.533  3.6926  0.7203  0.7178
  811MOL0     O 9351   6.972   4.591   2.890 -0.3087 -0.6984 -0.4901
  811MOL0     C 9352   6.972   4.472   2.914 -0.4776 -0.3834 -0.1973
  811MOL0     O 9353   7.077   4.394   2.918  0.5597 -0.1376 -0.4290
  811MOL0     C 9354   7.190   4.434   2.858 -0.2314  0.4909  0.3115
  811MOL0     C 9355   7.296   4.497   2.928 -0.0941  0.2771  0.1560
  811MOL0     C 9356   7.416   4.521   2.852  0.4456 -0.0108  0.9178
  811MOL0     C 9357   7.421   4.490   2.710  0.7495 -0.1703 -1.1399
  811MOL0     O 9358   7.514   4.519   2.624  0.4774  0.1010  0.6774
  811MOL0     C 9359   7.590   4.631   2.637 -0.6840  0.0129 -0.1828
  811MOL0     C 9360   7.512   4.756   2.600  0.5515  0.7983  0.7447
  811MOL0     C 9361   7.463   4.753   2.452  0.2953  0.8807 -0.2389
  811MOL0     C 9362   7.439   4.889   2.393  0.5620  0.0552  0.0167
  811MOL0     C 9363   7.464   4.887   2.239  0.0044 -0.3107 -0.2945
  811MOL0     C 9364   7.353   4.797   2.172  0.8045 -0.4266  0.1451
  811MOL0     C 9365   7.213   4.856   2.170  0.4467  0.5426  0.1923
  811MOL0     C 9366   7.177   4.932   2.045 -0.2229  0.1059  0.1376
  811MOL0     N 9367   7.037   4.982   2.057  1.4700 -0.2678 -0.1602
  811MOL0     C 9368   6.932   4.920   1.994  0.2740 -1.0158  0.3158
  811MOL0     C 9369   6.826   5.011   1.995  0.0141 -0.9402 -0.2264
  811MOL0     C 9370   6.693   4.995   1.926  0.2176  0.0054 -0.7087
  811MOL0     C 9371   6.576   5.006   2.026  0.0959  1.2190 -0.1197
  811MOL0     C 9372   6.455   4.948   1.952 -0.1065 -0.4631 -0.2902
  811MOL0     C 9373   6.323   4.953   2.033  0.3175  0.1043  1.0675
  811MOL0     O 9374   6.221   4.943   1.934  0.2163  0.0560  0.4126
  811MOL0     C 9375   6.092   4.998   1.946  0.1812 -0.4537 -0.1229
  811MOL0     C 9376   6.018   5.043   1.834 -0.3944 -0.5360  0.0933
  811MOL0     C 9377   5.885   5.077   1.846  0.5256 -0.2179 -0.8611
  811MOL0     C 9378   5.812   5.103   1.716 -1.1044  0.5519 -0.2717
  811MOL0     C 9379   5.832   5.091   1.979 -0.9092  0.2969  0.6609
  811MOL0     C 9380   5.698   5.148   2.006 -0.1228  0.2027  0.1934
  811MOL0     O 9381   5.676   5.206   2.132 -0.1319  0.4212  0.0918
  811MOL0     C 9382   5.550   5.252   2.173  0.6277  0.4000 -0.1393
  811MOL0     C 9383   5.521   5.247   2.308  0.8359 -0.1302 -0.0677
  811MOL0     C 9384   5.399   5.292   2.358 -0.5937  0.2639 -0.5279
  811MOL0     C 9385   5.298   5.333   2.264 -0.2989 -0.7016 -0.1519
  811MOL0     O 9386   5.178   5.344   2.326  0.4334 -0.0948 -0.0394
  811MOL0     C 9387   5.070   5.412   2.271  0.5480  0.6783 -0.1931
  811MOL0     C 9388   4.972   5.294   2.235 -0.8680  0.7682 -0.0687
  811MOL0     C 9389   4.833   5.333   2.195  0.8128 -0.1023  0.0741
  811MOL0     C 9390   4.815   5.392   2.056 -0.3828  0.5703 -0.2356
  811MOL0     C 9391   4.675   5.441   2.032 -0.1192  0.3599  0.0066
  811MOL0     C 9392   4.666   5.472   1.883 -0.5159 -0.1100 -0.1387
  811MOL0     C 9393   4.527   5.533   1.862 -0.1520 -0.1251  0.0008
  811MOL0     C 9394   4.513   5.598   1.726 -0.3496  0.3665  0.1318
  811MOL0    Cl 9395   4.642   5.720   1.699  0.2544 -0.3117 -0.0998
  811MOL0     C 9396   5.325   5.355   2.126 -0.3465 -0.5884 -1.4209
  811MOL0     C 9397   5.451   5.301   2.080  0.4578  0.1650 -0.1803
  811MOL0     O 9398   5.611   5.107   1.929 -0.1062 -0.3690 -0.2760
  811MOL0     C 9399   5.906   5.050   2.090 -0.0307 -0.4825  0.6384
  811MOL0     C 9400   6.030   4.996   2.065 -0.1682 -0.7456  0.0322
  811MOL0     N 9401   6.869   5.121   2.074 -0.9207  0.4739  0.8126
  811MOL0     N 9402   6.995   5.100   2.112  0.3337  0.2051 -0.2441
  811MOL0     C 9403   7.310   4.425   2.655 -0.8482 -0.1260  0.2486
  811MOL0     C 9404   7.193   4.400   2.722 -0.4867  0.1300 -0.1608
  811MOL0     C 9405   6.838   4.409   2.934 -0.1611 -0.3237 -0.7494
  811MOL0     C 9406   6.717   4.479   2.921 -0.3319  0.0234  0.0375
  811MOL0     C 9407   6.605   4.410   2.911 -0.3172  0.3480  0.3054
  811MOL0     C 9408   6.594   4.272   2.915 -0.4697  0.1358 -0.8517
  811MOL0     O 9409   6.480   4.205   2.911  0.4868  0.0415 -0.0125
  811MOL0     C 9410   6.365   4.282   2.871  0.8974 -0.9986 -0.3734
  811MOL0     C 9411   6.248   4.184   2.859 -0.0681 -0.2334 -0.2926
  811MOL0     C 9412   6.234   4.116   2.720 -0.1204 -0.3749  0.0972
  811MOL0     C 9413   6.088   4.073   2.706 -0.0144 -0.1587 -0.4789
  811MOL0     C 9414   5.997   4.185   2.671  0.2023  1.0175  0.2192
  811MOL0     C 9415   5.918   4.278   2.648 -0.1624  0.2468  0.1523
  811MOL0     C 9416   6.710   4.208   2.949 -1.1746  0.3446 -0.7056
  811MOL0     C 9417   6.839   4.271   2.956 -0.9859  0.1508  0.3981
  811MOL0     H 9418   7.278   4.517   3.033  2.5584  1.4912  0.4528
  811MOL0     H 9419   7.502   4.571   2.893  0.6117 -0.0983  0.6797
  811MOL0     H 9420   7.622   4.646   2.740  1.6646 -2.6052 -0.4361
  811MOL0     H 9421   7.681   4.621   2.577  2.4315  0.8565  3.9654
  811MOL0     H 9422   7.432   4.795   2.663  0.4258  3.7609 -1.0407
  811MOL0     H 9423   7.578   4.843   2.596  2.6212 -0.6781  1.0444
  811MOL0     H 9424   7.548   4.715   2.395 -0.2758  1.0648 -1.2334
  811MOL0     H 9425   7.371   4.698   2.430  0.5941  1.4756 -3.4553
  811MOL0     H 9426   7.335   4.909   2.418  0.8505 -1.3920  2.8586
  811MOL0     H 9427   7.507   4.965   2.435 -1.7280  0.1046  4.2321
  811MOL0     H 9428   7.449   4.992   2.213  0.9148 -0.4095 -1.2955
  811MOL0     H 9429   7.560   4.838   2.220  0.8113 -0.7210  3.8148
  811MOL0     H 9430   7.384   4.781   2.068 -0.7187 -1.9647 -0.1172
  811MOL0     H 9431   7.358   4.696   2.213  0.4147 -0.1380  0.9169
  811MOL0     H 9432   7.147   4.769   2.173 -0.6621  1.3097 -0.9120
  811MOL0     H 9433   7.186   4.909   2.262 -0.4645 -2.0766  1.5359
  811MOL0     H 9434   7.193   4.873   1.955 -3.1019 -1.8506  0.7820
  811MOL0     H 9435   7.240   5.022   2.049 -0.5960  0.3514  0.6315
  811MOL0     H 9436   6.924   4.821   1.949 -1.6121 -0.4463 -0.7059
  811MOL0     H 9437   6.678   5.073   1.850 -1.6683 -1.2649 -1.7148
  811MOL0     H 9438   6.687   4.898   1.875  0.3241  0.4364 -1.5650
  811MOL0     H 9439   6.561   5.111   2.053  2.7624  2.2436 -2.1733
  811MOL0     H 9440   6.603   4.949   2.116 -0.2763  0.0658 -0.7277
  811MOL0     H 9441   6.477   4.849   1.913  1.5704 -0.2890  0.1373
  811MOL0     H 9442   6.446   5.015   1.866 -2.8868 -0.6195 -0.2020
  811MOL0     H 9443   6.320   5.055   2.074  0.7016  0.7947 -0.5576
  811MOL0     H 9444   6.311   4.884   2.118 -2.4557  1.0603  1.5421
  811MOL0     H 9445   6.058   5.039   1.733  1.7942 -1.2384  0.9266
  811MOL0     H 9446   5.735   5.028   1.697 -1.4315  1.1060 -1.2111
  811MOL0     H 9447   5.748   5.192   1.722 -1.8589 -0.0540  1.0376
  811MOL0     H 9448   5.883   5.101   1.633 -1.7930  0.7608 -0.8767
  811MOL0     H 9449   5.597   5.203   2.372  0.8711 -4.1833 -2.4952
  811MOL0     H 9450   5.372   5.273   2.461 -4.2885 -0.5815 -1.4911
  811MOL0     H 9451   5.027   5.463   2.358  0.5534 -1.5380  1.2028
  811MOL0     H 9452   5.085   5.474   2.183  1.3245 -1.9552 -2.0365
  811MOL0     H 9453   5.007   5.233   2.151  1.4519  2.5284 -0.4686
  811MOL0     H 9454   4.970   5.229   2.323  2.2739  0.3578 -0.1734
  811MOL0     H 9455   4.790   5.397   2.272  1.0403  1.1395 -0.8075
  811MOL0     H 9456   4.776   5.240   2.203 -1.0321  1.0165  0.4489
  811MOL0     H 9457   4.884   5.477   2.050 -0.9585  1.0683  0.1553
  811MOL0     H 9458   4.835   5.304   1.994 -0.3220  1.1650 -1.0751
  811MOL0     H 9459   4.647   5.517   2.106  1.4115 -0.1645  1.1751
  811MOL0     H 9460   4.611   5.356   2.057  1.3766 -0.8434 -0.1295
  811MOL0     H 9461   4.737   5.552   1.857  0.4969 -0.3775  1.6300
  811MOL0     H 9462   4.692   5.389   1.816  0.8875 -1.3447  1.8019
  811MOL0     H 9463   4.504   5.608   1.938 -1.9914  0.8948 -1.4598
  811MOL0     H 9464   4.446   5.459   1.870  0.2551 -0.4067  1.9140
  811MOL0     H 9465   4.412   5.640   1.723 -0.2569  0.5428 -0.7875
  811MOL0     H 9466   4.511   5.522   1.648 -0.8599 -1.3356  1.7247
  811MOL0     H 9467   5.250   5.381   2.053 -1.7896 -1.8941 -0.4696
  811MOL0     H 9468   5.471   5.313   1.974 -1.9117 -3.5769 -1.2562
  811MOL0     H 9469   5.865   5.055   2.191  1.6006  3.6823  1.2643
  811MOL0     H 9470   6.085   4.934   2.134 -3.7990 -3.9565  0.3949
  811MOL0     H 9471   7.306   4.391   2.552 -0.3001 -1.7985  0.7617
  811MOL0     H 9472   7.121   4.340   2.666 -0.6278 -2.0013  2.1347
  811MOL0     H 9473   6.699   4.584   2.900 -0.9285 -0.0848 -0.0210
  811MOL0     H 9474   6.524   4.478   2.886 -0.0634 -0.3206 -2.6199
  811MOL0     H 9475   6.347   4.352   2.953  3.2256 -0.9323  0.1590
  811MOL0     H 9476   6.357   4.333   2.775 -2.0391 -0.7770 -0.1179
  811MOL0     H 9477   6.153   4.231   2.887 -0.8981 -2.5112  0.9511
  811MOL0     H 9478   6.266   4.111   2.938 -0.6890 -0.4414 -0.3362
  811MOL0     H 9479   6.293   4.024   2.712  0.2114 -0.4775  2.8437
  811MOL0     H 9480   6.256   4.184   2.638 -0.6912  1.2636  1.2576
  811MOL0     H 9481   6.071   4.013   2.797 -1.4781 -0.1315 -0.7029
  811MOL0     H 9482   6.084   4.009   2.617 -1.6806  3.2167 -3.0393
  811MOL0     H 9483   5.850   4.357   2.625 -2.4684 -1.1443  1.7525
  811MOL0     H 9484   6.693   4.105   2.978 -1.1652  0.8217  1.0767
  811MOL0     H 9485   6.928   4.208   2.954  0.7961  2.5122 -2.1431
  812MOL0     O 9486   3.466   0.713   1.866 -0.5370 -0.2019  0.3842
  812MOL0     C 9487   3.533   0.771   1.952 -1.1260 -0.3587  0.0722
  812MOL0     O 9488   3.661   0.747   1.986  0.1041 -0.2003  0.2175
  812MOL0     C 9489   3.718   0.626   1.953  0.1445 -0.1567  0.2022
  812MOL0     C 9490   3.863   0.632   1.946  0.3631 -0.4174  0.5739
  812MOL0     C 9491   3.928   0.519   1.908 -0.2848  0.1087 -0.0948
  812MOL0     C 9492   3.866   0.401   1.875  0.5855  0.6763 -0.1572
  812MOL0     O 9493   3.937   0.284   1.859 -0.1088  0.1984  0.5894
  812MOL0     C 9494   3.970   0.259   1.722  1.3662  0.0117 -0.5181
  812MOL0     C 9495   4.100   0.179   1.732 -0.8062 -0.2931 -0.4148
  812MOL0     C 9496   4.066   0.031   1.761 -0.1069 -0.3708  0.4780
  812MOL0     C 9497   4.194  -0.053   1.764 -0.3067  0.4973 -0.2050
  812MOL0     C 9498   4.158  -0.195   1.806  0.1957  0.6920  0.0584
  812MOL0     C 9499   4.271  -0.276   1.858 -0.2900 -0.2177 -0.3651
  812MOL0     C 9500   4.224  -0.408   1.910  1.5245 -0.1398 -0.1131
  812MOL0     C 9501   4.190  -0.403   2.063  0.0341 -0.6126  0.1061
  812MOL0     N 9502   4.056  -0.348   2.100 -0.6329 -0.4495  0.1258
  812MOL0     C 9503   4.025  -0.211   2.135  0.0591 -0.2363 -0.5109
  812MOL0     C 9504   3.893  -0.216   2.156 -0.6878  0.3236  0.4943
  812MOL0     C 9505   3.807  -0.093   2.199 -0.6148  0.1771  0.8482
  812MOL0     C 9506   3.703  -0.080   2.092  0.5281  0.6973 -0.0800
  812MOL0     C 9507   3.622   0.047   2.119  0.4713  0.2781 -0.3400
  812MOL0     C 9508   3.519   0.034   2.235 -0.7333 -1.1686 -0.4719
  812MOL0     O 9509   3.595   0.037   2.358  0.5803 -0.1855 -0.7893
  812MOL0     C 9510   3.542   0.090   2.477  0.1882  0.1406  1.3693
  812MOL0     C 9511   3.408   0.081   2.518  0.1968  0.5331 -0.2321
  812MOL0     C 9512   3.363   0.115   2.638 -0.8158 -0.4794  0.6967
  812MOL0     C 9513   3.212   0.097   2.672  0.1964 -0.1635  0.4535
  812MOL0     C 9514   3.444   0.198   2.721  0.5769  0.0828  0.7312
  812MOL0     C 9515   3.387   0.273   2.829  0.6089  0.8400 -0.7209
  812MOL0     O 9516   3.403   0.412   2.826 -0.1783 -0.6358 -0.6104
  812MOL0     C 9517   3.341   0.488   2.921 -0.5293  0.0511  0.5833
  812MOL0     C 9518   3.210   0.536   2.919 -0.6756  0.0419 -0.4161
  812MOL0     C 9519   3.169   0.630   3.016  0.7228  0.5045  0.1943
  812MOL0     C 9520   3.249   0.666   3.121 -0.2329  0.1273  0.2324
  812MOL0     O 9521   3.201   0.768   3.206 -0.0130 -0.5380  0.4800
  812MOL0     C 9522   3.150   0.736   3.330  0.0667  0.2678 -0.4009
  812MOL0     C 9523   3.029   0.830   3.367 -0.9305  0.5347 -0.0518
  812MOL0     C 9524   2.888   0.804   3.304 -0.9789  0.6439 -0.2229
  812MOL0     C 9525   2.788   0.913   3.341 -0.1464 -1.1209  0.3704
  812MOL0     C 9526   2.644   0.865   3.309 -0.2990  0.0352 -1.2768
  812MOL0     C 9527   2.543   0.961   3.359 -0.7504  0.5325 -0.0695
  812MOL0     C 9528   2.579   1.105   3.311  0.1535 -0.0322 -0.2631
  812MOL0     C 9529   2.458   1.194   3.316 -0.2493  0.0048 -1.2174
  812MOL0    Cl 9530   2.390   1.198   3.483 -0.3082 -0.0655  0.3683
  812MOL0     C 9531   3.374   0.607   3.127 -0.3990  0.1893  0.6867
  812MOL0     C 9532   3.426   0.521   3.026  1.6301 -0.4624 -0.5458
  812MOL0     O 9533   3.345   0.203   2.925 -0.0952 -0.9588  0.4790
  812MOL0     C 9534   3.579   0.200   2.692 -0.0308  0.1204  0.0836
  812MOL0     C 9535   3.625   0.148   2.566  0.8632 -0.3102 -0.2152
  812MOL0     N 9536   3.855  -0.345   2.142 -0.5380 -0.2438  1.1317
  812MOL0     N 9537   3.952  -0.426   2.125 -0.4283  0.3017  0.0947
  812MOL0     C 9538   3.725   0.396   1.885 -0.3808  0.7923  0.7273
  812MOL0     C 9539   3.650   0.506   1.920 -0.6215  0.0313 -0.2717
  812MOL0     C 9540   3.457   0.871   2.044  0.4734 -0.0361 -0.0258
  812MOL0     C 9541   3.320   0.864   2.047 -0.0313  0.2353 -0.4383
  812MOL0     C 9542   3.247   0.951   2.128 -0.2447 -0.2818  0.0004
  812MOL0     C 9543   3.316   1.045   2.204  0.6354  0.0299  0.3968
  812MOL0     O 9544   3.241   1.136   2.282  0.1918 -0.5357  0.2876
  812MOL0     C 9545   3.107   1.170   2.231  0.3047  0.5298 -0.7586
  812MOL0     C 9546   3.055   1.293   2.294 -0.1763 -0.7730 -0.5201
  812MOL0     C 9547   3.053   1.292   2.453  0.5180 -1.1499 -0.2867
  812MOL0     C 9548   3.027   1.428   2.521  0.4669  0.5629 -0.3084
  812MOL0     C 9549   3.106   1.545   2.480  0.0128 -1.0540  0.6844
  812MOL0     C 9550   3.146   1.659   2.452 -0.7631 -0.6403  0.2324
  812MOL0     C 9551   3.451   1.037   2.217  0.2026  0.0217  0.4101
  812MOL0     C 9552   3.523   0.945   2.142  0.2254 -0.6778  0.2882
  812MOL0     H 9553   3.919   0.724   1.961 -1.8375  1.0374  0.4351
  812MOL0     H 9554   4.035   0.523   1.892 -0.0545  0.0323  1.3323
  812MOL0     H 9555   3.901   0.199   1.662  2.8836 -4.2915  1.5733
  812MOL0     H 9556   3.990   0.349   1.664 -2.4156  0.2626 -1.6909
  812MOL0     H 9557   4.160   0.204   1.644  2.3492  0.1642  1.7113
  812MOL0     H 9558   4.161   0.223   1.811 -0.7267  3.9299 -2.5353
  812MOL0     H 9559   4.021   0.025   1.860 -1.0493 -4.3956  0.0118
  812MOL0     H 9560   4.003  -0.018   1.685 -1.3130  0.2119  1.0769
  812MOL0     H 9561   4.252  -0.054   1.672 -1.0039 -0.9488 -0.6605
  812MOL0     H 9562   4.257  -0.022   1.848  1.6823 -2.5906 -0.3968
  812MOL0     H 9563   4.088  -0.184   1.889  0.9292 -0.6513  0.8852
  812MOL0     H 9564   4.117  -0.237   1.713  2.9025  2.1981 -1.9470
  812MOL0     H 9565   4.339  -0.282   1.773 -1.3575 -0.8329 -1.2026
  812MOL0     H 9566   4.328  -0.213   1.927 -0.9254 -0.3754  0.3132
  812MOL0     H 9567   4.139  -0.436   1.846  1.6205 -0.4455 -0.1065
  812MOL0     H 9568   4.290  -0.493   1.892 -2.7404 -4.1938  1.1875
  812MOL0     H 9569   4.268  -0.353   2.121  0.0045  0.4103 -0.7140
  812MOL0     H 9570   4.199  -0.510   2.088 -3.1002 -1.7654 -2.8613
  812MOL0     H 9571   4.097  -0.130   2.134 -1.3527  1.1504  1.9285
  812MOL0     H 9572   3.765  -0.112   2.298  1.0961  1.8719  1.9709
  812MOL0     H 9573   3.870  -0.004   2.210 -0.0655 -0.1895  0.7483
  812MOL0     H 9574   3.631  -0.162   2.095 -2.6892  3.3338  0.5446
  812MOL0     H 9575   3.746  -0.068   1.992 -1.6664 -1.1533 -1.3585
  812MOL0     H 9576   3.553   0.077   2.040 -0.1089 -0.9093 -0.3170
  812MOL0     H 9577   3.691   0.127   2.146  1.1815 -1.3186  3.2020
  812MOL0     H 9578   3.462  -0.057   2.217 -3.7118  0.5065 -0.1429
  812MOL0     H 9579   3.448   0.117   2.225 -0.3993 -0.7803  0.3155
  812MOL0     H 9580   3.339   0.032   2.450  1.2763  0.7260 -1.5108
  812MOL0     H 9581   3.165   0.020   2.611 -1.5764 -0.5548  2.2258
  812MOL0     H 9582   3.189   0.065   2.774  0.3372  0.5524  0.7160
  812MOL0     H 9583   3.169   0.195   2.650  1.3256  0.0621 -0.8778
  812MOL0     H 9584   3.141   0.525   2.836 -1.4193 -1.2148  0.3326
  812MOL0     H 9585   3.066   0.663   3.014 -0.7008 -3.3315  1.2654
  812MOL0     H 9586   3.119   0.631   3.334  0.6498  0.1283  2.0932
  812MOL0     H 9587   3.232   0.763   3.398  1.0927 -0.6766 -1.2156
  812MOL0     H 9588   3.017   0.833   3.476  1.5547  3.1179  0.2686
  812MOL0     H 9589   3.070   0.928   3.340 -0.3713  0.2120 -0.4125
  812MOL0     H 9590   2.854   0.708   3.344 -2.2366  1.2136  0.1227
  812MOL0     H 9591   2.891   0.812   3.195  1.3161 -1.8828 -0.4378
  812MOL0     H 9592   2.798   0.926   3.449 -0.6314 -1.6770  0.4851
  812MOL0     H 9593   2.816   1.006   3.291 -0.8977 -0.0791  1.8020
  812MOL0     H 9594   2.630   0.769   3.360 -1.7129  0.9684  0.1840
  812MOL0     H 9595   2.630   0.852   3.201 -2.4026  4.3414 -1.7575
  812MOL0     H 9596   2.453   0.932   3.304 -0.5035  0.6789 -0.5589
  812MOL0     H 9597   2.517   0.959   3.465 -0.5760  3.1756  0.1002
  812MOL0     H 9598   2.622   1.122   3.212 -0.7221  0.4190 -0.5707
  812MOL0     H 9599   2.645   1.142   3.390 -1.4698  1.8712  0.2735
  812MOL0     H 9600   2.387   1.168   3.236  0.5293  2.4963 -2.8163
  812MOL0     H 9601   2.487   1.297   3.293 -1.9072  0.7853  0.0178
  812MOL0     H 9602   3.439   0.626   3.212  0.2088 -0.0054  0.2727
  812MOL0     H 9603   3.521   0.469   3.032  1.5665 -1.2365 -4.0407
  812MOL0     H 9604   3.647   0.241   2.766 -1.5180  0.9842  1.0240
  812MOL0     H 9605   3.728   0.160   2.534  0.9819 -2.1073 -0.5975
  812MOL0     H 9606   3.677   0.302   1.861 -0.4267  1.2082 -0.8799
  812MOL0     H 9607   3.544   0.486   1.919 -0.5510 -0.3681 -1.2802
  812MOL0     H 9608   3.275   0.795   1.976 -1.7714  0.5755  0.2813
  812MOL0     H 9609   3.139   0.949   2.122 -0.2437  0.1321 -0.1382
  812MOL0     H 9610   3.122   1.169   2.122  1.3947 -1.3732 -0.6380
  812MOL0     H 9611   3.052   1.078   2.253 -0.9774  1.1691 -1.1625
  812MOL0     H 9612   2.954   1.315   2.258  0.1824  0.6229 -0.7569
  812MOL0     H 9613   3.126   1.371   2.265  1.2112 -2.5949 -2.2566
  812MOL0     H 9614   3.150   1.254   2.488  1.1382 -0.9820 -1.7408
  812MOL0     H 9615   2.977   1.225   2.492 -1.1294  1.5031  1.3576
  812MOL0     H 9616   3.052   1.406   2.626 -1.3403 -1.3998 -0.2204
  812MOL0     H 9617   2.920   1.453   2.521  0.2191 -0.3630 -2.3178
  812MOL0     H 9618   3.187   1.755   2.426  2.0039 -2.2333 -1.9311
  812MOL0     H 9619   3.499   1.105   2.286  2.5358 -1.2873  0.1943
  812MOL0     H 9620   3.629   0.937   2.165  0.1794 -1.5796  0.2189
  813MOL0     O 9621  10.831   7.303   7.262  0.4745 -0.0608  0.0592
  813MOL0     C 9622  10.899   7.243   7.337 -0.0465  1.1181 -0.1037
  813MOL0     O 9623  11.018   7.183   7.305 -0.4078 -0.1406  0.4450
  813MOL0     C 9624  11.105   7.220   7.209 -0.8074  0.0303  0.0219
  813MOL0     C 9625  11.112   7.339   7.143 -0.4330 -0.8852  0.4441
  813MOL0     C 9626  11.201   7.368   7.040  0.1195  0.4971 -0.5277
  813MOL0     C 9627  11.311   7.282   7.013 -0.1548  0.4155  0.1733
  813MOL0     O 9628  11.393   7.314   6.911  0.2212  0.1358  0.0622
  813MOL0     C 9629  11.485   7.219   6.859  0.4162 -0.3467 -1.6872
  813MOL0     C 9630  11.585   7.294   6.781 -0.3469  0.8689  0.9404
  813MOL0     C 9631  11.694   7.204   6.721  1.2083  0.4616 -0.2540
  813MOL0     C 9632  11.773   7.277   6.608 -0.2333  0.3824 -0.0341
  813MOL0     C 9633  11.849   7.185   6.523 -0.4595 -0.3637  0.8042
  813MOL0     C 9634  11.957   7.278   6.451  0.5493  0.3314 -0.7337
  813MOL0     C 9635  12.061   7.190   6.372  1.1723 -0.2517  0.1771
  813MOL0     C 9636  12.171   7.281   6.312  0.2249 -0.4098  0.3067
  813MOL0     N 9637  12.296   7.205   6.305  0.3078 -0.1708 -0.3670
  813MOL0     C 9638  12.407   7.231   6.374  0.0445  0.0532  0.4529
  813MOL0     C 9639  12.504   7.143   6.339  0.6164 -1.1483  0.9409
  813MOL0     C 9640  12.645   7.136   6.388  0.4286 -0.5285  0.6001
  813MOL0     C 9641  12.760   7.143   6.283  1.6263  0.6949 -1.3083
  813MOL0     C 9642  12.802   7.011   6.216  0.9084  0.4759  0.3451
  813MOL0     C 9643  12.924   7.033   6.128 -0.1131  0.4833  0.1703
  813MOL0     O 9644  12.951   6.900   6.082  0.0660 -0.1333 -0.0626
  813MOL0     C 9645  13.041   6.812   6.137  0.8643  0.8134 -0.4703
  813MOL0     C 9646  13.088   6.821   6.270 -0.2246  0.4299  0.5015
  813MOL0     C 9647  13.212   6.752   6.311  0.4260  0.6146  0.2041
  813MOL0     C 9648  13.271   6.771   6.455  0.1099  0.9277  0.0407
  813MOL0     C 9649  13.266   6.669   6.207 -0.5445  0.9587 -0.2434
  813MOL0     C 9650  13.403   6.614   6.206 -0.0450  0.0371  0.2050
  813MOL0     O 9651  13.422   6.494   6.153  0.1998  0.3860 -0.4235
  813MOL0     C 9652  13.549   6.445   6.158  0.4492  0.6608  0.3859
  813MOL0     C 9653  13.628   6.422   6.269  0.5259  0.8101 -0.0440
  813MOL0     C 9654  13.752   6.351   6.254 -0.4265  0.0830 -0.3202
  813MOL0     C 9655  13.780   6.299   6.126  0.1693 -0.3067  0.5727
  813MOL0     O 9656  13.898   6.239   6.112 -0.6418  0.3955 -0.5409
  813MOL0     C 9657  13.957   6.207   5.979 -0.0671 -0.1002 -1.1844
  813MOL0     C 9658  14.096   6.154   6.009 -0.6209 -0.0307 -0.8704
  813MOL0     C 9659  14.155   6.114   5.869 -0.4357 -0.3558 -0.3277
  813MOL0     C 9660  14.315   6.094   5.862  0.3665 -0.4925  0.8958
  813MOL0     C 9661  14.362   5.958   5.929 -1.2639 -0.1898 -0.1863
  813MOL0     C 9662  14.315   5.839   5.839 -0.1014  0.3736 -0.7310
  813MOL0     C 9663  14.328   5.852   5.694  0.3586 -0.5331  0.4617
  813MOL0     C 9664  14.283   5.722   5.625  0.6779  0.1752 -1.3559
  813MOL0    Cl 9665  14.314   5.721   5.447  0.1546  0.1992 -0.0834
  813MOL0     C 9666  13.698   6.319   6.008 -0.4666 -0.4849 -0.9474
  813MOL0     C 9667  13.573   6.385   6.034  0.0165  0.1085 -0.0181
  813MOL0     O 9668  13.489   6.678   6.268 -0.0711  0.3174  0.6521
  813MOL0     C 9669  13.196   6.644   6.088  0.5144  0.6492  0.1181
  813MOL0     C 9670  13.088   6.717   6.050  0.6653 -0.2563 -0.5254
  813MOL0     N 9671  12.450   7.061   6.241 -0.1732 -0.0566  0.1928
  813MOL0     N 9672  12.323   7.100   6.227  0.5642  0.4697 -0.2226
  813MOL0     C 9673  11.311   7.150   7.073 -0.4243 -0.6281  0.0972
  813MOL0     C 9674  11.211   7.133   7.169  0.2175 -0.4721  0.1996
  813MOL0     C 9675  10.862   7.221   7.479 -0.1861 -0.2508 -0.6329
  813MOL0     C 9676  10.747   7.284   7.532  0.4361 -0.3821  0.9913
  813MOL0     C 9677  10.698   7.270   7.661 -0.0183  0.0526 -1.3138
  813MOL0     C 9678  10.768   7.178   7.747  0.0261  0.2635 -0.1882
  813MOL0     O 9679  10.731   7.141   7.876  0.2485  0.3250  0.8478
  813MOL0     C 9680  10.611   7.204   7.932 -0.5658  0.0458 -0.1601
  813MOL0     C 9681  10.593   7.164   8.078  0.0529 -0.3126  0.4998
  813MOL0     C 9682  10.479   7.232   8.158  1.1080  0.1936  0.6042
  813MOL0     C 9683  10.338   7.226   8.091  0.1869 -0.0937  0.1319
  813MOL0     C 9684  10.280   7.094   8.109  0.4925  0.3216 -0.1947
  813MOL0     C 9685  10.256   6.981   8.133  0.8754  0.0711 -0.6140
  813MOL0     C 9686  10.890   7.126   7.702 -0.3420  0.3654  0.1564
  813MOL0     C 9687  10.935   7.147   7.573 -0.9520  0.0065  0.9478
  813MOL0     H 9688  11.051   7.426   7.165  3.5485  1.6816  2.6565
  813MOL0     H 9689  11.188   7.466   6.997 -1.9151  1.3672  1.8283
  813MOL0     H 9690  11.532   7.177   6.949 -2.2826  0.2850  0.1321
  813MOL0     H 9691  11.424   7.151   6.799 -4.5803  1.9068  0.3510
  813MOL0     H 9692  11.529   7.341   6.699 -2.4309 -0.1892  1.6755
  813MOL0     H 9693  11.635   7.373   6.839  0.8298  0.1668  0.9064
  813MOL0     H 9694  11.759   7.176   6.804 -0.0241 -1.2784  0.1754
  813MOL0     H 9695  11.636   7.117   6.687  0.0084  1.3500 -0.5432
  813MOL0     H 9696  11.693   7.318   6.545  1.3932  1.6496 -1.3771
  813MOL0     H 9697  11.823   7.363   6.653  0.5339 -0.8189  1.4720
  813MOL0     H 9698  11.904   7.107   6.577 -1.5439 -1.7215  0.0046
  813MOL0     H 9699  11.791   7.146   6.439  0.0579  3.1792 -1.4258
  813MOL0     H 9700  11.911   7.345   6.378 -1.7572  0.2648  0.5646
  813MOL0     H 9701  12.006   7.333   6.532  1.9419  0.8108 -1.8597
  813MOL0     H 9702  12.107   7.120   6.443 -0.7077 -2.5913 -0.7628
  813MOL0     H 9703  12.020   7.121   6.297  1.7560 -3.6936  2.7287
  813MOL0     H 9704  12.181   7.373   6.371 -1.3576 -0.5510  0.8576
  813MOL0     H 9705  12.135   7.305   6.211 -2.9395 -3.5504  0.5147
  813MOL0     H 9706  12.411   7.309   6.449 -0.1608  2.2612 -1.7219
  813MOL0     H 9707  12.671   7.217   6.456 -0.0012 -0.1169  0.2847
  813MOL0     H 9708  12.665   7.048   6.448  0.7455 -1.2931 -0.5944
  813MOL0     H 9709  12.844   7.187   6.337  0.4482  0.4448  0.8377
  813MOL0     H 9710  12.720   7.197   6.197  0.5656 -1.8684 -2.5525
  813MOL0     H 9711  12.720   6.969   6.157  1.8217  0.7420 -1.1609
  813MOL0     H 9712  12.838   6.938   6.288 -0.4378  0.3276  0.8983
  813MOL0     H 9713  13.008   7.073   6.186 -1.3649  1.0589  1.6572
  813MOL0     H 9714  12.904   7.103   6.047  1.7550  2.2252  1.1085
  813MOL0     H 9715  13.040   6.897   6.332 -0.6260  0.7851 -0.2353
  813MOL0     H 9716  13.327   6.865   6.458  1.5432  0.0703  0.9660
  813MOL0     H 9717  13.201   6.764   6.538  1.5209 -3.5697  1.1124
  813MOL0     H 9718  13.351   6.700   6.474 -0.9161 -0.4772 -0.7106
  813MOL0     H 9719  13.600   6.473   6.360  0.4769 -2.0908  1.7159
  813MOL0     H 9720  13.834   6.345   6.325 -0.2258  0.0208 -0.5521
  813MOL0     H 9721  13.901   6.126   5.930 -0.7265  0.7482 -1.8772
  813MOL0     H 9722  13.961   6.303   5.927 -0.9727  2.4177  2.9921
  813MOL0     H 9723  14.145   6.236   6.063  0.5108 -0.1964 -1.6092
  813MOL0     H 9724  14.094   6.064   6.072 -1.8860  0.4777 -0.1578
  813MOL0     H 9725  14.137   6.198   5.801  3.1950 -0.1908 -1.3343
  813MOL0     H 9726  14.101   6.025   5.836  2.9749 -2.0543 -1.8525
  813MOL0     H 9727  14.339   6.087   5.755 -2.8769 -2.8534  0.1510
  813MOL0     H 9728  14.368   6.176   5.911 -0.7421  0.8478 -0.0811
  813MOL0     H 9729  14.326   5.940   6.031 -0.7480  1.7934  0.3929
  813MOL0     H 9730  14.469   5.967   5.949 -0.8869 -2.7372 -0.7698
  813MOL0     H 9731  14.377   5.756   5.876  2.2471  1.9509 -0.9236
  813MOL0     H 9732  14.213   5.815   5.870 -0.6574  2.3947 -0.8685
  813MOL0     H 9733  14.427   5.878   5.656  0.2427 -0.0389  0.4966
  813MOL0     H 9734  14.247   5.919   5.665 -0.0658 -0.1743  2.3279
  813MOL0     H 9735  14.177   5.713   5.648  0.4923  1.9186 -1.3516
  813MOL0     H 9736  14.336   5.638   5.670 -1.4805 -1.2968 -1.4542
  813MOL0     H 9737  13.709   6.282   5.907 -2.6092 -0.5480 -1.2116
  813MOL0     H 9738  13.493   6.380   5.960 -1.7233  0.2682  1.7861
  813MOL0     H 9739  13.234   6.575   6.014  2.0145  1.1491  0.3882
  813MOL0     H 9740  13.029   6.686   5.965  1.2006 -1.9693 -0.3055
  813MOL0     H 9741  11.384   7.075   7.043 -1.1765 -0.0870 -3.5308
  813MOL0     H 9742  11.215   7.037   7.219 -1.4975 -0.1739  1.0028
  813MOL0     H 9743  10.681   7.336   7.463  0.8751 -0.6249  0.3732
  813MOL0     H 9744  10.601   7.309   7.691  0.2659  0.3311 -0.7419
  813MOL0     H 9745  10.624   7.313   7.936 -1.1227  0.2026 -1.8192
  813MOL0     H 9746  10.522   7.178   7.874 -1.6642  0.0024  1.4931
  813MOL0     H 9747  10.686   7.185   8.133  0.6330 -0.0299 -0.5654
  813MOL0     H 9748  10.577   7.056   8.087  0.8534 -0.6312 -1.4308
  813MOL0     H 9749  10.508   7.336   8.175  2.6074  0.3182 -2.1070
  813MOL0     H 9750  10.465   7.186   8.256  2.6933 -3.5986 -0.7720
  813MOL0     H 9751  10.348   7.245   7.984  1.1302 -3.8267 -0.5483
  813MOL0     H 9752  10.280   7.306   8.139 -3.8726 -1.2116 -2.4067
  813MOL0     H 9753  10.238   6.877   8.147  1.1174 -0.2519 -2.4597
  813MOL0     H 9754  10.958   7.067   7.763 -0.0920 -1.4743 -1.7960
  813MOL0     H 9755  11.029   7.105   7.540 -1.4671  1.1475 -2.3046
  814MOL0     O 9756   3.178   3.173   1.451  0.1340  0.6253  0.0185
  814MOL0     C 9757   3.181   3.258   1.541 -0.6146  0.4697 -0.1125
  814MOL0     O 9758   3.088   3.273   1.651 -0.3554 -0.7638 -0.1182
  814MOL0     C 9759   2.985   3.197   1.661 -0.1698  0.6119 -0.3920
  814MOL0     C 9760   3.020   3.063   1.698  1.2503 -0.4776  0.2810
  814MOL0     C 9761   2.921   2.976   1.740  0.9436 -0.3135 -0.2308
  814MOL0     C 9762   2.788   3.017   1.737 -0.2141 -0.1904  0.3277
  814MOL0     O 9763   2.684   2.928   1.768 -0.2819  0.2287 -0.1417
  814MOL0     C 9764   2.677   2.894   1.907  0.0983 -0.3858 -0.3939
  814MOL0     C 9765   2.550   2.807   1.940 -0.3882 -0.0781  0.3286
  814MOL0     C 9766   2.417   2.861   1.894  0.3627  0.1570  0.4225
  814MOL0     C 9767   2.351   2.937   2.003 -0.1554 -0.0682  0.0219
  814MOL0     C 9768   2.236   3.022   1.952  0.1624  0.9160  0.5274
  814MOL0     C 9769   2.275   3.128   1.844 -0.2339  0.0320  0.3851
  814MOL0     C 9770   2.189   3.251   1.856 -0.9010  0.3353 -0.0428
  814MOL0     C 9771   2.040   3.221   1.838  0.3375  0.9867 -0.1781
  814MOL0     N 9772   1.962   3.348   1.847 -0.5346 -0.6339 -0.2146
  814MOL0     C 9773   1.929   3.417   1.961 -0.3923 -0.0122 -0.1383
  814MOL0     C 9774   1.823   3.489   1.904  0.2899 -0.3507  0.7661
  814MOL0     C 9775   1.735   3.591   1.987  0.1295 -0.4395  0.4913
  814MOL0     C 9776   1.622   3.519   2.048 -0.5865  0.4456 -0.1190
  814MOL0     C 9777   1.677   3.421   2.152  0.1854  0.0696 -0.4499
  814MOL0     C 9778   1.558   3.362   2.222  0.9431  0.0148  0.1162
  814MOL0     O 9779   1.593   3.241   2.291 -0.5823 -0.3608  0.1571
  814MOL0     C 9780   1.610   3.253   2.430 -0.7977 -0.1640 -1.2750
  814MOL0     C 9781   1.675   3.357   2.493 -0.4513 -0.1858 -0.7588
  814MOL0     C 9782   1.686   3.365   2.630  1.0712 -0.4695  0.7447
  814MOL0     C 9783   1.732   3.501   2.693  0.6713  0.3603  0.7257
  814MOL0     C 9784   1.640   3.253   2.708  0.0929 -0.1334  0.6429
  814MOL0     C 9785   1.612   3.259   2.854 -1.0270  0.8434  0.7022
  814MOL0     O 9786   1.549   3.150   2.918 -0.0237  0.2985 -0.0479
  814MOL0     C 9787   1.490   3.175   3.037 -0.2981 -0.2361  0.2416
  814MOL0     C 9788   1.351   3.201   3.052 -0.5870 -0.6387 -0.0958
  814MOL0     C 9789   1.283   3.205   3.177  0.0598  0.2173 -0.2709
  814MOL0     C 9790   1.357   3.176   3.288  0.2968  0.0512 -0.7820
  814MOL0     O 9791   1.296   3.183   3.408  0.7662 -0.1599 -1.0762
  814MOL0     C 9792   1.369   3.171   3.528  0.7125  0.1623  0.1818
  814MOL0     C 9793   1.267   3.172   3.637  1.0145  0.0021 -0.0695
  814MOL0     C 9794   1.344   3.157   3.777 -0.5309 -0.7743 -0.8847
  814MOL0     C 9795   1.241   3.178   3.894 -0.4979  0.3754 -0.7006
  814MOL0     C 9796   1.161   3.057   3.920  0.6992  0.3866  0.1480
  814MOL0     C 9797   1.069   3.067   4.060  0.2214  0.9720  0.6079
  814MOL0     C 9798   1.139   3.059   4.187  0.2228 -0.1652 -1.1435
  814MOL0     C 9799   1.051   3.123   4.301 -0.3796  0.1653  0.9031
  814MOL0    Cl 9800   0.907   3.025   4.322  0.6828  0.0488 -0.3667
  814MOL0     C 9801   1.490   3.155   3.280 -0.1950 -0.3757  0.4271
  814MOL0     C 9802   1.562   3.150   3.155 -0.1696 -0.0452  0.4629
  814MOL0     O 9803   1.647   3.362   2.914  0.0198 -0.0682  0.8255
  814MOL0     C 9804   1.608   3.132   2.643  0.5128 -0.2985  0.0491
  814MOL0     C 9805   1.598   3.132   2.500  0.4971 -0.0811 -0.3548
  814MOL0     N 9806   1.820   3.485   1.764 -0.2152  1.0286 -0.1852
  814MOL0     N 9807   1.910   3.399   1.734  0.0134  0.2491 -0.3305
  814MOL0     C 9808   2.750   3.152   1.700  0.0450  0.5212  0.0381
  814MOL0     C 9809   2.855   3.236   1.663  0.3313 -0.4003 -0.3238
  814MOL0     C 9810   3.287   3.363   1.544  0.3664  0.4007  0.2749
  814MOL0     C 9811   3.330   3.430   1.665  0.2400  1.6251 -0.5175
  814MOL0     C 9812   3.436   3.519   1.658  0.3995  0.5777 -0.6660
  814MOL0     C 9813   3.499   3.545   1.536  0.3337  0.7719  0.2267
  814MOL0     O 9814   3.593   3.636   1.531 -0.8138  0.0029  0.6183
  814MOL0     C 9815   3.718   3.600   1.475 -0.6283 -0.1812  0.1283
  814MOL0     C 9816   3.817   3.638   1.575 -0.0134 -0.1565  0.5294
  814MOL0     C 9817   3.847   3.784   1.582  0.4267 -0.0061 -0.4048
  814MOL0     C 9818   3.980   3.820   1.637 -0.3757  0.3378  0.2049
  814MOL0     C 9819   3.985   3.965   1.644 -0.7876 -0.9347  0.3210
  814MOL0     C 9820   4.006   4.083   1.643 -1.3553 -0.4552  0.5853
  814MOL0     C 9821   3.455   3.485   1.414 -0.4428  0.2096  0.1520
  814MOL0     C 9822   3.347   3.393   1.419 -0.5303  0.2562  0.0924
  814MOL0     H 9823   3.127   3.045   1.693  1.5546  1.3131 -0.7272
  814MOL0     H 9824   2.946   2.873   1.764  2.0101  0.3225  1.5786
  814MOL0     H 9825   2.768   2.839   1.934 -0.9618 -2.6248 -1.1201
  814MOL0     H 9826   2.649   2.985   1.962 -0.1813 -1.2761  0.9840
  814MOL0     H 9827   2.568   2.710   1.891  0.9568  0.7583 -0.9252
  814MOL0     H 9828   2.557   2.787   2.047 -0.8535  1.8453  0.7536
  814MOL0     H 9829   2.442   2.926   1.810  0.4624  4.2952  3.3222
  814MOL0     H 9830   2.363   2.770   1.868  0.1664  1.4313 -4.5757
  814MOL0     H 9831   2.310   2.876   2.084  0.7257 -0.9371 -0.1806
  814MOL0     H 9832   2.426   3.004   2.046 -0.0436  1.7579 -2.7018
  814MOL0     H 9833   2.173   2.946   1.905  1.0825 -0.9729  2.2404
  814MOL0     H 9834   2.199   3.058   2.048 -0.7510 -1.6839  1.2128
  814MOL0     H 9835   2.378   3.162   1.859 -0.0616  0.8920 -2.2643
  814MOL0     H 9836   2.266   3.087   1.743 -1.9864  1.5774 -0.1604
  814MOL0     H 9837   2.192   3.305   1.951  1.6195 -2.5640  1.6980
  814MOL0     H 9838   2.225   3.313   1.773  1.2438  1.3360  1.5483
  814MOL0     H 9839   2.003   3.146   1.908 -0.3844 -0.6967 -2.2717
  814MOL0     H 9840   2.020   3.179   1.740 -0.7691  3.1172 -0.9417
  814MOL0     H 9841   1.956   3.414   2.066  0.4888  0.2365 -0.3529
  814MOL0     H 9842   1.808   3.628   2.060 -0.1324  0.0397  0.5147
  814MOL0     H 9843   1.704   3.664   1.912  0.7426 -3.0570 -2.5409
  814MOL0     H 9844   1.574   3.469   1.963 -0.5170 -0.6123  0.4490
  814MOL0     H 9845   1.552   3.588   2.095 -1.2538 -1.0902  1.2009
  814MOL0     H 9846   1.752   3.473   2.213  0.7322  1.6135 -2.3354
  814MOL0     H 9847   1.717   3.327   2.114 -2.7603 -1.8736  0.8622
  814MOL0     H 9848   1.492   3.336   2.139  0.2533 -0.2818  0.7448
  814MOL0     H 9849   1.507   3.435   2.286  2.3364  1.8832 -0.7771
  814MOL0     H 9850   1.718   3.435   2.430  0.0355 -0.5012 -0.8207
  814MOL0     H 9851   1.654   3.544   2.755 -1.6661 -2.2108 -0.2129
  814MOL0     H 9852   1.822   3.484   2.752  2.5849 -2.2464 -2.5197
  814MOL0     H 9853   1.766   3.557   2.605 -1.6821 -1.0763 -1.2407
  814MOL0     H 9854   1.296   3.216   2.960 -0.4800  1.3283  0.1100
  814MOL0     H 9855   1.176   3.225   3.182 -0.0605 -0.5242  0.2672
  814MOL0     H 9856   1.409   3.070   3.520 -2.0605 -0.9148 -1.1917
  814MOL0     H 9857   1.447   3.242   3.557  1.0378 -0.1947  0.1940
  814MOL0     H 9858   1.201   3.258   3.630 -2.7672 -2.4013  2.5092
  814MOL0     H 9859   1.201   3.086   3.627  2.7699 -1.9281  3.0833
  814MOL0     H 9860   1.421   3.234   3.786  1.8412 -3.2550  2.5937
  814MOL0     H 9861   1.402   3.066   3.795  0.4497 -0.0977 -0.5349
  814MOL0     H 9862   1.298   3.197   3.985 -2.5369 -1.0793  0.9695
  814MOL0     H 9863   1.182   3.266   3.864  0.0072  0.9735  0.0435
  814MOL0     H 9864   1.227   2.970   3.927  0.6899  0.3900  0.2833
  814MOL0     H 9865   1.085   3.045   3.843  1.4559 -1.6973 -0.3308
  814MOL0     H 9866   1.008   3.157   4.052  0.9961  1.3270 -3.0013
  814MOL0     H 9867   1.008   2.976   4.051  1.1810  0.3216  0.4868
  814MOL0     H 9868   1.237   3.108   4.187  0.0410  0.2827  0.7477
  814MOL0     H 9869   1.153   2.955   4.218  0.2530 -0.8296 -3.2143
  814MOL0     H 9870   1.030   3.229   4.281 -0.7104  0.0581  0.6773
  814MOL0     H 9871   1.095   3.132   4.401  0.8608  1.8890  0.2591
  814MOL0     H 9872   1.552   3.149   3.368 -1.8562  0.3138  1.6996
  814MOL0     H 9873   1.669   3.136   3.164  0.0111  0.5861 -0.6220
  814MOL0     H 9874   1.571   3.045   2.696  2.2543  0.1506  2.1669
  814MOL0     H 9875   1.553   3.048   2.449 -1.0956  0.4462  0.1467
  814MOL0     H 9876   2.647   3.186   1.696 -0.5258 -1.1959 -2.4760
  814MOL0     H 9877   2.830   3.334   1.625 -0.3319  0.3340  1.8680
  814MOL0     H 9878   3.291   3.403   1.762 -0.8440 -0.8962 -1.5650
  814MOL0     H 9879   3.479   3.565   1.746 -0.3865 -0.2175  0.1571
  814MOL0     H 9880   3.726   3.493   1.456  3.1969  0.2632 -1.7329
  814MOL0     H 9881   3.726   3.652   1.379 -3.0783  0.3589  0.1724
  814MOL0     H 9882   3.907   3.583   1.547  1.5769  1.3156  2.5340
  814MOL0     H 9883   3.784   3.610   1.676  2.8434  0.4115  1.7064
  814MOL0     H 9884   3.771   3.832   1.644  0.6481 -0.0326 -0.1109
  814MOL0     H 9885   3.840   3.826   1.481  2.3662  1.1958 -0.1130
  814MOL0     H 9886   4.058   3.786   1.569 -1.3149  1.1529 -1.3499
  814MOL0     H 9887   3.983   3.774   1.736  0.7453 -1.6939 -0.7186
  814MOL0     H 9888   4.024   4.187   1.622  1.0440 -1.5604 -4.4998
  814MOL0     H 9889   3.496   3.516   1.319 -0.9142  3.3233  0.8506
  814MOL0     H 9890   3.306   3.344   1.332 -2.5649 -1.8086  2.0444
  815MOL0     O 9891   9.804   2.310   5.183 -0.0691 -0.3261  0.8798
  815MOL0     C 9892   9.899   2.379   5.140 -0.3438 -0.2127 -0.0455
  815MOL0     O 9893   9.904   2.450   5.028 -0.6313 -0.1090 -0.2688
  815MOL0     C 9894   9.784   2.461   4.962 -0.6209  1.4159 -0.3550
  815MOL0     C 9895   9.667   2.511   5.023 -0.1945 -0.3222  0.2078
  815MOL0     C 9896   9.548   2.502   4.951 -0.1733 -0.7988 -0.0741
  815MOL0     C 9897   9.543   2.457   4.823  0.2687 -0.1169  0.0513
  815MOL0     O 9898   9.433   2.473   4.743  0.4793  1.3858 -0.3978
  815MOL0     C 9899   9.314   2.537   4.795  0.3366  0.1026 -1.3144
  815MOL0     C 9900   9.206   2.521   4.696  0.2561  0.3531  0.3684
  815MOL0     C 9901   9.089   2.413   4.716  0.4272  0.4991  0.0938
  815MOL0     C 9902   9.007   2.445   4.831 -0.1735  0.0736 -0.1997
  815MOL0     C 9903   8.908   2.329   4.858  0.7331  0.1448 -0.1399
  815MOL0     C 9904   8.776   2.354   4.786  0.2068 -0.1610 -0.5645
  815MOL0     C 9905   8.681   2.238   4.811 -0.3429 -0.3910 -0.6891
  815MOL0     C 9906   8.581   2.193   4.694 -0.3564 -0.2139 -0.0748
  815MOL0     N 9907   8.477   2.103   4.749 -0.4353  0.3111  0.6409
  815MOL0     C 9908   8.497   1.977   4.798  0.0048 -0.1719 -0.9362
  815MOL0     C 9909   8.375   1.938   4.837  0.2862  0.3704  0.8470
  815MOL0     C 9910   8.333   1.829   4.919 -0.7034  0.0057  0.7237
  815MOL0     C 9911   8.409   1.704   4.883  0.0979 -0.3695  0.5559
  815MOL0     C 9912   8.406   1.597   4.993  0.6540 -0.4708 -0.3025
  815MOL0     C 9913   8.265   1.554   5.012 -0.2663  0.5798 -1.3625
  815MOL0     O 9914   8.269   1.432   5.083 -0.2147 -0.3367 -0.7507
  815MOL0     C 9915   8.155   1.374   5.133 -0.1070  0.7793  0.8223
  815MOL0     C 9916   8.170   1.254   5.209 -0.7733  0.7058  0.8853
  815MOL0     C 9917   8.060   1.181   5.269 -0.1277  0.6739 -0.0750
  815MOL0     C 9918   8.091   1.060   5.352 -0.3180 -0.5054 -0.3823
  815MOL0     C 9919   7.929   1.227   5.244 -0.9089 -0.2148  0.0323
  815MOL0     C 9920   7.801   1.166   5.302 -0.6657  0.2318  0.0079
  815MOL0     O 9921   7.684   1.235   5.283  0.0127 -0.3737  0.2809
  815MOL0     C 9922   7.558   1.185   5.310 -0.3650  0.3558 -0.7614
  815MOL0     C 9923   7.520   1.054   5.362 -0.6468 -0.5264  0.9742
  815MOL0     C 9924   7.385   1.027   5.390  0.0515  0.1031  0.2720
  815MOL0     C 9925   7.281   1.105   5.360  0.3610  0.1066  0.6382
  815MOL0     O 9926   7.146   1.077   5.403  0.0465  0.1105  0.5881
  815MOL0     C 9927   7.046   1.180   5.426  0.4155  0.1197  1.1697
  815MOL0     C 9928   7.056   1.262   5.559 -0.1497  0.2027 -0.9157
  815MOL0     C 9929   7.085   1.157   5.673 -0.4680  0.6817  0.7738
  815MOL0     C 9930   7.114   1.214   5.807 -0.3193  0.1973  0.3228
  815MOL0     C 9931   7.156   1.100   5.915 -0.8313 -0.5794  0.2622
  815MOL0     C 9932   7.259   1.146   6.025  0.3060 -0.7082 -0.1880
  815MOL0     C 9933   7.368   1.236   5.975 -0.2395 -0.5555  0.3243
  815MOL0     C 9934   7.450   1.294   6.091 -0.0566  0.6276 -0.3135
  815MOL0    Cl 9935   7.601   1.365   6.027  0.6977 -0.2136 -0.1373
  815MOL0     C 9936   7.311   1.219   5.297 -0.6558  0.7004  0.4276
  815MOL0     C 9937   7.446   1.256   5.281 -0.0245 -0.8525 -0.0873
  815MOL0     O 9938   7.815   1.068   5.373 -0.1564 -0.2327 -0.0369
  815MOL0     C 9939   7.915   1.349   5.159 -0.5711  0.2378  0.0651
  815MOL0     C 9940   8.026   1.420   5.115  0.5986  1.6026  0.4372
  815MOL0     N 9941   8.276   2.026   4.797  0.3425  0.9653  0.5270
  815MOL0     N 9942   8.343   2.125   4.739  0.0769  1.1485  0.0733
  815MOL0     C 9943   9.666   2.427   4.757  0.2270 -0.7773  0.2196
  815MOL0     C 9944   9.791   2.421   4.826 -0.4833 -0.8138 -0.0623
  815MOL0     C 9945  10.021   2.370   5.222 -0.9411 -0.8896 -0.0547
  815MOL0     C 9946  10.013   2.318   5.361  0.3963 -0.8803 -0.6166
  815MOL0     C 9947  10.128   2.332   5.441 -0.2268  0.2077  1.3361
  815MOL0     C 9948  10.236   2.402   5.397  1.0444 -0.8049  0.2168
  815MOL0     O 9949  10.336   2.393   5.489  0.5027  0.1390  0.0914
  815MOL0     C 9950  10.448   2.479   5.462  0.1136 -0.2679  0.3454
  815MOL0     C 9951  10.579   2.438   5.538  0.3584 -0.1084 -1.0211
  815MOL0     C 9952  10.691   2.543   5.512  2.1228 -0.1528 -0.5520
  815MOL0     C 9953  10.812   2.521   5.593  0.2252 -0.1223  0.0176
  815MOL0     C 9954  10.856   2.383   5.586  0.4483  0.2568 -0.2663
  815MOL0     C 9955  10.911   2.274   5.599 -0.2138  0.2454  0.2022
  815MOL0     C 9956  10.236   2.462   5.273 -0.9091  0.5077  0.1588
  815MOL0     C 9957  10.137   2.430   5.181  0.0639  0.0891  0.3783
  815MOL0     H 9958   9.672   2.549   5.124 -0.3420 -1.5487  0.6890
  815MOL0     H 9959   9.456   2.531   4.999 -1.7552  0.6563 -3.5898
  815MOL0     H 9960   9.289   2.493   4.892 -1.1900  2.0791 -0.7570
  815MOL0     H 9961   9.329   2.644   4.811  1.7593  0.0445 -2.0616
  815MOL0     H 9962   9.154   2.618   4.690 -0.1240  0.1134 -0.3281
  815MOL0     H 9963   9.250   2.497   4.599 -1.9488 -1.1617 -0.3349
  815MOL0     H 9964   9.024   2.414   4.628 -2.8437 -1.3825  2.2581
  815MOL0     H 9965   9.131   2.313   4.719 -0.1357  0.1978 -1.2203
  815MOL0     H 9966   9.067   2.473   4.918 -0.2162  4.0098 -1.2407
  815MOL0     H 9967   8.942   2.531   4.812 -1.7998 -0.6454  1.7640
  815MOL0     H 9968   8.949   2.230   4.836 -1.2729 -0.8927  0.5260
  815MOL0     H 9969   8.875   2.327   4.963  0.7930 -1.3259 -0.1243
  815MOL0     H 9970   8.724   2.446   4.812 -1.7713 -2.1855  3.5318
  815MOL0     H 9971   8.796   2.359   4.679  1.1762  0.7659 -0.3554
  815MOL0     H 9972   8.744   2.150   4.831 -1.4699 -1.1590 -0.4272
  815MOL0     H 9973   8.617   2.265   4.895 -3.2871 -0.7754 -2.6704
  815MOL0     H 9974   8.642   2.136   4.623  2.3110  0.3854  1.5722
  815MOL0     H 9975   8.538   2.286   4.656  0.4724  0.4928  0.6791
  815MOL0     H 9976   8.590   1.926   4.818  0.4588  1.3031  1.0432
  815MOL0     H 9977   8.359   1.862   5.020  2.7876  0.3151 -0.1599
  815MOL0     H 9978   8.225   1.814   4.914 -0.7999  0.9952 -0.4038
  815MOL0     H 9979   8.512   1.733   4.858  0.7860 -0.3732  3.1732
  815MOL0     H 9980   8.357   1.672   4.792 -2.1407 -1.0223  1.9939
  815MOL0     H 9981   8.426   1.636   5.093 -0.3023 -0.4660 -0.1078
  815MOL0     H 9982   8.482   1.518   4.993 -0.0935 -1.1957  0.0498
  815MOL0     H 9983   8.208   1.540   4.919  0.3712  3.4642 -2.2680
  815MOL0     H 9984   8.212   1.631   5.069 -0.9791 -0.7643 -0.1133
  815MOL0     H 9985   8.268   1.209   5.212  0.1512  2.0195 -3.2308
  815MOL0     H 9986   8.048   0.973   5.301  2.0937  0.4409 -4.5691
  815MOL0     H 9987   8.199   1.041   5.357 -0.5581 -2.0637 -0.4754
  815MOL0     H 9988   8.045   1.070   5.450 -3.7662 -3.4630 -1.4684
  815MOL0     H 9989   7.594   0.980   5.388  1.0903 -0.3242 -2.7021
  815MOL0     H 9990   7.368   0.933   5.442  3.5622  0.2091  1.8713
  815MOL0     H 9991   7.035   1.247   5.341 -0.9086 -0.6657  0.7001
  815MOL0     H 9992   6.952   1.124   5.427  1.3941 -1.5996  0.3358
  815MOL0     H 9993   7.139   1.332   5.550 -0.7225  1.0289 -0.0478
  815MOL0     H 9994   6.963   1.319   5.572 -2.9557 -4.1830  0.6280
  815MOL0     H 9995   7.169   1.097   5.636 -2.1818 -0.1452 -2.0937
  815MOL0     H 9996   7.003   1.085   5.679  2.1262 -2.5341  0.4774
  815MOL0     H 9997   7.189   1.289   5.781  0.6093 -1.5298 -2.3719
  815MOL0     H 9998   7.024   1.271   5.834 -0.6475 -0.5924  0.9316
  815MOL0     H 9999   7.195   1.014   5.860 -0.9007 -0.6902  0.3847
  815MOL0     H10000   7.067   1.067   5.970 -0.0080  0.0493  2.0407
  815MOL0     H10001   7.209   1.207   6.100  0.5700 -2.5802  1.6010
  815MOL0     H10002   7.303   1.060   6.076  0.1950 -0.9421 -0.4843
  815MOL0     H10003   7.341   1.326   5.919  2.8473 -0.5801 -1.4020
  815MOL0     H10004   7.444   1.176   5.925  0.9242 -0.4134  1.8224
  815MOL0     H10005   7.480   1.208   6.151 -0.7164 -0.7346 -1.8430
  815MOL0     H10006   7.399   1.360   6.161  0.4685  1.1258 -0.3956
  815MOL0     H10007   7.230   1.283   5.262 -0.7652 -0.8188 -2.3757
  815MOL0     H10008   7.471   1.356   5.245  1.0545  0.5015  3.8523
  815MOL0     H10009   7.822   1.401   5.139  0.9386  3.6230  1.0670
  815MOL0     H10010   8.018   1.510   5.055 -1.1441  1.4224  0.3564
  815MOL0     H10011   9.664   2.401   4.652  0.8576  0.6344 -0.1574
  815MOL0     H10012   9.881   2.388   4.776 -0.4916  1.5180 -1.7563
  815MOL0     H10013   9.928   2.266   5.405 -1.1100  2.7353  1.2005
  815MOL0     H10014  10.137   2.287   5.539  1.2790 -2.2074  0.1853
  815MOL0     H10015  10.463   2.471   5.354 -3.3926  0.9951 -0.3871
  815MOL0     H10016  10.419   2.585   5.466 -3.0779 -0.7939 -3.2971
  815MOL0     H10017  10.608   2.337   5.507 -1.6475 -1.0659  0.0441
  815MOL0     H10018  10.566   2.435   5.646  0.1160 -1.1173 -1.0689
  815MOL0     H10019  10.656   2.646   5.528 -2.0939 -1.4714 -0.0397
  815MOL0     H10020  10.717   2.559   5.407  0.1278  2.4616 -0.7715
  815MOL0     H10021  10.789   2.560   5.692  1.4348 -2.0739  1.1267
  815MOL0     H10022  10.891   2.589   5.560  0.0086  0.3283  0.4168
  815MOL0     H10023  10.964   2.185   5.627  0.5685  0.6584  0.0485
  815MOL0     H10024  10.322   2.510   5.229 -1.9406  1.8760 -0.4539
  815MOL0     H10025  10.141   2.468   5.080  0.8981 -0.2670  0.2733
  816MOL0     O10026   1.032   6.132   1.764  0.5409  0.3937  0.2476
  816MOL0     C10027   1.022   6.196   1.868 -0.3016  0.6840 -0.3499
  816MOL0     O10028   0.906   6.216   1.934  0.1275 -0.2455 -0.6482
  816MOL0     C10029   0.793   6.182   1.869  0.9839 -0.8628  0.2697
  816MOL0     C10030   0.714   6.066   1.880 -0.1038  0.2386 -0.5157
  816MOL0     C10031   0.590   6.059   1.820 -0.2145  1.1759  0.0683
  816MOL0     C10032   0.538   6.165   1.751  0.1010  0.6976  0.4230
  816MOL0     O10033   0.412   6.157   1.693  1.0461  0.4157 -0.1824
  816MOL0     C10034   0.308   6.198   1.778 -0.8724  0.4097 -0.2257
  816MOL0     C10035   0.190   6.226   1.682  0.1823  0.0004 -0.6382
  816MOL0     C10036   0.061   6.232   1.779 -0.2678 -0.0594 -0.1925
  816MOL0     C10037  -0.078   6.238   1.719  0.1011 -0.3185 -0.0684
  816MOL0     C10038  -0.171   6.270   1.837  0.2544  0.1897 -0.1834
  816MOL0     C10039  -0.312   6.283   1.762 -0.5311 -0.9255 -0.1659
  816MOL0     C10040  -0.355   6.172   1.680 -0.0225 -0.4548 -0.1725
  816MOL0     C10041  -0.394   6.042   1.760  0.2381  0.2998 -0.3235
  816MOL0     N10042  -0.452   5.945   1.662  0.1468 -1.3067 -0.7867
  816MOL0     C10043  -0.461   5.815   1.699  0.7151 -0.4319 -0.2822
  816MOL0     C10044  -0.550   5.764   1.613 -0.4740  1.7134  0.8444
  816MOL0     C10045  -0.586   5.623   1.618 -0.1334  0.0073  0.3769
  816MOL0     C10046  -0.734   5.612   1.590  0.6633 -0.0614 -0.2152
  816MOL0     C10047  -0.792   5.471   1.624 -0.6183 -0.7087  0.2516
  816MOL0     C10048  -0.936   5.452   1.590 -0.2530  0.1677  0.7357
  816MOL0     O10049  -1.027   5.520   1.671 -0.4885 -0.1627  0.2103
  816MOL0     C10050  -1.163   5.485   1.678 -0.3565  0.0837 -0.7347
  816MOL0     C10051  -1.236   5.535   1.782 -0.4346  0.4862  0.1541
  816MOL0     C10052  -1.370   5.509   1.795  0.8865  0.4841 -0.8828
  816MOL0     C10053  -1.441   5.583   1.912 -0.4270  0.3217 -0.3169
  816MOL0     C10054  -1.435   5.412   1.715 -0.1736  0.4426  0.3401
  816MOL0     C10055  -1.573   5.376   1.731  0.9223  0.0386 -0.1967
  816MOL0     O10056  -1.620   5.327   1.847 -0.1339  0.5878 -0.6343
  816MOL0     C10057  -1.755   5.296   1.857 -0.1502  0.2730  0.0716
  816MOL0     C10058  -1.850   5.393   1.832  0.9972 -0.1061  0.2176
  816MOL0     C10059  -1.986   5.368   1.829  0.6830 -0.2444  0.0089
  816MOL0     C10060  -2.026   5.228   1.834  1.3925 -0.0344 -0.1297
  816MOL0     O10061  -2.162   5.207   1.816  0.4526 -0.2802  0.4343
  816MOL0     C10062  -2.216   5.105   1.721 -0.7839 -0.1166 -0.2719
  816MOL0     C10063  -2.351   5.141   1.663 -0.1242  0.1381 -0.5948
  816MOL0     C10064  -2.464   5.139   1.771  0.6680 -0.0127  0.7270
  816MOL0     C10065  -2.497   5.285   1.804 -0.3937  0.4290 -0.7233
  816MOL0     C10066  -2.615   5.311   1.895 -0.0189 -0.2310  0.4071
  816MOL0     C10067  -2.559   5.285   2.036 -0.2208  0.7511 -0.3798
  816MOL0     C10068  -2.600   5.394   2.135  0.0885 -0.2519  1.0362
  816MOL0     C10069  -2.501   5.406   2.243 -0.0436  0.2611  0.2399
  816MOL0    Cl10070  -2.535   5.516   2.378  0.0278  0.4035  0.1301
  816MOL0     C10071  -1.928   5.131   1.860 -0.3524  0.4651  0.2773
  816MOL0     C10072  -1.799   5.164   1.873  0.3753 -0.4316 -0.2744
  816MOL0     O10073  -1.637   5.402   1.632 -0.4353 -0.1303  0.6247
  816MOL0     C10074  -1.359   5.354   1.615  0.5295  0.2251  0.0870
  816MOL0     C10075  -1.226   5.401   1.592  0.4826  0.3540  0.0769
  816MOL0     N10076  -0.591   5.857   1.526 -0.0024  0.3506  1.0788
  816MOL0     N10077  -0.528   5.964   1.550  0.8148 -0.3270  0.3030
  816MOL0     C10078   0.608   6.287   1.752  0.5838  0.1125 -0.6686
  816MOL0     C10079   0.735   6.297   1.811 -0.0490 -0.6040 -0.2629
  816MOL0     C10080   1.147   6.250   1.923 -0.2505  1.2080 -0.2350
  816MOL0     C10081   1.263   6.255   1.845 -0.5524 -0.2115  0.4334
  816MOL0     C10082   1.372   6.319   1.896 -0.2833 -0.2768 -0.5900
  816MOL0     C10083   1.377   6.366   2.030  0.3535  0.4777 -0.1073
  816MOL0     O10084   1.498   6.418   2.071  0.5213 -0.0061  0.0254
  816MOL0     C10085   1.517   6.454   2.209  0.2968 -0.2954  0.1552
  816MOL0     C10086   1.520   6.325   2.298 -0.5117  0.1584 -0.8169
  816MOL0     C10087   1.602   6.344   2.430  0.1017 -0.3101 -0.3930
  816MOL0     C10088   1.745   6.350   2.414 -0.4448 -0.0337 -0.7539
  816MOL0     C10089   1.824   6.342   2.541 -0.3523  0.7432 -0.2481
  816MOL0     C10090   1.888   6.337   2.642 -0.0358 -0.3933 -0.1148
  816MOL0     C10091   1.263   6.354   2.111  0.0308 -0.8318 -0.6398
  816MOL0     C10092   1.144   6.291   2.054  0.2462 -0.5780  0.6338
  816MOL0     H10093   0.753   5.989   1.945 -0.4860 -0.2263 -0.8255
  816MOL0     H10094   0.534   5.969   1.843  3.2279 -0.4161  3.4009
  816MOL0     H10095   0.283   6.118   1.848  1.1082 -1.0664 -1.1189
  816MOL0     H10096   0.327   6.291   1.832  4.4482  1.0941 -2.6491
  816MOL0     H10097   0.201   6.323   1.633  3.8589  1.1558  2.0263
  816MOL0     H10098   0.172   6.144   1.611 -1.4817  1.3410 -1.8402
  816MOL0     H10099   0.057   6.141   1.839 -0.1477 -0.1124 -0.2646
  816MOL0     H10100   0.064   6.320   1.844  0.9543  0.2676 -0.6654
  816MOL0     H10101  -0.077   6.310   1.636 -1.4268 -0.5210 -0.2806
  816MOL0     H10102  -0.096   6.137   1.681 -2.1765  1.3880 -4.1108
  816MOL0     H10103  -0.164   6.192   1.913 -0.0942 -0.3025 -0.6471
  816MOL0     H10104  -0.147   6.369   1.875 -1.8906  0.4329  0.7112
  816MOL0     H10105  -0.384   6.312   1.840  0.4907  4.3550 -0.7954
  816MOL0     H10106  -0.313   6.375   1.702  0.2779  1.1117  2.7043
  816MOL0     H10107  -0.445   6.202   1.626  0.6616  0.2122 -0.9609
  816MOL0     H10108  -0.289   6.156   1.595 -2.0499 -1.9183 -1.5734
  816MOL0     H10109  -0.463   6.054   1.843 -1.3152 -0.9373 -1.3748
  816MOL0     H10110  -0.299   6.001   1.795  1.3605  2.4941 -0.6235
  816MOL0     H10111  -0.427   5.759   1.785 -3.0307  0.4478  1.9970
  816MOL0     H10112  -0.537   5.568   1.537  2.4408 -0.0511  1.8588
  816MOL0     H10113  -0.562   5.574   1.713  3.5992  1.7523  0.5289
  816MOL0     H10114  -0.756   5.626   1.484 -1.1139  0.3353  0.1652
  816MOL0     H10115  -0.795   5.688   1.640  1.0607  0.6692 -0.8238
  816MOL0     H10116  -0.787   5.450   1.731 -1.3351 -3.9824 -0.2554
  816MOL0     H10117  -0.737   5.391   1.575  2.5868  1.8762 -0.7902
  816MOL0     H10118  -0.953   5.344   1.589  2.0241 -0.2461 -0.7720
  816MOL0     H10119  -0.955   5.478   1.485  0.4506  0.6620  0.7282
  816MOL0     H10120  -1.176   5.602   1.842 -1.2568  1.1566  0.2337
  816MOL0     H10121  -1.415   5.527   2.003 -1.8828 -0.1430 -0.1664
  816MOL0     H10122  -1.407   5.686   1.930  0.3762 -0.1926  1.3023
  816MOL0     H10123  -1.550   5.591   1.908 -0.6791 -2.7422 -2.9623
  816MOL0     H10124  -1.820   5.494   1.806  2.2610 -0.9320 -1.7126
  816MOL0     H10125  -2.055   5.447   1.800 -0.7002 -2.2705 -2.6813
  816MOL0     H10126  -2.145   5.098   1.638 -0.0407  1.4492  0.1972
  816MOL0     H10127  -2.224   5.007   1.770  2.7727 -0.3828  0.0645
  816MOL0     H10128  -2.334   5.238   1.616 -1.3691 -0.3302 -2.1327
  816MOL0     H10129  -2.380   5.067   1.588  2.6047  0.4594 -2.0828
  816MOL0     H10130  -2.427   5.076   1.852  0.6589 -0.4648  0.3762
  816MOL0     H10131  -2.547   5.086   1.724  0.1807  0.6244  0.8534
  816MOL0     H10132  -2.404   5.327   1.846 -0.2703 -1.3471  0.9450
  816MOL0     H10133  -2.518   5.343   1.714 -3.6184  0.4282 -0.0751
  816MOL0     H10134  -2.694   5.239   1.870 -1.9204  1.6790  0.6336
  816MOL0     H10135  -2.636   5.418   1.888  1.8792  0.2675  1.7680
  816MOL0     H10136  -2.591   5.190   2.081 -1.3900  1.9167  1.3611
  816MOL0     H10137  -2.449   5.283   2.029  0.0256  0.7540  2.3326
  816MOL0     H10138  -2.695   5.365   2.180 -0.3953 -0.8142 -0.2788
  816MOL0     H10139  -2.624   5.486   2.081  0.1266 -0.6664  0.2954
  816MOL0     H10140  -2.409   5.440   2.194 -0.1141 -2.7135 -2.2684
  816MOL0     H10141  -2.487   5.304   2.280  1.6212 -0.1983 -1.4281
  816MOL0     H10142  -1.956   5.026   1.859  0.3221  0.1696 -3.5063
  816MOL0     H10143  -1.726   5.084   1.880 -2.5397 -3.4093 -1.2819
  816MOL0     H10144  -1.401   5.286   1.543 -0.7115 -0.9790  1.8575
  816MOL0     H10145  -1.176   5.365   1.502 -0.9898  0.0298 -0.6511
  816MOL0     H10146   0.565   6.361   1.685  0.2430  0.7759  0.2679
  816MOL0     H10147   0.792   6.389   1.808  1.1549 -1.2921  0.6005
  816MOL0     H10148   1.273   6.208   1.748  1.5498  0.2749  0.3648
  816MOL0     H10149   1.459   6.321   1.831  2.6161  2.6105  2.9361
  816MOL0     H10150   1.611   6.510   2.218  0.0979 -0.1527  1.6216
  816MOL0     H10151   1.431   6.519   2.230 -2.8600 -3.0612 -2.9830
  816MOL0     H10152   1.562   6.247   2.235 -3.6324 -1.8738 -0.5591
  816MOL0     H10153   1.413   6.311   2.317 -1.5619  2.4850 -3.9851
  816MOL0     H10154   1.581   6.258   2.494 -1.1216  1.0154  1.0815
  816MOL0     H10155   1.545   6.424   2.478 -0.8219 -2.2388  1.9384
  816MOL0     H10156   1.775   6.443   2.364 -0.2747 -0.3014 -1.1629
  816MOL0     H10157   1.776   6.268   2.348 -1.4533  0.1428 -1.4665
  816MOL0     H10158   1.943   6.332   2.734 -2.2350 -1.2732  1.2460
  816MOL0     H10159   1.262   6.406   2.206  0.1869  0.4335 -1.3047
  816MOL0     H10160   1.058   6.289   2.120  1.5363 -0.7218  2.3885
  817MOL0     O10161   3.630   8.437  10.670 -1.0884  0.2690 -0.8090
  817MOL0     C10162   3.689   8.535  10.634  0.0172  0.5276 -0.7518
  817MOL0     O10163   3.652   8.666  10.648 -0.1951 -0.4976 -0.6573
  817MOL0     C10164   3.521   8.689  10.678  0.1802  0.5659 -0.1310
  817MOL0     C10165   3.436   8.721  10.573  1.0065 -0.1384  0.5157
  817MOL0     C10166   3.295   8.744  10.590  0.4243  0.0650 -0.3584
  817MOL0     C10167   3.244   8.727  10.725  0.7718  0.2318 -0.1533
  817MOL0     O10168   3.107   8.747  10.731 -0.3705  0.2653  0.6331
  817MOL0     C10169   3.056   8.766  10.859 -0.5322  1.1981 -0.7902
  817MOL0     C10170   2.912   8.791  10.851 -0.1044 -0.5333 -0.9096
  817MOL0     C10171   2.875   8.852  10.991  0.6194 -0.2323 -0.0151
  817MOL0     C10172   2.723   8.890  10.999 -0.6043 -0.4474  0.1695
  817MOL0     C10173   2.715   8.984  11.110  0.6434 -0.8091 -0.5058
  817MOL0     C10174   2.569   9.024  11.149  0.0784  0.4239 -0.3201
  817MOL0     C10175   2.473   8.922  11.211 -0.1992 -0.3637 -0.0485
  817MOL0     C10176   2.326   8.964  11.232 -0.3539 -0.5265  0.1629
  817MOL0     N10177   2.245   8.873  11.307  0.6731  0.1240 -0.1742
  817MOL0     C10178   2.110   8.877  11.323 -0.2032 -0.1735  0.0919
  817MOL0     C10179   2.087   8.813  11.441  0.1661 -0.6368 -0.6651
  817MOL0     C10180   1.957   8.772  11.502 -0.3593  0.0068 -0.5062
  817MOL0     C10181   1.886   8.902  11.538  0.0481  0.1947  0.0356
  817MOL0     C10182   1.763   8.857  11.626 -0.3342  1.1451 -0.4077
  817MOL0     C10183   1.663   8.969  11.664  0.0246 -0.9634 -1.1176
  817MOL0     O10184   1.557   8.899  11.734  0.4274  0.5199 -0.4534
  817MOL0     C10185   1.431   8.935  11.705  0.6441  0.0588 -0.9709
  817MOL0     C10186   1.353   8.950  11.825  0.1379 -0.1330  0.6665
  817MOL0     C10187   1.214   8.991  11.807  0.2237  0.2896  0.2610
  817MOL0     C10188   1.127   8.976  11.938 -0.7050  0.0817  0.2486
  817MOL0     C10189   1.163   9.040  11.681 -0.2723  0.4838 -0.8285
  817MOL0     C10190   1.021   9.070  11.652 -0.4159 -0.6286 -0.5183
  817MOL0     O10191   0.966   9.029  11.533  0.3379  0.3739  0.6321
  817MOL0     C10192   0.856   9.096  11.501  0.1085 -0.5338 -0.3864
  817MOL0     C10193   0.841   9.215  11.416 -0.3545  0.3152  0.0881
  817MOL0     C10194   0.719   9.261  11.370  0.0634 -0.4282  0.4699
  817MOL0     C10195   0.601   9.201  11.405  0.8029  0.7888 -0.3902
  817MOL0     O10196   0.478   9.224  11.342 -0.0843  0.4831  0.3687
  817MOL0     C10197   0.448   9.359  11.293 -0.1491  0.4455 -0.3935
  817MOL0     C10198   0.298   9.361  11.264  0.4285  0.3923  0.5528
  817MOL0     C10199   0.208   9.367  11.383  0.6941  0.6943 -0.4862
  817MOL0     C10200   0.128   9.506  11.400  0.3571 -0.0469 -0.4577
  817MOL0     C10201   0.082   9.531  11.552  0.1200 -0.7073 -0.0948
  817MOL0     C10202   0.020   9.406  11.626 -0.8194  0.2482  0.2538
  817MOL0     C10203  -0.058   9.434  11.758  0.1962  0.2133  0.1678
  817MOL0     C10204  -0.123   9.305  11.808 -0.4160  0.4571 -0.2117
  817MOL0    Cl10205  -0.236   9.243  11.688  0.1389  0.2674 -0.3377
  817MOL0     C10206   0.610   9.088  11.486 -0.2359 -0.3623  0.5979
  817MOL0     C10207   0.734   9.039  11.532 -0.2388 -0.6744 -0.5044
  817MOL0     O10208   0.969   9.151  11.734  0.1912  0.1186 -0.1576
  817MOL0     C10209   1.246   9.019  11.574 -0.4374 -0.5206 -0.3404
  817MOL0     C10210   1.378   8.971  11.582 -0.2586 -0.0796  0.1720
  817MOL0     N10211   2.200   8.760  11.481  0.1613 -0.1078 -0.3461
  817MOL0     N10212   2.291   8.790  11.401  0.6840 -0.0671  0.0973
  817MOL0     C10213   3.333   8.700  10.832  0.3845  0.6935  0.3848
  817MOL0     C10214   3.468   8.677  10.807  0.5853  0.0209  0.4187
  817MOL0     C10215   3.823   8.508  10.581  0.5483 -0.0906 -0.2379
  817MOL0     C10216   3.894   8.388  10.610  0.2657  0.4266  0.3278
  817MOL0     C10217   4.009   8.360  10.532 -0.4503  0.4736  0.4346
  817MOL0     C10218   4.060   8.456  10.439 -0.2526  0.1428  0.0314
  817MOL0     O10219   4.184   8.443  10.376 -0.1756 -0.2001 -0.1176
  817MOL0     C10220   4.247   8.313  10.371 -0.8707 -0.4157 -0.0445
  817MOL0     C10221   4.385   8.318  10.293  0.5493 -0.4463 -0.8929
  817MOL0     C10222   4.353   8.274  10.158 -0.0995 -0.4416 -0.0646
  817MOL0     C10223   4.480   8.277  10.069 -0.2470  0.3367  0.4093
  817MOL0     C10224   4.448   8.262   9.927  0.2690  0.5700  0.4304
  817MOL0     C10225   4.429   8.237   9.807  0.3172 -0.4173  1.6093
  817MOL0     C10226   3.997   8.582  10.428 -0.5439 -0.1609  0.4495
  817MOL0     C10227   3.883   8.610  10.500  0.2832 -0.6382 -0.1991
  817MOL0     H10228   3.481   8.708  10.475  1.9194 -2.0175  1.1420
  817MOL0     H10229   3.213   8.766  10.522 -4.9249 -0.8774  4.9071
  817MOL0     H10230   3.074   8.675  10.918  0.5934  2.6652  1.2578
  817MOL0     H10231   3.115   8.845  10.908  1.4335  0.6288 -2.1199
  817MOL0     H10232   2.895   8.872  10.779 -2.0322  0.5645  0.6799
  817MOL0     H10233   2.842   8.712  10.821 -1.1899  0.7615 -1.9038
  817MOL0     H10234   2.878   8.774  11.068 -4.5251 -2.4892 -1.7029
  817MOL0     H10235   2.938   8.942  10.998  0.9515 -0.5635  2.1578
  817MOL0     H10236   2.691   8.930  10.902 -0.4201 -0.4669  0.0987
  817MOL0     H10237   2.656   8.805  11.014  1.0554 -2.2638 -1.9432
  817MOL0     H10238   2.761   8.939  11.198 -2.0795 -2.3404  0.2688
  817MOL0     H10239   2.773   9.072  11.081  0.4245 -1.3629 -2.8519
  817MOL0     H10240   2.576   9.112  11.214  1.0867 -0.4535  0.8106
  817MOL0     H10241   2.528   9.055  11.052  1.3200  1.1849 -0.6240
  817MOL0     H10242   2.484   8.829  11.154 -1.3287  0.0129 -0.9324
  817MOL0     H10243   2.500   8.903  11.316 -2.6639 -1.7229  0.4174
  817MOL0     H10244   2.269   9.001  11.146  0.2611  1.1765  0.4529
  817MOL0     H10245   2.341   9.053  11.293 -2.2759 -0.1249  0.1181
  817MOL0     H10246   2.028   8.923  11.268 -0.3034 -0.2483  0.1771
  817MOL0     H10247   1.900   8.708  11.434 -0.0241 -0.6433 -0.1835
  817MOL0     H10248   1.978   8.724  11.598 -0.7127 -0.6366 -0.7448
  817MOL0     H10249   1.844   8.942  11.445  1.8344  0.1895 -0.8288
  817MOL0     H10250   1.952   8.975  11.586 -2.3321  2.7217 -0.2579
  817MOL0     H10251   1.785   8.798  11.716 -0.1054  0.2810 -1.0188
  817MOL0     H10252   1.702   8.785  11.571 -1.0035  0.1841  1.4791
  817MOL0     H10253   1.621   9.016  11.575  0.4711  2.3252  0.2565
  817MOL0     H10254   1.709   9.039  11.735 -1.2353 -0.3268 -0.8932
  817MOL0     H10255   1.385   8.912  11.921  0.1565 -2.1919 -0.0925
  817MOL0     H10256   1.095   9.072  11.980  0.9954  1.3858 -1.2486
  817MOL0     H10257   1.034   8.927  11.906 -0.5425 -0.4903  0.6440
  817MOL0     H10258   1.171   8.910  12.013 -0.5850 -0.7340 -0.5123
  817MOL0     H10259   0.930   9.264  11.377  1.9208 -0.2369  4.0614
  817MOL0     H10260   0.710   9.351  11.310 -0.6803  0.2899  1.6239
  817MOL0     H10261   0.468   9.431  11.373 -1.0584  2.5083 -1.9286
  817MOL0     H10262   0.510   9.368  11.204 -0.8457 -1.8749 -1.2002
  817MOL0     H10263   0.281   9.456  11.212 -1.0725 -0.9580 -1.6059
  817MOL0     H10264   0.279   9.278  11.195  0.2303  0.3889  0.6092
  817MOL0     H10265   0.267   9.359  11.475  1.6728  0.7334 -1.0958
  817MOL0     H10266   0.134   9.287  11.382  2.9319 -1.5168 -2.9538
  817MOL0     H10267   0.181   9.598  11.372  2.2271 -1.6680 -2.6196
  817MOL0     H10268   0.033   9.492  11.348 -0.0253  0.4602  0.0936
  817MOL0     H10269   0.014   9.617  11.552 -3.7598 -3.4419 -2.3711
  817MOL0     H10270   0.163   9.566  11.616 -0.9927  0.5147  0.7045
  817MOL0     H10271  -0.049   9.368  11.550  0.1362 -0.0931 -0.4557
  817MOL0     H10272   0.108   9.345  11.647  2.1680  3.6875 -1.1674
  817MOL0     H10273  -0.135   9.511  11.745 -1.3308 -1.3478 -0.5096
  817MOL0     H10274   0.011   9.481  11.829 -0.2403  0.0025  0.7357
  817MOL0     H10275  -0.156   9.340  11.906 -1.0373 -2.0336  0.5413
  817MOL0     H10276  -0.047   9.228  11.823 -1.5620 -0.4106  1.3966
  817MOL0     H10277   0.510   9.047  11.499  0.3548 -2.3915 -0.6715
  817MOL0     H10278   0.739   8.949  11.593  2.0865  0.2506  0.8358
  817MOL0     H10279   1.212   9.051  11.476 -0.3474 -0.0379 -0.2183
  817MOL0     H10280   1.432   8.967  11.488 -4.1583  0.9508 -2.3847
  817MOL0     H10281   3.300   8.700  10.935 -0.9538  2.0411  0.0015
  817MOL0     H10282   3.535   8.649  10.887  1.2731 -0.5246 -0.3331
  817MOL0     H10283   3.841   8.319  10.675 -0.9063  0.3628 -0.6521
  817MOL0     H10284   4.055   8.262  10.525 -1.2509  0.2277 -2.4652
  817MOL0     H10285   4.281   8.290  10.472  0.7819 -0.7615 -0.6520
  817MOL0     H10286   4.180   8.232  10.340 -1.8118  0.1229  0.5470
  817MOL0     H10287   4.447   8.238  10.336  2.0299  1.4181  0.6300
  817MOL0     H10288   4.428   8.419  10.291 -0.0529 -0.1914 -0.9874
  817MOL0     H10289   4.274   8.335  10.114 -0.2302 -1.9530 -2.0939
  817MOL0     H10290   4.313   8.172  10.152 -1.8316  0.2909 -2.6326
  817MOL0     H10291   4.535   8.187  10.097  0.4934  1.0087  1.1556
  817MOL0     H10292   4.546   8.364  10.080  0.9822 -0.5989  0.5730
  817MOL0     H10293   4.411   8.202   9.707  2.6720  1.7766  0.2936
  817MOL0     H10294   4.044   8.660  10.368  0.6023 -1.8853 -0.9793
  817MOL0     H10295   3.840   8.708  10.483  2.8616  0.4735 -0.9662
  818MOL0     O10296  10.855   1.734   4.119 -0.4023  0.2599 -0.1040
  818MOL0     C10297  10.869   1.682   4.231 -0.0595  0.1646 -0.8553
  818MOL0     O10298  10.776   1.602   4.289 -0.7916 -0.3303  0.0911
  818MOL0     C10299  10.644   1.596   4.228 -0.1717 -0.8623 -0.2746
  818MOL0     C10300  10.574   1.699   4.168  0.3690 -0.3619 -0.0256
  818MOL0     C10301  10.437   1.694   4.127 -0.2387 -0.6615 -0.3519
  818MOL0     C10302  10.379   1.571   4.130  0.3955  0.2894  0.5090
  818MOL0     O10303  10.246   1.572   4.100 -0.0184 -0.4624 -0.0811
  818MOL0     C10304  10.167   1.450   4.106  0.0341 -0.8876  0.5298
  818MOL0     C10305  10.022   1.478   4.041 -0.5732 -0.0492 -0.5027
  818MOL0     C10306  10.021   1.460   3.889  0.1945 -0.3526 -0.4564
  818MOL0     C10307   9.900   1.507   3.829  0.2295 -0.2084  0.0276
  818MOL0     C10308   9.888   1.444   3.696  0.6777 -0.4946 -0.3616
  818MOL0     C10309   9.763   1.497   3.626  0.3969  0.8836 -0.9103
  818MOL0     C10310   9.770   1.485   3.468  0.1566 -1.0089 -0.4344
  818MOL0     C10311   9.639   1.527   3.402 -0.1005 -0.0575  0.1575
  818MOL0     N10312   9.632   1.505   3.255  0.0012 -0.3591 -0.6696
  818MOL0     C10313   9.530   1.445   3.193 -0.1361  0.1329 -0.2891
  818MOL0     C10314   9.562   1.455   3.067 -0.2984 -0.7631  0.1026
  818MOL0     C10315   9.492   1.398   2.953  0.5191  0.2467  0.8762
  818MOL0     C10316   9.469   1.248   2.962 -0.0028  0.7503 -0.3198
  818MOL0     C10317   9.381   1.191   2.849  0.7741  0.8042 -1.1586
  818MOL0     C10318   9.230   1.215   2.855 -0.7644 -0.4589  0.4017
  818MOL0     O10319   9.180   1.116   2.768  0.0700 -0.3381  0.2343
  818MOL0     C10320   9.048   1.115   2.741 -0.9100 -1.0425  0.1242
  818MOL0     C10321   9.026   1.013   2.650  0.3436  0.3558  0.1791
  818MOL0     C10322   8.894   0.987   2.603  0.2835 -0.0294 -0.4414
  818MOL0     C10323   8.886   0.889   2.482 -0.0598  0.2469  0.3188
  818MOL0     C10324   8.783   1.053   2.672 -0.2716 -0.0676  0.0742
  818MOL0     C10325   8.646   1.017   2.640  0.3004  0.1834  0.6123
  818MOL0     O10326   8.550   1.093   2.687 -0.0318  0.4805 -0.5937
  818MOL0     C10327   8.421   1.042   2.688  0.2842 -0.4556 -0.2774
  818MOL0     C10328   8.366   0.999   2.563  0.1502 -0.0938 -0.1169
  818MOL0     C10329   8.231   0.956   2.569 -0.2939 -0.0730 -0.1262
  818MOL0     C10330   8.153   0.958   2.681  0.1991 -0.5038 -0.7732
  818MOL0     O10331   8.025   0.914   2.680  0.0431 -0.9682  0.3741
  818MOL0     C10332   8.008   0.777   2.711  0.9672  0.0330  0.1028
  818MOL0     C10333   7.865   0.726   2.663 -0.6677  0.2691  0.1050
  818MOL0     C10334   7.744   0.795   2.740 -0.4764 -0.1635  0.4153
  818MOL0     C10335   7.623   0.707   2.743  0.9007 -1.4474 -0.8075
  818MOL0     C10336   7.498   0.773   2.803  0.8637  0.2400  0.6520
  818MOL0     C10337   7.372   0.678   2.821 -0.0392  0.2150  0.0629
  818MOL0     C10338   7.318   0.601   2.695  0.6222 -0.4997  0.4651
  818MOL0     C10339   7.193   0.520   2.714 -0.1178  0.3034 -0.1504
  818MOL0    Cl10340   7.053   0.613   2.783 -0.2495 -0.5173 -0.2315
  818MOL0     C10341   8.205   1.010   2.800  0.3750 -0.0268  0.8606
  818MOL0     C10342   8.340   1.047   2.805 -0.6109  0.5342 -0.0419
  818MOL0     O10343   8.625   0.901   2.591 -0.0661  0.1500 -0.1514
  818MOL0     C10344   8.811   1.150   2.773 -0.1162  0.2916 -0.5733
  818MOL0     C10345   8.940   1.188   2.798 -0.5673 -0.5817  0.0593
  818MOL0     N10346   9.679   1.524   3.053  0.1671 -0.2105  0.7399
  818MOL0     N10347   9.726   1.549   3.162 -0.1631  0.6810  0.3310
  818MOL0     C10348  10.447   1.461   4.180  0.0733 -0.0207  0.2123
  818MOL0     C10349  10.573   1.476   4.229 -1.0347  0.1326 -0.5164
  818MOL0     C10350  10.998   1.695   4.296 -0.3358 -0.5434 -0.1605
  818MOL0     C10351  11.029   1.648   4.431  0.4832  0.0763  0.8226
  818MOL0     C10352  11.153   1.653   4.495 -0.4266  0.9050 -0.1299
  818MOL0     C10353  11.259   1.712   4.434  0.6054 -0.4436 -0.1491
  818MOL0     O10354  11.384   1.747   4.477 -0.1705 -0.4348 -0.2501
  818MOL0     C10355  11.402   1.715   4.615 -0.9264 -0.6815  0.1321
  818MOL0     C10356  11.548   1.751   4.654  0.5034  0.0206  0.1321
  818MOL0     C10357  11.552   1.908   4.665 -0.0823  1.2698  0.5278
  818MOL0     C10358  11.693   1.953   4.625  0.6170  0.7255  0.8468
  818MOL0     C10359  11.807   1.925   4.712  0.4251  0.9066 -0.6897
  818MOL0     C10360  11.878   1.901   4.809  0.0726  0.4114  0.4125
  818MOL0     C10361  11.243   1.765   4.298  0.8606  0.2907  0.4755
  818MOL0     C10362  11.111   1.750   4.228  0.3703  0.1131 -0.3023
  818MOL0     H10363  10.615   1.799   4.171 -1.8561  0.5883  2.2072
  818MOL0     H10364  10.382   1.780   4.092  1.6530  1.6392  1.9739
  818MOL0     H10365  10.234   1.374   4.065  3.6522  2.2711  0.0091
  818MOL0     H10366  10.144   1.425   4.210 -0.8434  2.9384  1.4240
  818MOL0     H10367   9.944   1.410   4.077 -0.5445  0.3654  0.3637
  818MOL0     H10368   9.995   1.579   4.073  0.9228 -0.9701  4.7227
  818MOL0     H10369  10.107   1.511   3.845  1.5799 -0.1433  2.2806
  818MOL0     H10370  10.033   1.352   3.872  1.8413 -0.0770 -1.2242
  818MOL0     H10371   9.811   1.481   3.888 -1.7050 -1.3901 -3.1174
  818MOL0     H10372   9.913   1.615   3.827  2.5176 -0.3846  1.5421
  818MOL0     H10373   9.974   1.476   3.636  0.4091  1.2652  0.1281
  818MOL0     H10374   9.897   1.335   3.689  0.6874 -0.4027 -2.2762
  818MOL0     H10375   9.677   1.439   3.660 -0.5556  1.2628 -2.5957
  818MOL0     H10376   9.740   1.602   3.646 -4.3610 -0.1530  0.3914
  818MOL0     H10377   9.850   1.551   3.433 -0.1604  0.3047  1.1896
  818MOL0     H10378   9.794   1.383   3.437  1.1334 -1.1252  0.6201
  818MOL0     H10379   9.618   1.633   3.416  2.1062  0.5049 -0.3630
  818MOL0     H10380   9.556   1.469   3.444 -1.4797  1.3597 -0.4963
  818MOL0     H10381   9.447   1.384   3.225  0.0750  0.1152  0.2345
  818MOL0     H10382   9.393   1.444   2.944 -0.2262 -1.1223  1.7512
  818MOL0     H10383   9.542   1.418   2.858  1.7605  0.6824  1.6013
  818MOL0     H10384   9.444   1.217   3.064 -2.4165  3.6279  0.1132
  818MOL0     H10385   9.570   1.218   2.934 -0.8855 -1.8744 -0.9966
  818MOL0     H10386   9.396   1.083   2.853 -1.6140  0.3387 -2.6874
  818MOL0     H10387   9.417   1.223   2.751  1.7005  2.4505 -0.3201
  818MOL0     H10388   9.209   1.318   2.827 -0.6649 -0.2764  0.9909
  818MOL0     H10389   9.190   1.213   2.957  0.0215 -0.9296  0.7167
  818MOL0     H10390   9.114   0.967   2.606  1.2205  1.3928  0.7767
  818MOL0     H10391   8.833   0.798   2.512 -0.9529 -0.0879 -2.0632
  818MOL0     H10392   8.833   0.925   2.394 -1.3020  0.4535  1.1317
  818MOL0     H10393   8.985   0.854   2.449  2.5976  5.2456  1.8900
  818MOL0     H10394   8.429   0.987   2.476  0.3895 -0.6049  0.1228
  818MOL0     H10395   8.205   0.917   2.472 -0.1230  1.4844 -0.8375
  818MOL0     H10396   8.085   0.708   2.678  0.9109  0.2632 -0.5395
  818MOL0     H10397   8.011   0.785   2.820  0.7042 -1.5369  0.2450
  818MOL0     H10398   7.853   0.745   2.556 -0.2078  3.6484  0.5625
  818MOL0     H10399   7.867   0.621   2.696  3.5318  0.1006 -0.1312
  818MOL0     H10400   7.719   0.893   2.698  2.4339  1.2580  1.6828
  818MOL0     H10401   7.786   0.811   2.840  1.9306  1.4429 -0.7409
  818MOL0     H10402   7.599   0.691   2.637  0.7561 -2.0923 -0.6856
  818MOL0     H10403   7.637   0.617   2.803 -1.0032 -0.6673  0.9389
  818MOL0     H10404   7.479   0.869   2.754 -0.1562 -0.6244 -0.7127
  818MOL0     H10405   7.515   0.792   2.910  0.4253  1.1835  0.5589
  818MOL0     H10406   7.405   0.603   2.893 -0.8927  0.8934  1.1804
  818MOL0     H10407   7.291   0.720   2.880  1.2793 -2.0564  3.8404
  818MOL0     H10408   7.396   0.541   2.646 -0.6581 -1.3225 -0.6291
  818MOL0     H10409   7.283   0.676   2.624 -0.1978 -0.0531  1.3202
  818MOL0     H10410   7.228   0.441   2.781  0.4224  0.7666  0.1237
  818MOL0     H10411   7.168   0.482   2.615 -0.9481 -0.2469  0.2502
  818MOL0     H10412   8.140   1.014   2.887 -0.9571  0.5164 -0.1225
  818MOL0     H10413   8.377   1.081   2.901  0.9601  0.1309 -0.4877
  818MOL0     H10414   8.741   1.201   2.839 -0.5594  0.5392 -1.2271
  818MOL0     H10415   8.955   1.260   2.878 -3.5044  0.9948 -0.6605
  818MOL0     H10416  10.404   1.363   4.195  1.6120 -1.1826 -2.3066
  818MOL0     H10417  10.639   1.401   4.271  0.0856  0.9441 -0.7645
  818MOL0     H10418  10.941   1.611   4.484 -0.4875 -2.6746 -2.3435
  818MOL0     H10419  11.167   1.601   4.589 -1.1016 -1.5060 -1.2687
  818MOL0     H10420  11.326   1.763   4.678 -0.0483 -2.1158  2.4159
  818MOL0     H10421  11.390   1.608   4.638 -1.5614 -0.1309  2.7788
  818MOL0     H10422  11.622   1.701   4.591 -1.7018 -3.3412 -0.0060
  818MOL0     H10423  11.576   1.726   4.757  0.7911  2.3252  0.6700
  818MOL0     H10424  11.535   1.937   4.770 -2.1886  0.4455  0.4712
  818MOL0     H10425  11.473   1.960   4.609  1.2929  3.0966  0.1655
  818MOL0     H10426  11.689   2.062   4.615 -0.9116  0.6251  0.1646
  818MOL0     H10427  11.713   1.905   4.528 -2.0668 -2.4910  1.6958
  818MOL0     H10428  11.955   1.874   4.879  0.7117  1.3686  0.0995
  818MOL0     H10429  11.329   1.809   4.249 -0.9475  3.4158 -0.1454
  818MOL0     H10430  11.092   1.777   4.125  0.6134 -1.3816 -0.7619
  819MOL0     O10431   0.147   5.883   1.737 -0.5883  0.1391  0.0943
  819MOL0     C10432   0.119   5.796   1.657  0.9154 -0.0899  0.2291
  819MOL0     O10433   0.015   5.712   1.667 -0.4129  0.3197 -0.3271
  819MOL0     C10434  -0.075   5.707   1.773  0.5149  0.5957  0.6098
  819MOL0     C10435  -0.139   5.582   1.792 -0.1648 -0.2762  0.0547
  819MOL0     C10436  -0.218   5.557   1.902  0.8372  0.6249  0.0154
  819MOL0     C10437  -0.242   5.647   2.003  0.0300 -0.1285  1.1251
  819MOL0     O10438  -0.331   5.615   2.103  0.0725  0.5700 -0.0542
  819MOL0     C10439  -0.256   5.604   2.229 -1.1859  0.1130  0.8559
  819MOL0     C10440  -0.342   5.649   2.332  0.0853  0.0814 -0.3401
  819MOL0     C10441  -0.464   5.566   2.372  0.4825  0.9391  0.2707
  819MOL0     C10442  -0.536   5.619   2.501 -0.2335 -0.3121  0.5257
  819MOL0     C10443  -0.631   5.515   2.543 -0.0573 -0.4448  0.0939
  819MOL0     C10444  -0.684   5.548   2.686  0.0767 -0.2551  0.3929
  819MOL0     C10445  -0.781   5.440   2.722 -0.6110  0.1417 -1.5140
  819MOL0     C10446  -0.723   5.304   2.759 -0.6272  0.0820 -1.2202
  819MOL0     N10447  -0.730   5.204   2.658 -1.3562 -0.1675 -0.5695
  819MOL0     C10448  -0.632   5.166   2.570 -0.7847  0.7612  0.8764
  819MOL0     C10449  -0.689   5.074   2.486  0.4220 -0.4128 -0.1885
  819MOL0     C10450  -0.639   5.034   2.341 -0.1161  0.7058  0.1420
  819MOL0     C10451  -0.498   4.991   2.348 -1.3394 -0.2803  0.7829
  819MOL0     C10452  -0.450   4.949   2.214  0.5465  0.6554  0.0237
  819MOL0     C10453  -0.307   4.882   2.212 -0.0576 -0.4523  0.3943
  819MOL0     O10454  -0.310   4.743   2.252 -0.4980  0.2931  0.3783
  819MOL0     C10455  -0.188   4.695   2.240  0.2378  0.4793  0.6434
  819MOL0     C10456  -0.179   4.578   2.164  0.2164  0.7573 -0.0151
  819MOL0     C10457  -0.065   4.506   2.154 -0.6270  0.4476 -0.5840
  819MOL0     C10458  -0.086   4.388   2.069  0.3185 -0.1200 -0.0466
  819MOL0     C10459   0.055   4.552   2.208 -0.6975 -0.0517 -0.9521
  819MOL0     C10460   0.186   4.488   2.195  0.6956 -0.5267 -0.0028
  819MOL0     O10461   0.293   4.566   2.222  0.7164 -0.5494 -0.6241
  819MOL0     C10462   0.415   4.503   2.240 -0.1315  0.8152 -0.0031
  819MOL0     C10463   0.529   4.577   2.198  0.9196  0.0755  0.5790
  819MOL0     C10464   0.653   4.536   2.227 -0.4238  0.1871 -0.6819
  819MOL0     C10465   0.681   4.424   2.301  0.4002 -0.4574 -0.5379
  819MOL0     O10466   0.808   4.391   2.348 -0.6343  0.0847 -0.0643
  819MOL0     C10467   0.858   4.265   2.314  0.0662  0.0583  0.5490
  819MOL0     C10468   1.005   4.263   2.352  0.2103 -0.5967  0.5061
  819MOL0     C10469   1.090   4.347   2.262 -0.1769 -1.0506  1.2031
  819MOL0     C10470   1.239   4.337   2.306 -0.4698  0.2363  0.2045
  819MOL0     C10471   1.309   4.454   2.244  0.6962  0.9279 -0.3708
  819MOL0     C10472   1.453   4.438   2.287 -0.5891  0.7076  0.2736
  819MOL0     C10473   1.529   4.562   2.243 -0.4729 -0.6029 -0.3352
  819MOL0     C10474   1.676   4.536   2.258  0.0919 -0.2386  0.5762
  819MOL0    Cl10475   1.737   4.433   2.132 -0.4047  0.7152 -0.5109
  819MOL0     C10476   0.570   4.347   2.335 -0.5051 -0.1355  0.8064
  819MOL0     C10477   0.438   4.377   2.303 -0.5263 -0.1469  0.3734
  819MOL0     O10478   0.195   4.370   2.157  0.1833  0.4045 -0.4912
  819MOL0     C10479   0.048   4.677   2.282  0.6854 -0.7333  0.2379
  819MOL0     C10480  -0.071   4.748   2.297 -0.0382 -0.0037  0.1820
  819MOL0     N10481  -0.818   5.052   2.537 -0.9404  0.3331 -0.8218
  819MOL0     N10482  -0.834   5.125   2.648 -1.0384 -0.4098  0.4434
  819MOL0     C10483  -0.183   5.777   1.990  0.0142  0.5933 -0.1245
  819MOL0     C10484  -0.100   5.806   1.872 -0.1741  0.1760  0.4213
  819MOL0     C10485   0.199   5.761   1.541  0.1464  1.4489  0.3573
  819MOL0     C10486   0.155   5.673   1.441 -0.3080 -0.2144  0.2045
  819MOL0     C10487   0.233   5.640   1.330 -0.2056  0.7899  0.4915
  819MOL0     C10488   0.356   5.704   1.310 -0.0258  0.0066  1.0758
  819MOL0     O10489   0.433   5.676   1.198 -0.5837 -0.1522 -0.0592
  819MOL0     C10490   0.497   5.552   1.195  0.0770  0.6966  0.2376
  819MOL0     C10491   0.580   5.521   1.068 -0.2385 -0.7128 -0.0348
  819MOL0     C10492   0.695   5.618   1.027 -0.2824  0.4293 -0.0466
  819MOL0     C10493   0.764   5.658   1.153  0.3946  0.2062 -0.4174
  819MOL0     C10494   0.884   5.734   1.128 -0.0879 -0.2264 -0.2804
  819MOL0     C10495   0.998   5.776   1.133  0.1024 -0.2948  0.8178
  819MOL0     C10496   0.396   5.799   1.404  0.4846 -0.5347  0.3617
  819MOL0     C10497   0.332   5.821   1.527  0.0568 -0.8119  1.0660
  819MOL0     H10498  -0.129   5.501   1.720  1.4489 -0.9280  0.9592
  819MOL0     H10499  -0.252   5.454   1.911  1.1870  0.5622  0.6667
  819MOL0     H10500  -0.210   5.507   2.245  4.4126  2.4507  1.1055
  819MOL0     H10501  -0.165   5.665   2.223 -3.1730  3.1638 -1.6813
  819MOL0     H10502  -0.276   5.647   2.419 -1.3845  1.7867  0.8940
  819MOL0     H10503  -0.363   5.756   2.325  0.4404  0.1641 -0.1803
  819MOL0     H10504  -0.538   5.566   2.291 -0.1510 -0.6870  0.8212
  819MOL0     H10505  -0.435   5.461   2.384 -0.4828  0.3765 -1.8517
  819MOL0     H10506  -0.470   5.643   2.585 -0.0174  0.8804  0.0270
  819MOL0     H10507  -0.589   5.711   2.476 -1.0350 -0.5471  1.2728
  819MOL0     H10508  -0.716   5.523   2.475 -2.2002  1.1381  2.7283
  819MOL0     H10509  -0.588   5.414   2.536 -1.1449 -0.9677  0.6471
  819MOL0     H10510  -0.609   5.556   2.765  0.3495  0.9352  0.0357
  819MOL0     H10511  -0.734   5.646   2.679 -1.7204 -0.7851  3.7107
  819MOL0     H10512  -0.831   5.481   2.811 -0.8623 -0.9746 -1.1235
  819MOL0     H10513  -0.853   5.415   2.644  1.6078 -2.5834 -2.8446
  819MOL0     H10514  -0.776   5.268   2.848  2.2960 -1.6931 -0.0664
  819MOL0     H10515  -0.621   5.306   2.798 -1.1024  0.1139  0.0767
  819MOL0     H10516  -0.531   5.206   2.565 -0.3746 -0.2048  1.2211
  819MOL0     H10517  -0.697   4.949   2.306 -0.0148  0.2891  0.9762
  819MOL0     H10518  -0.654   5.120   2.274  0.1031  1.1215  0.6178
  819MOL0     H10519  -0.480   4.906   2.414  4.0386 -0.1579 -0.1490
  819MOL0     H10520  -0.435   5.075   2.380  0.2682 -0.2362 -2.1893
  819MOL0     H10521  -0.452   5.037   2.148  1.9046 -0.3885 -1.4799
  819MOL0     H10522  -0.520   4.884   2.161 -0.8357  1.8477  0.3028
  819MOL0     H10523  -0.248   4.944   2.281 -0.0799 -0.9440  0.8513
  819MOL0     H10524  -0.268   4.891   2.110 -0.0696 -1.3850  0.3045
  819MOL0     H10525  -0.274   4.539   2.129  1.0601 -0.9657 -0.4829
  819MOL0     H10526  -0.017   4.413   1.988 -0.5450 -0.4585 -0.9037
  819MOL0     H10527  -0.064   4.285   2.099 -2.1538 -0.9748 -0.8969
  819MOL0     H10528  -0.182   4.372   2.019 -0.1845  0.3837  0.7194
  819MOL0     H10529   0.501   4.674   2.159 -2.1546 -0.6089  0.8622
  819MOL0     H10530   0.734   4.606   2.205 -1.4350  1.1745 -1.3440
  819MOL0     H10531   0.795   4.186   2.355 -1.0476 -0.2661 -1.6215
  819MOL0     H10532   0.854   4.256   2.205  1.0942  0.8398  0.4350
  819MOL0     H10533   1.024   4.296   2.455  3.4134 -1.1914  0.1990
  819MOL0     H10534   1.037   4.159   2.347  0.7767 -0.4197  0.3733
  819MOL0     H10535   1.047   4.447   2.257 -0.8671 -1.3855 -0.0714
  819MOL0     H10536   1.101   4.313   2.159  0.0657 -1.3546  1.3270
  819MOL0     H10537   1.237   4.335   2.416  0.0344 -0.4131  0.2084
  819MOL0     H10538   1.275   4.241   2.270 -0.8971  0.5430 -1.0868
  819MOL0     H10539   1.261   4.543   2.287 -1.1173  0.6771 -1.7859
  819MOL0     H10540   1.292   4.458   2.136 -2.6741 -2.4279 -0.1587
  819MOL0     H10541   1.448   4.440   2.396  0.0875  3.8403  0.3499
  819MOL0     H10542   1.491   4.344   2.245  1.3823  1.6408 -0.1469
  819MOL0     H10543   1.500   4.645   2.308 -1.7626 -1.6030  0.4403
  819MOL0     H10544   1.509   4.584   2.138  3.0573  2.8848 -0.5192
  819MOL0     H10545   1.711   4.507   2.358  1.6116  0.6914  0.3335
  819MOL0     H10546   1.739   4.624   2.243 -0.0440 -0.3307 -0.5631
  819MOL0     H10547   0.580   4.272   2.413  1.3316  0.7744  1.4967
  819MOL0     H10548   0.361   4.306   2.330  1.4857 -1.1591  4.1341
  819MOL0     H10549   0.135   4.725   2.327 -0.4012  3.1194 -1.3258
  819MOL0     H10550  -0.081   4.834   2.362 -2.7283  1.4431 -1.9225
  819MOL0     H10551  -0.200   5.847   2.071 -0.9057 -0.4952  0.6675
  819MOL0     H10552  -0.063   5.907   1.856  3.2339 -0.8145  1.0378
  819MOL0     H10553   0.062   5.617   1.444 -0.8511  0.6895  2.2424
  819MOL0     H10554   0.206   5.580   1.244  0.7333 -0.0351  0.7625
  819MOL0     H10555   0.552   5.543   1.290  1.9136 -0.5219 -0.8744
  819MOL0     H10556   0.431   5.468   1.216  0.0403  0.8984  0.9627
  819MOL0     H10557   0.526   5.524   0.973  0.3600  1.7863 -0.3586
  819MOL0     H10558   0.619   5.421   1.088 -3.1769 -2.5002 -2.3462
  819MOL0     H10559   0.642   5.703   0.984 -0.0259  0.4470 -0.3373
  819MOL0     H10560   0.768   5.582   0.953 -0.2723  3.0226 -1.4328
  819MOL0     H10561   0.784   5.569   1.213 -2.5926 -0.4755 -0.3016
  819MOL0     H10562   0.703   5.718   1.221 -1.7579 -4.1594  1.8821
  819MOL0     H10563   1.102   5.801   1.135  0.2588 -0.9277  0.9110
  819MOL0     H10564   0.490   5.848   1.381 -0.2552  1.2978  1.0026
  819MOL0     H10565   0.364   5.888   1.606 -0.1137  0.1920  0.3127
  820MOL0     O10566   0.222  10.748   7.209  0.6475  0.7932 -0.2816
  820MOL0     C10567   0.134  10.761   7.299 -0.8748  0.3959  0.2282
  820MOL0     O10568   0.127  10.868   7.374 -0.0739 -1.0176  0.1180
  820MOL0     C10569   0.198  10.987   7.360  0.9150 -0.6464 -0.0840
  820MOL0     C10570   0.146  11.099   7.295 -0.5680 -0.3832  0.4631
  820MOL0     C10571   0.225  11.220   7.288  0.0167 -0.1389  0.0011
  820MOL0     C10572   0.352  11.223   7.345 -0.0943 -1.1982 -0.6089
  820MOL0     O10573   0.411  11.350   7.332 -0.3178  0.8762  0.1722
  820MOL0     C10574   0.530  11.392   7.393 -0.0084 -0.2370  0.4906
  820MOL0     C10575   0.653  11.315   7.340  0.8231 -0.5825 -0.2231
  820MOL0     C10576   0.677  11.366   7.197 -0.3144 -0.6054 -0.7547
  820MOL0     C10577   0.764  11.263   7.125  0.6270 -0.0120 -0.2277
  820MOL0     C10578   0.841  11.315   7.005 -0.5081 -1.5801 -0.7140
  820MOL0     C10579   0.755  11.380   6.895  0.5676 -0.4039  0.2158
  820MOL0     C10580   0.811  11.390   6.753 -0.7725  0.3304  0.0667
  820MOL0     C10581   0.846  11.248   6.692 -0.2893 -1.1143  0.2986
  820MOL0     N10582   0.730  11.159   6.678 -0.4927  0.3751  0.4608
  820MOL0     C10583   0.710  11.044   6.760 -0.1291 -0.7752  0.4773
  820MOL0     C10584   0.614  10.977   6.684 -0.0440  0.1378 -0.6235
  820MOL0     C10585   0.579  10.832   6.706 -0.5838 -0.6023  0.9831
  820MOL0     C10586   0.463  10.821   6.800  0.4773  0.5165 -0.1354
  820MOL0     C10587   0.334  10.844   6.723 -0.6372 -0.1821  0.2546
  820MOL0     C10588   0.211  10.808   6.800 -0.6619  0.0772 -0.8097
  820MOL0     O10589   0.202  10.665   6.825 -0.3016  0.2239 -0.7421
  820MOL0     C10590   0.080  10.613   6.849  0.2280  0.8399 -0.3196
  820MOL0     C10591   0.026  10.520   6.757 -0.1147  0.0385 -0.4159
  820MOL0     C10592  -0.110  10.491   6.769  0.5943  0.8357 -0.0283
  820MOL0     C10593  -0.179  10.414   6.663  0.3947 -0.1510  0.5879
  820MOL0     C10594  -0.189  10.544   6.880  0.0234 -0.6655 -0.5689
  820MOL0     C10595  -0.327  10.512   6.908  0.6240  1.0632  1.1315
  820MOL0     O10596  -0.363  10.376   6.896  0.1234 -0.1630 -0.6833
  820MOL0     C10597  -0.492  10.337   6.875  0.1807 -0.4969 -0.5816
  820MOL0     C10598  -0.519  10.204   6.895  0.3937 -0.5041  0.4731
  820MOL0     C10599  -0.639  10.145   6.856 -0.3552  0.2734 -0.4394
  820MOL0     C10600  -0.739  10.221   6.794  0.1893 -1.1054  1.5043
  820MOL0     O10601  -0.857  10.179   6.737  0.2248 -0.0742 -0.1443
  820MOL0     C10602  -0.862  10.043   6.713  0.3757  0.6748 -0.0307
  820MOL0     C10603  -1.005   9.994   6.677  0.3033 -0.0709 -0.2782
  820MOL0     C10604  -1.041  10.036   6.540  0.8920 -0.1059  0.0280
  820MOL0     C10605  -1.192   9.994   6.513 -0.6836 -0.4742 -0.3196
  820MOL0     C10606  -1.223   9.849   6.519 -0.3640 -0.2955 -0.0125
  820MOL0     C10607  -1.373   9.824   6.498 -0.3023 -0.6634 -0.4184
  820MOL0     C10608  -1.416   9.677   6.502  0.4208  0.1215 -0.9650
  820MOL0     C10609  -1.561   9.660   6.462 -0.4754  0.3057  0.7057
  820MOL0    Cl10610  -1.585   9.680   6.288  0.3673 -0.0487 -0.2607
  820MOL0     C10611  -0.715  10.357   6.774 -0.7888 -0.1126 -0.3029
  820MOL0     C10612  -0.587  10.415   6.802 -0.3738 -0.3152 -0.8160
  820MOL0     O10613  -0.402  10.596   6.950 -0.2687 -0.2312  0.0085
  820MOL0     C10614  -0.117  10.618   6.981  0.4403  1.3028 -0.4465
  820MOL0     C10615   0.012  10.658   6.955 -0.1662 -0.5177 -0.5928
  820MOL0     N10616   0.583  11.050   6.575  0.0164  0.0211  0.0925
  820MOL0     N10617   0.651  11.158   6.570 -0.0572 -1.0181  0.2077
  820MOL0     C10618   0.401  11.110   7.418  0.1491  0.2694  0.6139
  820MOL0     C10619   0.326  10.991   7.425  1.0268 -0.1708  0.2936
  820MOL0     C10620   0.048  10.646   7.334 -0.2182 -0.4126  0.8087
  820MOL0     C10621   0.050  10.527   7.258 -0.2359  0.0085 -0.2380
  820MOL0     C10622  -0.044  10.426   7.285 -0.3061 -0.7777 -0.5387
  820MOL0     C10623  -0.142  10.446   7.381 -0.7139 -0.3569 -0.4616
  820MOL0     O10624  -0.250  10.361   7.391 -0.8004  0.4955 -0.4285
  820MOL0     C10625  -0.323  10.354   7.265  0.3041  0.5541 -0.4515
  820MOL0     C10626  -0.471  10.318   7.287  0.4112  0.3267  0.1706
  820MOL0     C10627  -0.532  10.412   7.392  0.7741 -1.2363 -0.1023
  820MOL0     C10628  -0.685  10.428   7.363  0.4577 -0.4161  0.0728
  820MOL0     C10629  -0.760  10.303   7.390  0.3975 -0.1064 -0.2041
  820MOL0     C10630  -0.833  10.213   7.409  0.8653 -0.9073 -0.9022
  820MOL0     C10631  -0.140  10.559   7.460 -0.5366 -0.0676 -0.3369
  820MOL0     C10632  -0.048  10.661   7.437 -0.1963  0.2120 -0.1191
  820MOL0     H10633   0.051  11.108   7.243 -0.5835 -0.3498  0.4970
  820MOL0     H10634   0.192  11.310   7.237 -0.8698 -0.2691  0.3320
  820MOL0     H10635   0.549  11.497   7.370 -1.4696 -0.1036 -0.1965
  820MOL0     H10636   0.526  11.388   7.502  1.2977  0.3258  0.5800
  820MOL0     H10637   0.731  11.331   7.415  0.0017  1.4504  0.2945
  820MOL0     H10638   0.639  11.208   7.353  0.8865 -0.4560  1.0560
  820MOL0     H10639   0.586  11.376   7.138 -0.7048  1.3777  0.1125
  820MOL0     H10640   0.731  11.462   7.194  3.7514 -2.6920 -1.7336
  820MOL0     H10641   0.839  11.217   7.190  1.8420  1.0404 -0.8278
  820MOL0     H10642   0.693  11.187   7.091  4.5415 -2.1416 -4.7922
  820MOL0     H10643   0.914  11.389   7.039 -3.0457 -0.1345  2.1358
  820MOL0     H10644   0.889  11.228   6.958 -2.8597 -1.7799 -2.9626
  820MOL0     H10645   0.666  11.317   6.893  1.3265 -1.5073 -1.4727
  820MOL0     H10646   0.731  11.483   6.923  0.3937  0.0795 -1.6359
  820MOL0     H10647   0.739  11.438   6.685 -2.1983 -0.9772  0.5887
  820MOL0     H10648   0.897  11.456   6.771 -0.9124  0.3168  0.8089
  820MOL0     H10649   0.907  11.187   6.760  0.7014 -1.6635 -1.0485
  820MOL0     H10650   0.888  11.269   6.593 -1.9518 -0.5290 -0.3110
  820MOL0     H10651   0.777  10.994   6.830  3.7001 -0.0752 -2.3811
  820MOL0     H10652   0.550  10.791   6.609  1.8762  1.2394 -0.6648
  820MOL0     H10653   0.662  10.770   6.741 -1.2981 -2.0656  0.2008
  820MOL0     H10654   0.466  10.896   6.879  0.7493 -1.0730  1.4219
  820MOL0     H10655   0.462  10.719   6.840  0.6685  0.4457 -0.3097
  820MOL0     H10656   0.326  10.783   6.633 -0.4019 -0.6266  0.5279
  820MOL0     H10657   0.335  10.950   6.696  0.0337 -0.1610  0.3303
  820MOL0     H10658   0.123  10.840   6.744 -1.2781  2.2320  1.1835
  820MOL0     H10659   0.200  10.864   6.894 -2.6741 -1.8113  0.1608
  820MOL0     H10660   0.095  10.487   6.680 -0.1877 -0.5584 -0.2332
  820MOL0     H10661  -0.151  10.311   6.690 -0.8382 -0.0261  2.5598
  820MOL0     H10662  -0.288  10.423   6.662  0.5728  2.9943  1.2196
  820MOL0     H10663  -0.136  10.446   6.568  0.9920 -0.2463  0.8220
  820MOL0     H10664  -0.438  10.141   6.931 -0.9254 -2.4252  0.2036
  820MOL0     H10665  -0.653  10.038   6.867 -0.1470  0.4156  1.7309
  820MOL0     H10666  -0.787  10.025   6.636  0.4088 -0.1255  0.1810
  820MOL0     H10667  -0.840   9.973   6.794 -5.4864 -1.6855  0.0455
  820MOL0     H10668  -1.020   9.887   6.691 -3.1924  0.4445  0.8088
  820MOL0     H10669  -1.081  10.039   6.742 -0.6314 -0.2533 -1.2178
  820MOL0     H10670  -0.984   9.980   6.466  2.6802 -1.5890  2.3791
  820MOL0     H10671  -1.015  10.138   6.510  3.3005 -0.7863 -0.4054
  820MOL0     H10672  -1.243  10.048   6.593  1.2273 -0.8672  1.2395
  820MOL0     H10673  -1.215  10.032   6.413  1.5605 -2.8133 -1.8736
  820MOL0     H10674  -1.193   9.802   6.613  2.2885 -0.7816 -1.0060
  820MOL0     H10675  -1.170   9.809   6.433 -1.2457  2.2870 -1.8843
  820MOL0     H10676  -1.429   9.895   6.560 -1.2573  0.0456 -2.0198
  820MOL0     H10677  -1.400   9.864   6.400  1.5108  1.9897  0.0623
  820MOL0     H10678  -1.403   9.631   6.600 -0.5344 -1.4690 -1.5462
  820MOL0     H10679  -1.356   9.610   6.439  0.9387 -1.9068  1.5401
  820MOL0     H10680  -1.622   9.742   6.502 -0.4225  0.3702  0.6528
  820MOL0     H10681  -1.589   9.562   6.502  0.5899 -0.9192 -1.3998
  820MOL0     H10682  -0.790  10.417   6.722 -0.1366  2.0880  1.1636
  820MOL0     H10683  -0.563  10.518   6.776 -0.6616  1.0943  3.5349
  820MOL0     H10684  -0.171  10.635   7.073  0.7617 -4.7116  1.2589
  820MOL0     H10685   0.052  10.733   7.023 -2.4450 -0.6381  1.0467
  820MOL0     H10686   0.499  11.100   7.464  0.3629 -3.1931 -0.2942
  820MOL0     H10687   0.357  10.904   7.482  3.2719  0.7392  0.5645
  820MOL0     H10688   0.130  10.514   7.186  1.4075 -0.1698  1.5294
  820MOL0     H10689  -0.055  10.329   7.238  0.5568 -1.4327  0.5599
  820MOL0     H10690  -0.320  10.451   7.214  0.1383  0.3926 -0.7749
  820MOL0     H10691  -0.286  10.275   7.198 -1.2689 -0.7210  0.1210
  820MOL0     H10692  -0.480  10.212   7.312 -1.5966  0.8718  2.1141
  820MOL0     H10693  -0.527  10.320   7.193  2.3505 -2.8079 -1.2236
  820MOL0     H10694  -0.488  10.513   7.392 -1.6096  0.0932  4.3190
  820MOL0     H10695  -0.518  10.371   7.492 -0.5977  2.5739  1.8834
  820MOL0     H10696  -0.705  10.449   7.257 -2.0949  0.4657  0.6654
  820MOL0     H10697  -0.735  10.506   7.421  0.5751 -2.0738  2.5449
  820MOL0     H10698  -0.902  10.133   7.425  0.3375  0.0068  1.9971
  820MOL0     H10699  -0.220  10.553   7.533 -1.7822 -0.9266 -1.7144
  820MOL0     H10700  -0.042  10.746   7.504  0.2909 -0.9863  1.4201
  821MOL0     O10701   2.420   7.423  10.185 -0.4865  0.7910 -0.3709
  821MOL0     C10702   2.335   7.483  10.130  0.6468  0.2172 -0.1655
  821MOL0     O10703   2.350   7.569  10.035 -0.0507  0.8649  0.8107
  821MOL0     C10704   2.476   7.612   9.996 -0.0539 -0.3209 -0.9064
  821MOL0     C10705   2.599   7.547  10.008 -0.1830 -0.1757 -0.1967
  821MOL0     C10706   2.716   7.601   9.956  0.7866 -1.2578 -0.3478
  821MOL0     C10707   2.709   7.728   9.897 -0.3263 -0.3202  0.7217
  821MOL0     O10708   2.822   7.787   9.846 -0.1627 -0.1102 -0.4182
  821MOL0     C10709   2.947   7.775   9.917  0.7210  0.9969 -0.8265
  821MOL0     C10710   3.037   7.874   9.843 -0.7750 -0.7059  0.4601
  821MOL0     C10711   3.093   7.804   9.714 -0.6703  0.6596 -0.2702
  821MOL0     C10712   3.180   7.907   9.634  1.0641 -0.1303  0.0657
  821MOL0     C10713   3.280   7.849   9.534  0.2516  0.7782  0.1459
  821MOL0     C10714   3.380   7.750   9.594 -0.1202  0.4124 -0.5904
  821MOL0     C10715   3.487   7.696   9.490 -0.4998  0.4618  0.4948
  821MOL0     C10716   3.582   7.814   9.438  0.2589 -0.0581  1.0554
  821MOL0     N10717   3.700   7.840   9.522 -0.1045  0.7274  0.7655
  821MOL0     C10718   3.814   7.769   9.522 -0.7117  0.1815 -0.2107
  821MOL0     C10719   3.871   7.815   9.641 -0.7310 -0.2574 -0.2890
  821MOL0     C10720   3.991   7.748   9.705  0.4569 -0.1312 -0.1628
  821MOL0     C10721   3.962   7.632   9.810  0.3967 -0.8590 -0.5703
  821MOL0     C10722   4.081   7.532   9.821 -0.3292  0.0351 -0.1718
  821MOL0     C10723   4.065   7.424   9.934  0.0614 -0.3507  1.3903
  821MOL0     O10724   4.150   7.315   9.890  0.1245  0.4397 -0.6164
  821MOL0     C10725   4.283   7.319   9.913 -0.7716 -0.3290 -0.2910
  821MOL0     C10726   4.352   7.395  10.010  0.3386 -0.5041 -0.1347
  821MOL0     C10727   4.488   7.373  10.024 -0.6940 -1.1368  0.2173
  821MOL0     C10728   4.559   7.464  10.132  0.4422  0.4980 -0.6087
  821MOL0     C10729   4.565   7.272   9.951  0.5312 -0.7063  0.5690
  821MOL0     C10730   4.706   7.240   9.979  0.0032 -1.0777  0.5751
  821MOL0     O10731   4.795   7.322   9.916  0.4506  0.0130  0.3303
  821MOL0     C10732   4.925   7.304   9.958 -0.2730 -0.8407  0.0880
  821MOL0     C10733   4.957   7.374  10.072  0.3721  0.1842  0.8155
  821MOL0     C10734   5.081   7.370  10.119 -0.1359 -0.3811 -0.8752
  821MOL0     C10735   5.190   7.311  10.057 -0.6918  0.3710 -0.0115
  821MOL0     O10736   5.317   7.303  10.092 -0.7062  0.1049  0.1847
  821MOL0     C10737   5.398   7.412  10.033  0.3346 -0.0302 -0.4418
  821MOL0     C10738   5.381   7.543  10.112 -0.9045 -0.9672 -0.6734
  821MOL0     C10739   5.448   7.539  10.256  0.2217 -0.5588  0.1418
  821MOL0     C10740   5.428   7.686  10.313 -0.1738 -0.8306 -0.4487
  821MOL0     C10741   5.512   7.722  10.440  0.8006  0.9378  0.3305
  821MOL0     C10742   5.444   7.658  10.568 -0.2463 -0.2097 -0.1181
  821MOL0     C10743   5.532   7.694  10.692  0.1573  0.1176  0.2744
  821MOL0     C10744   5.460   7.684  10.828  0.1362 -0.0817  0.8108
  821MOL0    Cl10745   5.427   7.517  10.877 -0.4671 -0.3603 -0.3354
  821MOL0     C10746   5.159   7.246   9.938 -0.2075 -0.2396  0.4314
  821MOL0     C10747   5.028   7.239   9.888  0.6939 -0.2588 -0.6073
  821MOL0     O10748   4.733   7.149  10.062  0.2027 -1.0016 -0.1500
  821MOL0     C10749   4.486   7.206   9.851 -0.1997 -0.3902 -0.5856
  821MOL0     C10750   4.352   7.221   9.839  0.3997 -0.7419 -0.0923
  821MOL0     N10751   3.808   7.923   9.687  0.1425 -0.2583  0.0072
  821MOL0     N10752   3.708   7.946   9.609  0.1116 -0.2200 -0.7490
  821MOL0     C10753   2.583   7.793   9.876 -0.3423  0.8932  0.3412
  821MOL0     C10754   2.477   7.732   9.932 -0.0172  0.1498 -0.6811
  821MOL0     C10755   2.196   7.467  10.185  0.1744 -0.2092  0.3252
  821MOL0     C10756   2.143   7.347  10.237 -0.0712  0.0907 -0.5547
  821MOL0     C10757   2.012   7.338  10.296 -0.3081  0.1867 -0.1044
  821MOL0     C10758   1.937   7.451  10.296  1.4194  0.4718  0.5075
  821MOL0     O10759   1.816   7.434  10.361  0.4455  0.5450  0.2378
  821MOL0     C10760   1.722   7.539  10.357 -0.2984 -0.2183 -0.3881
  821MOL0     C10761   1.582   7.491  10.385 -0.3449 -0.0599 -0.3528
  821MOL0     C10762   1.581   7.411  10.523  0.0667  0.5029 -0.1579
  821MOL0     C10763   1.457   7.443  10.617 -0.9831 -0.8320  0.0634
  821MOL0     C10764   1.335   7.388  10.557 -0.5269 -0.2736  0.3581
  821MOL0     C10765   1.231   7.344  10.506 -0.0394 -0.1147 -0.2851
  821MOL0     C10766   1.982   7.567  10.242  1.0427  0.1806 -0.8677
  821MOL0     C10767   2.107   7.570  10.185  0.1638 -0.4174 -0.4114
  821MOL0     H10768   2.602   7.444  10.043 -4.0858 -0.8738 -1.3829
  821MOL0     H10769   2.810   7.549   9.968  1.9846  0.8840  0.1569
  821MOL0     H10770   2.941   7.801  10.024  3.5013 -0.7696 -0.1253
  821MOL0     H10771   2.991   7.675   9.917 -1.7660 -0.1505 -0.2701
  821MOL0     H10772   2.977   7.954   9.799 -0.5932 -0.2229  1.0894
  821MOL0     H10773   3.112   7.917   9.910 -4.0337  2.1548  2.6178
  821MOL0     H10774   3.155   7.717   9.740 -0.5355  1.5100  2.6041
  821MOL0     H10775   3.009   7.761   9.659 -0.5439  0.7138 -0.5077
  821MOL0     H10776   3.116   7.983   9.588 -0.4058 -2.4167 -1.8990
  821MOL0     H10777   3.239   7.967   9.704  1.6525 -0.4529 -0.1433
  821MOL0     H10778   3.229   7.789   9.458 -1.1024  2.6543 -0.5059
  821MOL0     H10779   3.326   7.934   9.483 -1.9530  2.6861  1.1376
  821MOL0     H10780   3.436   7.795   9.677 -1.2467 -0.7419  0.8592
  821MOL0     H10781   3.322   7.662   9.624  1.0181  0.1383  0.9479
  821MOL0     H10782   3.546   7.612   9.525 -1.8522 -2.3757 -3.3388
  821MOL0     H10783   3.419   7.671   9.408  2.1643 -1.6334 -1.2722
  821MOL0     H10784   3.517   7.901   9.451  0.2280  0.0507  0.2080
  821MOL0     H10785   3.607   7.803   9.333 -2.0239 -1.0340  0.5304
  821MOL0     H10786   3.853   7.687   9.463  0.5393 -0.3503  1.2912
  821MOL0     H10787   4.047   7.700   9.624  2.0864 -2.0356  1.9811
  821MOL0     H10788   4.045   7.826   9.757 -2.2946 -0.0699  2.9293
  821MOL0     H10789   3.872   7.575   9.787  0.4058 -1.4582  0.7485
  821MOL0     H10790   3.932   7.687   9.900  2.4681  2.4544 -1.7094
  821MOL0     H10791   4.177   7.583   9.827 -0.5416  0.3096  1.4718
  821MOL0     H10792   4.077   7.475   9.727 -0.2509 -0.3588  0.0587
  821MOL0     H10793   3.964   7.382   9.942 -0.7101  1.3606  0.9282
  821MOL0     H10794   4.091   7.463  10.033 -0.1889  0.7809  1.0284
  821MOL0     H10795   4.290   7.466  10.063  1.1863 -0.3186  0.6341
  821MOL0     H10796   4.624   7.535  10.082  1.2407 -0.9508 -1.6855
  821MOL0     H10797   4.481   7.504  10.198 -0.5009 -2.3014  0.1245
  821MOL0     H10798   4.623   7.407  10.199 -3.1442  1.0631  3.8463
  821MOL0     H10799   4.876   7.431  10.117 -1.9827 -2.1666 -0.1835
  821MOL0     H10800   5.108   7.419  10.212  1.5528 -1.6823 -0.6168
  821MOL0     H10801   5.503   7.382  10.048 -0.7028 -2.4966  3.1481
  821MOL0     H10802   5.388   7.416   9.925  0.3604  2.0563 -0.4237
  821MOL0     H10803   5.412   7.629  10.052 -2.9991 -2.7740 -4.7543
  821MOL0     H10804   5.272   7.549  10.118 -0.8118 -0.4649  0.8729
  821MOL0     H10805   5.556   7.524  10.247 -0.0876 -1.8018 -2.1691
  821MOL0     H10806   5.414   7.467  10.331  2.5511 -2.4978 -0.5453
  821MOL0     H10807   5.454   7.762  10.238 -1.4316 -1.2888 -1.3890
  821MOL0     H10808   5.321   7.710  10.321  0.2514  1.3392 -0.5389
  821MOL0     H10809   5.516   7.831  10.446 -0.0363  0.9911  0.0253
  821MOL0     H10810   5.613   7.683  10.430  0.9658  1.8842 -2.7022
  821MOL0     H10811   5.351   7.713  10.580  0.4125  1.4794 -2.1090
  821MOL0     H10812   5.427   7.550  10.561 -0.7100 -0.2919  1.7416
  821MOL0     H10813   5.560   7.800  10.687 -3.8399  1.3321 -0.0841
  821MOL0     H10814   5.629   7.642  10.690 -0.7501 -1.6404 -1.3447
  821MOL0     H10815   5.364   7.734  10.810  0.6235  2.0577  3.4300
  821MOL0     H10816   5.512   7.738  10.908  0.2105  2.5676 -0.8898
  821MOL0     H10817   5.233   7.184   9.889 -2.8312 -1.6131 -2.1442
  821MOL0     H10818   5.005   7.180   9.800 -1.2492 -2.6986  1.4028
  821MOL0     H10819   4.535   7.134   9.786  0.0859 -1.7476  1.0343
  821MOL0     H10820   4.302   7.184   9.750 -0.4221 -1.0939  0.4932
  821MOL0     H10821   2.562   7.891   9.834 -1.9162  1.2352  1.8505
  821MOL0     H10822   2.382   7.785   9.928 -1.8042 -2.8493 -1.1761
  821MOL0     H10823   2.212   7.263  10.234  0.2245  0.3647 -1.6252
  821MOL0     H10824   1.975   7.248  10.345  0.5333  0.6484  1.4551
  821MOL0     H10825   1.749   7.609  10.436 -1.6668 -1.5863  1.3545
  821MOL0     H10826   1.721   7.596  10.263  2.4418  0.3265 -0.1760
  821MOL0     H10827   1.546   7.422  10.309 -2.8823 -0.6761  1.2571
  821MOL0     H10828   1.505   7.569  10.393  0.7381  1.1706 -1.4841
  821MOL0     H10829   1.665   7.440  10.586  1.5830 -1.9608 -0.8852
  821MOL0     H10830   1.591   7.305  10.496  1.5836  1.1739 -2.5057
  821MOL0     H10831   1.445   7.551  10.629 -1.7253 -0.8645 -0.3168
  821MOL0     H10832   1.476   7.407  10.718  1.3160  3.2236  1.2853
  821MOL0     H10833   1.138   7.323  10.456  0.4275 -0.0879 -1.1829
  821MOL0     H10834   1.931   7.663  10.234  2.0539  0.6364 -2.4366
  821MOL0     H10835   2.138   7.650  10.119 -0.3210 -2.1482 -2.8600
  822MOL0     O10836   3.778   5.965   9.488  0.4832  0.3819  0.0237
  822MOL0     C10837   3.679   5.979   9.557 -0.3263  0.7014 -0.9423
  822MOL0     O10838   3.552   5.999   9.519 -0.2465  0.4791  0.6978
  822MOL0     C10839   3.515   6.001   9.381  0.7271 -0.0452  0.2521
  822MOL0     C10840   3.574   6.083   9.286  0.2520 -0.6291  0.5222
  822MOL0     C10841   3.526   6.085   9.150  0.3842 -0.4804 -0.0841
  822MOL0     C10842   3.420   6.012   9.119  0.2061  0.6040 -0.3220
  822MOL0     O10843   3.381   6.030   8.993 -0.3200  0.0757  0.3606
  822MOL0     C10844   3.258   5.958   8.952 -0.0260 -0.1534 -0.6079
  822MOL0     C10845   3.207   6.013   8.821  1.1154 -0.8853  0.0233
  822MOL0     C10846   3.154   6.165   8.827 -0.4846  0.4771  0.4152
  822MOL0     C10847   3.151   6.204   8.677 -0.4588  0.8426 -0.2429
  822MOL0     C10848   3.027   6.149   8.596  0.0669 -0.0519  0.5670
  822MOL0     C10849   2.894   6.210   8.648  1.0757 -0.7382 -0.7265
  822MOL0     C10850   2.781   6.226   8.546  0.4389  0.3266 -0.6077
  822MOL0     C10851   2.811   6.345   8.448  0.3018  0.4266 -0.9741
  822MOL0     N10852   2.687   6.377   8.372  0.5675 -0.1270 -0.1330
  822MOL0     C10853   2.582   6.309   8.339  0.9282 -0.3933  0.2800
  822MOL0     C10854   2.495   6.397   8.307 -0.4386 -0.0835 -0.1546
  822MOL0     C10855   2.341   6.367   8.283  0.5340  0.1479 -0.5307
  822MOL0     C10856   2.263   6.338   8.413  0.5962 -0.0022 -0.0346
  822MOL0     C10857   2.110   6.358   8.391  0.2969  0.3175  0.7653
  822MOL0     C10858   2.014   6.303   8.491  0.2955  1.6946  0.3051
  822MOL0     O10859   1.887   6.354   8.474 -0.2020 -0.9182  0.6634
  822MOL0     C10860   1.783   6.313   8.549 -0.0848 -0.9595  0.0665
  822MOL0     C10861   1.666   6.379   8.524  0.7251  0.9559 -0.0658
  822MOL0     C10862   1.558   6.362   8.608  0.1413 -0.4126 -0.1082
  822MOL0     C10863   1.437   6.433   8.574 -0.5190  0.4916 -0.0560
  822MOL0     C10864   1.569   6.274   8.721 -0.7856  0.2128  0.3474
  822MOL0     C10865   1.460   6.254   8.822  0.0921  0.1277 -0.0950
  822MOL0     O10866   1.333   6.306   8.803  0.0142  0.2167  0.5926
  822MOL0     C10867   1.242   6.298   8.903  0.5098  0.0200 -0.0131
  822MOL0     C10868   1.206   6.408   8.993 -0.0993  0.2870  0.0158
  822MOL0     C10869   1.098   6.405   9.076  0.2352  0.3325  0.2993
  822MOL0     C10870   1.011   6.290   9.085 -0.4266 -0.6363  0.4350
  822MOL0     O10871   0.897   6.289   9.166  0.0943  0.3091 -0.3611
  822MOL0     C10872   0.848   6.412   9.215 -0.1422  0.3698 -0.3853
  822MOL0     C10873   0.708   6.393   9.288 -0.7215  0.1697 -0.3521
  822MOL0     C10874   0.717   6.335   9.431 -0.2368  0.7780  0.3490
  822MOL0     C10875   0.570   6.291   9.472 -0.2293 -0.7880 -0.4506
  822MOL0     C10876   0.572   6.204   9.599 -0.1069  0.1431  0.7037
  822MOL0     C10877   0.423   6.160   9.616  0.5928 -0.8803  0.1056
  822MOL0     C10878   0.412   6.062   9.737 -0.7454  0.2917  0.1290
  822MOL0     C10879   0.269   6.000   9.733  1.1955 -0.6672 -0.5074
  822MOL0    Cl10880   0.259   5.894   9.594  0.2808 -0.4100 -0.0957
  822MOL0     C10881   1.051   6.182   9.008 -0.2975 -0.5891  0.1536
  822MOL0     C10882   1.159   6.185   8.920 -0.4340  0.0202  0.3241
  822MOL0     O10883   1.503   6.211   8.933  0.3921 -0.0171  0.0237
  822MOL0     C10884   1.684   6.195   8.726  0.1678 -0.2617 -0.2679
  822MOL0     C10885   1.794   6.217   8.648 -0.0560 -0.2476 -0.6444
  822MOL0     N10886   2.540   6.526   8.308  0.4329  0.1472  0.5126
  822MOL0     N10887   2.660   6.506   8.350  0.3419 -0.1667 -0.4181
  822MOL0     C10888   3.369   5.919   9.216  0.2944 -0.2351  0.9292
  822MOL0     C10889   3.411   5.918   9.345 -0.8862 -0.6402  0.1438
  822MOL0     C10890   3.700   5.962   9.697 -0.1308 -0.0969 -1.1203
  822MOL0     C10891   3.831   5.962   9.749 -0.1294  0.5557  0.2393
  822MOL0     C10892   3.857   5.935   9.885 -0.0337  0.2549 -0.2354
  822MOL0     C10893   3.756   5.912   9.979  0.8108 -0.2716  0.7000
  822MOL0     O10894   3.793   5.870  10.102  0.4903 -0.7296 -0.1920
  822MOL0     C10895   3.705   5.816  10.193  0.6179 -0.4724 -0.9888
  822MOL0     C10896   3.765   5.813  10.329  0.6676 -0.7836  0.6985
  822MOL0     C10897   3.793   5.955  10.393 -0.2702  0.6757  0.3396
  822MOL0     C10898   3.882   5.955  10.512  0.0878  0.4297  0.2119
  822MOL0     C10899   3.912   6.086  10.557  0.9737 -0.3810  1.0283
  822MOL0     C10900   3.922   6.202  10.602  0.0162  0.8130  0.2244
  822MOL0     C10901   3.619   5.916   9.927 -1.1136 -0.7718  0.0868
  822MOL0     C10902   3.587   5.944   9.786 -0.3922  0.7683  0.6434
  822MOL0     H10903   3.654   6.142   9.329 -0.4256 -0.5306  1.6999
  822MOL0     H10904   3.567   6.152   9.075  0.7102  0.7461  1.1544
  822MOL0     H10905   3.276   5.851   8.944 -2.3713 -0.5977 -0.8765
  822MOL0     H10906   3.185   5.972   9.033  2.0698  0.2597  1.2987
  822MOL0     H10907   3.284   6.000   8.744  0.7725 -0.0667 -0.4781
  822MOL0     H10908   3.121   5.951   8.794  1.2402 -0.2239 -2.0779
  822MOL0     H10909   3.056   6.147   8.872 -1.0004 -0.3355 -0.9680
  822MOL0     H10910   3.215   6.237   8.883  1.1635 -1.0350  0.6432
  822MOL0     H10911   3.152   6.314   8.677 -4.1339  1.0405 -3.1064
  822MOL0     H10912   3.242   6.172   8.626 -1.5411 -1.8253 -0.6475
  822MOL0     H10913   3.040   6.177   8.491 -0.5558 -1.5817  0.0602
  822MOL0     H10914   3.018   6.040   8.598 -1.6914  0.0531 -0.0772
  822MOL0     H10915   2.861   6.133   8.720  1.3124 -0.6497 -0.5234
  822MOL0     H10916   2.920   6.307   8.689 -1.1114 -0.7215  0.8208
  822MOL0     H10917   2.779   6.127   8.499  3.1835  0.0813 -0.3577
  822MOL0     H10918   2.685   6.240   8.597 -1.2561 -0.8459 -3.2247
  822MOL0     H10919   2.896   6.310   8.390  1.4818 -2.7057  2.2653
  822MOL0     H10920   2.849   6.423   8.514  1.0810 -2.0162  1.6534
  822MOL0     H10921   2.568   6.201   8.343  1.3266 -0.4179  1.4259
  822MOL0     H10922   2.299   6.456   8.235 -1.6155  1.1599  2.8601
  822MOL0     H10923   2.341   6.276   8.223  5.5214 -2.3974  2.5849
  822MOL0     H10924   2.301   6.421   8.472 -0.3095  1.4662 -1.4223
  822MOL0     H10925   2.292   6.242   8.456  0.0561  0.6691  1.8939
  822MOL0     H10926   2.086   6.317   8.292  2.2886  0.3175  0.2403
  822MOL0     H10927   2.082   6.462   8.367 -0.5965  0.0863  0.7693
  822MOL0     H10928   2.057   6.317   8.590  1.6849 -3.8612  0.8267
  822MOL0     H10929   2.011   6.194   8.482  0.0652  1.6496  0.8902
  822MOL0     H10930   1.661   6.452   8.443  3.8592  0.1398 -1.1381
  822MOL0     H10931   1.369   6.354   8.542 -2.1492  0.6823  2.6414
  822MOL0     H10932   1.401   6.484   8.664  0.5069  1.0950  0.0291
  822MOL0     H10933   1.444   6.500   8.487 -2.3707 -0.3162 -0.8870
  822MOL0     H10934   1.268   6.496   8.981 -0.6197  0.9882  1.9964
  822MOL0     H10935   1.066   6.489   9.135  0.7191  2.9540 -2.8853
  822MOL0     H10936   0.916   6.438   9.296  1.5654  0.5772 -1.8308
  822MOL0     H10937   0.831   6.492   9.142  1.7105 -0.8784 -2.2776
  822MOL0     H10938   0.664   6.492   9.303 -0.7551  0.3643 -1.6263
  822MOL0     H10939   0.642   6.337   9.221 -0.7494  0.1968 -0.3476
  822MOL0     H10940   0.770   6.409   9.492  0.5989 -0.3732  1.0681
  822MOL0     H10941   0.786   6.250   9.430 -0.6385  0.4381  0.9404
  822MOL0     H10942   0.512   6.377   9.506 -0.6913 -1.7191  1.1970
  822MOL0     H10943   0.528   6.250   9.379  0.6042 -0.1324 -1.1411
  822MOL0     H10944   0.617   6.260   9.681  0.8683 -1.1628  1.1034
  822MOL0     H10945   0.630   6.111   9.596 -0.7203 -0.2402  0.6487
  822MOL0     H10946   0.352   6.242   9.629  1.1142 -0.4110  0.0625
  822MOL0     H10947   0.402   6.115   9.518  1.5403 -1.1817  0.0267
  822MOL0     H10948   0.419   6.109   9.835  0.3243  3.2940 -1.2889
  822MOL0     H10949   0.487   5.983   9.734 -0.0684  0.9293  0.1094
  822MOL0     H10950   0.194   6.077   9.715  1.9569 -0.4602 -3.1168
  822MOL0     H10951   0.252   5.935   9.820  2.4054 -0.7305 -0.3114
  822MOL0     H10952   0.992   6.092   8.993 -0.4826 -0.1301 -2.2598
  822MOL0     H10953   1.164   6.103   8.849 -4.9997 -0.4128  0.1988
  822MOL0     H10954   1.700   6.124   8.806  1.6559  2.1926  1.7734
  822MOL0     H10955   1.888   6.171   8.674 -0.4086 -1.3451 -1.2331
  822MOL0     H10956   3.301   5.842   9.181  2.8077 -2.4338  0.5340
  822MOL0     H10957   3.367   5.857   9.422  0.8700  2.2840  3.7898
  822MOL0     H10958   3.914   5.989   9.684 -1.6757  1.1263 -1.5917
  822MOL0     H10959   3.961   5.926   9.915 -0.0422  0.1533 -0.2377
  822MOL0     H10960   3.611   5.872  10.202  1.3964  0.6744  0.3306
  822MOL0     H10961   3.676   5.715  10.161 -0.7474 -0.3981 -0.0833
  822MOL0     H10962   3.849   5.744  10.324  1.6864  0.5323 -1.1958
  822MOL0     H10963   3.688   5.766  10.392 -0.4518  1.2336  0.9203
  822MOL0     H10964   3.702   6.006  10.426 -0.7793 -1.7835  3.2408
  822MOL0     H10965   3.841   6.014  10.315 -0.6816  1.1082  0.4090
  822MOL0     H10966   3.971   5.902  10.478 -1.3510 -0.7144 -2.0392
  822MOL0     H10967   3.839   5.895  10.593  0.5753 -2.9473 -1.7999
  822MOL0     H10968   3.925   6.303  10.637 -2.7099  0.4519  1.8101
  822MOL0     H10969   3.533   5.886   9.985 -0.6574 -1.2136  0.5527
  822MOL0     H10970   3.488   5.929   9.744  0.9574 -1.3808 -2.1338
  823MOL0     O10971   6.520   0.877   8.034  0.1840 -0.1445  0.3379
  823MOL0     C10972   6.428   0.846   7.964 -0.2958 -0.7249 -0.5848
  823MOL0     O10973   6.425   0.863   7.834 -0.1627 -1.5944 -0.6632
  823MOL0     C10974   6.329   0.935   7.776 -0.3647 -0.6241 -0.9788
  823MOL0     C10975   6.323   0.908   7.638  0.2356 -0.3945 -0.1564
  823MOL0     C10976   6.214   0.960   7.563  0.1605  0.4921 -0.7621
  823MOL0     C10977   6.133   1.060   7.624 -0.0773 -0.3750  0.7907
  823MOL0     O10978   6.050   1.127   7.533  0.3371  0.0060  0.3654
  823MOL0     C10979   5.934   1.196   7.575 -0.5404  0.0423 -0.5477
  823MOL0     C10980   5.868   1.278   7.464 -0.0016  0.8279  1.2915
  823MOL0     C10981   5.723   1.306   7.507  0.2391 -0.1263 -0.2026
  823MOL0     C10982   5.661   1.433   7.437  0.8283  0.2464 -0.7266
  823MOL0     C10983   5.507   1.436   7.468 -0.2767  0.6481  0.2151
  823MOL0     C10984   5.435   1.553   7.385  0.2737 -0.1686 -0.7731
  823MOL0     C10985   5.283   1.584   7.428  0.0438 -0.6777  0.5102
  823MOL0     C10986   5.243   1.723   7.378 -0.1312 -0.2288  0.1204
  823MOL0     N10987   5.185   1.731   7.241 -0.1408  0.5632 -0.4725
  823MOL0     C10988   5.202   1.636   7.143  0.4071  0.2703  0.1339
  823MOL0     C10989   5.125   1.677   7.044  0.3060  0.7716 -0.4314
  823MOL0     C10990   5.094   1.588   6.926  0.7471  0.8291  0.2557
  823MOL0     C10991   4.959   1.510   6.939 -0.3382 -0.0175 -0.8431
  823MOL0     C10992   4.926   1.414   6.828  0.4214  0.1774 -0.5406
  823MOL0     C10993   4.963   1.460   6.679 -0.3158 -0.5090 -0.9034
  823MOL0     O10994   4.909   1.362   6.587  0.5172 -0.0095 -0.0705
  823MOL0     C10995   4.774   1.381   6.551  0.1840  1.1946  0.1338
  823MOL0     C10996   4.733   1.288   6.449  0.1509 -0.1461  0.1597
  823MOL0     C10997   4.612   1.297   6.377  0.2389 -0.0499 -0.2235
  823MOL0     C10998   4.591   1.197   6.268 -0.0066 -0.2084  0.4151
  823MOL0     C10999   4.527   1.401   6.417  0.2879  1.4582 -0.1326
  823MOL0     C11000   4.388   1.413   6.372  0.8527  0.0042  0.4478
  823MOL0     O11001   4.306   1.503   6.443 -0.1271 -0.3873  0.0016
  823MOL0     C11002   4.171   1.477   6.454  0.0484  0.1374  0.3916
  823MOL0     C11003   4.090   1.593   6.447  0.3802 -0.9473 -0.3528
  823MOL0     C11004   3.950   1.590   6.464 -0.4505 -0.1630  0.0015
  823MOL0     C11005   3.888   1.470   6.490 -0.3437 -0.8489  0.1054
  823MOL0     O11006   3.751   1.455   6.516 -0.3405 -0.9345 -0.1224
  823MOL0     C11007   3.670   1.573   6.531 -0.7804 -0.3461  0.5094
  823MOL0     C11008   3.541   1.537   6.604 -0.2359 -0.5669 -0.0935
  823MOL0     C11009   3.455   1.659   6.638 -0.0497  0.9685 -0.3418
  823MOL0     C11010   3.335   1.629   6.735 -0.6134 -0.1196  0.1419
  823MOL0     C11011   3.250   1.756   6.766  0.0957  0.0194 -0.7080
  823MOL0     C11012   3.132   1.717   6.853  0.7772  0.3658  0.8954
  823MOL0     C11013   3.156   1.669   6.997 -0.0662  0.3606  1.0458
  823MOL0     C11014   3.040   1.708   7.089  0.3926 -0.0375 -0.1820
  823MOL0    Cl11015   3.033   1.888   7.092  0.2951 -0.3605  0.0219
  823MOL0     C11016   3.966   1.356   6.495  0.2247  0.1739 -0.0910
  823MOL0     C11017   4.104   1.353   6.481 -0.2792 -0.7218  0.5070
  823MOL0     O11018   4.338   1.342   6.280 -0.1941  0.0949  0.3294
  823MOL0     C11019   4.563   1.479   6.522 -0.2674 -0.0263 -0.3937
  823MOL0     C11020   4.685   1.477   6.587  0.2831  0.7728 -0.5958
  823MOL0     N11021   5.075   1.797   7.075 -0.0181  0.3484  0.0141
  823MOL0     N11022   5.106   1.826   7.193 -0.0761 -0.3127  0.0208
  823MOL0     C11023   6.141   1.090   7.761 -0.9738 -0.0456  0.7777
  823MOL0     C11024   6.233   1.025   7.836  0.1970 -0.5943 -0.8102
  823MOL0     C11025   6.312   0.791   8.036 -0.1705  0.1055  0.3457
  823MOL0     C11026   6.298   0.823   8.169  0.3532  0.0028 -0.3877
  823MOL0     C11027   6.180   0.795   8.234 -0.1096 -0.5806 -0.6355
  823MOL0     C11028   6.070   0.727   8.182 -0.8156 -0.3733 -0.4460
  823MOL0     O11029   5.957   0.707   8.255  0.4988 -0.2014  0.0370
  823MOL0     C11030   5.842   0.774   8.202 -0.6448 -0.0082 -0.2550
  823MOL0     C11031   5.712   0.748   8.287 -0.2951 -0.6255 -0.8932
  823MOL0     C11032   5.729   0.736   8.446  0.3800 -0.5799  0.1806
  823MOL0     C11033   5.770   0.869   8.515 -0.2214  0.3217 -1.0713
  823MOL0     C11034   5.688   0.988   8.500 -0.1211  0.1852  0.4947
  823MOL0     C11035   5.608   1.074   8.494 -0.6641  0.2444  0.2123
  823MOL0     C11036   6.105   0.676   8.052  0.1568  0.5267 -0.7905
  823MOL0     C11037   6.221   0.707   7.972 -0.4024  0.3417 -0.5614
  823MOL0     H11038   6.387   0.833   7.594 -0.0842 -1.8307  1.6842
  823MOL0     H11039   6.188   0.933   7.462  1.1618  2.3840 -1.5726
  823MOL0     H11040   5.861   1.116   7.591  0.5214 -0.6260  1.3005
  823MOL0     H11041   5.939   1.261   7.663 -1.3469 -0.4810 -0.0986
  823MOL0     H11042   5.929   1.365   7.438  0.6034 -0.8282 -4.0671
  823MOL0     H11043   5.863   1.219   7.372 -0.9747 -0.3046  2.0544
  823MOL0     H11044   5.663   1.217   7.486  0.8846 -0.8398  0.8617
  823MOL0     H11045   5.723   1.318   7.616  1.0495 -1.2617 -0.0499
  823MOL0     H11046   5.709   1.520   7.483  1.7974 -1.2309  1.2247
  823MOL0     H11047   5.682   1.449   7.331  1.1787  1.4844 -0.4895
  823MOL0     H11048   5.461   1.343   7.431  1.6069  0.1387 -0.9771
  823MOL0     H11049   5.491   1.444   7.576 -0.7895 -0.8265  0.2839
  823MOL0     H11050   5.493   1.641   7.415  4.3126 -2.5244 -0.9208
  823MOL0     H11051   5.455   1.536   7.279 -0.0850 -1.8566 -0.5964
  823MOL0     H11052   5.209   1.514   7.390  1.5090 -1.3094 -1.3665
  823MOL0     H11053   5.282   1.571   7.536 -0.6922 -1.8138  0.3830
  823MOL0     H11054   5.323   1.797   7.373 -0.9545  1.0044  3.1868
  823MOL0     H11055   5.173   1.768   7.449 -3.3853  0.2302 -3.0310
  823MOL0     H11056   5.253   1.540   7.151 -1.2006 -0.5854  0.6603
  823MOL0     H11057   5.087   1.654   6.839 -1.3944  0.0169 -0.2673
  823MOL0     H11058   5.175   1.517   6.909 -1.0671 -0.6488 -3.5533
  823MOL0     H11059   4.882   1.587   6.945 -0.0951  0.1998 -0.4418
  823MOL0     H11060   4.959   1.460   7.036 -1.0256  2.0198  0.2712
  823MOL0     H11061   4.817   1.403   6.834  0.4107  0.8667  3.3724
  823MOL0     H11062   4.987   1.328   6.857 -1.3731 -0.5380  1.3799
  823MOL0     H11063   5.071   1.467   6.662 -0.5197  0.6675 -1.9140
  823MOL0     H11064   4.922   1.560   6.661  2.2368  1.0466  1.1729
  823MOL0     H11065   4.804   1.213   6.415  0.9957  1.1466 -1.0621
  823MOL0     H11066   4.671   1.127   6.242 -0.7267 -0.0306 -2.7783
  823MOL0     H11067   4.499   1.143   6.292  0.0319 -0.9174 -0.9459
  823MOL0     H11068   4.571   1.246   6.172  3.0861 -0.0085 -0.2366
  823MOL0     H11069   4.138   1.690   6.434 -1.1224 -0.5371 -3.5930
  823MOL0     H11070   3.894   1.683   6.468  0.1820  0.3714 -2.2223
  823MOL0     H11071   3.717   1.646   6.599 -3.6199  0.5319  1.6853
  823MOL0     H11072   3.640   1.620   6.438 -1.8227  0.1413  1.0735
  823MOL0     H11073   3.475   1.473   6.545 -3.2657 -0.1344  2.5144
  823MOL0     H11074   3.564   1.485   6.698 -0.0307  1.7707  1.2133
  823MOL0     H11075   3.417   1.710   6.549  0.0394  2.9326  0.6884
  823MOL0     H11076   3.525   1.727   6.687  1.4380 -3.3313  4.4746
  823MOL0     H11077   3.265   1.568   6.676 -0.2273 -0.0994 -0.3362
  823MOL0     H11078   3.374   1.575   6.822  0.3491  2.0609  1.1180
  823MOL0     H11079   3.197   1.791   6.676 -0.8724  1.3141  0.3113
  823MOL0     H11080   3.304   1.842   6.807  0.6391 -1.7867  2.7257
  823MOL0     H11081   3.048   1.787   6.853 -0.3584 -0.9641  0.0123
  823MOL0     H11082   3.085   1.641   6.791  0.8683  1.2386 -0.2749
  823MOL0     H11083   3.249   1.713   7.036  0.3736 -0.6622  1.1619
  823MOL0     H11084   3.164   1.561   7.008  2.8051  0.5071  1.2976
  823MOL0     H11085   3.041   1.665   7.189 -0.8349  0.2869 -0.0048
  823MOL0     H11086   2.944   1.674   7.047  0.3782 -0.5729  0.2790
  823MOL0     H11087   3.922   1.267   6.540 -0.1674  0.8714  0.9521
  823MOL0     H11088   4.157   1.258   6.490  2.1095  0.5594  0.6946
  823MOL0     H11089   4.494   1.555   6.556  1.2402  1.5741 -0.7906
  823MOL0     H11090   4.715   1.541   6.668 -0.4768  1.4804 -0.8635
  823MOL0     H11091   6.065   1.158   7.801 -2.8322 -1.2217 -0.5964
  823MOL0     H11092   6.250   1.038   7.942  1.3601 -1.5842 -0.8459
  823MOL0     H11093   6.366   0.881   8.230 -0.0284  0.3293 -0.2666
  823MOL0     H11094   6.175   0.816   8.340  0.0481 -1.5489 -0.4249
  823MOL0     H11095   5.866   0.881   8.207  1.0450 -0.3927  0.7373
  823MOL0     H11096   5.825   0.756   8.095 -0.8082  0.5653 -0.3334
  823MOL0     H11097   5.667   0.657   8.245  1.9750 -1.3805 -1.8390
  823MOL0     H11098   5.638   0.827   8.274 -1.4700 -1.2169  1.5196
  823MOL0     H11099   5.796   0.655   8.476  0.1876 -0.8778 -0.1767
  823MOL0     H11100   5.634   0.721   8.498 -0.2006  3.3674  0.5438
  823MOL0     H11101   5.867   0.908   8.485  1.5234 -1.8166  1.3208
  823MOL0     H11102   5.780   0.849   8.622 -0.0509 -0.8967 -1.2961
  823MOL0     H11103   5.532   1.146   8.474 -1.0210 -0.4427 -1.0433
  823MOL0     H11104   6.029   0.613   8.007  1.6840 -1.1530 -1.1030
  823MOL0     H11105   6.241   0.663   7.875  0.1912 -1.6607  0.4226
  824MOL0     O11106   0.060   6.856   7.118  0.2458 -0.4985  0.2686
  824MOL0     C11107   0.053   6.750   7.060  0.3651 -0.0198 -0.0820
  824MOL0     O11108  -0.056   6.669   7.062  0.2664 -0.3821  0.3784
  824MOL0     C11109  -0.167   6.699   7.137  0.0870 -0.0606  0.5516
  824MOL0     C11110  -0.274   6.769   7.078 -0.3891 -0.7850 -0.0980
  824MOL0     C11111  -0.392   6.807   7.146  0.1559  0.0629  0.0176
  824MOL0     C11112  -0.391   6.777   7.282 -0.4171  0.2034  1.0836
  824MOL0     O11113  -0.501   6.794   7.365 -0.9992 -0.0247  0.4396
  824MOL0     C11114  -0.631   6.834   7.310  0.4811  0.1615  0.9449
  824MOL0     C11115  -0.739   6.837   7.420  0.2616 -0.3958  0.2929
  824MOL0     C11116  -0.889   6.866   7.379  0.4485  0.0484 -0.0186
  824MOL0     C11117  -0.905   7.016   7.337 -0.2877  0.3608  0.0322
  824MOL0     C11118  -1.047   7.041   7.302  1.0220  0.0369  0.6466
  824MOL0     C11119  -1.081   7.180   7.251  0.2133 -0.5872 -0.4148
  824MOL0     C11120  -1.013   7.288   7.341  0.7447  0.4709 -0.4421
  824MOL0     C11121  -1.068   7.430   7.300  0.3828 -0.1773 -0.3087
  824MOL0     N11122  -1.001   7.542   7.374 -0.0159  0.0271 -0.3794
  824MOL0     C11123  -0.887   7.611   7.341  0.7503 -0.3810 -0.3383
  824MOL0     C11124  -0.844   7.667   7.453 -0.1195 -0.1215  0.0890
  824MOL0     C11125  -0.708   7.734   7.454 -0.3476 -0.1809  0.0045
  824MOL0     C11126  -0.733   7.872   7.413  0.2542 -0.7181 -0.6494
  824MOL0     C11127  -0.822   7.954   7.511 -0.2289  0.3373 -0.0457
  824MOL0     C11128  -0.800   8.112   7.490  0.0552 -0.3135  0.8296
  824MOL0     O11129  -0.672   8.155   7.528 -0.3461 -0.0854  0.3065
  824MOL0     C11130  -0.587   8.240   7.457  0.3010  0.7221  0.3351
  824MOL0     C11131  -0.458   8.247   7.513 -1.0127 -1.1443  0.1886
  824MOL0     C11132  -0.352   8.321   7.449  0.2203 -0.3997  0.0712
  824MOL0     C11133  -0.229   8.347   7.528 -0.3067 -0.2016  0.0840
  824MOL0     C11134  -0.376   8.386   7.326  0.9417  0.3041  0.7545
  824MOL0     C11135  -0.266   8.460   7.253 -0.1676  0.7075 -0.9801
  824MOL0     O11136  -0.312   8.530   7.149  0.1384 -0.4111 -0.1862
  824MOL0     C11137  -0.238   8.633   7.110 -1.1345  0.5701  0.0098
  824MOL0     C11138  -0.230   8.659   6.975 -0.2117  0.0383 -0.6275
  824MOL0     C11139  -0.182   8.783   6.930  0.7272  0.1183  0.5294
  824MOL0     C11140  -0.137   8.886   7.017 -0.4960  1.1024  0.5078
  824MOL0     O11141  -0.076   8.988   6.955  0.0014 -0.1624  0.0509
  824MOL0     C11142  -0.007   9.088   7.036  0.0309  0.3071  0.3779
  824MOL0     C11143   0.073   9.168   6.939 -0.9407 -0.0543 -0.0542
  824MOL0     C11144   0.191   9.085   6.902 -0.5968  0.4883 -0.1000
  824MOL0     C11145   0.257   9.134   6.775  0.5654  0.5016 -0.9518
  824MOL0     C11146   0.363   9.037   6.718 -0.1598  0.1831  0.1781
  824MOL0     C11147   0.378   9.064   6.571  0.0491 -0.0094  0.4687
  824MOL0     C11148   0.470   8.956   6.509  0.4693 -0.1935 -0.1994
  824MOL0     C11149   0.458   8.946   6.364  0.4730  0.8151 -0.2808
  824MOL0    Cl11150   0.395   8.782   6.317 -0.6487  0.5550 -0.0353
  824MOL0     C11151  -0.147   8.852   7.155  0.6234 -0.2685 -0.5908
  824MOL0     C11152  -0.197   8.728   7.202  0.2897  0.7327  0.9681
  824MOL0     O11153  -0.143   8.449   7.279  0.2654  0.8713  0.0495
  824MOL0     C11154  -0.511   8.383   7.269 -0.1573  0.9247  0.3589
  824MOL0     C11155  -0.611   8.304   7.338  0.3696 -0.0794 -0.9690
  824MOL0     N11156  -0.942   7.635   7.555 -0.4526 -0.2786 -0.1674
  824MOL0     N11157  -1.032   7.570   7.497  0.2558  0.5469 -0.1057
  824MOL0     C11158  -0.283   6.722   7.344  0.1509  0.6511 -0.0654
  824MOL0     C11159  -0.171   6.683   7.273  0.7835  0.2152 -0.0788
  824MOL0     C11160   0.172   6.714   6.979 -0.1897 -0.3875 -0.0302
  824MOL0     C11161   0.278   6.802   6.981  0.4001  0.6857 -0.2835
  824MOL0     C11162   0.387   6.794   6.895 -0.3457  0.4084  0.3922
  824MOL0     C11163   0.397   6.680   6.821 -0.3051 -0.4176  0.2876
  824MOL0     O11164   0.500   6.647   6.741  0.4709 -0.3023 -0.0205
  824MOL0     C11165   0.610   6.739   6.735  0.1236  0.9891 -1.3287
  824MOL0     C11166   0.717   6.675   6.637  0.4642 -0.3521 -0.2226
  824MOL0     C11167   0.842   6.764   6.643  0.4616 -0.8907 -0.2476
  824MOL0     C11168   0.840   6.900   6.573  0.1261 -0.2774 -0.2465
  824MOL0     C11169   0.790   7.000   6.666  0.4361  0.0391 -0.1134
  824MOL0     C11170   0.751   7.089   6.738  0.3286  0.2805  0.1652
  824MOL0     C11171   0.293   6.585   6.812  0.2329  0.0747  0.2227
  824MOL0     C11172   0.175   6.605   6.886 -0.3753  0.3397  0.0953
  824MOL0     H11173  -0.265   6.808   6.977 -0.6642  5.6482  1.9051
  824MOL0     H11174  -0.474   6.857   7.096 -0.8168 -2.3202 -0.9594
  824MOL0     H11175  -0.636   6.932   7.260 -1.0648 -0.6492 -0.6313
  824MOL0     H11176  -0.671   6.748   7.255 -1.1230  0.0967  2.1190
  824MOL0     H11177  -0.733   6.742   7.473  2.0318 -0.9346 -0.7701
  824MOL0     H11178  -0.706   6.913   7.492  0.2873  1.9520 -2.0314
  824MOL0     H11179  -0.908   6.802   7.292  1.2809  0.2893 -0.3867
  824MOL0     H11180  -0.957   6.844   7.462 -0.1277  0.3971 -0.3955
  824MOL0     H11181  -0.877   7.074   7.425  0.5784  0.4092 -0.2655
  824MOL0     H11182  -0.841   7.035   7.250 -4.2737 -1.1125 -3.5270
  824MOL0     H11183  -1.087   6.974   7.225 -1.0266  2.1334 -0.2314
  824MOL0     H11184  -1.104   7.014   7.392  1.4218 -0.1704  0.8387
  824MOL0     H11185  -1.033   7.184   7.153 -0.1250  1.8533 -0.5350
  824MOL0     H11186  -1.188   7.198   7.233  0.0814 -1.6465 -0.7913
  824MOL0     H11187  -1.027   7.259   7.446  1.4524  1.5345 -0.0374
  824MOL0     H11188  -0.907   7.272   7.318  1.0142 -1.9589  1.9363
  824MOL0     H11189  -1.178   7.432   7.300  0.3457  3.2083 -1.1510
  824MOL0     H11190  -1.045   7.443   7.193 -0.2861 -2.7175 -0.8321
  824MOL0     H11191  -0.828   7.607   7.250 -0.1548  0.7999 -1.0106
  824MOL0     H11192  -0.663   7.735   7.554 -1.5545  2.6917  0.6429
  824MOL0     H11193  -0.637   7.685   7.387  1.3366  1.6513  0.3680
  824MOL0     H11194  -0.776   7.878   7.312  0.2693 -0.5769 -0.6481
  824MOL0     H11195  -0.637   7.923   7.424  0.4991 -1.8138  4.2367
  824MOL0     H11196  -0.818   7.914   7.613  0.0444 -1.5424 -0.7487
  824MOL0     H11197  -0.925   7.929   7.481 -0.3268 -0.4888  0.9024
  824MOL0     H11198  -0.875   8.169   7.546  2.6876  4.8333 -0.2937
  824MOL0     H11199  -0.815   8.139   7.385  0.2010 -2.5421  0.1805
  824MOL0     H11200  -0.435   8.184   7.599  0.5020 -2.4980 -1.1582
  824MOL0     H11201  -0.144   8.283   7.503  1.0864  1.8618 -0.7451
  824MOL0     H11202  -0.195   8.451   7.518 -1.0765  0.3891  2.7307
  824MOL0     H11203  -0.243   8.318   7.633 -0.8037 -4.7907 -1.0377
  824MOL0     H11204  -0.277   8.584   6.912  2.2621 -1.9240 -0.2706
  824MOL0     H11205  -0.189   8.813   6.826  1.0656  2.6823  1.1790
  824MOL0     H11206  -0.078   9.151   7.090  1.9933  3.6353 -0.6729
  824MOL0     H11207   0.067   9.027   7.089 -2.4073 -2.7857  0.5051
  824MOL0     H11208   0.015   9.182   6.847  1.1358 -2.7803 -1.9655
  824MOL0     H11209   0.097   9.269   6.971 -0.4045 -0.0383 -0.4947
  824MOL0     H11210   0.176   8.980   6.878  1.9795 -0.4768  2.0735
  824MOL0     H11211   0.261   9.093   6.985 -1.2966  0.5656  0.4898
  824MOL0     H11212   0.173   9.126   6.705 -2.6738 -2.7178  2.8081
  824MOL0     H11213   0.299   9.235   6.780  0.6204  0.4327  2.6545
  824MOL0     H11214   0.330   8.933   6.727  2.4774 -0.7804 -0.2503
  824MOL0     H11215   0.462   9.041   6.764 -0.5561 -0.6132  1.1467
  824MOL0     H11216   0.286   9.072   6.513 -0.4248 -0.9735  1.0718
  824MOL0     H11217   0.426   9.161   6.550  1.7526 -0.9709 -0.3431
  824MOL0     H11218   0.461   8.859   6.557  0.2693 -0.2907 -0.4322
  824MOL0     H11219   0.575   8.973   6.534  1.2313 -2.8895 -1.2631
  824MOL0     H11220   0.557   8.965   6.321  2.2905 -1.8644  2.3705
  824MOL0     H11221   0.390   9.028   6.337 -1.1861 -0.8284 -1.3214
  824MOL0     H11222  -0.111   8.908   7.241  1.5009 -2.8636  0.8524
  824MOL0     H11223  -0.211   8.698   7.305 -4.4845 -1.4664 -0.0473
  824MOL0     H11224  -0.541   8.453   7.193 -0.5845  1.4741  1.0255
  824MOL0     H11225  -0.713   8.293   7.304 -0.1260  1.0421  0.0713
  824MOL0     H11226  -0.285   6.692   7.448  1.2933  0.0968 -0.1780
  824MOL0     H11227  -0.093   6.634   7.330 -1.1788 -0.3788  2.2674
  824MOL0     H11228   0.287   6.891   7.043 -0.2926  0.5753 -0.0178
  824MOL0     H11229   0.461   6.873   6.901 -1.7378  1.6522  2.1616
  824MOL0     H11230   0.582   6.838   6.698  0.2749  1.0869 -1.1863
  824MOL0     H11231   0.648   6.750   6.837 -2.8874  0.8828 -0.1086
  824MOL0     H11232   0.672   6.663   6.538 -3.3406 -0.4125  1.3504
  824MOL0     H11233   0.742   6.581   6.688 -0.9110  0.3605  1.8917
  824MOL0     H11234   0.928   6.707   6.607  0.7769 -1.2894  1.0587
  824MOL0     H11235   0.870   6.782   6.747  0.7960  2.9961 -0.8710
  824MOL0     H11236   0.772   6.892   6.488  1.6155 -1.9121 -1.3588
  824MOL0     H11237   0.941   6.937   6.556  0.0757  1.3934  2.4268
  824MOL0     H11238   0.688   7.160   6.788 -0.5353 -0.7270  0.5263
  824MOL0     H11239   0.280   6.499   6.747 -1.3696  0.5668 -0.1822
  824MOL0     H11240   0.093   6.535   6.869 -0.9443  0.6154  1.5717
  825MOL0     O11241   6.981   3.448   3.938 -0.1720 -0.2247  0.0160
  825MOL0     C11242   6.999   3.490   3.826 -0.4063  0.2167  0.5267
  825MOL0     O11243   7.094   3.457   3.739 -0.2622 -0.9026 -0.3535
  825MOL0     C11244   7.184   3.361   3.760  0.4557 -0.0872 -0.6321
  825MOL0     C11245   7.279   3.368   3.658 -0.2047  0.2315  0.1903
  825MOL0     C11246   7.385   3.278   3.655  0.2828  0.8178  0.7377
  825MOL0     C11247   7.397   3.184   3.763 -0.3127  0.9028  0.0459
  825MOL0     O11248   7.496   3.088   3.758 -0.4006 -0.0530  0.8624
  825MOL0     C11249   7.604   3.116   3.664 -0.0119 -0.0075  0.2228
  825MOL0     C11250   7.717   3.020   3.694 -0.2533 -0.4151  0.6902
  825MOL0     C11251   7.656   2.881   3.676  0.7408 -0.2353  0.0889
  825MOL0     C11252   7.553   2.811   3.762 -0.0440  0.1270 -0.7008
  825MOL0     C11253   7.572   2.656   3.770  1.0378 -1.0354 -0.0711
  825MOL0     C11254   7.670   2.625   3.884 -0.4014 -0.9560 -0.5477
  825MOL0     C11255   7.730   2.487   3.883  0.5110  0.3917  0.3300
  825MOL0     C11256   7.836   2.473   3.783 -0.7726 -0.2585 -0.5235
  825MOL0     N11257   7.799   2.430   3.642  0.1465  0.0577  0.1805
  825MOL0     C11258   7.770   2.297   3.609  0.9212 -0.0565 -0.4902
  825MOL0     C11259   7.790   2.298   3.478  0.0514  0.1953  0.3972
  825MOL0     C11260   7.782   2.177   3.389  0.0487  0.4688 -0.2226
  825MOL0     C11261   7.896   2.172   3.288  0.2234 -0.1411 -0.4224
  825MOL0     C11262   7.851   2.209   3.145  0.8009  0.2032 -0.2084
  825MOL0     C11263   7.971   2.229   3.056 -1.2062  1.1606 -0.3137
  825MOL0     O11264   8.044   2.099   3.060 -0.6312  0.2503  0.0081
  825MOL0     C11265   8.171   2.109   3.012 -0.1854  0.0436 -1.4080
  825MOL0     C11266   8.214   2.008   2.932 -0.3610  0.4358  0.9949
  825MOL0     C11267   8.345   1.998   2.884  1.3442 -0.0512 -0.7448
  825MOL0     C11268   8.369   1.873   2.787  0.5974 -0.3435 -0.1026
  825MOL0     C11269   8.437   2.093   2.914 -0.0464 -0.0268  0.1742
  825MOL0     C11270   8.576   2.103   2.850  0.1296 -0.7244  0.0952
  825MOL0     O11271   8.611   2.012   2.758 -0.4416  0.4224 -0.5715
  825MOL0     C11272   8.743   2.014   2.707  0.9391  0.5013 -0.3713
  825MOL0     C11273   8.839   1.933   2.763  0.4064  0.1729 -0.4732
  825MOL0     C11274   8.972   1.949   2.716  0.4844 -1.2545  0.6888
  825MOL0     C11275   8.993   2.036   2.606  1.0164 -0.3057 -0.2482
  825MOL0     O11276   9.119   2.053   2.555  0.1242 -0.0949 -0.4794
  825MOL0     C11277   9.217   1.956   2.583  0.3560 -0.6891  0.9950
  825MOL0     C11278   9.334   1.982   2.486 -0.2189  0.4374  1.0646
  825MOL0     C11279   9.472   1.928   2.544 -0.1301  0.2840 -0.0679
  825MOL0     C11280   9.572   1.949   2.429 -0.1469  0.0714 -0.1529
  825MOL0     C11281   9.714   1.890   2.454  0.2418 -0.0770 -0.1865
  825MOL0     C11282   9.813   1.908   2.332  0.1373  0.2263 -1.1151
  825MOL0     C11283   9.947   1.831   2.337 -0.3899  0.1740 -0.6489
  825MOL0     C11284   9.938   1.697   2.274  0.2232  0.3999  0.6559
  825MOL0    Cl11285   9.893   1.706   2.104  0.6503  0.1315 -0.1743
  825MOL0     C11286   8.893   2.103   2.546  0.3425 -0.5121  0.1434
  825MOL0     C11287   8.768   2.095   2.600  1.2004 -0.2157  0.1188
  825MOL0     O11288   8.648   2.197   2.884 -0.1353 -0.0919  0.9939
  825MOL0     C11289   8.395   2.192   3.003 -0.7196  0.2539  0.1640
  825MOL0     C11290   8.260   2.210   3.045 -1.6723 -0.2934 -0.3092
  825MOL0     N11291   7.823   2.420   3.429  0.7369 -0.9679  0.1515
  825MOL0     N11292   7.836   2.499   3.528  0.9685 -0.0290 -0.0600
  825MOL0     C11293   7.303   3.180   3.862  0.6701 -1.4559  0.3596
  825MOL0     C11294   7.197   3.266   3.862 -0.3887  0.0510  0.7201
  825MOL0     C11295   6.907   3.595   3.790  0.7848 -0.5073 -0.4170
  825MOL0     C11296   6.818   3.666   3.874 -1.0039  0.1233  0.2118
  825MOL0     C11297   6.721   3.755   3.817  0.4953  0.3058  1.4822
  825MOL0     C11298   6.709   3.779   3.679  0.0513 -0.0454  0.5638
  825MOL0     O11299   6.605   3.848   3.621 -0.2339  0.0578  0.3163
  825MOL0     C11300   6.490   3.897   3.688  0.0417  0.0848 -0.9857
  825MOL0     C11301   6.397   3.779   3.705 -0.3927  0.2668 -0.0670
  825MOL0     C11302   6.356   3.704   3.578  0.4975  0.3972 -0.6232
  825MOL0     C11303   6.246   3.592   3.595 -0.8236 -0.2601 -0.3429
  825MOL0     C11304   6.132   3.635   3.669 -0.0301 -0.4593 -0.3671
  825MOL0     C11305   6.040   3.659   3.747 -0.2128  0.2356 -0.5619
  825MOL0     C11306   6.813   3.731   3.601 -0.4187 -0.7006 -0.5725
  825MOL0     C11307   6.911   3.642   3.652 -0.2874  0.6220 -1.2460
  825MOL0     H11308   7.272   3.446   3.583 -0.6480  1.9749  1.9620
  825MOL0     H11309   7.443   3.269   3.564 -0.1262 -1.9239  0.6480
  825MOL0     H11310   7.587   3.086   3.560  3.8081 -1.8053 -0.0657
  825MOL0     H11311   7.650   3.214   3.679  0.5422 -0.1917 -0.2347
  825MOL0     H11312   7.796   3.035   3.620 -1.6522  0.0138 -0.7569
  825MOL0     H11313   7.762   3.026   3.794  0.5209 -0.1343  0.3308
  825MOL0     H11314   7.626   2.864   3.572  0.5248 -2.3925  0.4554
  825MOL0     H11315   7.750   2.825   3.683  1.0222  0.1264 -0.7396
  825MOL0     H11316   7.561   2.853   3.862  0.6006 -0.1199 -0.6418
  825MOL0     H11317   7.453   2.825   3.721 -1.1757  3.3312  2.6186
  825MOL0     H11318   7.483   2.595   3.790  1.7408 -1.4277  2.0963
  825MOL0     H11319   7.605   2.628   3.669  1.2193  1.5186 -0.7834
  825MOL0     H11320   7.745   2.702   3.902 -2.8928  0.9476  3.1072
  825MOL0     H11321   7.612   2.623   3.977 -1.7664  2.7931 -1.1198
  825MOL0     H11322   7.775   2.467   3.981  0.4029  0.7624  0.4550
  825MOL0     H11323   7.646   2.419   3.866  0.5403  0.3861  0.2057
  825MOL0     H11324   7.904   2.394   3.817 -2.2401 -0.0440  3.3924
  825MOL0     H11325   7.892   2.567   3.780 -3.2036  1.6287  3.7079
  825MOL0     H11326   7.743   2.217   3.677 -1.2677  2.2252  1.5319
  825MOL0     H11327   7.779   2.083   3.445  1.2290 -1.3531 -2.9901
  825MOL0     H11328   7.687   2.189   3.337 -0.6055  3.4848  1.4514
  825MOL0     H11329   7.936   2.070   3.290 -0.9212 -0.6359  2.5779
  825MOL0     H11330   7.980   2.236   3.313  1.1845 -0.8461 -1.7155
  825MOL0     H11331   7.788   2.297   3.160 -2.0668 -1.3991 -1.9291
  825MOL0     H11332   7.790   2.134   3.095  0.6793  0.0657  0.1436
  825MOL0     H11333   8.034   2.309   3.098 -0.5765  0.1455  0.7251
  825MOL0     H11334   7.943   2.249   2.952  0.5119  0.6378 -0.9161
  825MOL0     H11335   8.140   1.932   2.907 -0.8858  1.4236 -0.5902
  825MOL0     H11336   8.372   1.911   2.684  1.5711  2.3668  0.8411
  825MOL0     H11337   8.459   1.818   2.817  0.5988 -0.0838  0.3707
  825MOL0     H11338   8.293   1.795   2.789  2.1636 -1.9543 -0.5443
  825MOL0     H11339   8.816   1.865   2.845  0.4012 -0.7172 -1.1981
  825MOL0     H11340   9.050   1.899   2.773 -1.3444 -2.2929  2.3941
  825MOL0     H11341   9.255   1.983   2.682  2.7799  0.2907 -0.1175
  825MOL0     H11342   9.178   1.855   2.569 -0.4679 -0.1275 -1.0927
  825MOL0     H11343   9.305   1.923   2.398  0.1304  0.4997  0.9068
  825MOL0     H11344   9.344   2.086   2.453  0.5738 -0.3467 -1.3942
  825MOL0     H11345   9.464   1.826   2.582 -2.0209 -1.3427 -4.2946
  825MOL0     H11346   9.487   1.986   2.636  1.6412 -0.9959  0.5231
  825MOL0     H11347   9.529   1.910   2.337 -0.1730 -0.1665 -0.0407
  825MOL0     H11348   9.589   2.056   2.415 -0.9102 -0.1293 -3.2191
  825MOL0     H11349   9.707   1.785   2.484 -1.2311 -0.6569 -2.3216
  825MOL0     H11350   9.751   1.949   2.538 -3.8951 -0.2545  2.0385
  825MOL0     H11351   9.764   1.889   2.235  2.0482 -1.3397 -1.8563
  825MOL0     H11352   9.843   2.011   2.350 -0.9178  0.0747  2.1261
  825MOL0     H11353   9.984   1.812   2.438  2.0566  2.7088 -0.9580
  825MOL0     H11354  10.014   1.898   2.282  0.6833  0.2859  0.7640
  825MOL0     H11355   9.866   1.624   2.313  0.1905  0.8300  1.4442
  825MOL0     H11356  10.036   1.652   2.289 -0.7948 -1.9122  0.6847
  825MOL0     H11357   8.903   2.158   2.453  1.4740 -0.9609 -0.0194
  825MOL0     H11358   8.684   2.148   2.556 -0.2345 -2.5155 -0.0349
  825MOL0     H11359   8.450   2.279   3.038 -0.2651 -0.7535  2.0787
  825MOL0     H11360   8.238   2.291   3.113  2.2612 -2.2368  3.8338
  825MOL0     H11361   7.317   3.095   3.928 -0.1621 -2.2394 -0.4446
  825MOL0     H11362   7.122   3.251   3.939 -0.6774 -2.2482  0.0500
  825MOL0     H11363   6.831   3.656   3.982 -1.2819  0.7420  0.3041
  825MOL0     H11364   6.641   3.786   3.884 -0.3209 -0.7245  1.0079
  825MOL0     H11365   6.515   3.926   3.790  1.4581  0.2104 -1.3333
  825MOL0     H11366   6.441   3.981   3.638 -0.1602  1.2150  1.0313
  825MOL0     H11367   6.307   3.811   3.760 -1.4016 -0.3687 -1.2870
  825MOL0     H11368   6.454   3.708   3.766  0.8482 -0.1821 -1.6884
  825MOL0     H11369   6.443   3.646   3.545  0.8979  1.4196 -1.3918
  825MOL0     H11370   6.326   3.781   3.507 -2.4488  1.0158  1.0973
  825MOL0     H11371   6.292   3.497   3.621  0.6533  0.6108  0.3881
  825MOL0     H11372   6.222   3.575   3.490  0.6719 -0.2794 -0.7044
  825MOL0     H11373   5.957   3.672   3.814 -1.0601 -0.4117 -1.4650
  825MOL0     H11374   6.807   3.751   3.495 -3.6742  0.8756 -0.2130
  825MOL0     H11375   6.982   3.609   3.577  0.8255  2.5469 -1.1102
  826MOL0     O11376   1.696   9.715   9.920  0.9835  0.0716 -0.6853
  826MOL0     C11377   1.643   9.615   9.958 -0.2694 -0.0878  0.4626
  826MOL0     O11378   1.663   9.561  10.085  0.3930 -0.5301 -0.8542
  826MOL0     C11379   1.730   9.622  10.187  0.2153  0.3466  0.0256
  826MOL0     C11380   1.845   9.564  10.235  0.0648 -0.5006 -0.1989
  826MOL0     C11381   1.918   9.626  10.343  0.8022  0.8280  0.1798
  826MOL0     C11382   1.859   9.740  10.401  0.3255 -0.5710 -1.0840
  826MOL0     O11383   1.919   9.810  10.508  0.2076 -0.3705 -0.0636
  826MOL0     C11384   1.956   9.736  10.626 -0.5228 -0.5698 -0.7876
  826MOL0     C11385   2.004   9.844  10.717 -0.2571 -0.8212  0.0820
  826MOL0     C11386   1.875   9.926  10.769 -0.4740  0.0663 -0.5661
  826MOL0     C11387   1.908  10.076  10.780 -0.1061  0.3926 -0.4125
  826MOL0     C11388   1.777  10.152  10.812 -0.7485  0.1046  0.7058
  826MOL0     C11389   1.718  10.128  10.951 -0.4094 -0.2362 -0.3146
  826MOL0     C11390   1.582  10.206  10.971 -0.3547  0.0862 -0.0739
  826MOL0     C11391   1.475  10.116  10.908 -0.7885  0.1570 -0.1670
  826MOL0     N11392   1.343  10.177  10.929 -0.0511  0.3289 -0.1848
  826MOL0     C11393   1.267  10.183  11.053  0.1859 -0.0931  0.0762
  826MOL0     C11394   1.138  10.228  11.007 -0.8450 -0.4917 -0.2798
  826MOL0     C11395   1.021  10.258  11.088  0.5236  0.4493 -0.1108
  826MOL0     C11396   0.903  10.331  11.023 -0.6101  0.0770  0.3612
  826MOL0     C11397   0.789  10.386  11.114  0.4273 -0.0104  0.2118
  826MOL0     C11398   0.691  10.265  11.124  0.7753  0.5476  0.4775
  826MOL0     O11399   0.568  10.313  11.181  0.3112  0.2144 -0.0958
  826MOL0     C11400   0.468  10.350  11.093 -0.0417 -0.0937 -0.8638
  826MOL0     C11401   0.439  10.299  10.971  0.2523  0.4025  0.9445
  826MOL0     C11402   0.319  10.333  10.897  0.6021 -0.1411 -0.7551
  826MOL0     C11403   0.306  10.266  10.761 -0.2576  0.2443  0.0042
  826MOL0     C11404   0.221  10.426  10.957  0.1089  0.5226  0.4056
  826MOL0     C11405   0.091  10.479  10.901  0.0332  1.0486  0.7760
  826MOL0     O11406   0.031  10.588  10.954 -0.7774 -0.1341  0.4253
  826MOL0     C11407  -0.099  10.621  10.919 -0.4685  1.2407  0.2490
  826MOL0     C11408  -0.196  10.617  11.017 -0.1720  0.5785 -0.4951
  826MOL0     C11409  -0.337  10.635  10.985  0.2263  0.1795  0.8888
  826MOL0     C11410  -0.357  10.670  10.850  0.1649 -0.5177 -0.1446
  826MOL0     O11411  -0.486  10.700  10.838  0.2067 -0.6088  0.3239
  826MOL0     C11412  -0.557  10.653  10.723  0.1249 -0.3783  0.1885
  826MOL0     C11413  -0.687  10.594  10.763  0.2944 -0.0158  1.0062
  826MOL0     C11414  -0.779  10.531  10.653  0.0468  0.9353 -0.8481
  826MOL0     C11415  -0.783  10.623  10.536  0.2121 -0.4071 -0.6678
  826MOL0     C11416  -0.859  10.552  10.420 -0.3740 -0.8842  0.9290
  826MOL0     C11417  -1.007  10.508  10.455  1.0573 -0.0064  1.1905
  826MOL0     C11418  -1.060  10.423  10.333 -0.0951 -0.0495  0.9021
  826MOL0     C11419  -1.207  10.371  10.364 -0.4512 -0.0800  0.0287
  826MOL0    Cl11420  -1.325  10.501  10.408  0.4454 -0.3525  0.1454
  826MOL0     C11421  -0.256  10.665  10.749 -0.3552 -0.5125  0.1391
  826MOL0     C11422  -0.123  10.646  10.788  0.0887  0.4459 -0.6249
  826MOL0     O11423   0.039  10.402  10.814  0.7694 -0.0638  0.2871
  826MOL0     C11424   0.256  10.482  11.077  0.3526  0.0569 -0.1817
  826MOL0     C11425   0.368  10.433  11.153  0.9786 -0.2712  0.6688
  826MOL0     N11426   1.151  10.265  10.870  0.0365  0.6849 -0.4411
  826MOL0     N11427   1.267  10.230  10.828  0.6352 -0.0018  0.1084
  826MOL0     C11428   1.740   9.795  10.356 -0.1181  0.7651 -0.4247
  826MOL0     C11429   1.666   9.735  10.255 -0.4448  1.0611  0.1669
  826MOL0     C11430   1.577   9.527   9.862 -0.0821 -0.7247  0.2271
  826MOL0     C11431   1.609   9.540   9.727  0.1925  0.9195  0.4962
  826MOL0     C11432   1.564   9.447   9.634  0.4925  0.1390  0.5330
  826MOL0     C11433   1.478   9.340   9.668 -0.6059 -1.1769 -0.6995
  826MOL0     O11434   1.435   9.237   9.585 -0.5110  0.7017 -0.0509
  826MOL0     C11435   1.495   9.212   9.463  0.3439  0.3768  0.3293
  826MOL0     C11436   1.637   9.161   9.475 -0.1675  0.0113 -0.4981
  826MOL0     C11437   1.649   9.040   9.576  0.6379  0.4401  0.0557
  826MOL0     C11438   1.801   9.004   9.600 -1.0441  0.8372 -0.5761
  826MOL0     C11439   1.853   8.948   9.477  0.0624  0.1205 -0.0992
  826MOL0     C11440   1.910   8.899   9.386  0.4377  0.3125  0.3056
  826MOL0     C11441   1.441   9.333   9.803  0.2044 -0.2603 -0.8271
  826MOL0     C11442   1.493   9.423   9.905  0.3543  0.0491  0.4348
  826MOL0     H11443   1.885   9.478  10.183 -2.1985 -0.8011 -1.5828
  826MOL0     H11444   2.013   9.591  10.380  0.1181 -0.5240  0.7387
  826MOL0     H11445   1.879   9.672  10.672 -0.2678  0.9007  1.8814
  826MOL0     H11446   2.041   9.672  10.599  0.1824 -0.3324  0.7446
  826MOL0     H11447   2.075   9.814  10.794  2.5156 -0.3881 -2.1250
  826MOL0     H11448   2.065   9.918  10.664  0.6882 -2.0331 -0.5746
  826MOL0     H11449   1.788   9.917  10.703 -1.6724 -1.3448  1.1142
  826MOL0     H11450   1.848   9.890  10.869 -0.5707 -1.7315 -1.1910
  826MOL0     H11451   1.984  10.090  10.857 -3.9366  1.2780  3.6708
  826MOL0     H11452   1.959  10.111  10.690  0.4586 -1.9978 -1.0749
  826MOL0     H11453   1.807  10.257  10.799  3.2595 -1.1590 -2.5447
  826MOL0     H11454   1.699  10.121  10.742 -0.7402 -1.0225  1.1718
  826MOL0     H11455   1.710  10.021  10.976 -1.3710  0.1544  1.2131
  826MOL0     H11456   1.791  10.155  11.028 -0.4666 -0.8250 -0.0405
  826MOL0     H11457   1.553  10.215  11.077 -0.7529 -1.1402 -0.0670
  826MOL0     H11458   1.599  10.304  10.925  1.4120 -1.0346 -1.9590
  826MOL0     H11459   1.493  10.012  10.937  0.6783  1.3357  3.6727
  826MOL0     H11460   1.482  10.128  10.799 -2.4088  0.5840 -0.2415
  826MOL0     H11461   1.283  10.139  11.152 -2.0810 -0.0106  0.5200
  826MOL0     H11462   0.984  10.165  11.133  0.7354  0.1453 -0.5555
  826MOL0     H11463   1.053  10.318  11.174 -2.0507  1.5187  0.2271
  826MOL0     H11464   0.864  10.262  10.947 -2.2592  2.1579 -0.7926
  826MOL0     H11465   0.934  10.417  10.963 -0.8234 -0.6830 -0.8913
  826MOL0     H11466   0.743  10.477  11.075 -4.7420 -2.2963  0.0839
  826MOL0     H11467   0.819  10.411  11.215 -1.3232  1.1967  0.4748
  826MOL0     H11468   0.725  10.174  11.174 -0.5276 -2.5317 -3.6097
  826MOL0     H11469   0.669  10.226  11.024  2.7480 -0.0386  0.2281
  826MOL0     H11470   0.506  10.235  10.914  1.0141 -0.3116  2.6006
  826MOL0     H11471   0.212  10.217  10.736 -0.0683  0.3345 -0.9259
  826MOL0     H11472   0.319  10.352  10.694 -0.4067  1.3952  1.3862
  826MOL0     H11473   0.395  10.203  10.754 -0.5494  0.0287 -2.6509
  826MOL0     H11474  -0.174  10.613  11.123 -2.1789  2.4926  0.0587
  826MOL0     H11475  -0.418  10.626  11.057 -1.2185 -5.7071 -0.8985
  826MOL0     H11476  -0.575  10.743  10.664  1.3964 -0.0042  0.3450
  826MOL0     H11477  -0.493  10.588  10.663  0.3928 -1.7863  1.9234
  826MOL0     H11478  -0.674  10.514  10.836 -0.5908  1.2061  2.5394
  826MOL0     H11479  -0.749  10.670  10.811 -1.4145 -0.1549 -0.8639
  826MOL0     H11480  -0.876  10.508  10.697  0.0261 -3.4910 -2.7312
  826MOL0     H11481  -0.738  10.436  10.618 -4.0982 -0.6918 -1.9223
  826MOL0     H11482  -0.816  10.723  10.566  0.3967 -1.1424  2.2551
  826MOL0     H11483  -0.681  10.642  10.504  1.7390 -3.5456  1.8269
  826MOL0     H11484  -0.802  10.470  10.375  1.1959  0.9645 -0.6603
  826MOL0     H11485  -0.863  10.625  10.338  0.1193  1.4425  2.8660
  826MOL0     H11486  -1.016  10.439  10.540 -1.7119 -0.1481  0.8640
  826MOL0     H11487  -1.076  10.589  10.479 -0.4826 -0.7400 -0.5300
  826MOL0     H11488  -0.995  10.337  10.319  0.6124  0.7356 -0.7601
  826MOL0     H11489  -1.059  10.482  10.241  2.1761 -1.2148  0.1168
  826MOL0     H11490  -1.203  10.303  10.450 -1.7086 -0.1971  0.0085
  826MOL0     H11491  -1.231  10.304  10.281  1.9824 -2.0694  0.7734
  826MOL0     H11492  -0.286  10.680  10.645 -1.2531 -1.7597  0.2016
  826MOL0     H11493  -0.034  10.640  10.726  3.6243  0.7942  3.8656
  826MOL0     H11494   0.190  10.549  11.131 -1.2498 -1.3076 -0.3576
  826MOL0     H11495   0.385  10.468  11.255 -0.8090 -1.4655  1.4346
  826MOL0     H11496   1.681   9.874  10.401 -0.1390 -0.4306  1.7910
  826MOL0     H11497   1.570   9.780  10.231 -1.6284 -1.2390  0.2593
  826MOL0     H11498   1.687   9.613   9.707  1.6224 -0.0437  2.1917
  826MOL0     H11499   1.597   9.461   9.531 -2.3110 -3.0557 -1.0004
  826MOL0     H11500   1.438   9.131   9.418 -1.4250  1.1419  1.0721
  826MOL0     H11501   1.480   9.301   9.400 -0.7314 -1.6805 -2.5251
  826MOL0     H11502   1.696   9.244   9.516 -1.4657  0.0502  1.4501
  826MOL0     H11503   1.678   9.132   9.378  2.8085  1.4020  0.2040
  826MOL0     H11504   1.599   8.953   9.533 -0.1950  1.5625 -1.3528
  826MOL0     H11505   1.592   9.057   9.667 -0.4683 -2.0058 -0.1158
  826MOL0     H11506   1.810   8.927   9.677  0.2046  0.1172 -1.4236
  826MOL0     H11507   1.855   9.091   9.640  2.8388 -2.0059  0.9334
  826MOL0     H11508   1.938   8.877   9.285 -0.0719 -0.3006  0.2945
  826MOL0     H11509   1.376   9.252   9.834  0.6214 -0.3718 -0.2214
  826MOL0     H11510   1.459   9.407  10.007 -1.9269  0.6491 -0.1746
  827MOL0     O11511   9.260   1.973   9.894 -0.2899 -0.1665 -0.3215
  827MOL0     C11512   9.315   2.071   9.834  1.0162 -0.3565  0.8277
  827MOL0     O11513   9.254   2.160   9.745  0.2179 -0.1125  0.5686
  827MOL0     C11514   9.123   2.141   9.713  0.2099  0.3030 -0.2842
  827MOL0     C11515   9.025   2.122   9.814 -0.1734  0.4644  1.1057
  827MOL0     C11516   8.888   2.099   9.778 -0.5548 -0.3597  0.1648
  827MOL0     C11517   8.849   2.118   9.644  0.2294  0.9114 -0.6414
  827MOL0     O11518   8.715   2.106   9.616 -0.4065  0.0015 -0.2335
  827MOL0     C11519   8.659   2.210   9.536  0.3476  1.0729 -0.0107
  827MOL0     C11520   8.514   2.167   9.510  0.2305 -0.0019 -0.3548
  827MOL0     C11521   8.435   2.274   9.443 -0.2205 -0.6926  0.3511
  827MOL0     C11522   8.289   2.216   9.426  0.2090 -0.4077  0.2621
  827MOL0     C11523   8.182   2.302   9.374 -0.3380 -0.2474 -0.4386
  827MOL0     C11524   8.229   2.377   9.248 -0.2307 -0.1346 -0.5749
  827MOL0     C11525   8.115   2.459   9.178 -0.4474 -0.0172 -0.3707
  827MOL0     C11526   7.992   2.377   9.146  0.0034 -0.3512  0.7788
  827MOL0     N11527   7.896   2.468   9.084 -0.1056  0.1997 -0.4598
  827MOL0     C11528   7.867   2.479   8.955  0.8438 -0.4086  0.7180
  827MOL0     C11529   7.744   2.543   8.955 -0.5051  0.4515 -0.7950
  827MOL0     C11530   7.663   2.561   8.837 -0.3025  0.0647 -0.0046
  827MOL0     C11531   7.516   2.553   8.857 -0.0178 -0.7286  0.1697
  827MOL0     C11532   7.446   2.597   8.724  0.4503 -0.0011 -0.2655
  827MOL0     C11533   7.296   2.580   8.748 -0.3785 -0.2990 -0.0860
  827MOL0     O11534   7.216   2.630   8.635  0.4779 -0.2193 -0.2201
  827MOL0     C11535   7.078   2.627   8.629 -0.6176 -0.2756 -0.4518
  827MOL0     C11536   7.003   2.668   8.523 -0.3090 -0.1632  0.6011
  827MOL0     C11537   6.870   2.693   8.515 -0.0096  0.0914  0.0883
  827MOL0     C11538   6.825   2.770   8.393 -0.4049 -0.0043  0.1203
  827MOL0     C11539   6.785   2.642   8.627  0.0211 -0.2926 -0.0748
  827MOL0     C11540   6.640   2.656   8.622  0.0056 -0.0517 -0.7499
  827MOL0     O11541   6.577   2.672   8.741  0.5031  0.1894  0.6452
  827MOL0     C11542   6.444   2.674   8.765 -0.3892 -0.1914 -0.4165
  827MOL0     C11543   6.398   2.652   8.896  0.1566 -0.4105 -1.2271
  827MOL0     C11544   6.257   2.660   8.915 -0.6091 -1.3684  0.3094
  827MOL0     C11545   6.170   2.687   8.811  0.3591 -0.0291  0.6867
  827MOL0     O11546   6.033   2.688   8.844  0.2428  0.1019  0.5586
  827MOL0     C11547   5.944   2.719   8.736 -0.1615  1.0453  0.1309
  827MOL0     C11548   5.806   2.686   8.793  0.6087 -0.3575  0.5689
  827MOL0     C11549   5.701   2.692   8.684 -0.5219 -0.6775 -0.1423
  827MOL0     C11550   5.589   2.800   8.702  0.7158 -0.0135 -0.7927
  827MOL0     C11551   5.462   2.764   8.615 -1.1195 -0.2314  0.1968
  827MOL0     C11552   5.346   2.867   8.637  0.5714 -0.4908 -0.2089
  827MOL0     C11553   5.235   2.848   8.531 -0.5773  0.7951 -0.0726
  827MOL0     C11554   5.115   2.950   8.538 -0.0562  1.1434 -0.1036
  827MOL0    Cl11555   4.980   2.892   8.433  0.1663  0.4996  0.0103
  827MOL0     C11556   6.221   2.714   8.681 -0.0661  0.4751  0.8354
  827MOL0     C11557   6.359   2.704   8.665 -0.1930 -0.5249  0.5000
  827MOL0     O11558   6.593   2.624   8.512 -0.3792  1.2952  0.0005
  827MOL0     C11559   6.852   2.592   8.740 -0.0951  0.4184  0.2858
  827MOL0     C11560   7.001   2.588   8.740  1.3149  0.1489  0.3417
  827MOL0     N11561   7.709   2.579   9.082 -0.3429 -0.5143 -1.0917
  827MOL0     N11562   7.800   2.530   9.159 -1.1025  0.2286  0.7543
  827MOL0     C11563   8.950   2.133   9.543 -0.3504 -0.5591 -0.5902
  827MOL0     C11564   9.082   2.150   9.579 -0.0362 -0.4813 -0.0516
  827MOL0     C11565   9.450   2.090   9.868 -0.1305  0.4970  0.5002
  827MOL0     C11566   9.506   2.024   9.974 -0.2974  0.4833 -0.0247
  827MOL0     C11567   9.638   2.027  10.008 -0.3111  0.0344  1.0503
  827MOL0     C11568   9.718   2.126   9.945 -1.0136 -0.0178 -0.8024
  827MOL0     O11569   9.845   2.149   9.984 -0.2752 -0.6328  0.3503
  827MOL0     C11570   9.909   2.081  10.097  0.1863  0.5011  0.5433
  827MOL0     C11571  10.038   2.147  10.144  0.0515  0.2458 -1.1978
  827MOL0     C11572  10.167   2.117  10.066  0.1298 -0.6564  0.1126
  827MOL0     C11573  10.207   2.230   9.972 -0.1285 -0.0035 -0.6630
  827MOL0     C11574  10.351   2.239   9.941  0.1165  0.7133  0.2891
  827MOL0     C11575  10.472   2.241   9.916  0.6334 -0.0117  0.2944
  827MOL0     C11576   9.667   2.199   9.833  0.3413  0.2641 -0.0183
  827MOL0     C11577   9.534   2.176   9.801 -0.7516 -0.2412 -0.5987
  827MOL0     H11578   9.062   2.118   9.916  1.2129 -0.9395  0.5724
  827MOL0     H11579   8.814   2.071   9.853  1.6537 -4.6286  1.0912
  827MOL0     H11580   8.658   2.310   9.580 -0.0677 -0.0893  2.8399
  827MOL0     H11581   8.715   2.208   9.441 -0.9560  0.2681 -0.7911
  827MOL0     H11582   8.498   2.083   9.441 -1.9006  1.0417 -1.2118
  827MOL0     H11583   8.475   2.150   9.611  0.3109  0.9591 -0.1569
  827MOL0     H11584   8.433   2.370   9.496  1.6277  2.1695 -4.2194
  827MOL0     H11585   8.487   2.302   9.351  2.7375 -0.6615  1.9085
  827MOL0     H11586   8.302   2.122   9.370  0.9621  1.3655 -2.7679
  827MOL0     H11587   8.258   2.183   9.526  0.1601  0.0735  0.4042
  827MOL0     H11588   8.096   2.235   9.362 -1.2763  0.1250  3.0217
  827MOL0     H11589   8.148   2.376   9.447 -2.0681 -3.0671  1.9024
  827MOL0     H11590   8.318   2.437   9.267 -0.3073 -0.5852  1.4967
  827MOL0     H11591   8.263   2.293   9.186  1.2226 -0.3234  0.4276
  827MOL0     H11592   8.093   2.539   9.250  0.1091 -0.2931  0.1252
  827MOL0     H11593   8.162   2.499   9.088 -0.6890  0.7140 -0.1804
  827MOL0     H11594   7.942   2.325   9.228  1.8806  1.2990  3.1097
  827MOL0     H11595   8.012   2.300   9.071  0.3108  0.3524  0.1202
  827MOL0     H11596   7.931   2.433   8.880  1.0672 -1.0658  1.3023
  827MOL0     H11597   7.671   2.663   8.798 -2.6625  0.3915  0.2330
  827MOL0     H11598   7.710   2.490   8.767  1.2552  1.1373 -0.0906
  827MOL0     H11599   7.482   2.619   8.937  3.1657  1.5409 -0.1447
  827MOL0     H11600   7.499   2.448   8.884 -1.3406 -0.3396  0.8988
  827MOL0     H11601   7.472   2.538   8.636  2.6962  1.2403 -0.5016
  827MOL0     H11602   7.463   2.702   8.698 -0.8935 -0.4790 -3.5996
  827MOL0     H11603   7.271   2.626   8.844  0.3803 -1.0025  0.4539
  827MOL0     H11604   7.266   2.475   8.750 -3.1586  0.4059  1.5971
  827MOL0     H11605   7.067   2.702   8.442 -1.3923  1.6128  0.4414
  827MOL0     H11606   6.817   2.709   8.303  0.6776  1.0705 -0.7367
  827MOL0     H11607   6.732   2.825   8.408 -0.4560  0.1094 -0.5793
  827MOL0     H11608   6.902   2.847   8.382 -1.0134  0.6880  0.6419
  827MOL0     H11609   6.468   2.607   8.966  0.5873 -2.6899 -3.0105
  827MOL0     H11610   6.209   2.637   9.010 -0.6113  3.4746  1.7275
  827MOL0     H11611   5.946   2.826   8.714  0.9308  0.8936 -0.5414
  827MOL0     H11612   5.966   2.663   8.645  0.1105  1.4033 -0.0242
  827MOL0     H11613   5.797   2.585   8.834  0.7196 -0.4872  0.2787
  827MOL0     H11614   5.773   2.752   8.873 -0.6935 -1.7147  1.2149
  827MOL0     H11615   5.658   2.591   8.686  2.0231 -1.8356  1.6960
  827MOL0     H11616   5.749   2.726   8.592  2.2498  1.0681  1.7885
  827MOL0     H11617   5.569   2.800   8.810  0.2960 -1.1135 -0.8567
  827MOL0     H11618   5.635   2.897   8.679  3.7601 -1.5556 -1.6266
  827MOL0     H11619   5.431   2.665   8.651  2.5585 -1.1701  1.3323
  827MOL0     H11620   5.492   2.761   8.510 -1.1785 -1.5872  0.2019
  827MOL0     H11621   5.305   2.851   8.737 -2.2094 -0.2732 -1.2188
  827MOL0     H11622   5.380   2.970   8.619 -1.7369  0.0826 -1.7804
  827MOL0     H11623   5.201   2.744   8.530 -1.5931  1.1128 -0.9143
  827MOL0     H11624   5.283   2.871   8.436 -1.0175 -1.3709 -0.8744
  827MOL0     H11625   5.142   3.054   8.517 -0.5689  1.7297  1.9365
  827MOL0     H11626   5.082   2.958   8.642  1.0267  2.4175  0.1681
  827MOL0     H11627   6.155   2.750   8.603 -2.1329 -0.3504  2.1193
  827MOL0     H11628   6.391   2.734   8.566  1.5431 -1.5023  0.7221
  827MOL0     H11629   6.801   2.564   8.832 -1.7856  0.7294 -0.5151
  827MOL0     H11630   7.047   2.543   8.828  0.9287 -1.4623 -0.2431
  827MOL0     H11631   8.928   2.134   9.436 -0.0295 -1.4251 -0.6758
  827MOL0     H11632   9.161   2.172   9.507 -0.7429 -2.3032 -1.4616
  827MOL0     H11633   9.452   1.956  10.039 -0.7357  0.7348 -0.1181
  827MOL0     H11634   9.693   1.978  10.087  2.7993  1.2729 -0.1878
  827MOL0     H11635   9.836   2.089  10.178 -1.3421  1.9104 -0.8998
  827MOL0     H11636   9.917   1.975  10.070  3.7832  0.6357  0.6344
  827MOL0     H11637  10.053   2.107  10.245  0.5692 -1.6872 -1.9857
  827MOL0     H11638  10.016   2.253  10.158  1.4575  0.2965  1.3416
  827MOL0     H11639  10.144   2.025  10.011 -0.5542 -2.2430  2.8782
  827MOL0     H11640  10.245   2.093  10.138  0.0459 -2.5826 -0.3948
  827MOL0     H11641  10.173   2.327  10.010  1.1579  0.0562  0.3882
  827MOL0     H11642  10.159   2.205   9.877  1.3593 -0.6579 -1.2682
  827MOL0     H11643  10.575   2.255   9.940  0.2977  2.3718  0.6680
  827MOL0     H11644   9.733   2.257   9.769  0.5704 -1.5581 -1.5574
  827MOL0     H11645   9.487   2.241   9.727 -1.0832  2.6824  1.9740
  828MOL0     O11646   7.563   2.234   6.953  0.0644 -0.1172  1.0101
  828MOL0     C11647   7.463   2.192   6.903  1.0253  0.0082  1.3557
  828MOL0     O11648   7.396   2.250   6.787 -0.0216  0.2656  0.0996
  828MOL0     C11649   7.442   2.361   6.717 -0.0296 -0.5293  0.1722
  828MOL0     C11650   7.394   2.369   6.587 -0.0461 -0.0525 -0.3677
  828MOL0     C11651   7.416   2.475   6.506 -0.7889 -0.5762 -0.3589
  828MOL0     C11652   7.494   2.583   6.550  0.9956 -0.4773  0.3747
  828MOL0     O11653   7.490   2.691   6.467  0.3753 -0.2449 -0.7210
  828MOL0     C11654   7.552   2.817   6.509  0.0067 -0.2322  0.3065
  828MOL0     C11655   7.515   2.922   6.399 -0.0646 -0.8981 -0.5269
  828MOL0     C11656   7.364   2.945   6.411  0.3744 -0.0420  0.0508
  828MOL0     C11657   7.320   3.032   6.284 -0.1552 -0.6511  0.1347
  828MOL0     C11658   7.180   3.068   6.263  0.1555 -0.1187 -0.4193
  828MOL0     C11659   7.145   3.126   6.119  0.1464 -0.0014  0.4876
  828MOL0     C11660   6.994   3.118   6.110  0.5671 -0.4330  0.5478
  828MOL0     C11661   6.946   3.158   5.987 -0.4562 -0.1959  0.2454
  828MOL0     N11662   6.805   3.112   5.972 -0.3110  0.2768 -0.1139
  828MOL0     C11663   6.775   3.006   5.897 -0.7315  0.2691 -0.4046
  828MOL0     C11664   6.649   2.980   5.921  0.3770 -0.3923  0.0138
  828MOL0     C11665   6.571   2.872   5.860 -0.4848  0.3810  0.6418
  828MOL0     C11666   6.561   2.751   5.946  0.4206 -0.5097  0.2588
  828MOL0     C11667   6.468   2.636   5.890  0.2772 -0.3929  0.1539
  828MOL0     C11668   6.467   2.505   5.981  0.4374 -0.7898 -0.1057
  828MOL0     O11669   6.591   2.436   5.961  0.0504 -0.1598 -0.4734
  828MOL0     C11670   6.603   2.358   5.852 -0.3500  0.3375  1.8978
  828MOL0     C11671   6.503   2.340   5.753 -0.6011 -0.7482  0.6241
  828MOL0     C11672   6.537   2.259   5.639 -0.0222  0.0917 -1.4488
  828MOL0     C11673   6.417   2.235   5.541 -0.6273 -0.8432  0.1956
  828MOL0     C11674   6.669   2.192   5.640  0.1994  0.4831 -0.1616
  828MOL0     C11675   6.721   2.109   5.528  0.5709  0.3994  0.0537
  828MOL0     O11676   6.659   2.130   5.406 -1.0111 -0.4269 -0.2455
  828MOL0     C11677   6.698   2.058   5.292 -0.5750 -1.1840 -0.9749
  828MOL0     C11678   6.828   2.015   5.259  0.5604  0.2348 -0.2812
  828MOL0     C11679   6.859   1.952   5.134  0.3063 -0.0077  0.9039
  828MOL0     C11680   6.753   1.913   5.045 -0.0660 -0.2461 -0.5060
  828MOL0     O11681   6.772   1.823   4.946  0.1191  0.2689 -0.0176
  828MOL0     C11682   6.903   1.783   4.902  0.0744 -1.2153 -0.0620
  828MOL0     C11683   6.971   1.891   4.825 -0.4613  0.0850  1.0629
  828MOL0     C11684   6.880   1.966   4.729 -0.9955  0.7332  0.1477
  828MOL0     C11685   6.819   2.106   4.758 -0.9581  0.0867  1.2315
  828MOL0     C11686   6.740   2.153   4.640  0.6274 -0.8661  0.1050
  828MOL0     C11687   6.611   2.231   4.693 -0.0937  0.2061  0.4419
  828MOL0     C11688   6.510   2.119   4.732  0.0545  0.1007 -0.0570
  828MOL0     C11689   6.376   2.158   4.797  0.4018 -0.8993  0.5066
  828MOL0    Cl11690   6.293   2.269   4.687 -0.1342 -0.6038  0.2144
  828MOL0     C11691   6.625   1.965   5.080  0.6867 -0.5073 -0.3210
  828MOL0     C11692   6.601   2.042   5.198  0.8818 -0.1356 -0.2328
  828MOL0     O11693   6.784   2.012   5.560 -0.5102  0.0643 -0.1018
  828MOL0     C11694   6.759   2.217   5.744 -0.2259 -0.3290 -0.2825
  828MOL0     C11695   6.732   2.301   5.855  1.1884 -0.1613  0.8108
  828MOL0     N11696   6.603   3.065   6.022 -0.2714  0.3393 -0.1959
  828MOL0     N11697   6.699   3.147   6.043  0.2612 -0.4048 -0.3388
  828MOL0     C11698   7.555   2.577   6.675  0.0074  0.6979  0.4231
  828MOL0     C11699   7.524   2.466   6.759 -0.4962 -0.1025  0.3973
  828MOL0     C11700   7.418   2.055   6.940  0.7149  0.1927 -0.3429
  828MOL0     C11701   7.295   2.004   6.893 -0.6073 -0.0483  0.3251
  828MOL0     C11702   7.250   1.873   6.928 -0.3122  0.0070  0.1587
  828MOL0     C11703   7.338   1.788   7.004  0.0686 -0.5376  0.5798
  828MOL0     O11704   7.303   1.657   7.035 -0.0433 -0.2904 -0.2293
  828MOL0     C11705   7.220   1.572   6.961 -0.1925  0.0301  0.2773
  828MOL0     C11706   7.296   1.449   6.910 -0.4170  0.1902  0.0493
  828MOL0     C11707   7.419   1.484   6.826 -0.7806  0.1354  1.2255
  828MOL0     C11708   7.519   1.366   6.799 -0.3736  0.2431  0.0868
  828MOL0     C11709   7.479   1.290   6.681 -0.2870  0.6824  0.7484
  828MOL0     C11710   7.459   1.239   6.573  1.0496 -0.2178 -0.0900
  828MOL0     C11711   7.458   1.839   7.050  0.5225  1.0163  0.1136
  828MOL0     C11712   7.500   1.971   7.019  0.7173  0.1089 -0.0064
  828MOL0     H11713   7.321   2.293   6.560 -0.5857  0.4506 -0.3476
  828MOL0     H11714   7.372   2.458   6.408 -0.2398  0.4701 -0.7995
  828MOL0     H11715   7.506   2.855   6.601 -0.3382  0.2005 -0.0448
  828MOL0     H11716   7.660   2.802   6.513  0.0854  0.1253 -0.4059
  828MOL0     H11717   7.573   3.015   6.408 -0.3277 -0.8464  0.7856
  828MOL0     H11718   7.533   2.878   6.300  1.7267 -0.9948 -0.1972
  828MOL0     H11719   7.301   2.856   6.413 -1.7580  1.4038 -0.4628
  828MOL0     H11720   7.347   3.003   6.502 -0.4454 -0.6338  0.2777
  828MOL0     H11721   7.379   3.125   6.277 -0.4924 -0.2881  1.7166
  828MOL0     H11722   7.352   2.982   6.192 -0.6051 -0.0233 -0.3690
  828MOL0     H11723   7.118   2.979   6.281 -0.3631  0.5652  1.3435
  828MOL0     H11724   7.156   3.150   6.331 -0.1082 -1.6814  1.4834
  828MOL0     H11725   7.189   3.225   6.105 -1.8578  0.6710 -1.7564
  828MOL0     H11726   7.180   3.058   6.041 -3.9309  0.0237 -1.6106
  828MOL0     H11727   6.953   3.019   6.129  0.0516  0.0286  1.9687
  828MOL0     H11728   6.954   3.192   6.180 -1.6463 -0.2087 -0.8545
  828MOL0     H11729   7.009   3.113   5.910 -1.1413  0.3425 -0.6588
  828MOL0     H11730   6.959   3.267   5.982  5.3630 -0.5606  1.2339
  828MOL0     H11731   6.842   2.953   5.829 -0.6447  0.7299 -0.6836
  828MOL0     H11732   6.468   2.907   5.846 -0.1779  0.6517 -1.1895
  828MOL0     H11733   6.615   2.837   5.766  3.0071 -1.7533  2.8547
  828MOL0     H11734   6.521   2.784   6.042  0.3726  2.0250 -0.5526
  828MOL0     H11735   6.664   2.718   5.957  0.7385  1.0193  2.4875
  828MOL0     H11736   6.512   2.605   5.795  1.2900  1.7974 -0.1500
  828MOL0     H11737   6.370   2.677   5.866  0.8925 -0.1597 -2.2121
  828MOL0     H11738   6.381   2.439   5.968 -0.1512 -0.3465  1.2949
  828MOL0     H11739   6.460   2.541   6.084  1.1668 -1.7674  0.3078
  828MOL0     H11740   6.412   2.398   5.748  0.4526  0.8866 -0.7632
  828MOL0     H11741   6.424   2.137   5.493 -4.9663 -1.1447 -0.2012
  828MOL0     H11742   6.326   2.221   5.599  1.1740  0.9971  3.8695
  828MOL0     H11743   6.395   2.322   5.479 -1.6874 -0.7596  0.6754
  828MOL0     H11744   6.918   2.026   5.319  2.5109  2.1275 -3.3255
  828MOL0     H11745   6.959   1.927   5.099 -0.9483 -0.2652 -2.9152
  828MOL0     H11746   6.979   1.748   4.973 -0.0605  2.0562  1.9214
  828MOL0     H11747   6.884   1.695   4.840  2.6422 -2.2204  0.4698
  828MOL0     H11748   7.022   1.961   4.891  2.3765 -1.4231  0.6077
  828MOL0     H11749   7.041   1.835   4.762 -1.1245  0.2203  0.1801
  828MOL0     H11750   6.796   1.903   4.697  1.1979 -2.4975  0.2529
  828MOL0     H11751   6.958   1.974   4.653 -0.6510 -4.7424 -0.4636
  828MOL0     H11752   6.770   2.112   4.856 -0.4202 -1.0410  1.5906
  828MOL0     H11753   6.908   2.169   4.753  2.0888 -3.9294 -2.6636
  828MOL0     H11754   6.699   2.064   4.591  0.6908 -1.0101  0.3168
  828MOL0     H11755   6.792   2.226   4.576 -0.1669  1.7140  2.2297
  828MOL0     H11756   6.647   2.306   4.764  0.8507  0.0066  0.1926
  828MOL0     H11757   6.586   2.291   4.605 -2.1190 -1.0063  0.1148
  828MOL0     H11758   6.546   2.036   4.793 -3.7350 -3.4667 -2.1855
  828MOL0     H11759   6.486   2.067   4.639  0.5272  0.6390 -0.4901
  828MOL0     H11760   6.390   2.211   4.892  0.8358  2.1539 -1.1531
  828MOL0     H11761   6.320   2.066   4.815  0.5049 -0.7105  1.9332
  828MOL0     H11762   6.546   1.930   5.014 -1.0483 -0.7981  1.8097
  828MOL0     H11763   6.507   2.091   5.220  1.6449  1.2249  0.1118
  828MOL0     H11764   6.859   2.175   5.743  0.2591  0.7815  0.2746
  828MOL0     H11765   6.809   2.321   5.929  2.1664  1.9634 -0.6728
  828MOL0     H11766   7.619   2.653   6.718  1.7577  0.4803 -1.6289
  828MOL0     H11767   7.564   2.448   6.858  4.5704 -0.8238 -1.4766
  828MOL0     H11768   7.237   2.074   6.834  3.5190  0.4288 -3.7449
  828MOL0     H11769   7.150   1.848   6.895 -0.3546  1.5343 -0.9281
  828MOL0     H11770   7.143   1.558   7.037  0.0304  0.6872  0.6341
  828MOL0     H11771   7.162   1.623   6.884 -0.7737  0.3974  0.9502
  828MOL0     H11772   7.235   1.380   6.850  1.5556 -1.6626  0.0550
  828MOL0     H11773   7.331   1.402   7.002 -0.6519 -3.4869 -1.5644
  828MOL0     H11774   7.475   1.559   6.883 -0.1411 -0.9169  2.0088
  828MOL0     H11775   7.390   1.528   6.730  1.6874  1.5522  1.0159
  828MOL0     H11776   7.520   1.299   6.885  0.4368 -0.3110 -0.3426
  828MOL0     H11777   7.622   1.401   6.804 -0.0992 -0.6782  1.0063
  828MOL0     H11778   7.422   1.188   6.486 -4.6336  1.8070  0.6971
  828MOL0     H11779   7.519   1.772   7.110 -1.4005  0.6524  1.7860
  828MOL0     H11780   7.599   2.003   7.048  0.9821 -0.2803 -0.4548
  829MOL0     O11781   7.449   9.941   6.825 -0.0790  0.3728  0.3459
  829MOL0     C11782   7.376   9.854   6.879  0.3855 -0.9471 -0.3602
  829MOL0     O11783   7.418   9.745   6.952 -0.2772  0.6543 -0.5502
  829MOL0     C11784   7.544   9.731   7.006  1.3249  0.0665 -0.0288
  829MOL0     C11785   7.577   9.614   7.051 -0.2560  0.5638  0.0480
  829MOL0     C11786   7.698   9.591   7.126 -0.5688 -0.3989 -0.6294
  829MOL0     C11787   7.792   9.691   7.138 -0.3790  0.4348  0.3892
  829MOL0     O11788   7.917   9.658   7.196  0.3542  0.4288  0.1539
  829MOL0     C11789   8.023   9.754   7.192 -0.1681 -0.4654  0.0799
  829MOL0     C11790   8.143   9.723   7.278 -0.2229 -0.5426  0.1238
  829MOL0     C11791   8.107   9.645   7.407  0.1967 -0.2220  0.0282
  829MOL0     C11792   8.226   9.635   7.509 -0.1202 -0.4449  0.8247
  829MOL0     C11793   8.183   9.586   7.649 -0.6180  0.2330 -0.4465
  829MOL0     C11794   8.290   9.626   7.749 -0.1876  0.5492  0.3978
  829MOL0     C11795   8.225   9.611   7.885 -0.7148  0.1257  0.7961
  829MOL0     C11796   8.338   9.634   7.993 -0.0906  2.1094 -0.2948
  829MOL0     N11797   8.278   9.630   8.126 -0.0080  0.0079 -0.1171
  829MOL0     C11798   8.318   9.542   8.228 -0.6075 -0.0014 -0.4255
  829MOL0     C11799   8.217   9.549   8.322  0.6018  0.2478  0.2872
  829MOL0     C11800   8.183   9.469   8.449 -0.4496 -0.5527 -0.0956
  829MOL0     C11801   8.050   9.393   8.436  0.8668 -0.2367  0.5133
  829MOL0     C11802   8.006   9.316   8.563 -0.7467  0.3608  0.1422
  829MOL0     C11803   7.854   9.298   8.560  0.7345  0.2758 -0.0325
  829MOL0     O11804   7.824   9.187   8.467  0.3573 -0.3064  0.5000
  829MOL0     C11805   7.702   9.126   8.487 -0.0764  0.6022 -0.3536
  829MOL0     C11806   7.664   9.023   8.400  0.0680  0.5465 -0.7528
  829MOL0     C11807   7.541   8.960   8.403 -0.1194  0.5551 -0.7170
  829MOL0     C11808   7.518   8.833   8.315 -0.5827  0.3511 -0.5937
  829MOL0     C11809   7.441   9.003   8.502 -0.3646  0.7292  0.6853
  829MOL0     C11810   7.310   8.934   8.542  0.1737 -0.3164  0.1393
  829MOL0     O11811   7.228   8.977   8.652 -0.5411  0.3396  0.1631
  829MOL0     C11812   7.111   8.912   8.688  0.3477 -0.5942 -0.1799
  829MOL0     C11813   7.094   8.867   8.825  0.2890 -0.2346  0.1897
  829MOL0     C11814   6.981   8.788   8.853  0.4398 -0.3165 -0.0272
  829MOL0     C11815   6.885   8.739   8.753 -0.5236 -0.5937 -1.3936
  829MOL0     O11816   6.795   8.646   8.793  0.0880 -1.1388 -0.3096
  829MOL0     C11817   6.705   8.602   8.698  0.8286 -0.0291  0.3169
  829MOL0     C11818   6.648   8.469   8.753  0.6109  0.5972 -0.5094
  829MOL0     C11819   6.554   8.390   8.656 -0.2240  0.0061 -0.6552
  829MOL0     C11820   6.512   8.261   8.717  0.5308  0.0370 -0.0057
  829MOL0     C11821   6.466   8.150   8.626  0.2009  0.0411 -0.4601
  829MOL0     C11822   6.441   8.023   8.703 -0.3456  0.2866 -0.2247
  829MOL0     C11823   6.363   7.903   8.649  0.7399  0.1744  0.3939
  829MOL0     C11824   6.409   7.851   8.509 -0.1607 -0.2308 -0.2872
  829MOL0    Cl11825   6.296   7.716   8.481  0.4163  0.8934 -0.0348
  829MOL0     C11826   6.903   8.793   8.626 -1.2212  0.4380 -0.5631
  829MOL0     C11827   7.017   8.876   8.592 -0.3777 -0.0787  0.8438
  829MOL0     O11828   7.273   8.850   8.457 -0.2995  0.0168  0.0330
  829MOL0     C11829   7.480   9.111   8.588 -0.0666 -0.3482  0.2733
  829MOL0     C11830   7.603   9.176   8.572 -0.7061 -0.2937  0.0928
  829MOL0     N11831   8.128   9.655   8.289 -0.0350  0.0931 -0.7563
  829MOL0     N11832   8.164   9.695   8.172  0.5096  0.3853 -0.1589
  829MOL0     C11833   7.751   9.823   7.097  0.3510  0.8971  0.1649
  829MOL0     C11834   7.623   9.842   7.034 -0.3050  0.5197  0.2272
  829MOL0     C11835   7.230   9.867   6.882  0.0918  0.2896 -0.1675
  829MOL0     C11836   7.159   9.944   6.783  1.7303  0.3583 -1.3315
  829MOL0     C11837   7.019   9.953   6.789 -0.6579 -0.6639 -0.3438
  829MOL0     C11838   6.944   9.890   6.885 -0.2017  0.3843  0.4096
  829MOL0     O11839   6.809   9.894   6.905  0.2948 -0.3240  0.1674
  829MOL0     C11840   6.727   9.937   6.800  0.6383  0.7094 -0.2366
  829MOL0     C11841   6.575   9.963   6.831 -0.4239 -0.4524  0.4288
  829MOL0     C11842   6.536  10.076   6.928  0.1734  0.3079  0.0100
  829MOL0     C11843   6.642  10.193   6.944  0.0506 -0.7192  0.0572
  829MOL0     C11844   6.689  10.252   6.816  0.5988 -0.5997  0.2739
  829MOL0     C11845   6.720  10.310   6.711 -0.0567  0.1069  0.2306
  829MOL0     C11846   7.013   9.818   6.985  0.1227  0.0492  0.0263
  829MOL0     C11847   7.151   9.806   6.986  0.3480 -0.1253  0.1952
  829MOL0     H11848   7.499   9.539   7.042  0.9567 -0.4790 -3.4406
  829MOL0     H11849   7.720   9.496   7.175 -3.6586 -0.3406  1.1509
  829MOL0     H11850   8.055   9.755   7.087  0.2573  1.0082  0.1949
  829MOL0     H11851   7.987   9.854   7.217 -0.6308 -0.4502 -0.5983
  829MOL0     H11852   8.211   9.655   7.226 -0.4225 -0.5780 -0.0899
  829MOL0     H11853   8.205   9.809   7.304 -0.0913 -0.7927  0.6556
  829MOL0     H11854   8.026   9.707   7.447 -1.7717 -0.2199 -3.5659
  829MOL0     H11855   8.066   9.548   7.377  0.1804  0.0378 -0.8042
  829MOL0     H11856   8.302   9.564   7.474 -1.5965 -1.0971 -1.2698
  829MOL0     H11857   8.267   9.735   7.521 -0.3913 -0.2898  0.4825
  829MOL0     H11858   8.091   9.638   7.676 -0.8714 -1.3639  2.0192
  829MOL0     H11859   8.153   9.482   7.665 -2.7087  0.8366 -0.1818
  829MOL0     H11860   8.374   9.557   7.740 -0.8872 -0.4726  1.3914
  829MOL0     H11861   8.317   9.731   7.736 -0.4460  0.5339 -0.3054
  829MOL0     H11862   8.155   9.695   7.881  0.3349  1.2670  3.7128
  829MOL0     H11863   8.184   9.511   7.904  0.8627 -0.8918 -0.7948
  829MOL0     H11864   8.390   9.729   7.982  3.8831  0.0713 -0.8862
  829MOL0     H11865   8.418   9.560   7.991 -0.0195  2.1837 -0.1553
  829MOL0     H11866   8.409   9.484   8.218 -1.3324 -1.0616 -1.1439
  829MOL0     H11867   8.272   9.408   8.464  0.0903  0.0876 -0.6530
  829MOL0     H11868   8.173   9.537   8.534  0.1096 -1.0863  0.4016
  829MOL0     H11869   8.059   9.320   8.355  1.7476 -0.6852  0.9987
  829MOL0     H11870   7.977   9.470   8.411  0.9119  1.1835  4.0773
  829MOL0     H11871   8.038   9.374   8.649 -2.5084 -0.5471  1.4684
  829MOL0     H11872   8.056   9.219   8.577  0.4095  0.8731 -0.2789
  829MOL0     H11873   7.798   9.385   8.526  0.7344  0.2398 -0.1263
  829MOL0     H11874   7.822   9.277   8.662 -1.2417  3.1051  0.0531
  829MOL0     H11875   7.741   8.993   8.329 -1.2308  0.2928 -2.0985
  829MOL0     H11876   7.599   8.813   8.244 -1.0488 -0.7132 -0.8355
  829MOL0     H11877   7.500   8.744   8.375 -1.3529  1.6891  1.2503
  829MOL0     H11878   7.436   8.849   8.245 -1.3706 -0.5556  0.1043
  829MOL0     H11879   7.158   8.897   8.908  1.9943 -2.8159 -0.0790
  829MOL0     H11880   6.958   8.767   8.956 -2.4472  3.3810  0.2785
  829MOL0     H11881   6.625   8.675   8.684 -0.3326 -1.4014 -0.5771
  829MOL0     H11882   6.749   8.586   8.600 -1.6862  3.3024 -1.5723
  829MOL0     H11883   6.735   8.411   8.783 -0.6144 -1.6386 -1.0152
  829MOL0     H11884   6.598   8.487   8.848  0.3586 -4.7897  0.6729
  829MOL0     H11885   6.628   8.371   8.578  1.9520 -0.9704  1.4923
  829MOL0     H11886   6.471   8.454   8.624 -1.7556 -1.7894 -0.4122
  829MOL0     H11887   6.589   8.222   8.783  0.3193 -0.7670 -0.2286
  829MOL0     H11888   6.422   8.276   8.778  0.0098 -1.4966 -0.3733
  829MOL0     H11889   6.546   8.137   8.552  0.9679  2.8549 -0.2350
  829MOL0     H11890   6.384   8.186   8.564 -1.8095 -3.4579 -0.0950
  829MOL0     H11891   6.538   7.980   8.729 -1.1389 -1.7391 -0.4458
  829MOL0     H11892   6.387   8.049   8.795  1.1157  0.5191  0.5968
  829MOL0     H11893   6.260   7.939   8.639  1.0458  0.8083 -0.6576
  829MOL0     H11894   6.371   7.821   8.721  0.4721 -1.5273 -1.4231
  829MOL0     H11895   6.511   7.814   8.507 -0.5106 -1.1968 -1.7219
  829MOL0     H11896   6.389   7.935   8.443  0.6999 -0.9908 -1.5664
  829MOL0     H11897   6.841   8.769   8.540 -2.8768  2.9982 -0.1788
  829MOL0     H11898   7.025   8.917   8.492  2.1141 -1.2379  0.5059
  829MOL0     H11899   7.424   9.142   8.675  2.5489 -1.4961  2.4811
  829MOL0     H11900   7.620   9.277   8.608 -1.0035  0.2664 -1.2360
  829MOL0     H11901   7.826   9.900   7.110 -0.5487  1.8226  0.0097
  829MOL0     H11902   7.594   9.944   7.013  0.9746  0.7637 -0.4912
  829MOL0     H11903   7.216   9.987   6.701  1.9396  2.8680  0.0184
  829MOL0     H11904   6.971   9.996   6.702 -1.6063 -0.5986  0.2018
  829MOL0     H11905   6.750  10.033   6.753 -2.0999  1.9486  0.7665
  829MOL0     H11906   6.728   9.862   6.720 -1.8025  2.6575 -2.2668
  829MOL0     H11907   6.525   9.875   6.874 -0.2689  0.0542  1.6677
  829MOL0     H11908   6.546   9.998   6.731  1.0412  4.0247  1.3872
  829MOL0     H11909   6.511  10.032   7.025 -2.3873  1.4228 -0.0517
  829MOL0     H11910   6.444  10.128   6.899  0.4656  1.8078  1.6288
  829MOL0     H11911   6.727  10.162   7.006 -1.8121  0.5854  3.5884
  829MOL0     H11912   6.590  10.262   7.011 -0.1866  0.2464 -1.0840
  829MOL0     H11913   6.726  10.378   6.629 -0.5000 -0.2365 -0.0860
  829MOL0     H11914   6.950   9.785   7.067 -2.8030  0.7486 -1.7927
  829MOL0     H11915   7.203   9.755   7.067  0.8484  0.3760  0.1951
  830MOL0     O11916   8.142   0.030   9.272 -0.6875  0.1489  0.3804
  830MOL0     C11917   8.067   0.124   9.290 -0.5407 -1.2668 -0.5138
  830MOL0     O11918   7.930   0.132   9.275 -0.8988 -0.1529 -0.0402
  830MOL0     C11919   7.864   0.030   9.212  0.5277 -0.2171  0.5366
  830MOL0     C11920   7.731   0.004   9.255 -0.1145 -0.6183 -0.4314
  830MOL0     C11921   7.647  -0.101   9.195 -0.5619 -0.4572 -0.8931
  830MOL0     C11922   7.696  -0.163   9.079  0.1177  0.1062  0.2589
  830MOL0     O11923   7.611  -0.251   9.018  0.2658  0.1888 -0.6287
  830MOL0     C11924   7.522  -0.205   8.912 -0.3864 -0.1925  0.3880
  830MOL0     C11925   7.460  -0.068   8.936  0.3077 -0.4801  0.2688
  830MOL0     C11926   7.327  -0.053   8.863  0.1328 -0.5024 -0.2303
  830MOL0     C11927   7.214  -0.152   8.909 -0.3680  0.3039 -0.3853
  830MOL0     C11928   7.073  -0.117   8.848  0.0727  0.0186 -0.3487
  830MOL0     C11929   7.013  -0.012   8.942 -0.4319  0.4549  0.5445
  830MOL0     C11930   6.875   0.029   8.884 -0.5307 -0.1800  0.5233
  830MOL0     C11931   6.817   0.159   8.939  0.5190  0.3596  0.1444
  830MOL0     N11932   6.778   0.144   9.080 -0.0381 -0.0638  0.4154
  830MOL0     C11933   6.675   0.058   9.128  0.3578  0.1654  0.0053
  830MOL0     C11934   6.669   0.094   9.257  0.6989 -0.1915  0.1953
  830MOL0     C11935   6.547   0.061   9.344  0.5092  0.1567 -0.3670
  830MOL0     C11936   6.425  -0.007   9.277  0.1169  1.9506  1.0865
  830MOL0     C11937   6.305   0.008   9.368 -0.3319 -0.1685 -0.3563
  830MOL0     C11938   6.174  -0.028   9.305 -0.5445  0.6099  0.6011
  830MOL0     O11939   6.071   0.017   9.400 -0.2874 -0.3737  0.1310
  830MOL0     C11940   5.944  -0.029   9.386  0.2841 -0.7620  0.4282
  830MOL0     C11941   5.862  -0.014   9.498  0.1678 -0.1998  0.1725
  830MOL0     C11942   5.722  -0.031   9.490 -0.6360  0.2043 -0.5432
  830MOL0     C11943   5.652  -0.045   9.624  0.1906 -0.4637 -0.3054
  830MOL0     C11944   5.660  -0.071   9.364 -0.0434 -0.9267 -0.2617
  830MOL0     C11945   5.516  -0.091   9.341 -0.0772 -1.0289  0.3220
  830MOL0     O11946   5.427  -0.008   9.413 -0.2029  0.0707  0.1208
  830MOL0     C11947   5.287  -0.028   9.406 -0.7376  0.5444 -0.6328
  830MOL0     C11948   5.209  -0.088   9.294  0.2755 -0.2743 -0.5312
  830MOL0     C11949   5.079  -0.118   9.309  0.8354  0.3282 -0.0529
  830MOL0     C11950   5.004  -0.080   9.417 -0.2201  0.5382 -1.1762
  830MOL0     O11951   4.865  -0.089   9.403 -0.4608  0.7081 -0.9987
  830MOL0     C11952   4.775  -0.014   9.485 -0.1158  0.1436  0.1189
  830MOL0     C11953   4.627  -0.072   9.474  0.9053  0.6992  0.8703
  830MOL0     C11954   4.524   0.031   9.527  0.2138 -1.0931 -0.1016
  830MOL0     C11955   4.372  -0.014   9.492  0.2035 -0.2788 -0.1830
  830MOL0     C11956   4.259   0.071   9.565 -0.0815 -0.3559 -0.7405
  830MOL0     C11957   4.253   0.210   9.508 -0.1937 -0.1655 -0.5858
  830MOL0     C11958   4.150   0.303   9.580 -0.3839  0.6033 -0.8338
  830MOL0     C11959   4.129   0.448   9.528  1.0587 -0.6918  0.7132
  830MOL0    Cl11960   4.026   0.553   9.639 -0.1475 -0.1238 -0.3100
  830MOL0     C11961   5.071  -0.014   9.521 -0.4372  0.1044  0.6849
  830MOL0     C11962   5.210   0.015   9.515 -0.0502  0.2399  0.4347
  830MOL0     O11963   5.483  -0.162   9.244  0.7189 -0.3255 -0.2878
  830MOL0     C11964   5.748  -0.088   9.251  0.3435 -0.1691 -0.4065
  830MOL0     C11965   5.886  -0.071   9.263 -1.2123 -0.1588  0.0397
  830MOL0     N11966   6.767   0.184   9.290 -0.5232 -0.4382  1.1146
  830MOL0     N11967   6.837   0.213   9.182  0.4725 -0.6275 -0.0447
  830MOL0     C11968   7.831  -0.145   9.040  0.2181 -0.0832 -0.5459
  830MOL0     C11969   7.914  -0.042   9.097 -0.0022  0.4576  0.4573
  830MOL0     C11970   8.137   0.255   9.319 -0.6612 -0.4876 -0.7022
  830MOL0     C11971   8.277   0.282   9.293  0.4508  0.5132  0.0605
  830MOL0     C11972   8.338   0.400   9.334 -0.1135  0.4005  0.3352
  830MOL0     C11973   8.274   0.509   9.402 -0.4438  0.6957  0.4198
  830MOL0     O11974   8.341   0.625   9.447 -0.7030  0.1449 -0.7103
  830MOL0     C11975   8.463   0.657   9.381 -1.0114 -1.1719  0.1887
  830MOL0     C11976   8.532   0.753   9.471  1.0078 -0.1587 -0.9621
  830MOL0     C11977   8.639   0.812   9.393  0.1682  0.2622 -0.5303
  830MOL0     C11978   8.693   0.940   9.452  0.3517 -0.4914  0.3221
  830MOL0     C11979   8.587   1.040   9.452  0.2102  0.7196  1.0291
  830MOL0     C11980   8.495   1.118   9.448  1.3881 -0.0872  0.4712
  830MOL0     C11981   8.138   0.489   9.427  0.9062  0.4620 -0.2134
  830MOL0     C11982   8.076   0.363   9.395  0.0427  0.2031  0.1575
  830MOL0     H11983   7.689   0.055   9.342  0.0687  2.6473 -2.1299
  830MOL0     H11984   7.555  -0.130   9.244 -0.1722 -0.7749 -0.3387
  830MOL0     H11985   7.577  -0.209   8.817 -1.5695 -0.3863 -0.3039
  830MOL0     H11986   7.438  -0.275   8.908  0.8151 -1.6906  0.3249
  830MOL0     H11987   7.447  -0.053   9.043  0.3417  1.2427  0.0564
  830MOL0     H11988   7.524   0.018   8.913 -1.5727  1.5180  2.0127
  830MOL0     H11989   7.291   0.049   8.880 -0.0830 -0.1823 -2.2523
  830MOL0     H11990   7.343  -0.051   8.754  0.5314  4.5537 -0.2928
  830MOL0     H11991   7.236  -0.254   8.877 -0.6996  0.8282 -2.4952
  830MOL0     H11992   7.210  -0.160   9.018  1.7655  1.3942 -0.1783
  830MOL0     H11993   7.083  -0.078   8.747  4.1836  1.8143  0.5257
  830MOL0     H11994   7.013  -0.209   8.845  0.9645 -0.5405 -1.9870
  830MOL0     H11995   7.005  -0.053   9.043 -3.5135 -0.3193  0.0790
  830MOL0     H11996   7.067   0.083   8.935 -0.4846  0.4557  0.0719
  830MOL0     H11997   6.877   0.039   8.775  1.1329  0.3764  0.5806
  830MOL0     H11998   6.812  -0.059   8.900 -2.6216  0.3846 -3.3642
  830MOL0     H11999   6.733   0.199   8.882  2.2114  2.6755 -0.9201
  830MOL0     H12000   6.893   0.238   8.940  1.5766 -0.6289 -0.4413
  830MOL0     H12001   6.600  -0.004   9.080  0.5034 -0.7335  0.9028
  830MOL0     H12002   6.586  -0.004   9.423 -1.7053 -0.5143  0.2328
  830MOL0     H12003   6.519   0.152   9.396 -0.8231 -0.0534 -0.6712
  830MOL0     H12004   6.453  -0.112   9.263 -0.8772  2.1109 -4.4262
  830MOL0     H12005   6.392   0.029   9.179 -2.1964 -2.0185  0.1738
  830MOL0     H12006   6.307   0.116   9.384 -0.6029  0.1048 -2.0014
  830MOL0     H12007   6.313  -0.044   9.464 -2.5472  1.6206  0.9060
  830MOL0     H12008   6.165  -0.134   9.281  1.1329  0.9538 -1.9274
  830MOL0     H12009   6.164   0.023   9.208 -2.4199  0.8421  0.8678
  830MOL0     H12010   5.918   0.016   9.586 -0.3362 -2.4212  1.3198
  830MOL0     H12011   5.711  -0.026   9.714  0.2199 -5.2310  0.9066
  830MOL0     H12012   5.568   0.026   9.632  0.7164 -0.0612  3.5260
  830MOL0     H12013   5.593  -0.137   9.624 -1.1609  0.3476  0.6359
  830MOL0     H12014   5.247  -0.100   9.193 -2.6774  1.9637 -2.0862
  830MOL0     H12015   5.037  -0.167   9.221  0.8854 -2.1596  1.2233
  830MOL0     H12016   4.804  -0.019   9.590 -0.5185  1.4179  0.3172
  830MOL0     H12017   4.775   0.090   9.449 -0.7916  1.1639  2.7669
  830MOL0     H12018   4.609  -0.098   9.370  2.1526  0.6851  0.6411
  830MOL0     H12019   4.617  -0.166   9.529  0.8677 -0.1935 -0.6098
  830MOL0     H12020   4.544   0.116   9.461  0.2546  0.2931  1.6030
  830MOL0     H12021   4.534   0.047   9.635 -1.6900 -1.1965  0.1295
  830MOL0     H12022   4.349  -0.007   9.385 -0.5284  0.4142  0.0180
  830MOL0     H12023   4.370  -0.122   9.508  3.1925 -0.8674 -2.6013
  830MOL0     H12024   4.280   0.076   9.672  1.1456  0.8119 -1.0092
  830MOL0     H12025   4.163   0.020   9.551  1.0778 -2.2634 -2.0318
  830MOL0     H12026   4.354   0.251   9.500 -0.3833 -0.1146 -4.8569
  830MOL0     H12027   4.229   0.185   9.404 -0.6033  0.4234 -0.6370
  830MOL0     H12028   4.180   0.312   9.686 -3.3703 -0.8849  0.2312
  830MOL0     H12029   4.055   0.250   9.585  0.4206 -0.7780  1.0988
  830MOL0     H12030   4.074   0.424   9.436  2.2103  1.6262 -0.6614
  830MOL0     H12031   4.225   0.496   9.508  0.5797 -0.2824 -0.7194
  830MOL0     H12032   5.029   0.018   9.616  0.9435 -1.5298  1.9087
  830MOL0     H12033   5.260   0.061   9.599  0.3434  1.6965 -0.5587
  830MOL0     H12034   5.701  -0.115   9.158 -1.2163  1.0265 -0.0096
  830MOL0     H12035   5.945  -0.070   9.172 -1.3868  2.7108 -0.1407
  830MOL0     H12036   7.862  -0.196   8.950  0.9050  1.6741 -1.3680
  830MOL0     H12037   8.020  -0.034   9.077  0.1009  0.9089  1.1219
  830MOL0     H12038   8.341   0.212   9.240  0.0892 -0.2206  0.5717
  830MOL0     H12039   8.446   0.398   9.322 -0.0488  0.4620  0.9056
  830MOL0     H12040   8.535   0.578   9.360  0.7707  0.7375 -1.3541
  830MOL0     H12041   8.432   0.691   9.282 -1.2741  1.9637  1.2371
  830MOL0     H12042   8.566   0.700   9.560 -0.0082  1.3780  0.3833
  830MOL0     H12043   8.459   0.826   9.506 -0.6740 -2.3434  0.3339
  830MOL0     H12044   8.598   0.836   9.294 -0.4284  3.0010  0.3052
  830MOL0     H12045   8.723   0.742   9.384  0.6530  0.8764 -0.9008
  830MOL0     H12046   8.784   0.966   9.397  1.2961 -0.0572  2.0307
  830MOL0     H12047   8.720   0.929   9.557  0.9174 -3.4492 -0.0389
  830MOL0     H12048   8.414   1.188   9.451 -0.7668 -2.2793 -1.8567
  830MOL0     H12049   8.097   0.579   9.471  3.2339  0.9165  1.1884
  830MOL0     H12050   7.971   0.347   9.413 -0.1909 -1.6835 -2.3049
  831MOL0     O12051  11.218   7.483  10.848  0.3234  0.3868  0.4686
  831MOL0     C12052  11.289   7.527  10.931 -0.7109  0.5855 -0.1888
  831MOL0     O12053  11.266   7.524  11.071 -0.0301 -0.2951  0.4607
  831MOL0     C12054  11.152   7.453  11.112  0.2511 -0.6475  0.3756
  831MOL0     C12055  11.154   7.325  11.158  0.1770  0.2685 -0.5004
  831MOL0     C12056  11.040   7.262  11.206 -0.7928  0.0014  0.7991
  831MOL0     C12057  10.914   7.322  11.203 -0.6794  0.7709  0.4247
  831MOL0     O12058  10.815   7.249  11.265 -0.4294 -0.2738 -0.6436
  831MOL0     C12059  10.683   7.301  11.252 -0.1108  0.5324 -0.7945
  831MOL0     C12060  10.591   7.244  11.361  0.7458  0.3962 -0.1145
  831MOL0     C12061  10.442   7.280  11.325 -0.6033 -0.8275 -0.5841
  831MOL0     C12062  10.336   7.244  11.422  0.4300  0.0949 -0.5428
  831MOL0     C12063  10.297   7.103  11.402 -0.5138  0.5799  0.8377
  831MOL0     C12064  10.180   7.066  11.489 -0.3109  1.5022 -0.3119
  831MOL0     C12065  10.165   6.915  11.498 -0.7177  0.4622  0.2601
  831MOL0     C12066  10.065   6.883  11.610 -0.7421  0.3272  0.1077
  831MOL0     N12067   9.935   6.909  11.545 -0.3047 -0.3817 -0.2336
  831MOL0     C12068   9.863   6.820  11.458  0.3360 -1.1208 -0.3737
  831MOL0     C12069   9.748   6.879  11.425 -0.4914 -0.1241 -0.2043
  831MOL0     C12070   9.644   6.834  11.323 -0.2942 -0.0059 -0.3535
  831MOL0     C12071   9.581   6.952  11.249  0.3824 -0.0359 -1.1371
  831MOL0     C12072   9.501   6.906  11.138 -0.2672  0.0938  0.3237
  831MOL0     C12073   9.428   7.017  11.063  0.2869  0.7976 -0.1025
  831MOL0     O12074   9.355   6.966  10.948  0.6779 -0.1777 -0.3182
  831MOL0     C12075   9.225   6.925  10.950  0.8177 -0.3416  0.1268
  831MOL0     C12076   9.134   6.954  11.059  0.2595 -0.1252  0.3364
  831MOL0     C12077   8.999   6.922  11.048 -0.1915 -0.4713  0.1451
  831MOL0     C12078   8.900   6.965  11.158  0.2682 -0.1790 -0.2610
  831MOL0     C12079   8.952   6.868  10.917 -1.0181 -0.2023  0.6791
  831MOL0     C12080   8.801   6.847  10.877  0.2598 -0.0756 -1.0616
  831MOL0     O12081   8.777   6.807  10.752  0.7880 -0.1182 -0.1534
  831MOL0     C12082   8.650   6.788  10.701 -0.2686 -0.1387  1.0623
  831MOL0     C12083   8.540   6.880  10.711 -0.7866 -0.0154 -0.1580
  831MOL0     C12084   8.418   6.853  10.642  0.3179 -0.0789 -0.9944
  831MOL0     C12085   8.401   6.747  10.553 -0.9588 -0.1759  0.2014
  831MOL0     O12086   8.280   6.742  10.490 -0.0831 -0.0093 -0.1850
  831MOL0     C12087   8.266   6.655  10.379 -0.2016  0.0248 -1.5749
  831MOL0     C12088   8.135   6.667  10.309 -0.0861 -0.2746  0.1179
  831MOL0     C12089   8.014   6.625  10.398 -0.3842  0.3797  0.6292
  831MOL0     C12090   7.954   6.509  10.330  0.2319 -0.4182  0.5188
  831MOL0     C12091   7.810   6.473  10.393 -0.7827 -0.0116  0.0565
  831MOL0     C12092   7.698   6.486  10.279  0.2809  0.8366  0.0204
  831MOL0     C12093   7.569   6.412  10.310 -1.7204  0.0984  0.5336
  831MOL0     C12094   7.584   6.265  10.299  0.0428 -0.1942  0.5680
  831MOL0    Cl12095   7.448   6.146  10.347  0.1118  0.4245 -0.0332
  831MOL0     C12096   8.504   6.654  10.541  0.3820  0.1536  0.0832
  831MOL0     C12097   8.624   6.672  10.620  0.2326  0.5659 -0.4239
  831MOL0     O12098   8.719   6.877  10.962 -0.0194 -0.5261 -1.0852
  831MOL0     C12099   9.041   6.837  10.817 -1.1656 -0.3458 -0.3718
  831MOL0     C12100   9.173   6.865  10.838 -0.3973  0.4110  0.0279
  831MOL0     N12101   9.740   7.001  11.493 -0.4573  0.2524 -0.2884
  831MOL0     N12102   9.852   7.013  11.567  0.9724 -0.6975 -0.1061
  831MOL0     C12103  10.909   7.449  11.140 -0.5508 -0.8596  0.8288
  831MOL0     C12104  11.034   7.516  11.102  0.4281  0.3639  0.1685
  831MOL0     C12105  11.422   7.577  10.885 -0.7854 -1.0788 -0.3305
  831MOL0     C12106  11.507   7.652  10.977  0.9506 -0.9955 -0.4157
  831MOL0     C12107  11.634   7.691  10.937  0.0483  0.3576 -0.0146
  831MOL0     C12108  11.688   7.658  10.810  1.0077 -0.6555  0.4471
  831MOL0     O12109  11.814   7.702  10.775 -0.8576 -0.0812 -0.3033
  831MOL0     C12110  11.863   7.698  10.636  0.5686  0.2073 -0.7146
  831MOL0     C12111  12.015   7.728  10.616 -1.0376  0.4995  0.2273
  831MOL0     C12112  12.042   7.874  10.639 -0.0819 -0.1218 -0.4951
  831MOL0     C12113  12.063   7.919  10.784 -0.2665 -0.3642  0.2908
  831MOL0     C12114  12.189   7.862  10.836 -0.2400  0.4493 -0.7370
  831MOL0     C12115  12.294   7.820  10.889 -0.2864  0.3983  0.2996
  831MOL0     C12116  11.602   7.584  10.718 -0.7557 -1.0294  0.4841
  831MOL0     C12117  11.478   7.549  10.756 -0.0031  0.1504 -0.0890
  831MOL0     H12118  11.248   7.271  11.167 -0.6775 -0.9375  2.0801
  831MOL0     H12119  11.054   7.168  11.259 -1.0918 -0.0698  0.7580
  831MOL0     H12120  10.680   7.410  11.257  3.0364  0.6633 -0.2283
  831MOL0     H12121  10.637   7.261  11.160 -0.6669 -1.6263  0.3519
  831MOL0     H12122  10.590   7.137  11.384  1.0993  0.5478  0.6643
  831MOL0     H12123  10.608   7.287  11.460 -1.6876 -2.5214  1.7163
  831MOL0     H12124  10.439   7.389  11.317 -2.5996 -0.7596  0.6142
  831MOL0     H12125  10.412   7.244  11.226  0.7446 -2.7353 -0.3496
  831MOL0     H12126  10.366   7.263  11.525 -0.6237 -1.6479  0.1293
  831MOL0     H12127  10.247   7.301  11.392  0.0447  1.0728  2.1922
  831MOL0     H12128  10.261   7.081  11.302  2.6314  0.2436 -0.3360
  831MOL0     H12129  10.387   7.042  11.415 -0.3393  0.0771 -2.1490
  831MOL0     H12130  10.190   7.103  11.591  0.8140  0.7273 -0.1210
  831MOL0     H12131  10.089   7.109  11.445 -1.9263  1.4504  2.6935
  831MOL0     H12132  10.133   6.879  11.400 -0.3241  2.1465 -0.5199
  831MOL0     H12133  10.265   6.875  11.519 -1.2900 -0.6098  1.0594
  831MOL0     H12134  10.082   6.948  11.696 -0.1491  0.2091  0.0832
  831MOL0     H12135  10.073   6.780  11.646 -0.0548  0.6501  0.9249
  831MOL0     H12136   9.892   6.719  11.431 -0.8451 -0.8138 -3.0731
  831MOL0     H12137   9.695   6.769  11.251  0.6469 -1.5370  1.6079
  831MOL0     H12138   9.566   6.779  11.376  0.9963 -2.4693 -0.8504
  831MOL0     H12139   9.665   7.015  11.219  1.4092 -0.5431  0.5531
  831MOL0     H12140   9.520   7.011  11.318 -2.4392 -3.6011 -0.3012
  831MOL0     H12141   9.431   6.831  11.176  0.6530 -0.8506  0.1780
  831MOL0     H12142   9.563   6.859  11.061 -3.1323  1.1095 -2.8458
  831MOL0     H12143   9.507   7.086  11.034  2.1719 -1.2510 -0.0882
  831MOL0     H12144   9.365   7.062  11.140  1.1246 -0.2671  1.2434
  831MOL0     H12145   9.167   7.002  11.151  0.3508 -1.2199  0.8947
  831MOL0     H12146   8.841   6.874  11.171 -0.2004  0.2080  0.3974
  831MOL0     H12147   8.942   6.992  11.256  0.2635 -1.8390  0.2254
  831MOL0     H12148   8.821   7.035  11.129  1.2625  0.6061 -1.1351
  831MOL0     H12149   8.549   6.970  10.770  0.7254  0.3723 -0.9526
  831MOL0     H12150   8.332   6.920  10.638 -1.0118 -1.7091 -0.5862
  831MOL0     H12151   8.340   6.670  10.300 -0.7371  1.5484 -1.8190
  831MOL0     H12152   8.276   6.553  10.417  0.2361  0.6970  0.1703
  831MOL0     H12153   8.114   6.767  10.269  0.9632 -0.3054 -0.5581
  831MOL0     H12154   8.131   6.604  10.219 -2.0052  1.1208 -0.8544
  831MOL0     H12155   7.931   6.695  10.398  0.9594  2.0916 -1.1395
  831MOL0     H12156   8.049   6.616  10.501  0.7874  1.5073  0.3653
  831MOL0     H12157   7.937   6.531  10.224 -2.7260  1.7490  1.2996
  831MOL0     H12158   8.028   6.430  10.349  0.8336  0.5327  2.3599
  831MOL0     H12159   7.781   6.549  10.466 -0.3928  1.0534 -0.8755
  831MOL0     H12160   7.807   6.375  10.441  1.1760 -0.2682 -0.2554
  831MOL0     H12161   7.678   6.593  10.267 -2.7516  0.5116  1.1333
  831MOL0     H12162   7.737   6.449  10.184 -2.2597 -2.4692  0.0570
  831MOL0     H12163   7.491   6.452  10.244 -0.0610  0.0694 -1.5759
  831MOL0     H12164   7.537   6.438  10.411 -1.8455 -0.1326  0.5549
  831MOL0     H12165   7.659   6.234  10.373  2.8898 -0.2233 -2.1015
  831MOL0     H12166   7.645   6.244  10.210 -0.9693  0.6285 -0.3454
  831MOL0     H12167   8.497   6.572  10.470  0.0536 -1.8851  2.3285
  831MOL0     H12168   8.691   6.591  10.595 -1.5654 -1.4699  1.0682
  831MOL0     H12169   9.020   6.793  10.719 -2.9229 -1.0296  0.2725
  831MOL0     H12170   9.229   6.841  10.748 -1.5135  0.6486 -0.7464
  831MOL0     H12171  10.811   7.493  11.122 -0.5564  0.1229  2.8889
  831MOL0     H12172  11.038   7.617  11.063  0.0510  0.3277  0.0251
  831MOL0     H12173  11.464   7.674  11.074  0.4485  0.9972 -1.0308
  831MOL0     H12174  11.691   7.751  11.006  0.7710 -1.1996  0.7972
  831MOL0     H12175  11.851   7.600  10.590  1.2734  0.2664 -1.0427
  831MOL0     H12176  11.794   7.766  10.586 -1.4075  0.8157  2.5937
  831MOL0     H12177  12.044   7.704  10.513  2.2703  0.5181  1.0729
  831MOL0     H12178  12.087   7.673  10.676 -0.1499 -0.5842 -1.7352
  831MOL0     H12179  11.954   7.924  10.599 -0.2075 -1.3223 -1.7868
  831MOL0     H12180  12.125   7.917  10.583 -0.9081 -0.5635 -2.1009
  831MOL0     H12181  11.978   7.903  10.851 -1.1052  0.2451 -0.5965
  831MOL0     H12182  12.085   8.027  10.784 -0.2893 -0.3476  1.3449
  831MOL0     H12183  12.389   7.789  10.928 -0.3894 -0.8231 -0.3731
  831MOL0     H12184  11.628   7.559  10.616  1.0353 -0.6677  0.8217
  831MOL0     H12185  11.418   7.487  10.690 -2.8664  1.4682  1.1111
  832MOL0     O12186   0.835  11.092   8.487 -0.2904 -0.5597 -0.5299
  832MOL0     C12187   0.747  11.011   8.485  0.8533 -0.3330 -0.5382
  832MOL0     O12188   0.763  10.875   8.466  0.4382  0.0915 -0.1015
  832MOL0     C12189   0.889  10.829   8.455  0.1053  0.0460 -0.2991
  832MOL0     C12190   0.949  10.821   8.331  0.1699 -0.0415 -0.5230
  832MOL0     C12191   1.069  10.764   8.312 -0.2392 -0.2616 -0.2942
  832MOL0     C12192   1.140  10.707   8.416 -0.2723  0.6111 -0.4912
  832MOL0     O12193   1.262  10.661   8.396  0.1539  0.7390  0.2272
  832MOL0     C12194   1.301  10.532   8.454 -0.0852 -0.4379  0.8640
  832MOL0     C12195   1.404  10.471   8.366  0.0622  0.3668  0.2592
  832MOL0     C12196   1.448  10.323   8.408 -0.3557 -0.0539  0.2584
  832MOL0     C12197   1.329  10.229   8.398  0.8411 -0.4350  0.2601
  832MOL0     C12198   1.361  10.086   8.438 -0.4761 -0.7643 -0.0859
  832MOL0     C12199   1.282   9.983   8.365  0.0387 -0.3804 -0.0925
  832MOL0     C12200   1.328   9.842   8.427 -0.3252  0.7396  0.3166
  832MOL0     C12201   1.243   9.726   8.372 -0.0367  0.4603 -0.4970
  832MOL0     N12202   1.251   9.701   8.222 -0.4297 -0.0570  0.4740
  832MOL0     C12203   1.362   9.731   8.147  0.0721  0.9463 -1.0117
  832MOL0     C12204   1.325   9.687   8.026 -0.0512 -0.2241 -0.7741
  832MOL0     C12205   1.409   9.690   7.898 -0.5951 -0.6527 -0.1029
  832MOL0     C12206   1.418   9.830   7.845  0.5158 -0.4110 -0.3636
  832MOL0     C12207   1.529   9.855   7.742  1.0568 -0.5668  0.4219
  832MOL0     C12208   1.510   9.808   7.598 -0.6012 -0.1805  0.4407
  832MOL0     O12209   1.503   9.671   7.589 -0.1041 -0.5234 -0.1925
  832MOL0     C12210   1.522   9.605   7.471 -0.5720  0.7052 -0.9193
  832MOL0     C12211   1.483   9.474   7.477  0.1975  0.8750  0.8403
  832MOL0     C12212   1.495   9.396   7.359 -0.6907  0.5666 -0.1518
  832MOL0     C12213   1.462   9.256   7.382 -0.1085  0.3794  0.0941
  832MOL0     C12214   1.546   9.449   7.236 -0.1606  1.5484 -0.4047
  832MOL0     C12215   1.577   9.374   7.105  0.1364 -0.6019  0.0762
  832MOL0     O12216   1.647   9.436   7.006  0.5892 -0.2977 -0.0293
  832MOL0     C12217   1.632   9.397   6.877  0.5307  0.2868 -0.1388
  832MOL0     C12218   1.505   9.364   6.824 -1.7585  0.4064 -0.2368
  832MOL0     C12219   1.493   9.342   6.685  0.0909 -0.5456 -0.5302
  832MOL0     C12220   1.600   9.341   6.593  0.3162  0.2490  0.1671
  832MOL0     O12221   1.571   9.322   6.463  0.4879 -0.2966 -0.2043
  832MOL0     C12222   1.557   9.449   6.393  0.7265 -0.5680  0.0448
  832MOL0     C12223   1.640   9.459   6.271  0.0085 -0.1851  0.6344
  832MOL0     C12224   1.787   9.448   6.300  0.0158 -0.0142  0.4946
  832MOL0     C12225   1.840   9.299   6.295 -0.0035 -0.1020 -0.1966
  832MOL0     C12226   1.992   9.297   6.322 -0.2682  0.1017  0.0341
  832MOL0     C12227   2.049   9.152   6.329  0.4522  0.4325  0.5623
  832MOL0     C12228   2.192   9.163   6.312 -0.1707 -0.7566  0.5004
  832MOL0     C12229   2.273   9.036   6.329 -0.2763  0.6947 -1.1351
  832MOL0    Cl12230   2.287   9.010   6.512 -0.3781 -0.5417 -0.3271
  832MOL0     C12231   1.722   9.354   6.648  0.4566 -0.2079  0.1484
  832MOL0     C12232   1.736   9.383   6.787 -0.0587  0.1532  0.1784
  832MOL0     O12233   1.547   9.258   7.111  0.2245 -0.6177  0.7720
  832MOL0     C12234   1.579   9.588   7.229  0.2870  0.6427  0.0011
  832MOL0     C12235   1.565   9.665   7.351 -0.3021  0.3216 -0.4635
  832MOL0     N12236   1.198   9.633   8.026 -0.8375  0.1794 -0.8249
  832MOL0     N12237   1.144   9.662   8.141 -0.2454 -0.9867 -0.2976
  832MOL0     C12238   1.093  10.734   8.549  0.0416 -0.2212 -0.3824
  832MOL0     C12239   0.959  10.787   8.567 -0.0701 -0.6150  0.1446
  832MOL0     C12240   0.609  11.060   8.506  0.2889  0.4243 -0.0797
  832MOL0     C12241   0.503  10.972   8.496 -0.2170 -0.3765  0.4178
  832MOL0     C12242   0.367  11.014   8.503  0.1574  0.3467 -0.2574
  832MOL0     C12243   0.338  11.146   8.515 -0.5364 -0.4417 -0.4811
  832MOL0     O12244   0.204  11.183   8.522  0.4385 -0.1475 -0.0413
  832MOL0     C12245   0.173  11.304   8.594 -0.5892 -0.2907 -0.0508
  832MOL0     C12246   0.023  11.314   8.608 -0.5626  0.5259 -0.1262
  832MOL0     C12247  -0.028  11.440   8.666 -0.8066 -0.4520  0.0278
  832MOL0     C12248  -0.159  11.417   8.740 -0.2781 -0.4789 -0.0270
  832MOL0     C12249  -0.173  11.495   8.867 -0.0061 -0.2976 -0.0946
  832MOL0     C12250  -0.177  11.565   8.969  0.0691 -0.2299  0.4312
  832MOL0     C12251   0.444  11.237   8.532 -0.4419 -0.2911 -0.7482
  832MOL0     C12252   0.579  11.193   8.538  0.1145 -0.3717  0.2247
  832MOL0     H12253   0.895  10.848   8.241 -1.0775 -3.2699 -0.8902
  832MOL0     H12254   1.122  10.757   8.218  1.6040  3.9487  0.1756
  832MOL0     H12255   1.344  10.567   8.548  0.2313  1.3278  0.1171
  832MOL0     H12256   1.214  10.469   8.473 -1.3988  0.8619 -0.4799
  832MOL0     H12257   1.360  10.470   8.266  1.1263 -0.3826 -0.2253
  832MOL0     H12258   1.488  10.542   8.368 -0.7645  1.4563 -1.5482
  832MOL0     H12259   1.528  10.285   8.344 -0.5172  0.0453 -0.0036
  832MOL0     H12260   1.494  10.327   8.506  0.8772  0.3766 -0.3261
  832MOL0     H12261   1.244  10.256   8.461  0.3006  0.7676 -0.9144
  832MOL0     H12262   1.284  10.237   8.298  0.0654  1.3875  0.7084
  832MOL0     H12263   1.466  10.060   8.418  0.3435 -0.0470  2.7724
  832MOL0     H12264   1.346  10.068   8.545 -2.0954 -2.6865 -0.5940
  832MOL0     H12265   1.174   9.994   8.374  0.0935  2.0298 -1.6621
  832MOL0     H12266   1.307   9.991   8.259  1.2849  1.8339  0.2970
  832MOL0     H12267   1.431   9.820   8.400 -0.7345  1.7224 -2.3773
  832MOL0     H12268   1.321   9.847   8.536  2.1597 -0.1455  0.5774
  832MOL0     H12269   1.139   9.753   8.397 -0.1013 -0.0786 -0.1700
  832MOL0     H12270   1.271   9.639   8.431  1.3414  0.7860 -0.6470
  832MOL0     H12271   1.459   9.774   8.172  1.4443 -1.0848 -2.4943
  832MOL0     H12272   1.509   9.658   7.927 -0.6863  0.0159  1.0114
  832MOL0     H12273   1.372   9.621   7.822  2.2088 -0.9266 -1.3283
  832MOL0     H12274   1.432   9.894   7.933 -3.0551 -2.2730  1.8100
  832MOL0     H12275   1.321   9.850   7.798  0.3910 -1.0242 -0.3727
  832MOL0     H12276   1.618   9.817   7.792  0.7703  0.5261  1.8121
  832MOL0     H12277   1.549   9.961   7.727 -2.8677  0.2715  0.0450
  832MOL0     H12278   1.600   9.842   7.546 -0.5744 -1.3670 -0.3002
  832MOL0     H12279   1.419   9.857   7.560 -2.0481 -0.0561  3.6901
  832MOL0     H12280   1.442   9.438   7.571 -2.4073 -0.2365 -0.6218
  832MOL0     H12281   1.548   9.215   7.435  0.0249 -0.9507 -1.0713
  832MOL0     H12282   1.375   9.239   7.447  1.6100 -1.5657  2.0346
  832MOL0     H12283   1.441   9.193   7.295 -1.8018 -1.7062  1.8601
  832MOL0     H12284   1.417   9.371   6.888 -0.1837 -2.8673  2.6068
  832MOL0     H12285   1.393   9.348   6.643 -0.8897  0.1201  1.7471
  832MOL0     H12286   1.455   9.457   6.357  0.2375 -0.1974  1.4686
  832MOL0     H12287   1.577   9.538   6.452  3.1104 -0.1126 -1.3084
  832MOL0     H12288   1.613   9.377   6.203  2.9925 -2.9530  2.4904
  832MOL0     H12289   1.633   9.563   6.240  4.6990 -0.2688 -1.5453
  832MOL0     H12290   1.808   9.484   6.401  2.7483 -0.9167  0.3241
  832MOL0     H12291   1.845   9.502   6.224 -1.2631 -1.0360 -1.2898
  832MOL0     H12292   1.790   9.231   6.365  0.7023 -1.0821 -0.6135
  832MOL0     H12293   1.803   9.261   6.199 -1.5954 -1.2047  0.8112
  832MOL0     H12294   2.009   9.352   6.415 -0.5983  2.0003 -0.9763
  832MOL0     H12295   2.039   9.351   6.239 -0.6658  1.2553  0.5372
  832MOL0     H12296   2.024   9.100   6.422 -2.7247  0.6287 -0.0932
  832MOL0     H12297   2.007   9.098   6.243 -1.4174  0.9273  1.1225
  832MOL0     H12298   2.225   9.233   6.389  1.5436 -0.5701 -0.3588
  832MOL0     H12299   2.226   9.214   6.221  1.8337  2.7275  2.9793
  832MOL0     H12300   2.372   9.052   6.284 -0.0130  1.4717 -0.3192
  832MOL0     H12301   2.218   8.958   6.276 -2.0130  0.7270  0.5327
  832MOL0     H12302   1.810   9.342   6.586  0.6895  0.5679  0.3118
  832MOL0     H12303   1.828   9.391   6.844  1.3988 -2.5792 -1.5843
  832MOL0     H12304   1.622   9.640   7.144 -0.0842  1.4492  0.2974
  832MOL0     H12305   1.582   9.772   7.340 -1.9447  0.8604  1.5485
  832MOL0     H12306   1.157  10.698   8.629 -2.7080  0.8714  2.4852
  832MOL0     H12307   0.915  10.797   8.666 -0.0335 -2.7111  0.4289
  832MOL0     H12308   0.524  10.871   8.465  1.2847 -0.1475  0.6019
  832MOL0     H12309   0.283  10.945   8.498 -0.4961  1.0498  0.7417
  832MOL0     H12310   0.223  11.301   8.692 -4.4231 -0.7287  2.1055
  832MOL0     H12311   0.206  11.395   8.543 -0.9531 -0.5380 -0.7420
  832MOL0     H12312  -0.014  11.230   8.668 -0.2716  1.5864  1.6205
  832MOL0     H12313  -0.016  11.302   8.507  0.4286  0.8914 -0.5618
  832MOL0     H12314  -0.044  11.511   8.584  1.6485 -1.1470 -1.1298
  832MOL0     H12315   0.050  11.487   8.727 -2.6407  1.5402  0.9748
  832MOL0     H12316  -0.164  11.312   8.767  1.7891 -0.3152  1.2416
  832MOL0     H12317  -0.245  11.436   8.675 -1.6451 -0.4697  1.6870
  832MOL0     H12318  -0.195  11.624   9.056 -0.3694  2.2440 -1.2295
  832MOL0     H12319   0.410  11.336   8.558 -2.0973 -0.8302 -0.7901
  832MOL0     H12320   0.658  11.260   8.571  1.7033 -2.5250  0.9996
  833MOL0     O12321  10.336   7.379   2.369 -0.0649 -0.4373 -0.0941
  833MOL0     C12322  10.353   7.422   2.487 -0.0519  0.1389  0.2042
  833MOL0     O12323  10.321   7.353   2.606 -0.8962 -0.0737 -0.4884
  833MOL0     C12324  10.270   7.228   2.581 -0.1833  0.2206  1.0145
  833MOL0     C12325  10.355   7.131   2.527 -0.3267  0.5098  0.4217
  833MOL0     C12326  10.304   7.000   2.515 -0.1682  0.1111  0.4836
  833MOL0     C12327  10.168   6.973   2.531 -0.0588 -0.7455  0.1827
  833MOL0     O12328  10.135   6.838   2.522 -0.3001 -0.5640 -0.5447
  833MOL0     C12329   9.997   6.801   2.510 -0.4441 -0.2730 -0.5742
  833MOL0     C12330   9.982   6.649   2.538  0.9541 -0.5799 -0.0628
  833MOL0     C12331  10.016   6.541   2.431  0.0565  0.4470 -0.1456
  833MOL0     C12332  10.161   6.541   2.390  0.1719  0.1068  0.6107
  833MOL0     C12333  10.186   6.441   2.277  0.4063 -0.3372  0.4741
  833MOL0     C12334  10.336   6.437   2.254  0.3026  0.9371  0.3656
  833MOL0     C12335  10.369   6.323   2.153  0.9959  0.3701  0.1349
  833MOL0     C12336  10.521   6.307   2.168 -0.3950 -1.9014  0.1437
  833MOL0     N12337  10.596   6.221   2.072  0.0363  0.0058  0.5954
  833MOL0     C12338  10.579   6.083   2.053 -0.9667  0.4350  0.1867
  833MOL0     C12339  10.658   6.043   1.952 -1.3458 -0.9369 -0.0381
  833MOL0     C12340  10.698   5.912   1.890  0.8809 -0.3294 -0.4589
  833MOL0     C12341  10.791   5.842   1.996 -0.5245 -0.1144 -0.1431
  833MOL0     C12342  10.722   5.751   2.093  0.0952  0.5331 -0.3475
  833MOL0     C12343  10.644   5.628   2.029 -0.8091 -0.2127  0.4813
  833MOL0     O12344  10.647   5.527   2.133  0.5594  0.4087  1.0620
  833MOL0     C12345  10.564   5.416   2.113 -0.8763  0.5060  0.0954
  833MOL0     C12346  10.497   5.366   1.999  0.0962  0.1322 -1.0424
  833MOL0     C12347  10.427   5.251   2.014  0.3519  0.2096  0.0510
  833MOL0     C12348  10.341   5.209   1.891  0.0454  0.5995  0.5463
  833MOL0     C12349  10.411   5.191   2.142  0.2801 -0.1869  0.3554
  833MOL0     C12350  10.326   5.066   2.164 -0.2538 -0.4064 -0.0736
  833MOL0     O12351  10.263   5.062   2.282  0.4895  0.8412 -0.5527
  833MOL0     C12352  10.195   4.956   2.337 -0.5882 -0.0712 -0.0449
  833MOL0     C12353  10.113   4.883   2.257  0.6099  0.5801 -0.5496
  833MOL0     C12354  10.034   4.787   2.326 -0.1753  0.7402  0.2681
  833MOL0     C12355  10.048   4.753   2.459 -0.4578  0.2789 -0.3382
  833MOL0     O12356   9.987   4.640   2.501 -0.2113 -0.4844  0.0637
  833MOL0     C12357   9.932   4.626   2.633 -0.4132 -0.8470 -0.4157
  833MOL0     C12358   9.907   4.466   2.663  0.1100  0.1083  0.1339
  833MOL0     C12359   9.781   4.422   2.591 -0.1025  0.6221  0.9851
  833MOL0     C12360   9.767   4.269   2.599 -0.4474  0.0972  0.5632
  833MOL0     C12361   9.630   4.220   2.549  0.4002  0.8631 -0.2698
  833MOL0     C12362   9.603   4.063   2.555 -0.0969 -0.0860 -0.0657
  833MOL0     C12363   9.462   4.021   2.506  0.1063  0.4529  0.2940
  833MOL0     C12364   9.460   3.872   2.518  0.0371  1.1060 -0.4595
  833MOL0    Cl12365   9.325   3.822   2.422 -0.0307  0.4162 -0.3755
  833MOL0     C12366  10.136   4.833   2.534  0.2695 -0.9535  0.5782
  833MOL0     C12367  10.204   4.935   2.472 -0.2848  0.6279 -0.6727
  833MOL0     O12368  10.330   4.973   2.080  0.5117 -0.1050  0.2624
  833MOL0     C12369  10.475   5.244   2.253 -0.4447  0.5427 -0.3850
  833MOL0     C12370  10.566   5.347   2.232 -0.2947 -0.9661  0.5583
  833MOL0     N12371  10.734   6.163   1.911  0.4804  0.1551 -0.2091
  833MOL0     N12372  10.689   6.264   1.980 -0.9102  0.5171 -1.0459
  833MOL0     C12373  10.078   7.082   2.555 -0.6647  0.1580  0.0272
  833MOL0     C12374  10.136   7.206   2.593 -0.1123  0.5565  1.0662
  833MOL0     C12375  10.413   7.558   2.492 -0.2692 -0.6110 -0.3651
  833MOL0     C12376  10.450   7.618   2.621  0.0137  0.8950  0.4839
  833MOL0     C12377  10.487   7.749   2.625 -0.3950 -0.5320  0.3118
  833MOL0     C12378  10.523   7.823   2.503 -1.2031 -0.5055 -0.3090
  833MOL0     O12379  10.580   7.947   2.499  0.3135 -0.3490 -0.0785
  833MOL0     C12380  10.595   8.011   2.631 -0.4029  0.0807  0.9962
  833MOL0     C12381  10.647   8.154   2.602 -0.2103 -0.6639 -0.5567
  833MOL0     C12382  10.537   8.260   2.597  0.0649  0.5384 -0.1961
  833MOL0     C12383  10.579   8.401   2.590 -0.5194  0.5170 -0.3543
  833MOL0     C12384  10.628   8.442   2.452  1.8459 -0.0653 -0.8397
  833MOL0     C12385  10.660   8.472   2.337  0.2275  0.4830 -0.5199
  833MOL0     C12386  10.514   7.760   2.385 -0.2649  0.8536  0.8345
  833MOL0     C12387  10.455   7.633   2.379  0.7872  1.0282  0.3690
  833MOL0     H12388  10.460   7.152   2.509 -1.0143  3.0199 -1.1676
  833MOL0     H12389  10.363   6.916   2.481 -0.3986  0.7710 -1.6844
  833MOL0     H12390   9.919   6.852   2.567 -1.0716 -2.1089  0.2866
  833MOL0     H12391   9.970   6.816   2.405  1.9456  1.9412 -0.9846
  833MOL0     H12392  10.045   6.625   2.624  3.0116  1.7035 -0.8217
  833MOL0     H12393   9.879   6.625   2.568 -0.0625 -1.3096 -3.6266
  833MOL0     H12394   9.989   6.441   2.465  2.9102 -0.9730 -1.7298
  833MOL0     H12395   9.961   6.565   2.340  4.0853  2.2842 -2.3808
  833MOL0     H12396  10.188   6.643   2.362  0.9840 -0.0248  0.9091
  833MOL0     H12397  10.225   6.503   2.470  2.1328  1.3232 -0.3184
  833MOL0     H12398  10.155   6.342   2.310 -1.2269 -0.3730 -1.0724
  833MOL0     H12399  10.142   6.456   2.178 -1.0600 -1.7215  0.8981
  833MOL0     H12400  10.362   6.536   2.215  1.5899  1.3729  2.1734
  833MOL0     H12401  10.393   6.416   2.346  1.1469  1.9312  0.0915
  833MOL0     H12402  10.321   6.230   2.185  0.1243  1.0427  0.8351
  833MOL0     H12403  10.342   6.345   2.049 -2.5432 -4.3180 -0.2931
  833MOL0     H12404  10.546   6.272   2.268 -0.9182  0.8560  1.3435
  833MOL0     H12405  10.562   6.407   2.152 -1.3655 -0.8865  3.3190
  833MOL0     H12406  10.521   6.017   2.116  2.1401 -2.4734  0.3230
  833MOL0     H12407  10.608   5.852   1.875 -1.2015  1.4781  3.4223
  833MOL0     H12408  10.752   5.913   1.795 -2.3723 -0.6646 -2.4707
  833MOL0     H12409  10.851   5.917   2.048  1.3055 -1.6136  0.0411
  833MOL0     H12410  10.869   5.783   1.945 -0.6468  0.3827 -0.9170
  833MOL0     H12411  10.645   5.800   2.155 -1.9112 -1.5774 -1.0155
  833MOL0     H12412  10.802   5.703   2.150 -0.4657  1.0693  0.9491
  833MOL0     H12413  10.690   5.598   1.934  0.2799  3.8566 -0.4781
  833MOL0     H12414  10.539   5.650   2.009 -0.3665  0.6909 -1.0305
  833MOL0     H12415  10.504   5.415   1.902 -1.2821  0.5797 -0.9364
  833MOL0     H12416  10.361   5.271   1.803 -0.8345 -0.4180 -0.4156
  833MOL0     H12417  10.365   5.105   1.866 -1.2202  0.0471  1.4953
  833MOL0     H12418  10.235   5.224   1.915  0.8683  2.5777  3.3414
  833MOL0     H12419  10.108   4.908   2.152 -0.7847  3.8966  0.1795
  833MOL0     H12420   9.971   4.725   2.264  3.6277 -1.5782 -1.6617
  833MOL0     H12421   9.999   4.669   2.707 -0.5000  0.8430 -1.2717
  833MOL0     H12422   9.836   4.677   2.650 -0.5189 -2.1370  3.9398
  833MOL0     H12423   9.992   4.407   2.627  1.5929  1.2219  1.6066
  833MOL0     H12424   9.896   4.463   2.772 -1.3797  1.2874  0.0411
  833MOL0     H12425   9.786   4.454   2.487  0.5417  3.6319  1.8578
  833MOL0     H12426   9.693   4.458   2.646 -2.2749 -1.5461 -0.8387
  833MOL0     H12427   9.854   4.234   2.543  0.3945  0.9441  1.2882
  833MOL0     H12428   9.778   4.237   2.703 -0.7951  1.7100  1.1336
  833MOL0     H12429   9.603   4.247   2.446  0.0135 -1.4487 -0.8346
  833MOL0     H12430   9.560   4.272   2.614 -1.2401 -1.0422 -0.3892
  833MOL0     H12431   9.684   4.021   2.494  0.8894  0.1579  1.0362
  833MOL0     H12432   9.621   4.026   2.656 -1.4708 -0.0254  0.2089
  833MOL0     H12433   9.458   4.049   2.400  0.9220 -1.1626 -0.1867
  833MOL0     H12434   9.376   4.066   2.556 -0.6848 -1.0675  0.3390
  833MOL0     H12435   9.440   3.826   2.615  1.5269 -0.3159 -0.7854
  833MOL0     H12436   9.549   3.815   2.492 -1.6000 -1.5180 -0.7754
  833MOL0     H12437  10.157   4.821   2.640  1.4316 -2.9539  0.1839
  833MOL0     H12438  10.276   5.004   2.518 -0.6962  1.3562 -1.1019
  833MOL0     H12439  10.471   5.195   2.350 -1.4134  0.5467 -0.4128
  833MOL0     H12440  10.622   5.384   2.318  1.2928  0.4434 -1.0031
  833MOL0     H12441   9.972   7.065   2.565 -0.3593 -1.4409  0.9221
  833MOL0     H12442  10.073   7.285   2.634  0.0909  1.2953  0.0097
  833MOL0     H12443  10.421   7.566   2.711  1.1984  2.9864  2.1607
  833MOL0     H12444  10.497   7.788   2.725 -1.1037 -1.3712  0.7237
  833MOL0     H12445  10.501   8.007   2.686 -2.3758 -2.1570 -2.2044
  833MOL0     H12446  10.666   7.947   2.684 -2.4093 -0.7864  2.7964
  833MOL0     H12447  10.713   8.156   2.515  1.3374 -1.3194  0.5641
  833MOL0     H12448  10.701   8.191   2.690 -0.7325 -0.1083 -0.4622
  833MOL0     H12449  10.471   8.239   2.682  1.4056 -1.6958  0.3871
  833MOL0     H12450  10.473   8.248   2.509 -1.0009  0.5407  0.5550
  833MOL0     H12451  10.660   8.407   2.664 -1.0058 -0.7168  0.3046
  833MOL0     H12452  10.499   8.464   2.629 -0.8196 -0.4452  0.6234
  833MOL0     H12453  10.686   8.502   2.238  1.7502 -2.3426 -1.0895
  833MOL0     H12454  10.551   7.815   2.299 -1.6283  0.6091  0.0694
  833MOL0     H12455  10.437   7.575   2.289  0.8725  1.4471  0.0795
  834MOL0     O12456   0.706   4.411   5.313  0.4186  0.3614 -1.0023
  834MOL0     C12457   0.779   4.425   5.412  0.5764  0.4011 -0.0987
  834MOL0     O12458   0.766   4.512   5.508  0.1102 -0.0179 -0.6541
  834MOL0     C12459   0.699   4.626   5.486  0.4001  0.3248  0.5234
  834MOL0     C12460   0.644   4.681   5.602 -0.5587 -0.2769  0.1423
  834MOL0     C12461   0.580   4.812   5.600  0.0844  0.1171  0.8003
  834MOL0     C12462   0.575   4.880   5.471  0.3215 -0.4072  0.0174
  834MOL0     O12463   0.513   5.004   5.460  0.2152 -0.0674 -0.0398
  834MOL0     C12464   0.523   5.093   5.569 -0.6167 -0.6801 -1.1078
  834MOL0     C12465   0.407   5.185   5.568 -0.0287  1.5598 -0.1625
  834MOL0     C12466   0.265   5.107   5.571 -0.8906  0.2032 -0.4074
  834MOL0     C12467   0.161   5.226   5.568 -0.2527 -0.5409  0.3576
  834MOL0     C12468   0.026   5.151   5.538  0.1558  0.8018  0.2591
  834MOL0     C12469  -0.098   5.240   5.511  0.2034  0.6764 -0.3909
  834MOL0     C12470  -0.217   5.164   5.440  0.2682  1.2049 -0.4440
  834MOL0     C12471  -0.307   5.089   5.535 -0.5928  0.7347  0.1564
  834MOL0     N12472  -0.415   5.175   5.581 -0.4698  1.0382  0.3076
  834MOL0     C12473  -0.548   5.163   5.533  0.0918 -0.2827  0.0178
  834MOL0     C12474  -0.614   5.271   5.586 -0.1368 -0.4593  0.4644
  834MOL0     C12475  -0.748   5.317   5.528  0.3621 -0.5859 -0.3771
  834MOL0     C12476  -0.865   5.244   5.596 -0.0642 -0.1816  0.0355
  834MOL0     C12477  -0.888   5.270   5.742 -0.3212 -0.0792  0.1927
  834MOL0     C12478  -0.925   5.408   5.799  0.2364 -0.0082 -0.0673
  834MOL0     O12479  -1.056   5.438   5.756  0.0569 -0.7354 -0.4193
  834MOL0     C12480  -1.165   5.372   5.802  0.3393 -0.1501 -0.2030
  834MOL0     C12481  -1.160   5.284   5.909  0.8133 -0.6166 -0.6354
  834MOL0     C12482  -1.278   5.225   5.961 -0.8039  0.6786  0.0058
  834MOL0     C12483  -1.262   5.157   6.090  0.5211 -0.1707  0.5075
  834MOL0     C12484  -1.403   5.240   5.895 -0.0742  1.0528  0.1381
  834MOL0     C12485  -1.535   5.182   5.942 -1.2287  1.2148 -0.0644
  834MOL0     O12486  -1.646   5.224   5.872  0.0581 -0.5737  0.0107
  834MOL0     C12487  -1.753   5.143   5.868  0.2400  0.3552 -0.2205
  834MOL0     C12488  -1.877   5.198   5.911  0.3888  0.4957 -0.4613
  834MOL0     C12489  -1.989   5.105   5.932 -0.0168 -0.3167  0.0980
  834MOL0     C12490  -1.976   4.965   5.898  0.7561  0.2389  0.7658
  834MOL0     O12491  -2.072   4.868   5.926  0.1970 -0.2165  0.4358
  834MOL0     C12492  -2.202   4.915   5.954 -0.6074  0.3179 -0.3579
  834MOL0     C12493  -2.293   4.793   5.931  0.1538  0.4008  0.0142
  834MOL0     C12494  -2.398   4.772   6.027 -0.5091 -0.1142  0.4480
  834MOL0     C12495  -2.478   4.644   6.000  0.5745  0.1760 -0.0855
  834MOL0     C12496  -2.593   4.639   6.087 -0.9709 -0.3530 -0.8131
  834MOL0     C12497  -2.683   4.507   6.077 -0.4909 -1.2392 -0.5295
  834MOL0     C12498  -2.802   4.520   6.166 -0.1200 -0.1308  0.4731
  834MOL0     C12499  -2.892   4.397   6.170 -0.8635  0.4782  0.5299
  834MOL0    Cl12500  -2.811   4.262   6.248 -0.1344 -0.1214 -0.7157
  834MOL0     C12501  -1.855   4.927   5.845 -0.1038 -0.9141 -0.0127
  834MOL0     C12502  -1.743   5.007   5.830  0.4794 -0.3246 -0.3582
  834MOL0     O12503  -1.534   5.101   6.036 -0.5265 -0.5604  0.1276
  834MOL0     C12504  -1.405   5.334   5.791  0.5656 -0.2287  0.8696
  834MOL0     C12505  -1.292   5.403   5.746  0.1025 -0.0645 -0.2950
  834MOL0     N12506  -0.533   5.337   5.673 -0.2134  0.0792 -0.3436
  834MOL0     N12507  -0.416   5.271   5.670 -1.6186 -0.9261  0.2632
  834MOL0     C12508   0.614   4.809   5.357  0.6490 -0.4287 -0.5567
  834MOL0     C12509   0.682   4.689   5.361  0.2755  0.1696  0.3629
  834MOL0     C12510   0.899   4.338   5.417 -0.0856 -0.9639  0.9108
  834MOL0     C12511   0.912   4.214   5.340 -0.1947 -0.3110  0.7822
  834MOL0     C12512   1.031   4.146   5.354  0.9862  0.3418 -0.4772
  834MOL0     C12513   1.144   4.192   5.423  0.4344 -0.2068  0.0836
  834MOL0     O12514   1.269   4.134   5.427 -0.3513 -0.5439 -0.2736
  834MOL0     C12515   1.305   4.071   5.301 -0.8679 -0.0676 -0.6733
  834MOL0     C12516   1.445   4.009   5.313  0.7035 -0.2984 -0.0162
  834MOL0     C12517   1.550   4.129   5.321  0.1446  0.1730 -1.1787
  834MOL0     C12518   1.580   4.195   5.453  0.2275 -0.0431 -0.0402
  834MOL0     C12519   1.677   4.304   5.441  0.1495  0.4988  0.6798
  834MOL0     C12520   1.750   4.389   5.414 -0.0335  0.1990  0.5157
  834MOL0     C12521   1.130   4.306   5.485  0.0510 -0.5416  0.2034
  834MOL0     C12522   1.016   4.381   5.482  0.1023 -0.9182  0.4343
  834MOL0     H12523   0.660   4.639   5.700  1.7556  2.3636  1.0293
  834MOL0     H12524   0.536   4.845   5.693 -1.6041  0.1309  0.0268
  834MOL0     H12525   0.543   5.054   5.670  1.8567  1.2170 -0.7812
  834MOL0     H12526   0.611   5.156   5.555 -0.0046 -1.3044 -0.2028
  834MOL0     H12527   0.404   5.249   5.657 -2.2623 -0.3756  1.2943
  834MOL0     H12528   0.422   5.249   5.481 -1.1233  0.7671 -0.9639
  834MOL0     H12529   0.267   5.043   5.482  1.9809  1.1086 -1.1036
  834MOL0     H12530   0.260   5.050   5.664 -0.3376  3.1281  1.5707
  834MOL0     H12531   0.145   5.275   5.664 -3.0893 -1.0329  0.2263
  834MOL0     H12532   0.189   5.294   5.486 -1.5625 -1.6129 -1.0472
  834MOL0     H12533   0.034   5.113   5.436  0.0067 -2.7345  1.4379
  834MOL0     H12534   0.007   5.070   5.610 -1.0700  0.8905  0.0603
  834MOL0     H12535  -0.123   5.282   5.608  0.5011 -0.0067 -0.0089
  834MOL0     H12536  -0.063   5.327   5.454  4.9141 -1.8785 -1.9487
  834MOL0     H12537  -0.278   5.231   5.378  1.2386  1.2997 -1.3201
  834MOL0     H12538  -0.173   5.091   5.371 -1.7653  0.8757 -1.4929
  834MOL0     H12539  -0.251   5.040   5.615  0.0139 -0.3559 -0.9054
  834MOL0     H12540  -0.349   5.005   5.478  1.1115 -1.1626  1.5969
  834MOL0     H12541  -0.592   5.096   5.460 -0.9451  0.3840  0.0084
  834MOL0     H12542  -0.753   5.423   5.557  0.4023 -1.4021  2.9625
  834MOL0     H12543  -0.750   5.312   5.419 -0.9539 -0.6421 -0.3658
  834MOL0     H12544  -0.845   5.138   5.576 -2.6418 -0.4542 -1.7151
  834MOL0     H12545  -0.961   5.259   5.545 -0.8380 -4.0255  0.0485
  834MOL0     H12546  -0.800   5.228   5.792 -2.1729 -1.6331  2.3560
  834MOL0     H12547  -0.966   5.203   5.780 -1.5785  2.2897  2.0528
  834MOL0     H12548  -0.845   5.473   5.763  0.6612 -0.1055  0.6820
  834MOL0     H12549  -0.925   5.415   5.908  0.2385  2.1213 -0.1593
  834MOL0     H12550  -1.061   5.276   5.952  1.1983 -3.7192 -1.8354
  834MOL0     H12551  -1.309   5.059   6.078 -1.3164  0.9673 -2.7841
  834MOL0     H12552  -1.159   5.136   6.122 -0.0554 -2.3620  1.1083
  834MOL0     H12553  -1.312   5.213   6.169 -2.8647  1.6240 -2.6280
  834MOL0     H12554  -1.885   5.296   5.955  0.9927  0.0813  0.6164
  834MOL0     H12555  -2.075   5.138   5.989  0.4408 -1.6452  1.6021
  834MOL0     H12556  -2.214   4.962   6.052  0.0531  1.4322 -0.8042
  834MOL0     H12557  -2.228   4.980   5.870 -0.0392  1.1711  0.1116
  834MOL0     H12558  -2.335   4.799   5.830 -0.3621  2.7872  0.3143
  834MOL0     H12559  -2.226   4.707   5.929  1.8740  1.5893  2.2743
  834MOL0     H12560  -2.468   4.856   6.021 -0.4385 -0.0572  0.4200
  834MOL0     H12561  -2.359   4.769   6.129  1.5283 -1.4645 -0.3224
  834MOL0     H12562  -2.533   4.647   5.905  0.0221  0.3170  0.2371
  834MOL0     H12563  -2.424   4.549   5.998 -1.1094 -0.8196 -1.4503
  834MOL0     H12564  -2.647   4.734   6.081  1.6049  1.1920 -1.1659
  834MOL0     H12565  -2.568   4.637   6.193 -2.5871  3.8313 -0.1443
  834MOL0     H12566  -2.700   4.496   5.969  0.5822 -1.4365 -0.6891
  834MOL0     H12567  -2.620   4.419   6.093  1.5750 -0.0554 -1.8215
  834MOL0     H12568  -2.856   4.608   6.130  2.2601  1.0972 -0.2992
  834MOL0     H12569  -2.779   4.535   6.272 -1.0301  0.8292  0.5520
  834MOL0     H12570  -2.935   4.377   6.071 -2.6793 -1.5915  1.6384
  834MOL0     H12571  -2.979   4.432   6.226  0.6976  2.3000  1.9347
  834MOL0     H12572  -1.840   4.819   5.842  0.6177 -0.9362  2.4484
  834MOL0     H12573  -1.648   4.981   5.784 -0.3564 -1.5559 -1.4611
  834MOL0     H12574  -1.496   5.353   5.735  1.5997 -0.9877 -1.1634
  834MOL0     H12575  -1.290   5.487   5.677 -3.5130  0.9735  0.6070
  834MOL0     H12576   0.603   4.847   5.256 -0.6596  0.7075 -0.0373
  834MOL0     H12577   0.717   4.653   5.264 -1.3274 -0.8777  0.1306
  834MOL0     H12578   0.836   4.179   5.271 -1.7040  2.4546  0.9255
  834MOL0     H12579   1.029   4.053   5.298 -2.8415  0.6062 -1.0631
  834MOL0     H12580   1.240   3.986   5.277  0.3661 -0.7610 -1.6545
  834MOL0     H12581   1.307   4.144   5.220  0.4834  0.0810 -0.5226
  834MOL0     H12582   1.464   3.943   5.228  1.1967  1.3796 -1.2883
  834MOL0     H12583   1.449   3.948   5.403  0.9599  0.2892  0.3777
  834MOL0     H12584   1.519   4.204   5.248 -1.6110  1.8317  1.1163
  834MOL0     H12585   1.645   4.086   5.288 -0.0300  0.0535 -1.5249
  834MOL0     H12586   1.625   4.122   5.521  0.4214 -0.1336 -0.2653
  834MOL0     H12587   1.489   4.235   5.500  0.6246  0.1793  0.5438
  834MOL0     H12588   1.812   4.473   5.391  0.3335  0.2041  1.4861
  834MOL0     H12589   1.212   4.349   5.543 -1.2916  0.6932  1.2531
  834MOL0     H12590   1.003   4.474   5.536 -0.0020 -0.7477  0.1204
  835MOL0     O12591   9.654   0.442   8.988 -0.4574  0.5196 -0.0613
  835MOL0     C12592   9.645   0.554   9.032 -0.1092 -0.9618 -0.1295
  835MOL0     O12593   9.528   0.631   9.026 -0.4445  0.1725  0.0612
  835MOL0     C12594   9.417   0.583   8.970  0.3662  0.8875  0.6834
  835MOL0     C12595   9.384   0.614   8.836 -0.4259  1.0778  0.1603
  835MOL0     C12596   9.269   0.562   8.773 -0.5977 -0.8616 -0.7376
  835MOL0     C12597   9.172   0.499   8.843 -0.6926  0.2641  0.2849
  835MOL0     O12598   9.055   0.467   8.783  0.1305 -0.4465  0.9409
  835MOL0     C12599   9.043   0.396   8.657  0.0210 -0.2655  0.0587
  835MOL0     C12600   8.995   0.505   8.559 -0.5493 -0.1515 -0.4345
  835MOL0     C12601   8.863   0.570   8.593  1.2352  0.3220  0.3944
  835MOL0     C12602   8.745   0.496   8.529 -0.1788 -0.1223  0.0645
  835MOL0     C12603   8.606   0.536   8.595 -0.6069 -0.2648  0.1134
  835MOL0     C12604   8.560   0.680   8.569  0.6810  1.3424  0.9130
  835MOL0     C12605   8.541   0.693   8.418 -0.3523 -0.1636  0.2225
  835MOL0     C12606   8.454   0.813   8.381  0.3248 -0.0201  0.0018
  835MOL0     N12607   8.324   0.793   8.439 -0.5396  0.4418  0.3062
  835MOL0     C12608   8.211   0.736   8.379 -0.1770  0.2125  0.3193
  835MOL0     C12609   8.122   0.722   8.480  0.2958  0.7253  0.1956
  835MOL0     C12610   7.993   0.647   8.464  0.3110 -0.6587  0.3537
  835MOL0     C12611   7.941   0.561   8.582 -0.5400 -0.1450 -0.5219
  835MOL0     C12612   7.805   0.623   8.645 -0.6002 -0.1464 -0.4841
  835MOL0     C12613   7.838   0.761   8.714  0.4977 -0.1795 -0.6034
  835MOL0     O12614   7.748   0.799   8.819 -0.7331 -0.6515  1.3113
  835MOL0     C12615   7.618   0.802   8.786  1.4211  0.0965 -0.7699
  835MOL0     C12616   7.549   0.812   8.663  0.0002 -0.9660 -0.1902
  835MOL0     C12617   7.400   0.832   8.652 -0.3508 -0.3030  0.6039
  835MOL0     C12618   7.338   0.871   8.520  0.2426 -0.5544  0.4447
  835MOL0     C12619   7.322   0.832   8.766  0.0974 -0.5380 -0.3619
  835MOL0     C12620   7.174   0.865   8.761  0.2702 -0.4560 -0.0858
  835MOL0     O12621   7.149   0.997   8.751  1.1791  0.5078  0.4893
  835MOL0     C12622   7.022   1.055   8.767  0.1273  0.4649  0.7780
  835MOL0     C12623   6.965   1.117   8.656 -0.3280 -1.1333 -0.1541
  835MOL0     C12624   6.842   1.180   8.651 -0.6965 -0.0188 -0.2998
  835MOL0     C12625   6.779   1.203   8.778  0.7304 -0.4345 -0.1715
  835MOL0     O12626   6.660   1.267   8.790  0.6361  0.1577 -0.1979
  835MOL0     C12627   6.548   1.181   8.802  0.5828  0.1656  0.4134
  835MOL0     C12628   6.422   1.259   8.818 -0.1919 -0.1592 -0.4907
  835MOL0     C12629   6.316   1.162   8.870 -0.3504  0.4047 -0.3654
  835MOL0     C12630   6.191   1.243   8.887 -0.2022 -0.0119  0.3429
  835MOL0     C12631   6.075   1.141   8.907  0.3278  0.9026 -0.5958
  835MOL0     C12632   5.942   1.212   8.940  0.3530  0.7774 -0.3253
  835MOL0     C12633   5.892   1.314   8.830 -0.6449  0.0281  0.5970
  835MOL0     C12634   5.862   1.245   8.698 -1.2085  0.3091 -0.8208
  835MOL0    Cl12635   5.938   1.346   8.575 -0.0065 -0.5631  0.3703
  835MOL0     C12636   6.840   1.150   8.895  0.0778 -0.3823  0.5519
  835MOL0     C12637   6.964   1.086   8.886 -0.5346 -0.2259  0.0756
  835MOL0     O12638   7.094   0.772   8.767  0.1694  0.4056 -0.3110
  835MOL0     C12639   7.388   0.804   8.891 -1.1065 -0.2169  0.7378
  835MOL0     C12640   7.531   0.795   8.893  0.3344  0.4954 -0.0118
  835MOL0     N12641   8.170   0.795   8.588 -0.6849  0.8950 -0.6564
  835MOL0     N12642   8.298   0.825   8.571  1.1878 -0.7452 -0.1997
  835MOL0     C12643   9.189   0.479   8.981 -0.6475 -0.7944 -0.1903
  835MOL0     C12644   9.322   0.512   9.039 -0.3556 -0.3303  0.6929
  835MOL0     C12645   9.767   0.618   9.099 -0.6178 -0.4558  0.1233
  835MOL0     C12646   9.748   0.747   9.164 -0.6839  0.8386 -0.0372
  835MOL0     C12647   9.855   0.795   9.242 -1.0580 -0.0994  0.1011
  835MOL0     C12648   9.968   0.719   9.265  0.1269  0.2478 -0.0946
  835MOL0     O12649  10.083   0.768   9.339  0.1805  0.0461  0.2593
  835MOL0     C12650  10.066   0.876   9.437  0.0953  0.6439 -0.2700
  835MOL0     C12651  10.202   0.907   9.503 -0.3911  0.6133 -0.4907
  835MOL0     C12652  10.313   0.866   9.402  0.2019 -0.2686 -0.2259
  835MOL0     C12653  10.450   0.909   9.470 -0.2373  0.9059  0.2459
  835MOL0     C12654  10.569   0.898   9.391  0.3739  0.1984  0.3312
  835MOL0     C12655  10.669   0.892   9.318 -0.0834  0.2540 -0.8109
  835MOL0     C12656   9.979   0.601   9.202  0.4868 -0.5615  1.1735
  835MOL0     C12657   9.885   0.546   9.108 -0.5506 -0.2316 -0.4728
  835MOL0     H12658   9.453   0.674   8.778 -1.3580  0.4188 -1.7197
  835MOL0     H12659   9.251   0.589   8.670  2.5790 -0.5328 -1.3207
  835MOL0     H12660   9.144   0.361   8.634 -0.1123  0.2042 -1.2940
  835MOL0     H12661   8.981   0.306   8.666 -0.8159  0.4151  1.4221
  835MOL0     H12662   9.073   0.581   8.564 -0.4615 -0.3240  1.9502
  835MOL0     H12663   8.999   0.473   8.454  3.7297 -0.5698 -0.3168
  835MOL0     H12664   8.844   0.582   8.700  4.0699  1.6932  0.8364
  835MOL0     H12665   8.849   0.669   8.549  1.0882  0.7126  1.2987
  835MOL0     H12666   8.744   0.524   8.423 -0.3257  1.4726  0.4688
  835MOL0     H12667   8.766   0.389   8.532  0.3687 -0.0756 -1.3066
  835MOL0     H12668   8.532   0.465   8.555 -2.4262  0.2053  2.4504
  835MOL0     H12669   8.611   0.517   8.702 -1.2623  1.2329  0.4319
  835MOL0     H12670   8.465   0.674   8.624  0.7551 -0.2564  0.9091
  835MOL0     H12671   8.624   0.755   8.615 -0.4955  2.3026  1.0383
  835MOL0     H12672   8.631   0.726   8.366 -1.0028  2.3133  0.5448
  835MOL0     H12673   8.489   0.607   8.375 -1.3611  0.2970  0.4931
  835MOL0     H12674   8.438   0.831   8.275 -4.0510 -2.5552 -0.0293
  835MOL0     H12675   8.492   0.902   8.432 -1.0380 -0.2205  1.4722
  835MOL0     H12676   8.209   0.692   8.280  0.8043 -0.6548  0.6654
  835MOL0     H12677   7.921   0.726   8.439 -1.0534 -2.3356 -1.3181
  835MOL0     H12678   7.997   0.579   8.378 -2.3006 -0.7672  0.2251
  835MOL0     H12679   8.014   0.560   8.662 -2.9223 -1.8014  1.8096
  835MOL0     H12680   7.932   0.454   8.561  1.0067  0.0204 -2.2387
  835MOL0     H12681   7.744   0.555   8.705  1.1935 -0.2587  1.3395
  835MOL0     H12682   7.736   0.637   8.561 -1.7266 -1.1536  0.2319
  835MOL0     H12683   7.831   0.834   8.633 -0.9470 -0.1212 -0.4535
  835MOL0     H12684   7.935   0.769   8.764 -1.2215 -0.7146  3.2336
  835MOL0     H12685   7.599   0.832   8.568 -2.2935  0.0962 -1.2516
  835MOL0     H12686   7.332   0.981   8.518 -0.6492 -0.2302  5.7751
  835MOL0     H12687   7.380   0.834   8.426 -2.0254 -1.2958 -0.3669
  835MOL0     H12688   7.235   0.835   8.508 -0.0695 -0.2614  2.0132
  835MOL0     H12689   7.035   1.114   8.573  0.8202  2.8559  0.4449
  835MOL0     H12690   6.811   1.225   8.557  0.3426 -0.4514 -0.8663
  835MOL0     H12691   6.543   1.126   8.708 -0.0622  2.8363 -1.2021
  835MOL0     H12692   6.555   1.108   8.884 -3.7766 -2.3520 -1.0811
  835MOL0     H12693   6.436   1.340   8.890  2.4089 -0.5593 -0.4500
  835MOL0     H12694   6.400   1.296   8.717 -0.8403  1.7743  0.3155
  835MOL0     H12695   6.343   1.120   8.968 -3.0988  0.5554  0.5476
  835MOL0     H12696   6.308   1.082   8.797  2.7213  0.9421 -1.4014
  835MOL0     H12697   6.193   1.323   8.962  0.0761 -1.5428  2.0290
  835MOL0     H12698   6.164   1.295   8.794 -4.5069 -2.8289 -0.2768
  835MOL0     H12699   6.082   1.082   8.999 -1.0842 -0.4082 -1.2813
  835MOL0     H12700   6.068   1.072   8.822  0.7770 -2.2623  1.7483
  835MOL0     H12701   5.857   1.145   8.956 -1.1330  1.7971 -3.1858
  835MOL0     H12702   5.948   1.276   9.028 -0.3750  1.1406 -0.5316
  835MOL0     H12703   5.978   1.379   8.808 -0.3237 -0.3026  0.8473
  835MOL0     H12704   5.811   1.375   8.868  1.7058  2.4435  2.0792
  835MOL0     H12705   5.754   1.233   8.683 -1.7442  4.0062 -0.9205
  835MOL0     H12706   5.897   1.141   8.694 -0.9900  0.4293 -2.2625
  835MOL0     H12707   6.776   1.163   8.982 -0.7465 -0.7635  0.0126
  835MOL0     H12708   7.012   1.033   8.968  0.8328  1.9750  0.7960
  835MOL0     H12709   7.340   0.814   8.988  0.9607  2.4090  1.6022
  835MOL0     H12710   7.580   0.790   8.989 -1.3367 -1.8949  0.8119
  835MOL0     H12711   9.109   0.442   9.044 -1.4234  1.4419  0.2527
  835MOL0     H12712   9.347   0.478   9.138  1.6534 -0.2540  0.2649
  835MOL0     H12713   9.660   0.806   9.141 -1.3879 -0.1674  0.0366
  835MOL0     H12714   9.857   0.898   9.278 -1.6403  1.1954 -3.1766
  835MOL0     H12715  10.029   0.964   9.384  0.6506  0.2361 -1.3469
  835MOL0     H12716   9.994   0.826   9.503 -0.5285 -2.9607 -3.3148
  835MOL0     H12717  10.221   0.852   9.596 -2.4237 -1.1656 -1.0438
  835MOL0     H12718  10.198   1.012   9.530  1.2605  0.9704 -1.4582
  835MOL0     H12719  10.298   0.918   9.306  1.0983  1.1452  0.3568
  835MOL0     H12720  10.309   0.758   9.386 -0.2515 -0.3108  0.1439
  835MOL0     H12721  10.456   0.843   9.557 -1.0679 -1.7560 -1.5868
  835MOL0     H12722  10.447   1.012   9.507 -2.8206  0.2012  2.3016
  835MOL0     H12723  10.756   0.884   9.256  0.6663  2.2007 -0.1079
  835MOL0     H12724  10.077   0.555   9.201  0.7830 -0.2485 -3.3183
  835MOL0     H12725   9.905   0.445   9.075 -0.4323 -1.2877  2.4998
  836MOL0     O12726   4.978   8.545  10.364  1.2015 -0.6304  0.0132
  836MOL0     C12727   4.943   8.566  10.248  0.2256 -0.0142  0.6732
  836MOL0     O12728   4.836   8.640  10.210  0.0210  0.1779 -0.0120
  836MOL0     C12729   4.744   8.684  10.299 -0.1335  0.1096 -0.3411
  836MOL0     C12730   4.661   8.590  10.354 -0.7343 -0.4248  0.4001
  836MOL0     C12731   4.542   8.622  10.422 -0.1564 -0.5026 -0.1046
  836MOL0     C12732   4.527   8.755  10.460  0.1425  0.0709  0.4779
  836MOL0     O12733   4.409   8.785  10.522  0.0645 -0.6843  0.1331
  836MOL0     C12734   4.415   8.909  10.593  0.7252 -0.2629 -0.6444
  836MOL0     C12735   4.302   8.910  10.706 -0.2200  0.1515 -0.1914
  836MOL0     C12736   4.152   8.953  10.673 -0.8130  0.6907  0.2657
  836MOL0     C12737   4.146   9.088  10.615 -0.4836  0.3550  0.4021
  836MOL0     C12738   4.010   9.156  10.649  0.6222  0.8496  0.6765
  836MOL0     C12739   4.013   9.306  10.622  0.4804 -0.2690 -0.4072
  836MOL0     C12740   3.889   9.384  10.674 -1.3278 -1.0265  0.0387
  836MOL0     C12741   3.879   9.523  10.608 -0.6063 -0.6644  1.0537
  836MOL0     N12742   3.749   9.591  10.641 -0.7348 -0.0126 -0.2059
  836MOL0     C12743   3.733   9.702  10.718  0.0784 -0.1454  0.3961
  836MOL0     C12744   3.600   9.725  10.725 -0.4897  0.2426  0.1974
  836MOL0     C12745   3.522   9.839  10.799  0.6215  0.3477 -0.9106
  836MOL0     C12746   3.458   9.940  10.700 -0.3190  0.8755 -0.1312
  836MOL0     C12747   3.328   9.885  10.635  0.2702 -0.4705 -1.0883
  836MOL0     C12748   3.269  10.007  10.553 -0.9950  0.9349 -1.0915
  836MOL0     O12749   3.150  10.043  10.626 -0.1026 -0.1380 -0.6726
  836MOL0     C12750   3.080  10.163  10.601 -0.0874  0.3003 -0.1695
  836MOL0     C12751   2.948  10.162  10.638  0.0264 -0.0102  0.5663
  836MOL0     C12752   2.864  10.282  10.608 -0.8413  0.4213  0.5124
  836MOL0     C12753   2.718  10.267  10.622 -0.3039  0.1325  0.1478
  836MOL0     C12754   2.923  10.401  10.563 -0.7270 -1.7246 -0.0928
  836MOL0     C12755   2.843  10.533  10.545  0.5548  0.0428 -0.5268
  836MOL0     O12756   2.709  10.526  10.575  0.6124  0.1125 -0.6074
  836MOL0     C12757   2.647  10.651  10.595 -0.3696 -0.0424  1.1749
  836MOL0     C12758   2.666  10.729  10.707  0.4764 -0.0851 -0.2367
  836MOL0     C12759   2.600  10.861  10.714  0.4561  1.3431  0.0625
  836MOL0     C12760   2.522  10.902  10.610 -0.1418  0.6755  0.2697
  836MOL0     O12761   2.473  11.032  10.590 -1.0895 -0.0120  0.2775
  836MOL0     C12762   2.491  11.122  10.692 -1.2911  0.6351  1.0745
  836MOL0     C12763   2.425  11.253  10.639  0.7592  0.2980  0.3613
  836MOL0     C12764   2.444  11.380  10.722  0.1084 -0.4450  0.2438
  836MOL0     C12765   2.414  11.511  10.649  0.0844 -0.8758 -0.7350
  836MOL0     C12766   2.446  11.638  10.732 -0.1279  0.6040 -0.5029
  836MOL0     C12767   2.392  11.764  10.668 -0.6951 -0.1371 -0.4132
  836MOL0     C12768   2.419  11.886  10.747  0.4544 -0.6460  0.3649
  836MOL0     C12769   2.335  12.011  10.698  0.4230 -0.4422 -1.2624
  836MOL0    Cl12770   2.155  12.003  10.712 -0.1695 -0.1854 -0.5141
  836MOL0     C12771   2.496  10.820  10.495  0.7315  0.2315 -0.8464
  836MOL0     C12772   2.563  10.695  10.488 -0.1239  0.6229  0.1500
  836MOL0     O12773   2.905  10.629  10.507 -0.2522  0.1661 -0.1974
  836MOL0     C12774   3.062  10.394  10.540  0.2335 -0.1937  0.6805
  836MOL0     C12775   3.142  10.276  10.555  0.2803 -0.3460 -0.6072
  836MOL0     N12776   3.537   9.618  10.666 -1.0275  0.5232 -0.5773
  836MOL0     N12777   3.625   9.536  10.617 -1.4214 -0.3079  0.4195
  836MOL0     C12778   4.612   8.859  10.398 -0.3229  0.6295  0.1747
  836MOL0     C12779   4.719   8.816  10.322  0.1081 -0.3320  0.6419
  836MOL0     C12780   5.024   8.511  10.134  1.1318  0.0201 -0.1599
  836MOL0     C12781   5.143   8.446  10.158  0.4132  0.3780  0.3228
  836MOL0     C12782   5.218   8.400  10.046 -0.2190  0.0515 -0.3612
  836MOL0     C12783   5.186   8.421   9.913 -0.0280 -1.0734  0.1144
  836MOL0     O12784   5.274   8.386   9.812  0.4925 -0.3728 -0.9966
  836MOL0     C12785   5.317   8.481   9.727  0.3132 -0.3115 -0.0251
  836MOL0     C12786   5.411   8.590   9.789 -0.1709  0.0019 -0.5855
  836MOL0     C12787   5.528   8.527   9.882 -0.3187 -0.4911 -0.0336
  836MOL0     C12788   5.667   8.523   9.801  0.2818  0.7591  0.3893
  836MOL0     C12789   5.779   8.457   9.873 -0.1396  0.5262  0.4866
  836MOL0     C12790   5.871   8.404   9.935  0.2406 -0.3871  0.0542
  836MOL0     C12791   5.069   8.490   9.885 -0.2803  0.0606 -0.6351
  836MOL0     C12792   4.991   8.527   9.998 -0.3390  0.2826 -0.5239
  836MOL0     H12793   4.674   8.484  10.334 -2.2533 -0.3927 -1.0256
  836MOL0     H12794   4.474   8.550  10.467 -1.2726 -0.1957 -1.2310
  836MOL0     H12795   4.509   8.924  10.646  1.0803  2.9176 -2.0109
  836MOL0     H12796   4.406   8.998  10.530 -3.0874  0.5846  0.7885
  836MOL0     H12797   4.303   8.812  10.754  0.3131  0.6384  0.8116
  836MOL0     H12798   4.344   8.989  10.768 -1.2550  0.8158 -0.3220
  836MOL0     H12799   4.107   8.877  10.609 -0.9624 -1.5361  2.7999
  836MOL0     H12800   4.100   8.947  10.769 -0.5964  0.4139  0.3686
  836MOL0     H12801   4.224   9.151  10.658 -0.0016 -0.5917  0.9445
  836MOL0     H12802   4.156   9.077  10.507 -3.0567  1.4527 -0.0240
  836MOL0     H12803   3.923   9.111  10.599 -0.2674  3.0418  0.1554
  836MOL0     H12804   3.996   9.148  10.757  1.7727  0.9016  0.8390
  836MOL0     H12805   4.097   9.362  10.663 -1.1943  2.7892 -0.8372
  836MOL0     H12806   4.012   9.308  10.513  3.4535 -3.4520 -0.6621
  836MOL0     H12807   3.803   9.322  10.648 -1.5850 -0.3387 -0.7532
  836MOL0     H12808   3.878   9.395  10.783 -1.6274  0.3690 -0.1210
  836MOL0     H12809   3.885   9.521  10.498 -0.1978  1.2866  1.0072
  836MOL0     H12810   3.960   9.585  10.647 -3.9652  2.2502  4.0292
  836MOL0     H12811   3.812   9.772  10.742 -0.1396  0.0761  0.4720
  836MOL0     H12812   3.448   9.795  10.867  1.4186  1.0372  0.4416
  836MOL0     H12813   3.594   9.886  10.866 -1.9556  0.1184  2.2602
  836MOL0     H12814   3.533   9.959  10.623  0.0337 -1.3664 -0.4033
  836MOL0     H12815   3.432  10.025  10.764 -0.9755 -1.9938  3.8470
  836MOL0     H12816   3.260   9.859  10.717 -1.4519  0.0157 -2.2991
  836MOL0     H12817   3.342   9.794  10.575  2.1088 -0.7884 -0.2467
  836MOL0     H12818   3.242   9.978  10.451 -0.6894 -0.7278 -0.7336
  836MOL0     H12819   3.347  10.083  10.542 -0.8628  1.1465  1.0211
  836MOL0     H12820   2.895  10.073  10.669  1.5431 -2.2121 -2.6045
  836MOL0     H12821   2.681  10.323  10.708 -2.0474  0.7984 -0.9814
  836MOL0     H12822   2.658  10.291  10.534 -0.0893  0.5533  0.1142
  836MOL0     H12823   2.703  10.162  10.649  1.0896 -0.7264 -2.0980
  836MOL0     H12824   2.724  10.706  10.796 -2.2323  1.4822  2.1198
  836MOL0     H12825   2.620  10.929  10.797  1.3732  0.6362  0.4339
  836MOL0     H12826   2.446  11.087  10.786 -1.3449 -0.9379  0.4839
  836MOL0     H12827   2.598  11.137  10.711 -0.6084 -1.1891 -0.9866
  836MOL0     H12828   2.476  11.270  10.543  0.7779  0.0165  0.3189
  836MOL0     H12829   2.329  11.216  10.602  3.1061 -2.3372 -4.1011
  836MOL0     H12830   2.549  11.383  10.751  0.8352 -0.0832 -2.1951
  836MOL0     H12831   2.383  11.373  10.813 -0.4656  1.5239  0.0678
  836MOL0     H12832   2.469  11.515  10.555  1.3128  1.2952 -0.0138
  836MOL0     H12833   2.307  11.502  10.626  0.1104  0.5408 -1.5106
  836MOL0     H12834   2.555  11.647  10.744 -0.0744 -1.2860  1.0116
  836MOL0     H12835   2.402  11.625  10.831  0.2703 -1.5164 -0.5408
  836MOL0     H12836   2.450  11.778  10.577  0.8714  3.0452  0.9010
  836MOL0     H12837   2.286  11.758  10.642 -1.3771  1.7943  1.5285
  836MOL0     H12838   2.524  11.909  10.727 -0.3920  1.0405 -2.7528
  836MOL0     H12839   2.403  11.875  10.855  3.3858  3.8764  1.5088
  836MOL0     H12840   2.358  12.030  10.593  0.2152 -2.2871 -1.6761
  836MOL0     H12841   2.364  12.100  10.756 -1.1354 -0.6266 -0.1454
  836MOL0     H12842   2.435  10.861  10.415  1.1964  0.7966 -0.9157
  836MOL0     H12843   2.553  10.644  10.392 -1.4928  1.4937 -0.1896
  836MOL0     H12844   3.096  10.491  10.505 -0.1020 -0.2824  0.1074
  836MOL0     H12845   3.247  10.284  10.527 -0.4040  1.9466 -3.0004
  836MOL0     H12846   4.595   8.966  10.399  0.1644  0.7044  0.6103
  836MOL0     H12847   4.760   8.905  10.276  1.4739 -2.1719 -1.9904
  836MOL0     H12848   5.183   8.430  10.258 -3.0751 -0.4793  1.7585
  836MOL0     H12849   5.310   8.348  10.070  0.4827  0.7178 -1.4772
  836MOL0     H12850   5.381   8.428   9.657  0.0581 -2.2058  1.1043
  836MOL0     H12851   5.229   8.525   9.679 -1.5861 -1.2421  2.3893
  836MOL0     H12852   5.346   8.666   9.834 -0.9940  0.2532 -2.1315
  836MOL0     H12853   5.460   8.637   9.703 -1.8294  2.2568 -0.3890
  836MOL0     H12854   5.490   8.430   9.914 -0.2984 -0.1767  0.9836
  836MOL0     H12855   5.545   8.591   9.969  1.4473  0.2884 -0.8872
  836MOL0     H12856   5.695   8.618   9.753 -0.1146 -1.2024 -4.2042
  836MOL0     H12857   5.644   8.458   9.717  1.5035 -1.7777  1.9005
  836MOL0     H12858   5.958   8.355   9.974 -0.9514 -1.4078  1.5364
  836MOL0     H12859   5.060   8.508   9.779  0.8734  4.0042 -0.2278
  836MOL0     H12860   4.908   8.583   9.955 -0.8581 -0.9048 -1.1365
  837MOL0     O12861   8.790   9.240   3.910 -0.0392  0.3373  0.3514
  837MOL0     C12862   8.693   9.261   3.838  0.7434 -0.6017 -0.2001
  837MOL0     O12863   8.559   9.284   3.882 -0.3959  0.1001 -0.1380
  837MOL0     C12864   8.534   9.262   4.015  0.9373 -0.2468  0.4434
  837MOL0     C12865   8.527   9.131   4.073  0.1078  0.6139  0.4786
  837MOL0     C12866   8.488   9.112   4.203 -0.5266  0.0416 -0.0527
  837MOL0     C12867   8.478   9.221   4.289 -0.1298  0.4072 -0.2751
  837MOL0     O12868   8.457   9.215   4.424 -0.4334 -0.6791 -0.3778
  837MOL0     C12869   8.382   9.110   4.477  0.2933 -0.3311 -0.2031
  837MOL0     C12870   8.258   9.193   4.516 -0.4313 -0.6974  0.4365
  837MOL0     C12871   8.134   9.114   4.551 -0.0550  0.2775 -0.2473
  837MOL0     C12872   8.127   9.067   4.693  0.2934 -0.4733 -0.6289
  837MOL0     C12873   8.106   9.172   4.799 -0.5167  0.4838 -0.5306
  837MOL0     C12874   8.135   9.110   4.942  0.1567 -0.4348  0.2817
  837MOL0     C12875   8.281   9.074   4.973 -0.0989  0.8925 -0.6689
  837MOL0     C12876   8.296   9.042   5.123 -0.0356  0.5842  0.5759
  837MOL0     N12877   8.223   8.932   5.178 -0.0950  0.2442 -0.3845
  837MOL0     C12878   8.208   8.813   5.118 -1.0163  0.3081  0.2531
  837MOL0     C12879   8.138   8.729   5.195 -0.5223  0.5524 -0.1411
  837MOL0     C12880   8.095   8.593   5.154  0.2951  0.3016  0.3213
  837MOL0     C12881   7.990   8.548   5.258  0.2869 -0.5735 -0.0208
  837MOL0     C12882   7.911   8.427   5.209  0.5426  0.1334  0.3813
  837MOL0     C12883   7.811   8.390   5.321  0.2136  0.0375  0.4205
  837MOL0     O12884   7.743   8.271   5.275 -0.3368 -0.2436  0.0608
  837MOL0     C12885   7.602   8.279   5.244 -0.4494 -0.4721 -0.1388
  837MOL0     C12886   7.538   8.395   5.202  0.9768  0.1012 -0.3177
  837MOL0     C12887   7.394   8.393   5.181 -1.0264  0.4197  0.8799
  837MOL0     C12888   7.350   8.520   5.107 -0.4539  0.7803  0.4781
  837MOL0     C12889   7.311   8.283   5.208  0.0762  0.0258 -0.3033
  837MOL0     C12890   7.161   8.283   5.207  0.1510 -0.6303  0.6297
  837MOL0     O12891   7.099   8.159   5.205  0.2084  0.0751 -0.9628
  837MOL0     C12892   6.974   8.148   5.249  0.6018 -0.5854  0.5547
  837MOL0     C12893   6.897   8.044   5.199  0.8403  0.4220  0.1623
  837MOL0     C12894   6.771   8.017   5.253  1.1921 -0.4758  0.5110
  837MOL0     C12895   6.704   8.088   5.353  0.0625 -0.0719  0.4223
  837MOL0     O12896   6.568   8.060   5.375 -0.5001 -0.0172 -0.0063
  837MOL0     C12897   6.512   8.116   5.496 -0.2256  0.2477 -0.9980
  837MOL0     C12898   6.398   8.016   5.544 -0.5169  0.4285 -0.4182
  837MOL0     C12899   6.363   8.060   5.690 -0.6640 -0.4100 -0.5428
  837MOL0     C12900   6.216   8.045   5.706  0.0993 -0.3143 -0.6167
  837MOL0     C12901   6.179   8.093   5.846  0.4572 -0.3351  0.0202
  837MOL0     C12902   6.229   7.992   5.947 -0.2210 -0.3914 -0.0853
  837MOL0     C12903   6.206   8.031   6.084  0.2981  0.2560 -0.1083
  837MOL0     C12904   6.141   7.916   6.165  0.0181  0.1999 -0.2377
  837MOL0    Cl12905   6.248   7.778   6.187 -0.2246  0.2387  0.1000
  837MOL0     C12906   6.784   8.199   5.401 -0.2287 -0.6437 -0.0849
  837MOL0     C12907   6.918   8.224   5.356 -1.7870  0.2330  0.6262
  837MOL0     O12908   7.104   8.387   5.206 -0.0958 -0.3490 -0.5037
  837MOL0     C12909   7.383   8.166   5.234 -0.3241  0.4199  0.4390
  837MOL0     C12910   7.521   8.160   5.247 -0.3100 -0.4559  1.0083
  837MOL0     N12911   8.106   8.800   5.303  0.0169 -0.4920 -0.4604
  837MOL0     N12912   8.161   8.925   5.287  0.5590  0.3716  0.2152
  837MOL0     C12913   8.511   9.348   4.244  0.0008  0.0596  0.3066
  837MOL0     C12914   8.523   9.368   4.106 -0.2033 -0.1546 -0.0775
  837MOL0     C12915   8.715   9.288   3.695  0.4206 -0.0850 -0.7167
  837MOL0     C12916   8.613   9.335   3.607  0.2150  0.0084 -0.7527
  837MOL0     C12917   8.647   9.365   3.479  0.0700 -0.9226 -0.5304
  837MOL0     C12918   8.780   9.363   3.432  0.1454 -0.3730 -1.0793
  837MOL0     O12919   8.829   9.389   3.309  0.6526  0.0611  0.0457
  837MOL0     C12920   8.746   9.339   3.200 -0.6505 -0.5832  0.3438
  837MOL0     C12921   8.805   9.351   3.061 -0.9941 -0.0495  0.5703
  837MOL0     C12922   8.919   9.249   3.040 -0.5216 -0.3373  0.6214
  837MOL0     C12923   8.949   9.257   2.894 -0.4768  0.9958  0.0313
  837MOL0     C12924   8.858   9.167   2.822  0.2759 -0.0691  0.4288
  837MOL0     C12925   8.777   9.084   2.770 -0.2385 -1.0446 -0.2894
  837MOL0     C12926   8.878   9.311   3.520 -0.3591  0.3860  0.0242
  837MOL0     C12927   8.841   9.278   3.646 -0.0469 -0.5516 -0.4700
  837MOL0     H12928   8.533   9.056   3.995 -0.8118  0.8246  0.1920
  837MOL0     H12929   8.484   9.008   4.234  2.9644  0.7035  3.4101
  837MOL0     H12930   8.357   9.034   4.402  1.8160 -1.9412  0.8408
  837MOL0     H12931   8.440   9.072   4.561  1.8472  0.0288 -1.0596
  837MOL0     H12932   8.286   9.265   4.593  0.1156 -0.7881  0.3274
  837MOL0     H12933   8.224   9.249   4.428  0.0869 -2.3384 -0.8600
  837MOL0     H12934   8.049   9.181   4.531  0.4174  1.1101  0.4141
  837MOL0     H12935   8.126   9.032   4.480 -0.7894 -1.2013  1.4509
  837MOL0     H12936   8.039   9.006   4.716 -0.9029  1.8511  1.4164
  837MOL0     H12937   8.213   9.004   4.719 -1.0378 -1.4390  1.7096
  837MOL0     H12938   8.187   9.245   4.790  1.1526 -1.4327 -1.8052
  837MOL0     H12939   8.011   9.226   4.794 -1.1215  0.3586  4.3253
  837MOL0     H12940   8.116   9.182   5.022 -0.5265  1.2557 -1.3268
  837MOL0     H12941   8.076   9.019   4.950 -0.9945  0.3907  1.6065
  837MOL0     H12942   8.318   8.985   4.920 -0.0029  0.4552  0.1144
  837MOL0     H12943   8.341   9.162   4.949  1.9244  0.5701  2.7103
  837MOL0     H12944   8.267   9.128   5.184 -2.3897 -1.1969  2.1303
  837MOL0     H12945   8.405   9.028   5.130 -0.2661 -1.5319  0.5335
  837MOL0     H12946   8.247   8.783   5.021 -1.6604 -1.7179  0.5669
  837MOL0     H12947   8.042   8.603   5.059 -1.4501 -1.2644  1.0699
  837MOL0     H12948   8.172   8.516   5.143 -0.2323 -0.1560 -0.2786
  837MOL0     H12949   7.922   8.630   5.283 -0.9794 -2.0006  1.4153
  837MOL0     H12950   8.042   8.537   5.354 -3.2920  1.2486  2.3576
  837MOL0     H12951   7.976   8.339   5.203  0.5722  0.0140  2.1004
  837MOL0     H12952   7.873   8.438   5.107  0.3150 -0.1712  0.4318
  837MOL0     H12953   7.749   8.473   5.356  1.2253  1.8848 -1.8552
  837MOL0     H12954   7.871   8.356   5.406 -0.3035  0.7407  1.0766
  837MOL0     H12955   7.594   8.486   5.183  0.4858  0.4610 -0.0513
  837MOL0     H12956   7.347   8.591   5.190  1.0170  0.2704  1.0096
  837MOL0     H12957   7.423   8.557   5.034  0.6377 -1.4937  0.3255
  837MOL0     H12958   7.256   8.510   5.052 -0.4259 -0.2721  0.5951
  837MOL0     H12959   6.935   7.981   5.120  1.6091  0.9941  0.0689
  837MOL0     H12960   6.709   7.944   5.201 -1.1704  0.5513  1.7237
  837MOL0     H12961   6.585   8.119   5.578 -3.2430 -2.3267  2.1265
  837MOL0     H12962   6.462   8.213   5.487 -1.1807 -0.1141  0.0939
  837MOL0     H12963   6.324   8.027   5.465  1.4591  3.1692 -2.1104
  837MOL0     H12964   6.431   7.912   5.535 -1.6032  0.1894 -2.0351
  837MOL0     H12965   6.376   8.168   5.693 -0.9660 -0.3922  1.2453
  837MOL0     H12966   6.437   8.009   5.752  4.2916  4.3638 -1.8063
  837MOL0     H12967   6.168   8.105   5.629  0.6446  0.8151 -0.1129
  837MOL0     H12968   6.177   7.944   5.693  0.8890 -1.4815  4.0752
  837MOL0     H12969   6.074   8.120   5.857  0.3799 -1.4262  2.8049
  837MOL0     H12970   6.240   8.182   5.864 -0.5825  0.9361 -2.3850
  837MOL0     H12971   6.179   7.896   5.926 -0.5042 -0.2403 -0.1166
  837MOL0     H12972   6.336   7.973   5.941 -0.5878 -2.7196 -0.6520
  837MOL0     H12973   6.136   8.114   6.089  0.1880  0.0947  3.7531
  837MOL0     H12974   6.295   8.069   6.135  0.2766 -1.6688  1.4712
  837MOL0     H12975   6.050   7.875   6.120 -0.0309 -1.2361  1.0727
  837MOL0     H12976   6.112   7.959   6.262  1.5866  0.9260 -0.0581
  837MOL0     H12977   6.747   8.277   5.467  0.3829 -1.2319  0.9916
  837MOL0     H12978   6.972   8.304   5.406 -1.3816  0.1218  0.3754
  837MOL0     H12979   7.338   8.067   5.231  2.0775 -0.7345 -1.9397
  837MOL0     H12980   7.566   8.063   5.266 -1.1567 -0.8592  1.0027
  837MOL0     H12981   8.512   9.429   4.315 -0.4808 -1.0624  1.6288
  837MOL0     H12982   8.534   9.470   4.072  3.3967 -0.7528 -1.1310
  837MOL0     H12983   8.514   9.333   3.653  1.6017  0.0787  2.4709
  837MOL0     H12984   8.569   9.392   3.408  0.1311 -2.1874 -1.0993
  837MOL0     H12985   8.713   9.235   3.207 -0.5352 -0.7471 -1.2474
  837MOL0     H12986   8.657   9.403   3.206 -0.3108 -0.1623  1.0250
  837MOL0     H12987   8.842   9.451   3.040 -0.4973 -0.5347 -1.0344
  837MOL0     H12988   8.720   9.321   2.998 -1.7658 -0.5558  1.8173
  837MOL0     H12989   8.898   9.148   3.076 -3.5474 -0.4985 -1.2316
  837MOL0     H12990   9.001   9.285   3.103 -1.2417 -0.3021  1.5746
  837MOL0     H12991   9.047   9.211   2.880 -0.9627  0.3340 -1.4382
  837MOL0     H12992   8.953   9.355   2.845 -1.5218  0.7521 -0.5790
  837MOL0     H12993   8.720   9.016   2.710  1.3276 -1.8351 -0.9414
  837MOL0     H12994   8.978   9.304   3.478 -0.2167 -2.9724  0.6597
  837MOL0     H12995   8.923   9.244   3.709  0.2695 -0.6893 -0.9504
  838MOL0     O12996   1.726  10.726   1.240 -0.5437 -0.2304  0.1264
  838MOL0     C12997   1.811  10.685   1.322  0.2310  0.8245 -0.4136
  838MOL0     O12998   1.850  10.752   1.428 -0.2836 -0.0878 -0.8829
  838MOL0     C12999   1.847  10.892   1.422  0.5690 -0.1584 -0.0395
  838MOL0     C13000   1.737  10.960   1.489 -0.3165 -0.3116  0.1470
  838MOL0     C13001   1.733  11.098   1.490 -0.3266 -0.1347  0.3363
  838MOL0     C13002   1.838  11.178   1.426  0.5391  0.7297 -0.0556
  838MOL0     O13003   1.837  11.316   1.419 -0.4459 -0.4446 -0.4692
  838MOL0     C13004   1.718  11.392   1.430 -0.3598 -0.2268  0.4172
  838MOL0     C13005   1.732  11.535   1.370  0.3786 -0.4600  0.2208
  838MOL0     C13006   1.608  11.614   1.368 -0.0039  0.1375  0.2412
  838MOL0     C13007   1.544  11.629   1.502  0.0430  0.1299 -1.5362
  838MOL0     C13008   1.445  11.752   1.489  0.2078  0.4626 -1.3337
  838MOL0     C13009   1.349  11.760   1.612  0.2011  0.3706 -1.1413
  838MOL0     C13010   1.255  11.880   1.600  0.0712  0.5767  0.3548
  838MOL0     C13011   1.149  11.868   1.707 -0.3702 -0.3794 -0.3160
  838MOL0     N13012   1.090  11.998   1.720 -0.6461  0.2531  0.0145
  838MOL0     C13013   1.136  12.115   1.781  0.1525  0.0426  0.2862
  838MOL0     C13014   1.045  12.206   1.747 -0.3054 -0.0052  0.4106
  838MOL0     C13015   1.046  12.346   1.789 -0.6380  0.0277 -0.4796
  838MOL0     C13016   0.915  12.417   1.780  0.0434 -0.4073 -0.2315
  838MOL0     C13017   0.824  12.385   1.905  0.5116 -0.3463 -0.0239
  838MOL0     C13018   0.703  12.476   1.904  0.1330 -0.0081  0.7774
  838MOL0     O13019   0.729  12.583   1.999  0.1261 -0.1475  0.0447
  838MOL0     C13020   0.627  12.678   2.018 -0.1938  0.2606  0.2831
  838MOL0     C13021   0.659  12.792   2.089 -0.1034 -0.4230 -0.7101
  838MOL0     C13022   0.567  12.893   2.124 -0.2921 -0.4687 -0.7649
  838MOL0     C13023   0.621  12.997   2.233  0.2718 -0.0542  0.1965
  838MOL0     C13024   0.440  12.880   2.063  0.2927 -0.0823 -0.5739
  838MOL0     C13025   0.332  12.977   2.079  0.2940 -0.0430 -0.4678
  838MOL0     O13026   0.259  13.004   1.965 -0.2347 -0.4489  0.6559
  838MOL0     C13027   0.157  13.102   1.959 -0.6317  0.7308 -0.3622
  838MOL0     C13028   0.171  13.220   2.027  0.5492  0.6887 -0.6660
  838MOL0     C13029   0.067  13.318   2.010  0.1434 -1.0341  0.4109
  838MOL0     C13030  -0.045  13.293   1.936 -0.0100 -0.0116  0.7771
  838MOL0     O13031  -0.138  13.394   1.931  0.7878  0.4556 -0.9775
  838MOL0     C13032  -0.158  13.443   1.805 -0.1462  0.2809  1.1583
  838MOL0     C13033  -0.043  13.536   1.759 -0.6260  0.0656 -0.3673
  838MOL0     C13034  -0.023  13.651   1.856  0.2781  0.3203  1.1728
  838MOL0     C13035   0.093  13.728   1.841  0.0247 -0.4958  0.4844
  838MOL0     C13036   0.107  13.808   1.703 -0.7849 -0.2162  0.3199
  838MOL0     C13037   0.218  13.923   1.706  0.1622  0.3390  0.3966
  838MOL0     C13038   0.273  13.969   1.572 -0.1322  0.2462 -0.0166
  838MOL0     C13039   0.378  14.069   1.579  0.0341  0.0579  0.4016
  838MOL0    Cl13040   0.419  14.134   1.411  0.3267  0.1864  0.2252
  838MOL0     C13041  -0.055  13.176   1.871  0.4729  0.5758  0.0518
  838MOL0     C13042   0.044  13.082   1.885  0.7616  0.7662  0.1750
  838MOL0     O13043   0.316  13.025   2.188 -0.6192 -0.8638  0.1931
  838MOL0     C13044   0.403  12.772   1.979 -0.9128  1.1110 -0.2813
  838MOL0     C13045   0.489  12.664   1.974 -0.0498  0.7360  0.2776
  838MOL0     N13046   0.947  12.144   1.677 -0.7706  0.3828  0.8066
  838MOL0     N13047   0.971  12.019   1.652 -0.6672  0.2055 -0.4088
  838MOL0     C13048   1.942  11.110   1.356  0.1963  0.0687  1.0582
  838MOL0     C13049   1.945  10.971   1.346  0.7686  0.8712 -0.7909
  838MOL0     C13050   1.838  10.545   1.321 -0.3825 -0.1554 -1.1187
  838MOL0     C13051   1.748  10.448   1.265  0.1365 -0.4007 -0.0381
  838MOL0     C13052   1.762  10.311   1.281 -0.0140  0.3930 -0.0186
  838MOL0     C13053   1.874  10.261   1.352  0.6667  0.0649 -0.9028
  838MOL0     O13054   1.886  10.124   1.378 -0.2116  0.0332  0.6098
  838MOL0     C13055   1.890  10.091   1.520 -0.1246 -0.7208 -0.1398
  838MOL0     C13056   1.847   9.948   1.547  0.1590 -0.0716  0.2411
  838MOL0     C13057   1.750   9.918   1.665  0.2919 -0.7343  0.7068
  838MOL0     C13058   1.730   9.770   1.692 -0.0816 -0.2599  0.8929
  838MOL0     C13059   1.853   9.684   1.718  0.7388 -0.2594  0.4858
  838MOL0     C13060   1.953   9.620   1.736  0.8795 -0.3874 -0.5824
  838MOL0     C13061   1.960  10.349   1.400  0.5834  0.0783 -0.2225
  838MOL0     C13062   1.936  10.487   1.401 -0.6164 -1.1574  0.8589
  838MOL0     H13063   1.661  10.902   1.540  1.4920  0.7611  4.5620
  838MOL0     H13064   1.657  11.157   1.541 -1.9777 -0.0275 -2.0572
  838MOL0     H13065   1.634  11.340   1.384  0.0023  0.9679 -1.7244
  838MOL0     H13066   1.696  11.416   1.534 -0.5771  0.1710  0.2861
  838MOL0     H13067   1.804  11.605   1.413 -1.2931  1.4386  0.0751
  838MOL0     H13068   1.768  11.515   1.268  0.8892 -3.0632  0.8234
  838MOL0     H13069   1.629  11.709   1.319 -0.3102  0.4080  0.6235
  838MOL0     H13070   1.535  11.558   1.310 -0.4844  0.6936  0.3069
  838MOL0     H13071   1.495  11.533   1.521  1.9656 -0.9404 -1.7537
  838MOL0     H13072   1.615  11.637   1.584 -0.1936 -4.4310 -0.6384
  838MOL0     H13073   1.502  11.845   1.476 -1.7627  1.5517 -2.6810
  838MOL0     H13074   1.382  11.741   1.401 -3.0236  1.2439  0.6969
  838MOL0     H13075   1.303  11.665   1.640  0.3450  0.3280 -1.0458
  838MOL0     H13076   1.413  11.787   1.697 -2.1863  1.3909  0.4332
  838MOL0     H13077   1.310  11.975   1.602  1.2625 -0.0751 -0.5037
  838MOL0     H13078   1.209  11.888   1.501  1.9265  3.4021 -0.3788
  838MOL0     H13079   1.188  11.847   1.807  0.6253  3.4129  0.2581
  838MOL0     H13080   1.077  11.792   1.674 -0.0178  0.4513 -3.2893
  838MOL0     H13081   1.224  12.142   1.839 -0.6273  1.7709  0.7201
  838MOL0     H13082   1.083  12.343   1.892 -0.9342 -0.8518 -0.3947
  838MOL0     H13083   1.121  12.398   1.728  0.5610 -2.5582 -1.3581
  838MOL0     H13084   0.859  12.396   1.688 -0.8506 -1.5931  0.5513
  838MOL0     H13085   0.937  12.524   1.774  2.0259 -0.7918 -0.3657
  838MOL0     H13086   0.872  12.392   2.003  2.2376 -3.4246 -0.5251
  838MOL0     H13087   0.798  12.278   1.899  2.0750 -0.7473 -0.0746
  838MOL0     H13088   0.615  12.418   1.933 -0.1097 -0.0771 -0.0790
  838MOL0     H13089   0.690  12.513   1.802 -0.9359 -2.3705 -0.0098
  838MOL0     H13090   0.763  12.805   2.119 -0.2969  2.3514 -0.9795
  838MOL0     H13091   0.730  12.989   2.236  0.2140 -0.8359  0.6068
  838MOL0     H13092   0.590  13.099   2.212  0.3319  0.7863  3.6308
  838MOL0     H13093   0.604  12.963   2.335  2.3813 -0.5979  0.4137
  838MOL0     H13094   0.255  13.239   2.092  0.1829 -0.1237  0.0609
  838MOL0     H13095   0.069  13.409   2.069 -3.0912 -1.1873  0.9237
  838MOL0     H13096  -0.177  13.356   1.741 -2.9236  0.9170  1.0001
  838MOL0     H13097  -0.248  13.504   1.791  0.5291  0.7199 -2.0945
  838MOL0     H13098   0.042  13.472   1.732 -1.1238  0.3154 -2.8388
  838MOL0     H13099  -0.089  13.583   1.672 -0.4240  0.1820 -0.4121
  838MOL0     H13100  -0.023  13.617   1.960  2.5166 -0.3350  1.0209
  838MOL0     H13101  -0.106  13.722   1.850  1.3514  1.5066 -0.7946
  838MOL0     H13102   0.092  13.802   1.922  1.4522  1.1406 -0.9268
  838MOL0     H13103   0.182  13.664   1.846 -0.5098 -1.2051  1.1706
  838MOL0     H13104   0.013  13.862   1.691  0.1153  1.1714 -0.7716
  838MOL0     H13105   0.113  13.741   1.617 -1.0343  0.4046 -0.1868
  838MOL0     H13106   0.175  14.003   1.767  0.9514  0.3319  0.9741
  838MOL0     H13107   0.311  13.888   1.751  1.2199 -0.3950 -2.1832
  838MOL0     H13108   0.187  14.014   1.521 -1.3660 -1.2869  0.6081
  838MOL0     H13109   0.321  13.879   1.532  0.3766 -0.1021  1.3117
  838MOL0     H13110   0.466  14.027   1.628  2.4750  0.9948 -2.8317
  838MOL0     H13111   0.335  14.150   1.640 -0.0001  2.1412 -2.1929
  838MOL0     H13112  -0.155  13.147   1.838  1.4770 -1.4745 -1.4667
  838MOL0     H13113   0.038  12.986   1.833 -0.1882  0.9475 -0.0790
  838MOL0     H13114   0.301  12.774   1.942 -2.1286 -0.2780  2.6952
  838MOL0     H13115   0.437  12.581   1.926  0.4408  1.3530 -1.4160
  838MOL0     H13116   2.009  11.171   1.296 -0.3336  0.9201  1.3292
  838MOL0     H13117   2.031  10.918   1.305  1.8464  0.0039  2.2411
  838MOL0     H13118   1.666  10.487   1.205 -0.6084  2.0838  2.3774
  838MOL0     H13119   1.698  10.238   1.231  1.7072  0.3593 -2.3039
  838MOL0     H13120   1.990  10.118   1.552 -0.5074  0.2031  0.3034
  838MOL0     H13121   1.815  10.155   1.568  0.1295  0.3838 -1.1730
  838MOL0     H13122   1.934   9.884   1.563  0.5395  0.3092 -0.3062
  838MOL0     H13123   1.798   9.930   1.451 -0.6998  1.4402  0.3584
  838MOL0     H13124   1.658   9.976   1.661  0.4186 -0.4752  1.3541
  838MOL0     H13125   1.787   9.957   1.761 -4.1604  0.5246  2.1773
  838MOL0     H13126   1.694   9.738   1.594  0.5586  2.3403 -0.2951
  838MOL0     H13127   1.655   9.754   1.770  0.8641  0.4367  1.9895
  838MOL0     H13128   2.045   9.571   1.762 -0.8402 -2.4304  2.1404
  838MOL0     H13129   2.053  10.321   1.449  0.1537 -3.3590 -1.0917
  838MOL0     H13130   2.006  10.555   1.449 -3.5374  1.6450  1.5292
  839MOL0     O13131   9.741   7.174   1.502  0.6967  0.3412 -0.2421
  839MOL0     C13132   9.713   7.271   1.571 -1.0092 -1.0547 -0.1083
  839MOL0     O13133   9.604   7.349   1.561 -0.2530  0.1286  0.4831
  839MOL0     C13134   9.520   7.325   1.450  0.4369 -0.3498  0.6855
  839MOL0     C13135   9.390   7.281   1.474 -0.3464 -0.8475  0.5926
  839MOL0     C13136   9.306   7.226   1.375  0.6654  0.7460  0.6048
  839MOL0     C13137   9.350   7.214   1.241 -0.9030  0.3403 -1.1468
  839MOL0     O13138   9.262   7.164   1.150 -0.6830  0.3464 -0.0927
  839MOL0     C13139   9.315   7.128   1.022  0.3486 -1.0911 -1.7491
  839MOL0     C13140   9.200   7.089   0.930  0.0655  0.0938 -0.8459
  839MOL0     C13141   9.131   6.968   0.988 -0.0698  0.4380  0.4066
  839MOL0     C13142   9.031   6.908   0.878 -0.1604 -0.3443 -0.0097
  839MOL0     C13143   8.970   6.788   0.928 -0.3409  0.5644  0.1052
  839MOL0     C13144   8.840   6.808   1.014 -1.0583 -0.4041  0.3615
  839MOL0     C13145   8.769   6.683   1.030 -0.1560  0.1363 -1.1204
  839MOL0     C13146   8.644   6.693   1.126  0.4116 -0.3085 -0.0691
  839MOL0     N13147   8.560   6.569   1.111 -0.1959  0.2909  0.1648
  839MOL0     C13148   8.593   6.458   1.176  0.6562  0.8806  0.4605
  839MOL0     C13149   8.489   6.374   1.152 -0.0758 -0.0711  0.5023
  839MOL0     C13150   8.458   6.236   1.194 -0.1976  0.0357  0.1405
  839MOL0     C13151   8.557   6.186   1.299 -0.8773  0.7358  0.3021
  839MOL0     C13152   8.690   6.150   1.228  0.1450  0.2297  0.8110
  839MOL0     C13153   8.792   6.100   1.324 -0.5699  0.1463 -0.1210
  839MOL0     O13154   8.914   6.104   1.252  0.7452  0.9363 -0.0390
  839MOL0     C13155   9.035   6.122   1.315  0.2760 -0.0316  0.4285
  839MOL0     C13156   9.131   6.158   1.222 -0.8186  0.7202 -0.1635
  839MOL0     C13157   9.265   6.165   1.258 -0.4933 -0.1612  0.4518
  839MOL0     C13158   9.378   6.193   1.155  0.4109 -0.2067  1.0738
  839MOL0     C13159   9.295   6.150   1.396  0.4296  1.2273  0.1704
  839MOL0     C13160   9.430   6.174   1.456  0.0526  0.2493 -0.7265
  839MOL0     O13161   9.500   6.279   1.406  0.4605  0.4694 -0.1143
  839MOL0     C13162   9.631   6.294   1.423 -0.7937 -0.6092 -0.4300
  839MOL0     C13163   9.694   6.293   1.555  0.3435  0.0515  0.1398
  839MOL0     C13164   9.833   6.289   1.564 -0.4004 -0.5260  0.2367
  839MOL0     C13165   9.912   6.310   1.447 -0.4181 -1.0791  0.7140
  839MOL0     O13166  10.051   6.310   1.461  0.5744  0.3277  0.7996
  839MOL0     C13167  10.121   6.413   1.384  0.2328 -0.4968  0.5701
  839MOL0     C13168  10.255   6.433   1.447 -0.2011 -0.2778 -0.1696
  839MOL0     C13169  10.248   6.507   1.583 -0.1730  0.9083 -0.5981
  839MOL0     C13170  10.388   6.488   1.638 -0.4203  0.6817  0.2963
  839MOL0     C13171  10.398   6.542   1.787 -0.4568  0.0880  0.2718
  839MOL0     C13172  10.534   6.512   1.852 -0.0695 -0.1301  0.6191
  839MOL0     C13173  10.639   6.615   1.797 -0.0833  0.1000 -0.0642
  839MOL0     C13174  10.782   6.557   1.828  0.1593 -0.4309 -0.4413
  839MOL0    Cl13175  10.911   6.677   1.798 -0.1115 -0.3890  0.0982
  839MOL0     C13176   9.853   6.330   1.325 -0.1737  0.3248  1.6552
  839MOL0     C13177   9.710   6.315   1.314 -0.2787 -0.0647 -0.0073
  839MOL0     O13178   9.456   6.108   1.549  0.3957 -0.6532  0.6638
  839MOL0     C13179   9.192   6.119   1.489 -0.2805 -0.0764  0.7243
  839MOL0     C13180   9.062   6.102   1.449 -0.6027  0.0355 -0.0605
  839MOL0     N13181   8.403   6.438   1.062  0.2622 -0.5961 -0.2197
  839MOL0     N13182   8.450   6.554   1.041  0.5006 -0.3010 -1.1435
  839MOL0     C13183   9.486   7.256   1.221  0.0573  0.6209 -0.0694
  839MOL0     C13184   9.559   7.308   1.321 -0.6665 -0.1219 -0.4386
  839MOL0     C13185   9.813   7.302   1.688  0.5593 -0.3909 -0.2034
  839MOL0     C13186   9.941   7.239   1.683  0.0383 -0.5620 -0.4150
  839MOL0     C13187  10.037   7.272   1.780 -0.5234  0.6471  0.4136
  839MOL0     C13188  10.008   7.366   1.884 -0.1310  0.7490  0.0174
  839MOL0     O13189  10.091   7.407   1.985 -0.2716  0.3046 -0.1376
  839MOL0     C13190  10.232   7.389   1.957 -0.7380 -0.0876  0.2391
  839MOL0     C13191  10.294   7.483   1.849  0.3247  0.7885 -0.0576
  839MOL0     C13192  10.262   7.629   1.883  0.2708 -0.7862 -0.2982
  839MOL0     C13193  10.326   7.689   2.005 -0.8787 -0.0008 -0.2791
  839MOL0     C13194  10.472   7.689   1.995  0.4115 -0.0896  0.4731
  839MOL0     C13195  10.594   7.712   1.991 -0.2958 -0.1295 -0.0547
  839MOL0     C13196   9.876   7.420   1.884 -0.4221  0.5914 -0.3271
  839MOL0     C13197   9.787   7.406   1.780  0.2666  0.4826  0.1619
  839MOL0     H13198   9.357   7.285   1.577  0.3141 -2.2040  0.8734
  839MOL0     H13199   9.206   7.190   1.397  1.4737 -1.5877  0.6731
  839MOL0     H13200   9.357   7.219   0.979 -1.8225  1.6811  1.4453
  839MOL0     H13201   9.386   7.046   1.039  0.3028 -0.3875  3.4064
  839MOL0     H13202   9.128   7.171   0.924  1.0721  0.9017 -2.7063
  839MOL0     H13203   9.241   7.066   0.831 -1.4196 -2.0021 -1.0431
  839MOL0     H13204   9.201   6.888   1.012  0.1681 -0.8042 -3.5686
  839MOL0     H13205   9.080   6.999   1.079 -0.3232  3.0180 -0.5055
  839MOL0     H13206   8.955   6.985   0.863 -0.2551  0.3955  3.4141
  839MOL0     H13207   9.080   6.887   0.782 -2.6010 -3.7846 -0.7146
  839MOL0     H13208   8.942   6.734   0.836  0.6953 -2.7548  1.5706
  839MOL0     H13209   9.037   6.721   0.982  0.8292  1.1805 -0.5565
  839MOL0     H13210   8.860   6.858   1.109 -0.6000  1.3356 -0.6038
  839MOL0     H13211   8.784   6.880   0.954  1.0704  0.6711 -0.4839
  839MOL0     H13212   8.716   6.658   0.938 -2.7722 -2.0959  0.8013
  839MOL0     H13213   8.832   6.602   1.068  0.3442  0.7950 -0.5184
  839MOL0     H13214   8.576   6.772   1.093  0.2727  0.3680  1.6867
  839MOL0     H13215   8.649   6.712   1.234 -2.7510 -1.0183  0.3097
  839MOL0     H13216   8.678   6.439   1.241  0.7781  1.0980  0.3668
  839MOL0     H13217   8.356   6.246   1.233 -1.1420  2.2868 -2.5767
  839MOL0     H13218   8.460   6.170   1.107  0.5251 -2.1206  1.7095
  839MOL0     H13219   8.520   6.089   1.334  1.4049  0.7097  3.0487
  839MOL0     H13220   8.571   6.262   1.376 -1.4398  2.0599 -0.8527
  839MOL0     H13221   8.731   6.242   1.185  2.2217 -1.7806 -1.8134
  839MOL0     H13222   8.678   6.080   1.144 -0.4926  0.5972  0.5853
  839MOL0     H13223   8.787   5.997   1.359  1.7691 -0.0077 -0.0205
  839MOL0     H13224   8.795   6.165   1.412  0.1608 -1.6868  1.2645
  839MOL0     H13225   9.098   6.190   1.123 -2.1529  0.8946  0.3198
  839MOL0     H13226   9.362   6.152   1.055  3.8261  1.5832 -0.3553
  839MOL0     H13227   9.389   6.302   1.146 -1.2043  0.0064  1.4109
  839MOL0     H13228   9.468   6.140   1.185  0.8416 -0.1849 -0.1254
  839MOL0     H13229   9.632   6.296   1.643  3.7282 -0.3462  2.7573
  839MOL0     H13230   9.887   6.284   1.658 -3.3205 -0.1942  2.0528
  839MOL0     H13231  10.133   6.375   1.282  1.1434 -1.8153  1.1474
  839MOL0     H13232  10.059   6.502   1.377  1.5406  0.4081 -0.0201
  839MOL0     H13233  10.298   6.333   1.452 -3.6992 -1.9586 -0.5725
  839MOL0     H13234  10.321   6.480   1.373 -0.2946  0.6964  0.3439
  839MOL0     H13235  10.172   6.452   1.640  0.2718  1.6018  0.7015
  839MOL0     H13236  10.209   6.609   1.580 -1.4820  0.5406  1.3521
  839MOL0     H13237  10.420   6.383   1.639 -1.8743  0.1896 -0.9683
  839MOL0     H13238  10.454   6.541   1.570  0.3527 -0.9600 -0.2792
  839MOL0     H13239  10.316   6.498   1.845 -0.3552  0.1880  0.4947
  839MOL0     H13240  10.383   6.650   1.801  2.3794  0.7132 -0.7895
  839MOL0     H13241  10.513   6.519   1.959  0.2194 -2.7070  0.8983
  839MOL0     H13242  10.565   6.410   1.828 -1.4026 -0.1160 -1.5013
  839MOL0     H13243  10.626   6.715   1.839 -0.2237 -0.0098  0.1596
  839MOL0     H13244  10.631   6.620   1.688  0.6417  2.0313 -0.0743
  839MOL0     H13245  10.791   6.465   1.770 -5.1984 -0.3527 -1.8701
  839MOL0     H13246  10.790   6.522   1.932  0.0749 -2.6100 -1.1100
  839MOL0     H13247   9.908   6.340   1.232 -0.2002 -2.7629  1.2060
  839MOL0     H13248   9.659   6.318   1.218  2.1784  2.4800 -1.4031
  839MOL0     H13249   9.206   6.115   1.597 -2.5103  0.3033  1.0653
  839MOL0     H13250   8.982   6.089   1.521  0.9398 -3.7247  1.2169
  839MOL0     H13251   9.528   7.243   1.122  1.5560 -3.1192  0.9273
  839MOL0     H13252   9.660   7.335   1.292  1.8081 -4.0899  3.3715
  839MOL0     H13253   9.952   7.167   1.602 -1.5096 -1.5230  0.1780
  839MOL0     H13254  10.137   7.229   1.783  0.0830  1.9789  0.1350
  839MOL0     H13255  10.277   7.404   2.055  0.9767 -1.4763 -0.2783
  839MOL0     H13256  10.251   7.283   1.935 -1.5851 -0.3219  0.6215
  839MOL0     H13257  10.231   7.463   1.762  3.6915 -0.7742 -2.3196
  839MOL0     H13258  10.397   7.460   1.824  0.7664  1.1560  1.3153
  839MOL0     H13259  10.153   7.638   1.881  0.3596  0.9896 -3.5320
  839MOL0     H13260  10.282   7.679   1.788 -2.6235  0.8282 -0.1972
  839MOL0     H13261  10.287   7.643   2.096 -0.9447 -2.1815 -1.3613
  839MOL0     H13262  10.290   7.793   2.011 -0.8132  0.0021  0.0979
  839MOL0     H13263  10.697   7.734   2.009 -1.2780  2.0812  4.0433
  839MOL0     H13264   9.845   7.489   1.961 -0.8897 -0.3365  0.3425
  839MOL0     H13265   9.687   7.447   1.783  0.9689  2.3401 -0.6498
  840MOL0     O13266   2.535   5.398   1.635  0.3175  1.0291 -0.0600
  840MOL0     C13267   2.606   5.494   1.602  0.6891  0.2704 -0.0743
  840MOL0     O13268   2.652   5.529   1.478 -0.5001  0.2553 -0.0410
  840MOL0     C13269   2.636   5.435   1.384  0.0743  0.6700  0.3714
  840MOL0     C13270   2.743   5.349   1.366 -0.6020 -0.6948 -0.3849
  840MOL0     C13271   2.749   5.268   1.248  0.5929 -0.0456  0.3022
  840MOL0     C13272   2.631   5.269   1.168 -0.1907  0.1820 -0.0037
  840MOL0     O13273   2.612   5.184   1.057 -0.1891  0.6006  0.0807
  840MOL0     C13274   2.698   5.071   1.040  0.5800  0.9381  0.6484
  840MOL0     C13275   2.634   4.947   1.104 -0.1439 -0.5791 -0.0587
  840MOL0     C13276   2.496   4.920   1.075 -0.7040 -0.6163  0.1773
  840MOL0     C13277   2.453   4.783   1.141  0.3442 -0.5932  0.4415
  840MOL0     C13278   2.302   4.765   1.145  0.7371  0.6184  0.4695
  840MOL0     C13279   2.271   4.641   1.233  0.1151 -0.1333  0.0956
  840MOL0     C13280   2.128   4.591   1.218 -0.4839 -0.2462 -0.2238
  840MOL0     C13281   2.113   4.447   1.288 -0.1890  0.0181 -0.4015
  840MOL0     N13282   1.977   4.418   1.335 -0.0704 -0.8525  0.2955
  840MOL0     C13283   1.901   4.483   1.426 -0.0019  0.0254  0.1990
  840MOL0     C13284   1.793   4.412   1.448  0.6768  0.3096  0.7390
  840MOL0     C13285   1.670   4.434   1.525  0.4813  0.3619  0.8583
  840MOL0     C13286   1.650   4.327   1.635  0.8337 -0.0120 -0.7840
  840MOL0     C13287   1.544   4.394   1.725  0.8527 -0.2002  0.4618
  840MOL0     C13288   1.462   4.282   1.793 -0.7927 -0.1510  0.4760
  840MOL0     O13289   1.355   4.337   1.864  0.0753  0.5125  0.0225
  840MOL0     C13290   1.250   4.251   1.881 -0.9272 -1.1842  0.3039
  840MOL0     C13291   1.246   4.129   1.950  0.0134 -0.5870  0.0872
  840MOL0     C13292   1.124   4.068   1.988 -0.5931  0.3090  0.5711
  840MOL0     C13293   1.136   3.952   2.073  0.0337  0.6978  0.8577
  840MOL0     C13294   1.002   4.121   1.935 -0.0232 -0.0690  0.4186
  840MOL0     C13295   0.863   4.062   1.965  0.2632 -0.0463  0.2610
  840MOL0     O13296   0.745   4.137   1.931  0.2169  0.0162 -0.6741
  840MOL0     C13297   0.614   4.086   1.944 -1.0814  0.4725  0.7332
  840MOL0     C13298   0.527   4.127   2.049  0.3871  0.2504  0.1293
  840MOL0     C13299   0.407   4.059   2.073  0.3129  0.1520 -0.4852
  840MOL0     C13300   0.368   3.937   2.014 -0.6887  0.0882  1.0823
  840MOL0     O13301   0.251   3.874   2.045 -0.1194 -0.5315 -0.1794
  840MOL0     C13302   0.137   3.952   2.087 -0.1031 -0.9446 -0.0056
  840MOL0     C13303   0.018   3.869   2.089 -0.2335  0.6221  1.0809
  840MOL0     C13304  -0.102   3.949   2.128  0.1414 -0.0743  0.9112
  840MOL0     C13305  -0.228   3.857   2.141  0.1248  0.1135  0.8066
  840MOL0     C13306  -0.351   3.936   2.111 -0.7475 -0.4343 -0.3564
  840MOL0     C13307  -0.473   3.851   2.136  0.5058 -0.5893 -0.5554
  840MOL0     C13308  -0.598   3.945   2.104 -1.3810  0.0149 -0.2256
  840MOL0     C13309  -0.720   3.869   2.129  0.2115  0.1185  0.2613
  840MOL0    Cl13310  -0.846   3.979   2.146 -0.0560  0.2534  0.5223
  840MOL0     C13311   0.454   3.900   1.906 -0.3144  0.9560 -0.5227
  840MOL0     C13312   0.568   3.972   1.873  0.2166 -0.7999  0.6049
  840MOL0     O13313   0.865   3.962   2.041 -0.2781  0.2970 -0.5522
  840MOL0     C13314   1.008   4.244   1.863 -0.0015  0.4160 -0.0140
  840MOL0     C13315   1.130   4.309   1.836  0.1368  0.1272 -0.2768
  840MOL0     N13316   1.803   4.299   1.374  0.3193 -0.4632  0.1879
  840MOL0     N13317   1.912   4.304   1.303  0.1623 -0.1992 -0.2491
  840MOL0     C13318   2.523   5.352   1.188  0.2310 -0.1319 -0.2986
  840MOL0     C13319   2.535   5.440   1.292 -0.3921 -0.3748 -0.2052
  840MOL0     C13320   2.646   5.587   1.706 -0.8707 -0.0431 -1.0365
  840MOL0     C13321   2.603   5.552   1.836  0.1635  0.1305 -0.2531
  840MOL0     C13322   2.630   5.643   1.946  0.9984 -0.0205  0.6815
  840MOL0     C13323   2.703   5.760   1.922 -0.5124 -0.2091 -0.5439
  840MOL0     O13324   2.728   5.845   2.026  0.1021 -0.1497 -0.3211
  840MOL0     C13325   2.680   5.833   2.157  0.0318 -0.6895 -0.7550
  840MOL0     C13326   2.741   5.722   2.240  0.1401  1.2131  1.1254
  840MOL0     C13327   2.878   5.694   2.217  0.2913 -0.0723 -0.5107
  840MOL0     C13328   2.958   5.663   2.338 -0.1420 -0.8249 -0.3964
  840MOL0     C13329   2.919   5.550   2.409 -0.3069 -0.1484  0.0865
  840MOL0     C13330   2.887   5.455   2.478  0.8143  0.7598  0.2465
  840MOL0     C13331   2.756   5.786   1.796 -0.9981  0.2274  0.1136
  840MOL0     C13332   2.719   5.706   1.684  0.4955 -1.0233 -0.2245
  840MOL0     H13333   2.828   5.347   1.433 -1.4458  2.8859  1.0270
  840MOL0     H13334   2.834   5.202   1.240  1.2685  0.2233  3.7021
  840MOL0     H13335   2.706   5.049   0.934 -3.0603 -2.0381  0.7666
  840MOL0     H13336   2.800   5.067   1.078  2.0241 -0.3324 -2.9411
  840MOL0     H13337   2.696   4.859   1.082  0.4343  0.3509 -2.3810
  840MOL0     H13338   2.637   4.978   1.209  1.6551  0.6070 -0.4191
  840MOL0     H13339   2.434   5.002   1.112  0.4655  0.7096 -0.7092
  840MOL0     H13340   2.469   4.915   0.969 -0.0045 -1.1283  0.0148
  840MOL0     H13341   2.495   4.698   1.085 -0.3316  2.0116 -4.5718
  840MOL0     H13342   2.491   4.771   1.243 -1.9002  0.4364  1.4469
  840MOL0     H13343   2.249   4.854   1.180 -2.2725 -1.4004  1.4435
  840MOL0     H13344   2.269   4.744   1.042 -0.2926 -1.3186  1.1508
  840MOL0     H13345   2.333   4.556   1.204 -2.3237 -2.1891  0.5676
  840MOL0     H13346   2.289   4.668   1.338 -0.6373  1.4227 -0.1446
  840MOL0     H13347   2.055   4.659   1.263 -2.0240 -1.7228 -0.3874
  840MOL0     H13348   2.100   4.587   1.112  0.6269  3.5862 -0.8069
  840MOL0     H13349   2.181   4.435   1.373  0.2734  1.5627 -0.5354
  840MOL0     H13350   2.153   4.377   1.214  1.5176  0.9519 -0.4032
  840MOL0     H13351   1.914   4.581   1.470 -0.5288 -1.0136  2.8027
  840MOL0     H13352   1.677   4.534   1.569  0.3585  0.7331  0.0536
  840MOL0     H13353   1.592   4.437   1.449  1.9430 -5.6902 -1.4385
  840MOL0     H13354   1.744   4.315   1.690  0.8738  1.0116 -0.5932
  840MOL0     H13355   1.631   4.230   1.590  0.4034  0.0838 -0.8174
  840MOL0     H13356   1.477   4.454   1.662  0.9136  0.5461  1.1068
  840MOL0     H13357   1.589   4.464   1.796  1.5302  2.0641 -2.0205
  840MOL0     H13358   1.533   4.232   1.859 -2.4487 -2.2680  0.7715
  840MOL0     H13359   1.429   4.210   1.717  2.1688  0.7424 -1.8307
  840MOL0     H13360   1.342   4.087   1.978  0.5049  0.5028  0.0898
  840MOL0     H13361   1.088   3.966   2.171  2.2924 -0.8598  2.3007
  840MOL0     H13362   1.087   3.870   2.019  1.6353 -0.8357  1.6332
  840MOL0     H13363   1.239   3.915   2.084  0.5471  2.0982  0.8652
  840MOL0     H13364   0.553   4.205   2.120  4.4265 -0.4514 -0.3565
  840MOL0     H13365   0.346   4.084   2.160  3.9734 -1.4261  2.8117
  840MOL0     H13366   0.157   3.995   2.186  0.0611  0.8083 -0.7595
  840MOL0     H13367   0.118   4.035   2.018 -3.3424  0.1328  1.9739
  840MOL0     H13368  -0.004   3.827   1.990  1.3860 -0.8291  1.2739
  840MOL0     H13369   0.031   3.780   2.150 -1.5067 -0.7050 -0.4857
  840MOL0     H13370  -0.117   4.019   2.045 -0.4394 -1.9292 -0.6112
  840MOL0     H13371  -0.085   4.011   2.217  0.0709  0.4283  0.5793
  840MOL0     H13372  -0.222   3.789   2.056 -0.7691  1.1208 -0.0940
  840MOL0     H13373  -0.235   3.802   2.235 -2.1250 -0.2281  0.4924
  840MOL0     H13374  -0.358   3.959   2.004 -3.1271 -0.6295 -0.2912
  840MOL0     H13375  -0.347   4.023   2.177 -0.3515  0.1923 -1.1863
  840MOL0     H13376  -0.472   3.763   2.071  0.1218  1.0651 -2.9051
  840MOL0     H13377  -0.469   3.822   2.242 -1.5025  0.0744 -0.2533
  840MOL0     H13378  -0.589   3.983   2.002  1.8423 -0.0730 -0.0777
  840MOL0     H13379  -0.602   4.031   2.172 -1.5968 -0.4417  0.3547
  840MOL0     H13380  -0.711   3.807   2.219  1.0023  0.0668  0.1587
  840MOL0     H13381  -0.753   3.807   2.045  2.2434  0.3161 -0.7561
  840MOL0     H13382   0.416   3.822   1.841  0.6248  0.8341 -0.9409
  840MOL0     H13383   0.632   3.922   1.801  2.7822 -0.1906  2.2990
  840MOL0     H13384   0.920   4.297   1.825  0.6965  0.3418 -1.8423
  840MOL0     H13385   1.130   4.408   1.791 -1.5935  0.1624 -0.2867
  840MOL0     H13386   2.450   5.345   1.109  0.6676 -0.8830 -0.6470
  840MOL0     H13387   2.466   5.522   1.307  0.6646  0.1049  2.6277
  840MOL0     H13388   2.537   5.470   1.861 -3.2019  2.1019 -1.9388
  840MOL0     H13389   2.575   5.621   2.037 -1.9317  2.6331 -0.2827
  840MOL0     H13390   2.716   5.924   2.205  1.3461 -0.7499 -1.5678
  840MOL0     H13391   2.571   5.833   2.169  0.1939 -1.3357  0.8681
  840MOL0     H13392   2.677   5.635   2.227  0.7956  0.8647  0.1169
  840MOL0     H13393   2.728   5.735   2.348 -0.9015 -1.2406  1.3417
  840MOL0     H13394   2.921   5.783   2.170 -1.4333  1.2281  0.2489
  840MOL0     H13395   2.883   5.601   2.158 -3.0013 -1.1767  0.7192
  840MOL0     H13396   2.939   5.752   2.400 -1.8349 -0.2388 -1.6813
  840MOL0     H13397   3.065   5.656   2.314 -0.2845 -1.0209 -0.9811
  840MOL0     H13398   2.851   5.380   2.546  0.0147  0.1641 -0.8036
  840MOL0     H13399   2.813   5.877   1.782 -2.8488  1.4769  0.2833
  840MOL0     H13400   2.736   5.743   1.584 -1.3340  0.0629 -0.1802
  841MOL0     O13401   5.006   0.405   6.680  0.8032  0.2150  0.4526
  841MOL0     C13402   5.092   0.410   6.770  0.8382 -0.0486  0.5352
  841MOL0     O13403   5.103   0.319   6.867  0.5979 -0.3308 -0.3535
  841MOL0     C13404   4.994   0.239   6.893 -0.6368  0.2900 -0.0804
  841MOL0     C13405   4.878   0.296   6.954  0.0770 -0.5659 -0.4106
  841MOL0     C13406   4.764   0.218   6.981 -0.6944 -0.0570 -0.0959
  841MOL0     C13407   4.764   0.086   6.943  0.0036 -0.5406 -0.3637
  841MOL0     O13408   4.656   0.015   6.986  0.0173  0.2544 -0.9459
  841MOL0     C13409   4.606  -0.074   6.888  0.2800 -0.1289  0.4783
  841MOL0     C13410   4.459  -0.120   6.938 -0.0192 -0.1068  0.7024
  841MOL0     C13411   4.341  -0.031   6.885 -0.5363 -0.3727 -0.1091
  841MOL0     C13412   4.318   0.104   6.960  0.1051  0.1974  0.3572
  841MOL0     C13413   4.179   0.167   6.917  0.0780 -0.4008  0.1414
  841MOL0     C13414   4.137   0.303   6.968  0.5923  0.2328 -0.3534
  841MOL0     C13415   4.010   0.346   6.883  0.4277  0.7419 -0.8814
  841MOL0     C13416   3.961   0.479   6.938 -0.8556  0.4912  0.2033
  841MOL0     N13417   3.850   0.535   6.870  0.0060  0.6537  0.9242
  841MOL0     C13418   3.719   0.493   6.885 -0.8310 -0.0675  0.0847
  841MOL0     C13419   3.651   0.584   6.812  0.5112  0.1823 -0.3918
  841MOL0     C13420   3.491   0.588   6.795 -0.1107 -0.8021  0.9746
  841MOL0     C13421   3.422   0.648   6.920 -0.7726  0.0192 -0.0968
  841MOL0     C13422   3.465   0.577   7.051 -0.1212 -0.3117 -0.7345
  841MOL0     C13423   3.373   0.598   7.174 -0.0146 -0.2779 -1.0062
  841MOL0     O13424   3.354   0.738   7.187 -0.0519  0.1740 -0.8876
  841MOL0     C13425   3.277   0.777   7.302 -0.5250  1.0782 -0.7742
  841MOL0     C13426   3.167   0.703   7.353  0.1708 -0.2851 -0.2362
  841MOL0     C13427   3.088   0.756   7.465  0.5380  0.3036 -0.0580
  841MOL0     C13428   2.980   0.662   7.523  0.1692  0.2099  0.0783
  841MOL0     C13429   3.110   0.880   7.520 -0.1893 -1.0409  0.0035
  841MOL0     C13430   3.028   0.949   7.619  1.0270  0.1206 -0.0427
  841MOL0     O13431   2.894   0.935   7.611 -0.6929  0.3956  0.1542
  841MOL0     C13432   2.818   1.023   7.685  0.2544  0.2018 -0.3894
  841MOL0     C13433   2.739   1.111   7.615 -0.0259 -0.1949  0.4257
  841MOL0     C13434   2.640   1.183   7.682 -0.2809 -0.0385 -0.4791
  841MOL0     C13435   2.625   1.172   7.826 -0.1906 -0.3885 -0.2089
  841MOL0     O13436   2.511   1.233   7.890  1.1699  0.3637  0.0705
  841MOL0     C13437   2.401   1.279   7.809  0.4594 -0.0719 -0.2176
  841MOL0     C13438   2.306   1.351   7.894 -0.0673 -0.2848 -0.3882
  841MOL0     C13439   2.182   1.391   7.819  0.3371 -0.0808  0.7406
  841MOL0     C13440   2.084   1.461   7.904  0.7884 -0.2453 -0.2257
  841MOL0     C13441   1.944   1.453   7.837  0.3820 -0.3090  0.2841
  841MOL0     C13442   1.819   1.509   7.912 -0.2586  0.3156  0.8550
  841MOL0     C13443   1.844   1.656   7.949  0.2598  0.1255  0.2776
  841MOL0     C13444   1.705   1.712   7.976 -0.4078  0.7540 -0.2321
  841MOL0    Cl13445   1.733   1.884   8.017 -0.2924  0.2187 -0.0826
  841MOL0     C13446   2.710   1.090   7.896  0.1757  0.0737  0.5811
  841MOL0     C13447   2.798   1.009   7.825  1.1293 -0.4788  0.7819
  841MOL0     O13448   3.078   1.037   7.683 -0.4288 -0.4675  0.3475
  841MOL0     C13449   3.225   0.955   7.472  0.9234  0.2322 -0.0172
  841MOL0     C13450   3.310   0.902   7.370 -0.0665  0.2973 -0.4592
  841MOL0     N13451   3.745   0.677   6.768  0.4083 -0.6289  0.0038
  841MOL0     N13452   3.862   0.647   6.803 -0.0692  0.4010 -0.0800
  841MOL0     C13453   4.883   0.026   6.886  0.9975  0.5733 -0.0814
  841MOL0     C13454   4.994   0.102   6.852  0.1732  0.3065 -0.3610
  841MOL0     C13455   5.200   0.501   6.745  0.7693 -0.0934 -0.0588
  841MOL0     C13456   5.283   0.532   6.851 -0.8015  0.0585 -0.4718
  841MOL0     C13457   5.406   0.598   6.837 -0.1544 -0.2348  0.0146
  841MOL0     C13458   5.449   0.640   6.709  1.0269 -0.3543  0.4285
  841MOL0     O13459   5.568   0.691   6.666 -0.3495 -0.1129 -0.0548
  841MOL0     C13460   5.678   0.683   6.754  0.5553 -0.1577 -0.4297
  841MOL0     C13461   5.790   0.771   6.699  0.1487 -0.0907 -0.1779
  841MOL0     C13462   5.753   0.922   6.678 -0.3983  0.3253 -0.4822
  841MOL0     C13463   5.875   0.997   6.628 -0.1162  0.0793  0.4225
  841MOL0     C13464   5.850   1.142   6.648 -0.1480  0.1469  0.7950
  841MOL0     C13465   5.814   1.256   6.651  0.4640  0.2775 -0.7679
  841MOL0     C13466   5.353   0.612   6.603  0.1903 -0.2243 -0.6581
  841MOL0     C13467   5.231   0.547   6.617 -0.5023 -0.1112  0.5565
  841MOL0     H13468   4.881   0.404   6.967  3.2366 -0.7908  1.9816
  841MOL0     H13469   4.671   0.257   7.021 -1.6619 -2.5752  0.3407
  841MOL0     H13470   4.601  -0.028   6.789 -0.6312 -0.3860  0.3957
  841MOL0     H13471   4.663  -0.167   6.900 -0.7023 -0.6504  1.1635
  841MOL0     H13472   4.433  -0.217   6.896 -0.7266  1.2234 -2.2707
  841MOL0     H13473   4.461  -0.118   7.047  1.6794 -2.7551  0.7995
  841MOL0     H13474   4.346  -0.010   6.778 -0.7654  0.9623  0.1190
  841MOL0     H13475   4.249  -0.085   6.909 -0.7017 -0.6263 -1.2996
  841MOL0     H13476   4.327   0.105   7.069  0.5542  0.9507  0.3192
  841MOL0     H13477   4.396   0.179   6.941 -1.2811  1.4645 -0.5212
  841MOL0     H13478   4.196   0.187   6.811 -2.1524 -2.9169 -0.8025
  841MOL0     H13479   4.094   0.099   6.931  0.9469 -0.9007  4.4408
  841MOL0     H13480   4.126   0.303   7.076  0.8216 -1.1574 -0.3101
  841MOL0     H13481   4.218   0.374   6.948  0.5064  0.6828  0.8691
  841MOL0     H13482   4.031   0.354   6.776 -2.2944  1.5863 -1.4470
  841MOL0     H13483   3.936   0.265   6.878  1.1143 -0.1830  2.1770
  841MOL0     H13484   4.043   0.551   6.940  0.3162 -0.7392 -1.2950
  841MOL0     H13485   3.927   0.461   7.040  1.7777  0.0839  1.0908
  841MOL0     H13486   3.684   0.401   6.931  3.5566 -2.3960 -0.6282
  841MOL0     H13487   3.463   0.658   6.716  2.2066  0.0757  0.8459
  841MOL0     H13488   3.457   0.488   6.765 -1.9802 -0.0459  0.4047
  841MOL0     H13489   3.314   0.631   6.918 -0.8105 -2.0422  4.6054
  841MOL0     H13490   3.439   0.756   6.923 -2.0030  0.2168  1.1035
  841MOL0     H13491   3.565   0.616   7.068 -1.1547  2.9265 -1.3297
  841MOL0     H13492   3.470   0.470   7.028 -2.5239 -0.4108 -1.1317
  841MOL0     H13493   3.420   0.544   7.257 -1.7760 -1.9344 -1.0262
  841MOL0     H13494   3.276   0.553   7.152 -1.2286  2.2629 -1.1587
  841MOL0     H13495   3.135   0.618   7.293 -2.3044  1.4909 -1.6252
  841MOL0     H13496   2.977   0.657   7.632  0.7350  0.0245  0.0890
  841MOL0     H13497   2.882   0.703   7.495  0.2157  1.3989  1.4830
  841MOL0     H13498   2.979   0.566   7.472 -1.0048  0.0152  0.4260
  841MOL0     H13499   2.753   1.117   7.507  2.2571  2.3786  0.7390
  841MOL0     H13500   2.579   1.237   7.610 -0.7376 -1.2478 -1.0073
  841MOL0     H13501   2.435   1.346   7.730  1.8123  1.3331  1.4496
  841MOL0     H13502   2.348   1.194   7.767  0.7651 -1.2695  1.6615
  841MOL0     H13503   2.276   1.290   7.980 -2.3484 -2.6241 -2.6400
  841MOL0     H13504   2.348   1.444   7.934  1.1892 -1.8124  2.1685
  841MOL0     H13505   2.137   1.304   7.770  1.1881  0.2818 -0.7421
  841MOL0     H13506   2.223   1.450   7.737 -1.9322  0.5425 -0.0199
  841MOL0     H13507   2.069   1.401   7.994  0.0060  1.3345  0.7638
  841MOL0     H13508   2.123   1.555   7.945  2.4317 -1.5593  1.4036
  841MOL0     H13509   1.925   1.351   7.802 -2.6873  0.6809 -1.1803
  841MOL0     H13510   1.944   1.512   7.745 -5.1632 -3.0568 -1.9389
  841MOL0     H13511   1.733   1.505   7.844  1.1176 -3.5738 -0.9160
  841MOL0     H13512   1.802   1.446   7.999  3.1401 -1.5261  0.3654
  841MOL0     H13513   1.897   1.716   7.875 -0.5251 -1.2475 -1.4707
  841MOL0     H13514   1.908   1.658   8.037  1.0011  1.9136 -0.2530
  841MOL0     H13515   1.658   1.664   8.062 -0.0984  1.3987  0.3033
  841MOL0     H13516   1.633   1.704   7.894 -0.7426  0.8334  0.0499
  841MOL0     H13517   2.697   1.079   8.003 -0.8734  2.4425  0.7689
  841MOL0     H13518   2.848   0.931   7.882 -1.4093 -1.6250  1.5547
  841MOL0     H13519   3.237   1.057   7.509  0.1719 -0.4310  2.1573
  841MOL0     H13520   3.391   0.967   7.338 -0.0996  2.0851  2.6974
  841MOL0     H13521   4.874  -0.081   6.874 -1.5818  0.7019  0.0554
  841MOL0     H13522   5.094   0.077   6.818 -0.3986  0.7261 -2.5231
  841MOL0     H13523   5.264   0.493   6.950  1.3086 -0.8109 -0.3489
  841MOL0     H13524   5.477   0.617   6.918 -0.1146  1.0291 -0.2965
  841MOL0     H13525   5.646   0.718   6.853 -3.1524 -4.8415  0.4197
  841MOL0     H13526   5.709   0.578   6.765  3.2688  0.5176 -0.8870
  841MOL0     H13527   5.824   0.723   6.606  1.6557  0.5009  0.0401
  841MOL0     H13528   5.876   0.774   6.767 -0.0947  3.5891  0.1429
  841MOL0     H13529   5.722   0.966   6.773  0.2142  0.3633 -0.2968
  841MOL0     H13530   5.674   0.931   6.603  1.2941  2.0609 -2.1522
  841MOL0     H13531   5.897   0.977   6.523  1.7643  2.9516  0.1454
  841MOL0     H13532   5.959   0.959   6.688  2.5056  0.5949 -2.6073
  841MOL0     H13533   5.778   1.357   6.649 -0.4189 -0.0168 -3.0200
  841MOL0     H13534   5.389   0.639   6.504 -0.9581 -0.9364 -1.3002
  841MOL0     H13535   5.167   0.516   6.536  2.5786 -1.2943 -1.6383
  842MOL0     O13536  10.452   0.603   8.908  0.3946  0.8833 -0.1880
  842MOL0     C13537  10.511   0.555   9.009  0.8881  1.0151  1.1853
  842MOL0     O13538  10.458   0.450   9.085  0.7812  0.9099  1.0429
  842MOL0     C13539  10.343   0.385   9.046  0.7988 -0.3154 -0.9218
  842MOL0     C13540  10.290   0.355   8.919  0.6630  0.0842 -0.0194
  842MOL0     C13541  10.164   0.297   8.898  0.0571  1.4191  0.3118
  842MOL0     C13542  10.085   0.256   9.009  0.5927  0.2498 -1.2493
  842MOL0     O13543   9.958   0.190   9.008 -0.0452  0.0896 -0.6818
  842MOL0     C13544   9.919   0.116   8.897 -0.6406  0.0257 -0.3843
  842MOL0     C13545   9.983  -0.025   8.922  0.4685  0.0602  0.3684
  842MOL0     C13546   9.902  -0.105   9.022  0.1713 -0.9229 -0.2534
  842MOL0     C13547   9.972  -0.245   9.036 -0.4428  0.6749  0.8568
  842MOL0     C13548   9.891  -0.354   9.108 -0.4262 -0.4618 -0.2923
  842MOL0     C13549   9.901  -0.339   9.256 -0.6223 -0.3706  0.1287
  842MOL0     C13550   9.815  -0.442   9.326  1.0197  0.8610 -0.3550
  842MOL0     C13551   9.881  -0.585   9.338  0.1432  0.7429 -0.1040
  842MOL0     N13552  10.023  -0.578   9.384 -0.4975 -0.6033  0.2619
  842MOL0     C13553  10.056  -0.503   9.491  0.0090 -0.2623  0.0042
  842MOL0     C13554  10.186  -0.533   9.513  0.5219  0.9291  0.1715
  842MOL0     C13555  10.254  -0.510   9.643  0.5383 -0.6116 -0.7945
  842MOL0     C13556  10.389  -0.441   9.636  0.5269 -0.2463  0.5027
  842MOL0     C13557  10.408  -0.386   9.782  0.4275  0.5783  0.0938
  842MOL0     C13558  10.553  -0.387   9.825  0.1851 -0.4325 -0.3186
  842MOL0     O13559  10.640  -0.315   9.727  0.2936 -0.0768 -0.3410
  842MOL0     C13560  10.745  -0.365   9.649  0.5479 -0.3163 -0.8199
  842MOL0     C13561  10.782  -0.503   9.661 -0.2365  0.2617  0.7228
  842MOL0     C13562  10.878  -0.559   9.582  1.2227 -0.8376  1.1222
  842MOL0     C13563  10.895  -0.703   9.600 -0.8502  0.2216  0.0793
  842MOL0     C13564  10.945  -0.480   9.486  1.2742 -0.4851 -0.3350
  842MOL0     C13565  11.060  -0.538   9.402 -0.6323 -0.3835 -0.1381
  842MOL0     O13566  11.096  -0.668   9.414 -0.1256 -0.0897 -0.0637
  842MOL0     C13567  11.204  -0.709   9.333 -0.0829 -0.8713 -0.2899
  842MOL0     C13568  11.338  -0.682   9.369 -0.0707 -0.2768 -0.2425
  842MOL0     C13569  11.449  -0.726   9.313  1.2107  0.9892 -0.6820
  842MOL0     C13570  11.441  -0.799   9.192  0.4656 -1.0997  0.7812
  842MOL0     O13571  11.552  -0.850   9.126 -0.3852 -0.5811  0.1579
  842MOL0     C13572  11.690  -0.833   9.167  0.2824  0.4021 -0.0645
  842MOL0     C13573  11.781  -0.932   9.090  0.1298  0.3398  0.5284
  842MOL0     C13574  11.810  -0.871   8.942  0.2948 -0.5012 -0.2677
  842MOL0     C13575  11.925  -0.957   8.877  0.8875 -0.8188 -0.1946
  842MOL0     C13576  11.959  -0.922   8.733 -0.3902 -0.2213  0.5106
  842MOL0     C13577  12.109  -0.932   8.705  1.1146 -0.0374 -0.1191
  842MOL0     C13578  12.130  -0.938   8.556  0.2234 -0.0512  0.2733
  842MOL0     C13579  12.269  -0.961   8.504 -0.1055 -0.0452  0.0750
  842MOL0    Cl13580  12.328  -1.120   8.557 -0.0314  0.1554 -0.1270
  842MOL0     C13581  11.314  -0.837   9.153  0.0887  0.3579  0.9680
  842MOL0     C13582  11.194  -0.793   9.224 -0.4054  0.5217  0.5202
  842MOL0     O13583  11.113  -0.454   9.330 -0.2713 -0.0113  0.8049
  842MOL0     C13584  10.900  -0.351   9.462 -1.0658  0.1518 -0.1875
  842MOL0     C13585  10.808  -0.291   9.545 -0.3060 -0.8496 -1.1171
  842MOL0     N13586  10.224  -0.617   9.407  0.3861 -0.3824 -0.0030
  842MOL0     N13587  10.126  -0.652   9.334  0.4111  0.2251 -0.0973
  842MOL0     C13588  10.132   0.286   9.134  0.1501 -0.5848 -1.0374
  842MOL0     C13589  10.257   0.348   9.153 -0.4835 -0.2817  0.5944
  842MOL0     C13590  10.650   0.602   9.041 -0.6259  0.5318 -0.3205
  842MOL0     C13591  10.701   0.713   8.984 -0.0431 -0.0227  0.2762
  842MOL0     C13592  10.832   0.750   9.011 -0.3348 -0.3274 -0.1235
  842MOL0     C13593  10.911   0.685   9.108  0.6642 -0.7410 -0.6927
  842MOL0     O13594  11.045   0.706   9.128  0.6078  0.1428 -0.7876
  842MOL0     C13595  11.126   0.787   9.049 -0.5288 -0.2878  0.1633
  842MOL0     C13596  11.270   0.726   9.046 -0.5540 -1.3101  0.2269
  842MOL0     C13597  11.267   0.578   9.016 -0.0232 -0.4273  0.0250
  842MOL0     C13598  11.412   0.524   9.014 -0.2448  0.4869  0.0565
  842MOL0     C13599  11.461   0.502   9.152 -0.0126  0.4583  1.2630
  842MOL0     C13600  11.512   0.491   9.260 -0.4291 -0.3675 -0.9407
  842MOL0     C13601  10.844   0.586   9.187  1.1794 -1.2081  0.0556
  842MOL0     C13602  10.722   0.540   9.145  0.5711 -0.8829  0.3071
  842MOL0     H13603  10.342   0.408   8.839  0.2873  0.8867  0.2552
  842MOL0     H13604  10.141   0.284   8.793  3.0663  1.6494 -0.4721
  842MOL0     H13605   9.812   0.103   8.881 -1.1517  2.4580  0.5717
  842MOL0     H13606   9.949   0.167   8.805 -2.1941 -1.8672 -2.0212
  842MOL0     H13607   9.987  -0.072   8.823 -2.2295 -0.7951  0.5784
  842MOL0     H13608  10.087  -0.019   8.954  2.2119 -0.3015 -4.3624
  842MOL0     H13609   9.897  -0.051   9.117  2.0429  1.9561 -1.6431
  842MOL0     H13610   9.805  -0.129   8.977  0.9787 -1.0112 -2.0069
  842MOL0     H13611  10.003  -0.281   8.938  3.5605  2.3462  1.3258
  842MOL0     H13612  10.071  -0.236   9.082 -0.3212  0.3767  0.6526
  842MOL0     H13613   9.788  -0.353   9.072 -1.2225 -0.3531  1.8625
  842MOL0     H13614   9.934  -0.451   9.081  2.7299  0.6308  0.3727
  842MOL0     H13615  10.008  -0.341   9.279 -0.6481 -2.7427  0.2106
  842MOL0     H13616   9.866  -0.241   9.292  1.1120  0.7744 -1.1237
  842MOL0     H13617   9.772  -0.406   9.420 -0.4983 -0.4292 -0.5131
  842MOL0     H13618   9.727  -0.454   9.262  2.8384 -0.4153 -2.7883
  842MOL0     H13619   9.884  -0.634   9.240 -0.3307 -2.9602  1.5638
  842MOL0     H13620   9.825  -0.655   9.402  2.3402 -2.3201 -1.2854
  842MOL0     H13621   9.997  -0.438   9.554  0.9437  0.6406 -0.0425
  842MOL0     H13622  10.181  -0.451   9.699  0.3806 -2.6819  1.3603
  842MOL0     H13623  10.258  -0.601   9.705 -1.0888  0.6231  1.2431
  842MOL0     H13624  10.374  -0.359   9.566 -1.8727  0.8076  2.1029
  842MOL0     H13625  10.471  -0.504   9.601  0.9331  1.7648 -2.5441
  842MOL0     H13626  10.350  -0.450   9.849 -3.2859  0.4587 -2.8776
  842MOL0     H13627  10.387  -0.280   9.796  1.4171  0.6928  0.7326
  842MOL0     H13628  10.563  -0.496   9.835 -3.3763 -1.1155 -2.3974
  842MOL0     H13629  10.572  -0.339   9.921  2.5190 -0.5299 -0.6692
  842MOL0     H13630  10.734  -0.563   9.738  0.2841  1.0422  1.6937
  842MOL0     H13631  10.846  -0.734   9.693 -0.8325 -0.5310 -0.1598
  842MOL0     H13632  10.859  -0.752   9.510 -2.2887 -0.3031  0.9141
  842MOL0     H13633  11.001  -0.730   9.610 -0.1500  2.5217 -0.3125
  842MOL0     H13634  11.354  -0.632   9.464  2.3650 -3.3526  1.1507
  842MOL0     H13635  11.540  -0.690   9.361 -1.7054  4.2296  3.1496
  842MOL0     H13636  11.715  -0.727   9.175 -0.9441  0.6518  0.8687
  842MOL0     H13637  11.697  -0.877   9.267 -1.1691 -1.1886 -0.6027
  842MOL0     H13638  11.877  -0.954   9.136 -0.1534 -2.6906 -0.1242
  842MOL0     H13639  11.733  -1.030   9.082 -1.3003  1.1261 -2.0708
  842MOL0     H13640  11.843  -0.767   8.941 -2.8061  0.5637 -0.5644
  842MOL0     H13641  11.710  -0.882   8.899 -1.4618  0.2226  3.2365
  842MOL0     H13642  12.007  -0.939   8.948 -0.9882 -0.0297  1.8897
  842MOL0     H13643  11.886  -1.059   8.876  1.6496 -1.1210 -1.4964
  842MOL0     H13644  11.939  -0.816   8.716 -1.1446 -0.7205 -2.2490
  842MOL0     H13645  11.891  -0.982   8.672  0.7007  1.4374 -2.5438
  842MOL0     H13646  12.159  -0.843   8.745  1.0499  0.3507 -0.8783
  842MOL0     H13647  12.135  -1.024   8.758 -1.9926 -1.3448 -0.6377
  842MOL0     H13648  12.072  -0.857   8.512  0.3566  0.0600  0.3032
  842MOL0     H13649  12.066  -1.021   8.525 -0.1863  0.6066 -0.6791
  842MOL0     H13650  12.342  -0.885   8.532 -0.2183  2.1344 -4.6438
  842MOL0     H13651  12.276  -0.948   8.396  0.3437  1.5110  0.2758
  842MOL0     H13652  11.325  -0.911   9.074  1.3615  0.2262  1.2596
  842MOL0     H13653  11.102  -0.834   9.184 -1.0590  2.1492  0.2712
  842MOL0     H13654  10.939  -0.291   9.381 -0.6133  0.8249  0.5067
  842MOL0     H13655  10.770  -0.190   9.538 -2.6659 -1.5375  0.6247
  842MOL0     H13656  10.072   0.260   9.221  0.7795 -4.2109 -1.5437
  842MOL0     H13657  10.294   0.364   9.254  1.6669  0.8681 -0.3158
  842MOL0     H13658  10.638   0.768   8.914 -0.4266 -2.4873 -1.4448
  842MOL0     H13659  10.871   0.826   8.945 -2.3067 -0.1685 -1.1848
  842MOL0     H13660  11.093   0.792   8.945 -2.2026  0.3569  0.6879
  842MOL0     H13661  11.139   0.886   9.093  1.4102  0.0434 -1.0274
  842MOL0     H13662  11.322   0.736   9.141  0.9245  1.8416 -0.7872
  842MOL0     H13663  11.326   0.782   8.970  1.5918  1.9550  3.8701
  842MOL0     H13664  11.228   0.572   8.914 -1.6909  0.5841  0.5727
  842MOL0     H13665  11.201   0.513   9.075 -3.5950  1.7248 -1.2968
  842MOL0     H13666  11.485   0.586   8.960  0.7136  0.5886  1.4133
  842MOL0     H13667  11.406   0.429   8.960 -5.9170  0.0950  0.7681
  842MOL0     H13668  11.566   0.493   9.353 -1.7285 -1.0555 -0.1309
  842MOL0     H13669  10.913   0.544   9.261  2.1328 -0.5237 -0.4197
  842MOL0     H13670  10.683   0.449   9.188 -0.8965 -0.8050 -0.7813
  843MOL0     O13671   2.519  10.895   6.639  0.0478  0.2408  0.5255
  843MOL0     C13672   2.620  10.876   6.570 -0.5581  0.0978 -0.5945
  843MOL0     O13673   2.618  10.834   6.444 -0.0139 -0.0996  0.3088
  843MOL0     C13674   2.497  10.785   6.391 -0.4123  0.4645  0.7224
  843MOL0     C13675   2.461  10.845   6.278  0.5514 -0.1185  0.3344
  843MOL0     C13676   2.346  10.811   6.213  0.5725 -0.7600  0.1533
  843MOL0     C13677   2.261  10.714   6.275 -0.2342 -0.0339  0.2962
  843MOL0     O13678   2.145  10.680   6.214  0.1883 -0.2735  0.9563
  843MOL0     C13679   2.117  10.739   6.087  0.5298 -0.3753  0.6828
  843MOL0     C13680   1.980  10.681   6.052 -0.2491  0.4815 -0.1096
  843MOL0     C13681   1.928  10.725   5.913 -0.3129  0.2061  0.0461
  843MOL0     C13682   1.882  10.600   5.830 -0.7800 -0.1856  0.1195
  843MOL0     C13683   1.741  10.574   5.864  0.3622 -0.3919 -0.4104
  843MOL0     C13684   1.659  10.594   5.743  0.4580 -0.0976 -0.2962
  843MOL0     C13685   1.515  10.550   5.764  0.1149  0.6386  0.1678
  843MOL0     C13686   1.451  10.504   5.634 -0.0392 -0.3425 -0.5818
  843MOL0     N13687   1.440  10.610   5.533  0.0806 -0.7860  0.3048
  843MOL0     C13688   1.404  10.745   5.549  0.3366  0.9189 -0.5093
  843MOL0     C13689   1.399  10.797   5.419 -0.2701 -0.6200  0.5025
  843MOL0     C13690   1.355  10.937   5.364 -0.4357 -0.4313  1.0979
  843MOL0     C13691   1.484  11.029   5.366 -0.0045  0.6672 -0.2285
  843MOL0     C13692   1.526  11.081   5.508  0.0219  0.2443  0.4103
  843MOL0     C13693   1.631  11.191   5.500 -0.1827  0.3679 -0.4746
  843MOL0     O13694   1.579  11.309   5.443  0.0491  0.1486  0.1786
  843MOL0     C13695   1.485  11.382   5.519  0.0567  0.7504  0.4271
  843MOL0     C13696   1.347  11.386   5.480 -0.3925  0.1795  0.0609
  843MOL0     C13697   1.256  11.471   5.547  0.4777 -0.6047  0.3370
  843MOL0     C13698   1.108  11.447   5.499 -0.6414  0.3381  0.0390
  843MOL0     C13699   1.308  11.560   5.651 -0.0202  1.1617  0.8763
  843MOL0     C13700   1.227  11.666   5.709 -0.2115  0.3389  0.3908
  843MOL0     O13701   1.114  11.693   5.646  0.3080 -0.1190 -0.3189
  843MOL0     C13702   1.032  11.788   5.707 -0.6036  0.0726 -0.5601
  843MOL0     C13703   0.906  11.769   5.755  1.1002 -0.7345  0.3012
  843MOL0     C13704   0.817  11.876   5.798 -0.3620  0.1667 -0.9314
  843MOL0     C13705   0.866  12.005   5.801  0.0617 -0.4090  1.2302
  843MOL0     O13706   0.786  12.106   5.851  1.1138 -0.1905  0.4505
  843MOL0     C13707   0.804  12.249   5.832  0.7166  0.0403 -0.3232
  843MOL0     C13708   0.676  12.326   5.885 -0.6674  0.2731  0.3694
  843MOL0     C13709   0.549  12.254   5.838  0.0542 -0.1352  0.5418
  843MOL0     C13710   0.422  12.313   5.896  0.4173  0.4724  0.9031
  843MOL0     C13711   0.302  12.219   5.879  0.1214  0.7085  0.3110
  843MOL0     C13712   0.278  12.173   5.731 -0.7559 -0.2290  0.4843
  843MOL0     C13713   0.178  12.062   5.733 -0.2475 -0.9017 -0.2749
  843MOL0     C13714   0.129  12.020   5.597  0.0290  0.1664  1.1598
  843MOL0    Cl13715   0.001  11.895   5.592  0.3229  0.3208  0.1118
  843MOL0     C13716   0.995  12.024   5.748  0.1977  0.1651  0.8533
  843MOL0     C13717   1.082  11.920   5.706  0.3783 -0.6758 -0.8135
  843MOL0     O13718   1.282  11.732   5.797  0.0627 -0.1159 -0.4637
  843MOL0     C13719   1.437  11.540   5.686  0.2914 -0.0390 -1.0126
  843MOL0     C13720   1.527  11.452   5.627  0.0944  0.4076  0.3509
  843MOL0     N13721   1.445  10.695   5.336 -0.1961 -0.3859 -0.1561
  843MOL0     N13722   1.458  10.587   5.399 -0.8031  0.0475  0.5802
  843MOL0     C13723   2.289  10.661   6.401  0.0008 -0.3683  0.1242
  843MOL0     C13724   2.406  10.695   6.459  0.3349 -0.9703 -0.4807
  843MOL0     C13725   2.750  10.910   6.634 -0.2511 -0.5590  0.0535
  843MOL0     C13726   2.863  10.851   6.574  0.3402  0.9325  1.0897
  843MOL0     C13727   2.993  10.883   6.609 -0.0289  1.2242  0.1344
  843MOL0     C13728   3.022  10.975   6.713  0.5035  0.2133 -0.4205
  843MOL0     O13729   3.143  11.000   6.764  0.6351 -0.7767 -0.0162
  843MOL0     C13730   3.262  11.001   6.679 -0.6005  0.7079 -0.1247
  843MOL0     C13731   3.266  11.123   6.595  0.3379  0.4518  0.3147
  843MOL0     C13732   3.409  11.166   6.559 -0.3270  1.2289  0.9265
  843MOL0     C13733   3.497  11.079   6.460  0.8617  1.8071  0.8758
  843MOL0     C13734   3.569  10.973   6.535  0.0005  0.4634  0.8003
  843MOL0     C13735   3.616  10.881   6.600  0.3173  0.3611  0.1366
  843MOL0     C13736   2.912  11.031   6.776  0.2221 -0.8432  0.2443
  843MOL0     C13737   2.777  11.005   6.740 -0.9530 -0.2738  0.6352
  843MOL0     H13738   2.532  10.917   6.239 -0.7718  0.3240 -1.3350
  843MOL0     H13739   2.334  10.862   6.118 -0.9868 -0.0847  0.6840
  843MOL0     H13740   2.096  10.846   6.096 -0.6078 -0.2819 -2.0796
  843MOL0     H13741   2.177  10.709   6.001 -0.8732  1.5872 -1.0760
  843MOL0     H13742   1.992  10.573   6.065  1.9827  0.7179  0.2005
  843MOL0     H13743   1.903  10.712   6.123 -1.2474 -2.5179  0.2816
  843MOL0     H13744   1.848  10.799   5.917  0.2331  0.7946  0.1501
  843MOL0     H13745   2.004  10.770   5.848 -1.0963  0.7246 -0.5202
  843MOL0     H13746   1.903  10.625   5.725 -0.7870  1.6776  0.5337
  843MOL0     H13747   1.934  10.506   5.850 -1.5865 -0.7897 -0.5281
  843MOL0     H13748   1.730  10.473   5.905 -0.1202  0.5688  1.9782
  843MOL0     H13749   1.704  10.638   5.944 -3.0694 -0.2534 -1.9560
  843MOL0     H13750   1.661  10.697   5.704  2.0562 -0.2203 -0.5971
  843MOL0     H13751   1.704  10.532   5.665  1.5635  0.5212 -0.1742
  843MOL0     H13752   1.526  10.459   5.823 -0.5663  0.7695  0.5098
  843MOL0     H13753   1.449  10.626   5.807  2.9257  2.5441  1.4128
  843MOL0     H13754   1.351  10.470   5.664  0.5135 -0.6890  0.9323
  843MOL0     H13755   1.496  10.415   5.590 -0.1836 -1.2415  1.0137
  843MOL0     H13756   1.373  10.785   5.645 -0.0477 -2.5578  0.9602
  843MOL0     H13757   1.312  10.929   5.264  1.9047 -1.9034  0.1161
  843MOL0     H13758   1.278  10.970   5.433 -1.7374  1.4389 -1.1095
  843MOL0     H13759   1.462  11.118   5.306 -2.6739 -0.2925 -0.7866
  843MOL0     H13760   1.562  10.966   5.320 -1.5522 -0.7674 -1.0070
  843MOL0     H13761   1.574  10.998   5.562  3.0897  3.4385  3.0416
  843MOL0     H13762   1.439  11.115   5.563  0.5816  0.4782  1.1586
  843MOL0     H13763   1.720  11.163   5.443 -0.2361 -0.5197 -0.1299
  843MOL0     H13764   1.653  11.208   5.606 -1.7060 -2.8252  0.4623
  843MOL0     H13765   1.321  11.338   5.386  3.0701  1.9747 -2.0307
  843MOL0     H13766   1.062  11.531   5.446 -2.7381 -0.2311  0.8504
  843MOL0     H13767   1.108  11.355   5.441  0.1567 -0.9203  1.9328
  843MOL0     H13768   1.039  11.442   5.583  0.3400  1.0391  0.9219
  843MOL0     H13769   0.870  11.667   5.754  1.7816 -0.9981  1.1452
  843MOL0     H13770   0.716  11.873   5.839  0.2017 -1.9348  0.4992
  843MOL0     H13771   0.898  12.275   5.881 -0.3110  1.3115  1.0609
  843MOL0     H13772   0.809  12.277   5.727  0.4659  3.6030  0.4949
  843MOL0     H13773   0.684  12.307   5.992 -1.0031 -0.8225  0.2206
  843MOL0     H13774   0.685  12.429   5.850 -0.1891  0.7696  1.8657
  843MOL0     H13775   0.548  12.150   5.874  1.0427  0.1185  1.3294
  843MOL0     H13776   0.548  12.241   5.729  1.2174 -0.1935  0.5321
  843MOL0     H13777   0.435  12.330   6.003  0.8602 -1.6474  1.2355
  843MOL0     H13778   0.396  12.411   5.856  1.4268  1.1544  1.8593
  843MOL0     H13779   0.213  12.267   5.920  0.2605  0.7561  0.5566
  843MOL0     H13780   0.319  12.129   5.939  0.5840 -0.7596 -1.8945
  843MOL0     H13781   0.250  12.259   5.669  2.1846  1.7565  1.7412
  843MOL0     H13782   0.374  12.133   5.696 -0.7969  0.7360 -0.8080
  843MOL0     H13783   0.100  12.094   5.802  0.7859  0.2172  0.4272
  843MOL0     H13784   0.219  11.973   5.782  1.7606  0.7741  1.3021
  843MOL0     H13785   0.220  11.981   5.550  1.0076  2.9606  0.4799
  843MOL0     H13786   0.108  12.109   5.537  0.7607 -0.6850 -0.4216
  843MOL0     H13787   1.022  12.128   5.756 -1.7594  0.7553  0.2633
  843MOL0     H13788   1.180  11.944   5.666 -0.6910  0.8544 -2.6822
  843MOL0     H13789   1.471  11.590   5.777 -0.7122  0.9808 -1.1830
  843MOL0     H13790   1.627  11.439   5.665  0.7495 -0.7750 -1.6299
  843MOL0     H13791   2.212  10.596   6.440 -1.7539  1.3337 -0.2806
  843MOL0     H13792   2.438  10.670   6.559 -0.0540  3.0580  0.8130
  843MOL0     H13793   2.851  10.766   6.508  1.8943 -1.6518  3.8920
  843MOL0     H13794   3.072  10.833   6.552 -0.5872  2.1914 -1.5694
  843MOL0     H13795   3.341  11.004   6.755  0.4648  1.0004 -1.2164
  843MOL0     H13796   3.272  10.905   6.627  0.9271 -0.9258  2.8888
  843MOL0     H13797   3.214  11.204   6.647  0.5128  0.9665 -0.2971
  843MOL0     H13798   3.204  11.107   6.506  0.5243 -0.4585  0.3444
  843MOL0     H13799   3.469  11.173   6.650  1.1015 -2.3714  0.4033
  843MOL0     H13800   3.410  11.264   6.509  1.2582  0.2765 -1.0942
  843MOL0     H13801   3.569  11.143   6.410  0.2302  2.7316  1.1311
  843MOL0     H13802   3.434  11.032   6.384  0.9568 -0.6624  2.2096
  843MOL0     H13803   3.647  10.797   6.659 -1.8167  1.5663  3.2376
  843MOL0     H13804   2.934  11.087   6.866  1.9893 -2.7422  1.0629
  843MOL0     H13805   2.689  11.062   6.769 -2.5340 -0.0931 -3.7677
  844MOL0     O13806   1.354   4.687   8.387 -0.3736  0.1550 -0.0117
  844MOL0     C13807   1.362   4.602   8.477  0.0002 -0.1604  0.0633
  844MOL0     O13808   1.256   4.536   8.532 -0.0514 -0.3938  0.2930
  844MOL0     C13809   1.122   4.555   8.510 -0.1056 -0.0634  0.5238
  844MOL0     C13810   1.051   4.463   8.580 -0.1524  0.2265  0.7081
  844MOL0     C13811   0.916   4.462   8.578 -0.0144 -0.8257 -0.5180
  844MOL0     C13812   0.845   4.566   8.516  0.6225 -0.1356  0.1212
  844MOL0     O13813   0.709   4.584   8.523 -0.2823  0.3236  0.1816
  844MOL0     C13814   0.628   4.473   8.522  0.1604  0.0361  0.0507
  844MOL0     C13815   0.493   4.528   8.472 -0.4066  0.7208  0.6201
  844MOL0     C13816   0.386   4.416   8.475  0.3729  0.7412  0.3745
  844MOL0     C13817   0.334   4.391   8.622  0.3018  0.2498  0.6458
  844MOL0     C13818   0.208   4.477   8.635  0.0478 -0.2914 -0.1178
  844MOL0     C13819   0.069   4.408   8.600 -0.1607  0.2885  0.2913
  844MOL0     C13820  -0.029   4.517   8.631  0.2316 -0.7473 -0.2020
  844MOL0     C13821  -0.175   4.482   8.587 -0.5715  0.2040  0.7615
  844MOL0     N13822  -0.284   4.572   8.621  0.9701 -0.5594 -0.4686
  844MOL0     C13823  -0.283   4.710   8.593 -0.4855  0.0358  0.7693
  844MOL0     C13824  -0.408   4.745   8.639 -0.1431 -0.2214  0.3401
  844MOL0     C13825  -0.466   4.887   8.645 -0.8461 -0.6751 -1.1176
  844MOL0     C13826  -0.453   4.944   8.787  0.4988  0.6868 -0.3444
  844MOL0     C13827  -0.530   5.082   8.826  1.2971 -0.0379  0.2538
  844MOL0     C13828  -0.558   5.090   8.987  0.2313 -0.2288  0.2732
  844MOL0     O13829  -0.640   5.197   9.026 -0.1494  0.2470 -0.7052
  844MOL0     C13830  -0.766   5.190   8.954 -0.3244 -0.0042  0.4219
  844MOL0     C13831  -0.855   5.082   8.974  0.0502  0.5694 -0.6228
  844MOL0     C13832  -0.989   5.096   8.929  1.2286  0.4427  0.0100
  844MOL0     C13833  -1.092   4.985   8.931  0.0673 -0.3864  0.1353
  844MOL0     C13834  -1.034   5.217   8.887  0.3583 -0.2956  0.9581
  844MOL0     C13835  -1.178   5.253   8.855  0.8911 -0.2267  0.1502
  844MOL0     O13836  -1.276   5.210   8.933  0.2780 -0.4759  0.2153
  844MOL0     C13837  -1.408   5.202   8.892  0.0239 -0.0782  0.5022
  844MOL0     C13838  -1.472   5.314   8.836 -0.6589 -0.1750  0.5356
  844MOL0     C13839  -1.605   5.307   8.783 -0.0422  0.0229  0.1483
  844MOL0     C13840  -1.681   5.187   8.787 -0.0991  0.9259  0.2161
  844MOL0     O13841  -1.807   5.185   8.729 -0.2416 -0.3231 -0.1654
  844MOL0     C13842  -1.849   5.065   8.661  0.6655 -0.4668  0.0072
  844MOL0     C13843  -1.950   4.991   8.753  0.8861  0.0471  0.3175
  844MOL0     C13844  -2.095   5.039   8.756 -0.8593 -0.5541 -0.1066
  844MOL0     C13845  -2.166   5.025   8.892  0.8210 -0.2943  0.5086
  844MOL0     C13846  -2.306   5.096   8.896 -0.4242 -0.3410  0.3055
  844MOL0     C13847  -2.424   5.004   8.860  0.3230 -0.6270  0.2607
  844MOL0     C13848  -2.541   5.088   8.808  0.5561  0.1279 -0.1311
  844MOL0     C13849  -2.682   5.037   8.819  0.2435 -0.5236 -0.3502
  844MOL0    Cl13850  -2.692   4.865   8.773 -0.2486  0.6820 -0.2460
  844MOL0     C13851  -1.614   5.074   8.848  0.0183 -0.0385  1.1027
  844MOL0     C13852  -1.483   5.086   8.889  0.1742  0.3642 -0.2687
  844MOL0     O13853  -1.192   5.314   8.749 -0.0265 -0.1832  0.1074
  844MOL0     C13854  -0.938   5.323   8.856  0.1281  0.2587  0.6902
  844MOL0     C13855  -0.805   5.305   8.888 -0.9680 -0.4996 -0.1274
  844MOL0     N13856  -0.464   4.647   8.711  0.2146  0.3034  0.2630
  844MOL0     N13857  -0.390   4.542   8.691  0.3423 -0.4799 -0.5909
  844MOL0     C13858   0.918   4.665   8.440  0.5625  0.3526  0.1501
  844MOL0     C13859   1.055   4.656   8.432  0.4166 -0.0667 -0.3881
  844MOL0     C13860   1.490   4.562   8.537  0.0588  0.3836  1.1208
  844MOL0     C13861   1.603   4.642   8.521 -0.1989  0.0436 -0.9060
  844MOL0     C13862   1.727   4.613   8.569  0.5432 -0.2629  1.4089
  844MOL0     C13863   1.750   4.492   8.633  0.0513 -0.6329  0.5997
  844MOL0     O13864   1.868   4.442   8.671 -0.4451  0.2972  0.2837
  844MOL0     C13865   1.970   4.535   8.702 -0.5838 -0.5650 -0.1121
  844MOL0     C13866   2.093   4.472   8.751 -0.5770  0.5497 -0.5759
  844MOL0     C13867   2.084   4.418   8.892 -0.1899 -0.1073  0.7459
  844MOL0     C13868   2.217   4.399   8.963 -0.0821 -0.2604  0.3883
  844MOL0     C13869   2.251   4.527   9.035 -0.5584 -0.2134  0.6610
  844MOL0     C13870   2.299   4.616   9.099 -0.7852  0.6134  0.2302
  844MOL0     C13871   1.642   4.410   8.657  0.2537 -0.2283 -0.1561
  844MOL0     C13872   1.513   4.444   8.602 -0.4927  0.0930 -0.4845
  844MOL0     H13873   1.088   4.388   8.649 -0.0401  0.0164  0.4223
  844MOL0     H13874   0.864   4.377   8.620 -0.8610 -0.8156 -1.5087
  844MOL0     H13875   0.665   4.389   8.462  0.7640  0.9899 -0.9797
  844MOL0     H13876   0.622   4.439   8.625  0.5908  0.0339  0.0780
  844MOL0     H13877   0.451   4.619   8.516 -1.5446 -0.1567  1.4085
  844MOL0     H13878   0.505   4.541   8.364 -4.1377  0.8319  0.0946
  844MOL0     H13879   0.302   4.423   8.405 -1.6297 -0.2925  2.5321
  844MOL0     H13880   0.433   4.323   8.441  1.4321  1.8900 -1.4893
  844MOL0     H13881   0.304   4.287   8.639 -0.0434  0.6041  2.5141
  844MOL0     H13882   0.404   4.422   8.701  1.1043  1.8982 -0.6523
  844MOL0     H13883   0.204   4.513   8.738 -0.4321  0.3578 -0.3568
  844MOL0     H13884   0.214   4.564   8.569 -0.2012  0.0829  0.3479
  844MOL0     H13885   0.062   4.379   8.495 -0.9171 -1.6722  0.8273
  844MOL0     H13886   0.061   4.312   8.652 -0.2312 -1.1864 -2.2536
  844MOL0     H13887  -0.030   4.545   8.737 -1.1175  1.8634 -0.8221
  844MOL0     H13888  -0.004   4.612   8.584 -0.3284 -0.5199 -0.0580
  844MOL0     H13889  -0.195   4.381   8.624  0.6388 -0.4642 -0.3202
  844MOL0     H13890  -0.173   4.479   8.478 -2.2860  1.3979  0.6562
  844MOL0     H13891  -0.216   4.774   8.537  1.4740 -0.2745  2.6396
  844MOL0     H13892  -0.416   4.954   8.575  1.3930  1.3024  2.1409
  844MOL0     H13893  -0.573   4.886   8.620 -1.6881 -1.5940  2.0835
  844MOL0     H13894  -0.345   4.956   8.790  0.4180  1.3464  1.7093
  844MOL0     H13895  -0.474   4.859   8.853  2.3752 -1.5048 -2.3897
  844MOL0     H13896  -0.624   5.078   8.771  0.3724 -1.9009  1.8278
  844MOL0     H13897  -0.483   5.176   8.796  0.8237 -0.0095 -0.4087
  844MOL0     H13898  -0.456   5.095   9.025 -0.0870 -0.4282  1.1681
  844MOL0     H13899  -0.597   4.992   9.015  4.2770 -2.3248 -0.6253
  844MOL0     H13900  -0.814   4.998   9.030  3.2478  2.6760  0.5186
  844MOL0     H13901  -1.044   4.887   8.943 -0.7379 -0.8341 -0.1733
  844MOL0     H13902  -1.163   4.995   9.014 -1.3853  1.6121 -1.2484
  844MOL0     H13903  -1.160   4.982   8.845 -0.0861 -0.0930  0.2461
  844MOL0     H13904  -1.420   5.408   8.816  0.4775 -0.1000  3.3472
  844MOL0     H13905  -1.636   5.403   8.743  0.0181  0.7992  1.9081
  844MOL0     H13906  -1.904   5.100   8.574  1.2725  2.3125  0.6564
  844MOL0     H13907  -1.770   4.998   8.624  0.3050  0.0099 -1.6924
  844MOL0     H13908  -1.953   4.887   8.721 -1.2018  0.5590 -1.3798
  844MOL0     H13909  -1.910   4.994   8.855 -1.1027 -3.4799  1.3803
  844MOL0     H13910  -2.148   4.982   8.680 -0.8488 -0.1907 -0.3887
  844MOL0     H13911  -2.098   5.139   8.711 -2.7307  0.2250  1.5634
  844MOL0     H13912  -2.175   4.918   8.911 -1.0912 -1.0673 -3.7644
  844MOL0     H13913  -2.106   5.071   8.972 -2.9344 -2.0612  4.7858
  844MOL0     H13914  -2.302   5.177   8.822  1.8471 -0.9659 -0.3449
  844MOL0     H13915  -2.324   5.141   8.994 -1.1537  1.5598 -0.6480
  844MOL0     H13916  -2.401   4.933   8.780 -1.4461 -1.2790  0.2788
  844MOL0     H13917  -2.456   4.943   8.946 -2.0094  0.1743  0.0400
  844MOL0     H13918  -2.519   5.097   8.702 -0.1683  1.8208 -0.1597
  844MOL0     H13919  -2.547   5.190   8.847 -1.3879  0.1285 -0.3381
  844MOL0     H13920  -2.748   5.091   8.751 -0.6152 -1.7982 -0.5605
  844MOL0     H13921  -2.702   5.060   8.923 -0.2248  0.4057 -0.6384
  844MOL0     H13922  -1.671   4.982   8.846  1.1057 -0.7439  1.6437
  844MOL0     H13923  -1.446   4.984   8.900 -3.6988 -0.9945  1.9828
  844MOL0     H13924  -0.968   5.421   8.820 -2.1602 -0.2889  0.9144
  844MOL0     H13925  -0.728   5.382   8.879 -0.0072 -1.0213  2.6645
  844MOL0     H13926   0.861   4.740   8.388  1.0047 -1.5071 -3.3295
  844MOL0     H13927   1.104   4.725   8.363  0.1912  1.4389  0.9107
  844MOL0     H13928   1.594   4.728   8.455  2.4044 -1.6615 -3.6931
  844MOL0     H13929   1.808   4.683   8.550  0.4460  0.1139  2.3228
  844MOL0     H13930   2.004   4.584   8.610 -1.7672  1.4225  0.4420
  844MOL0     H13931   1.933   4.612   8.770 -1.4314 -1.6312  0.6580
  844MOL0     H13932   2.182   4.535   8.743  1.2525 -1.8498 -0.2086
  844MOL0     H13933   2.109   4.384   8.687 -2.9231  2.3850 -4.0728
  844MOL0     H13934   2.042   4.317   8.901 -0.1520  0.0112  2.8542
  844MOL0     H13935   2.014   4.484   8.943  0.6055  1.5913 -0.2792
  844MOL0     H13936   2.294   4.384   8.887  0.4186 -1.8061  1.1631
  844MOL0     H13937   2.219   4.317   9.035 -2.0286  0.0021  0.8210
  844MOL0     H13938   2.346   4.701   9.143  1.2731  0.1932 -0.9682
  844MOL0     H13939   1.653   4.312   8.703 -0.7208 -0.7490 -0.9833
  844MOL0     H13940   1.434   4.369   8.601 -0.2816 -0.1295 -1.7592
  845MOL0     O13941   5.500   3.011   5.200 -0.7583 -0.1595  0.0518
  845MOL0     C13942   5.570   3.019   5.102 -0.0409  0.9724  0.9706
  845MOL0     O13943   5.538   2.971   4.979 -0.0916 -0.1618  0.4808
  845MOL0     C13944   5.431   2.893   4.949 -1.0892 -0.2153  0.4291
  845MOL0     C13945   5.306   2.904   5.011  0.3857  0.8658 -0.3837
  845MOL0     C13946   5.205   2.819   4.972  0.7808  0.2805  0.1139
  845MOL0     C13947   5.222   2.719   4.881 -0.1650  0.6925  0.7491
  845MOL0     O13948   5.124   2.637   4.839  0.4054 -0.2208 -0.0237
  845MOL0     C13949   5.042   2.595   4.951 -0.1920  0.1522 -0.0523
  845MOL0     C13950   5.021   2.444   4.942 -0.0736  0.1420 -0.7780
  845MOL0     C13951   4.879   2.402   4.884  0.2112 -0.0993  0.7027
  845MOL0     C13952   4.894   2.402   4.727 -0.4434 -0.6729 -0.7826
  845MOL0     C13953   4.766   2.354   4.658 -0.7361 -0.0448  0.5114
  845MOL0     C13954   4.694   2.227   4.711 -0.3211  0.5007 -0.5182
  845MOL0     C13955   4.552   2.191   4.637 -0.4720 -0.7164  0.6046
  845MOL0     C13956   4.564   2.097   4.523  0.2060  0.4080  0.4502
  845MOL0     N13957   4.434   2.051   4.491  0.7057 -0.0123  0.2956
  845MOL0     C13958   4.332   2.132   4.437  0.1334  0.2875  0.6674
  845MOL0     C13959   4.228   2.051   4.411  1.3335 -0.9765 -1.0074
  845MOL0     C13960   4.095   2.083   4.335 -0.0606 -0.5112  0.3371
  845MOL0     C13961   4.066   2.240   4.335 -0.5602  0.1128 -0.1809
  845MOL0     C13962   3.975   2.268   4.218  0.4494 -0.3790  0.3410
  845MOL0     C13963   3.932   2.410   4.207  1.3256 -0.5620 -0.3871
  845MOL0     O13964   3.857   2.456   4.322  0.1013 -0.6629  0.1130
  845MOL0     C13965   3.720   2.457   4.310 -0.1095  0.5288  0.2738
  845MOL0     C13966   3.662   2.341   4.339  0.2979  0.2832  0.2009
  845MOL0     C13967   3.519   2.326   4.342  0.0390  0.5824  0.4432
  845MOL0     C13968   3.470   2.189   4.377 -0.0671 -0.4405 -0.3405
  845MOL0     C13969   3.440   2.429   4.299 -0.2173 -0.5852 -0.5459
  845MOL0     C13970   3.293   2.420   4.309  1.0541 -0.2966  0.6307
  845MOL0     O13971   3.210   2.461   4.201  0.3894  0.0872 -0.5039
  845MOL0     C13972   3.080   2.459   4.230  0.3758 -0.4333  0.1325
  845MOL0     C13973   3.003   2.389   4.141  0.1702 -0.0227 -0.6081
  845MOL0     C13974   2.871   2.380   4.150  0.5859 -0.5463 -1.1611
  845MOL0     C13975   2.798   2.432   4.262  0.1406  1.2337 -0.8074
  845MOL0     O13976   2.663   2.420   4.287 -0.5300 -0.0750 -0.0065
  845MOL0     C13977   2.603   2.308   4.216 -0.4799 -0.1224 -0.4112
  845MOL0     C13978   2.456   2.288   4.247  0.0181 -0.2702 -0.6847
  845MOL0     C13979   2.438   2.242   4.387  0.4678  0.3626  0.1471
  845MOL0     C13980   2.290   2.251   4.429 -0.8428  0.6178 -0.4125
  845MOL0     C13981   2.278   2.190   4.575  0.4423  0.0366 -0.9474
  845MOL0     C13982   2.137   2.202   4.636  0.2817 -0.1628 -0.4069
  845MOL0     C13983   2.123   2.112   4.763 -0.1933  0.0477  0.0337
  845MOL0     C13984   2.091   1.964   4.724  0.3452  0.2126  0.2525
  845MOL0    Cl13985   1.926   1.925   4.644  0.6413 -0.3297  0.0900
  845MOL0     C13986   2.869   2.505   4.360 -1.3383  0.0687 -0.0112
  845MOL0     C13987   3.012   2.519   4.345 -0.3691  0.0203 -0.7094
  845MOL0     O13988   3.240   2.367   4.414 -0.0186  0.5388 -0.0660
  845MOL0     C13989   3.501   2.545   4.250  0.2907  0.4639  0.5279
  845MOL0     C13990   3.638   2.562   4.260 -0.4325 -0.5015  0.9151
  845MOL0     N13991   4.270   1.929   4.461 -0.3303  0.6353 -0.3298
  845MOL0     N13992   4.378   1.935   4.520 -0.2900 -0.2368 -0.7267
  845MOL0     C13993   5.340   2.715   4.823  0.1941 -0.2147  0.5226
  845MOL0     C13994   5.446   2.791   4.852 -0.0573 -0.2816  0.2070
  845MOL0     C13995   5.704   3.067   5.130 -0.3528 -1.0421 -0.6546
  845MOL0     C13996   5.786   3.085   5.016  0.8694 -0.0996  0.5124
  845MOL0     C13997   5.920   3.135   5.034  0.5611  0.1261 -0.3017
  845MOL0     C13998   5.966   3.151   5.171  0.5217  0.4455  1.2633
  845MOL0     O13999   6.100   3.169   5.194  0.2768  0.2186 -1.0874
  845MOL0     C14000   6.203   3.090   5.122 -0.6800 -0.1508  0.2203
  845MOL0     C14001   6.324   3.072   5.214 -0.6948 -0.2186  0.2787
  845MOL0     C14002   6.440   3.155   5.175 -0.4451 -0.3981  0.7025
  845MOL0     C14003   6.522   3.093   5.062 -0.6697  0.1697  0.4718
  845MOL0     C14004   6.613   3.204   5.000  0.2214 -0.5276  0.9349
  845MOL0     C14005   6.684   3.293   4.951  0.6767  0.7134  0.2388
  845MOL0     C14006   5.885   3.135   5.281 -0.5220 -0.0616  0.8418
  845MOL0     C14007   5.759   3.083   5.261  0.5774 -0.3392  1.0281
  845MOL0     H14008   5.279   2.986   5.077 -1.2179  2.0610 -2.4024
  845MOL0     H14009   5.110   2.835   5.022  0.2985  0.9275 -0.9754
  845MOL0     H14010   5.084   2.617   5.050 -2.2244  0.3139  0.8278
  845MOL0     H14011   4.955   2.661   4.959 -1.0379 -0.9019 -0.2671
  845MOL0     H14012   5.110   2.404   4.892 -0.4034 -4.3542  1.7300
  845MOL0     H14013   5.034   2.402   5.042  2.4270 -1.5107 -1.6823
  845MOL0     H14014   4.845   2.305   4.920 -1.5395 -0.1997 -1.0549
  845MOL0     H14015   4.803   2.473   4.920  0.0147  1.6062 -2.7254
  845MOL0     H14016   4.917   2.503   4.690  0.4795 -1.0845 -1.3577
  845MOL0     H14017   4.982   2.350   4.688  0.4006 -0.5149  0.8313
  845MOL0     H14018   4.689   2.431   4.667 -0.8333  0.1396 -1.4979
  845MOL0     H14019   4.788   2.341   4.552  2.2209  2.3580  0.6699
  845MOL0     H14020   4.765   2.144   4.716 -0.8993 -0.0009 -0.6152
  845MOL0     H14021   4.656   2.241   4.812 -1.7031  3.6240 -1.3534
  845MOL0     H14022   4.499   2.132   4.713  0.7315 -1.8354  0.6217
  845MOL0     H14023   4.500   2.286   4.630 -0.5531 -0.7485  0.7613
  845MOL0     H14024   4.634   2.022   4.562 -0.2345  0.5532  1.5455
  845MOL0     H14025   4.607   2.153   4.439  0.4574 -1.7528 -0.9343
  845MOL0     H14026   4.338   2.235   4.405 -1.0081  0.2080  0.1730
  845MOL0     H14027   4.103   2.053   4.230 -1.6302  0.0080  0.0331
  845MOL0     H14028   4.014   2.027   4.384 -0.9851  1.1643  0.7973
  845MOL0     H14029   4.151   2.308   4.326 -1.6333  1.6122  0.5299
  845MOL0     H14030   4.011   2.269   4.425  0.1214  2.8136 -0.5512
  845MOL0     H14031   3.887   2.204   4.228  1.3490 -2.6390 -3.9739
  845MOL0     H14032   4.025   2.247   4.123 -0.5528 -0.6736 -0.1348
  845MOL0     H14033   3.870   2.418   4.118 -1.8017 -0.4043  1.6366
  845MOL0     H14034   4.021   2.472   4.194  1.0406  0.2075  1.0706
  845MOL0     H14035   3.720   2.259   4.379  0.2797  0.2341  0.1269
  845MOL0     H14036   3.542   2.123   4.329  1.1710  0.0466  0.7780
  845MOL0     H14037   3.464   2.184   4.486  0.2915  1.6261 -0.1833
  845MOL0     H14038   3.374   2.164   4.331  0.3331  1.5768 -2.4442
  845MOL0     H14039   3.064   2.346   4.062  1.2501  0.5673 -0.1278
  845MOL0     H14040   2.810   2.339   4.070 -2.1550 -2.3447  1.6150
  845MOL0     H14041   2.624   2.307   4.108  6.3274 -2.6610  0.4199
  845MOL0     H14042   2.663   2.222   4.244  0.6854  0.1959 -1.7883
  845MOL0     H14043   2.403   2.380   4.219  0.4329  0.7263  1.6560
  845MOL0     H14044   2.415   2.205   4.189 -2.7961  0.3986  0.1827
  845MOL0     H14045   2.500   2.300   4.457  1.8712  0.3331 -1.0360
  845MOL0     H14046   2.470   2.138   4.401  0.0504  0.5442  3.4085
  845MOL0     H14047   2.247   2.351   4.437  1.7383  1.9269 -1.6260
  845MOL0     H14048   2.235   2.188   4.359  1.2042  0.1230 -1.6774
  845MOL0     H14049   2.352   2.249   4.630  0.3336 -0.6117 -0.0766
  845MOL0     H14050   2.305   2.083   4.574 -1.8870 -0.7302  2.3008
  845MOL0     H14051   2.133   2.311   4.650  0.7797 -0.0495 -1.1075
  845MOL0     H14052   2.055   2.176   4.568 -1.2886  3.7106 -0.2393
  845MOL0     H14053   2.049   2.144   4.837  0.0773 -2.4201  1.5022
  845MOL0     H14054   2.217   2.096   4.816 -0.7456 -0.1210  0.9812
  845MOL0     H14055   2.092   1.906   4.817  0.7069 -2.3725 -1.2692
  845MOL0     H14056   2.174   1.926   4.664 -1.6131  0.9139 -3.1626
  845MOL0     H14057   2.821   2.528   4.454  0.7619 -1.9445  1.6486
  845MOL0     H14058   3.072   2.577   4.415  1.6898  1.4844 -3.4754
  845MOL0     H14059   3.443   2.617   4.194  0.0637  0.8638  1.2622
  845MOL0     H14060   3.691   2.651   4.227 -1.2780  0.3260  1.7172
  845MOL0     H14061   5.356   2.643   4.744 -4.6937  2.1366 -3.1723
  845MOL0     H14062   5.546   2.781   4.812  0.9093 -2.8828  2.8910
  845MOL0     H14063   5.758   3.060   4.914  0.2887  0.5521  0.5059
  845MOL0     H14064   5.982   3.149   4.947 -0.3121 -0.8420 -1.0946
  845MOL0     H14065   6.162   2.994   5.090 -2.3136  0.5475  0.1016
  845MOL0     H14066   6.229   3.148   5.033  2.9798 -1.5672  0.2063
  845MOL0     H14067   6.353   2.966   5.214 -0.5031 -0.1873 -1.0209
  845MOL0     H14068   6.300   3.105   5.316 -2.4039  0.0105 -0.1681
  845MOL0     H14069   6.512   3.172   5.256  1.8886  0.2375 -1.3789
  845MOL0     H14070   6.407   3.254   5.145 -1.6202  0.0870  3.2753
  845MOL0     H14071   6.468   3.048   4.978  2.9161 -0.4689 -1.6871
  845MOL0     H14072   6.577   3.004   5.092 -1.7506 -2.4795 -4.3491
  845MOL0     H14073   6.739   3.376   4.913  0.8939  0.6474  0.4051
  845MOL0     H14074   5.928   3.144   5.380  0.0967  0.5442  0.5296
  845MOL0     H14075   5.694   3.066   5.346  2.8400 -0.1313  2.9265
  846MOL0     O14076   3.985   3.776  10.366 -0.1548 -0.4253  0.3213
  846MOL0     C14077   4.093   3.773  10.420  0.2850 -0.0850 -0.8318
  846MOL0     O14078   4.113   3.818  10.543 -0.2158  0.5955 -0.2202
  846MOL0     C14079   4.005   3.844  10.624 -0.5829 -0.7707  0.2065
  846MOL0     C14080   4.026   3.946  10.727 -0.5392 -0.9266 -0.4055
  846MOL0     C14081   3.929   3.972  10.819  0.1670 -0.3420 -1.0282
  846MOL0     C14082   3.820   3.889  10.817 -0.4331  1.3004  0.4827
  846MOL0     O14083   3.721   3.880  10.905  0.4573 -0.6531 -0.2338
  846MOL0     C14084   3.658   4.010  10.942  0.2455 -0.0785  0.5062
  846MOL0     C14085   3.516   3.974  10.985 -1.4873 -0.3261 -0.5968
  846MOL0     C14086   3.503   3.857  11.083  0.3991  0.1351  0.5236
  846MOL0     C14087   3.352   3.825  11.093  0.1922  0.6179  0.3828
  846MOL0     C14088   3.330   3.706  11.190 -0.8073  0.4017 -0.3505
  846MOL0     C14089   3.181   3.702  11.227 -0.2141  0.7046  0.2977
  846MOL0     C14090   3.173   3.595  11.343  0.1009 -0.5952 -0.3820
  846MOL0     C14091   3.045   3.609  11.429 -0.8015  0.7531  0.4485
  846MOL0     N14092   3.051   3.716  11.529  0.2315 -0.2329  0.2555
  846MOL0     C14093   3.002   3.838  11.500  0.0520  0.3755 -0.6536
  846MOL0     C14094   2.994   3.903  11.613 -0.7259 -0.1105 -0.4460
  846MOL0     C14095   2.937   4.049  11.642 -0.5182 -0.9274  0.6061
  846MOL0     C14096   2.784   4.071  11.649  0.6402  0.5027  0.3441
  846MOL0     C14097   2.720   4.072  11.511  0.0586 -0.2792  0.5935
  846MOL0     C14098   2.573   4.093  11.524  0.1475  1.1800 -0.3654
  846MOL0     O14099   2.508   4.035  11.408 -0.2573  0.0925 -0.0334
  846MOL0     C14100   2.380   4.064  11.382 -0.2038 -1.0872  0.0010
  846MOL0     C14101   2.296   3.968  11.320 -0.2796 -0.2730 -0.1070
  846MOL0     C14102   2.157   3.958  11.325  0.2494 -0.4033 -0.6019
  846MOL0     C14103   2.079   3.835  11.267 -0.2789 -0.4821  0.1561
  846MOL0     C14104   2.095   4.069  11.403  0.1490  0.3374 -0.5639
  846MOL0     C14105   1.947   4.080  11.445  0.1243  0.9660  0.8424
  846MOL0     O14106   1.862   3.974  11.417  0.2879 -0.2135 -0.9461
  846MOL0     C14107   1.750   3.976  11.493 -0.4548 -0.4616  0.0898
  846MOL0     C14108   1.736   3.983  11.634  0.1451  0.6887  0.0349
  846MOL0     C14109   1.607   3.970  11.690 -0.9319  0.0469 -0.6917
  846MOL0     C14110   1.491   3.982  11.616  0.5216 -0.2356 -0.5950
  846MOL0     O14111   1.373   3.976  11.684  0.0872  0.1097  0.2537
  846MOL0     C14112   1.250   3.963  11.607 -0.8386  0.2268 -0.1034
  846MOL0     C14113   1.181   4.103  11.586 -0.0243 -1.1839  0.2467
  846MOL0     C14114   1.033   4.108  11.557  0.7287 -0.1257  0.5677
  846MOL0     C14115   0.986   4.256  11.529  0.2350 -0.0659  0.0375
  846MOL0     C14116   1.005   4.298  11.383 -0.6792 -0.3421 -0.0836
  846MOL0     C14117   1.001   4.447  11.356  0.4312 -0.2259  0.6943
  846MOL0     C14118   1.105   4.524  11.432 -0.2314 -0.1613  1.6669
  846MOL0     C14119   1.141   4.655  11.371 -0.2454 -0.6260  0.0853
  846MOL0    Cl14120   1.288   4.746  11.432 -0.1725  0.6304  0.3328
  846MOL0     C14121   1.503   3.983  11.479 -0.5853  0.4779 -0.3394
  846MOL0     C14122   1.634   3.981  11.424 -0.1086  0.3939  0.1586
  846MOL0     O14123   1.912   4.178  11.512 -0.4817 -0.5115 -0.3470
  846MOL0     C14124   2.179   4.181  11.431  0.5074 -0.6713  0.2509
  846MOL0     C14125   2.317   4.180  11.424  0.1968 -1.1587 -0.2217
  846MOL0     N14126   3.060   3.826  11.712 -0.4829  1.0241  1.3727
  846MOL0     N14127   3.075   3.705  11.659  0.1736  0.0635 -0.0579
  846MOL0     C14128   3.799   3.791  10.717  0.5493  0.4585 -0.0291
  846MOL0     C14129   3.892   3.766  10.619 -0.3242 -0.1447  0.5092
  846MOL0     C14130   4.211   3.760  10.342  1.0810  0.2440  0.2128
  846MOL0     C14131   4.327   3.816  10.391  0.1996  0.0971  0.2355
  846MOL0     C14132   4.434   3.841  10.306  0.5247  0.3389  0.6157
  846MOL0     C14133   4.428   3.792  10.176 -0.2322  0.7607 -0.3235
  846MOL0     O14134   4.526   3.813  10.082  0.5125  0.6751 -0.4800
  846MOL0     C14135   4.643   3.884  10.130 -0.1013  0.0116 -0.3278
  846MOL0     C14136   4.765   3.862  10.051 -0.9539  0.0390 -0.1528
  846MOL0     C14137   4.839   3.730  10.075 -0.0422 -0.9612 -0.7692
  846MOL0     C14138   4.967   3.737  10.001  0.1512 -0.4870 -0.8680
  846MOL0     C14139   5.025   3.600   9.997 -0.2305 -0.2408 -0.0750
  846MOL0     C14140   5.079   3.491   9.982 -0.3827 -0.7649  0.1950
  846MOL0     C14141   4.314   3.733  10.123 -0.1875 -0.0286  0.4233
  846MOL0     C14142   4.198   3.717  10.203 -0.2721 -0.0146  0.1238
  846MOL0     H14143   4.107   4.018  10.723 -1.1053 -0.2223  0.3868
  846MOL0     H14144   3.929   4.056  10.887 -1.2244 -1.1322 -0.0063
  846MOL0     H14145   3.700   4.049  11.035  0.6339 -0.7577  0.6256
  846MOL0     H14146   3.667   4.085  10.863 -2.6009  2.0367  1.9793
  846MOL0     H14147   3.470   4.057  11.040  0.5757 -0.7358  1.9432
  846MOL0     H14148   3.450   3.955  10.900  0.3535  0.3549 -2.2346
  846MOL0     H14149   3.557   3.766  11.054 -0.3914 -0.6016  1.3162
  846MOL0     H14150   3.553   3.896  11.173 -1.5203 -1.7956  2.5592
  846MOL0     H14151   3.305   3.917  11.128 -0.2708  1.5004 -2.3156
  846MOL0     H14152   3.310   3.794  10.997 -0.6049  0.7281  0.6896
  846MOL0     H14153   3.362   3.610  11.149 -0.9254 -1.1971  2.9697
  846MOL0     H14154   3.388   3.718  11.282  0.4445  1.1571 -1.2001
  846MOL0     H14155   3.154   3.806  11.247 -2.1168  0.0441  1.4280
  846MOL0     H14156   3.123   3.660  11.144 -1.1593  0.0312  1.2745
  846MOL0     H14157   3.164   3.497  11.294 -1.3158 -0.1256 -1.1401
  846MOL0     H14158   3.262   3.590  11.407  1.4013  3.1452 -1.6449
  846MOL0     H14159   3.035   3.516  11.486  0.3821  0.6778  0.5542
  846MOL0     H14160   2.963   3.624  11.358 -0.0238  0.8514 -0.4511
  846MOL0     H14161   2.970   3.879  11.405 -0.1593 -0.6248 -1.0311
  846MOL0     H14162   2.984   4.101  11.726 -1.1597  2.5806 -1.0590
  846MOL0     H14163   2.972   4.112  11.560 -1.2555 -0.4654  0.6287
  846MOL0     H14164   2.773   4.165  11.703 -1.2416  1.7210 -1.9780
  846MOL0     H14165   2.727   4.000  11.710 -0.1836  1.3692  0.6086
  846MOL0     H14166   2.730   3.979  11.456  0.9454 -0.5876  1.2493
  846MOL0     H14167   2.771   4.145  11.447  1.4189 -2.4021 -0.8642
  846MOL0     H14168   2.554   4.200  11.532 -1.3390  1.1082 -2.2613
  846MOL0     H14169   2.540   4.036  11.612 -1.5276  2.4652 -0.1120
  846MOL0     H14170   2.359   3.889  11.280  1.3620  1.8468 -1.9173
  846MOL0     H14171   1.975   3.861  11.247  0.2327  3.7319  1.9245
  846MOL0     H14172   2.109   3.801  11.167  4.6077  0.2997  1.1084
  846MOL0     H14173   2.094   3.754  11.340  1.3199  1.7021  2.4230
  846MOL0     H14174   1.824   3.996  11.696  0.1094  0.7573  0.0704
  846MOL0     H14175   1.606   3.976  11.798  0.0968  1.3282 -0.7391
  846MOL0     H14176   1.257   3.918  11.507  0.9078  1.1911 -0.4530
  846MOL0     H14177   1.188   3.899  11.670  0.2777 -0.5455  0.2586
  846MOL0     H14178   1.194   4.174  11.667  1.5075  1.5286 -2.1914
  846MOL0     H14179   1.224   4.145  11.494  1.7647 -3.5635 -0.1050
  846MOL0     H14180   0.989   4.075  11.652  0.7158 -2.6332 -0.2215
  846MOL0     H14181   1.007   4.034  11.481 -0.0749  1.4461 -0.7381
  846MOL0     H14182   0.879   4.266  11.550 -0.3245 -1.4178 -1.9505
  846MOL0     H14183   1.033   4.321  11.604  0.1734  1.7328 -1.4054
  846MOL0     H14184   0.926   4.256  11.321  0.6202 -0.9134 -1.4298
  846MOL0     H14185   1.091   4.245  11.339 -0.3024  0.3003 -0.1368
  846MOL0     H14186   1.018   4.465  11.249 -0.8880  0.4589  0.5635
  846MOL0     H14187   0.901   4.484  11.380  0.2408 -1.7107  2.3700
  846MOL0     H14188   1.195   4.463  11.449  0.0114  0.0864  1.3053
  846MOL0     H14189   1.066   4.560  11.527 -1.8736 -1.1038  1.3725
  846MOL0     H14190   1.055   4.719  11.392  0.8055  0.9350 -0.1566
  846MOL0     H14191   1.159   4.643  11.264 -3.0145 -1.4030 -0.3617
  846MOL0     H14192   1.425   3.979  11.404  1.1679  0.7073 -2.2598
  846MOL0     H14193   1.643   3.997  11.317  1.6299  0.1324  0.2420
  846MOL0     H14194   2.137   4.267  11.482 -0.5471 -1.8822  1.4840
  846MOL0     H14195   2.370   4.264  11.468  1.1073 -1.8096 -0.0378
  846MOL0     H14196   3.706   3.737  10.712 -0.3569  1.9776 -0.1083
  846MOL0     H14197   3.878   3.674  10.563 -2.4622 -1.1004  2.4336
  846MOL0     H14198   4.350   3.860  10.487  0.6211  0.6915 -0.1304
  846MOL0     H14199   4.511   3.912  10.333  0.1769  1.0745 -0.2681
  846MOL0     H14200   4.608   3.987  10.125 -0.3786 -0.0240  0.6715
  846MOL0     H14201   4.666   3.853  10.232  0.2870 -2.8722 -1.1879
  846MOL0     H14202   4.825   3.950  10.076 -0.1812 -0.6117  0.3192
  846MOL0     H14203   4.752   3.860   9.942  0.2862  2.4464 -0.4309
  846MOL0     H14204   4.780   3.645  10.041 -1.1564 -0.7690  0.6363
  846MOL0     H14205   4.863   3.735  10.182  1.9278  0.9056 -1.2184
  846MOL0     H14206   5.041   3.808  10.039 -0.9982 -0.5684  1.7498
  846MOL0     H14207   4.942   3.766   9.898 -2.5425 -1.3174 -0.5365
  846MOL0     H14208   5.119   3.392   9.970  2.0404 -0.3688  3.6299
  846MOL0     H14209   4.315   3.709  10.017 -1.5571  2.2582 -0.1847
  846MOL0     H14210   4.107   3.671  10.168 -0.6754 -0.1923  1.3453
  847MOL0     O14211   9.167   8.578   1.647 -0.1566  0.7268 -0.4545
  847MOL0     C14212   9.190   8.470   1.595  0.0683  1.0255  0.5544
  847MOL0     O14213   9.305   8.436   1.542 -0.3726  0.0644 -0.0160
  847MOL0     C14214   9.404   8.533   1.533 -0.4783  0.0669  0.5865
  847MOL0     C14215   9.466   8.577   1.641  0.1367  0.3366 -0.3715
  847MOL0     C14216   9.564   8.681   1.639 -0.4561  0.3046 -0.2837
  847MOL0     C14217   9.626   8.714   1.518  0.8483  0.2381 -0.2039
  847MOL0     O14218   9.745   8.794   1.507  0.6538  0.2217  0.1948
  847MOL0     C14219   9.789   8.870   1.618  0.0094  0.7478  0.2658
  847MOL0     C14220   9.694   8.986   1.637 -0.0970 -0.5521  0.3992
  847MOL0     C14221   9.677   9.018   1.783  0.2374 -0.6680  0.1414
  847MOL0     C14222   9.644   9.161   1.801 -0.0661 -0.5407 -0.4479
  847MOL0     C14223   9.585   9.187   1.942 -0.0929 -1.3150 -0.5859
  847MOL0     C14224   9.502   9.314   1.950  0.7910 -0.5823  1.1271
  847MOL0     C14225   9.487   9.381   2.087 -0.3278  0.3252  1.3588
  847MOL0     C14226   9.437   9.285   2.199 -0.4488 -0.4635 -0.1351
  847MOL0     N14227   9.290   9.258   2.203  0.4149  0.0360  0.4694
  847MOL0     C14228   9.204   9.302   2.299  0.6002 -0.6393 -0.8080
  847MOL0     C14229   9.082   9.249   2.274 -1.1016  1.5182  0.4259
  847MOL0     C14230   8.965   9.290   2.351  0.3284  0.5318 -0.0858
  847MOL0     C14231   8.838   9.262   2.270  0.7470  0.5524 -0.3405
  847MOL0     C14232   8.723   9.349   2.325 -0.2831 -0.8093 -0.3206
  847MOL0     C14233   8.673   9.312   2.457 -0.2227 -0.6301  0.3242
  847MOL0     O14234   8.580   9.200   2.425 -0.9957  1.1130  0.0020
  847MOL0     C14235   8.446   9.214   2.447 -0.0750  0.0706  0.1073
  847MOL0     C14236   8.385   9.288   2.551 -0.4936 -0.0571 -0.3987
  847MOL0     C14237   8.242   9.281   2.575  0.6429 -0.7608  0.5834
  847MOL0     C14238   8.181   9.363   2.689  0.7570  0.2710  0.1068
  847MOL0     C14239   8.164   9.208   2.476  0.5741  0.4514 -0.0879
  847MOL0     C14240   8.016   9.212   2.479 -0.8660  0.9284  0.3045
  847MOL0     O14241   7.959   9.177   2.356 -0.6399  0.0086  0.6931
  847MOL0     C14242   7.825   9.167   2.343  0.6032 -0.2759 -1.5556
  847MOL0     C14243   7.773   9.052   2.280 -0.0609 -0.3262 -0.4925
  847MOL0     C14244   7.640   9.021   2.253 -0.1199  0.6887 -0.7130
  847MOL0     C14245   7.549   9.128   2.280 -0.5091 -0.1302  0.1400
  847MOL0     O14246   7.413   9.110   2.255 -0.2103  0.1558 -0.3287
  847MOL0     C14247   7.359   8.980   2.219  0.1181  0.8098  0.8080
  847MOL0     C14248   7.201   8.982   2.201  0.2201  0.3062  0.9024
  847MOL0     C14249   7.135   8.987   2.346  0.1205  1.0805 -0.2266
  847MOL0     C14250   6.989   9.009   2.347 -0.2249 -0.5825 -0.1329
  847MOL0     C14251   6.957   9.157   2.364 -0.3953 -0.2733  0.0001
  847MOL0     C14252   6.821   9.182   2.420  0.0390 -0.4295 -1.1945
  847MOL0     C14253   6.797   9.187   2.569  0.1794 -0.4616  0.0765
  847MOL0     C14254   6.653   9.237   2.597  0.0306 -0.2333  0.6143
  847MOL0    Cl14255   6.528   9.118   2.605 -0.2369  0.4267 -0.3787
  847MOL0     C14256   7.593   9.241   2.352 -0.1108  0.5267  0.2467
  847MOL0     C14257   7.733   9.269   2.380 -0.1755 -0.0992  0.0389
  847MOL0     O14258   7.952   9.219   2.581 -0.2180  0.1700 -0.2393
  847MOL0     C14259   8.229   9.136   2.369 -0.8181  0.4165 -0.8423
  847MOL0     C14260   8.371   9.137   2.358 -0.0721  0.4523  0.2261
  847MOL0     N14261   9.090   9.176   2.151 -0.1729  0.0904  0.1052
  847MOL0     N14262   9.218   9.172   2.117  0.0293  0.1809 -0.2922
  847MOL0     C14263   9.570   8.665   1.398 -0.7726 -0.5001 -1.0126
  847MOL0     C14264   9.459   8.576   1.413 -0.7185  1.0055 -0.0600
  847MOL0     C14265   9.086   8.368   1.603 -1.3998  0.3915 -0.2167
  847MOL0     C14266   9.087   8.249   1.530 -0.6792  0.0455 -0.2361
  847MOL0     C14267   8.974   8.171   1.507  0.4116  0.2337 -0.9855
  847MOL0     C14268   8.860   8.195   1.573  0.3591 -0.8292 -0.6300
  847MOL0     O14269   8.745   8.124   1.543  0.3331  0.1502  0.0803
  847MOL0     C14270   8.757   8.018   1.452 -0.8426  1.0100 -0.1280
  847MOL0     C14271   8.635   7.950   1.407  0.2779  0.5582  0.8401
  847MOL0     C14272   8.537   7.906   1.520 -0.1134 -0.4060 -0.4599
  847MOL0     C14273   8.397   7.896   1.466 -0.0653  0.2086  0.5517
  847MOL0     C14274   8.308   7.857   1.574 -0.2695  0.6938 -0.7918
  847MOL0     C14275   8.232   7.818   1.658  0.3656 -0.0186  0.6234
  847MOL0     C14276   8.848   8.309   1.657  0.0849  0.3614 -0.0550
  847MOL0     C14277   8.959   8.396   1.663  0.5076 -0.1651 -0.2886
  847MOL0     H14278   9.430   8.542   1.737  1.9632  0.3372  0.3563
  847MOL0     H14279   9.598   8.717   1.735  3.4056  3.3935 -2.4930
  847MOL0     H14280   9.797   8.807   1.707  1.8934 -0.4713 -0.7050
  847MOL0     H14281   9.891   8.903   1.595  0.4489 -1.6056 -1.5172
  847MOL0     H14282   9.733   9.068   1.576 -3.5756  1.1047  0.1660
  847MOL0     H14283   9.596   8.966   1.593  0.2341 -1.9051  0.2351
  847MOL0     H14284   9.609   8.948   1.832  1.0840 -1.4716  0.2173
  847MOL0     H14285   9.769   9.002   1.841  0.1208  0.9890  0.8484
  847MOL0     H14286   9.730   9.221   1.770 -0.7076  0.3932 -0.4512
  847MOL0     H14287   9.562   9.185   1.732 -0.9112 -3.8620 -0.7658
  847MOL0     H14288   9.528   9.099   1.972 -0.0802 -0.9291  0.6244
  847MOL0     H14289   9.670   9.193   2.012  1.2029  1.2665 -2.2336
  847MOL0     H14290   9.546   9.387   1.882  1.8434 -1.2516  1.0628
  847MOL0     H14291   9.406   9.282   1.908  0.8285  1.7649 -0.9513
  847MOL0     H14292   9.590   9.407   2.112  0.5431 -2.7525  1.3812
  847MOL0     H14293   9.435   9.478   2.085  1.4858  1.3880  2.8056
  847MOL0     H14294   9.467   9.334   2.292  1.8828 -0.1116 -1.0103
  847MOL0     H14295   9.489   9.188   2.190  0.9682  0.2891 -0.3542
  847MOL0     H14296   9.231   9.359   2.387  2.7610 -1.9333 -0.5736
  847MOL0     H14297   8.967   9.228   2.441  0.5832 -0.5284 -0.7969
  847MOL0     H14298   8.976   9.393   2.385  1.1522  0.3351  0.2917
  847MOL0     H14299   8.816   9.155   2.275  2.1781  0.3031  2.2316
  847MOL0     H14300   8.854   9.296   2.167 -0.1668  1.7589 -0.1097
  847MOL0     H14301   8.643   9.372   2.253 -2.8745  0.8416  2.7584
  847MOL0     H14302   8.771   9.447   2.335  0.1476 -0.9344 -1.0693
  847MOL0     H14303   8.638   9.404   2.506  2.4158  0.2319  0.7198
  847MOL0     H14304   8.757   9.276   2.517 -0.3764  1.1233  1.6697
  847MOL0     H14305   8.451   9.352   2.608 -0.7295  1.8004 -2.0878
  847MOL0     H14306   8.248   9.437   2.733  0.1869 -0.1672  1.7714
  847MOL0     H14307   8.092   9.414   2.649  2.4617  2.5320 -1.0909
  847MOL0     H14308   8.156   9.294   2.770  1.7525 -2.6368 -1.9117
  847MOL0     H14309   7.839   8.974   2.242  0.7581  0.2769 -0.3262
  847MOL0     H14310   7.604   8.924   2.220  0.2257  0.2147  0.2600
  847MOL0     H14311   7.402   8.956   2.121  0.9719  1.0764  1.1059
  847MOL0     H14312   7.376   8.900   2.292 -0.6296  0.2415  0.3705
  847MOL0     H14313   7.166   9.067   2.142 -1.2878 -0.9413 -0.0732
  847MOL0     H14314   7.164   8.891   2.153 -1.5533 -1.7137  5.5324
  847MOL0     H14315   7.183   9.050   2.422  0.5083  1.3849 -0.7113
  847MOL0     H14316   7.148   8.886   2.386 -1.3609  1.2882  0.8776
  847MOL0     H14317   6.941   8.961   2.261 -3.5893 -1.0220  1.7716
  847MOL0     H14318   6.946   8.954   2.432  1.1515  0.9327  1.6209
  847MOL0     H14319   6.964   9.196   2.262  1.0227 -1.1593 -0.2767
  847MOL0     H14320   7.031   9.213   2.422 -0.3796  2.0750 -2.1341
  847MOL0     H14321   6.805   9.287   2.392  0.7975 -0.1386 -0.5784
  847MOL0     H14322   6.748   9.125   2.363 -0.2135 -0.8857 -0.4208
  847MOL0     H14323   6.871   9.257   2.608  0.1985 -2.0451  3.2290
  847MOL0     H14324   6.818   9.088   2.611 -0.7851 -1.0490 -0.7907
  847MOL0     H14325   6.619   9.314   2.527 -1.3561 -0.1474  1.3479
  847MOL0     H14326   6.655   9.274   2.700 -0.5427  1.6833 -0.0200
  847MOL0     H14327   7.515   9.311   2.380  1.6794  2.1794  1.2879
  847MOL0     H14328   7.775   9.344   2.445  0.6352 -0.6339  0.1442
  847MOL0     H14329   8.164   9.104   2.289 -2.4191 -1.7130  1.1685
  847MOL0     H14330   8.412   9.079   2.276 -0.1374  2.7307 -1.5210
  847MOL0     H14331   9.620   8.684   1.303  0.7812 -0.4359 -0.2108
  847MOL0     H14332   9.437   8.521   1.322  3.2697  1.8910 -1.7491
  847MOL0     H14333   9.179   8.233   1.474  0.1021  1.4355  0.5958
  847MOL0     H14334   8.975   8.096   1.429 -1.9910 -1.7617  0.7210
  847MOL0     H14335   8.808   8.052   1.362  0.4989  1.8014  0.8901
  847MOL0     H14336   8.816   7.939   1.501 -0.3251  2.1731  1.1827
  847MOL0     H14337   8.659   7.860   1.349 -2.0337  1.3989 -1.6122
  847MOL0     H14338   8.579   8.015   1.339 -2.3301 -1.9477  0.4313
  847MOL0     H14339   8.549   7.976   1.603  0.7164 -2.0130  0.8507
  847MOL0     H14340   8.564   7.808   1.562  0.1069 -0.8012 -1.4838
  847MOL0     H14341   8.395   7.814   1.394  2.6258 -1.0852  1.8241
  847MOL0     H14342   8.361   7.993   1.429  0.9736  1.1808  1.9895
  847MOL0     H14343   8.170   7.784   1.739 -2.2145 -0.3610 -1.3618
  847MOL0     H14344   8.755   8.343   1.701 -0.4279 -1.2431  0.1665
  847MOL0     H14345   8.947   8.484   1.726  2.2917 -0.0389 -0.0737
  848MOL0     O14346  11.195   2.279   0.043 -0.0729 -0.3025 -0.2841
  848MOL0     C14347  11.176   2.377  -0.032 -0.0535  0.4694 -0.0385
  848MOL0     O14348  11.266   2.462  -0.081  0.1746  0.6180  0.4783
  848MOL0     C14349  11.395   2.453  -0.056  0.3519 -0.5514  0.3163
  848MOL0     C14350  11.468   2.333  -0.028 -0.2503 -0.4147 -1.4833
  848MOL0     C14351  11.612   2.342  -0.011 -0.4828 -0.2284 -1.0971
  848MOL0     C14352  11.674   2.465  -0.030 -0.5752 -0.1218  0.3184
  848MOL0     O14353  11.809   2.489  -0.002  0.3720  0.3001  0.1929
  848MOL0     C14354  11.893   2.400  -0.067 -0.3816 -0.1354  0.7187
  848MOL0     C14355  12.039   2.461  -0.066  0.5813 -0.3432 -0.1487
  848MOL0     C14356  12.053   2.600  -0.115  0.6931  0.1628 -0.5122
  848MOL0     C14357  12.206   2.638  -0.117  0.6945  0.3232  0.0305
  848MOL0     C14358  12.220   2.767  -0.191 -1.1656  0.3368 -0.7951
  848MOL0     C14359  12.183   2.893  -0.106 -0.6243 -0.4416  0.4723
  848MOL0     C14360  12.240   3.029  -0.166  0.6978 -0.6238  0.5543
  848MOL0     C14361  12.208   3.046  -0.311  0.0529 -0.5952 -0.0021
  848MOL0     N14362  12.062   3.055  -0.347  0.0371 -0.6830 -0.4900
  848MOL0     C14363  11.977   2.952  -0.362  0.3487 -0.0923  0.6321
  848MOL0     C14364  11.857   3.017  -0.355 -0.3864  1.3642  0.2975
  848MOL0     C14365  11.727   2.942  -0.360  0.3114  0.3355  0.0372
  848MOL0     C14366  11.637   2.993  -0.235 -0.2765 -0.3228  1.1221
  848MOL0     C14367  11.494   2.943  -0.237 -0.3685  0.5702  0.2817
  848MOL0     C14368  11.417   3.016  -0.127  0.2806  0.8826 -0.3485
  848MOL0     O14369  11.272   2.996  -0.142 -0.0516  0.5884 -0.1966
  848MOL0     C14370  11.189   3.049  -0.047  0.3930  0.0181 -0.2722
  848MOL0     C14371  11.068   2.994  -0.010 -0.3287 -1.1959  0.9475
  848MOL0     C14372  10.971   3.061   0.071  0.6882  0.2025 -0.5287
  848MOL0     C14373  10.834   3.001   0.108 -0.3937 -0.0003  0.1398
  848MOL0     C14374  11.004   3.188   0.135  1.1115  0.2872  0.0526
  848MOL0     C14375  10.894   3.268   0.216  0.2013  0.4908  0.1771
  848MOL0     O14376  10.932   3.397   0.232  0.4515 -0.2978  0.4080
  848MOL0     C14377  10.853   3.483   0.303 -0.0483 -0.0837 -0.4705
  848MOL0     C14378  10.856   3.615   0.257 -0.1947 -0.4505  0.8202
  848MOL0     C14379  10.783   3.715   0.318  0.2155 -0.3582  0.6945
  848MOL0     C14380  10.697   3.687   0.430  0.1175 -0.1312  0.3498
  848MOL0     O14381  10.627   3.776   0.507 -0.5850  0.3353  0.5013
  848MOL0     C14382  10.572   3.897   0.450  0.7174 -0.2663 -0.0336
  848MOL0     C14383  10.468   3.967   0.545  0.6848 -0.1728 -0.8766
  848MOL0     C14384  10.357   3.871   0.604 -0.6789 -0.2862 -0.0926
  848MOL0     C14385  10.214   3.919   0.582 -0.6308 -0.6252 -0.0628
  848MOL0     C14386  10.128   3.808   0.638  0.4719  0.4383 -0.1755
  848MOL0     C14387   9.982   3.842   0.631  0.4271 -0.8732  0.1715
  848MOL0     C14388   9.886   3.732   0.674  0.0650 -0.2784 -0.5252
  848MOL0     C14389   9.760   3.800   0.727 -1.0697  1.2811  0.1551
  848MOL0    Cl14390   9.651   3.663   0.755 -0.1133  0.1532 -0.4217
  848MOL0     C14391  10.690   3.553   0.475  0.0343 -0.0729 -0.1825
  848MOL0     C14392  10.776   3.456   0.423 -0.1412  0.1243  0.0977
  848MOL0     O14393  10.807   3.210   0.281  0.8645 -0.3429  0.1285
  848MOL0     C14394  11.125   3.239   0.112  0.5754  0.1747 -0.1627
  848MOL0     C14395  11.217   3.174   0.025 -0.0729  0.5145  0.3388
  848MOL0     N14396  11.882   3.151  -0.349  0.1498 -0.1236 -0.0498
  848MOL0     N14397  12.002   3.173  -0.339  0.0038 -0.3417 -0.3822
  848MOL0     C14398  11.607   2.569  -0.079  0.0260 -0.0772  0.3345
  848MOL0     C14399  11.463   2.568  -0.088 -0.5803 -0.4567  0.9956
  848MOL0     C14400  11.027   2.396  -0.064  0.0916 -0.5110 -0.4669
  848MOL0     C14401  10.990   2.514  -0.137 -0.3708  0.6550  0.4725
  848MOL0     C14402  10.857   2.535  -0.183  1.2908 -0.4190 -0.3408
  848MOL0     C14403  10.761   2.439  -0.149 -0.2791  0.7704 -0.1337
  848MOL0     O14404  10.629   2.462  -0.175 -0.3917  0.9856  0.1804
  848MOL0     C14405  10.596   2.548  -0.283 -1.4553  0.0877  0.4435
  848MOL0     C14406  10.478   2.515  -0.355  0.3293 -0.0351 -0.8171
  848MOL0     C14407  10.454   2.604  -0.478  0.4246 -0.3199 -0.5241
  848MOL0     C14408  10.437   2.524  -0.610 -0.1893 -0.2702 -0.4962
  848MOL0     C14409  10.563   2.460  -0.658 -0.1459 -0.0538 -0.5616
  848MOL0     C14410  10.672   2.425  -0.703 -0.1122  0.8685  0.1921
  848MOL0     C14411  10.793   2.332  -0.070  0.3124 -0.4174  0.4146
  848MOL0     C14412  10.922   2.310  -0.025 -1.5319 -0.3304 -0.6808
  848MOL0     H14413  11.418   2.236  -0.025 -0.3919 -0.4905 -4.0330
  848MOL0     H14414  11.671   2.253   0.009 -2.5650 -0.7568  4.2931
  848MOL0     H14415  11.895   2.303  -0.018 -0.0765 -1.1621 -1.2321
  848MOL0     H14416  11.867   2.382  -0.172 -2.0082 -1.6451  1.3426
  848MOL0     H14417  12.068   2.451   0.039  0.1581 -1.0739 -0.0898
  848MOL0     H14418  12.099   2.390  -0.123  1.9707 -1.2750  2.3302
  848MOL0     H14419  12.008   2.597  -0.215  2.0344  3.5097 -1.3769
  848MOL0     H14420  11.994   2.662  -0.047  0.2763 -1.6719  0.8634
  848MOL0     H14421  12.245   2.655  -0.016 -1.4478 -1.3504  1.2277
  848MOL0     H14422  12.262   2.565  -0.175  2.8198  1.2977  0.7450
  848MOL0     H14423  12.322   2.769  -0.230 -0.6940 -3.6521 -0.1908
  848MOL0     H14424  12.165   2.755  -0.285  1.1111 -0.0444 -2.1674
  848MOL0     H14425  12.074   2.900  -0.098 -0.6365  5.2000 -0.6620
  848MOL0     H14426  12.228   2.879  -0.007  1.7057  2.5146 -0.0286
  848MOL0     H14427  12.207   3.118  -0.113  2.6425  0.6067 -0.1610
  848MOL0     H14428  12.349   3.023  -0.159  0.8076 -2.4359 -1.4582
  848MOL0     H14429  12.244   2.974  -0.385  0.2255  0.7830 -1.3276
  848MOL0     H14430  12.250   3.145  -0.332  0.7190 -1.5844 -4.3170
  848MOL0     H14431  12.003   2.847  -0.370  2.9392  0.4065  1.4278
  848MOL0     H14432  11.673   2.976  -0.448 -2.1555  1.2211  1.7585
  848MOL0     H14433  11.746   2.834  -0.367  1.1483  0.6084 -4.3883
  848MOL0     H14434  11.637   3.103  -0.232 -1.0436 -0.1421 -1.8885
  848MOL0     H14435  11.695   2.963  -0.148 -0.5895  0.3171  1.5585
  848MOL0     H14436  11.508   2.840  -0.204 -0.3948  0.9381  1.4988
  848MOL0     H14437  11.454   2.959  -0.338  5.2219  0.0841 -2.3830
  848MOL0     H14438  11.421   3.120  -0.159  0.4552  1.6340  1.9270
  848MOL0     H14439  11.459   2.998  -0.028 -0.5494 -1.5168 -0.3563
  848MOL0     H14440  11.034   2.901  -0.054 -3.5502  0.2992 -0.0593
  848MOL0     H14441  10.815   2.903   0.064 -1.2433  0.2204 -0.0041
  848MOL0     H14442  10.828   2.995   0.217  1.3512 -1.3005  0.2117
  848MOL0     H14443  10.759   3.071   0.071  1.3232  3.5477  2.7645
  848MOL0     H14444  10.899   3.640   0.161  0.0060 -0.5705  0.8785
  848MOL0     H14445  10.792   3.812   0.269  0.3187  0.1806  1.7486
  848MOL0     H14446  10.652   3.971   0.437  1.4119 -1.1930 -1.2666
  848MOL0     H14447  10.517   3.870   0.360 -1.1501 -0.8043  1.2045
  848MOL0     H14448  10.527   4.007   0.628  1.1553  0.8841 -1.6898
  848MOL0     H14449  10.410   4.051   0.505  0.0488  0.6590  1.5754
  848MOL0     H14450  10.366   3.861   0.712 -0.0817 -2.7522 -0.3051
  848MOL0     H14451  10.359   3.769   0.564 -0.1945 -0.8699  1.3669
  848MOL0     H14452  10.191   4.006   0.643  2.5636  0.0512  0.3217
  848MOL0     H14453  10.182   3.946   0.481 -1.4132  3.6853  1.1612
  848MOL0     H14454  10.144   3.787   0.744 -1.6465  1.0122  0.2973
  848MOL0     H14455  10.135   3.713   0.583 -0.1653  0.6104 -0.5651
  848MOL0     H14456   9.976   3.914   0.714  0.0386 -0.2490 -0.3902
  848MOL0     H14457   9.941   3.890   0.542  0.2761 -1.3041  0.0066
  848MOL0     H14458   9.925   3.656   0.743  0.7662  0.6433  0.1253
  848MOL0     H14459   9.855   3.686   0.580 -1.5262  4.2138 -2.4874
  848MOL0     H14460   9.719   3.861   0.646 -1.2673  0.4033 -0.4225
  848MOL0     H14461   9.765   3.863   0.816  0.1141  0.5633  0.6197
  848MOL0     H14462  10.619   3.536   0.555 -1.2584  1.6872 -0.8899
  848MOL0     H14463  10.781   3.353   0.459  6.4937  0.2968  0.8937
  848MOL0     H14464  11.137   3.334   0.163 -1.8281 -1.7535  4.6609
  848MOL0     H14465  11.314   3.221   0.011  0.0482 -0.2324 -1.5622
  848MOL0     H14466  11.657   2.662  -0.101  0.1086 -0.1630  0.1621
  848MOL0     H14467  11.411   2.659  -0.116  0.5163  0.6528  2.3766
  848MOL0     H14468  11.060   2.592  -0.164 -0.8182  1.0438  0.4451
  848MOL0     H14469  10.830   2.620  -0.244  0.2836  0.6511  1.5287
  848MOL0     H14470  10.600   2.652  -0.251  0.7731 -0.3346  1.6991
  848MOL0     H14471  10.673   2.529  -0.358  1.2168 -0.3248  3.1504
  848MOL0     H14472  10.406   2.522  -0.273 -0.0948 -0.3323 -1.1580
  848MOL0     H14473  10.480   2.412  -0.392  3.0050 -0.3228 -0.0532
  848MOL0     H14474  10.536   2.677  -0.481 -0.8169  1.1052 -0.5870
  848MOL0     H14475  10.359   2.654  -0.456 -0.3859 -0.9454 -2.3940
  848MOL0     H14476  10.390   2.588  -0.685 -0.6863  0.9082  0.7724
  848MOL0     H14477  10.353   2.454  -0.607  0.0956 -0.5812  0.3270
  848MOL0     H14478  10.769   2.390  -0.730 -1.2725 -1.1966 -1.6324
  848MOL0     H14479  10.711   2.270  -0.036 -1.3835  1.3436 -0.2838
  848MOL0     H14480  10.945   2.227   0.041  0.6843  0.2937 -0.5810
  849MOL0     O14481   9.296   5.060   7.253  0.3459  1.0406  0.6916
  849MOL0     C14482   9.287   4.988   7.152  0.0853 -0.9028 -0.5968
  849MOL0     O14483   9.395   4.950   7.078 -0.5064 -0.4220 -0.2604
  849MOL0     C14484   9.511   5.017   7.106 -0.3100  0.4258  0.1408
  849MOL0     C14485   9.544   5.145   7.056  0.0351  0.2794 -0.2866
  849MOL0     C14486   9.665   5.195   7.084 -0.1313  1.2465  0.3810
  849MOL0     C14487   9.758   5.133   7.162  0.4779  0.2445 -0.0374
  849MOL0     O14488   9.867   5.204   7.193  0.2101 -0.7854  0.0244
  849MOL0     C14489   9.917   5.211   7.319  0.2612 -0.1454 -0.0940
  849MOL0     C14490  10.072   5.194   7.307 -0.2250  0.0024  0.6933
  849MOL0     C14491  10.143   5.169   7.437  0.1063  0.3239 -0.9636
  849MOL0     C14492  10.120   5.285   7.546  0.5983 -1.0506  0.5660
  849MOL0     C14493  10.217   5.290   7.660 -0.0715  1.1069 -1.1493
  849MOL0     C14494  10.337   5.377   7.637 -0.6572  0.0105 -0.1874
  849MOL0     C14495  10.412   5.428   7.766  0.6639 -0.8971  0.4922
  849MOL0     C14496  10.456   5.319   7.859 -0.0994 -0.4446  0.2028
  849MOL0     N14497  10.553   5.241   7.784 -0.7066  0.2153  0.0974
  849MOL0     C14498  10.684   5.271   7.749  1.6276 -0.1279 -0.8395
  849MOL0     C14499  10.724   5.169   7.671  0.2923 -0.0907  0.2350
  849MOL0     C14500  10.861   5.177   7.610  0.5584  0.4663 -0.0971
  849MOL0     C14501  10.953   5.061   7.649  0.4768 -0.5275 -0.7090
  849MOL0     C14502  11.102   5.087   7.607  0.0001  0.1785 -0.1977
  849MOL0     C14503  11.188   4.975   7.670 -0.2558  0.1972  0.1970
  849MOL0     O14504  11.303   4.956   7.590 -0.1388  0.2105 -0.8226
  849MOL0     C14505  11.408   5.048   7.602  0.7034  0.0163 -1.4747
  849MOL0     C14506  11.476   5.070   7.490 -0.0421  0.6320  1.1212
  849MOL0     C14507  11.579   5.164   7.479 -0.5175  0.5147  0.2437
  849MOL0     C14508  11.639   5.184   7.333 -0.5031  0.0379  0.3260
  849MOL0     C14509  11.626   5.218   7.596 -0.3957 -1.1631  0.4636
  849MOL0     C14510  11.753   5.301   7.605 -0.3730 -0.7238 -0.7192
  849MOL0     O14511  11.786   5.336   7.729  0.3233  0.0238 -0.3089
  849MOL0     C14512  11.893   5.412   7.764  0.2536 -0.5681 -0.4079
  849MOL0     C14513  11.862   5.538   7.823  0.2668 -0.3759 -0.4955
  849MOL0     C14514  11.966   5.624   7.865 -0.8224  0.4886 -0.0835
  849MOL0     C14515  12.101   5.571   7.855  0.4876 -0.6065 -0.1076
  849MOL0     O14516  12.188   5.657   7.918  0.4233  0.7592 -0.4537
  849MOL0     C14517  12.319   5.672   7.859  0.7435  0.3180 -0.4266
  849MOL0     C14518  12.344   5.820   7.868  0.2833  0.3727 -0.3803
  849MOL0     C14519  12.350   5.879   8.015  0.1629  0.0792 -0.6076
  849MOL0     C14520  12.432   6.012   8.029  0.1240  0.6560  1.0649
  849MOL0     C14521  12.360   6.142   7.996 -0.3207  0.7422 -0.0987
  849MOL0     C14522  12.254   6.171   8.103 -0.6864  0.3441  0.0515
  849MOL0     C14523  12.192   6.303   8.083  0.2656 -0.2001  0.1293
  849MOL0     C14524  12.277   6.430   8.127 -0.1789  0.0421 -0.1435
  849MOL0    Cl14525  12.378   6.483   7.994 -0.3169 -0.2571  0.2798
  849MOL0     C14526  12.123   5.451   7.791 -0.2421  0.1507  0.6207
  849MOL0     C14527  12.022   5.372   7.748  1.3445  0.0416 -0.5812
  849MOL0     O14528  11.824   5.319   7.503  0.1326 -0.5849  0.6163
  849MOL0     C14529  11.568   5.179   7.717 -0.7762 -0.5113  0.2265
  849MOL0     C14530  11.456   5.105   7.724 -0.6401  0.0754  0.7419
  849MOL0     N14531  10.623   5.079   7.641 -0.2071 -0.3292 -0.2639
  849MOL0     N14532  10.525   5.124   7.714 -0.0299  0.1062  0.5078
  849MOL0     C14533   9.725   5.009   7.210  0.0200 -1.1379 -0.0213
  849MOL0     C14534   9.605   4.948   7.189 -0.3914 -0.5228  0.2728
  849MOL0     C14535   9.148   4.965   7.096 -0.2011  0.5791  0.0792
  849MOL0     C14536   9.126   4.855   7.001 -0.5482 -0.0796 -0.2325
  849MOL0     C14537   8.998   4.832   6.950  0.3235 -0.1352  0.4052
  849MOL0     C14538   8.887   4.908   6.992  0.4606  0.3310 -0.8040
  849MOL0     O14539   8.763   4.858   6.949 -0.3624  0.4577  0.1855
  849MOL0     C14540   8.642   4.928   6.981 -0.2697  0.3937 -0.5630
  849MOL0     C14541   8.617   5.074   6.930 -0.2775  0.4819  0.6439
  849MOL0     C14542   8.602   5.093   6.771 -0.5582 -0.3902  0.3957
  849MOL0     C14543   8.706   5.179   6.701 -0.5333 -0.3272 -0.0175
  849MOL0     C14544   8.839   5.128   6.695  0.0124  0.9073 -1.1322
  849MOL0     C14545   8.946   5.070   6.685  0.5641  0.3278  0.1542
  849MOL0     C14546   8.908   5.006   7.092 -0.3182 -0.3033 -0.9498
  849MOL0     C14547   9.041   5.041   7.141 -0.0574 -0.4397  0.0390
  849MOL0     H14548   9.472   5.205   7.003  1.3335  2.2219  0.0300
  849MOL0     H14549   9.683   5.297   7.052 -1.0366  1.0787 -0.7144
  849MOL0     H14550   9.891   5.311   7.355 -1.5147 -0.8744  0.7727
  849MOL0     H14551   9.877   5.125   7.374 -1.2021 -1.7403 -3.3610
  849MOL0     H14552  10.100   5.113   7.239 -1.1113 -1.7451  2.3340
  849MOL0     H14553  10.109   5.288   7.263  2.7691 -0.0793  2.7404
  849MOL0     H14554  10.114   5.071   7.476 -0.2571  0.2342 -1.4460
  849MOL0     H14555  10.247   5.181   7.405  0.8340  2.9236  1.9096
  849MOL0     H14556  10.111   5.380   7.493 -1.0582 -2.1023 -1.1433
  849MOL0     H14557  10.021   5.267   7.589  0.4165 -0.4340  0.4114
  849MOL0     H14558  10.163   5.338   7.742  0.6815 -0.0344  0.0474
  849MOL0     H14559  10.240   5.191   7.700 -0.7286  1.3526 -0.1470
  849MOL0     H14560  10.406   5.318   7.576  1.3353 -1.0403  2.8457
  849MOL0     H14561  10.303   5.460   7.575  1.9141  0.9107 -0.4893
  849MOL0     H14562  10.501   5.491   7.758  1.3113 -1.4005  2.8862
  849MOL0     H14563  10.333   5.479   7.822  0.6833 -3.0177  2.6207
  849MOL0     H14564  10.364   5.265   7.883 -0.9339  1.9013  2.9264
  849MOL0     H14565  10.494   5.363   7.952 -2.1135 -1.3137  1.5132
  849MOL0     H14566  10.740   5.359   7.779 -0.4155  0.5168  1.3368
  849MOL0     H14567  10.842   5.187   7.503 -3.6828  1.8130  0.5832
  849MOL0     H14568  10.903   5.275   7.635 -3.0989  1.8030  1.4840
  849MOL0     H14569  10.917   4.970   7.600 -0.9222 -0.1721 -0.3718
  849MOL0     H14570  10.943   5.053   7.757  0.4255 -0.3143 -0.6989
  849MOL0     H14571  11.138   5.188   7.627 -1.4651  0.7972 -0.5522
  849MOL0     H14572  11.115   5.071   7.500 -1.5067  1.9473 -0.6937
  849MOL0     H14573  11.131   4.881   7.661 -1.2788  1.0159 -3.0813
  849MOL0     H14574  11.203   4.991   7.778  0.3700  0.0070  0.1427
  849MOL0     H14575  11.441   5.026   7.397 -1.1379 -0.6536  2.1098
  849MOL0     H14576  11.598   5.271   7.280  1.0213  1.9273  2.1030
  849MOL0     H14577  11.748   5.192   7.339 -0.6264  3.2198  0.0135
  849MOL0     H14578  11.627   5.092   7.274  0.9868 -0.2050  0.3679
  849MOL0     H14579  11.758   5.566   7.835  0.2385 -0.3776 -0.7288
  849MOL0     H14580  11.948   5.716   7.920 -1.7693 -1.1152  2.4585
  849MOL0     H14581  12.396   5.612   7.909  0.5042 -1.2492 -1.8496
  849MOL0     H14582  12.321   5.647   7.753  0.8961  2.6785 -1.0438
  849MOL0     H14583  12.444   5.837   7.828  0.3685  0.0795 -0.2948
  849MOL0     H14584  12.267   5.877   7.814 -3.5969 -1.8662  2.3117
  849MOL0     H14585  12.396   5.803   8.078 -0.8533  0.3300  0.4672
  849MOL0     H14586  12.251   5.908   8.052  1.9393  2.1340  3.0789
  849MOL0     H14587  12.477   6.008   8.129  2.0967  1.6789  0.2800
  849MOL0     H14588  12.516   6.005   7.960 -1.4830 -0.5159 -0.8579
  849MOL0     H14589  12.316   6.143   7.895  0.2964  0.6488 -0.3743
  849MOL0     H14590  12.428   6.227   8.003 -2.2336  2.2499  1.0340
  849MOL0     H14591  12.172   6.100   8.086 -0.7580  0.3076  0.5355
  849MOL0     H14592  12.295   6.151   8.202 -0.0535 -0.0255 -0.2749
  849MOL0     H14593  12.099   6.305   8.141  0.2120  3.4167  0.1680
  849MOL0     H14594  12.157   6.316   7.980  0.7656 -0.4448 -0.0754
  849MOL0     H14595  12.335   6.433   8.219  0.8521  3.3570 -0.7650
  849MOL0     H14596  12.212   6.517   8.141 -0.5515 -0.2231 -0.2104
  849MOL0     H14597  12.224   5.414   7.777 -0.4664 -0.8848  1.6033
  849MOL0     H14598  12.043   5.273   7.710  0.0997  0.2599 -1.9139
  849MOL0     H14599  11.606   5.219   7.811  1.9420  2.3763 -1.8938
  849MOL0     H14600  11.412   5.090   7.822  2.9609 -0.3172  2.4646
  849MOL0     H14601   9.791   4.958   7.280 -0.8586 -1.4647  0.5874
  849MOL0     H14602   9.566   4.856   7.230 -3.5359  0.9070  0.7979
  849MOL0     H14603   9.200   4.785   6.965 -0.7369 -0.1270 -0.5305
  849MOL0     H14604   8.969   4.748   6.887 -3.5191  1.7867 -0.7286
  849MOL0     H14605   8.568   4.862   6.934 -2.4389  0.7429  2.0881
  849MOL0     H14606   8.627   4.923   7.089  1.2117  2.8424 -0.1748
  849MOL0     H14607   8.698   5.141   6.963  0.0171  0.6261 -0.3369
  849MOL0     H14608   8.527   5.100   6.986 -1.3617 -0.4745 -0.5968
  849MOL0     H14609   8.518   5.157   6.745  0.5332  0.9396  0.0463
  849MOL0     H14610   8.595   4.996   6.721 -2.1894  0.5142 -1.2391
  849MOL0     H14611   8.709   5.274   6.756 -3.1298  0.7030 -1.4839
  849MOL0     H14612   8.669   5.195   6.599 -0.1740  1.0995  0.0471
  849MOL0     H14613   9.038   5.019   6.704 -0.6743 -1.7715  0.7484
  849MOL0     H14614   8.826   5.067   7.128  1.1578  0.5589  1.2352
  849MOL0     H14615   9.067   5.127   7.203  0.8649  0.0989 -1.0459
  850MOL0     O14616   3.677   3.464   6.403 -0.3395 -0.7698 -0.2426
  850MOL0     C14617   3.650   3.431   6.521 -0.7792 -0.4272  0.6225
  850MOL0     O14618   3.736   3.368   6.611 -0.4373 -0.2119 -0.5216
  850MOL0     C14619   3.863   3.350   6.563 -0.3498  0.8992  0.5633
  850MOL0     C14620   3.952   3.453   6.549 -0.2258 -0.1678 -0.0942
  850MOL0     C14621   4.085   3.435   6.520 -0.2975  0.2234  0.5530
  850MOL0     C14622   4.139   3.302   6.514 -0.0979 -0.1907 -0.2551
  850MOL0     O14623   4.267   3.289   6.482 -0.1537 -0.0627 -0.0094
  850MOL0     C14624   4.316   3.159   6.460  0.7789  0.4021  0.6435
  850MOL0     C14625   4.463   3.163   6.411  0.2503 -0.0598 -0.0540
  850MOL0     C14626   4.460   3.219   6.269  0.4398  0.8012  0.2127
  850MOL0     C14627   4.606   3.208   6.223  0.0814 -0.2630 -0.3804
  850MOL0     C14628   4.640   3.298   6.092 -0.0425 -0.0063 -0.8394
  850MOL0     C14629   4.685   3.444   6.123  0.4047  0.1537  0.2001
  850MOL0     C14630   4.723   3.519   5.999 -1.4267 -0.3379  0.3501
  850MOL0     C14631   4.617   3.531   5.885  0.2608 -0.5565 -0.4640
  850MOL0     N14632   4.488   3.587   5.940  0.3644 -0.0886 -0.2351
  850MOL0     C14633   4.375   3.507   5.971 -0.0929 -0.5126 -0.1358
  850MOL0     C14634   4.293   3.607   6.026 -0.0115  0.0631 -0.1950
  850MOL0     C14635   4.153   3.586   6.073 -0.9576 -0.5350  0.1963
  850MOL0     C14636   4.104   3.439   6.067 -0.2053  0.6737 -0.2799
  850MOL0     C14637   3.991   3.406   6.167  0.1894 -0.5602  0.0907
  850MOL0     C14638   3.911   3.284   6.127 -0.8896  0.7189  0.0841
  850MOL0     O14639   3.848   3.296   6.008  0.2020 -0.1957  0.6971
  850MOL0     C14640   3.751   3.396   6.001 -0.6998  0.0094  1.3367
  850MOL0     C14641   3.762   3.493   5.897 -0.3641 -0.1565 -0.9686
  850MOL0     C14642   3.651   3.572   5.867  0.0161  0.0748 -0.5692
  850MOL0     C14643   3.657   3.666   5.740 -0.8005 -0.1325 -1.1666
  850MOL0     C14644   3.540   3.568   5.949 -0.1431 -0.8236  0.1913
  850MOL0     C14645   3.425   3.679   5.941 -0.8609  0.2839  0.4315
  850MOL0     O14646   3.375   3.720   5.814 -0.1223 -0.7506  0.5821
  850MOL0     C14647   3.255   3.779   5.803  0.1394  0.4359  0.5103
  850MOL0     C14648   3.136   3.727   5.863  0.4126  0.3464 -0.2105
  850MOL0     C14649   3.011   3.770   5.823 -0.3045 -0.3071  0.4510
  850MOL0     C14650   3.002   3.879   5.733  0.2273  0.3249  0.2301
  850MOL0     O14651   2.886   3.931   5.683  0.5007 -0.1980 -0.9924
  850MOL0     C14652   2.764   3.877   5.730 -0.7964  0.1401  0.2156
  850MOL0     C14653   2.639   3.931   5.660  0.0178  0.0806 -0.1315
  850MOL0     C14654   2.508   3.855   5.698  0.3607 -0.5604  0.3505
  850MOL0     C14655   2.388   3.923   5.651 -0.4543  0.2242  0.1335
  850MOL0     C14656   2.277   3.824   5.628 -0.7974 -0.3986  0.9460
  850MOL0     C14657   2.161   3.885   5.554  0.1283 -0.3842  0.0218
  850MOL0     C14658   2.066   3.777   5.520 -0.2700 -0.1989 -0.0492
  850MOL0     C14659   1.966   3.836   5.424  0.0938  0.1288  0.1505
  850MOL0    Cl14660   1.983   3.744   5.255  0.2822 -0.3301 -0.2960
  850MOL0     C14661   3.118   3.932   5.682  0.1281 -0.4481  0.3420
  850MOL0     C14662   3.247   3.891   5.711  0.4503  1.0998  0.3778
  850MOL0     O14663   3.382   3.702   6.049  0.5100 -0.7064 -0.1307
  850MOL0     C14664   3.544   3.480   6.062  0.2601 -0.4779 -0.1419
  850MOL0     C14665   3.641   3.388   6.077  0.0748 -0.3596 -0.3578
  850MOL0     N14666   4.351   3.727   6.032  0.3572 -0.1792  0.1207
  850MOL0     N14667   4.470   3.713   5.985 -0.4453  0.0673 -0.5640
  850MOL0     C14668   4.050   3.199   6.537 -0.6661  0.1044 -1.4052
  850MOL0     C14669   3.910   3.224   6.556  0.2260 -0.1675  1.2296
  850MOL0     C14670   3.509   3.480   6.548  0.2329  0.3937 -0.2955
  850MOL0     C14671   3.436   3.425   6.661 -0.2396 -0.4785 -0.3308
  850MOL0     C14672   3.300   3.447   6.673  0.0059  0.3534  0.4792
  850MOL0     C14673   3.233   3.529   6.582 -0.3494 -0.0555 -0.2452
  850MOL0     O14674   3.101   3.564   6.570 -0.0833  0.4535  0.8237
  850MOL0     C14675   3.009   3.506   6.655  0.8339  0.4131 -0.5667
  850MOL0     C14676   2.884   3.472   6.584  0.1448 -0.9708 -0.1452
  850MOL0     C14677   2.800   3.599   6.560 -0.2007 -0.5802  0.0216
  850MOL0     C14678   2.652   3.576   6.487 -0.5530 -1.1455  0.4593
  850MOL0     C14679   2.555   3.505   6.573 -0.2647 -0.4924  0.3651
  850MOL0     C14680   2.484   3.440   6.645  0.2260 -0.1868 -0.2597
  850MOL0     C14681   3.303   3.588   6.474 -0.4890 -0.3555  0.4342
  850MOL0     C14682   3.437   3.574   6.463 -0.4938 -0.1913 -0.2011
  850MOL0     H14683   3.905   3.551   6.550  1.4110  0.6542 -0.5654
  850MOL0     H14684   4.144   3.522   6.493 -2.5141  0.9460 -2.4035
  850MOL0     H14685   4.320   3.109   6.557  1.3134 -0.5864  0.1222
  850MOL0     H14686   4.259   3.107   6.383 -0.3375  0.3367  1.4793
  850MOL0     H14687   4.520   3.221   6.484  2.4670 -1.6558 -0.3898
  850MOL0     H14688   4.505   3.062   6.413 -1.9641 -1.1084  4.1322
  850MOL0     H14689   4.398   3.152   6.209  0.1484  0.4006  0.9495
  850MOL0     H14690   4.423   3.322   6.274  2.1497  1.4221  0.6091
  850MOL0     H14691   4.680   3.228   6.301 -0.0983 -1.9540  0.2557
  850MOL0     H14692   4.621   3.103   6.194  2.3889  0.7118 -3.2382
  850MOL0     H14693   4.713   3.250   6.026 -2.2114 -4.5741 -0.3115
  850MOL0     H14694   4.549   3.305   6.033  0.0167  1.7187 -0.7817
  850MOL0     H14695   4.604   3.497   6.175 -2.8153 -2.0505 -2.1499
  850MOL0     H14696   4.767   3.432   6.194 -1.2789 -1.1523  2.0307
  850MOL0     H14697   4.757   3.619   6.024  2.8663 -0.5007 -3.4705
  850MOL0     H14698   4.814   3.479   5.953 -2.7479  0.2293 -3.0921
  850MOL0     H14699   4.597   3.433   5.842 -1.9562  1.4762 -4.5887
  850MOL0     H14700   4.660   3.591   5.804 -1.2447  0.7540 -0.3410
  850MOL0     H14701   4.357   3.401   5.958 -2.4253 -0.3213  0.8445
  850MOL0     H14702   4.145   3.619   6.177  4.3571  1.2643  0.3504
  850MOL0     H14703   4.099   3.647   6.000  0.5395  1.5119  0.6890
  850MOL0     H14704   4.186   3.367   6.073 -0.0419  0.6726 -1.9776
  850MOL0     H14705   4.072   3.425   5.963 -0.0931  2.3054 -0.5610
  850MOL0     H14706   3.920   3.489   6.172  1.0041  0.1373  0.1308
  850MOL0     H14707   4.045   3.392   6.261 -0.6428  0.8260  0.7984
  850MOL0     H14708   3.868   3.229   6.211 -0.2784  1.3518  0.8268
  850MOL0     H14709   3.993   3.217   6.100 -0.6295  2.9345 -6.0994
  850MOL0     H14710   3.853   3.493   5.836 -2.3291  0.5268 -4.1500
  850MOL0     H14711   3.761   3.669   5.706 -1.3216 -0.2291 -2.8308
  850MOL0     H14712   3.599   3.618   5.661  0.7451  0.1314 -2.5075
  850MOL0     H14713   3.626   3.769   5.763  1.7720  0.2114  1.3557
  850MOL0     H14714   3.135   3.632   5.915 -0.8429  0.8793  0.7807
  850MOL0     H14715   2.917   3.735   5.865 -0.9334  1.5549  0.6727
  850MOL0     H14716   2.765   3.768   5.726 -2.5966  0.0774  0.4200
  850MOL0     H14717   2.757   3.897   5.837  0.4764 -1.5629  0.6576
  850MOL0     H14718   2.614   4.032   5.694 -2.5562 -0.6422  0.3809
  850MOL0     H14719   2.648   3.929   5.551 -3.5379 -2.3107 -0.5581
  850MOL0     H14720   2.506   3.852   5.808  1.7670  0.5500  0.4326
  850MOL0     H14721   2.521   3.758   5.649 -1.4165 -0.6150 -0.0657
  850MOL0     H14722   2.369   4.016   5.706  2.1250 -0.5216  2.5017
  850MOL0     H14723   2.411   3.964   5.552 -0.0406  3.5371  1.4792
  850MOL0     H14724   2.243   3.778   5.721  1.5705 -1.2730  1.4574
  850MOL0     H14725   2.321   3.739   5.575  1.5496  1.8396 -0.9283
  850MOL0     H14726   2.105   3.964   5.605 -1.2377 -1.8221  0.8289
  850MOL0     H14727   2.196   3.935   5.463  2.4267  2.8539  2.4116
  850MOL0     H14728   2.006   3.744   5.606 -0.5802  0.7490  0.1145
  850MOL0     H14729   2.109   3.685   5.480 -2.9757 -0.3560 -2.9450
  850MOL0     H14730   1.959   3.943   5.403 -0.5885 -0.1507 -1.1221
  850MOL0     H14731   1.872   3.803   5.470  0.5197  0.1131  1.0368
  850MOL0     H14732   3.094   4.005   5.605 -0.4143  0.0470  0.9715
  850MOL0     H14733   3.338   3.929   5.665  0.1916  0.6081 -0.5484
  850MOL0     H14734   3.459   3.472   6.128  0.9636 -0.1992  0.8231
  850MOL0     H14735   3.623   3.319   6.160  1.2677 -2.1750 -1.5295
  850MOL0     H14736   4.087   3.097   6.541 -0.3039  0.2641  1.2460
  850MOL0     H14737   3.840   3.144   6.578 -0.8030  0.0619 -1.0295
  850MOL0     H14738   3.492   3.355   6.721  0.7993  0.7549  0.1729
  850MOL0     H14739   3.255   3.400   6.759  1.6954 -2.6961 -0.1451
  850MOL0     H14740   3.041   3.408   6.689  0.5423 -0.6217 -3.0505
  850MOL0     H14741   2.980   3.560   6.746  0.3967 -3.5287  1.8208
  850MOL0     H14742   2.819   3.415   6.651  0.4722 -2.5221 -1.0919
  850MOL0     H14743   2.891   3.410   6.494 -1.5584 -3.2145  1.1584
  850MOL0     H14744   2.858   3.661   6.491  0.4446 -1.0755  0.1124
  850MOL0     H14745   2.786   3.660   6.649 -3.6212  0.5369 -1.0913
  850MOL0     H14746   2.680   3.530   6.392  3.8996  0.6437  0.6938
  850MOL0     H14747   2.604   3.670   6.457 -0.7297 -1.8190 -1.5351
  850MOL0     H14748   2.428   3.381   6.714  0.3819 -1.2408 -1.0176
  850MOL0     H14749   3.243   3.645   6.405  1.5821  0.6048 -0.6723
  850MOL0     H14750   3.479   3.622   6.375 -0.5571 -0.3195 -0.3015
  851MOL0     O14751   1.682   3.878  11.052 -0.1914  0.2652  0.2687
  851MOL0     C14752   1.643   3.918  10.947  0.6260  0.4195  0.4852
  851MOL0     O14753   1.576   4.032  10.931 -0.5711 -1.3312 -0.0879
  851MOL0     C14754   1.545   4.116  11.039  0.0810 -0.1180  0.5746
  851MOL0     C14755   1.643   4.186  11.109  0.1051 -0.1137 -0.6044
  851MOL0     C14756   1.620   4.266  11.223  0.6647  0.0543 -0.0772
  851MOL0     C14757   1.486   4.273  11.256  0.6123 -0.0363 -0.5335
  851MOL0     O14758   1.433   4.342  11.367  0.2889  0.3269  0.3005
  851MOL0     C14759   1.535   4.362  11.468 -0.6470 -0.8677  0.2635
  851MOL0     C14760   1.462   4.414  11.592 -0.3742 -0.1409 -0.1839
  851MOL0     C14761   1.570   4.449  11.699 -0.1188  0.5011  0.1696
  851MOL0     C14762   1.647   4.330  11.764  0.6560 -0.4197  0.1503
  851MOL0     C14763   1.689   4.375  11.902 -0.3457  0.0236 -0.4918
  851MOL0     C14764   1.760   4.265  11.980 -0.0213 -0.0012  0.2927
  851MOL0     C14765   1.915   4.245  11.958 -0.6098 -0.3331  0.5228
  851MOL0     C14766   1.978   4.266  11.818  0.2521 -0.1300  0.8158
  851MOL0     N14767   2.123   4.277  11.819 -0.5925  0.5220 -0.4593
  851MOL0     C14768   2.209   4.362  11.884  0.3460 -1.8760 -0.5984
  851MOL0     C14769   2.333   4.298  11.874  0.6874 -0.6054 -0.0051
  851MOL0     C14770   2.452   4.329  11.948  0.1168 -0.0681 -0.5561
  851MOL0     C14771   2.564   4.346  11.843 -0.2815 -0.0536 -0.5569
  851MOL0     C14772   2.613   4.491  11.831  1.0149 -0.0066  0.4182
  851MOL0     C14773   2.709   4.509  11.713  0.2231  0.4664  0.2687
  851MOL0     O14774   2.643   4.477  11.586  1.1955 -0.6338  0.6557
  851MOL0     C14775   2.599   4.581  11.505 -0.9024  0.8626 -0.4660
  851MOL0     C14776   2.576   4.710  11.556  0.2711  0.0380  1.0434
  851MOL0     C14777   2.530   4.818  11.469 -0.9362 -0.4673  0.0060
  851MOL0     C14778   2.502   4.942  11.543 -0.4927  0.1594  0.5949
  851MOL0     C14779   2.516   4.796  11.329  0.2340 -0.3385 -0.1072
  851MOL0     C14780   2.481   4.903  11.230 -1.0035  0.3219  0.3735
  851MOL0     O14781   2.420   4.876  11.114  0.0593  0.0626 -0.1109
  851MOL0     C14782   2.391   4.970  11.017 -0.2971  0.1191 -0.2342
  851MOL0     C14783   2.323   4.914  10.911 -0.0947  0.7752 -0.1233
  851MOL0     C14784   2.274   4.985  10.794  0.0595 -0.1411 -0.3465
  851MOL0     C14785   2.298   5.118  10.784  0.0596  0.6205 -0.1666
  851MOL0     O14786   2.258   5.176  10.665 -0.0618  0.7329  0.2648
  851MOL0     C14787   2.222   5.317  10.669  0.1321 -0.0372  0.6096
  851MOL0     C14788   2.133   5.348  10.541  1.2991 -0.5594 -0.2223
  851MOL0     C14789   1.981   5.312  10.559  0.8091 -0.2358 -0.9170
  851MOL0     C14790   1.881   5.349  10.444 -0.1025 -0.3340  0.2071
  851MOL0     C14791   1.732   5.344  10.486  0.4535  0.0871 -0.5885
  851MOL0     C14792   1.686   5.207  10.546  0.4279  0.3312 -0.6083
  851MOL0     C14793   1.539   5.198  10.564  0.7694  0.9370 -0.4677
  851MOL0     C14794   1.481   5.050  10.566  0.1935  0.6746 -1.0128
  851MOL0    Cl14795   1.504   4.955  10.415  0.7556 -0.0038 -0.1729
  851MOL0     C14796   2.359   5.186  10.896 -0.4822 -0.5263 -0.2084
  851MOL0     C14797   2.406   5.108  11.000 -0.7145 -0.5429 -0.1910
  851MOL0     O14798   2.519   5.012  11.260 -0.2766  0.4512  0.6592
  851MOL0     C14799   2.537   4.662  11.288 -0.4503 -0.8669  0.4556
  851MOL0     C14800   2.590   4.562  11.363 -0.7021  0.2409 -0.4469
  851MOL0     N14801   2.321   4.178  11.798 -1.2266  0.4618 -0.3156
  851MOL0     N14802   2.194   4.168  11.778 -0.3608  0.7177 -0.6123
  851MOL0     C14803   1.382   4.212  11.183  0.4460 -0.8350 -0.3323
  851MOL0     C14804   1.413   4.126  11.082 -0.1397 -0.1418 -0.0687
  851MOL0     C14805   1.689   3.853  10.819 -0.3421  0.2235  0.7511
  851MOL0     C14806   1.770   3.738  10.814 -0.2877 -0.2751  0.7193
  851MOL0     C14807   1.814   3.694  10.694 -0.1287  0.1001 -0.3129
  851MOL0     C14808   1.795   3.758  10.577 -0.4356 -0.2680  0.3615
  851MOL0     O14809   1.852   3.705  10.461 -0.3587  0.1271  0.4414
  851MOL0     C14810   1.794   3.739  10.335 -0.0243 -0.5252 -0.0605
  851MOL0     C14811   1.882   3.840  10.261  0.8292 -0.1005  0.2716
  851MOL0     C14812   2.027   3.802  10.250  0.4144  0.3898  1.1081
  851MOL0     C14813   2.091   3.854  10.116 -0.7559  0.3359 -0.0737
  851MOL0     C14814   2.121   3.751  10.006 -0.3159  0.3641 -0.6907
  851MOL0     C14815   2.138   3.652   9.935 -0.7514  0.4306 -0.5753
  851MOL0     C14816   1.725   3.878  10.569 -1.0400  0.6066 -1.1396
  851MOL0     C14817   1.671   3.930  10.692 -0.2743 -0.3648  0.8606
  851MOL0     H14818   1.742   4.159  11.074  0.1887 -1.3452  0.4843
  851MOL0     H14819   1.705   4.313  11.272 -1.0463  0.6421  2.5249
  851MOL0     H14820   1.580   4.264  11.484 -0.6459 -0.8590  0.3149
  851MOL0     H14821   1.617   4.431  11.444 -1.8624  1.3012  1.9072
  851MOL0     H14822   1.402   4.503  11.573  0.4646  0.2221 -1.2177
  851MOL0     H14823   1.400   4.334  11.635 -0.7975  0.9572  1.3209
  851MOL0     H14824   1.644   4.522  11.663  0.1220  0.1055 -0.1536
  851MOL0     H14825   1.513   4.509  11.770 -0.3629  1.4132 -0.7798
  851MOL0     H14826   1.592   4.236  11.765  0.3646 -0.3161 -1.9961
  851MOL0     H14827   1.728   4.301  11.697 -1.4141 -0.9962 -2.2558
  851MOL0     H14828   1.749   4.466  11.892 -0.7319  0.4143  0.5345
  851MOL0     H14829   1.598   4.408  11.953  1.0461  0.5206  1.8100
  851MOL0     H14830   1.738   4.276  12.086  2.7616 -1.5500  1.1503
  851MOL0     H14831   1.710   4.170  11.958 -0.8748  0.6155 -0.4854
  851MOL0     H14832   1.976   4.296  12.033  1.4769  0.4183 -1.5651
  851MOL0     H14833   1.935   4.139  11.975  0.8492 -0.0334  0.8111
  851MOL0     H14834   1.938   4.361  11.781 -1.0793 -1.2916 -0.9229
  851MOL0     H14835   1.942   4.188  11.750 -2.4819  2.7079 -1.3143
  851MOL0     H14836   2.180   4.453  11.934  3.0256 -0.8082 -0.8201
  851MOL0     H14837   2.452   4.425  12.002  2.5927 -0.7687  0.8628
  851MOL0     H14838   2.491   4.251  12.014 -0.8253 -0.7195 -0.7473
  851MOL0     H14839   2.514   4.314  11.751 -1.1340  2.9401 -1.2665
  851MOL0     H14840   2.649   4.283  11.867  0.6299 -0.0532 -3.3779
  851MOL0     H14841   2.665   4.537  11.915  3.3734  0.9459 -1.4308
  851MOL0     H14842   2.526   4.556  11.817  0.8424 -0.2693  0.2416
  851MOL0     H14843   2.786   4.433  11.729 -0.0188  0.4455  1.3533
  851MOL0     H14844   2.770   4.600  11.714  0.5472  0.2459  0.7055
  851MOL0     H14845   2.583   4.720  11.664  1.0041  0.2230  0.9830
  851MOL0     H14846   2.415   4.919  11.605 -1.4790 -0.0882 -0.8460
  851MOL0     H14847   2.592   4.946  11.606 -0.5445  1.6251  0.6130
  851MOL0     H14848   2.495   5.034  11.485 -2.1430 -1.3572 -1.7689
  851MOL0     H14849   2.304   4.807  10.904  0.6145  0.6663 -0.4632
  851MOL0     H14850   2.221   4.927  10.719  0.1725 -0.0486 -0.4980
  851MOL0     H14851   2.155   5.329  10.755  1.2759  0.9395  1.3902
  851MOL0     H14852   2.300   5.394  10.664 -0.2267  0.4282  1.7785
  851MOL0     H14853   2.133   5.457  10.531 -1.1587 -0.3540  1.1982
  851MOL0     H14854   2.176   5.304  10.450 -1.2479 -1.4628 -1.1034
  851MOL0     H14855   1.941   5.349  10.654 -0.7798 -3.0309 -0.3687
  851MOL0     H14856   1.962   5.204  10.566 -1.0603  0.1884  2.6977
  851MOL0     H14857   1.909   5.441  10.392 -1.5412  0.1050  0.1790
  851MOL0     H14858   1.898   5.272  10.368  3.5308 -2.5369  2.8817
  851MOL0     H14859   1.681   5.366  10.392  0.4540  0.2152 -0.5594
  851MOL0     H14860   1.718   5.421  10.562  1.6015 -0.9803  0.7733
  851MOL0     H14861   1.728   5.125  10.487 -1.1647 -1.0989  0.1191
  851MOL0     H14862   1.738   5.192  10.641 -2.5694  0.8794  1.2849
  851MOL0     H14863   1.490   5.257  10.487 -0.9077  1.7648  1.1416
  851MOL0     H14864   1.514   5.250  10.657 -1.2221 -0.6045 -0.0688
  851MOL0     H14865   1.374   5.045  10.587  0.7202 -1.5946  1.7946
  851MOL0     H14866   1.534   4.992  10.642 -0.3523  0.8964 -0.4608
  851MOL0     H14867   2.377   5.293  10.902 -0.8453 -0.5399  1.7203
  851MOL0     H14868   2.466   5.168  11.067 -0.5779 -1.2413  0.3148
  851MOL0     H14869   2.518   4.631  11.186  0.2940  3.5559 -1.2480
  851MOL0     H14870   2.601   4.460  11.327 -0.9760  0.6973 -1.8885
  851MOL0     H14871   1.276   4.223  11.203 -0.0748 -1.5285 -2.5124
  851MOL0     H14872   1.331   4.074  11.034  2.7948 -3.6897 -1.7843
  851MOL0     H14873   1.792   3.670  10.895 -1.2767 -0.3941  0.8906
  851MOL0     H14874   1.872   3.603  10.697  1.1304  0.8772 -0.3005
  851MOL0     H14875   1.806   3.638  10.295  4.0468  0.0234 -0.6151
  851MOL0     H14876   1.690   3.774  10.331  0.4438  0.9801  0.4385
  851MOL0     H14877   1.881   3.936  10.315  2.3037  2.3087 -3.5289
  851MOL0     H14878   1.846   3.869  10.162  1.4064  0.1783  0.1332
  851MOL0     H14879   2.033   3.693  10.258 -2.5876  0.2462  3.1096
  851MOL0     H14880   2.083   3.844  10.334  0.5539 -1.1437  1.8052
  851MOL0     H14881   2.189   3.896  10.142 -1.8869  2.3545  1.1937
  851MOL0     H14882   2.032   3.941  10.086  0.0483  1.1550  0.6759
  851MOL0     H14883   2.155   3.568   9.871  0.2958 -0.0832  0.3452
  851MOL0     H14884   1.714   3.934  10.477 -2.6208  0.1569 -1.2548
  851MOL0     H14885   1.605   4.016  10.693 -0.0683 -0.1720 -0.4792
  852MOL0     O14886   5.805   2.299   6.234  1.0539 -0.0780  0.5898
  852MOL0     C14887   5.787   2.310   6.109 -0.0135 -0.2748 -0.1193
  852MOL0     O14888   5.678   2.261   6.039 -0.3481 -0.0884  0.2644
  852MOL0     C14889   5.587   2.185   6.112 -0.0041  0.3409  0.6217
  852MOL0     C14890   5.453   2.215   6.119  0.4912 -0.9028  0.4322
  852MOL0     C14891   5.362   2.135   6.182 -0.4832 -0.2178 -0.3490
  852MOL0     C14892   5.403   2.008   6.238  0.7156 -0.5913  0.9208
  852MOL0     O14893   5.307   1.936   6.304 -0.0730  0.1368 -0.6655
  852MOL0     C14894   5.330   1.799   6.286  0.8404  0.2708 -0.0764
  852MOL0     C14895   5.211   1.714   6.311  0.8385 -0.5351  0.2993
  852MOL0     C14896   5.081   1.756   6.238  0.3605 -0.0336  0.1064
  852MOL0     C14897   4.956   1.697   6.291  0.0532 -0.0362  0.1398
  852MOL0     C14898   4.852   1.680   6.176 -0.2419  0.4278  0.3476
  852MOL0     C14899   4.727   1.598   6.211 -0.2233 -0.3084  0.4362
  852MOL0     C14900   4.630   1.604   6.107  0.0805 -0.8466 -1.0879
  852MOL0     C14901   4.542   1.719   6.142 -0.0498  0.7345  0.2255
  852MOL0     N14902   4.416   1.717   6.061  0.2362  0.6959  0.0185
  852MOL0     C14903   4.311   1.625   6.063  0.4614 -0.5181  0.0413
  852MOL0     C14904   4.220   1.674   5.976  0.0085  0.0062 -0.5901
  852MOL0     C14905   4.080   1.624   5.953 -0.1952  0.0803  0.2304
  852MOL0     C14906   3.991   1.589   6.076 -0.0387 -0.9449  0.5240
  852MOL0     C14907   3.853   1.537   6.043 -0.8578  0.5229 -0.6683
  852MOL0     C14908   3.776   1.509   6.171  0.3422  0.7636  0.0685
  852MOL0     O14909   3.655   1.446   6.122  0.1283  0.0244  0.1703
  852MOL0     C14910   3.538   1.470   6.192 -0.0023 -0.5012 -0.1282
  852MOL0     C14911   3.495   1.608   6.216  0.9047 -0.2885 -0.8905
  852MOL0     C14912   3.374   1.642   6.278  0.2857 -0.0637  1.0239
  852MOL0     C14913   3.351   1.785   6.297  0.5859 -0.6385  0.4347
  852MOL0     C14914   3.280   1.527   6.303 -0.5286 -1.1204 -0.1246
  852MOL0     C14915   3.147   1.547   6.359 -0.1346 -0.2157  0.8285
  852MOL0     O14916   3.075   1.435   6.392  0.0945  0.3585 -0.6609
  852MOL0     C14917   2.963   1.435   6.474  0.6850  0.9672  0.2408
  852MOL0     C14918   2.914   1.546   6.554 -0.4066 -0.0462  0.6952
  852MOL0     C14919   2.809   1.530   6.642 -0.8597 -0.3524 -0.6014
  852MOL0     C14920   2.743   1.409   6.656 -0.4399 -0.1887 -0.1018
  852MOL0     O14921   2.639   1.387   6.735 -0.0466  0.2209  0.3373
  852MOL0     C14922   2.598   1.489   6.833 -0.1190  0.2330 -0.1246
  852MOL0     C14923   2.502   1.426   6.949 -0.0927  0.3512  0.6203
  852MOL0     C14924   2.361   1.397   6.912 -0.4158 -0.0328 -0.0466
  852MOL0     C14925   2.252   1.468   6.991 -0.0681 -0.1445 -0.2132
  852MOL0     C14926   2.121   1.396   6.970 -0.4604 -0.6456  0.0184
  852MOL0     C14927   2.020   1.435   7.087 -0.4831 -1.1227 -0.0080
  852MOL0     C14928   1.881   1.365   7.060 -0.0469 -0.6506  0.1842
  852MOL0     C14929   1.772   1.414   7.149  0.0138 -0.1336 -0.3880
  852MOL0    Cl14930   1.822   1.405   7.327 -0.3141 -0.2511  0.0118
  852MOL0     C14931   2.789   1.301   6.575  0.3159  0.0474 -0.4565
  852MOL0     C14932   2.889   1.317   6.490 -1.0966  0.7391 -1.0964
  852MOL0     O14933   3.096   1.665   6.352 -0.5240  0.0909 -0.1581
  852MOL0     C14934   3.331   1.396   6.278 -0.3453  0.4927 -0.6119
  852MOL0     C14935   3.452   1.366   6.227 -0.8601 -0.4964 -0.6698
  852MOL0     N14936   4.267   1.789   5.918  0.7831  0.0061  0.8869
  852MOL0     N14937   4.377   1.812   5.974  0.3535  0.8370 -0.0024
  852MOL0     C14938   5.537   1.983   6.231 -0.6802  0.6533  0.1885
  852MOL0     C14939   5.630   2.064   6.172  0.3900 -1.2602 -0.5297
  852MOL0     C14940   5.896   2.389   6.038  0.0778  1.0253  0.6978
  852MOL0     C14941   5.991   2.470   6.093 -0.9153 -0.9995 -0.1417
  852MOL0     C14942   6.081   2.538   6.003 -0.1545 -0.4970  0.7259
  852MOL0     C14943   6.070   2.519   5.861 -0.1676  0.4039 -0.3775
  852MOL0     O14944   6.146   2.607   5.785 -0.2087  0.4284  0.0318
  852MOL0     C14945   6.102   2.638   5.657  0.1125 -0.6998  0.6781
  852MOL0     C14946   6.180   2.763   5.602  0.5534 -0.3753  0.2742
  852MOL0     C14947   6.149   2.897   5.668  0.5463 -0.0662 -0.2608
  852MOL0     C14948   6.179   3.021   5.580  0.1881  0.3354  0.2338
  852MOL0     C14949   6.316   3.061   5.582 -0.2326 -0.0412 -0.4758
  852MOL0     C14950   6.432   3.099   5.602 -0.5321 -0.2924  0.5725
  852MOL0     C14951   5.971   2.443   5.812 -0.3003 -0.2552 -0.4540
  852MOL0     C14952   5.894   2.371   5.898  0.3348  0.2271 -0.1020
  852MOL0     H14953   5.422   2.307   6.071 -0.2417 -0.4007  1.8041
  852MOL0     H14954   5.257   2.154   6.164 -0.1079  0.3178 -2.1180
  852MOL0     H14955   5.364   1.780   6.183 -0.6274  3.0630 -1.1892
  852MOL0     H14956   5.413   1.768   6.350 -0.8063 -1.6460  1.2571
  852MOL0     H14957   5.230   1.610   6.280 -1.1737 -0.7626 -0.3338
  852MOL0     H14958   5.190   1.707   6.418 -0.5707 -1.2751 -0.0017
  852MOL0     H14959   5.081   1.865   6.249  0.6553 -0.2606  3.2229
  852MOL0     H14960   5.085   1.724   6.134 -0.7291 -0.8760  0.3112
  852MOL0     H14961   4.989   1.601   6.331 -0.5096  0.5233  2.0249
  852MOL0     H14962   4.921   1.759   6.374 -3.2455 -0.5368 -0.7393
  852MOL0     H14963   4.829   1.785   6.154  1.2605  1.1914  2.1117
  852MOL0     H14964   4.900   1.638   6.088  1.1190  0.4239  1.0680
  852MOL0     H14965   4.755   1.493   6.228 -0.1189 -0.6944 -1.8115
  852MOL0     H14966   4.693   1.636   6.308  1.9112  4.0838 -0.2781
  852MOL0     H14967   4.678   1.617   6.010 -1.1710  0.0349 -1.6041
  852MOL0     H14968   4.569   1.514   6.121  1.6389 -1.9739 -1.3338
  852MOL0     H14969   4.601   1.810   6.132  2.9404 -1.1700 -0.8461
  852MOL0     H14970   4.501   1.708   6.243  0.0759 -0.1457  0.1880
  852MOL0     H14971   4.294   1.540   6.129  1.5132 -1.6227 -1.0658
  852MOL0     H14972   4.019   1.695   5.896 -2.9189 -2.0512  0.2798
  852MOL0     H14973   4.088   1.534   5.892 -3.8434  0.0964 -0.5329
  852MOL0     H14974   3.976   1.680   6.135 -2.5970  0.4741 -2.0493
  852MOL0     H14975   4.042   1.513   6.137  2.3978 -0.1052 -0.3408
  852MOL0     H14976   3.860   1.448   5.980  3.2796  1.9016 -2.5156
  852MOL0     H14977   3.785   1.606   5.992 -1.4322  1.3990  1.1817
  852MOL0     H14978   3.761   1.603   6.224  0.6174  2.1539 -2.2231
  852MOL0     H14979   3.842   1.439   6.224  1.1992  1.1364 -0.4878
  852MOL0     H14980   3.559   1.689   6.182 -0.0891  0.9224  0.0708
  852MOL0     H14981   3.439   1.850   6.298 -0.9114  1.5137  1.7097
  852MOL0     H14982   3.288   1.831   6.220 -0.6968 -3.2484 -0.1897
  852MOL0     H14983   3.317   1.804   6.399 -1.2260  0.4593 -0.3181
  852MOL0     H14984   2.951   1.648   6.552  1.4875 -0.5775  3.0983
  852MOL0     H14985   2.776   1.617   6.698 -0.4272  1.0059 -2.3582
  852MOL0     H14986   2.687   1.538   6.873  0.5108  0.7601 -2.0715
  852MOL0     H14987   2.530   1.558   6.784 -2.4186 -1.6481  0.2329
  852MOL0     H14988   2.542   1.338   7.000  2.7694  1.9113  1.3212
  852MOL0     H14989   2.490   1.504   7.025 -1.3077  0.4819  0.3133
  852MOL0     H14990   2.337   1.291   6.902 -2.2478  0.2913  0.5265
  852MOL0     H14991   2.350   1.441   6.812  0.2776  1.9292  0.6842
  852MOL0     H14992   2.273   1.459   7.098  0.8253 -0.1338 -0.3793
  852MOL0     H14993   2.249   1.575   6.967 -0.6030 -0.4771 -1.7461
  852MOL0     H14994   2.144   1.289   6.969 -2.4318 -1.0899 -0.4481
  852MOL0     H14995   2.081   1.416   6.871  1.0216 -0.5256 -0.5840
  852MOL0     H14996   2.053   1.417   7.189 -0.9244 -1.1573  0.1296
  852MOL0     H14997   2.018   1.545   7.087 -0.3909 -1.0499  3.0715
  852MOL0     H14998   1.888   1.258   7.082 -0.7276 -1.1920 -1.9753
  852MOL0     H14999   1.840   1.372   6.959  0.1393 -3.5075 -0.1893
  852MOL0     H15000   1.683   1.355   7.128  0.6935 -2.2263  2.0749
  852MOL0     H15001   1.754   1.519   7.124  0.3082  0.1201  0.4015
  852MOL0     H15002   2.751   1.200   6.588  2.1233 -0.6127  0.0215
  852MOL0     H15003   2.916   1.227   6.434  1.7162  2.2266 -2.2982
  852MOL0     H15004   3.267   1.313   6.307  1.8341 -0.4228  2.0555
  852MOL0     H15005   3.486   1.267   6.196  1.1733  0.2486 -0.9464
  852MOL0     H15006   5.569   1.892   6.281  0.3878 -0.8088 -2.9374
  852MOL0     H15007   5.735   2.036   6.180  1.1713  1.6107  0.6321
  852MOL0     H15008   5.998   2.481   6.201 -1.0202  2.1748 -0.3675
  852MOL0     H15009   6.163   2.603   6.035 -0.8118  0.1042  1.2332
  852MOL0     H15010   6.109   2.545   5.601 -0.3568 -0.1698 -0.2846
  852MOL0     H15011   5.997   2.667   5.663 -0.4012 -1.9288 -1.4037
  852MOL0     H15012   6.167   2.776   5.494 -1.3597 -2.0231  0.2468
  852MOL0     H15013   6.282   2.726   5.611  0.3347 -1.4988 -1.3557
  852MOL0     H15014   6.207   2.903   5.761 -1.3958 -0.2638  1.0287
  852MOL0     H15015   6.042   2.894   5.691  1.0240 -4.2278  2.6069
  852MOL0     H15016   6.109   3.103   5.592  1.6129  1.8484 -1.2728
  852MOL0     H15017   6.162   2.988   5.477  1.2574 -1.9873  0.7227
  852MOL0     H15018   6.537   3.115   5.614 -0.2043 -0.2936 -1.7583
  852MOL0     H15019   5.965   2.424   5.705 -0.8608 -1.9240 -0.1678
  852MOL0     H15020   5.832   2.293   5.855  2.5218 -1.3531 -0.5506
  853MOL0     O15021   6.855   6.751   4.510  0.0863  0.2457  0.5704
  853MOL0     C15022   6.771   6.722   4.429  0.7155 -0.4120 -0.1139
  853MOL0     O15023   6.756   6.782   4.310 -0.2488 -0.4146  0.5180
  853MOL0     C15024   6.836   6.881   4.262  0.7473 -0.3678  1.0161
  853MOL0     C15025   6.815   6.911   4.128 -0.4452  0.1495 -0.2118
  853MOL0     C15026   6.892   7.009   4.061  0.0912 -0.1019  0.0730
  853MOL0     C15027   6.991   7.084   4.130 -0.2886  0.2256 -0.1906
  853MOL0     O15028   7.051   7.175   4.050  0.7204  0.6708  0.1917
  853MOL0     C15029   7.165   7.244   4.112  0.7165 -0.5320  1.1553
  853MOL0     C15030   7.187   7.375   4.024 -0.5141 -0.1368 -0.2517
  853MOL0     C15031   7.320   7.446   4.058 -0.5356  0.7095 -1.5869
  853MOL0     C15032   7.342   7.561   3.959 -0.7612  0.3224  0.1094
  853MOL0     C15033   7.487   7.623   3.954 -0.0388  0.1950  0.1795
  853MOL0     C15034   7.492   7.702   4.080 -0.4844  0.8273  0.2669
  853MOL0     C15035   7.611   7.798   4.084 -0.5435  0.2130  0.5381
  853MOL0     C15036   7.600   7.923   3.990 -0.0837  0.0034 -0.1152
  853MOL0     N15037   7.733   7.987   3.968 -0.4417  0.4080 -0.4220
  853MOL0     C15038   7.825   8.012   4.069 -0.7035 -0.1064 -0.3968
  853MOL0     C15039   7.933   8.067   4.011  0.5255 -0.0142 -0.2468
  853MOL0     C15040   8.049   8.118   4.078 -0.3823 -0.1551 -0.2808
  853MOL0     C15041   8.018   8.233   4.179  0.3546 -0.5548 -0.2829
  853MOL0     C15042   8.007   8.357   4.091  0.5964 -1.0393  0.3095
  853MOL0     C15043   7.866   8.384   4.034  0.0478 -0.2659  0.6283
  853MOL0     O15044   7.775   8.437   4.127 -0.5413 -0.5595 -0.5558
  853MOL0     C15045   7.649   8.440   4.074 -0.4373  0.3314 -0.5078
  853MOL0     C15046   7.586   8.566   4.060 -0.0195  0.3726  0.1862
  853MOL0     C15047   7.449   8.576   4.016 -0.5112  0.0069  0.0922
  853MOL0     C15048   7.388   8.713   4.009 -0.1181  0.2433  0.1043
  853MOL0     C15049   7.381   8.455   3.979  0.3321 -0.4161  0.8045
  853MOL0     C15050   7.246   8.442   3.927  0.4314 -0.5539 -0.6801
  853MOL0     O15051   7.204   8.320   3.944 -0.5059 -0.7766  0.0228
  853MOL0     C15052   7.086   8.277   3.885 -0.4443 -0.3169  0.2105
  853MOL0     C15053   6.975   8.353   3.837 -0.2207  0.0638 -0.0157
  853MOL0     C15054   6.870   8.284   3.771 -0.5279 -0.8841  0.6523
  853MOL0     C15055   6.885   8.152   3.726  0.3368 -0.1827 -0.5076
  853MOL0     O15056   6.787   8.119   3.630 -0.0275  0.1018  0.1222
  853MOL0     C15057   6.813   7.996   3.562 -0.3291 -0.5149 -0.4089
  853MOL0     C15058   6.699   7.892   3.587 -0.5621  0.1913  0.4086
  853MOL0     C15059   6.727   7.822   3.727 -0.1276 -0.4929  0.9669
  853MOL0     C15060   6.605   7.736   3.767  0.2366 -0.3018 -0.8470
  853MOL0     C15061   6.643   7.629   3.868 -0.2517  0.2877 -0.2591
  853MOL0     C15062   6.707   7.677   3.992 -0.5809 -0.0874 -0.0497
  853MOL0     C15063   6.815   7.583   4.055  0.5780 -0.4167  0.4009
  853MOL0     C15064   6.916   7.654   4.147  0.0799  0.0847  0.4513
  853MOL0    Cl15065   7.029   7.738   4.038 -0.3045  0.3751  0.2092
  853MOL0     C15066   6.990   8.077   3.794  0.2525 -0.0096  0.4457
  853MOL0     C15067   7.091   8.141   3.867  0.9351  1.0022 -0.2944
  853MOL0     O15068   7.195   8.529   3.851  0.2531 -0.2797  0.2428
  853MOL0     C15069   7.456   8.331   3.985 -0.3949  0.2357 -0.3575
  853MOL0     C15070   7.581   8.327   4.034 -0.0428 -0.1557 -0.8428
  853MOL0     N15071   7.899   8.077   3.878 -0.1985  0.6183  0.2635
  853MOL0     N15072   7.778   8.031   3.855  0.1179  0.1787  0.1646
  853MOL0     C15073   7.017   7.053   4.265 -0.6075  0.3620  0.6687
  853MOL0     C15074   6.936   6.959   4.329  0.3542 -0.5437 -0.7334
  853MOL0     C15075   6.673   6.613   4.452 -0.6324  0.3586 -0.1254
  853MOL0     C15076   6.693   6.531   4.563  0.4746  0.0599 -0.2168
  853MOL0     C15077   6.598   6.433   4.590  0.0182  0.4255 -0.0161
  853MOL0     C15078   6.482   6.408   4.517 -0.1372 -0.0477  0.2586
  853MOL0     O15079   6.397   6.303   4.553  0.5969 -0.4912  0.6796
  853MOL0     C15080   6.257   6.293   4.506 -0.3453  0.3242  0.5679
  853MOL0     C15081   6.193   6.158   4.544  0.3456  0.8519 -0.2174
  853MOL0     C15082   6.044   6.130   4.541 -1.0785 -0.0075  0.5631
  853MOL0     C15083   5.978   6.133   4.398 -0.3073 -0.8615  0.0663
  853MOL0     C15084   5.965   6.275   4.351 -0.0094 -0.4171  0.1457
  853MOL0     C15085   5.961   6.386   4.302  0.4172  0.0964  0.6004
  853MOL0     C15086   6.469   6.489   4.405 -0.2454 -0.4072  0.2463
  853MOL0     C15087   6.567   6.584   4.369  0.3319  0.5247  0.7867
  853MOL0     H15088   6.737   6.859   4.074  0.6387  0.7577 -2.4521
  853MOL0     H15089   6.879   7.029   3.955 -0.3237  1.4994  0.3994
  853MOL0     H15090   7.139   7.286   4.210  3.3993  1.4423  1.1333
  853MOL0     H15091   7.253   7.181   4.129  0.7333 -1.2652 -1.2914
  853MOL0     H15092   7.199   7.361   3.916  3.9988  4.8678 -0.8261
  853MOL0     H15093   7.104   7.444   4.037 -1.0416 -0.4663 -1.6797
  853MOL0     H15094   7.313   7.477   4.163 -0.8800 -2.3712 -0.6161
  853MOL0     H15095   7.399   7.371   4.052  0.7014  1.7410  0.4892
  853MOL0     H15096   7.337   7.524   3.856  2.2320  1.3169 -0.4834
  853MOL0     H15097   7.271   7.642   3.979  0.0288  0.9240  0.5397
  853MOL0     H15098   7.570   7.553   3.948 -1.4397 -1.4441 -1.0061
  853MOL0     H15099   7.494   7.682   3.862  2.7094 -4.1158 -2.7003
  853MOL0     H15100   7.410   7.774   4.082 -0.8289  0.4474  0.1692
  853MOL0     H15101   7.493   7.632   4.164  1.4253  0.2452 -0.1828
  853MOL0     H15102   7.644   7.825   4.185 -0.2406  0.6224  0.3319
  853MOL0     H15103   7.698   7.738   4.054  0.0993  0.5010  1.7591
  853MOL0     H15104   7.542   8.007   4.030 -0.0408 -0.3360  0.6696
  853MOL0     H15105   7.541   7.898   3.901  0.1556 -3.3207  0.5510
  853MOL0     H15106   7.815   8.017   4.177 -2.2636 -2.3011 -0.3947
  853MOL0     H15107   8.096   8.035   4.131  0.2901 -0.0171 -0.6485
  853MOL0     H15108   8.126   8.153   4.009 -1.2812  4.5923  0.8306
  853MOL0     H15109   8.100   8.243   4.251 -0.5875  2.2946  0.4966
  853MOL0     H15110   7.936   8.213   4.249  1.5659  3.0937  2.4695
  853MOL0     H15111   8.093   8.356   4.024  0.5409 -2.7341  0.2343
  853MOL0     H15112   8.021   8.444   4.156  0.0285 -1.1054  0.5252
  853MOL0     H15113   7.829   8.291   3.989 -1.5047 -0.0435  1.3950
  853MOL0     H15114   7.878   8.460   3.956  4.1478 -0.3632  0.9189
  853MOL0     H15115   7.650   8.653   4.070 -1.1897  1.1457  1.2304
  853MOL0     H15116   7.326   8.726   3.920 -1.0929 -1.4510  0.4854
  853MOL0     H15117   7.321   8.721   4.095 -0.9678 -0.9540 -0.4220
  853MOL0     H15118   7.471   8.785   4.007 -0.4774  0.8520 -5.1692
  853MOL0     H15119   6.968   8.460   3.827 -0.3563 -0.0008 -0.7324
  853MOL0     H15120   6.794   8.354   3.738  0.9699  0.9742  0.9312
  853MOL0     H15121   6.840   8.003   3.456  0.2957  1.7497 -0.1513
  853MOL0     H15122   6.904   7.952   3.604 -1.9958 -3.5977  0.3303
  853MOL0     H15123   6.606   7.949   3.600 -0.8892 -0.3238  0.3428
  853MOL0     H15124   6.691   7.828   3.499  1.2228 -1.2975  1.2825
  853MOL0     H15125   6.735   7.901   3.802 -3.0650 -0.2540  1.1410
  853MOL0     H15126   6.821   7.766   3.726  1.0123  1.3439 -0.4849
  853MOL0     H15127   6.517   7.784   3.811 -2.2148 -4.0888 -1.1307
  853MOL0     H15128   6.551   7.694   3.682 -1.8711  2.5766 -1.0925
  853MOL0     H15129   6.716   7.566   3.818 -0.4278 -2.5525  2.7210
  853MOL0     H15130   6.554   7.574   3.898 -1.7860  2.8910  0.3112
  853MOL0     H15131   6.732   7.782   3.970  1.1306 -0.9141 -2.4961
  853MOL0     H15132   6.627   7.684   4.066 -1.8334  0.9459 -1.4221
  853MOL0     H15133   6.872   7.552   3.967  0.2861  1.5640 -0.5522
  853MOL0     H15134   6.773   7.496   4.106  2.6207 -1.2128  0.8185
  853MOL0     H15135   6.976   7.578   4.199  1.1792 -0.1623 -1.0742
  853MOL0     H15136   6.866   7.729   4.208 -0.0420 -0.8643  1.5403
  853MOL0     H15137   6.998   7.970   3.779 -2.1362  0.0396 -2.0385
  853MOL0     H15138   7.165   8.082   3.921 -0.4866 -1.7638 -1.1823
  853MOL0     H15139   7.414   8.236   3.954  2.0021 -1.6482  1.6806
  853MOL0     H15140   7.625   8.228   4.041  1.1706  0.3782 -0.6986
  853MOL0     H15141   7.094   7.105   4.322  0.9213 -2.9853  1.9286
  853MOL0     H15142   6.970   6.930   4.428  0.9655 -4.0590 -1.8389
  853MOL0     H15143   6.783   6.534   4.623  1.8235  0.3386 -2.1620
  853MOL0     H15144   6.625   6.365   4.670 -0.3648 -1.5950 -1.5260
  853MOL0     H15145   6.187   6.373   4.532 -1.8552 -0.8868  0.3851
  853MOL0     H15146   6.252   6.290   4.397 -0.1850 -1.2782  0.5731
  853MOL0     H15147   6.221   6.150   4.649  0.6505  2.2353 -0.1723
  853MOL0     H15148   6.240   6.076   4.488 -0.5918  0.4466 -0.4255
  853MOL0     H15149   5.988   6.192   4.611 -0.5343 -0.1036  1.0891
  853MOL0     H15150   6.026   6.029   4.579 -1.1906  0.4224  1.7007
  853MOL0     H15151   5.882   6.082   4.412 -0.8611  0.4652  1.3145
  853MOL0     H15152   6.035   6.074   4.326 -0.0855 -0.4586 -0.0908
  853MOL0     H15153   5.974   6.482   4.259  2.4945  0.0343  1.0046
  853MOL0     H15154   6.384   6.471   4.340 -1.3742  3.6776  0.3216
  853MOL0     H15155   6.542   6.644   4.282 -0.5413  0.3353  0.8969
  854MOL0     O15156  10.346   2.349   7.503 -0.6486 -0.5688  0.3090
  854MOL0     C15157  10.310   2.246   7.449 -0.2716  1.2801  0.0899
  854MOL0     O15158  10.208   2.167   7.487 -0.0271 -0.2481  0.0252
  854MOL0     C15159  10.146   2.184   7.611  0.8883 -0.2451 -0.1228
  854MOL0     C15160  10.207   2.220   7.727  0.5386  0.8458 -0.1589
  854MOL0     C15161  10.133   2.221   7.844  0.0207  0.0561 -0.8394
  854MOL0     C15162   9.994   2.188   7.844 -0.7220 -0.4858  0.5374
  854MOL0     O15163   9.932   2.192   7.970  0.4374 -0.2664  0.4514
  854MOL0     C15164   9.807   2.136   7.983  0.3620 -0.1922  0.4309
  854MOL0     C15165   9.766   2.157   8.128 -0.4133  0.0455 -0.2453
  854MOL0     C15166   9.639   2.092   8.168  0.0547  0.7510 -0.2031
  854MOL0     C15167   9.611   2.089   8.324 -1.0319  0.8268 -0.2465
  854MOL0     C15168   9.684   1.958   8.375  0.7037 -0.1525 -0.7203
  854MOL0     C15169   9.670   1.946   8.527  0.6936 -0.1556  0.1939
  854MOL0     C15170   9.760   2.048   8.603 -0.3454 -0.1051 -1.3831
  854MOL0     C15171   9.773   2.009   8.759  0.8170  0.3893 -0.1672
  854MOL0     N15172   9.647   2.021   8.831 -0.2277  0.6049  0.1558
  854MOL0     C15173   9.610   2.140   8.887 -0.3536  0.7331  0.8421
  854MOL0     C15174   9.486   2.120   8.945  0.1378  0.0374 -0.0857
  854MOL0     C15175   9.400   2.216   9.025 -0.5550 -0.1903 -0.0754
  854MOL0     C15176   9.261   2.235   8.967 -0.7119  1.1908 -0.0906
  854MOL0     C15177   9.184   2.338   9.057  0.6733  0.2913  0.6012
  854MOL0     C15178   9.149   2.284   9.188 -0.3452 -0.8195 -0.0819
  854MOL0     O15179   9.081   2.157   9.182  1.0851 -0.1797  0.0285
  854MOL0     C15180   8.947   2.160   9.147 -0.0870  0.1868 -0.0291
  854MOL0     C15181   8.873   2.276   9.135 -0.1994 -0.0004  0.5676
  854MOL0     C15182   8.739   2.267   9.109 -1.1274  0.4302 -0.7357
  854MOL0     C15183   8.684   2.404   9.077  0.6283 -0.2726 -0.2181
  854MOL0     C15184   8.673   2.138   9.109  0.1520 -0.3664  0.1233
  854MOL0     C15185   8.531   2.103   9.069  0.3557 -0.8269  0.1759
  854MOL0     O15186   8.466   2.003   9.126  0.3133  0.0794 -0.0758
  854MOL0     C15187   8.338   1.960   9.085 -0.3139 -1.1147  0.8194
  854MOL0     C15188   8.274   1.994   8.968 -0.4570  0.1186 -0.2914
  854MOL0     C15189   8.136   1.963   8.955  0.1324  0.0011  0.4723
  854MOL0     C15190   8.058   1.916   9.059  0.0742 -0.5189 -0.5409
  854MOL0     O15191   7.928   1.869   9.037  0.4071  0.4469 -0.4409
  854MOL0     C15192   7.902   1.725   9.045 -0.6429  0.6704  0.0765
  854MOL0     C15193   7.759   1.697   9.011  0.9003 -0.0633  0.4197
  854MOL0     C15194   7.660   1.748   9.127  0.5657  0.7121  0.2602
  854MOL0     C15195   7.515   1.737   9.090  0.4455  0.0279  0.0510
  854MOL0     C15196   7.428   1.814   9.195 -0.3467  0.3827 -0.0758
  854MOL0     C15197   7.434   1.767   9.340  0.3760  0.4229 -0.1544
  854MOL0     C15198   7.345   1.831   9.449  0.8407  0.3109 -0.1061
  854MOL0     C15199   7.325   1.742   9.578 -0.0058  0.4124  0.0676
  854MOL0    Cl15200   7.468   1.720   9.670  0.0567 -0.6404  0.3167
  854MOL0     C15201   8.122   1.891   9.180  0.2499  0.6034  0.6488
  854MOL0     C15202   8.262   1.913   9.189  0.3941  0.0465  0.8478
  854MOL0     O15203   8.479   2.187   8.987  0.6733  0.1718  0.3612
  854MOL0     C15204   8.740   2.021   9.150  0.4721  0.0393  0.2221
  854MOL0     C15205   8.876   2.034   9.164  0.6618 -0.9548  0.2288
  854MOL0     N15206   9.465   1.981   8.936 -0.5721 -0.0045  0.3872
  854MOL0     N15207   9.555   1.921   8.869  0.9440 -0.1438  1.1307
  854MOL0     C15208   9.927   2.154   7.727  0.0674  0.5069 -0.2229
  854MOL0     C15209  10.005   2.149   7.611 -0.3988 -0.0106  0.3850
  854MOL0     C15210  10.384   2.216   7.325  0.0627 -0.0334 -0.3870
  854MOL0     C15211  10.448   2.315   7.248 -0.8058  0.1042  0.3199
  854MOL0     C15212  10.530   2.280   7.134  0.4906 -0.4174 -0.5112
  854MOL0     C15213  10.538   2.149   7.101 -0.2583  0.0157  0.0947
  854MOL0     O15214  10.613   2.123   6.986 -0.2888  0.3048 -0.7306
  854MOL0     C15215  10.708   2.013   6.991 -1.2846 -0.4906  0.2132
  854MOL0     C15216  10.818   2.013   6.882 -0.0762 -1.0501 -0.4969
  854MOL0     C15217  10.917   2.125   6.908 -0.3793 -0.2629 -0.2116
  854MOL0     C15218  10.866   2.266   6.891 -0.1681 -0.0419  1.2769
  854MOL0     C15219  10.967   2.367   6.883 -0.5092  0.7506  0.2848
  854MOL0     C15220  11.054   2.458   6.877  0.9428  0.0601 -0.2363
  854MOL0     C15221  10.475   2.049   7.185 -0.5594  0.8494  0.7261
  854MOL0     C15222  10.399   2.085   7.294 -0.1397 -0.6036 -0.0286
  854MOL0     H15223  10.312   2.243   7.739  0.2037  1.0645  3.9558
  854MOL0     H15224  10.185   2.251   7.934  0.6926  0.7630 -1.4422
  854MOL0     H15225   9.731   2.183   7.920  2.8007  0.9950 -1.8364
  854MOL0     H15226   9.815   2.029   7.961 -1.1132 -0.2128 -0.1145
  854MOL0     H15227   9.838   2.115   8.199 -1.9451  0.4938  1.6434
  854MOL0     H15228   9.763   2.262   8.158  0.5518 -0.1375  0.5467
  854MOL0     H15229   9.557   2.154   8.131 -1.8820 -1.5096  0.0552
  854MOL0     H15230   9.637   1.994   8.120 -2.1583  1.7016 -2.2372
  854MOL0     H15231   9.653   2.176   8.374  1.1565 -1.7296  2.7673
  854MOL0     H15232   9.504   2.090   8.345 -1.1552 -2.2448 -0.2902
  854MOL0     H15233   9.640   1.871   8.325  1.9191 -0.2530 -1.6453
  854MOL0     H15234   9.790   1.962   8.348  0.7805 -1.9518 -0.8412
  854MOL0     H15235   9.565   1.951   8.555  0.7557  2.3476  0.2940
  854MOL0     H15236   9.713   1.847   8.543 -1.6857 -0.9708  2.0561
  854MOL0     H15237   9.855   2.057   8.551  0.4374 -4.0686 -1.0002
  854MOL0     H15238   9.721   2.149   8.593  1.6853  0.8803 -0.0259
  854MOL0     H15239   9.852   2.070   8.804  0.4063  0.7457  0.0856
  854MOL0     H15240   9.805   1.905   8.768  2.6766  0.9246 -0.2192
  854MOL0     H15241   9.665   2.233   8.888 -2.7781  2.2807 -1.0609
  854MOL0     H15242   9.391   2.171   9.124 -1.8416  1.3980  0.5804
  854MOL0     H15243   9.462   2.306   9.035 -0.4657 -0.2453 -0.1302
  854MOL0     H15244   9.219   2.135   8.977 -0.4444  1.0603 -0.2642
  854MOL0     H15245   9.265   2.278   8.866 -0.1772  0.1567 -0.5222
  854MOL0     H15246   9.092   2.369   9.007  1.5554  1.3773 -0.4015
  854MOL0     H15247   9.237   2.433   9.067  0.1605  0.7654 -0.9731
  854MOL0     H15248   9.075   2.344   9.242  0.1243 -0.1497 -0.1678
  854MOL0     H15249   9.229   2.290   9.262 -0.8878 -2.8447  0.7391
  854MOL0     H15250   8.910   2.378   9.135 -0.6360  0.1610  0.0497
  854MOL0     H15251   8.724   2.429   8.978 -0.1660  0.2825 -0.4117
  854MOL0     H15252   8.577   2.397   9.060  0.5433 -0.5671  0.4040
  854MOL0     H15253   8.711   2.488   9.143  1.4140  0.4778 -1.4507
  854MOL0     H15254   8.322   2.046   8.885 -0.8805 -0.2523 -0.7716
  854MOL0     H15255   8.084   1.986   8.863 -0.3038  1.2891  1.0190
  854MOL0     H15256   7.959   1.684   8.961  0.3853 -0.8404  1.4613
  854MOL0     H15257   7.931   1.684   9.142 -1.3367 -0.0468 -0.0104
  854MOL0     H15258   7.733   1.749   8.919  1.5055 -1.6240 -0.6715
  854MOL0     H15259   7.733   1.593   8.990  2.1629 -0.8615  2.4678
  854MOL0     H15260   7.687   1.854   9.132  1.3088  0.5007  0.9731
  854MOL0     H15261   7.686   1.703   9.224  0.5919  1.8578  0.8015
  854MOL0     H15262   7.498   1.785   8.993  2.2183  1.9677  0.6149
  854MOL0     H15263   7.478   1.634   9.083 -0.0795  0.2702 -1.0423
  854MOL0     H15264   7.323   1.798   9.168  0.3300 -3.4139 -1.0917
  854MOL0     H15265   7.448   1.921   9.182 -4.3605  1.1776 -1.0963
  854MOL0     H15266   7.404   1.662   9.339 -2.7560  1.1004 -3.8642
  854MOL0     H15267   7.535   1.780   9.379 -0.1103  2.9832  0.4643
  854MOL0     H15268   7.246   1.849   9.405  0.7728  0.6262  0.1735
  854MOL0     H15269   7.405   1.921   9.463  1.8807 -0.8598  4.6895
  854MOL0     H15270   7.294   1.641   9.551 -2.8647  1.4743 -0.9028
  854MOL0     H15271   7.251   1.785   9.646  1.2212  2.7152  0.0372
  854MOL0     H15272   8.051   1.852   9.253 -1.3600  1.8572 -0.1583
  854MOL0     H15273   8.304   1.900   9.289  0.1462  0.4168  1.0011
  854MOL0     H15274   8.687   1.931   9.180  0.3342  0.5219  1.4596
  854MOL0     H15275   8.926   1.941   9.190 -2.7348 -3.1095 -0.2719
  854MOL0     H15276   9.821   2.132   7.733 -0.5450  2.5748 -2.0078
  854MOL0     H15277   9.970   2.115   7.514 -0.6544  0.3508  0.3488
  854MOL0     H15278  10.425   2.416   7.280 -1.5598  0.0587 -0.0394
  854MOL0     H15279  10.563   2.358   7.065 -0.1727  0.4196  0.0906
  854MOL0     H15280  10.758   2.014   7.088 -2.2050  0.7729  0.7032
  854MOL0     H15281  10.659   1.915   6.985 -0.1641 -1.0346 -0.4510
  854MOL0     H15282  10.768   2.041   6.788 -0.1803  2.3690  0.4304
  854MOL0     H15283  10.865   1.915   6.872 -0.0969 -0.8745 -3.1314
  854MOL0     H15284  11.011   2.114   6.853  1.1329 -0.2001  2.1767
  854MOL0     H15285  10.954   2.096   7.007 -0.9566  0.3442  0.1861
  854MOL0     H15286  10.815   2.290   6.985 -2.0361 -6.0284  2.2248
  854MOL0     H15287  10.798   2.282   6.808  2.0372 -3.0258 -1.3397
  854MOL0     H15288  11.122   2.540   6.865  2.4181 -1.1452 -0.3919
  854MOL0     H15289  10.480   1.948   7.147  1.7945  2.5077 -4.1706
  854MOL0     H15290  10.351   2.010   7.357  0.6175  0.3188  1.7221
  855MOL0     O15291   9.040   4.940   5.291  0.5383  0.1090  0.2927
  855MOL0     C15292   9.085   4.976   5.397 -0.3560 -0.2358 -0.4318
  855MOL0     O15293   9.028   4.939   5.517  0.5446 -0.4179 -0.7343
  855MOL0     C15294   8.924   4.848   5.526 -0.4001 -0.5119 -0.1351
  855MOL0     C15295   8.789   4.888   5.545  0.0404  0.2393  0.6018
  855MOL0     C15296   8.683   4.796   5.543 -0.2248  0.0015 -0.0374
  855MOL0     C15297   8.718   4.663   5.521 -0.9662 -0.7057  0.0957
  855MOL0     O15298   8.627   4.561   5.518  0.6597 -0.0082 -0.2251
  855MOL0     C15299   8.492   4.588   5.548  0.0152 -0.3427  0.5936
  855MOL0     C15300   8.424   4.657   5.429  0.6668 -0.2826 -0.4698
  855MOL0     C15301   8.280   4.697   5.450 -0.2647  0.0117  0.1385
  855MOL0     C15302   8.203   4.577   5.511 -0.5871  0.5977 -0.1221
  855MOL0     C15303   8.049   4.588   5.487 -0.1446 -0.1287  0.3013
  855MOL0     C15304   7.974   4.486   5.566  0.1823 -0.1815 -0.2119
  855MOL0     C15305   7.829   4.469   5.506 -0.3214  0.2777 -0.5903
  855MOL0     C15306   7.752   4.390   5.606 -0.1552 -0.5947 -0.7970
  855MOL0     N15307   7.814   4.262   5.638 -0.2160 -0.1375 -0.2340
  855MOL0     C15308   7.844   4.172   5.543  0.0640 -0.0084 -0.5190
  855MOL0     C15309   7.909   4.072   5.609 -0.4326 -0.6437  0.1198
  855MOL0     C15310   7.954   3.941   5.560 -0.0368  0.5968 -0.1390
  855MOL0     C15311   7.838   3.834   5.571  0.2391 -0.9028 -0.8300
  855MOL0     C15312   7.781   3.827   5.707  0.2726  0.3061 -0.6247
  855MOL0     C15313   7.698   3.701   5.707 -0.6143  0.5186 -0.6146
  855MOL0     O15314   7.601   3.701   5.594  0.6286 -0.0771 -0.7420
  855MOL0     C15315   7.485   3.632   5.623 -0.7081  1.0021 -0.0245
  855MOL0     C15316   7.469   3.539   5.727 -0.2921 -0.5360 -0.5055
  855MOL0     C15317   7.345   3.484   5.754 -0.2673  0.1278  0.1491
  855MOL0     C15318   7.332   3.382   5.857  0.3912  0.5407 -0.8077
  855MOL0     C15319   7.233   3.527   5.671 -0.5437 -0.4124 -0.9445
  855MOL0     C15320   7.094   3.487   5.709 -0.4903  0.0925  0.8299
  855MOL0     O15321   7.004   3.587   5.702 -0.2599  0.4899  0.5810
  855MOL0     C15322   6.869   3.575   5.709 -0.2763 -1.1485 -0.3848
  855MOL0     C15323   6.799   3.468   5.763 -0.0528 -1.0087  0.3997
  855MOL0     C15324   6.659   3.470   5.771  0.7397 -0.4334 -0.3528
  855MOL0     C15325   6.583   3.578   5.719  0.5446  0.7191 -0.1882
  855MOL0     O15326   6.447   3.570   5.712 -0.0186 -0.1472  0.1990
  855MOL0     C15327   6.376   3.587   5.842 -0.2396 -0.2414  0.8624
  855MOL0     C15328   6.283   3.712   5.855  0.8677 -0.3956  0.1120
  855MOL0     C15329   6.369   3.846   5.836 -0.6830  0.2614  0.2851
  855MOL0     C15330   6.291   3.972   5.871 -0.1646 -0.5429  0.4650
  855MOL0     C15331   6.350   4.105   5.799 -0.9955 -0.9154 -1.0015
  855MOL0     C15332   6.498   4.124   5.833 -1.0706  0.5568  0.6358
  855MOL0     C15333   6.560   4.232   5.742 -0.2179 -0.1291  0.0153
  855MOL0     C15334   6.715   4.211   5.734  0.9796 -0.8441 -0.1278
  855MOL0    Cl15335   6.746   4.041   5.677  0.1820 -0.0946  0.3546
  855MOL0     C15336   6.658   3.691   5.680  0.3697  0.4232 -0.3088
  855MOL0     C15337   6.799   3.688   5.673 -0.1589 -0.6748 -0.7198
  855MOL0     O15338   7.075   3.367   5.735 -0.7770 -0.2525  0.2950
  855MOL0     C15339   7.258   3.605   5.564 -0.3048 -1.0760  0.2285
  855MOL0     C15340   7.382   3.650   5.536  0.1544  0.4507 -0.8057
  855MOL0     N15341   7.925   4.104   5.743 -0.5409  0.0890 -0.1314
  855MOL0     N15342   7.869   4.220   5.755  0.3313 -0.8189 -0.4971
  855MOL0     C15343   8.848   4.623   5.498 -0.4831  0.1579  0.4887
  855MOL0     C15344   8.949   4.720   5.506  0.6046  0.8295 -0.0686
  855MOL0     C15345   9.222   5.044   5.402 -0.9662  0.1746  0.5143
  855MOL0     C15346   9.279   5.069   5.272  0.3394  0.5089 -0.5470
  855MOL0     C15347   9.403   5.124   5.279 -0.1693 -0.9521  0.5134
  855MOL0     C15348   9.482   5.140   5.392  0.2717  0.0065 -0.8224
  855MOL0     O15349   9.615   5.190   5.394 -0.3788 -0.1144 -0.1989
  855MOL0     C15350   9.665   5.251   5.269  0.3673  0.0486 -0.0399
  855MOL0     C15351   9.585   5.374   5.212 -0.1427  0.4035 -0.3067
  855MOL0     C15352   9.615   5.509   5.279 -0.1723  0.5338 -0.1261
  855MOL0     C15353   9.554   5.514   5.431 -0.3769  0.3580 -0.9151
  855MOL0     C15354   9.600   5.633   5.503 -0.0164 -0.7315  0.0626
  855MOL0     C15355   9.615   5.752   5.539  0.2577  0.4000  0.4094
  855MOL0     C15356   9.422   5.118   5.513  0.0828 -0.0230  0.2853
  855MOL0     C15357   9.294   5.066   5.520 -0.6190 -0.1152 -0.0180
  855MOL0     H15358   8.781   4.994   5.566  2.1290  0.4644  0.5163
  855MOL0     H15359   8.584   4.834   5.564 -2.1217 -0.9492 -5.6436
  855MOL0     H15360   8.446   4.489   5.564  2.1240 -1.9740 -2.4922
  855MOL0     H15361   8.481   4.639   5.644 -0.0807 -2.3800  1.7456
  855MOL0     H15362   8.475   4.751   5.404 -0.6395  0.6272  0.1373
  855MOL0     H15363   8.438   4.590   5.344  2.3220  1.2967 -1.5191
  855MOL0     H15364   8.288   4.788   5.511 -0.5666 -1.9719  3.3636
  855MOL0     H15365   8.224   4.712   5.357 -1.8542 -3.2255  0.4236
  855MOL0     H15366   8.233   4.489   5.453 -0.0033  1.9030 -1.8857
  855MOL0     H15367   8.227   4.566   5.617 -0.1213  1.7465 -0.0983
  855MOL0     H15368   8.004   4.681   5.523 -3.8363 -2.1639  1.4818
  855MOL0     H15369   8.028   4.577   5.381  1.4389 -0.8470  0.0403
  855MOL0     H15370   8.023   4.389   5.554 -2.2426 -1.3225 -1.5519
  855MOL0     H15371   7.971   4.510   5.672  0.9678  0.2453 -0.2769
  855MOL0     H15372   7.782   4.563   5.474  1.9535  0.9372 -2.2860
  855MOL0     H15373   7.831   4.415   5.411 -1.4352 -1.1607  0.1774
  855MOL0     H15374   7.654   4.364   5.565 -0.9379  0.9782 -0.0088
  855MOL0     H15375   7.755   4.460   5.691  2.4535 -1.8285  0.2328
  855MOL0     H15376   7.821   4.171   5.437 -2.4145 -1.9627 -0.0446
  855MOL0     H15377   7.990   3.951   5.457  1.1134  1.2707  0.3144
  855MOL0     H15378   8.041   3.918   5.622  2.3431  3.1811 -2.2339
  855MOL0     H15379   7.863   3.738   5.525 -1.9165 -1.5101 -0.8310
  855MOL0     H15380   7.754   3.869   5.510  2.3174  1.9337 -2.2814
  855MOL0     H15381   7.711   3.907   5.728 -2.0827 -2.1538  1.8293
  855MOL0     H15382   7.849   3.830   5.793 -2.9614 -2.6637  2.3873
  855MOL0     H15383   7.660   3.683   5.808  2.7906 -1.5728  0.4608
  855MOL0     H15384   7.760   3.613   5.689 -1.6939 -0.8210  1.7597
  855MOL0     H15385   7.558   3.509   5.782  0.9036 -0.1296 -2.1533
  855MOL0     H15386   7.432   3.375   5.899 -1.9829  0.8620  6.3077
  855MOL0     H15387   7.270   3.412   5.942  1.6274  3.1429 -0.7580
  855MOL0     H15388   7.295   3.290   5.809  1.2654  0.9067 -2.2341
  855MOL0     H15389   6.833   3.374   5.807 -0.5511 -1.8591 -0.9839
  855MOL0     H15390   6.614   3.381   5.815  0.7354  1.5172  4.1644
  855MOL0     H15391   6.305   3.508   5.865 -0.9537  0.6524  1.8691
  855MOL0     H15392   6.452   3.587   5.922  1.0746  1.9382 -0.2847
  855MOL0     H15393   6.216   3.709   5.769 -0.3272 -1.6819  1.0467
  855MOL0     H15394   6.233   3.710   5.952  0.3888 -0.4271 -0.1334
  855MOL0     H15395   6.422   3.853   5.740  1.1692  1.3027  1.3432
  855MOL0     H15396   6.446   3.827   5.911  0.8047 -0.4471 -1.3505
  855MOL0     H15397   6.184   3.962   5.849 -1.6200  3.7363  4.0490
  855MOL0     H15398   6.304   3.977   5.980  3.1934 -1.5166  0.2319
  855MOL0     H15399   6.303   4.195   5.840  1.6619  0.6749 -1.2398
  855MOL0     H15400   6.324   4.098   5.693 -3.3956  0.3080 -0.5557
  855MOL0     H15401   6.509   4.145   5.940  0.8382 -2.2781  1.0872
  855MOL0     H15402   6.551   4.032   5.810  1.0308  2.3258 -2.2640
  855MOL0     H15403   6.533   4.328   5.789 -0.3052  0.8995 -2.0314
  855MOL0     H15404   6.520   4.233   5.641 -2.8072  0.5633  0.9759
  855MOL0     H15405   6.760   4.222   5.833  0.2707  1.7706 -0.0119
  855MOL0     H15406   6.764   4.282   5.667  1.3029 -0.9001  0.0503
  855MOL0     H15407   6.600   3.774   5.641  0.5555  0.1368 -1.2280
  855MOL0     H15408   6.854   3.776   5.640 -2.5168  1.1124 -0.1730
  855MOL0     H15409   7.173   3.642   5.507  1.0016  5.2646  1.6468
  855MOL0     H15410   7.384   3.724   5.457  0.7087  3.2472  1.6462
  855MOL0     H15411   8.869   4.520   5.471  0.0821 -0.7664  3.9410
  855MOL0     H15412   9.051   4.687   5.488 -0.8364 -2.8199 -2.7055
  855MOL0     H15413   9.222   5.053   5.181 -3.7811 -0.5839  1.9542
  855MOL0     H15414   9.444   5.146   5.181 -0.5399  0.7164  0.7098
  855MOL0     H15415   9.771   5.276   5.278  0.1104  0.8490  1.0894
  855MOL0     H15416   9.661   5.177   5.189  0.5736 -1.0528  0.9481
  855MOL0     H15417   9.480   5.353   5.187 -0.7951  1.0105  1.7416
  855MOL0     H15418   9.631   5.397   5.116 -2.2954  3.0431 -0.8569
  855MOL0     H15419   9.579   5.589   5.213 -3.2993 -0.0659  0.6509
  855MOL0     H15420   9.723   5.515   5.293 -0.0820  1.8727 -1.1486
  855MOL0     H15421   9.574   5.429   5.496  2.0753  1.5842  0.0432
  855MOL0     H15422   9.445   5.521   5.424 -0.3714  1.0847 -0.3843
  855MOL0     H15423   9.611   5.857   5.562  4.3338  0.6393  0.8010
  855MOL0     H15424   9.474   5.144   5.604  2.2539 -0.5763 -0.7300
  855MOL0     H15425   9.250   5.043   5.616  0.3357 -1.1150  0.2030
  856MOL0     O15426   0.604   7.456   4.679  0.0141 -0.1255 -0.1268
  856MOL0     C15427   0.604   7.579   4.695 -0.5207  0.8889  0.2324
  856MOL0     O15428   0.491   7.662   4.691  0.5402  0.6822 -0.2740
  856MOL0     C15429   0.375   7.596   4.652 -0.0941 -0.7364 -0.9731
  856MOL0     C15430   0.279   7.574   4.756  0.6183  1.1022 -1.0274
  856MOL0     C15431   0.158   7.514   4.718  0.7709 -0.8209 -0.6344
  856MOL0     C15432   0.126   7.477   4.583  0.0479  0.0605  0.4802
  856MOL0     O15433   0.011   7.423   4.553  0.5730  0.9743  0.2653
  856MOL0     C15434  -0.076   7.483   4.455  0.2033  0.5388  0.5773
  856MOL0     C15435  -0.213   7.412   4.434 -0.2563 -1.0327 -0.3541
  856MOL0     C15436  -0.314   7.430   4.542  0.1787 -0.5904  0.4192
  856MOL0     C15437  -0.371   7.298   4.581 -0.2459 -0.2816  0.4504
  856MOL0     C15438  -0.510   7.307   4.640 -0.5308 -0.6658  0.0180
  856MOL0     C15439  -0.519   7.379   4.770  0.3184 -1.1609 -0.1211
  856MOL0     C15440  -0.670   7.393   4.817 -0.0986  0.1751  0.3951
  856MOL0     C15441  -0.683   7.512   4.911 -0.5970  1.1081 -0.0400
  856MOL0     N15442  -0.817   7.534   4.961 -0.4957 -0.3887 -0.0342
  856MOL0     C15443  -0.912   7.619   4.912  0.3218 -0.6885  0.9441
  856MOL0     C15444  -1.033   7.607   4.979 -0.8063 -0.5593 -0.1939
  856MOL0     C15445  -1.165   7.686   4.959  0.2074  0.6144 -0.1846
  856MOL0     C15446  -1.290   7.607   5.026 -0.4362  0.4759 -0.2763
  856MOL0     C15447  -1.417   7.694   5.009  0.0650 -0.0507  0.1501
  856MOL0     C15448  -1.494   7.664   4.877 -0.4279 -0.1701 -0.1573
  856MOL0     O15449  -1.426   7.625   4.757  0.1017 -0.6058  0.4655
  856MOL0     C15450  -1.484   7.625   4.637 -0.1975 -0.7196 -0.7622
  856MOL0     C15451  -1.602   7.687   4.605 -0.4556 -0.0269 -0.6259
  856MOL0     C15452  -1.644   7.680   4.468 -0.3779  0.0436 -1.1006
  856MOL0     C15453  -1.775   7.754   4.427 -0.0298  0.0922  0.0337
  856MOL0     C15454  -1.565   7.607   4.369  0.3305  0.1419  0.3249
  856MOL0     C15455  -1.595   7.597   4.226  0.0762  0.0960 -0.5882
  856MOL0     O15456  -1.548   7.485   4.160  0.5093 -0.7545 -0.8553
  856MOL0     C15457  -1.592   7.464   4.036  0.2584  0.8054  0.4468
  856MOL0     C15458  -1.504   7.420   3.942 -0.2054  0.9695 -0.4362
  856MOL0     C15459  -1.548   7.373   3.817 -0.4041 -0.3632 -0.3723
  856MOL0     C15460  -1.682   7.372   3.783  0.3277  0.1477 -0.4170
  856MOL0     O15461  -1.714   7.340   3.657  0.3006  0.0010  0.2421
  856MOL0     C15462  -1.850   7.310   3.617 -0.2372  0.3861  0.5885
  856MOL0     C15463  -1.871   7.322   3.465  0.1150 -0.0887 -0.2893
  856MOL0     C15464  -1.878   7.187   3.416  0.5273  0.1758 -0.2015
  856MOL0     C15465  -1.892   7.187   3.263 -0.2081 -0.4454 -0.6997
  856MOL0     C15466  -1.907   7.040   3.227  0.2788  0.9008 -0.4596
  856MOL0     C15467  -1.952   7.020   3.080  0.2020 -0.3378 -0.2733
  856MOL0     C15468  -1.993   6.881   3.055  0.1460  0.3082 -0.5183
  856MOL0     C15469  -2.078   6.875   2.925  0.3305  0.4123  0.1316
  856MOL0    Cl15470  -2.060   6.709   2.866 -0.1537  0.2512  0.6480
  856MOL0     C15471  -1.768   7.416   3.884  0.5311  0.2336  0.2664
  856MOL0     C15472  -1.725   7.452   4.004 -0.3084 -0.9722 -0.3750
  856MOL0     O15473  -1.667   7.686   4.172  0.7891  1.0673  0.3770
  856MOL0     C15474  -1.446   7.545   4.410  0.8331  0.1436  0.2852
  856MOL0     C15475  -1.412   7.557   4.544 -0.7520  0.6702 -1.1805
  856MOL0     N15476  -0.996   7.526   5.088  0.4559  0.2578 -0.2229
  856MOL0     N15477  -0.879   7.473   5.068  0.0155 -0.3595 -0.6286
  856MOL0     C15478   0.231   7.480   4.492  0.0128 -0.1210  0.1592
  856MOL0     C15479   0.352   7.549   4.524  0.2692  0.2480 -0.1221
  856MOL0     C15480   0.736   7.641   4.721  0.0583  0.9490 -0.0869
  856MOL0     C15481   0.856   7.560   4.711  0.2109  0.9815  0.5045
  856MOL0     C15482   0.986   7.618   4.715  0.4195  0.1471  0.1972
  856MOL0     C15483   0.999   7.754   4.725  0.2464 -0.1368  0.5432
  856MOL0     O15484   1.128   7.795   4.723 -0.0175  0.4273 -0.5983
  856MOL0     C15485   1.149   7.931   4.699  0.1441 -0.6748 -0.3850
  856MOL0     C15486   1.301   7.957   4.686  0.1417  0.6907 -0.0955
  856MOL0     C15487   1.395   7.886   4.782 -0.1394 -0.0056  0.3884
  856MOL0     C15488   1.526   7.963   4.797 -0.3716 -0.4593 -0.1525
  856MOL0     C15489   1.606   7.963   4.677  0.3512  0.3562  0.5430
  856MOL0     C15490   1.668   7.996   4.576 -0.5773 -1.0990  0.4165
  856MOL0     C15491   0.882   7.834   4.718 -0.6840  0.3991 -0.2404
  856MOL0     C15492   0.755   7.778   4.723  0.4371  0.6527  1.0335
  856MOL0     H15493   0.288   7.611   4.857  1.0941 -1.5508 -0.0195
  856MOL0     H15494   0.074   7.486   4.781 -1.3342  0.7604 -2.5517
  856MOL0     H15495  -0.094   7.584   4.494  3.9988  1.5557  0.1153
  856MOL0     H15496  -0.015   7.482   4.364  1.1350 -2.9663  1.0972
  856MOL0     H15497  -0.264   7.450   4.345 -2.7100  1.0582  1.7788
  856MOL0     H15498  -0.186   7.307   4.418  0.6504 -0.8995  0.2009
  856MOL0     H15499  -0.279   7.482   4.631 -3.1343  1.9087  0.4625
  856MOL0     H15500  -0.387   7.502   4.503  0.8110  0.2453  0.7495
  856MOL0     H15501  -0.387   7.233   4.494 -0.2451 -1.7434  1.4966
  856MOL0     H15502  -0.307   7.239   4.647 -0.9028 -3.3390 -1.4601
  856MOL0     H15503  -0.582   7.349   4.569 -2.3954  1.3919  2.9071
  856MOL0     H15504  -0.562   7.213   4.661 -0.1986 -0.3444  2.6030
  856MOL0     H15505  -0.470   7.323   4.851  1.3312 -0.3714 -0.1614
  856MOL0     H15506  -0.477   7.480   4.766 -0.1610 -0.8946  1.1714
  856MOL0     H15507  -0.737   7.407   4.732 -2.9540  0.1474  2.4915
  856MOL0     H15508  -0.699   7.312   4.884 -1.4104 -0.6256 -1.0613
  856MOL0     H15509  -0.660   7.606   4.859  0.2508  0.4873 -0.8085
  856MOL0     H15510  -0.610   7.501   4.992  1.8873  1.2151 -2.1226
  856MOL0     H15511  -0.895   7.668   4.817  2.5296 -2.1145  0.5365
  856MOL0     H15512  -1.147   7.784   5.003 -3.7947  0.8140  1.4369
  856MOL0     H15513  -1.187   7.698   4.852 -1.1920 -3.6012 -0.5970
  856MOL0     H15514  -1.262   7.593   5.130  0.0632 -0.0711 -0.4739
  856MOL0     H15515  -1.292   7.506   4.982  0.6535  0.2264  0.2065
  856MOL0     H15516  -1.393   7.800   5.013 -2.0792  0.5192 -0.7612
  856MOL0     H15517  -1.481   7.651   5.086  1.2589 -3.5676 -0.5956
  856MOL0     H15518  -1.532   7.764   4.852 -0.1384 -0.0930 -0.3027
  856MOL0     H15519  -1.580   7.601   4.900 -1.3261  0.5746 -1.3455
  856MOL0     H15520  -1.668   7.740   4.674 -1.0508 -0.9011 -0.4981
  856MOL0     H15521  -1.731   7.847   4.389  2.4457 -1.6360 -1.6183
  856MOL0     H15522  -1.828   7.709   4.342  2.3114  0.0552 -1.5024
  856MOL0     H15523  -1.845   7.774   4.508 -0.3970  0.3850 -0.3503
  856MOL0     H15524  -1.399   7.424   3.969 -0.2148 -1.6852  0.3140
  856MOL0     H15525  -1.476   7.360   3.737 -0.2135 -0.4388 -0.1903
  856MOL0     H15526  -1.870   7.209   3.653  0.3312  0.7821  2.0771
  856MOL0     H15527  -1.927   7.368   3.669 -0.1819  0.5491  0.4901
  856MOL0     H15528  -1.961   7.378   3.436  0.8583  0.1649 -2.2590
  856MOL0     H15529  -1.781   7.375   3.434  1.3136 -1.1447  1.2168
  856MOL0     H15530  -1.969   7.142   3.457  1.2931 -0.4626  0.8216
  856MOL0     H15531  -1.798   7.122   3.452 -0.7667  0.2191  3.1132
  856MOL0     H15532  -1.979   7.244   3.227 -0.4073 -1.5301 -2.0633
  856MOL0     H15533  -1.801   7.224   3.216 -1.1766  2.4019 -0.5108
  856MOL0     H15534  -1.990   6.999   3.286  0.1029 -0.5820 -1.6625
  856MOL0     H15535  -1.822   6.976   3.252 -1.4049 -2.1819 -1.9828
  856MOL0     H15536  -2.044   7.079   3.075  0.2707 -0.3106 -1.7208
  856MOL0     H15537  -1.874   7.055   3.012  1.8125  1.0168  2.1592
  856MOL0     H15538  -2.055   6.833   3.132 -1.9906  2.5306 -0.7238
  856MOL0     H15539  -1.898   6.829   3.044  0.0920 -0.1779  0.9843
  856MOL0     H15540  -2.037   6.937   2.844 -0.8460 -1.0747 -1.6642
  856MOL0     H15541  -2.179   6.907   2.950  0.2794 -1.2473  2.3693
  856MOL0     H15542  -1.874   7.421   3.862 -0.1712  1.6884  3.4449
  856MOL0     H15543  -1.789   7.472   4.089  2.8197  0.6525  1.7900
  856MOL0     H15544  -1.383   7.505   4.332  0.1378 -1.5133  0.5038
  856MOL0     H15545  -1.317   7.519   4.582 -1.2551  1.3467  0.8787
  856MOL0     H15546   0.222   7.448   4.389  0.9422  0.6440 -0.1787
  856MOL0     H15547   0.423   7.565   4.443 -0.2982 -1.3632 -0.9724
  856MOL0     H15548   0.835   7.454   4.701 -2.1406  1.4180  0.1420
  856MOL0     H15549   1.075   7.557   4.699  2.3096  3.1969 -1.8756
  856MOL0     H15550   1.094   7.966   4.611 -1.8500  0.5405  1.2345
  856MOL0     H15551   1.108   7.989   4.783  1.6899  1.9578 -1.3013
  856MOL0     H15552   1.308   8.066   4.682 -1.6112  1.0099  2.5610
  856MOL0     H15553   1.326   7.927   4.584 -2.8269 -1.4733 -0.3116
  856MOL0     H15554   1.411   7.784   4.744  2.8170 -0.4846  2.5717
  856MOL0     H15555   1.343   7.879   4.878 -1.2393  1.1618 -0.1035
  856MOL0     H15556   1.581   7.912   4.877  0.8328  2.0881  0.7476
  856MOL0     H15557   1.516   8.059   4.849 -2.7682 -0.4747 -0.5079
  856MOL0     H15558   1.709   8.034   4.485  4.7019 -0.0241  2.8531
  856MOL0     H15559   0.890   7.942   4.702  4.3613  0.5235  1.5320
  856MOL0     H15560   0.669   7.842   4.710  0.5038  0.2858 -2.1234
  857MOL0     O15561   8.138   3.476   6.375  0.1913 -0.2286 -0.4100
  857MOL0     C15562   8.046   3.519   6.302 -0.0594  0.0071 -0.3183
  857MOL0     O15563   7.930   3.452   6.261  0.3975  0.3079  0.2012
  857MOL0     C15564   7.919   3.321   6.303 -0.7751  0.1403  0.5293
  857MOL0     C15565   7.976   3.239   6.204  0.3772  0.0678 -0.5540
  857MOL0     C15566   7.953   3.101   6.220 -0.6976  0.4317 -0.1864
  857MOL0     C15567   7.892   3.047   6.335 -0.3288 -0.5278  0.5435
  857MOL0     O15568   7.882   2.913   6.367  0.0434  0.5353 -0.0598
  857MOL0     C15569   7.947   2.812   6.286  0.1672 -0.8687 -0.9372
  857MOL0     C15570   7.930   2.671   6.339  0.1354 -0.3127 -0.4482
  857MOL0     C15571   8.017   2.646   6.469  0.5703 -0.2509  1.8903
  857MOL0     C15572   7.964   2.720   6.592 -0.3148 -0.1523  0.2359
  857MOL0     C15573   8.035   2.672   6.718  0.1157  0.0550  0.3974
  857MOL0     C15574   8.019   2.519   6.744  0.1583 -0.0161  0.3399
  857MOL0     C15575   7.882   2.475   6.783  0.9521  0.7754  0.6313
  857MOL0     C15576   7.873   2.326   6.826  0.5779 -0.7420  0.1733
  857MOL0     N15577   7.888   2.231   6.717 -0.6051  0.3539 -1.0249
  857MOL0     C15578   7.808   2.222   6.614  0.8102  0.0816 -0.3173
  857MOL0     C15579   7.854   2.134   6.529  0.3459 -0.3763 -1.1630
  857MOL0     C15580   7.809   2.103   6.392 -0.6801  0.1666 -0.2665
  857MOL0     C15581   7.916   2.142   6.285 -0.4151 -0.3041 -0.4214
  857MOL0     C15582   7.948   2.292   6.296 -0.3670 -0.8457  0.0820
  857MOL0     C15583   8.073   2.323   6.223  0.3622 -0.2314  0.6137
  857MOL0     O15584   8.191   2.246   6.256  0.2019 -0.0579 -0.7220
  857MOL0     C15585   8.257   2.304   6.368  0.2625 -0.0747  0.1803
  857MOL0     C15586   8.329   2.431   6.365  0.0242  0.5169  0.0529
  857MOL0     C15587   8.370   2.499   6.481 -0.0047 -1.6185  0.2738
  857MOL0     C15588   8.439   2.633   6.459 -0.5369 -0.1581  0.3637
  857MOL0     C15589   8.354   2.431   6.603 -0.6191 -0.4515 -0.3727
  857MOL0     C15590   8.392   2.489   6.731 -0.1006 -0.8524  0.1031
  857MOL0     O15591   8.394   2.410   6.841  0.3525 -0.3387  0.6192
  857MOL0     C15592   8.409   2.474   6.960 -0.5633  0.2768 -0.4114
  857MOL0     C15593   8.305   2.470   7.057  0.2697 -0.1811  0.1706
  857MOL0     C15594   8.321   2.521   7.183 -0.0774 -0.1112  0.0855
  857MOL0     C15595   8.436   2.595   7.223 -0.4872 -0.2530  1.5939
  857MOL0     O15596   8.441   2.648   7.351  0.2925  0.5642 -0.1348
  857MOL0     C15597   8.422   2.559   7.466 -0.5407 -0.5574  0.1176
  857MOL0     C15598   8.440   2.644   7.587 -0.2354  0.8288  1.1188
  857MOL0     C15599   8.318   2.744   7.599 -1.0169  1.2042  0.3824
  857MOL0     C15600   8.344   2.826   7.722 -0.2767 -0.0150  0.3943
  857MOL0     C15601   8.221   2.912   7.750 -0.2408 -0.5644 -0.3617
  857MOL0     C15602   8.221   3.027   7.652  0.2639  0.4095 -0.6527
  857MOL0     C15603   8.083   3.044   7.577 -0.2752  0.8122  0.0887
  857MOL0     C15604   8.093   3.162   7.479 -0.0332 -0.1872  0.0243
  857MOL0    Cl15605   8.040   3.299   7.587  0.0861 -0.2172 -0.0202
  857MOL0     C15606   8.534   2.612   7.118 -0.2486  0.5384 -0.3600
  857MOL0     C15607   8.525   2.549   6.993  0.1152 -0.1951  0.2682
  857MOL0     O15608   8.418   2.610   6.736  0.0077 -0.0853 -0.4205
  857MOL0     C15609   8.284   2.305   6.610 -0.0427  0.0992 -0.7996
  857MOL0     C15610   8.238   2.244   6.496 -0.3752  0.1608  1.2557
  857MOL0     N15611   7.961   2.082   6.586 -0.4488  0.4165 -0.9422
  857MOL0     N15612   7.981   2.130   6.710 -0.2112 -0.3938  0.6154
  857MOL0     C15613   7.848   3.133   6.426  0.1654  0.0870  0.7077
  857MOL0     C15614   7.858   3.265   6.417  0.1712 -0.9682  1.1948
  857MOL0     C15615   8.087   3.648   6.241 -0.6401  0.5184 -0.5320
  857MOL0     C15616   8.210   3.724   6.270  0.6998 -0.7642 -0.6916
  857MOL0     C15617   8.238   3.836   6.198  0.3710  0.4173  0.3965
  857MOL0     C15618   8.164   3.884   6.088  1.1276 -1.1133  0.2383
  857MOL0     O15619   8.218   3.982   6.004 -0.1877 -0.3189  0.0322
  857MOL0     C15620   8.177   4.112   6.050 -0.8061  1.0107 -0.6010
  857MOL0     C15621   8.259   4.222   5.988  0.3329  0.0827  0.1046
  857MOL0     C15622   8.269   4.204   5.840 -0.4334 -0.4175  0.3598
  857MOL0     C15623   8.313   4.333   5.772 -1.1218  0.0854 -0.0500
  857MOL0     C15624   8.459   4.349   5.781 -0.1085  0.6992 -1.2751
  857MOL0     C15625   8.579   4.340   5.788 -0.8672  0.7888  0.2189
  857MOL0     C15626   8.042   3.817   6.059  0.6428 -0.8801  0.2658
  857MOL0     C15627   8.007   3.701   6.139 -0.5945  0.5699 -0.0003
  857MOL0     H15628   8.026   3.294   6.125 -0.9538  1.4564 -0.4778
  857MOL0     H15629   8.002   3.044   6.142  0.0946  3.2326 -1.8724
  857MOL0     H15630   7.899   2.810   6.188 -2.6966  0.7731  0.3086
  857MOL0     H15631   8.054   2.834   6.278 -0.1052  2.9402  2.6632
  857MOL0     H15632   7.824   2.646   6.349 -0.1305  0.6912 -0.5622
  857MOL0     H15633   7.965   2.615   6.253  2.6234  1.1264 -0.4543
  857MOL0     H15634   8.006   2.538   6.488 -3.2926 -0.2942  0.2808
  857MOL0     H15635   8.119   2.679   6.451 -0.3786  0.9965 -2.0333
  857MOL0     H15636   7.999   2.822   6.573 -1.3994  0.2421  0.3192
  857MOL0     H15637   7.856   2.714   6.605 -0.4612 -3.3596 -1.5042
  857MOL0     H15638   8.140   2.694   6.699 -0.6482  4.3225  0.1404
  857MOL0     H15639   7.995   2.721   6.807 -0.9298 -1.5100  0.8294
  857MOL0     H15640   8.059   2.458   6.663  1.0473  1.1496 -0.1288
  857MOL0     H15641   8.078   2.498   6.834  0.8917 -2.5162 -0.6392
  857MOL0     H15642   7.839   2.541   6.860 -3.4838  2.2436 -2.6826
  857MOL0     H15643   7.812   2.487   6.700  0.9814  2.1258  0.7799
  857MOL0     H15644   7.779   2.298   6.875 -1.6667  2.5551 -1.7994
  857MOL0     H15645   7.953   2.309   6.898 -1.2455  0.3244  2.6007
  857MOL0     H15646   7.717   2.279   6.596  1.2251  1.1191  0.7004
  857MOL0     H15647   7.795   1.995   6.391 -2.3426  0.3560  0.4435
  857MOL0     H15648   7.715   2.156   6.375 -1.0240 -0.4508 -0.3322
  857MOL0     H15649   7.878   2.118   6.185  0.5197  0.3396 -0.9433
  857MOL0     H15650   8.010   2.089   6.304  1.6182  3.6444  1.7004
  857MOL0     H15651   7.956   2.324   6.400  2.1341  1.8250 -0.8112
  857MOL0     H15652   7.865   2.353   6.257 -0.5239 -1.6932 -0.9533
  857MOL0     H15653   8.094   2.430   6.232  1.6092 -0.0713 -2.6967
  857MOL0     H15654   8.057   2.305   6.116 -0.1545 -2.2363  0.9749
  857MOL0     H15655   8.350   2.465   6.264 -0.2602  1.0084  0.1579
  857MOL0     H15656   8.460   2.655   6.354 -2.0206  2.1060  0.4906
  857MOL0     H15657   8.384   2.719   6.497  0.0883  0.6549 -0.5242
  857MOL0     H15658   8.538   2.630   6.507  0.9553 -1.7925 -2.5214
  857MOL0     H15659   8.214   2.418   7.029 -0.8488  1.3900  0.7220
  857MOL0     H15660   8.239   2.497   7.249  1.4379 -3.2602  1.0151
  857MOL0     H15661   8.328   2.506   7.480  0.9300 -2.6762  2.7482
  857MOL0     H15662   8.504   2.487   7.473  0.1170  0.1971  0.4273
  857MOL0     H15663   8.450   2.569   7.666  0.6718 -0.0298  0.2203
  857MOL0     H15664   8.537   2.696   7.583 -0.6295  1.5224 -2.4018
  857MOL0     H15665   8.228   2.682   7.607  1.0411 -2.0972 -0.0339
  857MOL0     H15666   8.298   2.796   7.505 -4.1862 -1.3240 -0.5346
  857MOL0     H15667   8.348   2.755   7.804  0.8828  1.0553  1.3002
  857MOL0     H15668   8.438   2.882   7.720  0.9603 -1.8656 -3.3323
  857MOL0     H15669   8.240   2.947   7.852  4.8119  1.1902 -1.5878
  857MOL0     H15670   8.130   2.852   7.745 -0.7545  0.1021  0.7145
  857MOL0     H15671   8.244   3.114   7.714  0.3052 -0.7670  1.0362
  857MOL0     H15672   8.293   3.016   7.571  2.3614 -1.6991  1.3375
  857MOL0     H15673   8.002   3.058   7.650  0.5494 -2.0803  1.7061
  857MOL0     H15674   8.060   2.950   7.525  0.7781  0.3774  0.3838
  857MOL0     H15675   8.026   3.150   7.393 -0.0115 -2.0488  0.2256
  857MOL0     H15676   8.194   3.181   7.441 -0.0836  0.2705  0.1139
  857MOL0     H15677   8.623   2.669   7.145  1.5015 -3.2523  2.9139
  857MOL0     H15678   8.603   2.576   6.922 -0.4814 -2.2565 -1.2753
  857MOL0     H15679   8.285   2.254   6.705  2.3353  0.1281 -0.7413
  857MOL0     H15680   8.195   2.144   6.506  0.2479 -0.1939  0.4493
  857MOL0     H15681   7.800   3.098   6.517 -1.0736 -0.3095 -0.0673
  857MOL0     H15682   7.822   3.327   6.499  1.2456 -1.3002  1.9312
  857MOL0     H15683   8.284   3.701   6.346  0.7829  1.5413 -0.0167
  857MOL0     H15684   8.337   3.876   6.219  0.7344  0.4541 -1.2136
  857MOL0     H15685   8.071   4.114   6.023 -0.9699 -0.5296 -0.1629
  857MOL0     H15686   8.179   4.113   6.159 -0.8373 -1.4010 -0.5344
  857MOL0     H15687   8.360   4.217   6.031  1.2685 -0.7296 -2.0405
  857MOL0     H15688   8.208   4.317   6.007 -1.3045 -0.4578 -1.3224
  857MOL0     H15689   8.168   4.191   5.800 -0.2877  1.6028 -0.8302
  857MOL0     H15690   8.332   4.115   5.830  1.9014  0.9350  2.0972
  857MOL0     H15691   8.263   4.422   5.812 -0.3044  1.8558 -2.7063
  857MOL0     H15692   8.283   4.329   5.667 -0.9941  1.8745 -0.1973
  857MOL0     H15693   8.686   4.346   5.796 -0.9520  1.2762  1.0370
  857MOL0     H15694   7.982   3.845   5.973 -0.1838  2.4591  1.7822
  857MOL0     H15695   7.916   3.645   6.121  1.2661 -2.1430 -1.7224
  858MOL0     O15696   8.852   0.594   4.632  0.3575  0.0490  0.6707
  858MOL0     C15697   8.898   0.493   4.688 -0.2320  0.1385 -0.4591
  858MOL0     O15698   8.829   0.403   4.769  1.0477  0.6454  0.2867
  858MOL0     C15699   8.688   0.399   4.772 -0.5354 -0.1726 -0.1086
  858MOL0     C15700   8.618   0.404   4.653  0.4495 -0.7371  0.3707
  858MOL0     C15701   8.484   0.419   4.648  0.5883 -0.1581  0.6775
  858MOL0     C15702   8.420   0.439   4.772 -0.3811  1.0748 -0.5830
  858MOL0     O15703   8.287   0.479   4.786 -0.7038  0.1286  0.3851
  858MOL0     C15704   8.188   0.492   4.684 -0.8275  0.6146  0.6921
  858MOL0     C15705   8.234   0.616   4.607 -0.0339 -0.6800 -0.1057
  858MOL0     C15706   8.104   0.672   4.527 -0.7640  0.6168  0.3248
  858MOL0     C15707   8.001   0.744   4.616  0.0269 -0.0110 -0.0985
  858MOL0     C15708   7.868   0.769   4.543 -1.2377  0.0036 -0.9930
  858MOL0     C15709   7.763   0.857   4.616  0.0715 -0.0793 -0.6081
  858MOL0     C15710   7.819   1.005   4.607 -0.3363  0.4897  0.4951
  858MOL0     C15711   7.724   1.100   4.677  0.0304  0.5369 -0.5569
  858MOL0     N15712   7.786   1.221   4.722  0.5483 -0.8514  0.0600
  858MOL0     C15713   7.802   1.334   4.639  0.1682 -0.2038 -0.5195
  858MOL0     C15714   7.843   1.424   4.735 -0.1471  0.6778  0.2411
  858MOL0     C15715   7.887   1.562   4.706 -0.6368 -0.1778  0.4699
  858MOL0     C15716   7.804   1.629   4.587 -0.7533  0.3996  0.5528
  858MOL0     C15717   7.653   1.658   4.615  0.5286  0.1460 -0.7189
  858MOL0     C15718   7.571   1.700   4.496 -0.3413 -0.0344 -0.4488
  858MOL0     O15719   7.571   1.841   4.488  0.0108  0.5206 -0.3190
  858MOL0     C15720   7.631   1.892   4.376  0.1048 -0.3765  0.5286
  858MOL0     C15721   7.595   2.020   4.328  0.3741 -0.4392  0.1998
  858MOL0     C15722   7.665   2.083   4.226 -0.6328 -0.7565 -0.4719
  858MOL0     C15723   7.634   2.233   4.210  0.2373  0.0969 -0.4624
  858MOL0     C15724   7.774   2.019   4.167 -0.2976 -0.4893  0.0421
  858MOL0     C15725   7.850   2.084   4.060 -0.5056 -0.8442  0.0335
  858MOL0     O15726   7.968   2.026   4.022  0.2884 -0.4819  0.4348
  858MOL0     C15727   8.049   2.079   3.924  0.2397 -0.3346 -0.0469
  858MOL0     C15728   7.997   2.118   3.797 -0.9240 -0.3334 -0.8273
  858MOL0     C15729   8.076   2.186   3.707 -0.4248  0.6505 -0.3292
  858MOL0     C15730   8.212   2.212   3.725 -0.0866 -0.0446  0.2427
  858MOL0     O15731   8.280   2.294   3.635  0.4241  0.8746 -0.0174
  858MOL0     C15732   8.215   2.421   3.613  0.1751 -0.1698 -0.5777
  858MOL0     C15733   8.212   2.498   3.750  0.0506 -0.1222 -0.0748
  858MOL0     C15734   8.343   2.504   3.833  0.1501  0.0817  0.5163
  858MOL0     C15735   8.454   2.591   3.764  0.4960  0.5275  0.5824
  858MOL0     C15736   8.566   2.639   3.864  0.3163 -0.7319 -0.2758
  858MOL0     C15737   8.518   2.736   3.968  0.6045  0.8474 -1.0865
  858MOL0     C15738   8.632   2.807   4.034  0.4721  0.1953  0.8923
  858MOL0     C15739   8.581   2.894   4.150  1.1838 -1.0443  0.0131
  858MOL0    Cl15740   8.466   2.808   4.256  0.2242  0.2641 -0.2595
  858MOL0     C15741   8.271   2.154   3.840 -0.6412  0.5755  1.7872
  858MOL0     C15742   8.188   2.098   3.938  0.1563 -0.0099 -0.3324
  858MOL0     O15743   7.784   2.164   3.991 -0.3636  0.5568 -0.3450
  858MOL0     C15744   7.813   1.894   4.211  0.8526  0.3267  0.0692
  858MOL0     C15745   7.742   1.825   4.309 -0.2174 -0.2109 -0.4013
  858MOL0     N15746   7.855   1.373   4.862  0.0495  0.1563 -0.1390
  858MOL0     N15747   7.823   1.249   4.852  0.2893  0.8883  0.8587
  858MOL0     C15748   8.487   0.437   4.896 -0.0194 -0.1309 -0.9735
  858MOL0     C15749   8.628   0.422   4.899  0.1728  0.2143  0.4054
  858MOL0     C15750   9.050   0.473   4.699  0.5294 -0.8674  1.2746
  858MOL0     C15751   9.124   0.541   4.609  0.4062  0.0309  0.2076
  858MOL0     C15752   9.264   0.521   4.608  0.8008  0.9204 -0.4676
  858MOL0     C15753   9.331   0.446   4.713  1.1439 -0.2231 -0.1660
  858MOL0     O15754   9.464   0.431   4.723 -0.0387  1.2557 -0.4374
  858MOL0     C15755   9.522   0.543   4.780 -0.5509  0.8866 -0.5121
  858MOL0     C15756   9.506   0.557   4.934 -0.6672  0.4008  0.6115
  858MOL0     C15757   9.591   0.680   4.990  0.1772 -0.7217 -0.2606
  858MOL0     C15758   9.566   0.675   5.148  0.7386 -0.9682 -0.3264
  858MOL0     C15759   9.689   0.659   5.223 -1.0288 -0.1716  0.7761
  858MOL0     C15760   9.798   0.631   5.277  0.3536 -0.4486 -0.2747
  858MOL0     C15761   9.242   0.376   4.799  0.6847  0.1736 -0.5164
  858MOL0     C15762   9.108   0.398   4.791 -0.5208 -0.1507  0.1137
  858MOL0     H15763   8.677   0.376   4.566  0.6392 -2.1262  0.9158
  858MOL0     H15764   8.444   0.422   4.547  0.1096  1.3937  0.8853
  858MOL0     H15765   8.183   0.400   4.625  2.5644  0.4383  0.4928
  858MOL0     H15766   8.091   0.492   4.735 -1.2359 -2.4610  0.1121
  858MOL0     H15767   8.274   0.693   4.674 -0.1479 -1.5836  1.0281
  858MOL0     H15768   8.316   0.596   4.538  0.3562 -3.3001  0.9949
  858MOL0     H15769   8.128   0.748   4.453 -2.9910  0.5820 -0.5220
  858MOL0     H15770   8.051   0.587   4.482  0.2614  0.6878 -1.0647
  858MOL0     H15771   7.976   0.698   4.712 -0.2098  0.3826  0.0313
  858MOL0     H15772   8.041   0.844   4.635  0.6804 -0.4563  0.9199
  858MOL0     H15773   7.898   0.824   4.453 -1.2878  1.9501  0.1093
  858MOL0     H15774   7.824   0.672   4.518 -0.3472 -0.6905  0.0883
  858MOL0     H15775   7.668   0.846   4.563  0.2495 -1.7997 -0.6197
  858MOL0     H15776   7.739   0.818   4.715 -2.8164 -0.3971 -1.3460
  858MOL0     H15777   7.915   1.017   4.660 -1.0247 -0.3130  2.0120
  858MOL0     H15778   7.835   1.033   4.503 -0.4452  1.9930  0.8542
  858MOL0     H15779   7.691   1.060   4.773  0.1190  0.9340 -0.3591
  858MOL0     H15780   7.638   1.120   4.612 -0.6744 -1.0891 -0.1865
  858MOL0     H15781   7.790   1.348   4.532  2.4258 -1.2519 -0.9681
  858MOL0     H15782   7.877   1.623   4.796  0.7526 -0.4283  0.8280
  858MOL0     H15783   7.993   1.549   4.682 -1.1216 -0.5798 -1.5818
  858MOL0     H15784   7.812   1.562   4.501  0.1505 -0.8861  1.6084
  858MOL0     H15785   7.852   1.724   4.564 -0.1661 -0.4858 -2.2539
  858MOL0     H15786   7.643   1.736   4.691  0.6586  1.2226 -1.7809
  858MOL0     H15787   7.598   1.565   4.635 -0.7332 -0.8661 -6.7983
  858MOL0     H15788   7.468   1.668   4.519  0.7312 -2.8559  0.9737
  858MOL0     H15789   7.584   1.649   4.400  0.9731  0.7658 -0.7209
  858MOL0     H15790   7.509   2.075   4.366 -0.4199 -0.2128 -1.7996
  858MOL0     H15791   7.554   2.259   4.280  1.0691 -2.0418  1.3994
  858MOL0     H15792   7.722   2.291   4.241 -1.2937  2.0278  0.5200
  858MOL0     H15793   7.605   2.264   4.109 -1.9202  1.8995  0.6177
  858MOL0     H15794   7.892   2.106   3.771 -0.8468 -0.3629 -1.1263
  858MOL0     H15795   8.019   2.211   3.619 -0.7147 -2.7405 -1.2588
  858MOL0     H15796   8.264   2.493   3.546 -0.8259  1.7045  0.6281
  858MOL0     H15797   8.112   2.403   3.578 -0.6128  0.1977  1.3988
  858MOL0     H15798   8.180   2.601   3.729  0.4233 -0.6947 -4.3862
  858MOL0     H15799   8.140   2.449   3.817 -0.6675  1.2965  0.2331
  858MOL0     H15800   8.384   2.404   3.846 -3.1842 -1.2699  1.6060
  858MOL0     H15801   8.326   2.544   3.934 -0.0658 -0.2408  0.6080
  858MOL0     H15802   8.509   2.524   3.697 -0.9344 -1.4318  1.2765
  858MOL0     H15803   8.406   2.671   3.707 -0.4174  1.0172  2.0014
  858MOL0     H15804   8.646   2.688   3.807  0.6708 -0.2551  0.6167
  858MOL0     H15805   8.620   2.555   3.908 -0.0931 -1.7074 -1.5727
  858MOL0     H15806   8.452   2.816   3.934 -0.5528  0.2909 -0.2517
  858MOL0     H15807   8.461   2.672   4.037  0.5862 -0.5636 -2.3608
  858MOL0     H15808   8.667   2.881   3.961 -3.6608 -0.2982 -1.9276
  858MOL0     H15809   8.712   2.742   4.070  0.5391  0.0707  0.5197
  858MOL0     H15810   8.532   2.988   4.123 -0.7494 -1.4688  1.7528
  858MOL0     H15811   8.664   2.931   4.210 -1.4184  2.0813  2.0143
  858MOL0     H15812   8.375   2.182   3.847 -0.8099  2.1294 -0.6817
  858MOL0     H15813   8.227   2.070   4.036 -2.4479  0.0534  0.7924
  858MOL0     H15814   7.897   1.833   4.176  1.9366  1.1182  1.1884
  858MOL0     H15815   7.804   1.744   4.347  3.0762  1.5849 -1.4839
  858MOL0     H15816   8.428   0.462   4.984  0.0249 -1.1021 -0.6497
  858MOL0     H15817   8.691   0.430   4.987 -0.2468  1.0512  0.6334
  858MOL0     H15818   9.079   0.604   4.533  1.3530  1.7707  1.0289
  858MOL0     H15819   9.331   0.564   4.535  1.6631 -0.9630 -0.8515
  858MOL0     H15820   9.627   0.539   4.748  0.5406  0.4125  2.7042
  858MOL0     H15821   9.486   0.638   4.738  1.2462  1.0591 -1.7882
  858MOL0     H15822   9.554   0.469   4.980  0.6844 -0.3072 -1.9563
  858MOL0     H15823   9.402   0.573   4.962 -1.4561 -0.4471 -1.6198
  858MOL0     H15824   9.549   0.774   4.953  0.4499  1.0250  3.3942
  858MOL0     H15825   9.699   0.679   4.972  0.3476 -0.8934  0.7075
  858MOL0     H15826   9.485   0.610   5.182  0.0281 -0.7625 -1.5672
  858MOL0     H15827   9.523   0.770   5.181  3.8941  0.2435  0.6227
  858MOL0     H15828   9.884   0.606   5.336 -0.8902 -1.0968  1.3562
  858MOL0     H15829   9.292   0.311   4.869  1.8712  0.2545 -1.2641
  858MOL0     H15830   9.049   0.333   4.856  0.7802 -3.0230 -1.3881
  859MOL0     O15831  10.211   7.298  10.280 -0.8345 -0.5130  0.1101
  859MOL0     C15832  10.258   7.405  10.245 -0.6790 -0.0990 -0.0445
  859MOL0     O15833  10.190   7.507  10.189 -0.2186  0.2384  0.4700
  859MOL0     C15834  10.061   7.489  10.153  1.1082 -0.6264  0.6097
  859MOL0     C15835   9.999   7.375  10.104 -0.2784 -0.5495  0.5901
  859MOL0     C15836   9.864   7.371  10.072  0.2984 -0.1977  0.3551
  859MOL0     C15837   9.781   7.482  10.088  0.0736 -0.2201  0.8169
  859MOL0     O15838   9.656   7.469  10.039 -0.3042 -0.2983  0.1069
  859MOL0     C15839   9.560   7.575  10.046 -0.6212  0.6100 -0.0387
  859MOL0     C15840   9.427   7.524  10.002 -0.0803  0.9985 -0.5840
  859MOL0     C15841   9.369   7.391  10.084  0.0180 -0.5645  0.2485
  859MOL0     C15842   9.361   7.422  10.239 -0.7818  0.1415 -0.6062
  859MOL0     C15843   9.399   7.294  10.309 -0.2538  0.2557  0.1337
  859MOL0     C15844   9.364   7.301  10.461  0.2488  0.1954  0.2346
  859MOL0     C15845   9.382   7.162  10.516  0.1399  0.9754  0.6392
  859MOL0     C15846   9.352   7.128  10.660  0.8351  0.1477 -0.2914
  859MOL0     N15847   9.213   7.162  10.690  0.1099 -0.4775  0.3468
  859MOL0     C15848   9.092   7.129  10.625 -0.1639 -0.3712  0.0039
  859MOL0     C15849   8.991   7.207  10.673 -0.7391  0.6573  0.0988
  859MOL0     C15850   8.856   7.211  10.629  0.7976 -0.8920 -0.1252
  859MOL0     C15851   8.749   7.235  10.744 -0.3876  1.1109 -0.0163
  859MOL0     C15852   8.728   7.389  10.778 -0.4577  0.4655  0.6089
  859MOL0     C15853   8.630   7.451  10.670 -0.7931  0.3591  0.2672
  859MOL0     O15854   8.504   7.383  10.689 -0.0384 -0.1260  0.5779
  859MOL0     C15855   8.396   7.414  10.604 -0.5008 -0.7383 -0.2703
  859MOL0     C15856   8.406   7.512  10.506  1.0099  0.1736 -0.5246
  859MOL0     C15857   8.297   7.548  10.426 -0.1962  0.1317  0.1257
  859MOL0     C15858   8.321   7.660  10.329  0.3584  0.2271 -0.8028
  859MOL0     C15859   8.175   7.487  10.444 -0.2171 -0.6719 -0.4080
  859MOL0     C15860   8.051   7.522  10.365  0.0686 -0.0457 -0.9656
  859MOL0     O15861   7.930   7.468  10.415 -0.2503  0.0688 -0.0602
  859MOL0     C15862   7.827   7.489  10.329 -0.0209 -0.1798 -0.1264
  859MOL0     C15863   7.796   7.616  10.266 -0.4987  0.5098  0.5673
  859MOL0     C15864   7.684   7.629  10.182 -0.3651 -0.0189  0.2582
  859MOL0     C15865   7.589   7.523  10.171 -1.0726  0.2713  0.2224
  859MOL0     O15866   7.473   7.521  10.107 -0.7255 -0.2501 -0.2463
  859MOL0     C15867   7.420   7.653  10.086 -0.6474  0.0003 -0.5838
  859MOL0     C15868   7.301   7.644  10.005  0.5835  0.3806  0.2533
  859MOL0     C15869   7.205   7.752  10.042  0.4978 -0.4945 -0.6112
  859MOL0     C15870   7.062   7.717   9.987  0.7961 -0.3576 -0.2016
  859MOL0     C15871   6.970   7.834  10.022  0.5297 -0.1692 -0.5145
  859MOL0     C15872   6.836   7.831   9.934 -0.4563 -0.4273  0.2412
  859MOL0     C15873   6.728   7.935   9.961 -1.0450  0.4187  0.9537
  859MOL0     C15874   6.592   7.910   9.885  0.5166 -0.2776 -0.1782
  859MOL0    Cl15875   6.587   7.972   9.714 -0.1563  0.0999 -0.3267
  859MOL0     C15876   7.625   7.398  10.237 -0.3469  1.0383 -0.3754
  859MOL0     C15877   7.747   7.379  10.310 -0.3531 -0.3468  0.1550
  859MOL0     O15878   8.069   7.559  10.251 -0.7634 -0.1608 -0.4993
  859MOL0     C15879   8.158   7.398  10.550  0.3088 -0.7345 -0.1575
  859MOL0     C15880   8.272   7.355  10.622 -0.0426  1.0470 -0.2395
  859MOL0     N15881   9.061   7.293  10.759 -0.4613 -0.1887 -0.2410
  859MOL0     N15882   9.188   7.273  10.768  0.4148 -0.1197 -0.0101
  859MOL0     C15883   9.836   7.603  10.133  0.7941 -0.4290 -0.1630
  859MOL0     C15884   9.975   7.602  10.163 -0.1220 -0.2332 -0.1050
  859MOL0     C15885  10.398   7.427  10.284  0.6501 -0.0584 -0.5888
  859MOL0     C15886  10.495   7.318  10.310  0.5679 -0.0436  0.1339
  859MOL0     C15887  10.621   7.332  10.350 -0.0260 -0.1695  0.3854
  859MOL0     C15888  10.674   7.458  10.369 -0.0761 -0.5039  0.1458
  859MOL0     O15889  10.809   7.476  10.400  0.4038  0.2490  0.8010
  859MOL0     C15890  10.908   7.393  10.337  0.6609  0.4524  0.3244
  859MOL0     C15891  11.054   7.427  10.358  0.1936 -0.7001 -0.7524
  859MOL0     C15892  11.084   7.571  10.318  0.5938 -0.2555  0.0032
  859MOL0     C15893  11.080   7.610  10.174  0.3714 -0.1526  0.1121
  859MOL0     C15894  11.187   7.531  10.100 -0.9565 -0.4558  0.5916
  859MOL0     C15895  11.274   7.481  10.031 -0.0220 -0.8503  0.3402
  859MOL0     C15896  10.591   7.573  10.353  0.1342  0.1737 -0.1094
  859MOL0     C15897  10.462   7.554  10.301  1.0594 -0.2427  0.5219
  859MOL0     H15898  10.055   7.283  10.084  1.4816  0.5546  0.1983
  859MOL0     H15899   9.819   7.276  10.045  0.1417  0.3249 -1.3702
  859MOL0     H15900   9.555   7.606  10.151  3.5340  2.4804 -0.2029
  859MOL0     H15901   9.596   7.656   9.982  0.1456  0.9392  0.7819
  859MOL0     H15902   9.354   7.605  10.013 -0.4105  1.0553 -2.7166
  859MOL0     H15903   9.435   7.510   9.893 -1.0232  2.9975 -0.9444
  859MOL0     H15904   9.270   7.360  10.050 -0.3970 -1.8365  2.4189
  859MOL0     H15905   9.428   7.302  10.063 -1.4176 -1.3447 -0.6298
  859MOL0     H15906   9.437   7.493  10.271 -0.2946 -1.7877  3.0356
  859MOL0     H15907   9.263   7.462  10.264  0.2641  2.1269  0.5283
  859MOL0     H15908   9.342   7.212  10.264  0.3316  0.2522 -0.6288
  859MOL0     H15909   9.505   7.271  10.295  0.2209 -1.3531  4.7001
  859MOL0     H15910   9.434   7.361  10.520 -3.2564  1.7809  3.1734
  859MOL0     H15911   9.261   7.333  10.474  0.2361 -0.0424  0.7428
  859MOL0     H15912   9.307   7.103  10.462 -0.2254  1.8086  0.2238
  859MOL0     H15913   9.485   7.127  10.503 -0.4645 -2.7875  3.9701
  859MOL0     H15914   9.424   7.188  10.717  0.2625  1.0414 -0.4915
  859MOL0     H15915   9.361   7.023  10.687 -0.6483  0.3598  1.2340
  859MOL0     H15916   9.074   7.058  10.545 -0.3591 -2.8266  2.1020
  859MOL0     H15917   8.854   7.284  10.547 -1.7890  2.9498  3.0045
  859MOL0     H15918   8.835   7.113  10.585 -1.2872 -0.5859  0.0561
  859MOL0     H15919   8.775   7.177  10.833 -0.0181 -0.0285 -0.8407
  859MOL0     H15920   8.658   7.185  10.709  0.5338 -2.3049  1.9940
  859MOL0     H15921   8.829   7.432  10.777 -0.2849  0.0775 -1.1857
  859MOL0     H15922   8.677   7.402  10.874  2.0346 -0.1759  2.1337
  859MOL0     H15923   8.658   7.432  10.566 -3.0100 -1.3044 -0.0987
  859MOL0     H15924   8.612   7.555  10.698 -0.9759  0.5672 -0.6078
  859MOL0     H15925   8.491   7.576  10.485  0.4338  2.0081  2.1311
  859MOL0     H15926   8.336   7.626  10.227 -3.3327 -0.1188 -1.3553
  859MOL0     H15927   8.235   7.727  10.321  1.0165  1.3084  0.6318
  859MOL0     H15928   8.413   7.711  10.360  0.6368 -0.7689  0.0603
  859MOL0     H15929   7.860   7.701  10.289 -2.5214  1.3992  3.3706
  859MOL0     H15930   7.684   7.729  10.140 -1.2822  0.2379  0.8497
  859MOL0     H15931   7.400   7.694  10.185 -0.3885 -2.8372  0.7224
  859MOL0     H15932   7.488   7.729  10.045 -0.4479  0.2223  0.1547
  859MOL0     H15933   7.331   7.648   9.900  3.5515  0.4891  1.0061
  859MOL0     H15934   7.247   7.551  10.024  0.7039  0.1090 -0.6872
  859MOL0     H15935   7.232   7.848   9.996  2.8917 -0.2636  1.0871
  859MOL0     H15936   7.195   7.760  10.151 -2.7034  1.5852 -0.9255
  859MOL0     H15937   7.053   7.696   9.880 -2.7493 -0.5717  0.0313
  859MOL0     H15938   7.035   7.622  10.034 -1.2283 -0.6512 -1.8282
  859MOL0     H15939   7.024   7.928  10.006  1.2867 -0.5120  0.0069
  859MOL0     H15940   6.937   7.820  10.125  0.6986 -2.2983 -0.7091
  859MOL0     H15941   6.855   7.833   9.827 -0.5387 -0.6473  0.2194
  859MOL0     H15942   6.789   7.733   9.948 -1.9269 -0.3092 -3.0714
  859MOL0     H15943   6.756   8.038   9.937  1.4376 -0.7641 -1.8081
  859MOL0     H15944   6.697   7.927  10.066 -1.8124  0.2915  0.7268
  859MOL0     H15945   6.517   7.957   9.950  2.6925  1.0389  1.4958
  859MOL0     H15946   6.567   7.804   9.873  1.6883 -0.7168  0.9937
  859MOL0     H15947   7.563   7.309  10.230  2.4852 -1.0657 -0.3979
  859MOL0     H15948   7.779   7.285  10.356 -2.1029 -1.2511 -0.3749
  859MOL0     H15949   8.068   7.341  10.571 -0.2486  0.2446  0.1812
  859MOL0     H15950   8.268   7.276  10.696 -1.6063  0.3770 -0.9810
  859MOL0     H15951   9.784   7.697  10.146 -0.8420 -1.3520  0.2437
  859MOL0     H15952  10.022   7.697  10.184 -1.5775 -0.1111  3.2607
  859MOL0     H15953  10.452   7.218  10.316  1.6965 -0.5180  0.6111
  859MOL0     H15954  10.679   7.244  10.377 -0.4826 -0.5810  0.0256
  859MOL0     H15955  10.889   7.291  10.371  1.0317 -0.2716 -1.5023
  859MOL0     H15956  10.887   7.393  10.230  0.9247 -0.8257  0.2555
  859MOL0     H15957  11.122   7.358  10.308  0.2536  0.3130 -2.1124
  859MOL0     H15958  11.066   7.415  10.466  0.7360 -2.0400 -0.9386
  859MOL0     H15959  11.180   7.595  10.365  0.6796  0.2956 -0.4451
  859MOL0     H15960  11.011   7.635  10.371  0.9930  0.6546 -0.5211
  859MOL0     H15961  11.106   7.715  10.155  1.0122 -0.1498  0.9338
  859MOL0     H15962  10.983   7.588  10.128  0.0422 -4.3506  2.3736
  859MOL0     H15963  11.351   7.432   9.974 -0.2979 -0.1362 -0.6753
  859MOL0     H15964  10.633   7.671  10.373  3.0079 -1.6380  3.8041
  859MOL0     H15965  10.406   7.645  10.278 -0.5587 -0.7060  2.3635
  860MOL0     O15966   4.314   9.508   2.768 -0.8736  0.4805 -0.2250
  860MOL0     C15967   4.260   9.618   2.751  0.0173  0.2570  0.3194
  860MOL0     O15968   4.249   9.720   2.845  0.1109 -0.3047 -0.2625
  860MOL0     C15969   4.281   9.687   2.973 -0.2364  0.5186 -0.0348
  860MOL0     C15970   4.405   9.642   3.016 -0.3545  0.1683 -0.6107
  860MOL0     C15971   4.431   9.625   3.156  0.6199  0.1201  0.2004
  860MOL0     C15972   4.327   9.660   3.249  0.0894 -0.5701 -0.1216
  860MOL0     O15973   4.358   9.644   3.381 -0.4026 -0.2791  0.4484
  860MOL0     C15974   4.492   9.684   3.431  0.4467  0.6582  0.8516
  860MOL0     C15975   4.495   9.704   3.586 -0.1514  0.3808  0.4067
  860MOL0     C15976   4.412   9.808   3.641 -0.0664 -0.3465  0.1345
  860MOL0     C15977   4.437   9.949   3.597 -0.5175  1.2492 -0.4604
  860MOL0     C15978   4.345  10.050   3.665 -0.9223  0.7200 -0.3085
  860MOL0     C15979   4.371  10.192   3.617 -0.9420  0.3254 -0.6881
  860MOL0     C15980   4.511  10.248   3.631 -0.7765 -0.7601 -0.8496
  860MOL0     C15981   4.517  10.404   3.632  0.6930  0.7149 -0.3627
  860MOL0     N15982   4.464  10.442   3.500  0.9392  0.1725  0.3085
  860MOL0     C15983   4.534  10.435   3.384  0.4120 -0.0769  1.0097
  860MOL0     C15984   4.438  10.475   3.288  0.3109  0.5594 -0.0346
  860MOL0     C15985   4.448  10.500   3.138 -0.4197  0.7336 -0.1434
  860MOL0     C15986   4.500  10.643   3.111 -1.1928  0.0571  0.0590
  860MOL0     C15987   4.578  10.672   2.984 -0.4333 -0.3038 -0.3256
  860MOL0     C15988   4.603  10.827   2.966  1.3699 -0.9495 -0.0252
  860MOL0     O15989   4.692  10.879   3.067  0.0399  0.2307 -0.2372
  860MOL0     C15990   4.689  11.013   3.073  0.2559  0.0206  0.2626
  860MOL0     C15991   4.784  11.054   3.169  0.5434  0.2537  0.0724
  860MOL0     C15992   4.797  11.190   3.202  1.2432 -0.2443 -0.1418
  860MOL0     C15993   4.892  11.238   3.314  0.6165 -0.0422  0.0212
  860MOL0     C15994   4.699  11.272   3.131  0.0062 -1.1531 -0.2018
  860MOL0     C15995   4.689  11.420   3.162 -1.3388  0.7472 -0.2117
  860MOL0     O15996   4.626  11.500   3.069 -0.5409  0.7800 -0.1641
  860MOL0     C15997   4.615  11.638   3.072 -0.2571  0.4637  0.9216
  860MOL0     C15998   4.549  11.692   2.961 -0.6614  0.3338  0.3431
  860MOL0     C15999   4.544  11.833   2.942  0.0682  0.1822 -0.5225
  860MOL0     C16000   4.599  11.923   3.034 -0.8341  0.1234 -0.6014
  860MOL0     O16001   4.590  12.063   3.020  0.2466 -0.1148  0.4773
  860MOL0     C16002   4.488  12.123   2.933  0.5311 -0.4154  0.1524
  860MOL0     C16003   4.502  12.277   2.912  0.5690  0.0011 -0.1134
  860MOL0     C16004   4.381  12.328   2.836  0.5415  0.6201  0.4778
  860MOL0     C16005   4.393  12.318   2.686  0.9183  0.2142  0.0256
  860MOL0     C16006   4.284  12.404   2.613 -0.4228 -0.1081  0.3455
  860MOL0     C16007   4.142  12.355   2.631 -0.0134 -0.0849 -0.7932
  860MOL0     C16008   4.026  12.421   2.560 -0.2403  1.2874  0.8948
  860MOL0     C16009   3.900  12.334   2.567 -0.1863 -0.4101 -0.0923
  860MOL0    Cl16010   3.808  12.384   2.418 -0.3713  0.3949 -0.0320
  860MOL0     C16011   4.668  11.864   3.147  0.2237 -0.6018 -0.2682
  860MOL0     C16012   4.676  11.728   3.171  0.1239  0.0390  0.0929
  860MOL0     O16013   4.735  11.461   3.275  0.3625  0.0753 -0.2884
  860MOL0     C16014   4.609  11.223   3.037 -0.1243  0.6533  0.8604
  860MOL0     C16015   4.605  11.097   3.003 -0.4294  0.0835 -0.0107
  860MOL0     N16016   4.318  10.501   3.352 -0.7520  0.0268  1.0464
  860MOL0     N16017   4.336  10.490   3.476  0.1529  1.3580  0.5473
  860MOL0     C16018   4.206   9.710   3.200  0.7927 -0.1228 -0.6158
  860MOL0     C16019   4.181   9.727   3.065 -0.7075  0.2332  0.8133
  860MOL0     C16020   4.152   9.611   2.640 -1.0857 -0.5476 -0.4490
  860MOL0     C16021   4.143   9.513   2.543 -0.7198  0.3519  0.1808
  860MOL0     C16022   4.036   9.499   2.452  0.2197 -0.0905 -0.5109
  860MOL0     C16023   3.928   9.593   2.468 -0.0639 -0.3979  0.2702
  860MOL0     O16024   3.810   9.568   2.401  0.2413  0.7169 -0.4751
  860MOL0     C16025   3.700   9.654   2.423  0.0556  0.5738  0.5940
  860MOL0     C16026   3.616   9.656   2.288  0.2973 -0.3413 -1.1583
  860MOL0     C16027   3.510   9.548   2.285 -0.1829 -0.9378 -0.6714
  860MOL0     C16028   3.406   9.553   2.176 -1.0192 -0.3747 -0.0273
  860MOL0     C16029   3.475   9.544   2.046 -0.4419 -0.4207  1.1268
  860MOL0     C16030   3.533   9.532   1.940  0.2958  1.6479  0.7045
  860MOL0     C16031   3.939   9.698   2.564  1.1648  0.3909 -0.5383
  860MOL0     C16032   4.061   9.714   2.636  0.8918  0.3493 -0.3462
  860MOL0     H16033   4.491   9.624   2.952  1.6919 -0.4316  2.1424
  860MOL0     H16034   4.528   9.588   3.186  0.2678 -0.8306  0.2258
  860MOL0     H16035   4.550   9.594   3.407 -3.6854 -2.1034  0.0378
  860MOL0     H16036   4.536   9.768   3.378 -1.8445  1.8206  0.6431
  860MOL0     H16037   4.479   9.609   3.638 -2.3938 -0.4123 -1.5628
  860MOL0     H16038   4.595   9.743   3.608 -0.9322  2.4252  0.5364
  860MOL0     H16039   4.310   9.783   3.611 -0.4794  0.4102  0.8679
  860MOL0     H16040   4.409   9.814   3.750  2.7722 -0.9538  0.3084
  860MOL0     H16041   4.542   9.965   3.621  0.1308 -2.5982 -0.1119
  860MOL0     H16042   4.422   9.953   3.489 -0.0159 -2.8826 -0.8383
  860MOL0     H16043   4.236  10.038   3.658 -1.2019  1.2221  2.3091
  860MOL0     H16044   4.377  10.050   3.770  4.2946  1.2435 -1.6171
  860MOL0     H16045   4.347  10.198   3.511  0.1319 -0.9506 -1.0257
  860MOL0     H16046   4.304  10.259   3.672 -1.3462 -1.2142  0.7980
  860MOL0     H16047   4.557  10.218   3.725  2.8402  3.4294 -0.9546
  860MOL0     H16048   4.569  10.206   3.548  0.2686  2.2558 -1.7841
  860MOL0     H16049   4.619  10.442   3.643 -0.2648  2.7638  3.0206
  860MOL0     H16050   4.460  10.447   3.715 -0.6929  1.1827 -1.5153
  860MOL0     H16051   4.636  10.402   3.365  0.0930 -0.5547  0.0858
  860MOL0     H16052   4.524  10.433   3.095  0.9152  0.8734  1.8698
  860MOL0     H16053   4.360  10.476   3.078  0.0801  1.2063 -1.0822
  860MOL0     H16054   4.571  10.662   3.192  0.9068 -2.1420 -1.1459
  860MOL0     H16055   4.413  10.709   3.123 -2.1140 -0.6444 -2.2258
  860MOL0     H16056   4.518  10.638   2.899 -2.7385 -1.9485  1.7980
  860MOL0     H16057   4.670  10.612   2.982  1.3468  2.0926  2.2052
  860MOL0     H16058   4.506  10.878   2.977  0.0670 -2.8667 -1.8089
  860MOL0     H16059   4.640  10.842   2.864  1.8254  0.9588  0.3921
  860MOL0     H16060   4.851  10.983   3.216 -2.1607 -1.7010  1.2136
  860MOL0     H16061   4.939  11.331   3.282 -1.1773  1.1108  0.6257
  860MOL0     H16062   4.837  11.270   3.403 -1.1185 -1.5827 -0.4388
  860MOL0     H16063   4.960  11.159   3.349  1.1539  1.9322  4.0231
  860MOL0     H16064   4.496  11.628   2.891 -2.7665  0.2050  1.9514
  860MOL0     H16065   4.491  11.864   2.853  0.8395  0.2568 -0.9697
  860MOL0     H16066   4.492  12.073   2.836  2.7006  1.7698 -1.0025
  860MOL0     H16067   4.388  12.119   2.978 -1.0960 -0.6542 -3.1193
  860MOL0     H16068   4.507  12.329   3.008 -4.1636  0.5066  0.1238
  860MOL0     H16069   4.593  12.307   2.859  0.6295  1.6853  0.8806
  860MOL0     H16070   4.371  12.434   2.863  0.5920  0.5269  0.8729
  860MOL0     H16071   4.292  12.274   2.870 -0.0011  1.1187 -0.1321
  860MOL0     H16072   4.496  12.350   2.669  1.1637 -0.6937 -0.2830
  860MOL0     H16073   4.391  12.212   2.659  0.7653 -0.2076  1.5836
  860MOL0     H16074   4.311  12.405   2.507  2.9123  2.0380  1.0734
  860MOL0     H16075   4.287  12.508   2.644  0.7122  0.2602 -0.9175
  860MOL0     H16076   4.150  12.251   2.599 -2.3680 -0.1999 -1.1700
  860MOL0     H16077   4.114  12.359   2.736 -0.1383 -1.7679 -0.7283
  860MOL0     H16078   4.060  12.423   2.456 -1.4513  1.4694  0.4822
  860MOL0     H16079   4.005  12.522   2.598 -1.4242  0.4386  2.6265
  860MOL0     H16080   3.850  12.351   2.663 -1.7954  0.8837 -1.1056
  860MOL0     H16081   3.929  12.229   2.571  0.9781 -0.1067 -0.3275
  860MOL0     H16082   4.715  11.932   3.218  2.5335 -3.0553  0.7073
  860MOL0     H16083   4.726  11.701   3.263  3.2810  0.9506 -1.1892
  860MOL0     H16084   4.543  11.292   2.985 -0.0711  1.7111  2.1398
  860MOL0     H16085   4.526  11.084   2.929  1.2353  4.9754 -3.1844
  860MOL0     H16086   4.137   9.734   3.280  0.9747  0.5377 -0.6494
  860MOL0     H16087   4.085   9.767   3.034 -1.8660 -2.3585  0.8355
  860MOL0     H16088   4.219   9.438   2.529  0.1026  1.1202  0.4789
  860MOL0     H16089   4.037   9.420   2.377  2.3181  0.5941 -1.2874
  860MOL0     H16090   3.645   9.631   2.515 -2.4188  1.2489 -0.6347
  860MOL0     H16091   3.729   9.756   2.451 -0.0927  0.4915  1.0700
  860MOL0     H16092   3.676   9.638   2.198 -3.1949  0.6123 -3.8986
  860MOL0     H16093   3.565   9.753   2.287 -1.1900 -1.0357  0.5933
  860MOL0     H16094   3.447   9.559   2.374 -1.1562 -0.8325 -1.3538
  860MOL0     H16095   3.569   9.456   2.297 -1.6684 -2.0138 -1.2801
  860MOL0     H16096   3.336   9.636   2.179  0.4094  0.8630  0.4703
  860MOL0     H16097   3.347   9.461   2.183 -0.6461 -0.6493 -0.3872
  860MOL0     H16098   3.580   9.539   1.845 -2.2553 -2.2402 -1.1053
  860MOL0     H16099   3.866   9.774   2.590  1.4750  1.4309 -2.5176
  860MOL0     H16100   4.074   9.803   2.696  2.2796  0.8032 -1.2736
  861MOL0     O16101  10.092   9.350   5.123  0.4943  0.1567 -0.2492
  861MOL0     C16102  10.134   9.395   5.014  0.0324  0.6384  0.0401
  861MOL0     O16103  10.058   9.417   4.906  0.4772 -0.0281 -0.0512
  861MOL0     C16104   9.928   9.388   4.910  0.0421  0.9710  0.5965
  861MOL0     C16105   9.846   9.466   4.828  0.0659  0.8710  0.0086
  861MOL0     C16106   9.705   9.451   4.827  0.0115  0.2396  0.7211
  861MOL0     C16107   9.640   9.348   4.901 -0.5497  0.2302 -0.5226
  861MOL0     O16108   9.510   9.334   4.927 -1.1300  0.2404 -1.2897
  861MOL0     C16109   9.411   9.421   4.874  0.9061  0.5315  0.2607
  861MOL0     C16110   9.282   9.387   4.962 -0.4596 -0.4231  0.4074
  861MOL0     C16111   9.245   9.235   4.950  0.7619  0.0868  0.1670
  861MOL0     C16112   9.133   9.210   5.044 -0.5420 -0.1488 -0.4771
  861MOL0     C16113   8.997   9.234   4.998  1.1080  0.7797 -0.3134
  861MOL0     C16114   8.948   9.119   4.902 -1.2347 -0.1776 -0.1172
  861MOL0     C16115   8.816   9.145   4.851 -0.0258  0.0824 -0.2184
  861MOL0     C16116   8.745   9.020   4.799 -0.4132  0.9158  0.3683
  861MOL0     N16117   8.696   8.928   4.909 -0.2828  0.0260  0.2596
  861MOL0     C16118   8.734   8.798   4.911  1.0983 -0.0605  0.4575
  861MOL0     C16119   8.658   8.748   5.013 -0.2601 -0.2122  0.0795
  861MOL0     C16120   8.685   8.606   5.064 -0.2221  0.5742 -0.7246
  861MOL0     C16121   8.619   8.495   4.972 -0.1963  0.0289 -0.3540
  861MOL0     C16122   8.686   8.352   5.009 -0.2214 -0.4436 -0.2440
  861MOL0     C16123   8.644   8.249   4.901 -0.6824 -0.0951 -0.6046
  861MOL0     O16124   8.509   8.209   4.940  0.4400 -0.7170  0.9197
  861MOL0     C16125   8.403   8.230   4.852  0.6188 -0.3608  0.4261
  861MOL0     C16126   8.403   8.307   4.736 -0.2722 -0.6426 -0.2213
  861MOL0     C16127   8.293   8.296   4.647 -0.7304 -0.0530 -0.1347
  861MOL0     C16128   8.300   8.386   4.525  0.2320  0.1504  0.3990
  861MOL0     C16129   8.189   8.207   4.684  0.4777 -0.3847 -0.2231
  861MOL0     C16130   8.070   8.192   4.596 -0.2470  0.3787  0.2349
  861MOL0     O16131   7.952   8.131   4.646  0.2534 -0.1264 -0.1764
  861MOL0     C16132   7.827   8.133   4.587 -0.3938  0.1096  0.1908
  861MOL0     C16133   7.742   8.030   4.633 -0.2076 -0.7386 -0.0680
  861MOL0     C16134   7.611   8.017   4.571 -0.3556 -0.4688  0.0771
  861MOL0     C16135   7.562   8.104   4.468 -0.1174  0.2279  0.3221
  861MOL0     O16136   7.439   8.101   4.409  0.7593 -0.0564  0.1631
  861MOL0     C16137   7.353   7.990   4.443  0.2593 -0.3408  0.5048
  861MOL0     C16138   7.263   7.965   4.328 -0.3788 -0.4691  0.2640
  861MOL0     C16139   7.158   8.074   4.284 -0.5462 -0.3596 -0.7681
  861MOL0     C16140   7.032   8.022   4.215 -0.1100 -0.3724  0.6987
  861MOL0     C16141   6.929   8.128   4.197  0.1670 -0.0460  0.4696
  861MOL0     C16142   6.801   8.061   4.162 -0.6134 -0.2687  0.1258
  861MOL0     C16143   6.679   8.163   4.146 -0.8017  1.0438  0.1309
  861MOL0     C16144   6.577   8.094   4.048 -0.2771 -0.9945  0.7026
  861MOL0    Cl16145   6.553   7.923   4.084 -0.2781  0.1519 -0.0898
  861MOL0     C16146   7.649   8.209   4.434 -0.3059  0.6090 -0.1022
  861MOL0     C16147   7.786   8.221   4.490  1.2193  0.3456 -0.4628
  861MOL0     O16148   8.085   8.227   4.482  0.3428  0.6790 -0.2533
  861MOL0     C16149   8.191   8.122   4.790  0.5697  0.3834  0.3443
  861MOL0     C16150   8.294   8.141   4.878 -0.0142 -0.5392 -0.6657
  861MOL0     N16151   8.574   8.841   5.056  0.0836 -0.5901  0.4619
  861MOL0     N16152   8.606   8.959   4.998 -0.4551  0.1457 -0.6613
  861MOL0     C16153   9.719   9.269   4.983  0.2370  0.6723 -0.9198
  861MOL0     C16154   9.861   9.285   4.980  1.0069 -0.1559 -0.5305
  861MOL0     C16155  10.287   9.420   5.007 -0.9806  0.1389  0.5529
  861MOL0     C16156  10.370   9.369   5.111  0.3446 -0.3083 -0.4785
  861MOL0     C16157  10.513   9.374   5.099  0.9237  0.4851 -0.3582
  861MOL0     C16158  10.574   9.423   4.979  0.4459  0.0891 -0.2029
  861MOL0     O16159  10.704   9.434   4.946 -0.1318  0.1985 -0.7096
  861MOL0     C16160  10.796   9.373   5.044  0.2922  0.6732 -0.4631
  861MOL0     C16161  10.935   9.374   4.966  0.8191  0.9418 -0.0080
  861MOL0     C16162  11.028   9.488   4.999  0.7516  0.4335  0.4928
  861MOL0     C16163  11.088   9.480   5.152 -0.9596  0.2440 -0.1148
  861MOL0     C16164  11.167   9.606   5.174 -0.8813 -0.2297  0.3859
  861MOL0     C16165  11.243   9.699   5.201 -0.3554 -0.2660  0.4461
  861MOL0     C16166  10.487   9.447   4.876 -0.7224 -0.6375  0.2055
  861MOL0     C16167  10.348   9.445   4.884 -0.2863 -0.4559  0.2821
  861MOL0     H16168   9.894   9.548   4.777  3.9664 -0.6248  0.9018
  861MOL0     H16169   9.646   9.528   4.778 -1.6424 -0.4844  1.5046
  861MOL0     H16170   9.440   9.526   4.878  1.0535  0.4813  0.5509
  861MOL0     H16171   9.395   9.391   4.770  2.5534 -0.1544  0.1717
  861MOL0     H16172   9.318   9.406   5.063  3.2816  0.0545 -0.8783
  861MOL0     H16173   9.200   9.454   4.932 -0.9004  0.6385  3.6442
  861MOL0     H16174   9.221   9.222   4.844  2.7122  1.8178 -0.5562
  861MOL0     H16175   9.330   9.179   4.990  0.8705  0.4442  0.4396
  861MOL0     H16176   9.154   9.107   5.075 -0.8948 -0.7932 -2.2264
  861MOL0     H16177   9.150   9.277   5.128 -0.9433 -0.6134 -0.0229
  861MOL0     H16178   8.923   9.259   5.074 -1.5756  0.9220 -2.8025
  861MOL0     H16179   8.988   9.317   4.927 -1.2700 -3.1523 -5.2757
  861MOL0     H16180   9.013   9.101   4.816 -1.5729 -1.5043 -0.1183
  861MOL0     H16181   8.940   9.028   4.962  0.1650  1.2584  2.4140
  861MOL0     H16182   8.752   9.199   4.922 -1.1698 -0.1868 -1.0161
  861MOL0     H16183   8.837   9.209   4.765  1.1857 -0.0547 -0.0348
  861MOL0     H16184   8.827   8.972   4.744  1.0618  0.1473  3.0317
  861MOL0     H16185   8.663   9.035   4.729  1.7567 -1.4253 -2.9848
  861MOL0     H16186   8.801   8.732   4.857 -0.0686 -2.5065  1.8090
  861MOL0     H16187   8.791   8.583   5.055 -0.4064 -0.3366 -0.7010
  861MOL0     H16188   8.657   8.587   5.168  2.7039 -0.3230 -0.0257
  861MOL0     H16189   8.641   8.516   4.867  1.6669  0.9116  0.1808
  861MOL0     H16190   8.510   8.487   4.976 -0.2667 -0.8912 -2.6554
  861MOL0     H16191   8.669   8.321   5.112  2.4996 -1.6884 -0.1034
  861MOL0     H16192   8.794   8.365   4.997 -0.5531  3.3288 -0.4680
  861MOL0     H16193   8.699   8.154   4.905 -0.8629 -0.1618  0.7359
  861MOL0     H16194   8.659   8.282   4.797 -2.4886 -1.6251 -1.4167
  861MOL0     H16195   8.482   8.380   4.723 -0.7771  0.0100  0.2829
  861MOL0     H16196   8.388   8.450   4.535 -0.3130  0.7191  1.7250
  861MOL0     H16197   8.325   8.323   4.439 -4.4192  2.0036 -2.6916
  861MOL0     H16198   8.209   8.439   4.497 -1.5376 -2.1872  1.3286
  861MOL0     H16199   7.770   7.954   4.705 -2.2641 -1.0860  0.4121
  861MOL0     H16200   7.555   7.939   4.621  0.1346 -0.3012  0.9206
  861MOL0     H16201   7.401   7.896   4.471 -1.6369 -0.6918  2.9407
  861MOL0     H16202   7.286   8.017   4.526 -0.9100 -2.4388  0.3006
  861MOL0     H16203   7.333   7.935   4.250 -2.1224  1.5820 -2.2292
  861MOL0     H16204   7.206   7.874   4.349  0.4041 -0.7766  1.1359
  861MOL0     H16205   7.214   8.147   4.225 -0.8188  1.3365  0.9734
  861MOL0     H16206   7.139   8.126   4.378 -0.4747 -1.8672  0.1235
  861MOL0     H16207   7.061   7.991   4.114 -2.5326 -0.6329  0.0303
  861MOL0     H16208   6.994   7.932   4.264 -0.8194 -2.0173 -2.5874
  861MOL0     H16209   6.970   8.198   4.124  1.1670 -1.7644 -0.6999
  861MOL0     H16210   6.910   8.165   4.298 -1.9539 -0.6021  0.3352
  861MOL0     H16211   6.821   7.999   4.074  0.9255 -0.9789  0.9209
  861MOL0     H16212   6.769   7.989   4.237  0.5331 -1.0079 -0.0543
  861MOL0     H16213   6.701   8.265   4.112 -1.9050  1.6000  1.0254
  861MOL0     H16214   6.623   8.169   4.239 -1.1256 -2.0169  0.2265
  861MOL0     H16215   6.620   8.107   3.948 -1.7935 -6.2124 -0.9198
  861MOL0     H16216   6.488   8.157   4.061 -1.6356 -2.2802 -1.7007
  861MOL0     H16217   7.603   8.275   4.361  0.0296 -2.8193 -3.8114
  861MOL0     H16218   7.841   8.314   4.477 -1.8269  2.3314 -0.3225
  861MOL0     H16219   8.116   8.050   4.820  0.7397  0.6790  1.5586
  861MOL0     H16220   8.279   8.090   4.973 -0.3604  1.1788  0.2521
  861MOL0     H16221   9.667   9.193   5.039  0.1715 -0.4067 -2.3644
  861MOL0     H16222   9.915   9.215   5.043 -0.7841 -1.9584 -0.8613
  861MOL0     H16223  10.329   9.330   5.203  0.9776 -0.2793 -0.1787
  861MOL0     H16224  10.574   9.350   5.186  0.5248  1.8756  0.3283
  861MOL0     H16225  10.792   9.421   5.143 -0.8385  1.7745 -1.0200
  861MOL0     H16226  10.767   9.271   5.072  3.1167  0.1500  1.0122
  861MOL0     H16227  10.917   9.388   4.859  1.5314 -0.7101 -0.3794
  861MOL0     H16228  10.995   9.283   4.976  1.2455  1.1221 -0.8725
  861MOL0     H16229  10.983   9.587   4.989  1.3112  0.7577  1.0953
  861MOL0     H16230  11.118   9.482   4.938  0.1997  0.3728 -0.3248
  861MOL0     H16231  11.144   9.386   5.152 -2.3183 -0.6295 -1.5728
  861MOL0     H16232  11.005   9.480   5.224 -0.2271  1.4741  0.7609
  861MOL0     H16233  11.315   9.774   5.222  0.2752 -1.2424  1.9534
  861MOL0     H16234  10.535   9.471   4.782 -0.8191  1.9805  0.7472
  861MOL0     H16235  10.299   9.482   4.795 -1.6655  0.8365  1.5368
  862MOL0     O16236  11.246   5.658   7.175 -0.6624  0.4362  0.1449
  862MOL0     C16237  11.198   5.551   7.209 -0.0585  0.2464 -0.1270
  862MOL0     O16238  11.074   5.530   7.269 -0.2800 -0.8688  0.2992
  862MOL0     C16239  11.000   5.643   7.285  0.5989  0.8873 -0.8960
  862MOL0     C16240  10.883   5.665   7.208  0.2136 -0.1465 -0.2132
  862MOL0     C16241  10.799   5.770   7.229 -0.2264 -0.4382 -0.8459
  862MOL0     C16242  10.843   5.873   7.320 -1.1270  0.7908 -0.5009
  862MOL0     O16243  10.753   5.974   7.330  0.3215 -0.3762  0.4294
  862MOL0     C16244  10.760   6.066   7.435  0.1628 -0.0973  0.1464
  862MOL0     C16245  10.647   6.169   7.438  0.2665  0.3557  0.7596
  862MOL0     C16246  10.525   6.112   7.511 -0.7714 -0.6690  0.0460
  862MOL0     C16247  10.419   6.223   7.493  0.1356 -0.3009 -0.2641
  862MOL0     C16248  10.273   6.178   7.548  0.7768  0.4369  0.9090
  862MOL0     C16249  10.265   6.248   7.689 -0.4323  0.2070  0.4117
  862MOL0     C16250  10.357   6.185   7.799  0.6145  0.1162 -0.3631
  862MOL0     C16251  10.286   6.177   7.933  0.2765 -1.0850 -0.1640
  862MOL0     N16252  10.281   6.312   7.996  0.2017  1.0248 -0.1222
  862MOL0     C16253  10.395   6.366   8.054  0.2551  0.2115  0.5777
  862MOL0     C16254  10.348   6.491   8.092 -0.2534  0.4221  0.5516
  862MOL0     C16255  10.416   6.581   8.189 -1.0068 -0.5223  0.8317
  862MOL0     C16256  10.372   6.532   8.334 -0.4441 -0.5830 -0.1455
  862MOL0     C16257  10.267   6.615   8.414  0.5898 -0.8405 -0.3435
  862MOL0     C16258  10.124   6.593   8.362 -0.2127  0.1648  0.3255
  862MOL0     O16259  10.039   6.615   8.469  0.2074  0.0486  0.1789
  862MOL0     C16260   9.972   6.503   8.513  0.7019 -0.2982  0.5570
  862MOL0     C16261   9.852   6.469   8.442 -0.3573 -0.2399 -0.2734
  862MOL0     C16262   9.787   6.349   8.467  0.0224 -0.4505  0.6457
  862MOL0     C16263   9.675   6.313   8.371  0.8810 -0.4013 -0.0818
  862MOL0     C16264   9.831   6.265   8.569 -0.4175 -1.0103  0.5067
  862MOL0     C16265   9.763   6.147   8.596  0.0524  0.6175 -0.0461
  862MOL0     O16266   9.756   6.117   8.735  0.0779 -0.2697  0.0345
  862MOL0     C16267   9.684   6.007   8.767  0.4218  0.6233  0.2833
  862MOL0     C16268   9.544   5.995   8.759  0.5703  0.7362  0.9726
  862MOL0     C16269   9.474   5.878   8.794  0.8950 -0.4840  0.1636
  862MOL0     C16270   9.537   5.771   8.851 -0.8061 -0.1439  0.0574
  862MOL0     O16271   9.454   5.662   8.894  0.3920  0.2862 -0.0772
  862MOL0     C16272   9.509   5.530   8.886  0.0947 -0.4186  0.4276
  862MOL0     C16273   9.397   5.424   8.861  0.0636  0.6888 -0.2880
  862MOL0     C16274   9.334   5.445   8.725  0.1901 -0.2969 -0.6604
  862MOL0     C16275   9.208   5.530   8.734 -0.1388  0.1684 -0.0887
  862MOL0     C16276   9.091   5.439   8.770 -0.2934  0.6630 -0.0601
  862MOL0     C16277   8.956   5.513   8.777  0.0453 -0.2155  0.3493
  862MOL0     C16278   8.944   5.626   8.881  0.8770 -0.1638  0.1688
  862MOL0     C16279   8.804   5.688   8.901  1.0091 -0.3208  0.3853
  862MOL0    Cl16280   8.825   5.847   8.988  0.2618 -0.0767  0.0340
  862MOL0     C16281   9.682   5.782   8.862 -0.4286  0.2954  0.7831
  862MOL0     C16282   9.755   5.895   8.821 -0.4371 -0.9921 -0.4198
  862MOL0     O16283   9.751   6.064   8.505 -0.4015 -0.3185  0.2459
  862MOL0     C16284   9.932   6.315   8.659  0.3835  0.1364  0.4198
  862MOL0     C16285  10.005   6.423   8.622 -0.2688 -0.2879  0.3912
  862MOL0     N16286  10.214   6.499   8.059 -1.1330 -0.4327 -0.3178
  862MOL0     N16287  10.171   6.384   8.007  0.3381  1.0121 -0.5525
  862MOL0     C16288  10.954   5.843   7.404  0.7178 -0.9435  0.3600
  862MOL0     C16289  11.034   5.733   7.391 -0.8602  0.8198  0.3402
  862MOL0     C16290  11.272   5.424   7.180 -0.2715 -0.2354 -0.4127
  862MOL0     C16291  11.365   5.432   7.070  0.5926  1.0326 -0.7036
  862MOL0     C16292  11.424   5.316   7.029  0.5949 -0.7820  0.1444
  862MOL0     C16293  11.402   5.193   7.091 -0.5436 -0.0373 -0.1639
  862MOL0     O16294  11.464   5.071   7.061  0.6918  0.6336  1.0327
  862MOL0     C16295  11.546   5.063   6.940 -0.2482  0.8826  0.0988
  862MOL0     C16296  11.640   4.940   6.949  0.7173  0.6763 -0.0218
  862MOL0     C16297  11.744   4.928   6.839  0.3165 -0.2314  0.5709
  862MOL0     C16298  11.690   4.871   6.709 -0.5503 -0.3610  0.3356
  862MOL0     C16299  11.799   4.900   6.607  0.4195  0.1757 -0.3053
  862MOL0     C16300  11.890   4.935   6.531  0.3072 -0.3844 -0.5970
  862MOL0     C16301  11.307   5.187   7.199 -0.0656  0.2772 -0.2871
  862MOL0     C16302  11.235   5.305   7.235  0.6033  0.8344  1.4173
  862MOL0     H16303  10.854   5.587   7.139 -1.6416  0.9345 -0.7222
  862MOL0     H16304  10.710   5.788   7.168 -0.5665 -3.0920 -1.2444
  862MOL0     H16305  10.764   6.001   7.523  2.1236 -2.6935 -1.6927
  862MOL0     H16306  10.854   6.121   7.420 -0.5490  1.5765  1.4906
  862MOL0     H16307  10.677   6.264   7.484  2.1325  1.6167 -2.6524
  862MOL0     H16308  10.629   6.194   7.333  3.8980  1.0865  0.1735
  862MOL0     H16309  10.485   6.017   7.473  0.6276 -1.5780  0.7546
  862MOL0     H16310  10.557   6.097   7.614  0.2670  0.4125 -0.1040
  862MOL0     H16311  10.458   6.303   7.556 -0.6201 -0.3558  0.2932
  862MOL0     H16312  10.413   6.247   7.386  1.0389 -0.7168 -0.4192
  862MOL0     H16313  10.194   6.219   7.485  1.0817 -0.1303  0.1419
  862MOL0     H16314  10.255   6.072   7.570  0.7125  0.1547 -0.4200
  862MOL0     H16315  10.271   6.357   7.677 -2.7852  0.3883  0.3110
  862MOL0     H16316  10.162   6.233   7.721 -0.9591 -1.8395 -1.9274
  862MOL0     H16317  10.373   6.081   7.769 -0.4721 -0.4967  1.0546
  862MOL0     H16318  10.456   6.231   7.801  0.5022  0.3921 -0.7969
  862MOL0     H16319  10.331   6.109   8.005  0.7725  0.8227  1.4163
  862MOL0     H16320  10.186   6.134   7.929  1.5663 -4.3432 -0.8513
  862MOL0     H16321  10.493   6.323   8.075 -0.4239 -1.7930 -0.0401
  862MOL0     H16322  10.524   6.581   8.170 -1.3556  0.5906 -1.4437
  862MOL0     H16323  10.392   6.685   8.168 -0.3964 -0.1469  1.9376
  862MOL0     H16324  10.461   6.547   8.395  1.2628 -1.8565 -2.1517
  862MOL0     H16325  10.342   6.427   8.330  0.4328 -0.8111 -2.3517
  862MOL0     H16326  10.284   6.720   8.390 -2.1312 -0.7794 -2.6752
  862MOL0     H16327  10.275   6.596   8.521  0.3698  1.6724  0.1592
  862MOL0     H16328  10.122   6.501   8.304  4.1159  1.6088 -2.6404
  862MOL0     H16329  10.106   6.668   8.285  0.3412  1.9073  1.8082
  862MOL0     H16330   9.803   6.525   8.364 -1.2743 -3.3711 -2.1091
  862MOL0     H16331   9.706   6.239   8.297 -3.7216 -0.5269 -2.2334
  862MOL0     H16332   9.589   6.263   8.417  2.2973 -1.2789  1.7334
  862MOL0     H16333   9.660   6.404   8.312  3.8676  1.0988  1.2535
  862MOL0     H16334   9.479   6.074   8.724  0.7220  1.0235  1.3410
  862MOL0     H16335   9.365   5.882   8.793  0.9203  2.0762 -0.7983
  862MOL0     H16336   9.574   5.525   8.799  0.9529  3.0105  0.7394
  862MOL0     H16337   9.563   5.497   8.976  3.3070 -0.2097 -1.2827
  862MOL0     H16338   9.452   5.329   8.863 -0.6007  0.3124  0.4261
  862MOL0     H16339   9.331   5.411   8.947  2.6126 -0.0305  1.7095
  862MOL0     H16340   9.330   5.354   8.664 -1.7862 -1.9406  1.7343
  862MOL0     H16341   9.405   5.511   8.674  0.5146  0.8140  1.1424
  862MOL0     H16342   9.226   5.602   8.814  2.8812  2.2480 -2.4008
  862MOL0     H16343   9.192   5.590   8.644 -1.2553  0.9544  0.6102
  862MOL0     H16344   9.114   5.402   8.871  2.4315  2.3503  0.0339
  862MOL0     H16345   9.093   5.361   8.694 -0.6576 -0.7978  1.3615
  862MOL0     H16346   8.944   5.569   8.684  1.1601 -0.1571  0.2308
  862MOL0     H16347   8.879   5.436   8.777 -0.5803  0.3867  1.2802
  862MOL0     H16348   8.999   5.715   8.852  2.4329 -1.6431 -1.7230
  862MOL0     H16349   8.986   5.590   8.976  0.9975 -0.6372 -0.0596
  862MOL0     H16350   8.730   5.632   8.959  1.4087 -0.2186  0.9973
  862MOL0     H16351   8.756   5.701   8.804  0.8779 -0.4757  0.4282
  862MOL0     H16352   9.726   5.692   8.905 -0.4171 -0.8567 -1.4767
  862MOL0     H16353   9.861   5.912   8.835 -1.0121  0.9364  2.5748
  862MOL0     H16354   9.957   6.270   8.754 -0.0400  0.3533  0.6346
  862MOL0     H16355  10.074   6.463   8.697 -1.0628  0.8565  0.5286
  862MOL0     H16356  10.995   5.922   7.467 -1.8118 -1.2364  2.5178
  862MOL0     H16357  11.122   5.720   7.453  0.3204  1.8589 -1.0346
  862MOL0     H16358  11.394   5.530   7.035  0.9818  1.5409  0.9392
  862MOL0     H16359  11.497   5.307   6.949  0.7073 -1.5439  0.3196
  862MOL0     H16360  11.493   5.057   6.845  1.0605  1.3875 -0.7014
  862MOL0     H16361  11.603   5.155   6.921  2.6659 -1.2519 -2.5474
  862MOL0     H16362  11.584   4.846   6.947  3.6577 -1.1825 -0.9468
  862MOL0     H16363  11.697   4.950   7.042  2.4707 -3.9815 -0.3300
  862MOL0     H16364  11.826   4.862   6.868  0.4929 -0.9547 -1.4608
  862MOL0     H16365  11.776   5.030   6.818 -1.1001 -0.3216 -2.4846
  862MOL0     H16366  11.605   4.933   6.677  0.1179  0.6901  0.5594
  862MOL0     H16367  11.674   4.763   6.721  3.6567 -1.8772 -4.1886
  862MOL0     H16368  11.956   4.962   6.451 -0.0887 -0.2059 -0.8610
  862MOL0     H16369  11.286   5.090   7.241 -0.9468 -0.2627 -1.8747
  862MOL0     H16370  11.152   5.302   7.305 -1.9212 -0.8701 -1.4129
  863MOL0     O16371   6.944   8.385  11.012  0.6571  0.7145 -0.3945
  863MOL0     C16372   6.988   8.340  10.906 -0.4792 -1.1498  0.0434
  863MOL0     O16373   6.946   8.365  10.780 -0.3095  0.0245 -0.5994
  863MOL0     C16374   6.833   8.444  10.759 -0.5780 -0.8199  0.0213
  863MOL0     C16375   6.707   8.387  10.773  0.5324  0.4852 -0.0296
  863MOL0     C16376   6.592   8.460  10.767 -0.0896 -1.1007 -0.3251
  863MOL0     C16377   6.601   8.596  10.738  0.2810  0.0184  1.0579
  863MOL0     O16378   6.498   8.682  10.739  1.2603  0.1799  0.3508
  863MOL0     C16379   6.382   8.630  10.678  0.6530  0.7182  0.6257
  863MOL0     C16380   6.272   8.737  10.671  0.8751  0.1731 -1.1186
  863MOL0     C16381   6.190   8.731  10.540  0.0602 -0.3915 -0.1970
  863MOL0     C16382   6.081   8.831  10.568 -0.6114 -0.0377  0.3832
  863MOL0     C16383   6.003   8.848  10.430 -1.1791 -0.0084 -0.2625
  863MOL0     C16384   5.867   8.920  10.461  0.5352  0.1085  0.3515
  863MOL0     C16385   5.798   8.970  10.336 -0.1964  0.1615  0.2674
  863MOL0     C16386   5.767   8.863  10.233  0.3053  0.0730  0.1684
  863MOL0     N16387   5.626   8.825  10.235  0.0293 -0.4948 -0.1583
  863MOL0     C16388   5.515   8.897  10.203  0.4727  1.0126 -0.7371
  863MOL0     C16389   5.419   8.806  10.229 -0.1748  0.7048  0.4584
  863MOL0     C16390   5.270   8.835  10.207 -0.4235  1.1719 -0.1570
  863MOL0     C16391   5.193   8.874  10.333  0.2014  0.8695  0.5301
  863MOL0     C16392   5.255   8.990  10.412 -0.4622 -0.2411  0.3094
  863MOL0     C16393   5.164   9.032  10.526  0.7521  0.0878  0.7648
  863MOL0     O16394   5.050   9.106  10.471 -0.1929 -0.5703 -0.7723
  863MOL0     C16395   4.948   9.136  10.562 -0.6153  0.4684  0.6190
  863MOL0     C16396   4.953   9.125  10.704  0.1884 -0.1415  0.7221
  863MOL0     C16397   4.846   9.157  10.784  0.4871  0.1105 -0.2449
  863MOL0     C16398   4.883   9.137  10.932  0.0465 -0.6426  0.1099
  863MOL0     C16399   4.722   9.181  10.730 -0.0309 -0.4723  0.9418
  863MOL0     C16400   4.590   9.217  10.809 -1.1271  0.1906  0.6592
  863MOL0     O16401   4.480   9.271  10.741  0.6987 -0.0268 -0.3146
  863MOL0     C16402   4.384   9.330  10.819 -0.0100  0.6693 -0.7734
  863MOL0     C16403   4.374   9.468  10.819  0.7151  0.1168  0.6873
  863MOL0     C16404   4.277   9.543  10.888  0.9046  0.2487 -0.1735
  863MOL0     C16405   4.189   9.474  10.980  0.0662 -0.3814  1.2053
  863MOL0     O16406   4.098   9.544  11.064 -0.1535  0.0739  0.2272
  863MOL0     C16407   3.993   9.606  10.999 -0.3896 -0.5586  1.2081
  863MOL0     C16408   3.863   9.583  11.090  0.2921  0.7567 -0.0959
  863MOL0     C16409   3.822   9.434  11.093  0.0251 -0.0348 -0.3113
  863MOL0     C16410   3.731   9.413  11.217  1.0679 -0.5340  0.3152
  863MOL0     C16411   3.666   9.270  11.201 -0.0224  0.5192 -0.0159
  863MOL0     C16412   3.567   9.242  11.310  0.2218 -1.3936 -0.5596
  863MOL0     C16413   3.432   9.331  11.291 -0.2135 -0.2033  0.6586
  863MOL0     C16414   3.314   9.258  11.344 -1.1117 -0.1095 -0.1177
  863MOL0    Cl16415   3.313   9.242  11.517 -0.3556 -0.3172  0.0614
  863MOL0     C16416   4.183   9.336  10.971 -0.8985  0.4404  0.0110
  863MOL0     C16417   4.278   9.265  10.888  0.0610 -0.2453  0.5456
  863MOL0     O16418   4.596   9.195  10.928 -0.2814 -0.3645  0.0055
  863MOL0     C16419   4.714   9.194  10.584  1.8555 -0.1765 -0.4968
  863MOL0     C16420   4.824   9.174  10.502  0.3511 -0.2094 -0.7005
  863MOL0     N16421   5.471   8.683  10.276  1.2595 -1.1625  0.1586
  863MOL0     N16422   5.595   8.696  10.281  0.1227 -0.3950 -0.1100
  863MOL0     C16423   6.727   8.649  10.700  0.4032  1.0725  0.0894
  863MOL0     C16424   6.839   8.573  10.704 -0.6291 -0.0545  0.0526
  863MOL0     C16425   7.115   8.274  10.915  0.4154  0.1467 -0.4326
  863MOL0     C16426   7.170   8.248  11.046  0.0315  0.7697 -0.9700
  863MOL0     C16427   7.299   8.190  11.055 -0.1249 -0.9722  0.3361
  863MOL0     C16428   7.370   8.155  10.939  0.4424  0.2746  0.1656
  863MOL0     O16429   7.498   8.100  10.935 -0.2999  0.6235 -0.2483
  863MOL0     C16430   7.570   8.087  11.065 -0.2866 -0.4316 -0.4447
  863MOL0     C16431   7.704   8.030  11.044 -0.6331  0.3500  0.8671
  863MOL0     C16432   7.787   8.097  10.932  0.1055  0.1780  0.0340
  863MOL0     C16433   7.924   8.022  10.892 -0.5417 -0.6632  0.9622
  863MOL0     C16434   8.011   8.007  11.006 -0.5223  0.5898 -0.4691
  863MOL0     C16435   8.087   7.978  11.098  0.2955 -0.4848 -1.3019
  863MOL0     C16436   7.307   8.164  10.814 -0.0905  0.1219 -0.5865
  863MOL0     C16437   7.187   8.234  10.803 -0.5808 -0.6784  0.6328
  863MOL0     H16438   6.710   8.284  10.806  2.5266  0.5725  0.2037
  863MOL0     H16439   6.499   8.408  10.787  1.1188 -3.7142 -0.9932
  863MOL0     H16440   6.409   8.588  10.581  0.1593 -0.2784  0.9061
  863MOL0     H16441   6.336   8.550  10.737 -2.1168  0.9950 -0.9787
  863MOL0     H16442   6.217   8.719  10.764  0.4301 -0.0466 -1.4148
  863MOL0     H16443   6.325   8.832  10.681  1.7246 -0.4997  1.3850
  863MOL0     H16444   6.260   8.759  10.461  1.1331  1.7769  1.4124
  863MOL0     H16445   6.151   8.629  10.533 -0.2327 -0.2280 -1.0845
  863MOL0     H16446   6.017   8.788  10.646  1.9149 -0.1890  2.5178
  863MOL0     H16447   6.115   8.929  10.600  1.6090  0.3950 -2.7975
  863MOL0     H16448   6.061   8.917  10.368 -0.1526  0.3987  1.1037
  863MOL0     H16449   5.994   8.749  10.384 -1.4932 -0.3757  0.5726
  863MOL0     H16450   5.795   8.851  10.507 -2.4239  1.5303 -1.7630
  863MOL0     H16451   5.881   9.011  10.521 -0.2382  0.0204  0.6895
  863MOL0     H16452   5.705   9.025  10.356 -0.3167  0.2174 -0.3909
  863MOL0     H16453   5.853   9.052  10.289 -1.1278  1.4301  1.3145
  863MOL0     H16454   5.826   8.776  10.259 -0.3414 -0.5937 -0.5367
  863MOL0     H16455   5.802   8.895  10.134 -1.1351  0.4336 -0.2539
  863MOL0     H16456   5.512   9.000  10.170 -4.3250  1.3579  0.0567
  863MOL0     H16457   5.256   8.913  10.131 -0.4159  2.0298  0.7069
  863MOL0     H16458   5.219   8.745  10.171  2.6658 -0.9013  0.2736
  863MOL0     H16459   5.183   8.787  10.399  0.1277 -1.1400 -1.9696
  863MOL0     H16460   5.095   8.913  10.305  0.5019  0.5533 -1.0742
  863MOL0     H16461   5.263   9.068  10.336 -3.3199 -0.1574 -0.0390
  863MOL0     H16462   5.354   8.961  10.449 -0.4575  1.9490  2.2532
  863MOL0     H16463   5.219   9.092  10.598 -0.5204 -0.9674  2.7036
  863MOL0     H16464   5.128   8.941  10.575 -2.7337  2.1430  2.3420
  863MOL0     H16465   5.047   9.089  10.745  2.1286  1.1721 -2.2441
  863MOL0     H16466   4.991   9.126  10.945  0.1193  1.3465  1.6006
  863MOL0     H16467   4.854   9.214  11.003  0.0689 -0.8707  0.3724
  863MOL0     H16468   4.828   9.046  10.958 -1.2470 -0.8870 -3.0370
  863MOL0     H16469   4.451   9.526  10.769  0.7185  1.0608  1.7427
  863MOL0     H16470   4.275   9.652  10.885 -0.9505  0.2444 -1.7971
  863MOL0     H16471   4.013   9.712  10.981 -0.9238 -0.2942  2.1208
  863MOL0     H16472   3.977   9.556  10.903  0.9254 -2.2062  1.7936
  863MOL0     H16473   3.873   9.624  11.191 -2.0947  1.4492 -0.0784
  863MOL0     H16474   3.777   9.641  11.053  1.1084  1.4320 -0.9949
  863MOL0     H16475   3.904   9.362  11.091  1.8192  1.8912 -2.6572
  863MOL0     H16476   3.759   9.408  11.007  1.6659 -3.0284 -0.7643
  863MOL0     H16477   3.791   9.420  11.308  0.3157 -0.2978  0.7974
  863MOL0     H16478   3.654   9.489  11.231 -1.0025 -2.6017  0.7502
  863MOL0     H16479   3.745   9.193  11.203 -0.0939  0.4416  2.2149
  863MOL0     H16480   3.618   9.262  11.103 -1.2727 -1.7678  0.6944
  863MOL0     H16481   3.534   9.138  11.297 -0.5017 -1.2302 -0.1199
  863MOL0     H16482   3.604   9.265  11.410 -2.2453  0.7301 -0.0115
  863MOL0     H16483   3.416   9.347  11.184  0.8356 -0.3675  0.4684
  863MOL0     H16484   3.451   9.428  11.338  0.5669 -0.6398  1.2788
  863MOL0     H16485   3.309   9.160  11.295  1.0120  0.4113 -1.5052
  863MOL0     H16486   3.228   9.319  11.317 -0.7246 -0.3651 -2.0640
  863MOL0     H16487   4.117   9.292  11.045  0.8039  2.3969  2.9218
  863MOL0     H16488   4.291   9.157  10.887  0.6979 -0.1839 -1.0109
  863MOL0     H16489   4.622   9.204  10.528  0.9687  3.0480  1.3134
  863MOL0     H16490   4.811   9.179  10.395 -3.6601 -0.0675 -0.3659
  863MOL0     H16491   6.726   8.754  10.672 -2.3833  0.5307 -2.3868
  863MOL0     H16492   6.940   8.608  10.681  0.0837 -2.2725 -0.3723
  863MOL0     H16493   7.111   8.272  11.133  3.2343  2.0758  1.0049
  863MOL0     H16494   7.350   8.187  11.151  0.8420 -1.0330 -0.1652
  863MOL0     H16495   7.585   8.187  11.108  0.1065  0.0562 -1.6631
  863MOL0     H16496   7.520   8.021  11.136 -0.2499 -0.0664 -0.0739
  863MOL0     H16497   7.701   7.924  11.020  1.1325  0.2645  0.9120
  863MOL0     H16498   7.752   8.043  11.141  0.5322  1.3651  0.1826
  863MOL0     H16499   7.814   8.198  10.962 -0.0078  1.0060 -2.4540
  863MOL0     H16500   7.735   8.105  10.836 -0.5356  1.8151  0.4881
  863MOL0     H16501   7.983   8.081  10.822  0.6452  0.3752  2.7662
  863MOL0     H16502   7.912   7.927  10.838 -2.1945  0.7077 -1.2729
  863MOL0     H16503   8.145   7.965  11.187 -0.8471  1.6487 -0.1662
  863MOL0     H16504   7.351   8.126  10.722  0.9504  0.6119 -0.3107
  863MOL0     H16505   7.142   8.239  10.703  3.7183 -1.4083 -1.5510
  864MOL0     O16506  10.199   3.560   5.337 -0.2487 -0.0288  0.0586
  864MOL0     C16507  10.095   3.599   5.286 -0.1140  0.5851 -0.4184
  864MOL0     O16508   9.978   3.626   5.352  0.5607 -0.3589 -0.0815
  864MOL0     C16509   9.962   3.596   5.490 -0.6560 -0.1554  0.7331
  864MOL0     C16510  10.041   3.632   5.604 -0.1762  0.6463  0.6237
  864MOL0     C16511  10.009   3.594   5.732 -0.0185  0.3657 -0.0988
  864MOL0     C16512   9.906   3.513   5.756 -0.5459 -0.4881  1.0674
  864MOL0     O16513   9.890   3.473   5.880 -0.2886 -0.9943 -0.7125
  864MOL0     C16514   9.782   3.384   5.922  0.4535 -0.1292 -0.2090
  864MOL0     C16515   9.651   3.452   5.953 -0.5046  0.3300  0.0506
  864MOL0     C16516   9.670   3.545   6.069  0.3541 -0.0759  0.7212
  864MOL0     C16517   9.536   3.593   6.123 -0.5834  0.0583 -0.3671
  864MOL0     C16518   9.561   3.670   6.255 -0.4041  0.2831  0.6355
  864MOL0     C16519   9.430   3.705   6.330 -0.0503 -0.4977  0.7672
  864MOL0     C16520   9.436   3.828   6.428  0.5362  0.1393  0.8036
  864MOL0     C16521   9.398   3.962   6.370 -0.2769  0.1242  0.0577
  864MOL0     N16522   9.478   3.997   6.252 -0.0990  0.4566  0.2414
  864MOL0     C16523   9.615   4.013   6.247  0.2030 -0.5142 -0.0938
  864MOL0     C16524   9.652   4.002   6.107 -0.2499 -0.3235 -0.3973
  864MOL0     C16525   9.789   3.992   6.061  0.1538  0.0269  0.3078
  864MOL0     C16526   9.781   3.935   5.921 -0.1706  0.7738 -0.1836
  864MOL0     C16527   9.919   3.916   5.854 -0.5730  0.7429  0.6734
  864MOL0     C16528   9.987   4.049   5.821  0.3153  0.4628  0.1286
  864MOL0     O16529   9.905   4.149   5.760 -1.0266 -1.3366  0.4938
  864MOL0     C16530   9.874   4.131   5.627  0.8818  0.2246 -0.3100
  864MOL0     C16531   9.798   4.238   5.584  0.3787 -0.2432 -0.0428
  864MOL0     C16532   9.752   4.253   5.456  0.2351  0.8537  0.4518
  864MOL0     C16533   9.716   4.389   5.419 -0.2865 -0.4441 -0.4619
  864MOL0     C16534   9.762   4.146   5.367  0.1182  0.0234 -0.1149
  864MOL0     C16535   9.696   4.144   5.231  0.0362  0.4244  0.4034
  864MOL0     O16536   9.751   4.058   5.136  0.7496  0.6427 -0.1418
  864MOL0     C16537   9.678   4.039   5.021 -0.4105 -0.2485  0.4064
  864MOL0     C16538   9.600   3.921   5.004  0.1663 -0.0836  0.5528
  864MOL0     C16539   9.539   3.892   4.879 -0.3880  0.1904  0.9348
  864MOL0     C16540   9.544   3.976   4.777  1.0173 -0.7753 -0.4179
  864MOL0     O16541   9.451   3.956   4.675 -0.5973 -0.1916  0.2081
  864MOL0     C16542   9.501   3.855   4.581 -0.5989 -1.2646 -0.1489
  864MOL0     C16543   9.385   3.822   4.497  0.9222  0.1456 -0.4820
  864MOL0     C16544   9.278   3.743   4.572 -1.4603  0.5797  1.0266
  864MOL0     C16545   9.163   3.821   4.621 -0.3336  0.2286 -0.0780
  864MOL0     C16546   9.061   3.723   4.682 -0.2348  0.1616 -0.4317
  864MOL0     C16547   8.976   3.808   4.780  0.5777 -0.8460 -0.0824
  864MOL0     C16548   8.890   3.718   4.865 -0.3928 -0.2161  0.2144
  864MOL0     C16549   8.756   3.791   4.913 -0.6626  0.5247 -0.5210
  864MOL0    Cl16550   8.659   3.656   4.980  0.0456  0.0442  0.2675
  864MOL0     C16551   9.610   4.091   4.796 -0.6356 -0.5572  0.3784
  864MOL0     C16552   9.686   4.121   4.910  0.6496 -0.4594 -1.4913
  864MOL0     O16553   9.605   4.221   5.201  0.0405  0.1296 -0.1572
  864MOL0     C16554   9.846   4.032   5.400 -0.3458  0.5292 -0.1726
  864MOL0     C16555   9.894   4.026   5.536  0.0429  0.2025  0.6769
  864MOL0     N16556   9.532   3.987   6.036  0.5983 -0.3655 -0.1826
  864MOL0     N16557   9.437   3.995   6.121  0.6926 -0.4117  0.7899
  864MOL0     C16558   9.810   3.486   5.655 -0.2874 -0.1009  0.7658
  864MOL0     C16559   9.846   3.525   5.520  0.5254  0.5779 -0.0089
  864MOL0     C16560  10.098   3.619   5.141 -1.1450  0.3757 -0.3508
  864MOL0     C16561   9.985   3.685   5.091  0.6231  0.3689 -0.5152
  864MOL0     C16562   9.990   3.711   4.948  0.4914 -1.1812  0.7920
  864MOL0     C16563  10.109   3.671   4.864 -0.3014 -0.2270 -1.1822
  864MOL0     O16564  10.121   3.715   4.730 -0.5824  0.0753 -0.2018
  864MOL0     C16565  10.010   3.742   4.645 -0.3175  0.1613 -0.4902
  864MOL0     C16566  10.039   3.730   4.495 -0.5364 -0.0965 -0.7012
  864MOL0     C16567   9.986   3.858   4.423  0.4594  0.0456  0.7655
  864MOL0     C16568  10.010   3.840   4.270 -0.0163 -0.6570  0.1884
  864MOL0     C16569  10.158   3.841   4.228 -0.3137 -0.3816  0.2912
  864MOL0     C16570  10.275   3.846   4.209 -0.1320  0.1707  0.9799
  864MOL0     C16571  10.219   3.618   4.933  0.3636 -0.9300  0.3862
  864MOL0     C16572  10.212   3.579   5.068  1.0744 -0.3866 -0.1538
  864MOL0     H16573  10.134   3.688   5.595  0.9116 -1.0893  0.5032
  864MOL0     H16574  10.083   3.622   5.805 -1.0001 -1.6645  1.8139
  864MOL0     H16575   9.761   3.305   5.849  0.2528  1.5687 -2.0556
  864MOL0     H16576   9.808   3.329   6.013 -3.3220  0.0674  1.1516
  864MOL0     H16577   9.616   3.506   5.864 -1.0562  0.5843  0.4132
  864MOL0     H16578   9.574   3.379   5.977 -2.3046  1.0279 -3.0078
  864MOL0     H16579   9.739   3.500   6.141  1.6867  1.1531  0.2561
  864MOL0     H16580   9.718   3.637   6.036  0.3997 -0.9201 -1.7928
  864MOL0     H16581   9.479   3.652   6.051 -1.5797  4.3862  3.5304
  864MOL0     H16582   9.477   3.502   6.139  0.5976 -1.0946 -2.0845
  864MOL0     H16583   9.626   3.617   6.325  3.3037  0.0133 -2.6850
  864MOL0     H16584   9.612   3.759   6.218  1.4571 -1.0084 -0.0326
  864MOL0     H16585   9.349   3.736   6.264  0.4276  4.4943  2.1169
  864MOL0     H16586   9.401   3.616   6.387 -1.1269  1.3234  3.2620
  864MOL0     H16587   9.361   3.811   6.506  0.6176  1.9243  1.3042
  864MOL0     H16588   9.539   3.830   6.462  0.7157  0.4007  0.2513
  864MOL0     H16589   9.411   4.033   6.452 -2.7340  0.1394  0.5229
  864MOL0     H16590   9.290   3.960   6.351 -0.4930 -2.9783  1.0369
  864MOL0     H16591   9.679   4.010   6.334  0.6455 -1.4902 -0.4396
  864MOL0     H16592   9.841   4.088   6.062 -1.8311  1.1566  0.4386
  864MOL0     H16593   9.849   3.928   6.127 -1.7644  0.6063  2.7999
  864MOL0     H16594   9.712   3.993   5.858  2.2272  2.1362 -1.7043
  864MOL0     H16595   9.747   3.831   5.926  1.7864  0.1498  3.7093
  864MOL0     H16596   9.909   3.847   5.770 -2.5289  1.7520  0.0097
  864MOL0     H16597   9.988   3.864   5.921 -0.4313 -2.1970 -1.5633
  864MOL0     H16598  10.085   4.035   5.774  1.6985 -3.2462  3.5486
  864MOL0     H16599  10.004   4.093   5.920 -0.5923 -0.5556  0.7613
  864MOL0     H16600   9.763   4.309   5.658  0.5492 -3.3666  3.3100
  864MOL0     H16601   9.707   4.398   5.310  4.2302 -1.8638 -1.1731
  864MOL0     H16602   9.636   4.439   5.473 -0.1520  1.3112 -1.7896
  864MOL0     H16603   9.806   4.450   5.430 -0.4243 -0.4606  0.8353
  864MOL0     H16604   9.612   3.850   5.084 -2.5072  0.6267  1.6947
  864MOL0     H16605   9.501   3.791   4.864 -0.2303  0.2016  0.4172
  864MOL0     H16606   9.572   3.892   4.507 -1.2438  1.5266  0.5078
  864MOL0     H16607   9.542   3.766   4.632 -2.0164 -1.9768 -0.2068
  864MOL0     H16608   9.340   3.907   4.446 -0.4696 -1.0054 -1.2544
  864MOL0     H16609   9.430   3.760   4.420 -1.1780 -1.6668 -0.3578
  864MOL0     H16610   9.324   3.687   4.654  0.2865 -0.4071 -0.5505
  864MOL0     H16611   9.252   3.677   4.490  1.0416  1.0312 -0.2181
  864MOL0     H16612   9.206   3.889   4.695  0.4469 -0.1313 -0.1911
  864MOL0     H16613   9.116   3.887   4.546 -0.6465 -0.0127 -0.0964
  864MOL0     H16614   9.113   3.644   4.737 -0.9908  0.5974  0.9648
  864MOL0     H16615   9.003   3.666   4.609 -0.1382 -1.4063  0.6769
  864MOL0     H16616   9.031   3.874   4.846 -0.2411 -0.5535  0.3254
  864MOL0     H16617   8.915   3.881   4.727 -1.7514 -1.4396  1.5964
  864MOL0     H16618   8.942   3.680   4.953 -2.1257 -1.9812  0.5478
  864MOL0     H16619   8.861   3.628   4.811 -0.6703  0.3837 -0.6616
  864MOL0     H16620   8.716   3.843   4.826 -0.0205  0.6288 -0.7616
  864MOL0     H16621   8.784   3.870   4.983 -0.7677 -0.1427  0.2846
  864MOL0     H16622   9.616   4.158   4.711  1.6839 -3.5285 -2.0292
  864MOL0     H16623   9.758   4.202   4.913  2.6492 -2.1792  1.5133
  864MOL0     H16624   9.856   3.964   5.317 -1.2476  3.8517 -3.2671
  864MOL0     H16625   9.948   3.936   5.564 -0.0509  0.3633  1.4172
  864MOL0     H16626   9.713   3.441   5.671 -1.8574  2.7745  0.1752
  864MOL0     H16627   9.778   3.486   5.446 -0.5684 -1.5937  1.9883
  864MOL0     H16628   9.896   3.712   5.146  1.1738  2.3542 -0.5228
  864MOL0     H16629   9.931   3.783   4.892  2.2176 -0.4894 -0.2193
  864MOL0     H16630   9.922   3.683   4.671 -1.2575  1.3556 -0.9016
  864MOL0     H16631   9.976   3.842   4.671 -2.5178 -0.6481 -0.0571
  864MOL0     H16632   9.978   3.647   4.457 -0.3816 -2.3261  3.3005
  864MOL0     H16633  10.145   3.714   4.475 -0.1177  1.6212 -0.0093
  864MOL0     H16634  10.037   3.947   4.459 -0.3731  0.8106  0.1148
  864MOL0     H16635   9.877   3.865   4.429  0.0087  3.7423 -4.3981
  864MOL0     H16636   9.960   3.927   4.228 -1.7000  0.5775  4.2685
  864MOL0     H16637   9.959   3.750   4.234  1.1487 -0.9819 -0.7106
  864MOL0     H16638  10.381   3.833   4.201  0.4662  0.4660  5.7375
  864MOL0     H16639  10.308   3.605   4.873  0.6401  1.3517  0.1871
  864MOL0     H16640  10.300   3.537   5.117  2.9022  1.9912 -1.1514
  865MOL0     O16641   4.976   3.734   5.551  0.2692  0.0597 -0.0297
  865MOL0     C16642   5.009   3.833   5.498 -0.4482 -0.7061  0.5878
  865MOL0     O16643   4.925   3.945   5.475 -0.3731  0.6742  1.0264
  865MOL0     C16644   4.799   3.919   5.502 -0.3861  0.0474 -0.5321
  865MOL0     C16645   4.755   3.938   5.627 -0.4389 -0.0354  0.1574
  865MOL0     C16646   4.624   3.945   5.670  0.7788  0.6966  0.0758
  865MOL0     C16647   4.526   3.916   5.574  0.3389 -0.7251 -0.9221
  865MOL0     O16648   4.395   3.903   5.602 -0.1507  0.2006  0.3602
  865MOL0     C16649   4.348   3.910   5.733  0.2004 -0.0027 -0.8431
  865MOL0     C16650   4.197   3.890   5.739 -0.9316  0.8331 -0.0978
  865MOL0     C16651   4.137   3.934   5.871 -0.1208  0.9909 -0.2084
  865MOL0     C16652   3.988   3.961   5.847  0.0582 -0.5544  0.0557
  865MOL0     C16653   3.920   4.047   5.952 -0.4086 -1.3513 -0.2612
  865MOL0     C16654   3.908   3.970   6.091  0.1346  0.3906  0.2371
  865MOL0     C16655   3.813   3.849   6.080 -0.0935 -0.9967  0.0403
  865MOL0     C16656   3.791   3.777   6.218  0.0955 -1.3505 -0.6152
  865MOL0     N16657   3.699   3.875   6.297  0.7083  0.1377 -0.6813
  865MOL0     C16658   3.564   3.887   6.270 -0.7981  0.0553  1.0760
  865MOL0     C16659   3.522   3.990   6.349 -0.2656  0.4815 -0.1103
  865MOL0     C16660   3.388   4.062   6.350  1.1453  0.9665 -0.0672
  865MOL0     C16661   3.284   3.961   6.408 -0.0037 -0.2009  0.6602
  865MOL0     C16662   3.168   4.026   6.478 -0.5751 -0.0107 -0.2189
  865MOL0     C16663   3.055   3.920   6.484 -0.4380  0.1066  0.6765
  865MOL0     O16664   2.962   3.946   6.369 -0.5976  0.2893 -0.2074
  865MOL0     C16665   2.850   4.024   6.371  0.2007 -0.0159 -0.5178
  865MOL0     C16666   2.825   4.124   6.464  0.5837 -0.4703 -0.3372
  865MOL0     C16667   2.722   4.218   6.460  0.6248  0.8217 -0.1204
  865MOL0     C16668   2.708   4.317   6.577 -0.0621  0.2324  0.1697
  865MOL0     C16669   2.625   4.204   6.355  0.6380  0.5270 -0.0797
  865MOL0     C16670   2.501   4.282   6.339  0.2202  0.3693  0.7642
  865MOL0     O16671   2.392   4.212   6.305  0.0484  0.1713  0.1855
  865MOL0     C16672   2.278   4.270   6.256 -0.6678  0.5985 -0.3597
  865MOL0     C16673   2.169   4.190   6.236  0.5394 -0.2251  0.6158
  865MOL0     C16674   2.049   4.233   6.180 -0.3656 -0.8278 -0.7444
  865MOL0     C16675   2.036   4.368   6.154  0.0078 -0.7245 -0.6137
  865MOL0     O16676   1.911   4.401   6.101 -0.0403 -0.2773  0.5725
  865MOL0     C16677   1.865   4.527   6.125 -0.0884 -0.3308  0.0944
  865MOL0     C16678   1.731   4.553   6.056 -0.3115 -1.1152  0.8536
  865MOL0     C16679   1.754   4.581   5.901 -0.4595 -0.0946 -0.2982
  865MOL0     C16680   1.635   4.631   5.828  0.2113  0.2765  0.4123
  865MOL0     C16681   1.568   4.757   5.883 -0.0884 -0.0918  0.1474
  865MOL0     C16682   1.430   4.781   5.824 -0.5304  0.2281 -0.8212
  865MOL0     C16683   1.372   4.921   5.843  0.5439 -0.5969 -0.8710
  865MOL0     C16684   1.258   4.917   5.954 -1.1381 -0.6817  0.0715
  865MOL0    Cl16685   1.194   5.092   5.991 -0.7433 -0.1019 -0.1780
  865MOL0     C16686   2.136   4.456   6.178 -0.0271  0.5056 -0.0046
  865MOL0     C16687   2.258   4.406   6.222 -0.4580 -0.0535  0.6660
  865MOL0     O16688   2.509   4.404   6.350 -0.2654 -0.3233  1.3686
  865MOL0     C16689   2.650   4.102   6.270  0.1569  1.0586  0.4140
  865MOL0     C16690   2.755   4.006   6.274  0.8156 -0.0097  0.3046
  865MOL0     N16691   3.630   4.024   6.431  0.8295 -0.6884  0.4665
  865MOL0     N16692   3.734   3.967   6.391  0.1965 -0.7011 -0.2751
  865MOL0     C16693   4.565   3.886   5.447 -0.0079  0.7097  0.3098
  865MOL0     C16694   4.696   3.887   5.412  0.4306  0.2999 -0.3141
  865MOL0     C16695   5.142   3.836   5.432  0.6504 -0.1707 -0.6868
  865MOL0     C16696   5.193   3.947   5.369 -0.9547 -0.3110 -0.2357
  865MOL0     C16697   5.322   3.939   5.316 -0.4439  0.1465 -0.0435
  865MOL0     C16698   5.404   3.830   5.324  0.5158 -0.6049  1.2676
  865MOL0     O16699   5.528   3.839   5.267  0.3649 -0.1013 -0.0809
  865MOL0     C16700   5.599   3.720   5.249 -0.1877 -0.1135  0.6559
  865MOL0     C16701   5.718   3.741   5.156 -0.5133  1.0261  0.4979
  865MOL0     C16702   5.759   3.606   5.090 -0.2978  0.3781 -0.6524
  865MOL0     C16703   5.905   3.607   5.042  0.3310  0.0119 -0.2228
  865MOL0     C16704   5.929   3.715   4.948  0.1599 -0.6179  0.2605
  865MOL0     C16705   5.949   3.799   4.865  0.1363 -0.1117  0.1641
  865MOL0     C16706   5.354   3.720   5.397  0.4263 -0.0443 -0.0568
  865MOL0     C16707   5.222   3.720   5.448 -0.3151  0.1893  0.0154
  865MOL0     H16708   4.828   3.944   5.707  0.8853  1.1916 -1.0892
  865MOL0     H16709   4.591   3.976   5.769 -2.2151 -0.7822 -0.3442
  865MOL0     H16710   4.394   3.835   5.798  0.9187  0.9397 -0.2382
  865MOL0     H16711   4.371   4.009   5.773 -2.8735 -0.1341  1.7235
  865MOL0     H16712   4.155   3.947   5.656 -0.4466  0.7848 -0.3850
  865MOL0     H16713   4.168   3.785   5.724 -1.1411  1.2160 -2.9025
  865MOL0     H16714   4.132   3.855   5.946 -1.2322  1.8697  0.6774
  865MOL0     H16715   4.204   4.010   5.912  0.8973 -1.1254  2.3667
  865MOL0     H16716   3.964   4.006   5.750  1.9700 -0.3522 -0.3604
  865MOL0     H16717   3.943   3.861   5.835  0.1482 -0.7402  1.1536
  865MOL0     H16718   3.982   4.136   5.967  0.2852 -1.4725 -2.1977
  865MOL0     H16719   3.820   4.075   5.916 -0.7751 -2.4131 -0.1089
  865MOL0     H16720   4.008   3.942   6.126 -0.3452 -0.2854  1.0940
  865MOL0     H16721   3.863   4.045   6.157 -0.5296  1.4111 -1.3262
  865MOL0     H16722   3.718   3.885   6.040 -0.1467 -0.2482  0.7986
  865MOL0     H16723   3.853   3.778   6.007  1.3586  0.6728 -0.8539
  865MOL0     H16724   3.889   3.775   6.268 -0.3078  3.8013  0.9114
  865MOL0     H16725   3.739   3.681   6.206 -0.9284 -1.3410  2.9037
  865MOL0     H16726   3.522   3.835   6.185  2.8207 -1.9679  0.3116
  865MOL0     H16727   3.388   4.157   6.403  4.5797  1.2495 -0.3632
  865MOL0     H16728   3.355   4.094   6.251  1.3759  3.0836  0.4982
  865MOL0     H16729   3.325   3.893   6.483 -1.0905 -0.5512  0.9569
  865MOL0     H16730   3.242   3.910   6.321  0.5888  1.4329 -0.6487
  865MOL0     H16731   3.126   4.110   6.421 -1.6652 -0.1570  0.3385
  865MOL0     H16732   3.197   4.063   6.577 -2.0042 -3.4534  1.6644
  865MOL0     H16733   3.006   3.916   6.582 -3.5951 -0.0475 -0.8067
  865MOL0     H16734   3.102   3.823   6.464  0.5980  0.1931  2.4595
  865MOL0     H16735   2.893   4.130   6.549 -1.6849  2.0820  1.4765
  865MOL0     H16736   2.641   4.284   6.656  0.8649  2.0991  1.8164
  865MOL0     H16737   2.813   4.319   6.610  0.6485 -3.6480 -1.2793
  865MOL0     H16738   2.684   4.418   6.544  2.6714  0.5878 -1.0679
  865MOL0     H16739   2.182   4.085   6.258  2.8405  0.2880  2.1724
  865MOL0     H16740   1.962   4.170   6.166  0.3265 -1.6930 -1.3003
  865MOL0     H16741   1.844   4.526   6.232 -1.2271 -0.4729 -0.1178
  865MOL0     H16742   1.941   4.596   6.087  0.5398 -1.4390 -0.7159
  865MOL0     H16743   1.664   4.467   6.057 -0.6931 -0.8264  0.5678
  865MOL0     H16744   1.682   4.640   6.100 -2.2919 -1.7783  0.0847
  865MOL0     H16745   1.776   4.485   5.853 -0.4823  0.0692 -0.6412
  865MOL0     H16746   1.837   4.650   5.889 -0.2191 -0.5786 -1.5033
  865MOL0     H16747   1.677   4.642   5.727  0.2123 -1.2631  0.2207
  865MOL0     H16748   1.554   4.558   5.823  2.1766 -2.0125  0.2473
  865MOL0     H16749   1.636   4.841   5.866 -0.2381  0.2867  1.3390
  865MOL0     H16750   1.556   4.748   5.991  0.7778  1.1937  0.3724
  865MOL0     H16751   1.434   4.760   5.717  0.1062 -0.9304 -0.5890
  865MOL0     H16752   1.369   4.704   5.873  0.6789 -0.0542  0.3041
  865MOL0     H16753   1.339   4.973   5.752 -0.1559  2.4535  1.0044
  865MOL0     H16754   1.456   4.985   5.871 -1.3115  1.2962  0.7410
  865MOL0     H16755   1.301   4.863   6.038 -1.6631 -0.8165  0.2582
  865MOL0     H16756   1.173   4.851   5.932 -1.6925 -0.0664  0.3403
  865MOL0     H16757   2.136   4.561   6.150 -0.0005  0.5077  0.0037
  865MOL0     H16758   2.338   4.479   6.220 -0.0397 -0.5196 -0.2202
  865MOL0     H16759   2.581   4.074   6.191  1.3462  0.4138 -0.4222
  865MOL0     H16760   2.765   3.930   6.197 -2.2962 -0.7970  0.5210
  865MOL0     H16761   4.503   3.860   5.361  2.0326  0.4738 -1.1698
  865MOL0     H16762   4.732   3.858   5.314 -0.6418 -1.0400 -0.3423
  865MOL0     H16763   5.144   4.043   5.370 -0.5966 -0.0211  3.4213
  865MOL0     H16764   5.364   4.022   5.260  3.1272  1.1405  3.6526
  865MOL0     H16765   5.636   3.686   5.346 -2.0570 -1.2826  1.0176
  865MOL0     H16766   5.527   3.646   5.212 -0.0994  0.5525 -0.9326
  865MOL0     H16767   5.803   3.782   5.212 -0.0078 -1.4997  1.7326
  865MOL0     H16768   5.688   3.813   5.080 -2.8736 -0.9382 -0.5908
  865MOL0     H16769   5.691   3.570   5.012  0.5017 -1.8627 -0.4043
  865MOL0     H16770   5.755   3.535   5.173  2.7344  0.6443 -0.1361
  865MOL0     H16771   5.927   3.508   4.999 -1.9054 -1.8348  2.4831
  865MOL0     H16772   5.970   3.618   5.130  1.3726 -0.4564 -0.9117
  865MOL0     H16773   5.953   3.867   4.783 -1.3519 -2.2481 -1.7835
  865MOL0     H16774   5.417   3.638   5.430 -3.5270 -2.6520  1.6794
  865MOL0     H16775   5.179   3.625   5.480 -0.9704 -0.0877 -1.5889
  866MOL0     O16776   4.776   1.832   9.845  0.4902 -0.0975  0.0236
  866MOL0     C16777   4.684   1.757   9.811 -0.4235  0.5657 -0.1091
  866MOL0     O16778   4.580   1.781   9.732 -0.3772 -0.0705  0.7808
  866MOL0     C16779   4.501   1.894   9.747 -0.1033 -0.3425  0.7142
  866MOL0     C16780   4.397   1.906   9.648 -1.5991  0.0963 -0.3965
  866MOL0     C16781   4.315   2.017   9.659  1.1185  0.4710 -1.5637
  866MOL0     C16782   4.337   2.121   9.758 -0.0693 -0.0715  0.2282
  866MOL0     O16783   4.252   2.227   9.739 -0.3446  0.3555  1.0095
  866MOL0     C16784   4.263   2.336   9.841  0.1231  0.3512  0.8844
  866MOL0     C16785   4.166   2.457   9.816 -0.1958  0.1945 -0.3167
  866MOL0     C16786   4.023   2.421   9.823  0.2532 -0.2188  0.4814
  866MOL0     C16787   3.948   2.551   9.855 -0.3936  0.1384 -0.2476
  866MOL0     C16788   3.791   2.539   9.869 -0.5432 -0.5406 -0.5655
  866MOL0     C16789   3.730   2.498   9.730  0.2475  0.0070 -0.4184
  866MOL0     C16790   3.581   2.468   9.737  0.4237  0.2578  0.0030
  866MOL0     C16791   3.503   2.593   9.776 -0.1946 -0.1563  0.1739
  866MOL0     N16792   3.361   2.583   9.748  0.7837  0.8698  0.5129
  866MOL0     C16793   3.270   2.491   9.797  0.1848  0.9036 -0.1492
  866MOL0     C16794   3.158   2.506   9.724  0.7241 -0.3489 -1.3969
  866MOL0     C16795   3.014   2.461   9.758  0.0705 -0.9686  0.1829
  866MOL0     C16796   2.970   2.484   9.905  1.2059  0.3508  0.3735
  866MOL0     C16797   2.832   2.552   9.914 -0.8440 -0.2155  0.6289
  866MOL0     C16798   2.786   2.571  10.054  0.5343  0.7024  0.1495
  866MOL0     O16799   2.724   2.451  10.099  0.4893 -0.5745  0.0361
  866MOL0     C16800   2.583   2.463  10.107 -1.2930 -0.0498  0.5591
  866MOL0     C16801   2.501   2.421  10.006 -0.0322  0.2106 -0.2251
  866MOL0     C16802   2.357   2.440   9.999 -0.2259 -0.3455 -0.0436
  866MOL0     C16803   2.284   2.348   9.897 -0.9960 -0.3717  0.3482
  866MOL0     C16804   2.303   2.530  10.090 -0.9933 -0.4408 -0.2959
  866MOL0     C16805   2.157   2.554  10.101 -0.2280 -0.4268  0.0502
  866MOL0     O16806   2.100   2.654  10.188  0.2906  0.1918  0.7443
  866MOL0     C16807   1.977   2.706  10.166  0.4913  0.4018  0.1976
  866MOL0     C16808   1.961   2.810  10.087 -0.3108 -0.0682 -0.0877
  866MOL0     C16809   1.850   2.892  10.097 -0.2669 -0.0520 -0.3960
  866MOL0     C16810   1.743   2.851  10.178  0.3792 -1.0886 -0.1707
  866MOL0     O16811   1.617   2.912  10.179  1.1953 -0.2573 -0.6836
  866MOL0     C16812   1.592   3.026  10.088 -0.1764 -0.5909  0.5979
  866MOL0     C16813   1.456   3.071  10.097  0.2902 -0.4832  0.4368
  866MOL0     C16814   1.354   2.966  10.054  0.3534 -0.1455  0.3764
  866MOL0     C16815   1.213   3.014  10.033 -0.8662  0.1737  0.6238
  866MOL0     C16816   1.111   2.906  10.000  0.6276 -0.3038 -0.0911
  866MOL0     C16817   0.988   2.970   9.934 -0.3366 -0.1270 -0.6675
  866MOL0     C16818   0.869   2.880   9.958  0.2669 -0.6716  1.1172
  866MOL0     C16819   0.817   2.900  10.095 -0.1516 -0.1618  0.3696
  866MOL0    Cl16820   0.707   2.765  10.142 -0.3722  0.1097  0.5433
  866MOL0     C16821   1.758   2.736  10.247  0.0975  0.5332 -0.0835
  866MOL0     C16822   1.876   2.666  10.252  1.1396  0.1036  0.2187
  866MOL0     O16823   2.087   2.475  10.032  0.2217 -0.3822 -0.9573
  866MOL0     C16824   2.384   2.575  10.198  0.0197 -0.1199 -0.0676
  866MOL0     C16825   2.521   2.536  10.205 -0.2243 -0.1021  0.1696
  866MOL0     N16826   3.179   2.599   9.624 -0.2412 -0.8422  0.3896
  866MOL0     N16827   3.295   2.647   9.647 -0.1191  1.2245 -0.0531
  866MOL0     C16828   4.438   2.102   9.856  0.5774  0.3607  0.2611
  866MOL0     C16829   4.518   1.984   9.854  0.5635 -0.0103  0.3388
  866MOL0     C16830   4.715   1.611   9.833 -0.0394 -0.6764  0.8684
  866MOL0     C16831   4.818   1.579   9.918 -1.0440  0.2342  0.4329
  866MOL0     C16832   4.850   1.448   9.946 -0.3266 -0.7222 -0.3474
  866MOL0     C16833   4.773   1.348   9.882 -0.5052  0.6846 -0.1356
  866MOL0     O16834   4.818   1.222   9.923  0.2342  0.2915  0.9282
  866MOL0     C16835   4.771   1.116   9.848 -0.1468  0.5397  1.5477
  866MOL0     C16836   4.844   1.097   9.713 -1.1971  0.1551  0.1770
  866MOL0     C16837   4.848   0.950   9.660 -0.2342  0.0682  0.1204
  866MOL0     C16838   4.929   0.957   9.533 -0.1853  1.0010 -0.2441
  866MOL0     C16839   4.913   0.831   9.453  0.2278 -0.3436 -0.2813
  866MOL0     C16840   4.890   0.734   9.379  0.8014  0.5078 -0.1661
  866MOL0     C16841   4.668   1.376   9.795 -0.5537 -0.4045  0.5941
  866MOL0     C16842   4.643   1.512   9.766  0.0404  0.5471  0.7293
  866MOL0     H16843   4.384   1.836   9.566 -0.7039 -1.4777  0.7528
  866MOL0     H16844   4.227   2.042   9.601 -1.1734  0.2390  1.5745
  866MOL0     H16845   4.243   2.296   9.941 -1.6473  0.7867  0.7486
  866MOL0     H16846   4.367   2.370   9.844  0.2184 -0.0001  2.0424
  866MOL0     H16847   4.199   2.535   9.886  0.4351 -1.4847  1.3393
  866MOL0     H16848   4.179   2.491   9.713 -3.6933 -2.1791 -1.7200
  866MOL0     H16849   3.993   2.381   9.726  2.6895  1.4931 -1.0668
  866MOL0     H16850   4.010   2.345   9.902  2.6602 -0.7942  0.4060
  866MOL0     H16851   3.977   2.584   9.955  1.5698 -1.8166 -0.1088
  866MOL0     H16852   3.983   2.631   9.789 -0.5272 -0.5331 -1.1564
  866MOL0     H16853   3.775   2.457   9.939 -0.4979  0.5439  0.7555
  866MOL0     H16854   3.744   2.626   9.917 -2.9846 -2.1482  0.1639
  866MOL0     H16855   3.750   2.575   9.655 -0.3079  0.9663  0.3918
  866MOL0     H16856   3.783   2.406   9.704  0.4224  0.1400 -0.5377
  866MOL0     H16857   3.551   2.430   9.639  1.0578  0.5470 -0.3057
  866MOL0     H16858   3.555   2.382   9.800 -1.8317 -0.0751 -1.2589
  866MOL0     H16859   3.539   2.686   9.729  1.5212  1.7664  4.6786
  866MOL0     H16860   3.528   2.603   9.882  2.2691 -0.2900 -0.3448
  866MOL0     H16861   3.277   2.426   9.883  1.1796  1.8096  0.4889
  866MOL0     H16862   2.934   2.509   9.700  1.1738 -1.8417 -2.2094
  866MOL0     H16863   3.012   2.354   9.739 -2.4416 -0.9185 -0.0831
  866MOL0     H16864   3.044   2.552   9.949 -1.1386  1.9747  2.0538
  866MOL0     H16865   2.968   2.395   9.968 -1.0523 -0.2510 -0.4401
  866MOL0     H16866   2.761   2.493   9.856  0.2775 -0.5119 -0.4899
  866MOL0     H16867   2.842   2.654   9.876 -3.5927  0.1442  0.7086
  866MOL0     H16868   2.719   2.656  10.066 -0.3578 -0.0700  0.7386
  866MOL0     H16869   2.872   2.598  10.117  1.4216 -0.3546 -0.5630
  866MOL0     H16870   2.545   2.352   9.936 -1.8876 -3.1190  1.6470
  866MOL0     H16871   2.355   2.280   9.849 -0.4110  1.2809 -1.2316
  866MOL0     H16872   2.212   2.282   9.946  0.4143 -0.2735  2.6865
  866MOL0     H16873   2.240   2.404   9.814 -0.2885 -1.8455 -1.0721
  866MOL0     H16874   2.044   2.852  10.030  0.4580 -2.5151 -0.8881
  866MOL0     H16875   1.870   2.978  10.034  2.6212 -0.5081 -0.2461
  866MOL0     H16876   1.658   3.110  10.110 -3.8578  3.8404 -3.2664
  866MOL0     H16877   1.602   2.995   9.984 -0.6222 -0.4031  0.4963
  866MOL0     H16878   1.455   3.109  10.200  3.7941 -0.9967  0.7811
  866MOL0     H16879   1.445   3.155  10.027 -1.9598 -1.3224 -0.2939
  866MOL0     H16880   1.357   2.881  10.122  1.7469  0.1307  0.6859
  866MOL0     H16881   1.377   2.932   9.953 -0.7538 -1.7193  0.6210
  866MOL0     H16882   1.194   3.072  10.124  2.4385  2.5001  0.0226
  866MOL0     H16883   1.216   3.083   9.947  1.6354 -1.9112 -1.0921
  866MOL0     H16884   1.080   2.878  10.102  2.1576 -0.7476  0.2833
  866MOL0     H16885   1.145   2.813   9.952  0.1758 -0.2953 -0.4331
  866MOL0     H16886   0.962   3.070   9.971  1.9800  0.1324  0.4464
  866MOL0     H16887   1.013   2.966   9.827  3.5399 -1.6233  0.1164
  866MOL0     H16888   0.901   2.778   9.933  3.6001  0.9936 -2.6084
  866MOL0     H16889   0.790   2.899   9.885 -1.1468 -4.0894  1.5626
  866MOL0     H16890   0.760   2.993  10.096  2.2838  1.4396  2.6526
  866MOL0     H16891   0.895   2.919  10.169  0.1917  2.9075 -0.6245
  866MOL0     H16892   1.674   2.711  10.311 -0.7181  5.2360  1.0473
  866MOL0     H16893   1.880   2.578  10.315  1.6928 -0.1957 -0.2247
  866MOL0     H16894   2.354   2.635  10.283  1.1114 -1.2995  1.1926
  866MOL0     H16895   2.582   2.580  10.283  1.5197  1.4115 -1.9084
  866MOL0     H16896   4.448   2.176   9.934  0.5859 -0.1809  0.7766
  866MOL0     H16897   4.590   1.975   9.935  0.1760 -0.3257  0.6525
  866MOL0     H16898   4.886   1.650   9.963  2.1747 -2.5575  0.4379
  866MOL0     H16899   4.926   1.429  10.021 -0.1230  1.4971  0.0810
  866MOL0     H16900   4.802   1.037   9.917 -1.8159  1.3978  3.3462
  866MOL0     H16901   4.663   1.115   9.832  0.2302  0.9098 -1.9945
  866MOL0     H16902   4.948   1.128   9.731 -1.2705 -0.3580  1.5554
  866MOL0     H16903   4.796   1.170   9.647 -3.2229  1.0256  2.4640
  866MOL0     H16904   4.748   0.907   9.647 -1.1530  1.8569  0.8108
  866MOL0     H16905   4.907   0.889   9.728 -0.5202 -0.1856  0.1420
  866MOL0     H16906   5.034   0.980   9.556 -0.6089  2.0331  0.7525
  866MOL0     H16907   4.885   1.035   9.471 -0.6797  0.0984 -1.0437
  866MOL0     H16908   4.860   0.648   9.322  0.8310  0.3770  0.0151
  866MOL0     H16909   4.609   1.300   9.744  0.5740 -1.6574  1.1075
  866MOL0     H16910   4.558   1.523   9.699 -1.2096 -2.4661  1.6703
  867MOL0     O16911   7.489   5.181   6.488 -0.1219  0.3789 -0.3350
  867MOL0     C16912   7.551   5.076   6.486  0.2679 -0.1614  0.0365
  867MOL0     O16913   7.539   4.979   6.577  0.0922 -0.6302 -0.1806
  867MOL0     C16914   7.478   4.991   6.698  0.8111 -0.6741 -0.3652
  867MOL0     C16915   7.372   4.907   6.727  0.1814  0.0053  1.0901
  867MOL0     C16916   7.308   4.898   6.845 -0.5239  0.0962  0.2602
  867MOL0     C16917   7.349   4.986   6.943 -0.5725 -0.2181  0.0580
  867MOL0     O16918   7.294   4.975   7.070  0.0462  0.0666 -0.5680
  867MOL0     C16919   7.252   5.102   7.132 -0.5194 -0.0055  0.1925
  867MOL0     C16920   7.153   5.188   7.053 -0.1504  0.2539 -0.6239
  867MOL0     C16921   7.018   5.121   7.063  0.0589  0.6628 -0.2392
  867MOL0     C16922   6.926   5.198   7.153  0.9868 -0.7778  0.0747
  867MOL0     C16923   6.782   5.144   7.136 -0.0791  0.0818  0.0029
  867MOL0     C16924   6.699   5.182   7.259  1.0029 -0.1485  0.0250
  867MOL0     C16925   6.549   5.169   7.242  0.0569  0.0346  0.3486
  867MOL0     C16926   6.467   5.279   7.303 -0.6774 -0.7420  0.3902
  867MOL0     N16927   6.332   5.234   7.334 -0.2773  0.3757  0.4415
  867MOL0     C16928   6.223   5.230   7.249  0.7987  0.6391 -0.2359
  867MOL0     C16929   6.158   5.114   7.295 -0.5644  0.1191 -0.2164
  867MOL0     C16930   6.023   5.084   7.257  0.7857 -0.5662 -0.3628
  867MOL0     C16931   5.913   5.163   7.334  0.6591 -0.0245  0.2126
  867MOL0     C16932   5.910   5.314   7.328  0.3784  0.3433  0.0790
  867MOL0     C16933   5.795   5.374   7.413 -0.6818 -0.6353  0.5595
  867MOL0     O16934   5.687   5.378   7.322  0.5134 -0.3997  0.2580
  867MOL0     C16935   5.582   5.451   7.356  0.8742  0.7162  0.0560
  867MOL0     C16936   5.497   5.387   7.446 -0.5479  0.1792  0.0437
  867MOL0     C16937   5.371   5.437   7.480 -0.8089 -0.0155 -0.2160
  867MOL0     C16938   5.287   5.356   7.569  0.7531  0.7070  0.2338
  867MOL0     C16939   5.320   5.553   7.414  0.0320 -0.8931 -0.0581
  867MOL0     C16940   5.184   5.615   7.426 -0.9222 -0.1068 -0.0988
  867MOL0     O16941   5.135   5.679   7.316 -0.2424 -0.4629  0.3782
  867MOL0     C16942   5.005   5.724   7.333 -1.3931 -0.4169 -0.3868
  867MOL0     C16943   4.900   5.641   7.315 -0.7060 -0.2617 -0.2365
  867MOL0     C16944   4.767   5.686   7.313  0.4386 -0.6909  0.0234
  867MOL0     C16945   4.732   5.819   7.311 -0.9185  0.2082  0.1644
  867MOL0     O16946   4.597   5.848   7.321  0.3592  0.4883 -0.3265
  867MOL0     C16947   4.559   5.986   7.288  0.1817  0.8444  0.4686
  867MOL0     C16948   4.418   5.991   7.232 -0.3516  0.3574  0.6299
  867MOL0     C16949   4.320   5.965   7.349  0.4028 -0.2709 -0.1177
  867MOL0     C16950   4.177   5.985   7.306 -0.4917  0.2043 -0.6310
  867MOL0     C16951   4.079   6.004   7.416  1.5875  0.6196 -0.3441
  867MOL0     C16952   3.944   6.026   7.354 -0.3869 -0.1672  0.1657
  867MOL0     C16953   3.869   5.904   7.303 -1.2963 -0.7157 -0.1138
  867MOL0     C16954   3.738   5.942   7.245 -0.0029  0.3779 -0.7746
  867MOL0    Cl16955   3.638   5.802   7.181  0.0234 -0.0935 -0.0829
  867MOL0     C16956   4.841   5.909   7.338  0.6464  0.3465  0.0563
  867MOL0     C16957   4.981   5.869   7.344  0.0156  0.1684  0.0055
  867MOL0     O16958   5.124   5.603   7.533  0.2738 -0.3094 -0.3135
  867MOL0     C16959   5.407   5.621   7.327 -0.4001 -0.3067  0.4688
  867MOL0     C16960   5.530   5.572   7.298  0.3664  0.6628  0.1990
  867MOL0     N16961   6.232   5.063   7.408 -0.3570  0.6763  0.5953
  867MOL0     N16962   6.324   5.149   7.442  0.8373  0.3584  0.2852
  867MOL0     C16963   7.463   5.066   6.915  0.5362  0.3361  0.2467
  867MOL0     C16964   7.534   5.064   6.794  0.1559 -0.0094  0.6572
  867MOL0     C16965   7.635   5.035   6.374  0.3133  0.0272 -0.2495
  867MOL0     C16966   7.706   4.918   6.371  0.8778  0.2110 -0.1012
  867MOL0     C16967   7.779   4.872   6.258 -0.0180  0.9442 -0.6144
  867MOL0     C16968   7.780   4.953   6.145  0.6048  0.3339 -0.4660
  867MOL0     O16969   7.835   4.918   6.026  0.1720 -1.1848 -0.8089
  867MOL0     C16970   7.761   4.812   5.962 -0.3944  0.4838  0.1248
  867MOL0     C16971   7.798   4.807   5.815  1.1264 -0.4636  0.5575
  867MOL0     C16972   7.697   4.896   5.731  0.2312 -0.3508 -0.8508
  867MOL0     C16973   7.771   5.023   5.701 -0.1095 -0.3009  0.0510
  867MOL0     C16974   7.707   5.088   5.588 -0.2247  0.7580  0.2691
  867MOL0     C16975   7.654   5.143   5.497 -0.1917 -0.4263  0.1423
  867MOL0     C16976   7.713   5.072   6.146  0.6389  0.4522 -0.7873
  867MOL0     C16977   7.641   5.110   6.257 -0.5394  0.1749 -0.3740
  867MOL0     H16978   7.332   4.839   6.652  0.6152  0.1921  0.6767
  867MOL0     H16979   7.219   4.838   6.858  0.1669 -1.5249 -1.8539
  867MOL0     H16980   7.201   5.078   7.225 -0.8651  0.3021  0.0822
  867MOL0     H16981   7.337   5.169   7.151 -1.3757  0.4759  2.7210
  867MOL0     H16982   7.154   5.286   7.101  0.2220  0.0272 -0.1507
  867MOL0     H16983   7.187   5.204   6.951  2.1261 -0.7770 -0.0978
  867MOL0     H16984   6.980   5.109   6.962  0.1512 -0.4583 -0.1558
  867MOL0     H16985   7.035   5.015   7.082  2.5956  0.9140 -0.7063
  867MOL0     H16986   6.966   5.182   7.254  0.2782 -2.7577  0.0815
  867MOL0     H16987   6.931   5.305   7.128 -2.9759 -0.6936 -1.0325
  867MOL0     H16988   6.734   5.188   7.048 -0.5509 -0.9073 -0.2474
  867MOL0     H16989   6.792   5.037   7.118  2.9927 -0.2093  2.4897
  867MOL0     H16990   6.732   5.117   7.341 -2.5548  1.9087  3.4657
  867MOL0     H16991   6.718   5.287   7.285  1.7997  0.0707 -1.3680
  867MOL0     H16992   6.535   5.167   7.134 -3.0746  1.7246  0.6157
  867MOL0     H16993   6.508   5.072   7.272 -2.4090  1.0971  0.6556
  867MOL0     H16994   6.447   5.358   7.230  2.1246  0.5440  0.8723
  867MOL0     H16995   6.524   5.322   7.385  3.3333  0.2302 -2.5738
  867MOL0     H16996   6.188   5.303   7.177  1.2811  0.5570 -0.5586
  867MOL0     H16997   5.998   5.117   7.156  0.9501  0.2492 -0.1482
  867MOL0     H16998   5.998   4.977   7.257 -1.2517 -0.1185 -1.2295
  867MOL0     H16999   5.924   5.138   7.440  0.4148 -0.2811  0.1787
  867MOL0     H17000   5.820   5.118   7.297 -0.3912  0.0094  2.5868
  867MOL0     H17001   5.919   5.351   7.226  2.0701 -0.7790 -0.2299
  867MOL0     H17002   6.001   5.346   7.380 -0.1009  0.9763  0.5452
  867MOL0     H17003   5.814   5.478   7.442  1.2383  0.2382 -3.2565
  867MOL0     H17004   5.774   5.313   7.501 -0.5732 -3.2856 -1.1522
  867MOL0     H17005   5.533   5.292   7.484 -0.3697 -1.7231 -4.3634
  867MOL0     H17006   5.186   5.345   7.529  0.1849 -0.3343  1.8680
  867MOL0     H17007   5.323   5.253   7.583  1.0064  0.7599 -0.0116
  867MOL0     H17008   5.275   5.420   7.656 -2.3391  0.7668 -0.1367
  867MOL0     H17009   4.927   5.537   7.324 -1.0646 -0.3372 -0.0140
  867MOL0     H17010   4.685   5.620   7.286  0.2475  0.4517 -2.5119
  867MOL0     H17011   4.553   6.054   7.373 -2.1695  1.7952 -0.3726
  867MOL0     H17012   4.625   6.032   7.214 -1.7076  0.8072 -1.3533
  867MOL0     H17013   4.399   6.076   7.166  0.5031  0.2663  0.2500
  867MOL0     H17014   4.402   5.915   7.154  0.1821  2.0368 -1.2163
  867MOL0     H17015   4.334   6.044   7.423 -3.1664  0.8841 -0.4665
  867MOL0     H17016   4.331   5.865   7.392 -3.5550 -1.6341 -1.8648
  867MOL0     H17017   4.165   6.078   7.249 -0.0819 -0.6594 -2.1839
  867MOL0     H17018   4.151   5.905   7.236 -0.7636  1.3237 -1.8429
  867MOL0     H17019   4.117   6.092   7.468 -1.1647  2.4295 -1.1626
  867MOL0     H17020   4.092   5.921   7.485  1.6209 -1.3772 -2.6071
  867MOL0     H17021   3.866   6.064   7.421 -1.6505  3.3448 -2.9307
  867MOL0     H17022   3.955   6.099   7.273  0.8950 -0.5584 -0.0314
  867MOL0     H17023   3.859   5.826   7.380 -0.6291  0.2733  1.0113
  867MOL0     H17024   3.928   5.855   7.225  0.7404 -0.6854  1.3214
  867MOL0     H17025   3.754   6.008   7.159  1.8461  0.6460 -0.2843
  867MOL0     H17026   3.680   6.001   7.317 -3.7215 -1.1010 -2.3527
  867MOL0     H17027   4.805   6.009   7.361 -0.7906 -0.5127  1.8577
  867MOL0     H17028   5.066   5.936   7.346  2.1132 -2.3606 -0.1376
  867MOL0     H17029   5.391   5.716   7.278  1.9657 -1.2753 -2.5410
  867MOL0     H17030   5.584   5.622   7.218 -1.7589  0.2540 -1.5762
  867MOL0     H17031   7.499   5.132   6.994 -1.5014  1.2692  0.4624
  867MOL0     H17032   7.629   5.117   6.785  1.0183 -1.8202 -2.9084
  867MOL0     H17033   7.703   4.854   6.458 -0.3386  1.1931  0.6119
  867MOL0     H17034   7.824   4.774   6.259  0.6511  1.2313 -1.5353
  867MOL0     H17035   7.802   4.718   6.000  0.6519  0.4897 -0.9194
  867MOL0     H17036   7.652   4.817   5.963 -0.5439 -1.6711 -0.6274
  867MOL0     H17037   7.784   4.705   5.777  0.2046 -1.1563  2.6226
  867MOL0     H17038   7.903   4.828   5.795  0.9297 -0.1244 -0.1610
  867MOL0     H17039   7.601   4.913   5.780  1.0800 -0.2007  0.8440
  867MOL0     H17040   7.670   4.841   5.640 -2.6507 -1.5454  0.6004
  867MOL0     H17041   7.875   5.003   5.671  1.1107 -1.6251  4.3787
  867MOL0     H17042   7.788   5.091   5.786 -1.1003 -1.5626  1.3051
  867MOL0     H17043   7.580   5.184   5.433 -1.0566  0.2853  1.5554
  867MOL0     H17044   7.719   5.137   6.059 -0.2396  1.6530 -0.0051
  867MOL0     H17045   7.577   5.198   6.258 -1.8334 -0.7250 -0.7576
  868MOL0     O17046   4.473   8.920   3.252  0.0991 -0.3231  0.2841
  868MOL0     C17047   4.485   8.866   3.362  0.0200 -0.0919 -0.6171
  868MOL0     O17048   4.387   8.855   3.453 -0.5885 -0.2004 -0.1003
  868MOL0     C17049   4.267   8.909   3.432  0.5456  0.5592 -0.7370
  868MOL0     C17050   4.196   8.918   3.308 -0.5754  0.2470 -0.0304
  868MOL0     C17051   4.066   8.970   3.310 -0.4720  0.5954 -0.4239
  868MOL0     C17052   4.006   9.023   3.419 -0.3328 -0.2541  0.0012
  868MOL0     O17053   3.880   9.068   3.399 -0.5773 -0.3386 -0.1371
  868MOL0     C17054   3.786   9.004   3.490 -0.0405 -0.8179  0.2408
  868MOL0     C17055   3.652   9.077   3.492  0.0578 -0.5446  0.1373
  868MOL0     C17056   3.606   9.138   3.354 -0.3640  0.8198  0.0453
  868MOL0     C17057   3.462   9.198   3.366 -0.1681 -0.8397  0.5427
  868MOL0     C17058   3.405   9.256   3.242  0.9157 -0.0139 -0.0247
  868MOL0     C17059   3.264   9.319   3.256  0.0235  0.0134 -0.4089
  868MOL0     C17060   3.256   9.432   3.356  1.5183  0.3166 -0.6376
  868MOL0     C17061   3.109   9.475   3.377 -0.2140  0.5081 -0.3664
  868MOL0     N17062   3.028   9.531   3.268  0.6207  0.1769 -0.2117
  868MOL0     C17063   2.908   9.478   3.225  0.6799  0.8586 -0.4513
  868MOL0     C17064   2.889   9.547   3.112 -0.2104 -0.7926  0.4431
  868MOL0     C17065   2.777   9.525   3.004 -0.8311 -0.0645  1.2195
  868MOL0     C17066   2.674   9.637   2.999 -0.9335  0.3422  0.1202
  868MOL0     C17067   2.579   9.611   2.892  0.5258 -0.8777  0.5764
  868MOL0     C17068   2.490   9.735   2.861 -0.1754 -0.2064  0.1512
  868MOL0     O17069   2.393   9.708   2.760 -0.4581  0.3651  0.3671
  868MOL0     C17070   2.416   9.733   2.619 -1.0544  0.2801 -0.1939
  868MOL0     C17071   2.509   9.829   2.572  0.1430  0.7250  0.1129
  868MOL0     C17072   2.526   9.855   2.439 -0.3333  0.5207  0.7025
  868MOL0     C17073   2.626   9.969   2.402  0.2341 -0.1973  0.3279
  868MOL0     C17074   2.449   9.786   2.340  0.3003  0.5654 -0.5848
  868MOL0     C17075   2.427   9.819   2.191  0.1749 -0.1421  0.0873
  868MOL0     O17076   2.347   9.733   2.115  0.3652 -0.0712 -0.5873
  868MOL0     C17077   2.322   9.781   1.991  1.0014 -0.3441 -0.4335
  868MOL0     C17078   2.426   9.808   1.903 -0.1327 -0.2927 -0.4379
  868MOL0     C17079   2.410   9.873   1.781 -0.1582 -0.3240 -0.0146
  868MOL0     C17080   2.287   9.929   1.756  0.3812  0.3380  1.3437
  868MOL0     O17081   2.256  10.004   1.644  0.5925 -0.1138 -0.0008
  868MOL0     C17082   2.354  10.041   1.545 -0.2307 -0.1435 -0.3899
  868MOL0     C17083   2.280  10.131   1.447  0.5451 -0.5610 -0.2161
  868MOL0     C17084   2.356  10.172   1.321  0.1029 -0.0928  0.0716
  868MOL0     C17085   2.259  10.250   1.219  0.5701  0.5773  0.8028
  868MOL0     C17086   2.266  10.402   1.235 -0.6254 -0.8883 -0.7759
  868MOL0     C17087   2.171  10.464   1.130  0.7798  0.0471  0.2152
  868MOL0     C17088   2.174  10.623   1.125  0.5020 -0.1418 -0.8686
  868MOL0     C17089   2.312  10.673   1.078  0.1012 -0.0160  0.5620
  868MOL0    Cl17090   2.347  10.613   0.910 -0.2660 -0.0840 -0.1275
  868MOL0     C17091   2.180   9.910   1.838 -0.5551 -0.3310  0.6190
  868MOL0     C17092   2.196   9.828   1.951  1.0521 -0.3064  0.0527
  868MOL0     O17093   2.464   9.925   2.152 -0.0958  0.1931  0.4993
  868MOL0     C17094   2.365   9.687   2.394  0.2493  0.1292  0.1897
  868MOL0     C17095   2.337   9.668   2.525  0.2310 -0.3825  0.0400
  868MOL0     N17096   2.972   9.656   3.109  0.0432  0.7509  0.3044
  868MOL0     N17097   3.058   9.642   3.200 -0.1271 -0.0794  0.1385
  868MOL0     C17098   4.078   9.026   3.540 -0.8132 -0.3803 -0.4547
  868MOL0     C17099   4.217   8.973   3.551  0.3115  0.4076 -0.5562
  868MOL0     C17100   4.616   8.803   3.411  0.6434 -0.1985  0.5581
  868MOL0     C17101   4.634   8.754   3.540 -0.4028 -0.2211  0.6909
  868MOL0     C17102   4.751   8.679   3.565  0.4498  0.4923 -1.0805
  868MOL0     C17103   4.847   8.666   3.464  1.1833 -0.0869 -0.4084
  868MOL0     O17104   4.966   8.610   3.511 -0.9473  0.2986  0.7851
  868MOL0     C17105   5.078   8.699   3.495  0.9582  1.0726 -0.8166
  868MOL0     C17106   5.152   8.692   3.623 -0.1543  0.0948  0.7563
  868MOL0     C17107   5.220   8.550   3.650 -0.1075  0.7807  0.3064
  868MOL0     C17108   5.264   8.541   3.795 -0.0125  1.2305  0.0005
  868MOL0     C17109   5.310   8.406   3.818 -1.9274 -0.5386 -0.3168
  868MOL0     C17110   5.358   8.297   3.842 -0.4913 -0.1314  0.5717
  868MOL0     C17111   4.830   8.716   3.335  0.0367  0.5425 -0.2922
  868MOL0     C17112   4.708   8.782   3.304  0.6694  0.3901  0.0416
  868MOL0     H17113   4.236   8.881   3.214 -1.6311 -1.2297  0.0705
  868MOL0     H17114   4.008   8.992   3.221 -0.9646  3.1956  0.4583
  868MOL0     H17115   3.769   8.901   3.455 -2.0601 -2.0176  4.2157
  868MOL0     H17116   3.819   8.989   3.593  0.6641  0.1840  0.1741
  868MOL0     H17117   3.580   9.004   3.531  1.0248 -2.2225 -1.0716
  868MOL0     H17118   3.678   9.163   3.554 -0.7950  2.1849 -3.0302
  868MOL0     H17119   3.678   9.214   3.323  1.7350 -1.2556 -0.4027
  868MOL0     H17120   3.620   9.074   3.266  1.0011 -1.4612  1.8066
  868MOL0     H17121   3.389   9.123   3.396 -1.0019 -0.5210 -0.6300
  868MOL0     H17122   3.478   9.278   3.439  4.5978 -1.6611  0.6918
  868MOL0     H17123   3.473   9.331   3.201 -0.3886  0.9168 -0.5475
  868MOL0     H17124   3.400   9.182   3.161 -4.7342  1.8558 -1.8555
  868MOL0     H17125   3.217   9.360   3.166 -2.7754  0.0796  0.9701
  868MOL0     H17126   3.198   9.236   3.285  0.2457 -0.0234  0.0085
  868MOL0     H17127   3.296   9.395   3.451 -0.1799  4.4720  1.9834
  868MOL0     H17128   3.313   9.519   3.321 -3.0196  2.7439 -2.9178
  868MOL0     H17129   3.112   9.552   3.454  0.7589  1.4653 -1.3348
  868MOL0     H17130   3.058   9.385   3.413  1.8751 -1.7647 -2.6756
  868MOL0     H17131   2.855   9.390   3.261  0.2703  1.8827  1.6450
  868MOL0     H17132   2.827   9.524   2.907 -0.3459 -0.1549  1.4703
  868MOL0     H17133   2.731   9.427   3.018  3.9946 -2.9950 -0.9334
  868MOL0     H17134   2.725   9.730   2.974  1.2042 -1.1549 -1.3902
  868MOL0     H17135   2.617   9.643   3.092 -3.9950 -0.4826 -1.5673
  868MOL0     H17136   2.517   9.522   2.906  2.5410 -2.4987 -0.2973
  868MOL0     H17137   2.629   9.583   2.799 -1.4174 -1.6152 -0.2977
  868MOL0     H17138   2.536   9.833   2.846 -2.4343  0.9744  0.5761
  868MOL0     H17139   2.428   9.752   2.949 -1.9500  2.1949 -1.4556
  868MOL0     H17140   2.566   9.882   2.647 -0.4505  0.7837  0.5261
  868MOL0     H17141   2.571  10.062   2.417  1.8745  1.1886 -1.6642
  868MOL0     H17142   2.701   9.972   2.481 -1.4066  4.0771  2.0396
  868MOL0     H17143   2.664   9.959   2.300  0.0731 -3.2402  0.4706
  868MOL0     H17144   2.529   9.786   1.928 -0.4316  0.0110  1.1465
  868MOL0     H17145   2.500   9.902   1.727 -0.2684 -0.1025 -0.0813
  868MOL0     H17146   2.446  10.084   1.585  0.3387 -1.4008 -0.2842
  868MOL0     H17147   2.378   9.954   1.484 -1.8602 -0.1029 -1.1455
  868MOL0     H17148   2.195  10.069   1.415 -1.6436  1.9591  0.4006
  868MOL0     H17149   2.244  10.220   1.499  0.5555 -0.1920 -0.8333
  868MOL0     H17150   2.404  10.092   1.265 -0.8910 -0.0497 -0.8851
  868MOL0     H17151   2.433  10.241   1.354 -0.4890  1.3527 -1.3919
  868MOL0     H17152   2.284  10.224   1.116  1.0179  1.5177  0.6696
  868MOL0     H17153   2.151  10.233   1.226  0.3525  1.6604  0.2914
  868MOL0     H17154   2.368  10.440   1.245 -1.7716  2.2390  0.5511
  868MOL0     H17155   2.232  10.436   1.333 -0.3654 -2.5034 -0.0940
  868MOL0     H17156   2.199  10.427   1.032 -1.6867  1.1043 -0.9927
  868MOL0     H17157   2.065  10.438   1.131  0.9041 -0.9287 -2.8514
  868MOL0     H17158   2.155  10.657   1.227  0.5621 -1.7613 -0.2953
  868MOL0     H17159   2.098  10.658   1.054  1.1307  0.3578 -1.3093
  868MOL0     H17160   2.395  10.641   1.141  0.6951 -1.8392 -1.0202
  868MOL0     H17161   2.300  10.781   1.087 -1.5802 -0.3161  2.4941
  868MOL0     H17162   2.088   9.963   1.816  0.5071  0.7896 -1.3545
  868MOL0     H17163   2.114   9.832   2.021 -0.1884 -2.2118 -1.2021
  868MOL0     H17164   2.310   9.637   2.315 -2.9029  4.2506 -0.5447
  868MOL0     H17165   2.256   9.604   2.559  2.3583 -3.1798  0.2339
  868MOL0     H17166   4.039   9.086   3.622  0.0325  0.2918 -0.5314
  868MOL0     H17167   4.257   8.979   3.652 -2.7734  0.6194  0.7662
  868MOL0     H17168   4.568   8.775   3.624  2.1476  2.1632  2.2749
  868MOL0     H17169   4.764   8.641   3.666  1.8184  0.8816 -1.0808
  868MOL0     H17170   5.145   8.666   3.415 -1.3276  0.5056 -2.6120
  868MOL0     H17171   5.043   8.800   3.476 -2.5269 -0.1600 -1.8229
  868MOL0     H17172   5.100   8.722   3.714  1.2429  0.7656  1.3704
  868MOL0     H17173   5.228   8.771   3.611  0.2577 -0.4697 -0.6276
  868MOL0     H17174   5.311   8.529   3.592 -0.7765  3.8835 -2.1447
  868MOL0     H17175   5.141   8.475   3.636  1.7834 -2.0556  3.2883
  868MOL0     H17176   5.176   8.559   3.858  0.2217 -0.1767  0.7750
  868MOL0     H17177   5.351   8.603   3.818  1.5083 -0.1392 -1.8011
  868MOL0     H17178   5.395   8.200   3.869 -1.6667 -0.7037  0.1684
  868MOL0     H17179   4.902   8.694   3.257  0.1850 -2.6917  0.6290
  868MOL0     H17180   4.694   8.806   3.200  1.6375  2.2135  0.2896
  869MOL0     O17181   2.926   0.196   4.865 -0.0077  0.8850 -0.0086
  869MOL0     C17182   2.946   0.082   4.824 -0.1896 -0.8945  0.7605
  869MOL0     O17183   2.873   0.012   4.725  0.2983  0.0350  0.0906
  869MOL0     C17184   2.762   0.071   4.668  0.0175 -0.2331 -0.2738
  869MOL0     C17185   2.751   0.204   4.616 -0.7806  0.2653 -1.0581
  869MOL0     C17186   2.650   0.251   4.539  0.7152 -0.8325  0.2621
  869MOL0     C17187   2.546   0.166   4.510 -0.3207  0.3292  0.8299
  869MOL0     O17188   2.451   0.199   4.421 -0.1776 -0.7406 -0.5660
  869MOL0     C17189   2.401   0.333   4.426  0.1068 -0.1608  0.3124
  869MOL0     C17190   2.277   0.338   4.338 -0.4341 -0.9467 -0.1488
  869MOL0     C17191   2.166   0.270   4.406 -0.3102  0.2514 -0.3666
  869MOL0     C17192   2.052   0.261   4.307  0.3362  0.8733 -0.5036
  869MOL0     C17193   1.926   0.190   4.376 -0.7294  1.2890 -0.3134
  869MOL0     C17194   1.820   0.163   4.273  1.0631  0.4304  1.3106
  869MOL0     C17195   1.823   0.033   4.186  0.5594  0.7052  0.7939
  869MOL0     C17196   1.772  -0.099   4.263 -0.2551 -0.3570 -0.9884
  869MOL0     N17197   1.626  -0.103   4.264  0.3079 -0.1452  0.3039
  869MOL0     C17198   1.545  -0.139   4.156  0.3429  0.6240 -1.4407
  869MOL0     C17199   1.426  -0.132   4.213 -0.3522  1.2115  0.0693
  869MOL0     C17200   1.301  -0.177   4.136 -0.4663 -0.2745  0.2091
  869MOL0     C17201   1.213  -0.273   4.213  0.1185 -0.1269 -0.2429
  869MOL0     C17202   1.131  -0.218   4.335  0.1475 -0.2834  0.8866
  869MOL0     C17203   1.008  -0.314   4.356  0.0947 -0.4560 -0.8271
  869MOL0     O17204   0.920  -0.260   4.452 -0.0556  0.1782 -0.3658
  869MOL0     C17205   0.950  -0.264   4.585  0.1726 -0.0715  0.2580
  869MOL0     C17206   1.068  -0.313   4.638  0.3860 -0.5070 -0.2483
  869MOL0     C17207   1.089  -0.333   4.776 -0.6155  0.0339  0.1280
  869MOL0     C17208   1.221  -0.406   4.810 -0.1612  0.0184 -0.5040
  869MOL0     C17209   0.990  -0.290   4.877  0.0685  0.6017 -1.0429
  869MOL0     C17210   0.996  -0.297   5.034 -0.8035 -0.0910  0.8346
  869MOL0     O17211   0.901  -0.243   5.106  0.5320  0.0489 -0.6896
  869MOL0     C17212   0.896  -0.234   5.241 -0.9592  0.1104 -0.1507
  869MOL0     C17213   1.001  -0.268   5.331 -0.0639 -1.1006 -0.0136
  869MOL0     C17214   0.981  -0.264   5.469 -0.1213  0.0753 -0.1748
  869MOL0     C17215   0.850  -0.241   5.519 -0.1067  0.1565 -0.5254
  869MOL0     O17216   0.834  -0.264   5.654  0.1051  0.4397  0.4119
  869MOL0     C17217   0.746  -0.163   5.719  0.5620 -0.5406  1.2770
  869MOL0     C17218   0.763  -0.172   5.871  1.1303 -0.3854  0.2942
  869MOL0     C17219   0.692  -0.293   5.937  0.3005  0.1279 -0.2864
  869MOL0     C17220   0.699  -0.270   6.092 -0.1921  0.1949 -0.2353
  869MOL0     C17221   0.662  -0.392   6.170  0.4889 -0.5482 -0.1317
  869MOL0     C17222   0.516  -0.434   6.150  0.1677  0.0016 -0.4979
  869MOL0     C17223   0.412  -0.326   6.194  0.3979 -0.7885 -0.2125
  869MOL0     C17224   0.268  -0.388   6.213 -0.3996 -0.0045  0.4124
  869MOL0    Cl17225   0.256  -0.493   6.362 -0.1174 -0.0461  0.4366
  869MOL0     C17226   0.752  -0.203   5.430  0.0768 -0.7529 -0.6743
  869MOL0     C17227   0.768  -0.204   5.291 -0.3353 -0.2597  0.1594
  869MOL0     O17228   1.083  -0.370   5.077 -0.1997 -0.4303 -0.0085
  869MOL0     C17229   0.875  -0.234   4.815 -0.0727 -0.6063 -0.7113
  869MOL0     C17230   0.851  -0.223   4.679  0.2977 -0.3177  0.7141
  869MOL0     N17231   1.431  -0.088   4.344  0.1833 -0.5505 -0.4523
  869MOL0     N17232   1.550  -0.073   4.374 -0.1955 -0.6563 -0.6341
  869MOL0     C17233   2.554   0.032   4.557  0.1735 -0.2928 -0.4928
  869MOL0     C17234   2.652  -0.005   4.641  0.4407  0.3651  0.0908
  869MOL0     C17235   3.066   0.017   4.871 -0.7207 -0.3123  0.3982
  869MOL0     C17236   3.128  -0.073   4.786  0.1434  0.3248  0.8852
  869MOL0     C17237   3.258  -0.125   4.796 -0.4241 -0.4891  0.2919
  869MOL0     C17238   3.330  -0.089   4.913 -0.3161 -1.2340  0.9362
  869MOL0     O17239   3.460  -0.128   4.933 -0.3462  0.0779  0.0217
  869MOL0     C17240   3.500  -0.256   4.878  0.5581 -0.4213  0.0617
  869MOL0     C17241   3.636  -0.309   4.932 -0.2923 -0.5482 -0.2878
  869MOL0     C17242   3.750  -0.207   4.927  0.3446 -0.1488  0.0234
  869MOL0     C17243   3.791  -0.143   5.063  0.1846  0.1420 -0.6896
  869MOL0     C17244   3.881  -0.213   5.161 -0.2644 -0.6035 -0.6882
  869MOL0     C17245   3.955  -0.260   5.239 -0.9420  1.2165  0.1887
  869MOL0     C17246   3.270   0.001   5.003 -0.7049 -0.1312 -0.6095
  869MOL0     C17247   3.147   0.057   4.979  0.1989 -0.5061  0.3424
  869MOL0     H17248   2.839   0.266   4.630 -0.3472 -0.5500 -0.1227
  869MOL0     H17249   2.651   0.353   4.502  3.3191 -1.5219 -1.8375
  869MOL0     H17250   2.383   0.363   4.530  3.1429  1.3291  0.5336
  869MOL0     H17251   2.471   0.400   4.374 -0.7190  0.6366  0.1953
  869MOL0     H17252   2.252   0.440   4.307  2.4113  0.3289  1.3547
  869MOL0     H17253   2.310   0.271   4.259 -0.5987 -2.6676  1.1805
  869MOL0     H17254   2.190   0.164   4.424 -1.2598 -0.1020 -1.0782
  869MOL0     H17255   2.143   0.325   4.497  1.6967  1.2899 -0.4251
  869MOL0     H17256   2.010   0.359   4.282 -2.1952  0.1513  0.5305
  869MOL0     H17257   2.080   0.207   4.216 -0.1927  1.9596 -1.3453
  869MOL0     H17258   1.948   0.098   4.432  1.4943  0.7087 -1.9909
  869MOL0     H17259   1.878   0.258   4.447 -1.2018  0.1467  0.4937
  869MOL0     H17260   1.721   0.157   4.319  0.7485 -1.2193  0.5153
  869MOL0     H17261   1.819   0.243   4.199 -3.6687 -1.6559 -1.3589
  869MOL0     H17262   1.770   0.045   4.092 -1.6030 -2.9493  1.3234
  869MOL0     H17263   1.927   0.005   4.165 -0.6248 -2.3366 -1.8798
  869MOL0     H17264   1.809  -0.109   4.365  1.9905 -0.5268 -1.7802
  869MOL0     H17265   1.805  -0.188   4.210 -0.7087 -0.4556 -1.1134
  869MOL0     H17266   1.570  -0.168   4.055 -0.4008 -2.0330 -0.9327
  869MOL0     H17267   1.230  -0.099   4.108 -3.5739 -2.3117  1.7614
  869MOL0     H17268   1.320  -0.235   4.045 -2.3895 -0.6523 -0.0102
  869MOL0     H17269   1.273  -0.354   4.253  1.7530  1.0874 -0.1372
  869MOL0     H17270   1.140  -0.318   4.146 -2.7464 -0.2387  2.6819
  869MOL0     H17271   1.097  -0.119   4.303  1.6047  0.2737  0.9854
  869MOL0     H17272   1.193  -0.210   4.425 -0.3118 -0.4580  1.2281
  869MOL0     H17273   1.045  -0.414   4.383 -1.3613 -0.7457  0.2375
  869MOL0     H17274   0.960  -0.322   4.258  1.0876  3.9080 -1.8663
  869MOL0     H17275   1.143  -0.351   4.570 -0.0113  3.3394 -3.2030
  869MOL0     H17276   1.248  -0.360   4.906 -2.1747 -2.5495  1.4567
  869MOL0     H17277   1.207  -0.514   4.821 -1.0878  0.1050 -0.7657
  869MOL0     H17278   1.301  -0.380   4.740  1.6854  0.4272  1.6282
  869MOL0     H17279   1.097  -0.280   5.281 -0.6599  0.9879 -1.8225
  869MOL0     H17280   1.064  -0.290   5.534 -0.7316  0.8819  0.9615
  869MOL0     H17281   0.774  -0.060   5.696 -5.0301  1.0940  0.2150
  869MOL0     H17282   0.641  -0.181   5.695  0.5666 -1.7014  2.0229
  869MOL0     H17283   0.870  -0.183   5.891  1.6365 -0.4262 -2.0912
  869MOL0     H17284   0.728  -0.079   5.916 -1.6596 -1.8181  1.3121
  869MOL0     H17285   0.736  -0.388   5.904  0.6366 -0.6399  2.1566
  869MOL0     H17286   0.584  -0.293   5.923  0.0572 -2.5046  0.9400
  869MOL0     H17287   0.803  -0.242   6.108 -0.1204  1.1046 -2.0065
  869MOL0     H17288   0.639  -0.184   6.122  2.2113  0.8340  3.1820
  869MOL0     H17289   0.680  -0.373   6.276  1.2688 -1.2075 -0.1322
  869MOL0     H17290   0.731  -0.473   6.142  0.6709 -0.1881 -0.7478
  869MOL0     H17291   0.489  -0.471   6.050  1.4234 -1.8657 -0.1876
  869MOL0     H17292   0.496  -0.519   6.216  0.6402  0.4033  0.1778
  869MOL0     H17293   0.401  -0.250   6.116  0.1154  0.6419  1.1752
  869MOL0     H17294   0.440  -0.281   6.290  1.1627 -1.9700  0.1513
  869MOL0     H17295   0.244  -0.450   6.126  0.6209  2.7197 -1.9706
  869MOL0     H17296   0.186  -0.316   6.210 -1.6418 -1.3854  0.1553
  869MOL0     H17297   0.655  -0.169   5.464  1.4562  4.1149 -0.8842
  869MOL0     H17298   0.682  -0.175   5.231  1.3171 -0.5818 -2.5254
  869MOL0     H17299   0.790  -0.206   4.877  0.0038 -1.2685 -0.2912
  869MOL0     H17300   0.756  -0.195   4.636 -0.1340 -1.9561  0.5650
  869MOL0     H17301   2.485  -0.047   4.531  0.9153 -2.1226  2.5890
  869MOL0     H17302   2.653  -0.109   4.674 -2.2416 -1.3058 -4.2807
  869MOL0     H17303   3.063  -0.106   4.706  2.6897 -0.8409 -0.8020
  869MOL0     H17304   3.302  -0.196   4.726  1.9844  0.7561  0.4433
  869MOL0     H17305   3.421  -0.328   4.899  1.0912 -0.1449  3.5004
  869MOL0     H17306   3.524  -0.238   4.773 -0.3239  0.9909  0.0785
  869MOL0     H17307   3.661  -0.387   4.858 -3.4392 -1.0965 -0.9294
  869MOL0     H17308   3.619  -0.348   5.032  0.9395 -2.1454 -0.6433
  869MOL0     H17309   3.722  -0.123   4.864 -0.1179  0.5744  1.1676
  869MOL0     H17310   3.836  -0.257   4.879  1.2166  3.1492 -2.1508
  869MOL0     H17311   3.702  -0.118   5.121  1.7113  2.4064  0.8707
  869MOL0     H17312   3.834  -0.042   5.054 -1.1296  0.6911 -1.1602
  869MOL0     H17313   4.005  -0.298   5.326  0.5595 -1.2505 -1.6040
  869MOL0     H17314   3.335   0.021   5.088  0.5371 -0.7006 -1.3959
  869MOL0     H17315   3.104   0.135   5.041 -0.9783  1.4964 -2.7651
  870MOL0     O17316   7.033   5.222   9.576 -0.2858  0.5191 -0.1304
  870MOL0     C17317   7.102   5.169   9.660  0.6602 -0.3908 -0.1540
  870MOL0     O17318   7.100   5.031   9.681  0.2555  0.4476  0.6363
  870MOL0     C17319   6.990   4.949   9.652 -0.5563 -0.1716 -0.1621
  870MOL0     C17320   6.869   5.009   9.609 -0.5534  0.7507 -0.5963
  870MOL0     C17321   6.760   4.926   9.589  0.0052  0.2940  0.3002
  870MOL0     C17322   6.765   4.787   9.614 -0.2576 -0.1675  0.2064
  870MOL0     O17323   6.656   4.699   9.584 -0.0362 -0.7407 -0.2825
  870MOL0     C17324   6.524   4.758   9.617  0.3609 -0.3242  0.0926
  870MOL0     C17325   6.422   4.642   9.613  0.7414 -0.6044  0.5558
  870MOL0     C17326   6.388   4.604   9.464  0.1236 -0.9303 -0.2008
  870MOL0     C17327   6.264   4.699   9.424  0.1296 -0.2324  0.4760
  870MOL0     C17328   6.259   4.708   9.267  0.7507 -0.2648 -0.5618
  870MOL0     C17329   6.244   4.573   9.196  0.3854  0.6639  1.1789
  870MOL0     C17330   6.261   4.588   9.043  0.0718 -0.5015 -0.1460
  870MOL0     C17331   6.394   4.637   8.986 -0.5460  0.4276  0.4906
  870MOL0     N17332   6.378   4.773   8.928 -0.0819 -0.2794  0.6614
  870MOL0     C17333   6.333   4.883   8.995 -0.1065  0.4135 -0.7278
  870MOL0     C17334   6.343   4.988   8.912 -0.1631  0.3942 -0.7662
  870MOL0     C17335   6.321   5.131   8.957 -0.4080 -0.5240 -0.2403
  870MOL0     C17336   6.176   5.153   9.035 -0.2809  0.2835  0.2637
  870MOL0     C17337   6.053   5.110   8.962 -0.1986  0.3526  0.2579
  870MOL0     C17338   5.914   5.133   9.038 -1.2365  0.4438 -0.4404
  870MOL0     O17339   5.816   5.135   8.933  0.2817  0.3118  0.5156
  870MOL0     C17340   5.694   5.069   8.954  0.1480 -0.2302  0.2030
  870MOL0     C17341   5.608   5.045   8.840  0.0039 -0.1570 -0.4892
  870MOL0     C17342   5.483   4.985   8.850 -0.3932 -0.0137 -0.3843
  870MOL0     C17343   5.387   4.985   8.723  0.7885 -0.0216  0.3489
  870MOL0     C17344   5.437   4.948   8.978  0.0693 -0.4284  0.1787
  870MOL0     C17345   5.312   4.886   9.003  0.7204  1.2016  1.7562
  870MOL0     O17346   5.255   4.882   9.123  1.2039  0.5489  1.2122
  870MOL0     C17347   5.124   4.843   9.138 -0.6648 -0.4192 -0.3842
  870MOL0     C17348   5.106   4.731   9.216 -1.0214 -0.0257  0.3537
  870MOL0     C17349   4.978   4.687   9.240 -0.5950 -0.8090  0.2776
  870MOL0     C17350   4.864   4.751   9.183  0.0168 -0.0455  0.4506
  870MOL0     O17351   4.741   4.702   9.234 -0.0133 -0.1065  0.8117
  870MOL0     C17352   4.629   4.786   9.202  0.2431 -0.0425  0.2586
  870MOL0     C17353   4.496   4.710   9.224  0.5011  0.4391 -1.6639
  870MOL0     C17354   4.442   4.723   9.365  1.5962  0.1086  0.6695
  870MOL0     C17355   4.302   4.663   9.372 -0.0626 -0.9209  0.0587
  870MOL0     C17356   4.229   4.686   9.510 -0.0734 -0.5549  0.0398
  870MOL0     C17357   4.093   4.628   9.506 -0.3515  0.4933 -0.3374
  870MOL0     C17358   4.014   4.687   9.626  0.2766  0.1081  0.0585
  870MOL0     C17359   3.877   4.630   9.636  0.1530  0.1533  0.6909
  870MOL0    Cl17360   3.790   4.686   9.772 -0.2751 -0.3539  0.3584
  870MOL0     C17361   4.886   4.862   9.100  0.3177 -0.1774  0.5182
  870MOL0     C17362   5.018   4.911   9.083 -1.3650  0.7217  0.8547
  870MOL0     O17363   5.270   4.818   8.908  0.7844 -0.2399 -0.1067
  870MOL0     C17364   5.520   4.968   9.095 -0.1844 -0.1980  0.0316
  870MOL0     C17365   5.646   5.030   9.076  0.6798 -0.5133  0.0931
  870MOL0     N17366   6.371   4.937   8.784  0.1501  0.3837 -0.3744
  870MOL0     N17367   6.394   4.808   8.793 -0.8544 -0.4777  0.1145
  870MOL0     C17368   6.884   4.725   9.660  0.5793 -0.3439  0.7675
  870MOL0     C17369   7.003   4.806   9.684  0.7283  0.4720  0.2392
  870MOL0     C17370   7.220   5.248   9.728 -0.7055  0.3877 -0.3264
  870MOL0     C17371   7.326   5.169   9.781  0.7065 -0.4140  0.1635
  870MOL0     C17372   7.441   5.236   9.825  0.3697  0.5480 -0.3993
  870MOL0     C17373   7.468   5.373   9.817  0.0803 -0.7989 -0.6956
  870MOL0     O17374   7.569   5.434   9.877  0.2559 -0.2779  0.4734
  870MOL0     C17375   7.671   5.363   9.928 -1.0003  1.0649 -0.2502
  870MOL0     C17376   7.768   5.453   9.995 -0.0041  0.9477  0.6025
  870MOL0     C17377   7.704   5.507  10.124 -0.2519  0.3979 -1.1708
  870MOL0     C17378   7.788   5.453  10.245 -0.1220 -0.6704  0.7528
  870MOL0     C17379   7.927   5.502  10.260  0.3969  0.7383 -0.1904
  870MOL0     C17380   8.045   5.538  10.256 -0.5854  0.5854 -0.7746
  870MOL0     C17381   7.359   5.449   9.756 -0.3184  0.3466 -0.1767
  870MOL0     C17382   7.235   5.391   9.711  0.2899  0.0255 -0.3138
  870MOL0     H17383   6.841   5.112   9.593  0.7048  1.2430  0.2584
  870MOL0     H17384   6.672   4.969   9.543 -2.5982 -1.6402  3.1047
  870MOL0     H17385   6.517   4.795   9.719 -0.9955 -1.5595  0.4653
  870MOL0     H17386   6.504   4.844   9.552 -2.3359  0.3393  1.6794
  870MOL0     H17387   6.474   4.556   9.656 -0.2114 -2.0613 -1.0217
  870MOL0     H17388   6.331   4.668   9.668  1.2983  1.3435  0.6078
  870MOL0     H17389   6.476   4.627   9.403 -0.8058  0.5412 -1.0274
  870MOL0     H17390   6.366   4.497   9.464  0.2873 -0.9670 -0.6069
  870MOL0     H17391   6.167   4.659   9.455  0.5769 -1.5290  0.2778
  870MOL0     H17392   6.277   4.799   9.466  2.3223  0.9139 -2.5588
  870MOL0     H17393   6.173   4.770   9.241 -4.0375 -6.0521 -0.8109
  870MOL0     H17394   6.351   4.764   9.250 -0.2298  1.7404  0.3221
  870MOL0     H17395   6.304   4.488   9.232  0.6256 -1.6239 -3.7806
  870MOL0     H17396   6.140   4.540   9.201  0.2451  0.5043 -1.4297
  870MOL0     H17397   6.239   4.488   9.005 -0.7949 -0.1350 -0.6608
  870MOL0     H17398   6.174   4.644   9.008 -1.8447 -1.8941  2.1241
  870MOL0     H17399   6.426   4.571   8.905 -1.0602 -1.1163  1.4995
  870MOL0     H17400   6.476   4.637   9.059 -1.2872 -0.5359  1.3681
  870MOL0     H17401   6.301   4.898   9.097  2.6549 -0.6817  0.4034
  870MOL0     H17402   6.404   5.169   9.018  1.1910 -1.4879 -1.7299
  870MOL0     H17403   6.320   5.192   8.866  2.6989  1.5771  0.9503
  870MOL0     H17404   6.170   5.260   9.059  6.0732  0.9252  0.7787
  870MOL0     H17405   6.185   5.091   9.124 -2.4555 -1.9940 -0.9762
  870MOL0     H17406   6.062   5.003   8.939 -2.5615 -0.0107  0.7149
  870MOL0     H17407   6.059   5.166   8.869  2.4499 -1.4490 -0.7823
  870MOL0     H17408   5.909   5.231   9.086 -2.9436  0.1517  0.0440
  870MOL0     H17409   5.907   5.049   9.108 -2.0950  0.4112 -0.5612
  870MOL0     H17410   5.652   5.086   8.750 -0.9961  1.7579 -0.1510
  870MOL0     H17411   5.375   4.880   8.693 -2.3793  0.5036 -0.5635
  870MOL0     H17412   5.284   5.017   8.740  0.8223 -0.5242  1.5655
  870MOL0     H17413   5.432   5.046   8.644  0.4969  0.2986  0.4281
  870MOL0     H17414   5.187   4.667   9.250 -0.8113  0.6448  1.1409
  870MOL0     H17415   4.971   4.611   9.317 -0.1486 -1.0344  0.1002
  870MOL0     H17416   4.622   4.880   9.257  0.4481 -0.2843  0.7003
  870MOL0     H17417   4.629   4.816   9.097 -0.0683  0.8908  0.5154
  870MOL0     H17418   4.434   4.776   9.163 -0.6395  3.1271  1.9950
  870MOL0     H17419   4.507   4.606   9.192  0.2740 -0.9760  2.2477
  870MOL0     H17420   4.433   4.827   9.396  1.8089  0.0591  0.9008
  870MOL0     H17421   4.512   4.668   9.430  0.5666  1.4456  3.0360
  870MOL0     H17422   4.235   4.694   9.291 -1.9600  2.2841  2.6333
  870MOL0     H17423   4.324   4.556   9.367  1.1657 -0.6593 -0.5931
  870MOL0     H17424   4.225   4.793   9.530  0.5135 -0.4638 -0.3056
  870MOL0     H17425   4.290   4.629   9.581  1.4806  1.2924  0.2583
  870MOL0     H17426   4.039   4.665   9.417  2.5861  0.1869 -2.3917
  870MOL0     H17427   4.099   4.520   9.521 -2.6656  0.2452 -0.7068
  870MOL0     H17428   4.014   4.793   9.601  1.5924 -0.1276 -1.0960
  870MOL0     H17429   4.071   4.659   9.715  0.5575  0.0830 -0.1259
  870MOL0     H17430   3.884   4.521   9.645 -2.2570  0.0822  2.7413
  870MOL0     H17431   3.826   4.648   9.540  2.6985 -1.6199 -1.1277
  870MOL0     H17432   4.816   4.938   9.067  0.5491  0.8020  2.1560
  870MOL0     H17433   5.041   4.993   9.015  1.4580  0.7109  1.6790
  870MOL0     H17434   5.476   4.935   9.188 -2.5529 -1.6902 -1.4993
  870MOL0     H17435   5.705   5.051   9.164 -1.2732  2.6090  0.8216
  870MOL0     H17436   6.894   4.617   9.666  2.5000 -0.1564  1.3324
  870MOL0     H17437   7.088   4.755   9.728  0.5134  0.0711  0.1939
  870MOL0     H17438   7.344   5.062   9.775  1.7096 -0.3424  1.3989
  870MOL0     H17439   7.504   5.153   9.854 -0.9899 -0.1324  0.7402
  870MOL0     H17440   7.628   5.296  10.003  4.3393 -2.6407  0.0719
  870MOL0     H17441   7.722   5.297   9.858 -1.2311 -0.0086  0.5720
  870MOL0     H17442   7.799   5.535   9.930  1.8293 -0.9721 -1.0759
  870MOL0     H17443   7.867   5.408  10.007 -0.4397  0.0156  0.7279
  870MOL0     H17444   7.607   5.458  10.136  1.0463 -1.6870  2.4387
  870MOL0     H17445   7.689   5.613  10.148  2.2409  0.3206  1.2774
  870MOL0     H17446   7.800   5.346  10.226  1.5248 -0.5835  1.1597
  870MOL0     H17447   7.730   5.468  10.336  3.4267  3.6835  2.6866
  870MOL0     H17448   8.144   5.578  10.265 -0.5491  0.0674  2.2353
  870MOL0     H17449   7.357   5.557   9.758 -0.4128  0.3446 -0.1413
  870MOL0     H17450   7.148   5.452   9.690 -0.1490  0.9099  3.3846
  871MOL0     O17451   2.349   5.749   1.597 -1.1000  0.2101  0.0793
  871MOL0     C17452   2.396   5.854   1.572 -0.5740 -0.0910 -0.6425
  871MOL0     O17453   2.445   5.895   1.458 -0.5188  0.5325  0.2541
  871MOL0     C17454   2.417   5.814   1.347 -0.0877 -0.4608 -0.6790
  871MOL0     C17455   2.517   5.787   1.253 -0.0827 -0.6176 -0.2758
  871MOL0     C17456   2.489   5.714   1.140 -0.1287  0.2057  0.2337
  871MOL0     C17457   2.369   5.663   1.109 -0.2330  0.2350  0.6611
  871MOL0     O17458   2.339   5.578   1.001  0.4729 -0.3043 -0.4524
  871MOL0     C17459   2.437   5.550   0.899 -0.5294 -0.4186 -0.3373
  871MOL0     C17460   2.362   5.482   0.784  0.4255 -0.5459  0.0554
  871MOL0     C17461   2.350   5.331   0.791 -0.2597  0.1743 -0.0555
  871MOL0     C17462   2.238   5.295   0.888 -0.1483 -0.2284  0.1040
  871MOL0     C17463   2.215   5.141   0.896 -0.0813  0.5936 -0.1989
  871MOL0     C17464   2.134   5.102   1.023  0.5284  0.8894 -0.5436
  871MOL0     C17465   1.995   5.157   1.023 -1.1316  0.4533 -0.9819
  871MOL0     C17466   1.907   5.076   1.118  0.1344  0.0682  0.6274
  871MOL0     N17467   1.768   5.135   1.138  0.2686 -0.3242 -0.3685
  871MOL0     C17468   1.704   5.245   1.076 -0.1563  0.1338  0.8683
  871MOL0     C17469   1.580   5.242   1.127 -0.4839 -1.0828 -0.5444
  871MOL0     C17470   1.473   5.332   1.077  0.1112 -0.6252 -0.7320
  871MOL0     C17471   1.474   5.471   1.141 -0.4007  0.7852  0.5663
  871MOL0     C17472   1.431   5.485   1.280 -1.0908  0.3951  0.1002
  871MOL0     C17473   1.332   5.383   1.341  0.4980  1.4757 -0.1548
  871MOL0     O17474   1.265   5.431   1.458  0.3269  0.2509  0.0360
  871MOL0     C17475   1.338   5.413   1.582  0.3117 -0.0383 -0.1383
  871MOL0     C17476   1.467   5.367   1.600 -0.1403  0.7005  0.4116
  871MOL0     C17477   1.532   5.364   1.718  0.8161  0.1368 -0.5421
  871MOL0     C17478   1.670   5.313   1.723  0.7967  0.0013 -0.7696
  871MOL0     C17479   1.476   5.432   1.833 -0.2218  0.8644  0.1899
  871MOL0     C17480   1.536   5.454   1.962  0.4164 -0.0470  0.5966
  871MOL0     O17481   1.447   5.485   2.066  0.5538  0.4029  0.4420
  871MOL0     C17482   1.480   5.480   2.197 -0.4834 -0.4775 -0.3030
  871MOL0     C17483   1.411   5.581   2.278  0.7554  0.1954  0.3955
  871MOL0     C17484   1.448   5.602   2.414  0.0458  0.5746 -0.1338
  871MOL0     C17485   1.541   5.519   2.479  1.0829 -0.8841  0.5177
  871MOL0     O17486   1.546   5.542   2.613 -0.2708  0.1013  0.7514
  871MOL0     C17487   1.599   5.433   2.685 -1.2604  0.2293 -0.1842
  871MOL0     C17488   1.756   5.447   2.714 -0.4724 -0.5460  0.3217
  871MOL0     C17489   1.773   5.560   2.815 -0.1982 -0.2230 -0.4248
  871MOL0     C17490   1.903   5.635   2.776  0.2903 -0.4690  0.1008
  871MOL0     C17491   1.928   5.751   2.863  0.7861 -0.8683 -0.5789
  871MOL0     C17492   1.988   5.716   3.005  0.2294  0.0980  0.3790
  871MOL0     C17493   1.934   5.815   3.106  0.3128  0.0969  0.1595
  871MOL0     C17494   1.968   5.767   3.241 -0.4610 -0.1663  1.0640
  871MOL0    Cl17495   1.905   5.887   3.358  0.0515 -0.0968  0.3705
  871MOL0     C17496   1.599   5.421   2.398  0.1316 -0.0748 -0.5356
  871MOL0     C17497   1.568   5.400   2.261 -0.1900  0.5193  0.4816
  871MOL0     O17498   1.663   5.450   1.976 -0.2887 -0.2188 -0.1297
  871MOL0     C17499   1.346   5.476   1.809 -0.6372 -0.2981 -0.1388
  871MOL0     C17500   1.276   5.469   1.690  0.1078 -0.4376 -0.3159
  871MOL0     N17501   1.562   5.137   1.215  0.5687 -0.6465  0.2569
  871MOL0     N17502   1.676   5.073   1.223 -0.1569 -0.1295  0.2902
  871MOL0     C17503   2.268   5.679   1.201 -0.0839  0.1716  0.4388
  871MOL0     C17504   2.288   5.753   1.313  0.6501  0.3478  0.6428
  871MOL0     C17505   2.437   5.938   1.687  0.1973 -0.2803 -0.9544
  871MOL0     C17506   2.510   6.062   1.678  0.0769 -0.3278  0.9188
  871MOL0     C17507   2.563   6.138   1.794  0.7232  0.9678 -0.3863
  871MOL0     C17508   2.525   6.088   1.917 -0.3403  0.3083  0.2562
  871MOL0     O17509   2.550   6.152   2.035 -0.3093  0.0361  0.5522
  871MOL0     C17510   2.652   6.247   2.052 -0.0246 -0.6290  0.3221
  871MOL0     C17511   2.790   6.178   2.031 -0.2517 -0.0712  0.3818
  871MOL0     C17512   2.903   6.276   2.068 -0.6420 -0.2979 -0.4281
  871MOL0     C17513   3.041   6.216   2.055 -0.2539 -0.5051  0.3946
  871MOL0     C17514   3.069   6.190   1.913  0.1016 -1.0203  0.7557
  871MOL0     C17515   3.088   6.155   1.796  0.2820 -0.7049  0.4056
  871MOL0     C17516   2.433   5.978   1.929  0.6346  0.4606  0.4100
  871MOL0     C17517   2.394   5.897   1.816 -1.1195  0.6011  0.0807
  871MOL0     H17518   2.619   5.824   1.266 -0.0074 -0.0981 -2.1781
  871MOL0     H17519   2.578   5.708   1.079  2.0146  0.3300  3.1151
  871MOL0     H17520   2.475   5.643   0.856 -2.1300  0.6719  0.5434
  871MOL0     H17521   2.513   5.481   0.937 -1.8750 -1.1601  1.1168
  871MOL0     H17522   2.264   5.531   0.783  0.5400 -0.3145 -0.5714
  871MOL0     H17523   2.415   5.516   0.694  2.3568 -3.6104 -0.1107
  871MOL0     H17524   2.328   5.286   0.694 -1.9725  4.2793 -1.7981
  871MOL0     H17525   2.438   5.289   0.843 -1.2949 -0.9959  0.8317
  871MOL0     H17526   2.271   5.317   0.990 -0.6557 -0.9785  0.4379
  871MOL0     H17527   2.149   5.358   0.877  2.3918  3.7218 -0.1704
  871MOL0     H17528   2.167   5.106   0.805  2.4934 -3.8591 -0.1063
  871MOL0     H17529   2.311   5.093   0.914 -0.1710  0.1278 -0.9529
  871MOL0     H17530   2.126   4.995   1.041  0.1356  1.1198  0.7099
  871MOL0     H17531   2.197   5.136   1.106 -3.7606 -1.2091  4.0485
  871MOL0     H17532   2.004   5.254   1.072  0.5575  0.5564 -1.4280
  871MOL0     H17533   1.963   5.173   0.920  1.5143  0.4010 -1.9017
  871MOL0     H17534   1.965   5.067   1.210 -2.2141 -3.4998  1.9756
  871MOL0     H17535   1.904   4.974   1.078  1.1255  0.9663 -1.9943
  871MOL0     H17536   1.734   5.316   1.001  1.2078 -2.4731 -1.2474
  871MOL0     H17537   1.505   5.355   0.975  3.1581 -2.7030 -0.3765
  871MOL0     H17538   1.370   5.294   1.078  0.0139 -0.4540  1.6119
  871MOL0     H17539   1.406   5.538   1.088  1.0510  4.0912  2.5431
  871MOL0     H17540   1.571   5.521   1.133  0.3861 -0.6538  0.8261
  871MOL0     H17541   1.380   5.581   1.275 -2.3151 -0.2812 -1.2972
  871MOL0     H17542   1.518   5.490   1.346  0.1453  0.7084 -1.5059
  871MOL0     H17543   1.377   5.284   1.355 -4.9886 -1.3083  0.5676
  871MOL0     H17544   1.251   5.364   1.270 -0.5748  1.4543  1.0425
  871MOL0     H17545   1.519   5.334   1.511  0.3140  2.5073 -0.0320
  871MOL0     H17546   1.737   5.400   1.716 -0.7801  1.1954 -1.5366
  871MOL0     H17547   1.690   5.255   1.814  1.3772  1.4810  0.0749
  871MOL0     H17548   1.702   5.244   1.645 -1.4884 -3.0806  0.8254
  871MOL0     H17549   1.338   5.639   2.222  1.0821 -1.1186 -1.4784
  871MOL0     H17550   1.397   5.674   2.478  1.4528  2.4143 -0.9837
  871MOL0     H17551   1.552   5.418   2.783  2.2468  1.1185  1.7886
  871MOL0     H17552   1.571   5.340   2.635 -0.1348 -0.4290  0.3587
  871MOL0     H17553   1.795   5.351   2.749  3.4142  1.3870  1.8780
  871MOL0     H17554   1.800   5.467   2.616  0.0942  0.1035  0.6994
  871MOL0     H17555   1.776   5.514   2.915  2.5391  0.8655  0.0983
  871MOL0     H17556   1.685   5.624   2.819  0.3250  0.5225 -0.5897
  871MOL0     H17557   1.988   5.566   2.772  0.4604 -0.1993 -1.1218
  871MOL0     H17558   1.884   5.676   2.677  0.8912 -1.7918 -0.5874
  871MOL0     H17559   1.836   5.809   2.876  0.7629 -0.8336 -0.8850
  871MOL0     H17560   1.998   5.826   2.825  0.8486 -0.5638  0.1194
  871MOL0     H17561   1.970   5.614   3.041  3.2551 -0.5849  0.1831
  871MOL0     H17562   2.096   5.728   2.995  0.0250  0.9817 -1.0755
  871MOL0     H17563   1.824   5.818   3.109  0.3494  2.9000  1.8383
  871MOL0     H17564   1.978   5.915   3.099  0.1103  0.2889  1.4758
  871MOL0     H17565   2.076   5.760   3.255 -0.0523 -0.6462 -1.7836
  871MOL0     H17566   1.937   5.662   3.246  2.8950 -1.2685  1.1162
  871MOL0     H17567   1.673   5.360   2.449 -1.4618  0.4926  2.7341
  871MOL0     H17568   1.622   5.316   2.218  3.9797  2.2002  1.9209
  871MOL0     H17569   1.286   5.512   1.892  2.4108 -0.1660  2.2031
  871MOL0     H17570   1.182   5.521   1.675  0.4920  0.6942  0.9799
  871MOL0     H17571   2.167   5.639   1.198 -1.7897  4.0015  1.1457
  871MOL0     H17572   2.192   5.759   1.363 -0.2093 -2.3149 -0.5287
  871MOL0     H17573   2.538   6.098   1.580  0.4905  1.2078  1.5652
  871MOL0     H17574   2.627   6.225   1.789  0.3923  1.1440 -2.3776
  871MOL0     H17575   2.641   6.336   1.990 -0.1051 -1.6743 -1.2482
  871MOL0     H17576   2.647   6.275   2.157  0.1145 -1.9727  0.7099
  871MOL0     H17577   2.794   6.151   1.925 -1.3475  1.4037 -0.0749
  871MOL0     H17578   2.804   6.088   2.092 -1.2158  0.9653  2.2318
  871MOL0     H17579   2.884   6.296   2.174  0.0585 -1.8756  0.0281
  871MOL0     H17580   2.899   6.366   2.006 -0.0840 -0.6722 -1.0234
  871MOL0     H17581   3.033   6.124   2.115 -0.6006 -0.5691  0.2534
  871MOL0     H17582   3.117   6.287   2.087 -0.2432 -0.7528  0.9255
  871MOL0     H17583   3.121   6.116   1.701  1.9554  0.2133  0.5751
  871MOL0     H17584   2.404   5.925   2.019 -1.1417 -0.4923 -0.6577
  871MOL0     H17585   2.327   5.812   1.832 -0.7228 -0.0069 -1.3181
  872MOL0     O17586   6.579   9.267   3.746 -0.6894 -0.8463 -0.5898
  872MOL0     C17587   6.687   9.333   3.770  0.3482 -0.1560  0.8141
  872MOL0     O17588   6.710   9.409   3.882  0.6284 -0.1326  0.0667
  872MOL0     C17589   6.628   9.384   3.990 -0.2036 -0.4929  1.1826
  872MOL0     C17590   6.489   9.406   3.983 -0.0741  0.1312 -0.9166
  872MOL0     C17591   6.412   9.395   4.103  1.1388 -0.0982 -0.6846
  872MOL0     C17592   6.471   9.352   4.219 -0.1746 -0.5873 -0.3654
  872MOL0     O17593   6.406   9.309   4.332  0.6451  0.4223  0.0209
  872MOL0     C17594   6.261   9.297   4.328  0.5142  0.5385  0.4885
  872MOL0     C17595   6.195   9.244   4.457 -0.1828  0.4904 -0.1535
  872MOL0     C17596   6.216   9.337   4.578 -0.6672  0.1361 -0.5982
  872MOL0     C17597   6.371   9.357   4.621  0.4446  0.6020  1.1574
  872MOL0     C17598   6.368   9.476   4.713 -1.2275 -0.3109 -0.3828
  872MOL0     C17599   6.522   9.501   4.747 -0.4351 -0.3893 -0.3751
  872MOL0     C17600   6.541   9.627   4.835  0.1181  0.4001  0.6944
  872MOL0     C17601   6.691   9.678   4.843  0.5881 -0.2765  0.2548
  872MOL0     N17602   6.784   9.570   4.877  0.2026 -0.1557 -0.2892
  872MOL0     C17603   6.769   9.502   4.994 -0.9884  0.2550 -0.0730
  872MOL0     C17604   6.873   9.409   5.000 -0.0364 -0.2045  1.0807
  872MOL0     C17605   6.890   9.317   5.115 -0.7610 -0.7419 -0.6904
  872MOL0     C17606   6.936   9.179   5.066  0.4562  0.3809  0.1569
  872MOL0     C17607   6.826   9.092   4.990  0.4088 -0.5734 -0.0904
  872MOL0     C17608   6.722   9.035   5.088 -0.4637 -0.6140 -0.2397
  872MOL0     O17609   6.622   8.989   4.992 -0.2406  0.0759 -0.2279
  872MOL0     C17610   6.507   9.062   4.977  0.7270 -0.1381 -0.5191
  872MOL0     C17611   6.409   8.993   4.905  1.0335  0.0909  0.2813
  872MOL0     C17612   6.280   9.047   4.883 -0.1428 -0.1376 -0.2971
  872MOL0     C17613   6.178   8.965   4.801 -0.8546 -0.1747  0.4962
  872MOL0     C17614   6.249   9.180   4.919 -0.1522  0.4679  0.0258
  872MOL0     C17615   6.114   9.243   4.919 -0.0623 -0.6002 -0.9272
  872MOL0     O17616   5.999   9.166   4.955  0.4170  0.2352 -0.1164
  872MOL0     C17617   5.882   9.227   4.930  0.3107  0.6673 -0.6417
  872MOL0     C17618   5.816   9.219   4.802 -0.6187  0.1282 -0.7892
  872MOL0     C17619   5.695   9.292   4.787 -0.0899  0.7787 -0.0870
  872MOL0     C17620   5.637   9.366   4.893 -0.0308  0.6643  0.2718
  872MOL0     O17621   5.514   9.421   4.864  0.1307 -0.2692 -0.1870
  872MOL0     C17622   5.469   9.511   4.970 -0.1082 -0.3875  0.9465
  872MOL0     C17623   5.338   9.562   4.917 -0.5005 -0.3043  0.7108
  872MOL0     C17624   5.227   9.549   5.028 -0.9090  0.0764  1.2012
  872MOL0     C17625   5.272   9.621   5.156  0.4456  0.3397 -0.2314
  872MOL0     C17626   5.156   9.648   5.254 -0.8165  1.3157 -0.1982
  872MOL0     C17627   5.059   9.755   5.194 -0.3391  0.5683 -0.1669
  872MOL0     C17628   4.972   9.830   5.294 -0.1545 -0.4143 -0.2515
  872MOL0     C17629   4.933   9.966   5.233  0.7077  0.2776 -0.1609
  872MOL0    Cl17630   4.828   9.932   5.094 -0.0532 -0.0482  0.2803
  872MOL0     C17631   5.708   9.382   5.013 -0.5108 -0.1160  0.6765
  872MOL0     C17632   5.833   9.311   5.026 -0.6056  0.4741 -0.6305
  872MOL0     O17633   6.112   9.366   4.902 -0.7610  0.0683  0.4535
  872MOL0     C17634   6.354   9.251   4.985 -0.2350 -1.0148 -0.2660
  872MOL0     C17635   6.485   9.202   5.006  1.2521  0.6510  0.1155
  872MOL0     N17636   6.940   9.421   4.873  0.8331 -0.7761 -0.2268
  872MOL0     N17637   6.893   9.529   4.803  0.0728 -0.0866  0.0936
  872MOL0     C17638   6.609   9.333   4.219 -0.2123 -0.1792  1.0422
  872MOL0     C17639   6.690   9.355   4.106 -0.7328 -0.4399 -0.1097
  872MOL0     C17640   6.796   9.309   3.676 -0.5285  0.0180  0.3394
  872MOL0     C17641   6.768   9.243   3.554 -0.3479 -0.0245 -0.4983
  872MOL0     C17642   6.871   9.231   3.454 -0.5611  0.3573 -0.6031
  872MOL0     C17643   6.999   9.280   3.481 -0.1775 -0.3168 -0.5721
  872MOL0     O17644   7.100   9.285   3.390 -0.3852  0.0127  0.1497
  872MOL0     C17645   7.145   9.156   3.349  0.4359  0.1189 -0.0611
  872MOL0     C17646   7.295   9.145   3.370  0.0404 -0.3148  0.5058
  872MOL0     C17647   7.359   9.240   3.474  0.3909  0.3505  0.5323
  872MOL0     C17648   7.505   9.207   3.482 -0.2554  0.2340  0.0761
  872MOL0     C17649   7.573   9.245   3.361 -0.1187  0.0514 -0.3178
  872MOL0     C17650   7.632   9.265   3.255  0.3190 -0.1712 -0.5266
  872MOL0     C17651   7.024   9.362   3.600  0.0245  0.4411  0.1911
  872MOL0     C17652   6.919   9.372   3.694 -1.0236 -0.2594 -0.7087
  872MOL0     H17653   6.448   9.433   3.887 -0.8911  0.9580 -0.3448
  872MOL0     H17654   6.304   9.398   4.106  1.0529 -2.2302  0.7487
  872MOL0     H17655   6.220   9.398   4.318 -0.4948  0.4361  2.8808
  872MOL0     H17656   6.221   9.244   4.241  0.1964  1.8838 -0.2074
  872MOL0     H17657   6.088   9.227   4.462 -0.0841  0.1310  3.6316
  872MOL0     H17658   6.232   9.143   4.478 -0.1993  0.9055  2.0635
  872MOL0     H17659   6.184   9.431   4.534  1.1041  2.0830  1.9462
  872MOL0     H17660   6.143   9.326   4.659 -4.7236  0.5777 -3.9222
  872MOL0     H17661   6.422   9.271   4.665  4.6019  1.1579 -1.9373
  872MOL0     H17662   6.441   9.383   4.540  1.1156 -3.1153  0.3519
  872MOL0     H17663   6.329   9.567   4.666  1.7910  1.8860  1.0243
  872MOL0     H17664   6.313   9.444   4.802  1.7298  2.0791  2.5555
  872MOL0     H17665   6.562   9.405   4.781  1.6704  0.2553 -0.8950
  872MOL0     H17666   6.575   9.524   4.654 -0.4893  1.5840  0.0430
  872MOL0     H17667   6.477   9.710   4.806 -0.5462  0.7122  2.8526
  872MOL0     H17668   6.518   9.602   4.939 -1.6090  0.9301  0.4722
  872MOL0     H17669   6.689   9.758   4.918 -1.3769  1.0292 -1.1109
  872MOL0     H17670   6.713   9.731   4.750  1.1334  2.0229  1.6205
  872MOL0     H17671   6.696   9.516   5.074 -1.1118 -0.3663 -0.0700
  872MOL0     H17672   6.958   9.364   5.186 -0.9755 -5.0629  2.8680
  872MOL0     H17673   6.798   9.318   5.175 -0.4812  2.9522 -0.1187
  872MOL0     H17674   6.971   9.118   5.150  1.6967 -0.1809 -0.7355
  872MOL0     H17675   7.025   9.191   5.003  0.4609  0.7169  0.2290
  872MOL0     H17676   6.873   9.015   4.928  0.6682 -1.5999  1.3331
  872MOL0     H17677   6.774   9.167   4.930 -0.4660 -0.0463  1.2840
  872MOL0     H17678   6.674   9.109   5.153 -0.8400 -0.9106 -0.1748
  872MOL0     H17679   6.777   8.960   5.146  2.6271 -0.3584 -2.5670
  872MOL0     H17680   6.418   8.886   4.893 -2.0223 -0.2059 -0.0449
  872MOL0     H17681   6.186   8.991   4.695  1.2167  2.1452  1.1100
  872MOL0     H17682   6.193   8.857   4.804  0.3462 -0.0215  0.7927
  872MOL0     H17683   6.078   8.985   4.841 -0.5284  1.1658  0.7105
  872MOL0     H17684   5.862   9.157   4.726 -2.4725 -3.9919  1.0610
  872MOL0     H17685   5.648   9.288   4.689  0.0648 -0.9716 -0.1363
  872MOL0     H17686   5.451   9.457   5.063  1.0454 -0.9838  0.8351
  872MOL0     H17687   5.536   9.597   4.981 -0.2814  0.1291 -1.4357
  872MOL0     H17688   5.351   9.665   4.884 -1.7831 -0.4228 -0.2349
  872MOL0     H17689   5.308   9.512   4.825 -2.3004  2.3348 -0.2283
  872MOL0     H17690   5.197   9.445   5.044 -2.4546  0.4510  0.8844
  872MOL0     H17691   5.151   9.608   4.977 -0.4637  2.1482  2.8211
  872MOL0     H17692   5.349   9.560   5.205  0.1769 -0.2580 -0.5392
  872MOL0     H17693   5.317   9.718   5.132 -0.7562  0.6489 -1.2893
  872MOL0     H17694   5.200   9.677   5.349  2.8248  1.0292 -1.6106
  872MOL0     H17695   5.112   9.548   5.269  1.3041  0.0466 -1.8173
  872MOL0     H17696   5.112   9.827   5.131 -2.6293  0.1305 -2.8167
  872MOL0     H17697   4.985   9.709   5.128 -1.0141  3.8828 -1.9197
  872MOL0     H17698   5.029   9.840   5.386  1.7842  3.5299 -1.6762
  872MOL0     H17699   4.880   9.770   5.298 -0.8503  0.5127 -1.6803
  872MOL0     H17700   5.018  10.014   5.185 -0.1455 -0.4485 -2.5165
  872MOL0     H17701   4.880  10.037   5.297 -0.0417  1.5339 -2.0863
  872MOL0     H17702   5.676   9.441   5.098 -0.6061 -0.6783  1.0388
  872MOL0     H17703   5.879   9.329   5.123 -1.1537  4.2571 -0.9042
  872MOL0     H17704   6.340   9.357   5.004  0.6623 -0.7779 -0.8676
  872MOL0     H17705   6.560   9.266   5.051  0.7697  1.9267 -0.8259
  872MOL0     H17706   6.654   9.294   4.310 -0.6577 -3.1390  0.0912
  872MOL0     H17707   6.797   9.338   4.106 -0.9941 -2.3823 -0.3674
  872MOL0     H17708   6.672   9.193   3.543 -1.2681  2.1013 -3.2392
  872MOL0     H17709   6.851   9.170   3.367 -1.1663 -1.1441  0.5436
  872MOL0     H17710   7.103   9.075   3.410 -2.0970  2.0541  0.9695
  872MOL0     H17711   7.133   9.119   3.247  1.5899 -1.4397  0.3266
  872MOL0     H17712   7.340   9.184   3.278 -1.0402  2.1296  0.9319
  872MOL0     H17713   7.318   9.045   3.408 -2.6151 -0.1695  2.7320
  872MOL0     H17714   7.310   9.220   3.570 -0.4675  0.4311  0.1207
  872MOL0     H17715   7.344   9.347   3.456  5.8356  1.3558  0.3668
  872MOL0     H17716   7.521   9.101   3.506 -0.2448  0.0053 -0.8976
  872MOL0     H17717   7.549   9.265   3.564 -0.8865  0.8326 -0.0068
  872MOL0     H17718   7.684   9.271   3.162  1.8899 -1.9317  0.1776
  872MOL0     H17719   7.124   9.403   3.608 -0.5853  2.9526 -2.8043
  872MOL0     H17720   6.943   9.425   3.785  0.2429 -0.3679 -0.9630
  873MOL0     O17721  11.322  10.260   1.766  0.2380 -0.9755  0.7052
  873MOL0     C17722  11.370  10.265   1.650 -0.5502 -0.5331 -0.0255
  873MOL0     O17723  11.298  10.254   1.532  0.4078 -0.4714  0.1559
  873MOL0     C17724  11.158  10.265   1.525  0.1878 -0.1371 -1.4122
  873MOL0     C17725  11.103  10.219   1.402 -0.8298 -0.0788  1.0929
  873MOL0     C17726  10.966  10.225   1.381 -0.4077  0.6035  0.5880
  873MOL0     C17727  10.875  10.270   1.473  0.1186  0.0074  0.0032
  873MOL0     O17728  10.741  10.252   1.445  0.2384 -0.1302  0.6072
  873MOL0     C17729  10.642  10.263   1.546  0.3101 -0.3807 -0.3647
  873MOL0     C17730  10.623  10.126   1.612 -0.1558 -0.6351 -0.3462
  873MOL0     C17731  10.502  10.139   1.712  0.2892  0.4360  0.2318
  873MOL0     C17732  10.373  10.064   1.681 -0.1499  0.2483  0.7235
  873MOL0     C17733  10.289  10.067   1.805  0.1851 -0.5952 -0.6784
  873MOL0     C17734  10.165   9.980   1.768 -0.3400  0.1251  0.5204
  873MOL0     C17735  10.078   9.956   1.890 -0.0540 -0.2816 -0.5693
  873MOL0     C17736  10.083  10.062   2.005  0.1510 -0.5667 -0.5915
  873MOL0     N17737   9.998  10.025   2.121 -0.8756  0.2134 -0.0823
  873MOL0     C17738   9.975  10.113   2.221 -0.0319  0.6291  0.2580
  873MOL0     C17739   9.906  10.040   2.314 -0.4507 -0.6032  0.0524
  873MOL0     C17740   9.873  10.091   2.447  0.0322 -0.3156 -0.4790
  873MOL0     C17741   9.740  10.048   2.513 -0.4958  0.9602  0.1395
  873MOL0     C17742   9.733  10.098   2.656  0.9434 -0.0075 -0.6137
  873MOL0     C17743   9.628  10.020   2.748 -0.4751  0.0343  0.5223
  873MOL0     O17744   9.549  10.116   2.822  0.0087  0.8505 -1.1300
  873MOL0     C17745   9.573  10.128   2.961 -0.2445  0.3077  0.5241
  873MOL0     C17746   9.658  10.221   3.010 -1.4497  0.6430  0.0167
  873MOL0     C17747   9.677  10.251   3.144 -0.6412  0.2992  0.1068
  873MOL0     C17748   9.765  10.364   3.172 -1.0076 -0.4338 -0.0614
  873MOL0     C17749   9.604  10.174   3.234 -0.4734 -0.7817 -0.5196
  873MOL0     C17750   9.622  10.181   3.390  0.7221 -0.0806 -0.3878
  873MOL0     O17751   9.540  10.110   3.472 -0.4122  0.8260  0.1949
  873MOL0     C17752   9.549  10.139   3.606  0.0748 -0.1305 -0.0951
  873MOL0     C17753   9.641  10.077   3.698 -0.2648  0.7677  0.0964
  873MOL0     C17754   9.644  10.109   3.834  0.4044  0.3171  0.0360
  873MOL0     C17755   9.545  10.202   3.882  0.3338  1.0295 -0.7341
  873MOL0     O17756   9.553  10.215   4.019  0.0241  0.5261 -0.3751
  873MOL0     C17757   9.521  10.344   4.066 -0.5654 -0.0040  0.2751
  873MOL0     C17758   9.447  10.326   4.190 -0.2758 -0.0569 -0.1722
  873MOL0     C17759   9.411  10.462   4.240 -0.9782  0.2010 -1.0437
  873MOL0     C17760   9.531  10.537   4.317 -0.3975  0.0979  0.2155
  873MOL0     C17761   9.519  10.684   4.354  0.4806  0.0887  0.1075
  873MOL0     C17762   9.643  10.720   4.431  0.3651  0.2764 -0.1522
  873MOL0     C17763   9.650  10.874   4.450  0.1611 -0.0467  0.7040
  873MOL0     C17764   9.791  10.926   4.477  0.7905 -0.0689  0.3412
  873MOL0    Cl17765   9.853  10.859   4.628  0.5934 -0.3022  0.7092
  873MOL0     C17766   9.455  10.256   3.793  0.0802 -0.0983 -0.1854
  873MOL0     C17767   9.457  10.231   3.654  0.6494  0.0453 -0.2659
  873MOL0     O17768   9.732  10.219   3.427 -0.0534  0.4798 -0.5117
  873MOL0     C17769   9.513  10.074   3.184 -0.8718 -0.4137 -0.4881
  873MOL0     C17770   9.503  10.054   3.051 -0.3638  0.4002  0.3932
  873MOL0     N17771   9.884   9.913   2.266  0.5139  0.5458 -0.0316
  873MOL0     N17772   9.939   9.907   2.148  0.0666 -1.2633 -0.6327
  873MOL0     C17773  10.931  10.310   1.599  0.2027 -0.2363 -0.3087
  873MOL0     C17774  11.064  10.304   1.626 -0.2194  0.5719 -0.2123
  873MOL0     C17775  11.510  10.263   1.635  0.0092  0.4961  0.3901
  873MOL0     C17776  11.598  10.210   1.733  1.2534  0.2115 -0.6415
  873MOL0     C17777  11.728  10.191   1.708 -0.7591 -0.5000  0.3319
  873MOL0     C17778  11.790  10.236   1.593 -0.1027 -0.3738  0.4733
  873MOL0     O17779  11.921  10.215   1.568 -0.3657 -1.0059  0.2399
  873MOL0     C17780  12.006  10.333   1.606 -0.0235 -0.1506 -0.0453
  873MOL0     C17781  11.997  10.449   1.506  0.1658  0.5892  0.0573
  873MOL0     C17782  12.134  10.517   1.485 -0.3998  0.2760 -0.3236
  873MOL0     C17783  12.120  10.634   1.392  0.1385 -0.4663 -0.3878
  873MOL0     C17784  12.259  10.695   1.388 -0.3173 -0.7888 -0.3067
  873MOL0     C17785  12.369  10.748   1.386 -0.4524 -0.2667  0.1202
  873MOL0     C17786  11.706  10.297   1.499 -0.3272  0.0535 -0.2031
  873MOL0     C17787  11.572  10.302   1.520  0.2995 -0.2335  0.1037
  873MOL0     H17788  11.176  10.175   1.335  1.6871  3.7409  1.0107
  873MOL0     H17789  10.917  10.192   1.289  1.2836 -0.1517 -0.0756
  873MOL0     H17790  10.668  10.336   1.622 -0.3783  0.6575 -1.1007
  873MOL0     H17791  10.546  10.292   1.502  0.9667  0.7591 -1.0777
  873MOL0     H17792  10.609  10.053   1.532 -0.2142  0.2333 -1.1430
  873MOL0     H17793  10.712  10.089   1.663  0.9083 -2.9858 -3.6026
  873MOL0     H17794  10.541  10.093   1.803  1.2162 -2.2099 -1.3880
  873MOL0     H17795  10.483  10.246   1.726  2.5272  1.1919 -1.9648
  873MOL0     H17796  10.321  10.114   1.599 -1.2864  0.5843  1.6292
  873MOL0     H17797  10.388   9.959   1.655 -0.2566 -0.1170  2.0410
  873MOL0     H17798  10.340  10.024   1.892 -2.2701  0.1095  1.2454
  873MOL0     H17799  10.263  10.169   1.836 -1.3713 -0.8172 -1.1800
  873MOL0     H17800  10.098  10.036   1.701 -0.5335 -1.9361 -1.1134
  873MOL0     H17801  10.188   9.888   1.713  1.1685  1.8008 -1.8789
  873MOL0     H17802   9.973   9.946   1.862 -0.5253 -0.1718  1.0382
  873MOL0     H17803  10.095   9.862   1.943 -0.4635  1.7011  3.4575
  873MOL0     H17804  10.040  10.153   1.962  1.3301  1.1569  1.6415
  873MOL0     H17805  10.184  10.085   2.038  0.0738 -2.2892  1.0260
  873MOL0     H17806   9.980  10.222   2.224  0.2472  0.5979  1.8772
  873MOL0     H17807   9.950  10.080   2.524  0.6700  0.6023 -0.9719
  873MOL0     H17808   9.850  10.197   2.434  0.0167  0.7683  5.5182
  873MOL0     H17809   9.737   9.941   2.537 -1.7422  1.3268  1.8014
  873MOL0     H17810   9.656  10.083   2.452  1.3397  1.2245 -2.3812
  873MOL0     H17811   9.710  10.204   2.668  2.1771  0.2036  0.0369
  873MOL0     H17812   9.828  10.078   2.706  0.5721 -2.1369 -0.6306
  873MOL0     H17813   9.687   9.959   2.816 -0.3258  0.9586  1.2365
  873MOL0     H17814   9.576   9.943   2.690 -1.6557  0.0844  1.4844
  873MOL0     H17815   9.696  10.274   2.924 -1.1677 -0.6365 -0.6565
  873MOL0     H17816   9.707  10.441   3.222 -4.0353 -2.3580 -0.3256
  873MOL0     H17817   9.850  10.319   3.224  1.4774  2.1104 -1.6173
  873MOL0     H17818   9.796  10.414   3.079 -0.2867  0.0075  0.4103
  873MOL0     H17819   9.720  10.012   3.662  1.3024  3.2937 -1.3479
  873MOL0     H17820   9.717  10.066   3.901 -1.8712 -2.7763  0.7827
  873MOL0     H17821   9.610  10.402   4.093 -2.3367  1.6649  2.9781
  873MOL0     H17822   9.462  10.402   3.994  0.0414 -1.1460 -1.2053
  873MOL0     H17823   9.358  10.263   4.177 -0.3229  0.4100 -2.6627
  873MOL0     H17824   9.509  10.272   4.262  0.5532 -0.9637 -1.5039
  873MOL0     H17825   9.325  10.450   4.307 -0.9826 -3.5389 -1.5293
  873MOL0     H17826   9.373  10.520   4.155 -3.2348  0.1833 -0.1346
  873MOL0     H17827   9.555  10.474   4.404 -0.6944  1.1909  1.1143
  873MOL0     H17828   9.621  10.519   4.257 -0.4544  2.2616 -0.5775
  873MOL0     H17829   9.433  10.705   4.419 -0.5136  0.0262 -1.1519
  873MOL0     H17830   9.493  10.733   4.260 -3.1190 -2.2577 -0.3337
  873MOL0     H17831   9.637  10.673   4.529 -1.3159  1.4745  0.3629
  873MOL0     H17832   9.728  10.681   4.374  0.3319 -0.7454  0.4807
  873MOL0     H17833   9.580  10.906   4.528 -2.4990  2.3573 -2.4096
  873MOL0     H17834   9.609  10.916   4.358 -0.7699  1.2395  1.6572
  873MOL0     H17835   9.795  11.035   4.467 -1.4003  0.0575  0.3172
  873MOL0     H17836   9.856  10.889   4.397  1.3950 -0.5306  1.0302
  873MOL0     H17837   9.370  10.305   3.839  0.9945 -0.9749  2.6477
  873MOL0     H17838   9.381  10.275   3.591  2.9000  2.9049 -1.2153
  873MOL0     H17839   9.443  10.020   3.247 -0.9589 -0.9136 -1.0080
  873MOL0     H17840   9.429   9.985   3.012 -2.0942  0.1086  3.8287
  873MOL0     H17841  10.869  10.340   1.683  3.0270  0.8338  1.5386
  873MOL0     H17842  11.099  10.339   1.722  0.9110 -0.8819 -0.0539
  873MOL0     H17843  11.546  10.175   1.822  5.4017 -2.9776  0.8731
  873MOL0     H17844  11.793  10.144   1.780  1.7976 -0.4987 -1.8008
  873MOL0     H17845  11.998  10.375   1.707  0.1261  1.6370 -0.7456
  873MOL0     H17846  12.108  10.293   1.601 -0.7833 -2.1248 -0.9201
  873MOL0     H17847  11.914  10.512   1.539 -0.1423 -0.6932  1.9004
  873MOL0     H17848  11.972  10.401   1.411  2.6070 -2.3507  0.7220
  873MOL0     H17849  12.207  10.443   1.448  1.3104  2.0991 -0.7603
  873MOL0     H17850  12.156  10.554   1.585 -0.4733 -1.8634  0.5514
  873MOL0     H17851  12.055  10.709   1.439  1.2527 -0.2832  0.9182
  873MOL0     H17852  12.085  10.609   1.292  0.3119 -0.0950 -0.5415
  873MOL0     H17853  12.461  10.803   1.396 -1.7636  1.7963  1.6481
  873MOL0     H17854  11.758  10.343   1.415  2.4508  2.4511  2.5794
  873MOL0     H17855  11.502  10.346   1.450 -3.2268 -3.6751  1.1209
  874MOL0     O17856   5.354   3.119   1.059  0.7467  0.4749  0.5557
  874MOL0     C17857   5.387   3.171   1.164  0.1050  0.1954  0.6745
  874MOL0     O17858   5.295   3.237   1.247 -0.5672 -0.1072  0.0302
  874MOL0     C17859   5.167   3.225   1.206  0.4683 -0.3569 -0.1005
  874MOL0     C17860   5.113   3.318   1.128 -0.5151 -0.4722  0.1210
  874MOL0     C17861   4.985   3.302   1.071 -1.2890  0.5242 -0.0559
  874MOL0     C17862   4.910   3.187   1.092 -0.2203 -0.9718 -0.4911
  874MOL0     O17863   4.772   3.186   1.055  0.0478  0.7878 -0.7237
  874MOL0     C17864   4.757   3.080   0.967  0.8242 -0.4998  0.1466
  874MOL0     C17865   4.609   3.070   0.899 -0.3044 -0.0719 -0.8439
  874MOL0     C17866   4.506   3.043   1.007  0.1027 -0.3041 -0.0438
  874MOL0     C17867   4.363   3.051   0.952 -0.1007 -0.3918 -0.6566
  874MOL0     C17868   4.266   2.986   1.054 -0.6519  0.2555  0.3891
  874MOL0     C17869   4.127   3.029   1.023  0.1399  0.2754  0.1577
  874MOL0     C17870   4.029   2.933   1.093  0.0764  0.2658  0.2046
  874MOL0     C17871   3.884   2.984   1.077 -0.3273 -0.7476  0.2796
  874MOL0     N17872   3.843   2.998   0.942  0.1791  0.1401 -0.4255
  874MOL0     C17873   3.877   3.093   0.853  0.1975  0.0618 -0.4229
  874MOL0     C17874   3.805   3.055   0.740  0.3852 -0.6193  0.1064
  874MOL0     C17875   3.816   3.132   0.612 -0.0241  0.0870 -0.5635
  874MOL0     C17876   3.671   3.171   0.572 -0.5492 -0.2975 -0.3556
  874MOL0     C17877   3.626   3.305   0.626  0.2758 -1.0844  0.7786
  874MOL0     C17878   3.488   3.350   0.590 -0.9798 -0.0398 -0.6363
  874MOL0     O17879   3.384   3.279   0.654  0.6983  0.2626  0.1410
  874MOL0     C17880   3.254   3.311   0.625  0.1124 -0.8152 -0.0839
  874MOL0     C17881   3.138   3.253   0.691  0.6187  0.3180 -1.4066
  874MOL0     C17882   3.012   3.304   0.684  0.0719 -0.0220 -0.0424
  874MOL0     C17883   2.906   3.233   0.770  0.3360  0.0155  0.5111
  874MOL0     C17884   2.993   3.419   0.608 -0.4299  0.6987  0.4791
  874MOL0     C17885   2.860   3.476   0.595  0.0590 -0.0201 -0.1856
  874MOL0     O17886   2.837   3.546   0.479 -0.5582  0.0992 -0.2214
  874MOL0     C17887   2.721   3.611   0.448 -0.0478  0.3887  0.0987
  874MOL0     C17888   2.597   3.599   0.510  0.8146 -0.0802 -0.2336
  874MOL0     C17889   2.496   3.672   0.453  0.4900 -0.0873 -0.5363
  874MOL0     C17890   2.509   3.752   0.341  0.5955 -0.5116 -0.5992
  874MOL0     O17891   2.410   3.837   0.281 -0.3087 -0.2726 -0.4026
  874MOL0     C17892   2.273   3.838   0.337  0.4409 -1.2017 -0.4712
  874MOL0     C17893   2.203   3.715   0.284  0.0556  0.4358  0.1131
  874MOL0     C17894   2.045   3.734   0.288 -0.1583 -0.1925 -0.9190
  874MOL0     C17895   1.969   3.613   0.219 -0.1711  0.1619  0.1022
  874MOL0     C17896   1.816   3.620   0.247 -0.5145 -0.5406 -0.2571
  874MOL0     C17897   1.747   3.493   0.201 -0.5054 -0.0707  0.4595
  874MOL0     C17898   1.596   3.523   0.184 -0.6213 -0.8218  0.7607
  874MOL0     C17899   1.561   3.596   0.056 -0.7398  0.6646  0.8306
  874MOL0    Cl17900   1.389   3.632   0.041  0.5627  0.2714 -0.4108
  874MOL0     C17901   2.634   3.761   0.281  0.6317  0.8178 -0.0512
  874MOL0     C17902   2.743   3.690   0.335  0.4528  1.1162  0.7456
  874MOL0     O17903   2.778   3.452   0.686 -0.2175 -0.4394  0.1514
  874MOL0     C17904   3.103   3.472   0.534  0.0295 -0.1947 -0.1776
  874MOL0     C17905   3.225   3.411   0.535  0.3282  0.1407 -0.6487
  874MOL0     N17906   3.734   2.939   0.765  0.5035  0.8037  0.4381
  874MOL0     N17907   3.751   2.909   0.883 -0.0331  0.1751  0.4241
  874MOL0     C17908   4.960   3.093   1.176 -0.5114  0.0004 -0.0839
  874MOL0     C17909   5.092   3.108   1.220  0.4988  0.1746  0.3581
  874MOL0     C17910   5.530   3.194   1.187 -0.1865  0.5468  0.3992
  874MOL0     C17911   5.627   3.142   1.096 -0.1574 -0.0973  0.2492
  874MOL0     C17912   5.764   3.141   1.128  0.2536 -0.0183 -0.9554
  874MOL0     C17913   5.816   3.202   1.243  0.4996  0.2986 -0.7330
  874MOL0     O17914   5.949   3.202   1.253  1.1914  0.4115 -0.4440
  874MOL0     C17915   6.018   3.213   1.375 -0.5080  0.4087 -0.5676
  874MOL0     C17916   6.014   3.091   1.469  0.4130 -0.4708  0.2619
  874MOL0     C17917   6.056   3.121   1.610 -0.2005 -0.0424 -0.3013
  874MOL0     C17918   6.212   3.128   1.615 -0.5523 -0.2568 -0.5899
  874MOL0     C17919   6.276   3.026   1.707 -0.3984  0.7430  0.4013
  874MOL0     C17920   6.323   2.932   1.776 -0.1500 -0.6577  0.0612
  874MOL0     C17921   5.718   3.269   1.328  0.2986  0.9320 -0.2257
  874MOL0     C17922   5.581   3.253   1.307 -0.0850  0.4299  0.2959
  874MOL0     H17923   5.175   3.406   1.117 -3.5606  1.7941 -0.3830
  874MOL0     H17924   4.947   3.379   1.004 -0.7211  0.0193 -0.9806
  874MOL0     H17925   4.829   3.097   0.886  0.3331  2.1388  0.1909
  874MOL0     H17926   4.768   2.988   1.024 -5.4807 -2.2165 -0.6067
  874MOL0     H17927   4.585   3.158   0.839 -0.5194 -0.8240 -1.8929
  874MOL0     H17928   4.610   2.987   0.828  0.8484 -1.6409  0.9010
  874MOL0     H17929   4.519   2.942   1.046  2.7357  1.4422  4.2702
  874MOL0     H17930   4.520   3.119   1.084  1.7583 -0.0558 -0.5440
  874MOL0     H17931   4.327   3.153   0.933  1.1405 -0.4091 -3.7432
  874MOL0     H17932   4.348   2.988   0.863  0.1980  1.0217 -1.7466
  874MOL0     H17933   4.275   2.879   1.037 -0.3160  0.4527 -0.8273
  874MOL0     H17934   4.289   3.009   1.158 -0.3921  2.7542 -0.1503
  874MOL0     H17935   4.113   3.136   1.040  1.5551  0.9299 -2.2019
  874MOL0     H17936   4.116   3.031   0.914  0.2463  2.6860  0.1431
  874MOL0     H17937   4.030   2.832   1.053 -1.6342  0.1289  0.4394
  874MOL0     H17938   4.054   2.933   1.199 -0.7796  1.3776  0.4312
  874MOL0     H17939   3.876   3.087   1.112  0.8052 -0.5866  0.1083
  874MOL0     H17940   3.823   2.910   1.130  2.4425 -3.1903  0.3521
  874MOL0     H17941   3.954   3.170   0.860 -0.6166  0.7526  2.1826
  874MOL0     H17942   3.881   3.217   0.636 -0.1846 -0.4442  2.1297
  874MOL0     H17943   3.864   3.081   0.528  0.4315 -0.3591 -0.0413
  874MOL0     H17944   3.604   3.092   0.608 -0.8075  0.1492  0.1510
  874MOL0     H17945   3.678   3.167   0.463  0.3532  1.1515 -0.3619
  874MOL0     H17946   3.697   3.383   0.597  1.3733 -2.1503  0.4975
  874MOL0     H17947   3.628   3.309   0.735  1.0243 -1.0579  0.7742
  874MOL0     H17948   3.483   3.337   0.482 -3.9572 -0.3780 -0.5339
  874MOL0     H17949   3.481   3.456   0.617  1.2342 -0.1430  0.5334
  874MOL0     H17950   3.152   3.168   0.758  2.8130 -0.2378 -2.4602
  874MOL0     H17951   2.953   3.156   0.832  2.0841  0.6224  0.0230
  874MOL0     H17952   2.856   3.295   0.845  1.6604 -0.6618  2.0174
  874MOL0     H17953   2.833   3.211   0.691  0.8663  0.7407 -0.2035
  874MOL0     H17954   2.574   3.538   0.597  2.9931  0.5203  0.8238
  874MOL0     H17955   2.404   3.677   0.510  0.7450  0.2545 -0.1502
  874MOL0     H17956   2.272   3.854   0.445 -2.3616  1.4198 -0.7374
  874MOL0     H17957   2.224   3.929   0.300 -0.5812 -1.8231 -0.6763
  874MOL0     H17958   2.230   3.692   0.180 -0.4768 -0.9135  0.2599
  874MOL0     H17959   2.237   3.627   0.339  1.3219 -0.5336 -2.1079
  874MOL0     H17960   2.024   3.831   0.243  0.0527  1.0841  1.5684
  874MOL0     H17961   2.010   3.734   0.392  0.3859 -1.0034 -0.7223
  874MOL0     H17962   2.002   3.617   0.115  0.9579 -0.5213  0.4151
  874MOL0     H17963   1.999   3.517   0.261  1.5499 -0.2117 -1.8157
  874MOL0     H17964   1.776   3.707   0.194 -0.1999  1.0764  2.0360
  874MOL0     H17965   1.804   3.634   0.355  0.5335  0.8700 -0.2945
  874MOL0     H17966   1.786   3.473   0.101  1.3006  3.7418  0.2462
  874MOL0     H17967   1.764   3.404   0.263 -3.7997 -0.6890  0.7045
  874MOL0     H17968   1.567   3.574   0.276  1.4926  1.7094  0.1464
  874MOL0     H17969   1.553   3.423   0.178 -2.4490 -0.1979  2.4336
  874MOL0     H17970   1.604   3.548  -0.033 -0.1115  0.6236  1.1480
  874MOL0     H17971   1.604   3.697   0.058  3.2466 -0.8147 -0.4309
  874MOL0     H17972   2.655   3.810   0.187 -1.2140  0.2986 -0.7702
  874MOL0     H17973   2.831   3.686   0.271  2.2298  4.4853  2.7209
  874MOL0     H17974   3.091   3.552   0.462  2.9229  1.3588  0.9220
  874MOL0     H17975   3.306   3.459   0.481  0.1265  0.7438 -0.4194
  874MOL0     H17976   4.895   3.010   1.200  2.0338 -2.1531 -0.2592
  874MOL0     H17977   5.136   3.033   1.285  1.5240  0.9619  0.5968
  874MOL0     H17978   5.601   3.086   1.007  0.9853  0.4195 -0.4386
  874MOL0     H17979   5.827   3.100   1.050  0.3456 -0.0667 -0.8561
  874MOL0     H17980   6.122   3.220   1.343 -0.4951 -0.7425 -0.8116
  874MOL0     H17981   5.990   3.305   1.427 -1.0164  0.6963 -1.3226
  874MOL0     H17982   6.073   3.013   1.420  0.6680  0.2395 -0.5971
  874MOL0     H17983   5.911   3.054   1.471  1.5057 -3.9700 -0.7156
  874MOL0     H17984   6.017   3.040   1.673  0.0823  0.0922  0.0535
  874MOL0     H17985   6.011   3.213   1.649 -1.7894 -0.9248  0.0227
  874MOL0     H17986   6.230   3.231   1.649 -1.2593 -0.9545  2.0901
  874MOL0     H17987   6.268   3.127   1.521  0.1499 -0.7146 -0.1791
  874MOL0     H17988   6.355   2.840   1.822  2.0182  0.9415  1.9552
  874MOL0     H17989   5.760   3.327   1.409  3.2107 -0.1692 -0.8066
  874MOL0     H17990   5.515   3.300   1.380  0.4822 -1.5918  2.2145
  875MOL0     O17991   3.875   5.966   4.170  0.3968 -0.2686 -1.5587
  875MOL0     C17992   3.795   5.945   4.253  0.6378  0.3493  0.3518
  875MOL0     O17993   3.663   5.923   4.222 -0.1767 -0.0807  0.6382
  875MOL0     C17994   3.619   5.975   4.113 -0.3501 -0.5886 -0.4252
  875MOL0     C17995   3.554   6.097   4.116 -0.4865  0.0841  0.6699
  875MOL0     C17996   3.497   6.153   3.998  0.1462 -0.4642  0.4629
  875MOL0     C17997   3.512   6.092   3.870 -0.4671 -0.0823  0.5781
  875MOL0     O17998   3.461   6.140   3.754  0.7417  0.0348 -0.0336
  875MOL0     C17999   3.333   6.212   3.760  0.1790 -0.6311  1.4592
  875MOL0     C18000   3.235   6.097   3.768  0.5980  0.3815  0.4624
  875MOL0     C18001   3.220   6.013   3.634  1.1597  1.2671 -0.1698
  875MOL0     C18002   3.164   5.874   3.652 -0.3031 -0.0274  0.0740
  875MOL0     C18003   3.179   5.796   3.528 -0.0182  0.0346 -0.0558
  875MOL0     C18004   3.106   5.663   3.546  0.3156  0.2602 -0.4425
  875MOL0     C18005   3.104   5.593   3.412  0.2886  0.1609  0.4595
  875MOL0     C18006   3.025   5.463   3.409  0.1099 -0.1464 -0.8511
  875MOL0     N18007   2.886   5.497   3.376  0.3223 -0.0500  0.6575
  875MOL0     C18008   2.843   5.501   3.245 -0.2729 -0.6201 -0.1202
  875MOL0     C18009   2.712   5.539   3.258 -0.6105 -1.2455 -0.0472
  875MOL0     C18010   2.619   5.551   3.141  1.0914 -0.1217  1.2301
  875MOL0     C18011   2.611   5.411   3.069  0.3509 -0.3705  0.2232
  875MOL0     C18012   2.643   5.433   2.922  0.2639  1.0430  0.0192
  875MOL0     C18013   2.648   5.297   2.867  1.3260  0.4412  0.1673
  875MOL0     O18014   2.651   5.311   2.726 -0.4773  0.0504 -0.4852
  875MOL0     C18015   2.531   5.289   2.656 -0.1553  0.6024  0.6632
  875MOL0     C18016   2.398   5.305   2.711 -1.4878 -0.0781  0.1604
  875MOL0     C18017   2.284   5.296   2.623 -0.4532 -1.0707 -0.2918
  875MOL0     C18018   2.147   5.319   2.672  0.7423  0.1082  0.0772
  875MOL0     C18019   2.310   5.254   2.488  0.6948 -0.6037  0.3865
  875MOL0     C18020   2.202   5.238   2.395  1.1425  1.0852  1.7164
  875MOL0     O18021   2.092   5.167   2.429  0.5637  0.2395  0.4616
  875MOL0     C18022   1.984   5.134   2.344 -0.8993  0.0976 -0.7393
  875MOL0     C18023   1.932   5.220   2.244  0.6755 -0.0380  0.1794
  875MOL0     C18024   1.833   5.171   2.159  0.4836  0.2707  0.0436
  875MOL0     C18025   1.770   5.048   2.182 -0.3684 -0.1207  0.5402
  875MOL0     O18026   1.660   5.007   2.110  0.1740 -0.0392 -0.2538
  875MOL0     C18027   1.563   4.911   2.167 -0.3275 -0.0818  0.8060
  875MOL0     C18028   1.475   4.976   2.269  0.3805 -0.1639  0.7136
  875MOL0     C18029   1.379   5.065   2.194 -0.7915  0.3502 -0.6682
  875MOL0     C18030   1.282   5.138   2.282  0.3061 -0.6152 -0.5700
  875MOL0     C18031   1.193   5.231   2.199 -0.0701  0.0243 -0.6372
  875MOL0     C18032   1.085   5.323   2.264 -0.0886 -0.2678 -0.2960
  875MOL0     C18033   1.036   5.441   2.168  0.3222 -0.1909 -0.4574
  875MOL0     C18034   0.971   5.543   2.248  0.6076 -0.0778 -0.7202
  875MOL0    Cl18035   0.848   5.448   2.342  0.6867 -0.1412  0.1340
  875MOL0     C18036   1.819   4.972   2.289  1.0233  0.2152 -0.6026
  875MOL0     C18037   1.915   5.024   2.377 -0.5414  0.2590 -1.2212
  875MOL0     O18038   2.230   5.273   2.277  0.4960 -0.3425  0.2559
  875MOL0     C18039   2.439   5.214   2.446 -0.2311  0.7665  0.1009
  875MOL0     C18040   2.549   5.237   2.528 -0.4488 -0.1601 -0.6180
  875MOL0     N18041   2.673   5.570   3.388 -0.2546 -0.3687 -0.3502
  875MOL0     N18042   2.781   5.545   3.462  0.5651 -0.5349  0.7149
  875MOL0     C18043   3.574   5.967   3.866  0.7442 -0.4368  0.0344
  875MOL0     C18044   3.617   5.904   3.988 -0.6199  0.8297 -0.0595
  875MOL0     C18045   3.844   5.939   4.390 -0.0939  0.4658  0.1557
  875MOL0     C18046   3.758   5.978   4.499  0.4234 -0.8167 -0.5981
  875MOL0     C18047   3.806   5.975   4.628  0.1243 -0.1947 -0.5712
  875MOL0     C18048   3.941   5.940   4.655 -1.0433  0.2613 -0.0988
  875MOL0     O18049   3.973   5.936   4.784 -0.5454  0.5730  0.6052
  875MOL0     C18050   4.104   5.973   4.826 -1.2340  0.3739  0.0666
  875MOL0     C18051   4.095   5.962   4.979 -0.4962  0.5223 -0.1394
  875MOL0     C18052   4.048   6.090   5.047  1.0012  0.8472 -0.0099
  875MOL0     C18053   3.954   6.056   5.165 -0.3719  0.1858  0.6380
  875MOL0     C18054   4.035   5.999   5.269  0.2865  0.0811  0.6713
  875MOL0     C18055   4.123   5.958   5.339 -0.3362 -0.0500 -0.0379
  875MOL0     C18056   4.027   5.900   4.550 -0.2392  0.7074 -0.9278
  875MOL0     C18057   3.984   5.897   4.417  0.7223 -0.0722  0.3320
  875MOL0     H18058   3.559   6.155   4.208 -1.1905 -0.0557  0.7971
  875MOL0     H18059   3.444   6.246   4.014  0.3509 -0.7276  3.1424
  875MOL0     H18060   3.327   6.290   3.837 -0.3335  2.5328 -1.5544
  875MOL0     H18061   3.317   6.259   3.663  1.7427 -3.5337 -0.3823
  875MOL0     H18062   3.261   6.020   3.841 -1.0922 -1.3785 -0.6997
  875MOL0     H18063   3.136   6.138   3.794  0.0572  0.9347 -2.2266
  875MOL0     H18064   3.142   6.057   3.570  1.3043  2.3174  0.3479
  875MOL0     H18065   3.315   6.004   3.582 -0.3837 -1.8306 -2.8358
  875MOL0     H18066   3.216   5.836   3.741  1.8198  4.2396  0.9299
  875MOL0     H18067   3.056   5.876   3.672 -0.6650 -2.5020 -1.3133
  875MOL0     H18068   3.131   5.857   3.451  2.2972  2.1766  0.0509
  875MOL0     H18069   3.284   5.787   3.498  0.2541 -0.2147  0.9353
  875MOL0     H18070   3.155   5.592   3.614  0.8177 -1.9501 -2.9462
  875MOL0     H18071   3.001   5.681   3.572  0.3079  0.8711 -0.8860
  875MOL0     H18072   3.076   5.657   3.328  2.6222 -1.0140 -1.3463
  875MOL0     H18073   3.207   5.561   3.391 -0.0962  0.2929 -2.0405
  875MOL0     H18074   3.028   5.414   3.507  0.7196  1.9102  0.2111
  875MOL0     H18075   3.067   5.392   3.337 -1.7704 -0.4798 -1.6831
  875MOL0     H18076   2.893   5.464   3.156  1.5162  0.0424  0.5580
  875MOL0     H18077   2.519   5.584   3.172  1.7331  2.6452  0.6224
  875MOL0     H18078   2.655   5.630   3.074  1.3768 -2.0060 -0.9620
  875MOL0     H18079   2.505   5.385   3.074  0.8182 -2.3488  0.3865
  875MOL0     H18080   2.661   5.322   3.107 -1.4231 -1.6272 -0.2827
  875MOL0     H18081   2.741   5.483   2.922  1.2131 -0.7297  1.1595
  875MOL0     H18082   2.573   5.492   2.862 -2.6642 -2.7689 -0.6698
  875MOL0     H18083   2.567   5.231   2.899  1.1929  1.6583  2.5397
  875MOL0     H18084   2.743   5.246   2.884  0.7794 -2.1042 -3.2491
  875MOL0     H18085   2.383   5.354   2.806  0.8219  1.3403 -0.1266
  875MOL0     H18086   2.083   5.386   2.615  1.1443  1.2971  0.9871
  875MOL0     H18087   2.094   5.224   2.685  1.4357 -0.1578  1.0625
  875MOL0     H18088   2.154   5.359   2.773 -0.2829  2.7880 -0.8173
  875MOL0     H18089   1.973   5.318   2.224  0.1890 -0.2626 -2.1999
  875MOL0     H18090   1.796   5.241   2.085  1.6315  0.6036 -0.2302
  875MOL0     H18091   1.502   4.859   2.093  0.1986  0.3231  0.0842
  875MOL0     H18092   1.616   4.825   2.210 -1.6350 -1.9672 -1.1906
  875MOL0     H18093   1.430   4.898   2.330 -1.4936 -1.6497 -2.3624
  875MOL0     H18094   1.543   5.032   2.335  3.8974 -2.1728 -0.8931
  875MOL0     H18095   1.319   5.011   2.121 -1.2789 -0.9638  0.6569
  875MOL0     H18096   1.436   5.142   2.141  0.1551 -0.2829 -0.6017
  875MOL0     H18097   1.219   5.082   2.352  1.0533  2.9106  3.2940
  875MOL0     H18098   1.332   5.195   2.360 -1.0759 -0.8379  0.5155
  875MOL0     H18099   1.138   5.165   2.131  1.3126 -2.3812  0.4521
  875MOL0     H18100   1.266   5.294   2.148  3.6663 -3.2479  0.1748
  875MOL0     H18101   0.996   5.261   2.279  0.8424 -1.9171 -1.2829
  875MOL0     H18102   1.126   5.371   2.353 -1.4500 -0.6811  0.5884
  875MOL0     H18103   0.977   5.419   2.078 -2.4345  1.7764  0.7220
  875MOL0     H18104   1.116   5.495   2.116 -1.2177  2.2458 -0.4783
  875MOL0     H18105   0.922   5.614   2.180  0.3020  1.4882  1.0549
  875MOL0     H18106   1.054   5.580   2.309  1.7978 -2.7212 -0.5793
  875MOL0     H18107   1.783   4.877   2.328  1.0946 -0.7820 -2.8052
  875MOL0     H18108   1.959   4.968   2.459  1.0582  0.3922 -1.9609
  875MOL0     H18109   2.458   5.178   2.346 -2.3167 -2.5393  0.7309
  875MOL0     H18110   2.650   5.209   2.501 -0.3520 -1.0425  0.5743
  875MOL0     H18111   3.593   5.921   3.770  3.9321 -0.1224  0.4036
  875MOL0     H18112   3.649   5.800   3.996  0.4422  1.0731 -0.9263
  875MOL0     H18113   3.654   6.000   4.478  0.9490  1.1228 -1.3400
  875MOL0     H18114   3.736   6.000   4.707  0.5675 -0.9990  0.1047
  875MOL0     H18115   4.171   5.893   4.793  0.7487  1.3065  1.6145
  875MOL0     H18116   4.149   6.058   4.773 -0.9384 -0.4232 -1.0081
  875MOL0     H18117   4.191   5.929   5.020 -0.8462  0.7467  0.8858
  875MOL0     H18118   4.028   5.877   4.997 -1.7636  2.1058  3.4200
  875MOL0     H18119   3.992   6.146   4.972 -0.0525 -2.8121 -2.2206
  875MOL0     H18120   4.131   6.154   5.078 -0.8148  2.9390  0.8029
  875MOL0     H18121   3.870   5.990   5.140 -1.8722  1.0926  2.9648
  875MOL0     H18122   3.898   6.144   5.195 -0.5329  1.4810 -2.9643
  875MOL0     H18123   4.212   5.922   5.387  0.6053  3.5643  1.2243
  875MOL0     H18124   4.127   5.867   4.574 -1.4381  0.0533  4.2010
  875MOL0     H18125   4.047   5.863   4.335 -1.2265 -0.2020 -1.1727
  876MOL0     O18126   6.827   5.872   9.392  0.5700  0.2632  0.7396
  876MOL0     C18127   6.740   5.792   9.436  0.3587 -0.2264 -0.0245
  876MOL0     O18128   6.740   5.653   9.418 -0.8317 -0.0267  0.6585
  876MOL0     C18129   6.849   5.602   9.354 -0.2666 -0.1179  0.2503
  876MOL0     C18130   6.853   5.625   9.214 -0.2449 -0.6410  0.0493
  876MOL0     C18131   6.969   5.589   9.135 -0.0400  0.0365 -0.3918
  876MOL0     C18132   7.066   5.507   9.198 -0.6283 -0.7316  0.0263
  876MOL0     O18133   7.186   5.448   9.150 -0.0523 -0.5874 -0.2352
  876MOL0     C18134   7.212   5.458   9.016  0.1098 -0.5944  0.0978
  876MOL0     C18135   7.336   5.370   8.986  0.6734  0.7675  0.0312
  876MOL0     C18136   7.394   5.400   8.851  0.4344  0.7689  0.2588
  876MOL0     C18137   7.300   5.397   8.732  0.1247  0.0665  0.4922
  876MOL0     C18138   7.373   5.403   8.598 -0.5942 -0.2726  0.3712
  876MOL0     C18139   7.277   5.386   8.486  0.8132  0.1844  0.1265
  876MOL0     C18140   7.334   5.406   8.346 -0.4003  0.5451  0.0661
  876MOL0     C18141   7.236   5.372   8.237 -0.4335  0.7286  0.5989
  876MOL0     N18142   7.289   5.364   8.094 -0.0886 -0.0920  0.0508
  876MOL0     C18143   7.348   5.480   8.034 -0.0839  0.5755 -0.3703
  876MOL0     C18144   7.355   5.461   7.902 -0.6276 -0.2798 -0.1824
  876MOL0     C18145   7.427   5.563   7.804 -0.2400  0.2768  0.4813
  876MOL0     C18146   7.406   5.721   7.816  0.1606  0.9414 -0.3597
  876MOL0     C18147   7.270   5.757   7.756 -0.4243 -0.1998  0.5636
  876MOL0     C18148   7.150   5.683   7.816 -0.7787  0.3366  0.4873
  876MOL0     O18149   7.139   5.710   7.962  0.0590  0.4760 -0.2256
  876MOL0     C18150   7.019   5.707   8.021 -0.1173  0.0114  0.3070
  876MOL0     C18151   6.898   5.663   7.966  0.6688 -0.2479 -0.3800
  876MOL0     C18152   6.778   5.655   8.033 -0.0899  0.7730 -0.3424
  876MOL0     C18153   6.661   5.606   7.959  0.1350  0.3309 -0.1843
  876MOL0     C18154   6.777   5.696   8.174  0.0626  0.6492 -0.9566
  876MOL0     C18155   6.656   5.678   8.264 -1.0678  0.0725  0.8433
  876MOL0     O18156   6.654   5.762   8.370 -0.8960 -0.8930 -1.0368
  876MOL0     C18157   6.547   5.774   8.449  0.0087  0.1039  0.7447
  876MOL0     C18158   6.415   5.770   8.388 -0.4243  0.1202 -0.8304
  876MOL0     C18159   6.307   5.792   8.468  0.7608 -0.8783  0.1733
  876MOL0     C18160   6.318   5.829   8.600 -0.2513  0.3809 -1.0819
  876MOL0     O18161   6.203   5.865   8.667 -0.8896  0.7358  0.9603
  876MOL0     C18162   6.188   6.002   8.693 -0.7037  0.1908 -0.8349
  876MOL0     C18163   6.039   6.034   8.734 -0.2686 -0.7539  0.1360
  876MOL0     C18164   5.993   5.934   8.839 -0.1975  0.0359  0.2735
  876MOL0     C18165   5.841   5.964   8.853 -1.0415 -0.3928  0.0112
  876MOL0     C18166   5.762   5.847   8.930 -0.4159  0.3528  1.4527
  876MOL0     C18167   5.622   5.897   8.979  0.7081 -0.5709 -0.2359
  876MOL0     C18168   5.554   5.788   9.065 -0.9921 -0.7274  0.5286
  876MOL0     C18169   5.408   5.813   9.057  0.9291 -0.3517  1.0550
  876MOL0    Cl18170   5.356   5.733   8.907  0.0737  0.2137  0.2644
  876MOL0     C18171   6.441   5.825   8.663 -0.6233 -0.2638 -0.3315
  876MOL0     C18172   6.551   5.800   8.591 -0.2052  0.3590  0.4643
  876MOL0     O18173   6.576   5.590   8.239 -0.1037 -0.3030 -0.0903
  876MOL0     C18174   6.895   5.745   8.222 -0.2320  0.0543 -0.0984
  876MOL0     C18175   7.014   5.750   8.152  1.1284 -0.3059 -0.5919
  876MOL0     N18176   7.291   5.341   7.876 -0.0557  0.5077 -0.6385
  876MOL0     N18177   7.250   5.280   7.991 -0.2672  0.4127  0.0362
  876MOL0     C18178   7.052   5.472   9.331 -0.3597 -0.1083 -0.3550
  876MOL0     C18179   6.941   5.513   9.409 -0.0960 -1.0714 -0.3448
  876MOL0     C18180   6.631   5.843   9.507  1.3306 -0.0068  1.2600
  876MOL0     C18181   6.595   5.780   9.627 -0.2894 -0.9230  0.2203
  876MOL0     C18182   6.500   5.842   9.708  0.9846  0.2336 -0.1080
  876MOL0     C18183   6.442   5.964   9.669 -0.5075  0.0469 -0.6161
  876MOL0     O18184   6.355   6.012   9.763  0.0684 -0.4879 -0.1290
  876MOL0     C18185   6.292   6.141   9.741  0.9110 -0.1746  0.8109
  876MOL0     C18186   6.205   6.185   9.864 -0.4398 -0.5736  0.1705
  876MOL0     C18187   6.164   6.330   9.841 -0.2355 -0.2979  0.4519
  876MOL0     C18188   6.033   6.337   9.769  0.5583  0.7635 -0.1065
  876MOL0     C18189   5.915   6.292   9.849  0.4542 -0.0523  0.0167
  876MOL0     C18190   5.815   6.255   9.907 -0.7682  1.0890  0.3293
  876MOL0     C18191   6.468   6.027   9.555 -0.1623 -0.1361  0.9483
  876MOL0     C18192   6.574   5.972   9.480  0.1954  0.8827  0.1284
  876MOL0     H18193   6.772   5.681   9.170  0.1917 -1.4967 -1.9811
  876MOL0     H18194   6.981   5.639   9.039  0.2855  0.4765 -0.1268
  876MOL0     H18195   7.122   5.437   8.959 -1.1429  2.3171  0.8058
  876MOL0     H18196   7.246   5.561   8.999 -1.1847 -0.3773 -1.3253
  876MOL0     H18197   7.406   5.382   9.069 -1.0784 -1.1994  1.9519
  876MOL0     H18198   7.306   5.264   8.988 -1.8859  1.3055 -2.8518
  876MOL0     H18199   7.448   5.495   8.848  2.3446 -0.2797 -1.2115
  876MOL0     H18200   7.480   5.338   8.824  0.1416  0.7209 -0.5902
  876MOL0     H18201   7.236   5.308   8.725  2.0729 -1.2604 -1.5453
  876MOL0     H18202   7.238   5.487   8.727  0.7424  0.4311 -2.0262
  876MOL0     H18203   7.411   5.504   8.582  1.1545 -1.2442 -2.2592
  876MOL0     H18204   7.458   5.334   8.591 -0.4453  0.1015 -2.6701
  876MOL0     H18205   7.243   5.284   8.501  2.2020 -0.1507  1.2386
  876MOL0     H18206   7.191   5.452   8.498 -0.0978 -0.8997 -0.2923
  876MOL0     H18207   7.352   5.513   8.334  1.2252  0.1291 -1.6822
  876MOL0     H18208   7.431   5.360   8.326  0.1723  1.7074  0.0469
  876MOL0     H18209   7.156   5.446   8.232  0.0640  1.4471  2.3667
  876MOL0     H18210   7.198   5.270   8.252  3.5765 -1.5564 -2.7005
  876MOL0     H18211   7.374   5.577   8.075 -0.8021  1.6898 -2.4221
  876MOL0     H18212   7.534   5.545   7.823 -0.0668  0.8528  0.0654
  876MOL0     H18213   7.413   5.527   7.702 -2.1687 -2.8931  1.7272
  876MOL0     H18214   7.480   5.774   7.754 -1.2381  1.4276 -1.6867
  876MOL0     H18215   7.406   5.768   7.914 -0.0783 -0.7636  0.4952
  876MOL0     H18216   7.277   5.742   7.648  3.5705  5.6054 -0.4041
  876MOL0     H18217   7.249   5.863   7.769  0.1984  0.1470 -1.0061
  876MOL0     H18218   7.174   5.576   7.813  2.1405  0.9305 -1.6184
  876MOL0     H18219   7.058   5.709   7.763 -1.1914  4.2289  2.7182
  876MOL0     H18220   6.901   5.626   7.864  0.0557  1.9816 -1.2725
  876MOL0     H18221   6.561   5.632   7.996 -0.2142  1.9224 -2.0562
  876MOL0     H18222   6.670   5.642   7.856 -1.4797  0.7724 -0.2053
  876MOL0     H18223   6.666   5.497   7.957  4.4799  0.3328  0.5507
  876MOL0     H18224   6.405   5.737   8.285 -2.1067 -2.0183 -0.0521
  876MOL0     H18225   6.207   5.803   8.426 -0.7792  0.0545  3.7335
  876MOL0     H18226   6.257   6.047   8.765 -2.1344  2.4483 -0.7977
  876MOL0     H18227   6.207   6.061   8.603  0.6141  2.6794  0.9496
  876MOL0     H18228   6.019   6.137   8.764  1.8669 -0.2057 -0.1423
  876MOL0     H18229   5.978   6.035   8.644 -1.8486  0.3982  1.1650
  876MOL0     H18230   6.046   5.964   8.930  2.1222  1.8575 -1.5646
  876MOL0     H18231   6.016   5.831   8.814  3.0661  0.4895  0.9292
  876MOL0     H18232   5.831   6.063   8.897 -0.5043  0.1258 -0.9896
  876MOL0     H18233   5.793   5.973   8.754 -2.0112  1.8640  0.6291
  876MOL0     H18234   5.820   5.809   9.015 -1.1031 -0.9420  1.3707
  876MOL0     H18235   5.744   5.755   8.873 -1.5225  0.6572  1.2954
  876MOL0     H18236   5.621   5.998   9.022 -1.4633 -0.0875 -1.2597
  876MOL0     H18237   5.572   5.904   8.881  1.8137 -0.5836 -0.8215
  876MOL0     H18238   5.583   5.805   9.169  1.0748 -0.2362 -0.0751
  876MOL0     H18239   5.572   5.685   9.034 -1.0431 -0.8675  0.9526
  876MOL0     H18240   5.382   5.919   9.065 -1.0773 -0.6197 -1.0555
  876MOL0     H18241   5.351   5.766   9.138 -3.1511  2.0377 -0.1833
  876MOL0     H18242   6.449   5.856   8.767  2.7041  2.2821 -1.1630
  876MOL0     H18243   6.649   5.803   8.638  0.0385  1.8964 -0.1069
  876MOL0     H18244   6.897   5.775   8.326 -1.6697  1.3730 -0.4102
  876MOL0     H18245   7.095   5.783   8.215 -0.4308 -1.4794  2.2264
  876MOL0     H18246   7.136   5.422   9.379  0.4967  2.6272  1.2798
  876MOL0     H18247   6.942   5.481   9.513 -0.1941 -0.5953 -0.1977
  876MOL0     H18248   6.655   5.695   9.659  2.6563 -0.5183 -3.5413
  876MOL0     H18249   6.470   5.793   9.800  0.5477 -2.1657 -1.4447
  876MOL0     H18250   6.371   6.215   9.724  0.1318  0.4366 -0.2631
  876MOL0     H18251   6.224   6.151   9.656 -1.6097 -1.3172  2.5776
  876MOL0     H18252   6.249   6.173   9.963 -0.4318 -1.2319  0.0958
  876MOL0     H18253   6.119   6.117   9.857 -0.1879 -0.7507 -4.8822
  876MOL0     H18254   6.237   6.384   9.779 -1.3084 -0.6826 -1.2068
  876MOL0     H18255   6.160   6.378   9.939 -0.9802 -1.2504  0.9050
  876MOL0     H18256   6.035   6.274   9.680 -0.6373  0.0555  0.3540
  876MOL0     H18257   6.013   6.435   9.723 -2.5108 -0.5076 -1.8043
  876MOL0     H18258   5.726   6.227   9.959 -0.0408 -1.4322  0.3821
  876MOL0     H18259   6.418   6.113   9.513 -0.9228 -1.5189 -1.1231
  876MOL0     H18260   6.612   6.034   9.399  2.7319 -1.4387 -0.6262
  877MOL0     O18261   2.769   0.200   2.501  0.7951  0.1131 -0.1677
  877MOL0     C18262   2.720   0.306   2.463  0.2476  0.4824 -0.8822
  877MOL0     O18263   2.793   0.413   2.425  0.3059 -1.1114  1.2223
  877MOL0     C18264   2.930   0.413   2.419  0.0050  0.0339  0.4284
  877MOL0     C18265   3.009   0.421   2.528  0.1381 -0.6906 -0.5974
  877MOL0     C18266   3.151   0.423   2.507  0.4949 -0.4625  0.2683
  877MOL0     C18267   3.208   0.424   2.375  0.1264  0.5090 -0.7026
  877MOL0     O18268   3.342   0.441   2.355  0.3544 -0.2116  0.7707
  877MOL0     C18269   3.394   0.535   2.265 -0.1680 -0.5836 -0.0529
  877MOL0     C18270   3.539   0.541   2.302 -1.0416 -0.5033  1.0440
  877MOL0     C18271   3.623   0.424   2.286 -0.2310 -0.3732  0.5719
  877MOL0     C18272   3.765   0.446   2.334 -1.7143  0.8276 -0.1532
  877MOL0     C18273   3.858   0.320   2.303  0.1801 -0.2164 -0.1368
  877MOL0     C18274   3.994   0.336   2.376 -1.3240 -0.0665  0.2122
  877MOL0     C18275   4.117   0.274   2.313 -0.9056 -0.8796 -0.4472
  877MOL0     C18276   4.249   0.305   2.395  0.1769  0.1592 -0.9180
  877MOL0     N18277   4.252   0.227   2.525 -0.9964  0.1999 -0.0485
  877MOL0     C18278   4.215   0.096   2.560  0.1688  0.6677 -0.2428
  877MOL0     C18279   4.260   0.072   2.687 -0.5256 -0.7573  0.1396
  877MOL0     C18280   4.277  -0.062   2.753 -0.3109 -0.4821 -0.0921
  877MOL0     C18281   4.369  -0.169   2.694  0.2237 -0.4885  0.0143
  877MOL0     C18282   4.509  -0.105   2.657 -0.3648 -1.1798  0.1738
  877MOL0     C18283   4.599  -0.210   2.593  0.0435  1.5280  0.3365
  877MOL0     O18284   4.536  -0.276   2.488 -0.1530  0.0030 -0.0574
  877MOL0     C18285   4.595  -0.383   2.431 -1.2247 -0.5718 -0.1744
  877MOL0     C18286   4.521  -0.441   2.327  0.4113  0.0072 -0.3938
  877MOL0     C18287   4.580  -0.536   2.232  0.2797 -0.5465 -0.0200
  877MOL0     C18288   4.530  -0.555   2.087 -0.8612 -0.1405  0.3525
  877MOL0     C18289   4.710  -0.591   2.265  0.7790  0.1174  0.1192
  877MOL0     C18290   4.765  -0.708   2.194 -0.2956  0.1754 -0.0125
  877MOL0     O18291   4.701  -0.759   2.085 -0.1261  0.3019  0.3396
  877MOL0     C18292   4.765  -0.859   2.019  0.1435 -0.6106  0.1852
  877MOL0     C18293   4.818  -0.841   1.887 -0.5343  0.3037  0.0474
  877MOL0     C18294   4.863  -0.954   1.819  0.2226  0.1837 -0.4637
  877MOL0     C18295   4.872  -1.081   1.883  0.2138 -0.5522  0.4086
  877MOL0     O18296   4.925  -1.185   1.815 -0.8474 -0.8443  0.0437
  877MOL0     C18297   5.054  -1.167   1.749  0.6337 -0.4462 -0.1760
  877MOL0     C18298   5.109  -1.305   1.697 -0.2554 -0.4368  0.2320
  877MOL0     C18299   5.229  -1.363   1.773 -0.2511 -0.0476 -0.1097
  877MOL0     C18300   5.363  -1.335   1.710  0.7409 -0.5752  0.8190
  877MOL0     C18301   5.473  -1.386   1.801  0.1934  0.4938  0.3818
  877MOL0     C18302   5.608  -1.343   1.738  0.6317  0.1756 -0.1611
  877MOL0     C18303   5.722  -1.377   1.837 -0.9395 -0.3085 -0.2234
  877MOL0     C18304   5.857  -1.360   1.769  1.0541  0.3262 -0.2427
  877MOL0    Cl18305   5.894  -1.218   1.669 -0.4543 -0.2888 -0.6281
  877MOL0     C18306   4.830  -1.090   2.016  0.5475 -1.5788 -0.0926
  877MOL0     C18307   4.775  -0.979   2.084  0.3697  0.4778  0.8893
  877MOL0     O18308   4.887  -0.734   2.222  0.0096  0.6195  0.4655
  877MOL0     C18309   4.775  -0.542   2.377  0.3547 -0.0712 -0.0951
  877MOL0     C18310   4.728  -0.430   2.452 -0.0938  0.1085 -0.2516
  877MOL0     N18311   4.315   0.192   2.737 -0.1089  1.0714 -0.4118
  877MOL0     N18312   4.311   0.279   2.644  0.3720 -0.0312 -0.0893
  877MOL0     C18313   3.124   0.406   2.269  0.5003 -0.2438  1.1368
  877MOL0     C18314   2.989   0.395   2.290 -0.3667 -0.3060 -0.4198
  877MOL0     C18315   2.579   0.342   2.492 -0.2301 -0.4327  0.0498
  877MOL0     C18316   2.516   0.436   2.408  0.1917 -0.2113 -0.4953
  877MOL0     C18317   2.387   0.470   2.421  0.9791 -0.1627 -0.3528
  877MOL0     C18318   2.315   0.433   2.531 -0.1578 -0.3927  0.9594
  877MOL0     O18319   2.182   0.470   2.563  0.0141 -0.4914  1.0356
  877MOL0     C18320   2.127   0.579   2.489 -0.0864 -0.5956  0.5213
  877MOL0     C18321   2.012   0.645   2.580 -0.0948 -0.0057 -0.1756
  877MOL0     C18322   2.074   0.760   2.663 -0.2043 -0.5033 -0.5274
  877MOL0     C18323   1.996   0.786   2.794  0.5940  0.5167  0.2817
  877MOL0     C18324   1.849   0.791   2.787  0.2236 -0.7275  0.6663
  877MOL0     C18325   1.727   0.792   2.770  0.2560 -0.3460  1.0287
  877MOL0     C18326   2.377   0.342   2.612  0.6940 -0.0754 -0.4952
  877MOL0     C18327   2.511   0.295   2.598  0.7261  0.3711 -0.1854
  877MOL0     H18328   2.971   0.436   2.629  0.7077 -3.2483  0.0897
  877MOL0     H18329   3.221   0.442   2.588  0.3492  0.0109  0.2899
  877MOL0     H18330   3.370   0.508   2.162  3.6971 -0.7605 -1.0808
  877MOL0     H18331   3.360   0.639   2.268  1.4198  0.0123 -1.3309
  877MOL0     H18332   3.581   0.614   2.232  0.9174 -0.9364  1.6876
  877MOL0     H18333   3.550   0.578   2.405 -0.1027  1.6898  0.2136
  877MOL0     H18334   3.578   0.347   2.350 -2.7352  0.8705  0.4518
  877MOL0     H18335   3.625   0.393   2.181 -0.7159 -0.4001  0.5674
  877MOL0     H18336   3.815   0.540   2.307 -2.2389  0.8921 -0.9393
  877MOL0     H18337   3.756   0.454   2.443  1.7652 -2.4376  0.6112
  877MOL0     H18338   3.807   0.230   2.336  1.1660 -0.5567  0.5089
  877MOL0     H18339   3.865   0.318   2.194 -0.2945 -1.7088 -0.1567
  877MOL0     H18340   4.002   0.443   2.400 -2.9779 -0.1744  1.3505
  877MOL0     H18341   3.994   0.288   2.474  0.8045 -1.5555 -0.4443
  877MOL0     H18342   4.107   0.166   2.309  1.7747 -1.3358  1.7841
  877MOL0     H18343   4.133   0.323   2.216  1.2570  2.2495  1.2890
  877MOL0     H18344   4.257   0.413   2.414  4.2402  0.1377 -1.5115
  877MOL0     H18345   4.338   0.283   2.335 -0.7908 -2.8229 -1.3908
  877MOL0     H18346   4.161   0.020   2.503  0.1318  0.3655  0.1935
  877MOL0     H18347   4.306  -0.050   2.858  0.9131 -0.1043 -0.4701
  877MOL0     H18348   4.172  -0.092   2.761 -0.7065  0.7057 -0.6226
  877MOL0     H18349   4.315  -0.209   2.607 -0.2456  1.0621 -0.4520
  877MOL0     H18350   4.385  -0.251   2.764  2.3671  1.8756  2.5007
  877MOL0     H18351   4.567  -0.063   2.740  1.3840  1.2103 -2.0969
  877MOL0     H18352   4.489  -0.027   2.584  0.1421 -1.6342 -0.4658
  877MOL0     H18353   4.622  -0.285   2.669  0.1242 -0.9115 -1.9763
  877MOL0     H18354   4.690  -0.179   2.539  0.1074  0.7321 -0.0164
  877MOL0     H18355   4.418  -0.414   2.307 -3.1114 -7.2715  3.7601
  877MOL0     H18356   4.608  -0.538   2.012 -1.6709  2.0747 -0.0650
  877MOL0     H18357   4.485  -0.654   2.073  0.5648 -0.7169 -0.4036
  877MOL0     H18358   4.453  -0.478   2.074  0.4886  0.9952 -1.2650
  877MOL0     H18359   4.817  -0.745   1.838 -1.5566  0.7081  0.8266
  877MOL0     H18360   4.922  -0.947   1.728  2.8214  0.5675  1.1600
  877MOL0     H18361   5.039  -1.093   1.669 -0.4156  0.5506  0.9081
  877MOL0     H18362   5.132  -1.130   1.817  0.2743  3.1220 -1.4868
  877MOL0     H18363   5.032  -1.383   1.692 -1.5612  0.7831 -4.5232
  877MOL0     H18364   5.128  -1.284   1.591  0.0848 -3.0811 -0.3107
  877MOL0     H18365   5.213  -1.471   1.781 -5.8170  0.5227  0.8499
  877MOL0     H18366   5.226  -1.309   1.868  0.3629  1.0894 -0.7186
  877MOL0     H18367   5.367  -1.380   1.610  0.6642  3.8345 -1.4254
  877MOL0     H18368   5.373  -1.226   1.704  0.8317 -0.5715  1.0327
  877MOL0     H18369   5.461  -1.493   1.820  3.0186 -0.0847 -0.5242
  877MOL0     H18370   5.455  -1.337   1.897 -0.2943 -2.3549  1.8349
  877MOL0     H18371   5.641  -1.398   1.649  2.4584 -2.6420  2.0696
  877MOL0     H18372   5.609  -1.235   1.719 -0.4130 -0.0622 -1.7378
  877MOL0     H18373   5.708  -1.480   1.872 -1.4889 -0.7430 -1.6369
  877MOL0     H18374   5.719  -1.297   1.911 -0.5478  0.5442 -1.0973
  877MOL0     H18375   5.884  -1.452   1.716  0.5750  0.6535 -1.0747
  877MOL0     H18376   5.922  -1.360   1.857  2.1445 -1.7336 -0.9733
  877MOL0     H18377   4.849  -1.190   2.055  4.7212 -1.1500 -0.5470
  877MOL0     H18378   4.755  -0.988   2.190  1.6696 -2.2118  1.0015
  877MOL0     H18379   4.873  -0.574   2.412  2.1653  4.5084 -0.3295
  877MOL0     H18380   4.785  -0.385   2.533  2.7059 -3.2576 -0.0884
  877MOL0     H18381   3.160   0.398   2.167 -3.0055  0.6564 -0.3334
  877MOL0     H18382   2.928   0.383   2.201 -1.3645 -2.2208  0.4615
  877MOL0     H18383   2.568   0.487   2.326  0.7748  2.3049  1.3139
  877MOL0     H18384   2.350   0.528   2.337  2.6687  3.4499  1.1665
  877MOL0     H18385   2.211   0.644   2.463  2.0783 -2.9195  1.2889
  877MOL0     H18386   2.078   0.542   2.398 -1.8198 -0.6887  1.4454
  877MOL0     H18387   1.973   0.572   2.651  0.5033 -0.9970 -0.8378
  877MOL0     H18388   1.929   0.669   2.513  0.4148 -0.7391 -1.0937
  877MOL0     H18389   2.089   0.856   2.613  2.4168  0.6353  2.1087
  877MOL0     H18390   2.178   0.734   2.688  0.8175  3.8247  0.6882
  877MOL0     H18391   2.039   0.873   2.844  1.3247 -0.0527  0.6700
  877MOL0     H18392   2.016   0.692   2.847  0.0919 -1.9292 -3.4963
  877MOL0     H18393   1.626   0.785   2.736  0.7049  0.5311 -0.5814
  877MOL0     H18394   2.317   0.285   2.683  0.5240 -0.9593 -1.3266
  877MOL0     H18395   2.549   0.219   2.664 -0.4737  0.6354  0.8349
  878MOL0     O18396  10.341   9.760   2.942  1.0294  0.1279 -0.2149
  878MOL0     C18397  10.424   9.674   2.938 -0.3440 -0.1981  0.6909
  878MOL0     O18398  10.442   9.576   3.038 -0.1351  0.2187 -0.2498
  878MOL0     C18399  10.358   9.560   3.139 -1.1552  0.6750  0.9401
  878MOL0     C18400  10.216   9.582   3.137  0.1843 -0.2691 -0.7442
  878MOL0     C18401  10.142   9.564   3.258  0.0142 -1.0095 -0.3698
  878MOL0     C18402  10.215   9.525   3.375  1.1357  0.3033  0.9736
  878MOL0     O18403  10.139   9.504   3.482 -0.0630 -0.8055  0.4999
  878MOL0     C18404  10.182   9.402   3.570 -1.2606  0.1214  0.2952
  878MOL0     C18405  10.083   9.383   3.690 -0.2237 -0.1801 -0.8596
  878MOL0     C18406  10.054   9.233   3.721  0.2002 -0.1375  0.2003
  878MOL0     C18407   9.912   9.213   3.790  0.3789  0.4125  0.7621
  878MOL0     C18408   9.866   9.330   3.884  0.2440 -0.4094 -0.1805
  878MOL0     C18409   9.760   9.310   3.985 -0.9893 -0.4003 -0.1603
  878MOL0     C18410   9.637   9.243   3.916  0.3109  0.2775 -0.3266
  878MOL0     C18411   9.514   9.222   4.013  0.1514 -0.9197  0.0967
  878MOL0     N18412   9.479   9.342   4.089  0.2146 -0.7957 -0.0569
  878MOL0     C18413   9.463   9.470   4.048 -0.1919 -0.1652  0.5341
  878MOL0     C18414   9.444   9.553   4.153  0.9086 -0.6879 -0.3672
  878MOL0     C18415   9.421   9.698   4.175 -0.0020  0.5314  1.0501
  878MOL0     C18416   9.543   9.788   4.215 -0.4246  0.9444 -0.0192
  878MOL0     C18417   9.639   9.789   4.094 -0.1575 -0.1307  0.9972
  878MOL0     C18418   9.752   9.883   4.116 -0.1002  0.8533  0.1462
  878MOL0     O18419   9.847   9.887   3.999 -0.4033 -0.5057  0.0898
  878MOL0     C18420   9.957   9.800   3.992  0.2722  0.3786 -0.5182
  878MOL0     C18421  10.066   9.832   3.915 -0.7709  0.0346  0.7240
  878MOL0     C18422  10.177   9.747   3.890  1.6341 -1.0101 -0.0258
  878MOL0     C18423  10.296   9.792   3.799  0.4870  0.6400 -1.2760
  878MOL0     C18424  10.189   9.630   3.978 -1.3453 -0.1555 -0.6997
  878MOL0     C18425  10.310   9.535   3.985 -0.1584 -0.9590 -0.0949
  878MOL0     O18426  10.305   9.463   4.098  0.3580  0.5802  0.2785
  878MOL0     C18427  10.432   9.433   4.142  0.2347 -0.5173 -0.3026
  878MOL0     C18428  10.537   9.534   4.156  0.6972  0.9714  0.3227
  878MOL0     C18429  10.667   9.501   4.181  0.5749 -0.0350 -0.2338
  878MOL0     C18430  10.704   9.368   4.201 -0.3662  0.4235 -0.6006
  878MOL0     O18431  10.829   9.317   4.239  0.2549 -0.2796 -0.3428
  878MOL0     C18432  10.938   9.402   4.202 -0.1802  0.4502 -0.3004
  878MOL0     C18433  11.056   9.310   4.232 -0.1626  0.6786 -0.1981
  878MOL0     C18434  11.181   9.391   4.247  0.8479 -0.3556 -0.8081
  878MOL0     C18435  11.295   9.284   4.268  0.4195 -0.2896 -0.2811
  878MOL0     C18436  11.422   9.364   4.306 -0.6940  0.6293  0.4666
  878MOL0     C18437  11.546   9.274   4.302 -0.5097 -0.2177  1.2211
  878MOL0     C18438  11.659   9.355   4.367  0.2792 -0.6925  0.5670
  878MOL0     C18439  11.776   9.275   4.413 -0.9831  0.2602 -1.0080
  878MOL0    Cl18440  11.744   9.186   4.561  0.3718  0.0301 -0.1015
  878MOL0     C18441  10.604   9.270   4.178  0.3219  0.1842  0.8836
  878MOL0     C18442  10.473   9.302   4.148 -0.3699  0.0378 -0.0591
  878MOL0     O18443  10.390   9.520   3.896  0.5129  0.8149  1.3621
  878MOL0     C18444  10.079   9.594   4.063 -0.2282 -0.3295 -0.1568
  878MOL0     C18445   9.965   9.681   4.065 -0.7095  0.6098 -0.6129
  878MOL0     N18446   9.452   9.470   4.260  0.7470  0.9472 -0.2081
  878MOL0     N18447   9.471   9.346   4.226 -0.0607  0.4408 -0.7269
  878MOL0     C18448  10.353   9.501   3.367  0.7385  0.0413 -0.6324
  878MOL0     C18449  10.419   9.515   3.249 -0.4223  0.7541  1.0370
  878MOL0     C18450  10.513   9.666   2.816  0.8968  1.1935  0.3775
  878MOL0     C18451  10.497   9.744   2.702 -0.4653  0.1106 -0.2863
  878MOL0     C18452  10.571   9.730   2.586 -0.4036  0.4706 -0.6578
  878MOL0     C18453  10.688   9.647   2.589  0.2019 -0.7517 -0.7040
  878MOL0     O18454  10.782   9.634   2.491  0.2406 -0.2787 -0.0936
  878MOL0     C18455  10.806   9.732   2.391 -0.4369 -0.7742 -0.1885
  878MOL0     C18456  10.952   9.756   2.395 -0.3996 -0.8960  0.0888
  878MOL0     C18457  10.985   9.888   2.321 -0.2965  0.8747  0.5756
  878MOL0     C18458  10.982   9.856   2.166 -0.0379  0.0216  0.4227
  878MOL0     C18459  11.025   9.964   2.080 -0.2559  0.0090  0.1963
  878MOL0     C18460  11.055  10.050   2.000  0.1810 -0.8103 -0.5836
  878MOL0     C18461  10.704   9.573   2.705  0.6855  0.1744  0.4420
  878MOL0     C18462  10.615   9.571   2.811  0.0247  1.0160 -0.3673
  878MOL0     H18463  10.168   9.613   3.045  2.0945 -0.0083 -1.7194
  878MOL0     H18464  10.035   9.585   3.261 -0.0680 -0.9339 -2.3856
  878MOL0     H18465  10.199   9.313   3.509 -1.5662 -0.5315  1.1344
  878MOL0     H18466  10.279   9.432   3.611  0.5290 -0.5619 -3.1027
  878MOL0     H18467  10.139   9.429   3.772  1.1948  0.9204 -2.3863
  878MOL0     H18468   9.990   9.438   3.673  0.7243  1.9722  0.4907
  878MOL0     H18469  10.069   9.173   3.631  2.1938 -3.4139  2.5071
  878MOL0     H18470  10.134   9.196   3.786 -1.0911 -0.0326  1.9047
  878MOL0     H18471   9.832   9.200   3.716  0.5023  0.9327  0.5344
  878MOL0     H18472   9.924   9.118   3.844 -1.1070 -1.2738 -1.6799
  878MOL0     H18473   9.955   9.353   3.943 -0.7061  0.1892  1.0700
  878MOL0     H18474   9.845   9.421   3.828 -0.3702  1.0746  2.3048
  878MOL0     H18475   9.797   9.247   4.066 -2.2533 -0.2757  0.5365
  878MOL0     H18476   9.731   9.407   4.028 -1.6836 -0.2953 -0.8607
  878MOL0     H18477   9.623   9.287   3.817 -1.0460 -0.3920 -0.4651
  878MOL0     H18478   9.659   9.136   3.909 -1.4539 -0.3617  2.3017
  878MOL0     H18479   9.536   9.148   4.091 -0.6942 -1.3509 -0.0656
  878MOL0     H18480   9.429   9.179   3.960  1.5234 -2.4924 -0.9187
  878MOL0     H18481   9.485   9.499   3.946 -0.9727  0.7319  0.6020
  878MOL0     H18482   9.359   9.736   4.093  0.5510 -2.0591 -0.6660
  878MOL0     H18483   9.355   9.700   4.262  1.7175  1.4546  2.3924
  878MOL0     H18484   9.590   9.753   4.307 -1.3068 -1.5307 -0.4468
  878MOL0     H18485   9.509   9.890   4.238  0.7533  1.5691 -0.9188
  878MOL0     H18486   9.583   9.816   4.004  1.6013  2.2970  0.5379
  878MOL0     H18487   9.677   9.688   4.076 -0.1440  0.3562 -2.3628
  878MOL0     H18488   9.801   9.851   4.209 -1.0483 -1.1238  0.0062
  878MOL0     H18489   9.725   9.989   4.121  3.8899  2.2101 -2.2636
  878MOL0     H18490  10.064   9.923   3.857  1.5629 -0.8465 -0.9121
  878MOL0     H18491  10.314   9.735   3.707  5.8504  2.0161 -1.3610
  878MOL0     H18492  10.293   9.897   3.770  1.7870  0.5901 -1.6321
  878MOL0     H18493  10.383   9.771   3.861 -1.2048 -1.3154  0.6472
  878MOL0     H18494  10.518   9.640   4.145  0.5694  0.8807 -0.4027
  878MOL0     H18495  10.744   9.577   4.174  3.1733 -2.4139  0.6738
  878MOL0     H18496  10.935   9.425   4.096 -2.0632 -0.9124 -0.6038
  878MOL0     H18497  10.952   9.492   4.262  1.5215  0.2531 -0.3546
  878MOL0     H18498  11.039   9.260   4.327  1.1979  2.8145  1.2675
  878MOL0     H18499  11.068   9.234   4.155  0.0837  0.1983  0.3121
  878MOL0     H18500  11.174   9.464   4.327  2.3755 -1.0906  0.0312
  878MOL0     H18501  11.202   9.436   4.150 -0.8197 -1.2085 -1.6268
  878MOL0     H18502  11.267   9.211   4.345  0.8723  1.2618  1.4411
  878MOL0     H18503  11.309   9.234   4.172  0.7118 -0.8883  0.0681
  878MOL0     H18504  11.418   9.407   4.406  1.7502 -1.5007  1.5924
  878MOL0     H18505  11.434   9.450   4.239 -1.6089 -1.3910 -2.5273
  878MOL0     H18506  11.544   9.184   4.363  1.5126 -0.4573  0.9886
  878MOL0     H18507  11.566   9.258   4.196 -1.6441  1.4649  0.7066
  878MOL0     H18508  11.621   9.419   4.447 -0.1806  2.3541 -1.8928
  878MOL0     H18509  11.695   9.428   4.294 -1.1252 -0.1632  0.3802
  878MOL0     H18510  11.856   9.349   4.419 -1.3491  0.6345 -0.6402
  878MOL0     H18511  11.793   9.213   4.325  0.2250  1.7441 -1.8628
  878MOL0     H18512  10.637   9.168   4.194  1.8302  0.1616 -1.8057
  878MOL0     H18513  10.407   9.219   4.127  1.3058 -1.1758 -0.7926
  878MOL0     H18514  10.081   9.507   4.127  3.9532  0.0942  0.5607
  878MOL0     H18515   9.884   9.646   4.128 -0.6873 -0.0488 -0.9363
  878MOL0     H18516  10.419   9.479   3.451 -1.5957  0.6935  1.5025
  878MOL0     H18517  10.522   9.484   3.235 -1.6779 -2.2004 -5.4387
  878MOL0     H18518  10.413   9.812   2.713  0.8287  1.9753 -1.4305
  878MOL0     H18519  10.541   9.794   2.504 -0.0547  1.3979 -0.0688
  878MOL0     H18520  10.779   9.710   2.287  1.1708 -0.6622 -0.6646
  878MOL0     H18521  10.752   9.824   2.414 -0.9866 -1.4607  1.3659
  878MOL0     H18522  11.002   9.668   2.352  0.6652  0.2679 -1.1489
  878MOL0     H18523  10.970   9.781   2.499  0.1303 -3.1990  0.6203
  878MOL0     H18524  11.089   9.913   2.344  0.4185 -1.3903  0.0250
  878MOL0     H18525  10.913   9.966   2.348 -0.6144  0.5759  0.5975
  878MOL0     H18526  10.880   9.824   2.142 -0.4619 -1.3081  3.4765
  878MOL0     H18527  11.045   9.768   2.150 -2.4391 -1.7252  0.0711
  878MOL0     H18528  11.087  10.127   1.932 -0.8785 -0.6910 -0.9644
  878MOL0     H18529  10.773   9.489   2.707 -0.9922 -1.3416 -0.8458
  878MOL0     H18530  10.643   9.529   2.907 -2.5718  1.1330  0.5041
  879MOL0     O18531   9.376  10.421   9.604  0.2880  0.5348 -0.3588
  879MOL0     C18532   9.430  10.393   9.710  0.2274  0.4400  0.1847
  879MOL0     O18533   9.377  10.324   9.813  0.1144  0.3166 -0.2272
  879MOL0     C18534   9.250  10.269   9.822 -0.2597 -0.4298  0.8427
  879MOL0     C18535   9.151  10.271   9.714 -0.1483 -0.2803  0.7221
  879MOL0     C18536   9.025  10.214   9.729 -0.0210 -0.1396 -0.1568
  879MOL0     C18537   8.994  10.143   9.855  0.2131  0.3638  0.5959
  879MOL0     O18538   8.879  10.082   9.884  1.0793  0.3911 -0.6753
  879MOL0     C18539   8.799  10.056   9.765 -0.8175 -1.2169  0.1316
  879MOL0     C18540   8.687   9.952   9.794 -0.4016  0.4062 -0.8995
  879MOL0     C18541   8.587  10.011   9.882 -0.4390 -0.8731  0.4507
  879MOL0     C18542   8.485   9.904   9.925 -0.1457  0.0139 -0.3691
  879MOL0     C18543   8.378   9.952  10.028 -0.6516  0.6398  0.0755
  879MOL0     C18544   8.303   9.831  10.079  0.4945 -0.3631  0.0777
  879MOL0     C18545   8.179   9.866  10.168  0.2215  0.5967  0.0915
  879MOL0     C18546   8.090   9.747  10.204 -0.2813  0.5928 -0.6070
  879MOL0     N18547   8.027   9.782  10.330 -0.3903  0.5202 -0.1366
  879MOL0     C18548   8.075   9.767  10.456  0.0312 -0.0429  0.8941
  879MOL0     C18549   7.974   9.802  10.540  0.8816  0.7518  0.5573
  879MOL0     C18550   7.956   9.797  10.688 -0.1843  0.4033 -0.2895
  879MOL0     C18551   7.972   9.652  10.743  0.0623  0.2462 -0.3434
  879MOL0     C18552   7.910   9.635  10.889 -0.9011 -0.6682  0.7309
  879MOL0     C18553   7.815   9.510  10.896 -0.2948 -1.1028  0.2673
  879MOL0     O18554   7.698   9.535  10.977  0.5460  0.2669  0.9567
  879MOL0     C18555   7.585   9.602  10.929 -0.0454 -0.5969 -0.7735
  879MOL0     C18556   7.552   9.723  10.999  0.4414 -0.2207  0.5072
  879MOL0     C18557   7.449   9.802  10.951  0.3833 -0.3148  0.5017
  879MOL0     C18558   7.409   9.927  11.029  0.1327 -0.0615 -0.7624
  879MOL0     C18559   7.381   9.767  10.829 -0.0661  0.8432 -0.4656
  879MOL0     C18560   7.268   9.848  10.763 -0.2607 -0.1257 -0.5308
  879MOL0     O18561   7.208   9.781  10.660 -0.1204 -0.1225  0.3039
  879MOL0     C18562   7.110   9.838  10.582  0.1875  0.3238 -0.6032
  879MOL0     C18563   7.005   9.929  10.620  0.0426  0.8097 -0.5663
  879MOL0     C18564   6.905   9.961  10.521  0.1128 -0.6896 -0.7360
  879MOL0     C18565   6.896   9.902  10.394  0.7545 -0.3773 -0.3319
  879MOL0     O18566   6.785   9.927  10.312  0.3543  0.2325  0.3374
  879MOL0     C18567   6.795   9.873  10.175 -0.0390 -0.4001 -0.9743
  879MOL0     C18568   6.687   9.948  10.110 -0.1490  0.0922  0.0881
  879MOL0     C18569   6.541   9.912  10.159 -0.4602 -0.6177  0.3198
  879MOL0     C18570   6.508   9.768  10.177 -0.8122 -0.0436 -0.4615
  879MOL0     C18571   6.365   9.745  10.206 -0.0711  0.3129 -0.0319
  879MOL0     C18572   6.268   9.772  10.093 -0.8440 -0.0090 -0.1672
  879MOL0     C18573   6.147   9.669  10.083 -0.0824 -0.5669  0.9590
  879MOL0     C18574   6.056   9.689   9.962  0.0289 -1.0632 -0.1276
  879MOL0    Cl18575   5.981   9.862   9.955  0.3069  0.0128 -0.3552
  879MOL0     C18576   7.000   9.809  10.363  0.7305  0.0374 -1.1440
  879MOL0     C18577   7.096   9.781  10.457  0.7901  0.4016  0.5251
  879MOL0     O18578   7.229   9.956  10.810  0.6684  0.0543 -0.4408
  879MOL0     C18579   7.422   9.653  10.759 -0.2826  0.0291 -0.2609
  879MOL0     C18580   7.522   9.581  10.810  0.2477  0.3567  0.2937
  879MOL0     N18581   7.865   9.835  10.458  0.1445  0.7130  0.1741
  879MOL0     N18582   7.905   9.823  10.334  0.5533 -0.1370 -0.6118
  879MOL0     C18583   9.087  10.147   9.955  0.5238  0.4399  0.5183
  879MOL0     C18584   9.211  10.215   9.942  0.2800 -0.5147 -0.2621
  879MOL0     C18585   9.571  10.434   9.727  0.3930  1.3086  0.7200
  879MOL0     C18586   9.656  10.387   9.824  0.5797 -0.0109  0.5414
  879MOL0     C18587   9.786  10.431   9.836  1.1239 -0.7230 -0.2002
  879MOL0     C18588   9.836  10.536   9.762 -0.0492 -1.0516 -0.0794
  879MOL0     O18589   9.958  10.600   9.779 -0.3723  0.6278 -0.6745
  879MOL0     C18590  10.077  10.519   9.787 -0.3997 -0.0258 -0.0411
  879MOL0     C18591  10.143  10.518   9.645  0.0781 -0.5727  0.4017
  879MOL0     C18592  10.270  10.442   9.657 -0.5784  0.0700  0.2350
  879MOL0     C18593  10.396  10.527   9.649  0.5129 -0.4581 -0.2937
  879MOL0     C18594  10.444  10.585   9.778 -0.6949  0.2483  0.1101
  879MOL0     C18595  10.470  10.625   9.884 -0.3549 -0.2904  0.3237
  879MOL0     C18596   9.749  10.588   9.665  0.5119 -0.5919 -0.3178
  879MOL0     C18597   9.617  10.542   9.646  0.3849  0.7878  0.9193
  879MOL0     H18598   9.162  10.323   9.619  0.6024 -2.9374 -0.7550
  879MOL0     H18599   8.942  10.229   9.660 -0.1940  0.0114  0.0835
  879MOL0     H18600   8.756  10.147   9.723  1.3773  0.7261  1.8324
  879MOL0     H18601   8.864  10.023   9.683 -2.4812 -0.8316 -1.3994
  879MOL0     H18602   8.652   9.924   9.694  2.3319  0.9826 -2.1056
  879MOL0     H18603   8.728   9.857   9.829 -1.4213  0.5661  0.8535
  879MOL0     H18604   8.644  10.035   9.972  0.4697 -0.4861 -0.2197
  879MOL0     H18605   8.523  10.093   9.846 -0.1044  0.5379  2.8533
  879MOL0     H18606   8.430   9.863   9.840  0.2258  0.5126 -0.8496
  879MOL0     H18607   8.541   9.822   9.971  0.6799  0.7359 -0.0741
  879MOL0     H18608   8.431   9.993  10.115 -1.1497  0.0237  0.6856
  879MOL0     H18609   8.317  10.023   9.971 -0.6116  0.1939 -0.5232
  879MOL0     H18610   8.259   9.783   9.991 -0.6578  1.2432 -0.2701
  879MOL0     H18611   8.361   9.758  10.136  1.1678 -0.3204 -0.5453
  879MOL0     H18612   8.227   9.899  10.261  1.4453 -1.4065  0.2422
  879MOL0     H18613   8.119   9.948  10.127  0.7304  0.4512 -0.9690
  879MOL0     H18614   8.143   9.652  10.215 -0.1968  0.4747 -1.8681
  879MOL0     H18615   8.022   9.729  10.120  0.2607  0.1587 -0.9618
  879MOL0     H18616   8.176   9.746  10.491  0.4026 -0.8060 -0.5547
  879MOL0     H18617   8.023   9.870  10.735 -1.0935 -0.0462  1.8598
  879MOL0     H18618   7.851   9.827  10.701  0.1620  0.7997  2.0090
  879MOL0     H18619   8.079   9.633  10.735 -0.1694 -1.6814  0.6408
  879MOL0     H18620   7.934   9.579  10.671  0.0769 -2.6410  2.3911
  879MOL0     H18621   7.857   9.727  10.914 -0.8286 -1.2228  3.1793
  879MOL0     H18622   8.003   9.618  10.944  0.0842 -1.4431 -1.0948
  879MOL0     H18623   7.865   9.426  10.945  0.7822 -0.1267  0.8930
  879MOL0     H18624   7.774   9.479  10.800 -0.4834 -1.9812  0.6208
  879MOL0     H18625   7.608   9.760  11.085  0.6936  3.1909 -0.9630
  879MOL0     H18626   7.300   9.925  11.045 -0.0775  3.7544 -0.8331
  879MOL0     H18627   7.463   9.942  11.122 -0.2343 -2.0050 -0.1918
  879MOL0     H18628   7.427  10.014  10.964  1.4142  0.2540 -0.0044
  879MOL0     H18629   7.005   9.989  10.711  1.5353  2.2282 -1.4537
  879MOL0     H18630   6.828  10.034  10.541  3.0747  2.1023  1.4890
  879MOL0     H18631   6.894   9.905  10.141  0.4822  2.4054  2.5855
  879MOL0     H18632   6.781   9.765  10.181  0.6635 -0.6149 -2.6483
  879MOL0     H18633   6.716  10.052  10.122  3.4148 -0.3811 -2.6096
  879MOL0     H18634   6.682   9.916  10.005  1.5488  0.7158 -0.2215
  879MOL0     H18635   6.481   9.955  10.078 -2.0366  3.6304  3.3985
  879MOL0     H18636   6.520   9.952  10.258  0.2735 -0.6400  0.4904
  879MOL0     H18637   6.540   9.713  10.088 -2.6120  2.2768 -2.7054
  879MOL0     H18638   6.574   9.738  10.259  2.0520  0.8798 -2.2760
  879MOL0     H18639   6.335   9.810  10.289  1.9513 -1.5644  2.3257
  879MOL0     H18640   6.344   9.639  10.222 -0.7891  0.1151 -1.9813
  879MOL0     H18641   6.240   9.877  10.107  3.0418  1.1129  0.5218
  879MOL0     H18642   6.321   9.761   9.998  2.3910  0.1746  1.4708
  879MOL0     H18643   6.091   9.669  10.177  0.4093 -0.8658  1.2548
  879MOL0     H18644   6.193   9.571  10.068  0.5553 -0.0316 -0.8646
  879MOL0     H18645   5.975   9.615   9.962 -2.4033  1.2974 -2.9354
  879MOL0     H18646   6.107   9.671   9.867  0.0605 -2.1587  0.0817
  879MOL0     H18647   6.992   9.749  10.273 -2.6355 -2.1539  0.4308
  879MOL0     H18648   7.164   9.701  10.431  2.5131  2.5430 -2.0726
  879MOL0     H18649   7.390   9.613  10.663  1.4914  0.2467 -0.9825
  879MOL0     H18650   7.554   9.501  10.744 -0.8543 -0.1662  0.3715
  879MOL0     H18651   9.068  10.104  10.052 -2.0895 -2.3433 -1.0963
  879MOL0     H18652   9.276  10.214  10.029 -2.4436 -2.3760  1.9535
  879MOL0     H18653   9.610  10.313   9.888 -1.5215 -0.7077 -1.6343
  879MOL0     H18654   9.847  10.376   9.907  1.8440 -0.3725 -0.5393
  879MOL0     H18655  10.131  10.582   9.859 -0.6935 -2.0303  2.0692
  879MOL0     H18656  10.059  10.420   9.829 -1.4915  0.4255  0.5987
  879MOL0     H18657  10.169  10.617   9.607  1.2015 -0.7937  0.5806
  879MOL0     H18658  10.073  10.474   9.573  1.2656  0.2647 -1.3393
  879MOL0     H18659  10.290  10.372   9.576 -0.2004 -0.3034  0.6512
  879MOL0     H18660  10.265  10.386   9.750  2.2238 -0.6220  0.0671
  879MOL0     H18661  10.390  10.601   9.569  2.8989 -1.9487 -1.9974
  879MOL0     H18662  10.483  10.470   9.613 -0.0635  0.8110 -4.2029
  879MOL0     H18663  10.475  10.664   9.983  1.9003  2.1366 -0.6219
  879MOL0     H18664   9.784  10.674   9.608 -1.4176  0.9550  0.7087
  879MOL0     H18665   9.560  10.580   9.563  0.6818 -0.0742  0.2987
  880MOL0     O18666   6.954   1.951   6.793  0.0586  1.0103  0.3637
  880MOL0     C18667   6.914   1.972   6.682  0.9021  0.1037  0.6998
  880MOL0     O18668   6.894   1.876   6.580  0.4853 -0.6192  0.2375
  880MOL0     C18669   6.941   1.754   6.605 -0.4162 -0.3018  0.1772
  880MOL0     C18670   6.873   1.665   6.685 -0.4664  0.5888  0.6398
  880MOL0     C18671   6.922   1.540   6.720 -0.7791 -0.4635  0.3935
  880MOL0     C18672   7.034   1.480   6.651 -0.1384 -1.4580 -1.0711
  880MOL0     O18673   7.078   1.359   6.674 -0.0592  0.8506  0.4323
  880MOL0     C18674   7.035   1.261   6.584  0.6430  0.6556  0.2918
  880MOL0     C18675   6.890   1.231   6.609 -0.5539 -0.5550 -0.2410
  880MOL0     C18676   6.874   1.182   6.755  0.7764  0.7806 -0.6015
  880MOL0     C18677   6.725   1.169   6.781  0.7741 -0.5906 -0.6418
  880MOL0     C18678   6.688   1.117   6.923  0.5385 -0.7444  0.2924
  880MOL0     C18679   6.542   1.072   6.924 -0.0652  0.4350  0.5736
  880MOL0     C18680   6.506   0.992   7.044 -0.2414 -0.5709 -0.5160
  880MOL0     C18681   6.553   0.853   7.052  0.2166 -0.4026 -0.6251
  880MOL0     N18682   6.473   0.790   7.155 -0.5885  0.2834  0.0051
  880MOL0     C18683   6.363   0.719   7.112  0.2719  0.4254 -0.4506
  880MOL0     C18684   6.326   0.641   7.226  0.3821  0.1968 -0.6725
  880MOL0     C18685   6.218   0.538   7.233  0.1517 -0.0738  0.2194
  880MOL0     C18686   6.109   0.568   7.335 -0.5684  0.5590 -0.2510
  880MOL0     C18687   6.028   0.684   7.292 -0.0130  0.8606  0.2423
  880MOL0     C18688   5.901   0.711   7.375 -0.4522 -0.5108 -0.3561
  880MOL0     O18689   5.933   0.728   7.515  0.7636  0.7117  0.6955
  880MOL0     C18690   5.856   0.801   7.600  0.0622 -0.3487  0.6647
  880MOL0     C18691   5.731   0.850   7.562 -0.1431 -0.3322  0.8081
  880MOL0     C18692   5.662   0.939   7.643 -0.7326 -0.4785  0.0623
  880MOL0     C18693   5.531   0.991   7.590  0.3756 -0.2209  0.8923
  880MOL0     C18694   5.717   0.976   7.766 -0.5017 -0.3885  1.1139
  880MOL0     C18695   5.667   1.075   7.855 -0.0953 -0.6211  0.5642
  880MOL0     O18696   5.629   1.033   7.980 -0.0719  0.1319  0.1766
  880MOL0     C18697   5.617   1.141   8.072  0.4973  0.4356  0.5999
  880MOL0     C18698   5.498   1.216   8.077 -0.1117  0.2308  0.4168
  880MOL0     C18699   5.493   1.336   8.147 -0.4723  0.0545 -0.5540
  880MOL0     C18700   5.603   1.377   8.229  0.5803  0.9514  0.2166
  880MOL0     O18701   5.604   1.497   8.291  0.4065  0.4352 -0.1780
  880MOL0     C18702   5.610   1.609   8.197 -0.2826  0.4935 -0.1912
  880MOL0     C18703   5.562   1.731   8.266  0.4690  0.7855 -0.6188
  880MOL0     C18704   5.420   1.720   8.306 -0.2190 -0.5056 -0.2897
  880MOL0     C18705   5.374   1.852   8.362  0.0971  0.2783  0.4751
  880MOL0     C18706   5.258   1.833   8.466 -0.7595 -0.0123  0.5897
  880MOL0     C18707   5.137   1.754   8.411 -0.1781  0.3667  0.9128
  880MOL0     C18708   5.052   1.700   8.527 -0.6284  0.8684  0.5627
  880MOL0     C18709   4.941   1.621   8.463 -0.0996  0.6205  0.5842
  880MOL0    Cl18710   4.837   1.529   8.573 -0.2385  0.2258  0.4849
  880MOL0     C18711   5.713   1.295   8.236 -0.6422 -0.5238  0.6583
  880MOL0     C18712   5.717   1.175   8.165 -0.1684  0.0834 -0.1128
  880MOL0     O18713   5.681   1.193   7.818 -0.3946 -0.1368  0.4299
  880MOL0     C18714   5.840   0.918   7.806  0.3605 -0.2087 -1.2257
  880MOL0     C18715   5.909   0.832   7.727 -0.9866  0.7929  0.4129
  880MOL0     N18716   6.415   0.669   7.330  0.3111 -0.3545  1.2153
  880MOL0     N18717   6.503   0.749   7.280  0.2131 -1.1270  0.3517
  880MOL0     C18718   7.095   1.573   6.562  0.1167  0.5160  0.4166
  880MOL0     C18719   7.065   1.706   6.552 -0.0697  0.4041 -0.3825
  880MOL0     C18720   6.891   2.119   6.643 -0.0967 -0.5067 -0.5435
  880MOL0     C18721   6.819   2.160   6.532 -0.4013  0.3573  0.5241
  880MOL0     C18722   6.794   2.298   6.492 -0.2608  0.1219  0.1153
  880MOL0     C18723   6.868   2.393   6.563 -1.1414 -1.3644  0.1827
  880MOL0     O18724   6.857   2.530   6.531 -0.6394  0.2699 -0.1156
  880MOL0     C18725   6.978   2.608   6.540 -0.5497  0.1199  0.9040
  880MOL0     C18726   7.028   2.599   6.398 -0.1774 -0.4103  1.0656
  880MOL0     C18727   6.934   2.656   6.283  0.9223  0.5303  0.2581
  880MOL0     C18728   6.963   2.612   6.146 -0.1264 -0.7788  0.1853
  880MOL0     C18729   7.102   2.640   6.114  0.3666  0.1775  0.6105
  880MOL0     C18730   7.217   2.673   6.079  0.1201 -0.0159 -0.1411
  880MOL0     C18731   6.942   2.356   6.675  0.4365 -0.2677  0.1364
  880MOL0     C18732   6.964   2.218   6.712  0.4652  0.7314  0.1468
  880MOL0     H18733   6.776   1.696   6.724 -0.1964  1.9220  0.2949
  880MOL0     H18734   6.860   1.482   6.788 -1.2999 -1.2049 -0.6771
  880MOL0     H18735   7.051   1.292   6.480  1.4534 -2.3571 -0.5832
  880MOL0     H18736   7.102   1.176   6.598  1.8975  1.1570 -2.0257
  880MOL0     H18737   6.824   1.313   6.581  0.5104 -1.0899 -5.1140
  880MOL0     H18738   6.871   1.145   6.545  1.3016 -1.5626  0.4671
  880MOL0     H18739   6.923   1.088   6.784  3.7345  2.8593  1.8037
  880MOL0     H18740   6.909   1.258   6.826  2.2584 -0.1803 -0.2509
  880MOL0     H18741   6.672   1.263   6.759 -0.8249 -0.9474  1.3400
  880MOL0     H18742   6.690   1.099   6.705 -0.1790 -0.7865 -0.0417
  880MOL0     H18743   6.755   1.035   6.950  1.3465 -0.1164  0.2056
  880MOL0     H18744   6.704   1.191   7.001 -0.2755 -2.0395  1.7562
  880MOL0     H18745   6.486   1.166   6.928  0.0337  0.6165 -1.2029
  880MOL0     H18746   6.510   1.015   6.837 -0.6225  0.3851  0.8119
  880MOL0     H18747   6.533   1.045   7.136  1.4652  0.4780 -1.5720
  880MOL0     H18748   6.398   0.978   7.042  0.2017 -7.2157 -0.4636
  880MOL0     H18749   6.661   0.862   7.071  0.1591  1.0252 -0.9057
  880MOL0     H18750   6.527   0.802   6.959 -2.6588 -1.0849  0.4565
  880MOL0     H18751   6.306   0.710   7.021 -2.3910  0.6332  1.1034
  880MOL0     H18752   6.168   0.536   7.136  0.0830  0.4142  0.2376
  880MOL0     H18753   6.268   0.444   7.255 -0.6737 -1.2291 -2.4873
  880MOL0     H18754   6.151   0.587   7.434  0.4947 -0.5469 -0.4661
  880MOL0     H18755   6.039   0.484   7.338  0.3683 -0.2712 -0.9798
  880MOL0     H18756   5.996   0.666   7.189 -1.3448  0.0988  0.7676
  880MOL0     H18757   6.092   0.773   7.298  1.1346  0.0345  0.7972
  880MOL0     H18758   5.818   0.640   7.366 -2.1196  1.3123 -0.1754
  880MOL0     H18759   5.866   0.804   7.328 -1.0805  0.8431  2.5910
  880MOL0     H18760   5.696   0.830   7.462  0.5166 -0.7810  0.6605
  880MOL0     H18761   5.524   1.100   7.596 -2.0344 -0.3883  2.7670
  880MOL0     H18762   5.507   0.953   7.490 -1.0704  0.9380  0.7671
  880MOL0     H18763   5.455   0.952   7.659  0.4218 -1.1664  0.4194
  880MOL0     H18764   5.421   1.181   8.009  1.3599 -2.1952 -0.1403
  880MOL0     H18765   5.411   1.406   8.142  1.4173  2.3097 -3.5589
  880MOL0     H18766   5.713   1.613   8.161 -0.3640 -1.7222 -0.8425
  880MOL0     H18767   5.547   1.592   8.109  2.4332 -2.3316 -1.7914
  880MOL0     H18768   5.612   1.739   8.363 -0.6487  0.7780 -0.0360
  880MOL0     H18769   5.577   1.809   8.190 -2.5187 -0.5567 -2.7746
  880MOL0     H18770   5.396   1.641   8.379 -0.1050 -0.6409 -0.3973
  880MOL0     H18771   5.366   1.702   8.213  0.6483  1.0969 -1.1403
  880MOL0     H18772   5.461   1.897   8.410 -0.0801 -0.7968  1.8766
  880MOL0     H18773   5.345   1.911   8.274 -1.4020  1.2168  1.5359
  880MOL0     H18774   5.230   1.935   8.493  2.6281  1.4956 -0.9140
  880MOL0     H18775   5.304   1.781   8.551 -0.5866  3.1178  2.5605
  880MOL0     H18776   5.068   1.825   8.363  1.7388  1.9723  0.3862
  880MOL0     H18777   5.173   1.674   8.346  2.5131 -1.3437  4.1850
  880MOL0     H18778   5.010   1.775   8.593 -0.5013  0.9893  0.5075
  880MOL0     H18779   5.106   1.626   8.587  2.0757  2.3444  0.1085
  880MOL0     H18780   4.984   1.550   8.392  0.8396 -0.5211  2.2441
  880MOL0     H18781   4.874   1.698   8.424 -2.5768 -0.9359  1.5275
  880MOL0     H18782   5.796   1.322   8.301  0.2799 -1.3018 -0.1578
  880MOL0     H18783   5.809   1.117   8.162  1.2636  2.2343 -0.0186
  880MOL0     H18784   5.885   0.961   7.895 -2.9887 -0.8425  0.9860
  880MOL0     H18785   5.999   0.782   7.760 -1.1841 -1.4358 -2.1005
  880MOL0     H18786   7.184   1.540   6.509  0.1196  0.7885  0.2491
  880MOL0     H18787   7.129   1.767   6.489 -0.2420 -0.5403 -1.5260
  880MOL0     H18788   6.773   2.091   6.463  0.5148  1.3242 -1.1135
  880MOL0     H18789   6.740   2.313   6.399 -1.4632 -0.5903  0.6733
  880MOL0     H18790   6.939   2.705   6.574  0.0407  0.4686  0.6049
  880MOL0     H18791   7.054   2.566   6.607  1.7053 -0.4172 -1.8279
  880MOL0     H18792   7.048   2.494   6.374  0.4687 -0.0079 -0.2572
  880MOL0     H18793   7.127   2.647   6.401  0.6751 -2.0969  1.3796
  880MOL0     H18794   6.932   2.765   6.284 -0.0906  0.5310  2.2690
  880MOL0     H18795   6.836   2.625   6.319  1.6200  1.6905  3.4783
  880MOL0     H18796   6.892   2.657   6.076  2.5651  1.3134 -1.4227
  880MOL0     H18797   6.946   2.504   6.145 -0.9177 -0.6661  0.9468
  880MOL0     H18798   7.308   2.707   6.035 -0.4659 -0.8111 -2.1251
  880MOL0     H18799   6.986   2.435   6.735 -0.8497  0.8191 -0.3129
  880MOL0     H18800   7.025   2.209   6.802 -0.0814 -1.2966  0.3657
  881MOL0     O18801   4.871   8.267  10.570 -0.2894 -0.0792 -0.6489
  881MOL0     C18802   4.976   8.308  10.620  1.0565  0.6761  0.0522
  881MOL0     O18803   4.993   8.367  10.740  0.1562 -0.0765  0.3521
  881MOL0     C18804   4.877   8.417  10.803  0.0359 -0.3240 -0.1688
  881MOL0     C18805   4.870   8.411  10.941  0.5271  0.9591  0.0632
  881MOL0     C18806   4.760   8.462  11.010 -0.1202  0.2987 -0.3639
  881MOL0     C18807   4.658   8.542  10.950 -0.4144 -0.2540  0.7909
  881MOL0     O18808   4.557   8.604  11.028 -0.3934 -0.2801 -0.3997
  881MOL0     C18809   4.523   8.747  10.999 -0.3918  0.9673  0.5981
  881MOL0     C18810   4.643   8.839  11.018 -0.2453 -0.3974  0.4657
  881MOL0     C18811   4.633   8.879  11.168  0.6177 -0.7290 -0.2881
  881MOL0     C18812   4.687   8.780  11.272 -1.2692 -0.2427 -0.1401
  881MOL0     C18813   4.842   8.796  11.293 -0.0633  0.0234 -0.5409
  881MOL0     C18814   4.883   8.681  11.388 -0.1990  0.2744 -0.9132
  881MOL0     C18815   5.044   8.684  11.425 -0.8238  0.0655  0.3116
  881MOL0     C18816   5.107   8.603  11.312 -0.3803  0.5390 -0.0450
  881MOL0     N18817   5.078   8.459  11.323 -0.0683 -0.9671  0.0471
  881MOL0     C18818   5.110   8.379  11.430 -0.5372 -0.5184 -0.3334
  881MOL0     C18819   5.086   8.257  11.375  0.4464  0.5433 -0.0146
  881MOL0     C18820   5.098   8.125  11.434 -0.2583 -0.0184  0.7893
  881MOL0     C18821   5.235   8.104  11.502  0.2922 -0.3165 -0.3152
  881MOL0     C18822   5.254   7.966  11.567 -0.1558 -1.2241 -0.8623
  881MOL0     C18823   5.403   7.935  11.597 -0.2660 -0.6984 -0.1188
  881MOL0     O18824   5.443   8.038  11.699  0.0642  0.3558  0.7290
  881MOL0     C18825   5.579   8.035  11.735  0.0165  0.2951 -0.5356
  881MOL0     C18826   5.619   8.133  11.823  0.6166 -0.9022  0.4508
  881MOL0     C18827   5.752   8.165  11.847 -0.3272  0.4402  0.4031
  881MOL0     C18828   5.766   8.281  11.939 -0.4743 -0.0468 -0.4390
  881MOL0     C18829   5.857   8.080  11.788  0.3346 -0.1876 -0.1607
  881MOL0     C18830   6.006   8.103  11.809 -0.7915  0.4113  0.4266
  881MOL0     O18831   6.091   8.020  11.755 -0.0403 -0.1263 -0.5017
  881MOL0     C18832   6.222   7.992  11.801  0.0618 -0.9597 -0.9096
  881MOL0     C18833   6.262   8.018  11.934 -0.2105 -0.4131 -0.2414
  881MOL0     C18834   6.395   7.988  11.980 -0.0103 -0.2000 -0.0001
  881MOL0     C18835   6.486   7.941  11.883  0.1605 -0.1345 -0.3889
  881MOL0     O18836   6.616   7.893  11.912 -0.0818  0.1723 -1.5370
  881MOL0     C18837   6.642   7.857  12.050 -0.5488 -0.3651 -0.6129
  881MOL0     C18838   6.571   7.733  12.098  0.8961  0.4546  0.6008
  881MOL0     C18839   6.625   7.689  12.229  0.4677  0.4468  0.3669
  881MOL0     C18840   6.536   7.588  12.296  0.3200 -0.2280 -0.4886
  881MOL0     C18841   6.595   7.528  12.422 -0.6978 -0.0401  0.7955
  881MOL0     C18842   6.499   7.435  12.493 -0.0526 -1.0786  0.1652
  881MOL0     C18843   6.525   7.285  12.462  0.2722  0.5989 -0.6157
  881MOL0     C18844   6.440   7.191  12.555 -0.3369 -0.1872 -0.5638
  881MOL0    Cl18845   6.511   7.177  12.726  0.2714  0.5251 -0.2136
  881MOL0     C18846   6.456   7.927  11.751 -0.0741  0.4331  0.4240
  881MOL0     C18847   6.322   7.947  11.711 -0.5098 -1.3744  0.1283
  881MOL0     O18848   6.039   8.194  11.879  0.6548 -0.0334 -0.6205
  881MOL0     C18849   5.813   7.979  11.701  0.4245 -0.2953 -0.1614
  881MOL0     C18850   5.675   7.951  11.679 -0.4716  0.5369 -0.0639
  881MOL0     N18851   5.023   8.262  11.251 -0.1923 -0.7834  0.4510
  881MOL0     N18852   5.019   8.385  11.220  0.5131  0.2974  0.3106
  881MOL0     C18853   4.679   8.564  10.816  0.0921 -0.3581  0.5763
  881MOL0     C18854   4.777   8.490  10.744  0.0475 -0.3423 -0.1154
  881MOL0     C18855   5.093   8.259  10.549  0.6244  0.3612  0.1399
  881MOL0     C18856   5.085   8.222  10.417  0.9986 -0.3771  0.3360
  881MOL0     C18857   5.197   8.162  10.351  0.2332  0.2127 -0.5347
  881MOL0     C18858   5.320   8.162  10.415  0.1346  0.0504 -1.0242
  881MOL0     O18859   5.431   8.100  10.359 -0.2717  0.4917  0.1991
  881MOL0     C18860   5.483   8.151  10.235  0.1109  0.3524  0.0007
  881MOL0     C18861   5.564   8.287  10.239 -0.0303  0.4479  0.0713
  881MOL0     C18862   5.670   8.284  10.345  0.8178 -0.2836 -0.0470
  881MOL0     C18863   5.754   8.419  10.334 -0.4914 -0.2433 -0.8893
  881MOL0     C18864   5.889   8.398  10.378 -0.1955 -0.4381 -0.7187
  881MOL0     C18865   6.009   8.375  10.395 -0.1601  0.3838  0.1406
  881MOL0     C18866   5.330   8.192  10.545  0.3969  0.5652  0.5685
  881MOL0     C18867   5.221   8.248  10.615  0.7658  0.2989 -0.3444
  881MOL0     H18868   4.937   8.352  11.002 -0.2827 -2.8190 -2.2876
  881MOL0     H18869   4.758   8.452  11.118 -0.2564  0.6482 -0.3319
  881MOL0     H18870   4.482   8.747  10.897 -0.7061 -0.3346  0.7046
  881MOL0     H18871   4.439   8.779  11.062  0.4332  1.6823  1.3478
  881MOL0     H18872   4.739   8.794  10.990  0.4516  0.0274  2.0810
  881MOL0     H18873   4.633   8.936  10.968 -0.9037 -0.3911  0.6111
  881MOL0     H18874   4.693   8.970  11.171 -1.9322  1.0211  0.2809
  881MOL0     H18875   4.531   8.904  11.198  1.3933  0.0038  1.8931
  881MOL0     H18876   4.633   8.803  11.363  0.6042 -3.1879  1.8865
  881MOL0     H18877   4.665   8.678  11.239 -4.6391 -0.0671  1.2014
  881MOL0     H18878   4.892   8.782  11.197  1.7247  1.6425  0.0989
  881MOL0     H18879   4.867   8.898  11.322  1.4935  0.0659 -1.9146
  881MOL0     H18880   4.839   8.703  11.486 -0.4213 -1.8993 -0.4912
  881MOL0     H18881   4.844   8.585  11.356 -0.0776  0.1776 -0.7736
  881MOL0     H18882   5.091   8.783  11.422 -0.1027 -0.2637  0.4984
  881MOL0     H18883   5.072   8.630  11.515 -0.1372 -1.2384 -0.6438
  881MOL0     H18884   5.215   8.613  11.297 -0.3508 -2.0341 -2.3517
  881MOL0     H18885   5.059   8.635  11.219 -1.7343 -1.5306 -0.1424
  881MOL0     H18886   5.160   8.403  11.523  0.9902  2.2557 -1.7360
  881MOL0     H18887   5.017   8.123  11.507  0.4580  2.1027  1.7170
  881MOL0     H18888   5.086   8.053  11.352  1.8532  0.1537  0.2629
  881MOL0     H18889   5.224   8.172  11.587 -1.5822  1.1628 -1.6704
  881MOL0     H18890   5.311   8.122  11.426  0.9252 -0.2830  0.3164
  881MOL0     H18891   5.217   7.897  11.491 -3.0593 -1.3904  0.5474
  881MOL0     H18892   5.201   7.960  11.662 -0.7050 -0.2274 -1.0938
  881MOL0     H18893   5.457   7.954  11.504 -1.0246  1.1214 -0.2372
  881MOL0     H18894   5.416   7.831  11.630  1.1519  0.3045  2.8876
  881MOL0     H18895   5.541   8.191  11.871 -0.5257 -3.4107  1.7998
  881MOL0     H18896   5.828   8.250  12.024  1.1954 -4.4589 -2.9519
  881MOL0     H18897   5.814   8.363  11.886  0.3193 -0.6277 -0.6302
  881MOL0     H18898   5.675   8.332  11.973 -1.4036 -0.6685 -1.9059
  881MOL0     H18899   6.182   8.046  12.002 -3.7030 -1.7496 -3.4635
  881MOL0     H18900   6.418   8.013  12.083 -3.3826  2.3720  0.2871
  881MOL0     H18901   6.748   7.836  12.062 -0.2285  0.2236 -2.2039
  881MOL0     H18902   6.627   7.935  12.125 -1.2422 -2.8939  2.0846
  881MOL0     H18903   6.463   7.747  12.101 -0.1400 -4.4452 -2.3390
  881MOL0     H18904   6.577   7.661  12.015  0.4339  1.1135 -0.0067
  881MOL0     H18905   6.639   7.780  12.288 -0.0218  0.8186 -0.0777
  881MOL0     H18906   6.721   7.639  12.212  1.6316  2.2739  1.2389
  881MOL0     H18907   6.446   7.646  12.317  1.4034  2.3795 -2.5046
  881MOL0     H18908   6.511   7.514  12.219 -4.2255 -3.3663  3.3844
  881MOL0     H18909   6.623   7.616  12.480 -1.3959  1.6999 -1.3880
  881MOL0     H18910   6.692   7.484  12.396  0.6940  2.4192  1.4838
  881MOL0     H18911   6.509   7.449  12.602  0.2523 -1.3872  0.1749
  881MOL0     H18912   6.395   7.455  12.466  0.4020 -0.1047 -0.9223
  881MOL0     H18913   6.630   7.257  12.474  0.6977  1.8775 -1.1564
  881MOL0     H18914   6.504   7.260  12.358  1.7491 -0.3133 -0.7211
  881MOL0     H18915   6.451   7.089  12.519  0.8486 -0.3463  0.1783
  881MOL0     H18916   6.334   7.215  12.550 -0.5989 -1.5145 -2.9530
  881MOL0     H18917   6.532   7.896  11.680 -0.4209 -1.1196  0.7014
  881MOL0     H18918   6.296   7.916  11.610 -0.2812 -2.6916  0.4662
  881MOL0     H18919   5.890   7.909  11.672  0.2660 -0.8050  0.5996
  881MOL0     H18920   5.651   7.867  11.614  2.0792  0.3845 -0.9243
  881MOL0     H18921   4.622   8.637  10.759  0.9789  0.2147  0.3917
  881MOL0     H18922   4.784   8.516  10.639 -1.5683 -1.3496 -0.5057
  881MOL0     H18923   4.990   8.220  10.365  2.1719 -2.8463 -2.0008
  881MOL0     H18924   5.198   8.113  10.254 -0.3463  0.5523 -0.7128
  881MOL0     H18925   5.544   8.074  10.187 -0.6740 -0.0945 -0.3104
  881MOL0     H18926   5.403   8.172  10.164  0.9028  1.3302 -0.6193
  881MOL0     H18927   5.504   8.367  10.283  2.1250 -0.7626  6.2126
  881MOL0     H18928   5.597   8.321  10.140  1.2163 -1.6094 -0.2836
  881MOL0     H18929   5.731   8.194  10.355  1.4308  0.3636  3.4953
  881MOL0     H18930   5.622   8.301  10.442  2.4038  1.1452  0.5413
  881MOL0     H18931   5.717   8.510  10.383  1.8492  0.9717 -1.2665
  881MOL0     H18932   5.757   8.447  10.229  0.2578  0.0709 -0.7895
  881MOL0     H18933   6.116   8.371  10.410  0.3007  2.0031 -2.2374
  881MOL0     H18934   5.425   8.180  10.596 -0.9208  3.2168  4.1293
  881MOL0     H18935   5.228   8.277  10.719 -0.3293 -3.9604  1.1158
  882MOL0     O18936   9.983   6.542   3.333  0.0723  0.0839 -0.2280
  882MOL0     C18937   9.949   6.444   3.405  0.8218  0.0528 -0.0763
  882MOL0     O18938   9.881   6.336   3.361  0.1575  0.4344  0.0233
  882MOL0     C18939   9.844   6.329   3.232  0.5454  1.1010 -0.0223
  882MOL0     C18940   9.926   6.255   3.147 -0.0318 -0.1954  0.4407
  882MOL0     C18941   9.886   6.260   3.008 -0.0678 -0.3143 -0.5315
  882MOL0     C18942   9.774   6.331   2.967 -0.1976 -0.1680  0.7401
  882MOL0     O18943   9.751   6.329   2.831  0.5236 -0.7517 -0.0774
  882MOL0     C18944   9.799   6.227   2.755  0.6181  0.3251 -0.3046
  882MOL0     C18945   9.742   6.262   2.618 -0.2841  0.6296  0.8137
  882MOL0     C18946   9.599   6.224   2.581 -0.9815 -0.3661  0.1864
  882MOL0     C18947   9.564   6.082   2.578  0.6386  0.6120  1.1815
  882MOL0     C18948   9.422   6.042   2.532 -0.3341 -0.7311 -0.3313
  882MOL0     C18949   9.382   5.900   2.570 -0.4815 -1.1781 -0.2165
  882MOL0     C18950   9.239   5.859   2.527  0.9833  0.0741  0.0617
  882MOL0     C18951   9.196   5.717   2.580  0.2544  0.5293 -0.1351
  882MOL0     N18952   9.186   5.717   2.729 -0.6462  0.1068  0.2876
  882MOL0     C18953   9.074   5.736   2.803  0.9680 -0.4627  1.2624
  882MOL0     C18954   9.095   5.693   2.920  0.0313 -0.2392 -0.1250
  882MOL0     C18955   8.992   5.705   3.024  0.1585  0.7232  0.4426
  882MOL0     C18956   9.008   5.841   3.107  0.0086  0.3698  0.2866
  882MOL0     C18957   8.893   5.873   3.209  0.4654 -1.0622  0.1082
  882MOL0     C18958   8.908   6.015   3.268  0.3640  0.6545  0.1882
  882MOL0     O18959   8.997   6.002   3.379  0.1701  0.2492  0.0427
  882MOL0     C18960   8.961   6.056   3.501 -0.6502  0.2131  0.1261
  882MOL0     C18961   8.829   6.065   3.548  0.7539  0.0844  0.1480
  882MOL0     C18962   8.798   6.126   3.671  0.0615 -0.4909  0.8264
  882MOL0     C18963   8.647   6.135   3.703  0.4124 -0.5979  0.1056
  882MOL0     C18964   8.903   6.191   3.739 -0.4555  0.4726 -0.2313
  882MOL0     C18965   8.871   6.247   3.871 -0.2746  0.2218 -0.8540
  882MOL0     O18966   8.958   6.339   3.912  0.5263 -0.4298 -0.1404
  882MOL0     C18967   8.941   6.388   4.034  0.1173 -0.3257 -0.4718
  882MOL0     C18968   8.827   6.466   4.070  0.5920  0.1618 -0.0507
  882MOL0     C18969   8.809   6.514   4.196 -0.1306  0.3322  0.2185
  882MOL0     C18970   8.910   6.503   4.291  0.0506 -0.3678  0.4549
  882MOL0     O18971   8.899   6.566   4.415 -1.0040 -0.4913  0.7659
  882MOL0     C18972   8.854   6.471   4.513 -0.4350  0.0524 -0.9707
  882MOL0     C18973   8.856   6.518   4.660 -0.9749 -0.9370  0.6629
  882MOL0     C18974   8.769   6.643   4.679 -0.5070  0.0725 -0.4727
  882MOL0     C18975   8.773   6.693   4.820 -1.0267 -0.5625 -0.2456
  882MOL0     C18976   8.789   6.852   4.836 -0.7844  0.4413  0.2674
  882MOL0     C18977   8.812   6.885   4.983  0.0070 -0.1281  0.4613
  882MOL0     C18978   8.835   7.031   5.002  0.6247 -0.5705 -0.7262
  882MOL0     C18979   8.715   7.113   5.023  0.3689 -0.2540  0.2942
  882MOL0    Cl18980   8.766   7.284   5.049  0.3186  0.2532  0.1312
  882MOL0     C18981   9.026   6.434   4.252 -0.0112  0.2748  0.1525
  882MOL0     C18982   9.040   6.373   4.130  0.3391  0.1993 -0.1579
  882MOL0     O18983   8.787   6.202   3.949  0.7547 -0.0445  0.0838
  882MOL0     C18984   9.042   6.182   3.689  0.4097 -0.3358 -0.4759
  882MOL0     C18985   9.067   6.113   3.570 -0.7618 -1.1301  0.1702
  882MOL0     N18986   9.227   5.656   2.925  0.1839  0.2793 -0.8344
  882MOL0     N18987   9.282   5.668   2.814 -0.6513  0.7188  0.3055
  882MOL0     C18988   9.695   6.405   3.057  0.0402 -0.3918 -0.2265
  882MOL0     C18989   9.734   6.400   3.193  0.5546 -0.2540  0.6905
  882MOL0     C18990   9.958   6.460   3.551 -0.4580 -0.2722  0.3614
  882MOL0     C18991  10.000   6.583   3.598  0.6118 -0.1891 -0.3879
  882MOL0     C18992  10.010   6.610   3.733  0.3202  0.4453 -0.0729
  882MOL0     C18993   9.987   6.514   3.828 -0.0820  0.4261 -0.3639
  882MOL0     O18994  10.015   6.559   3.953 -0.6085  0.4104  0.1292
  882MOL0     C18995  10.000   6.446   4.040  0.0759  0.2048  0.4366
  882MOL0     C18996  10.044   6.481   4.182  0.0453 -0.5947  0.0013
  882MOL0     C18997  10.186   6.540   4.168  0.2692 -0.0603 -0.0783
  882MOL0     C18998  10.281   6.511   4.280 -0.1413 -0.3639  1.4392
  882MOL0     C18999  10.262   6.617   4.383 -0.6215 -0.7954  0.0650
  882MOL0     C19000  10.236   6.703   4.470  0.3178  1.5811  0.2885
  882MOL0     C19001   9.934   6.388   3.784  0.1173  0.1315 -0.9172
  882MOL0     C19002   9.925   6.364   3.646  0.1942 -0.3402  0.1151
  882MOL0     H19003  10.009   6.191   3.177 -1.0690 -0.8710  2.0073
  882MOL0     H19004   9.950   6.195   2.950  2.7427 -0.4333  2.3859
  882MOL0     H19005   9.908   6.220   2.745  0.6449 -0.4077  0.3886
  882MOL0     H19006   9.757   6.136   2.799  0.1982 -0.5119 -2.3528
  882MOL0     H19007   9.763   6.369   2.610  2.3148  0.6402  4.7664
  882MOL0     H19008   9.806   6.206   2.549 -2.7979 -2.7639  0.9593
  882MOL0     H19009   9.532   6.275   2.650 -0.1363  0.4295  0.4438
  882MOL0     H19010   9.573   6.268   2.484 -0.4326 -1.8714 -0.6750
  882MOL0     H19011   9.636   6.037   2.509 -1.8464 -1.1350 -0.4278
  882MOL0     H19012   9.580   6.045   2.680  2.4167 -1.6001  0.1898
  882MOL0     H19013   9.344   6.099   2.581  0.4789  1.0087 -0.9594
  882MOL0     H19014   9.410   6.054   2.424  2.5934  1.5594 -0.5535
  882MOL0     H19015   9.450   5.821   2.536  0.3940 -0.5226 -0.0179
  882MOL0     H19016   9.389   5.900   2.679 -0.2173  0.4367 -0.2232
  882MOL0     H19017   9.157   5.926   2.552 -0.9170 -1.0337 -2.7110
  882MOL0     H19018   9.240   5.860   2.418 -0.7084  0.2012  0.0227
  882MOL0     H19019   9.263   5.647   2.531 -0.5694  1.4971 -2.8459
  882MOL0     H19020   9.099   5.707   2.531  0.1741  2.4259 -0.4661
  882MOL0     H19021   8.973   5.749   2.764  2.5022  2.4887 -2.4118
  882MOL0     H19022   8.892   5.701   2.981 -0.9372 -2.5077  2.9253
  882MOL0     H19023   8.995   5.614   3.084  3.2223 -0.2860 -1.0157
  882MOL0     H19024   9.013   5.916   3.028 -4.3514 -1.5370 -2.1733
  882MOL0     H19025   9.110   5.836   3.147  0.5687 -1.1580 -1.2133
  882MOL0     H19026   8.890   5.797   3.288  0.1041 -1.1946 -0.0256
  882MOL0     H19027   8.799   5.863   3.153 -0.0312 -1.6731  1.0073
  882MOL0     H19028   8.810   6.058   3.292  0.3918  0.0600  1.4228
  882MOL0     H19029   8.947   6.083   3.191 -1.1653 -0.3754 -1.5923
  882MOL0     H19030   8.751   6.013   3.494  1.2333  0.2942 -0.7501
  882MOL0     H19031   8.601   6.212   3.641 -0.2662  2.3399  3.8748
  882MOL0     H19032   8.594   6.043   3.676 -1.4499  0.5454 -0.2803
  882MOL0     H19033   8.613   6.163   3.804  0.3281  0.6626 -0.2568
  882MOL0     H19034   8.743   6.484   4.003 -1.2747  1.8511  2.5196
  882MOL0     H19035   8.714   6.561   4.218 -0.8852 -0.8126 -0.4957
  882MOL0     H19036   8.756   6.430   4.485  0.3672 -2.6666 -0.0932
  882MOL0     H19037   8.913   6.379   4.506 -2.6423 -1.5879  0.4638
  882MOL0     H19038   8.816   6.441   4.726 -1.2258 -1.2008  0.2065
  882MOL0     H19039   8.962   6.539   4.679 -1.7111 -0.1815  4.8455
  882MOL0     H19040   8.666   6.621   4.653 -0.6374 -1.3503  1.0813
  882MOL0     H19041   8.809   6.726   4.620  0.4383  0.2552  0.3891
  882MOL0     H19042   8.677   6.670   4.867 -1.0555 -0.4261 -0.2370
  882MOL0     H19043   8.849   6.643   4.881 -0.9486  1.2468  1.2655
  882MOL0     H19044   8.706   6.906   4.787 -0.2884  0.8576 -0.1355
  882MOL0     H19045   8.880   6.888   4.786 -1.4212  2.5766  0.5182
  882MOL0     H19046   8.734   6.861   5.056 -1.5812  4.2123  0.5001
  882MOL0     H19047   8.899   6.825   5.006  1.0559  1.1502 -0.0227
  882MOL0     H19048   8.869   7.071   4.906 -0.0207  2.4694  0.1999
  882MOL0     H19049   8.906   7.039   5.085  1.2205 -0.4717 -1.2364
  882MOL0     H19050   8.662   7.073   5.109  1.8402  0.5328  1.6301
  882MOL0     H19051   8.642   7.108   4.942  0.8863 -0.5638 -0.1596
  882MOL0     H19052   9.109   6.420   4.320  0.6920  1.4270 -0.4221
  882MOL0     H19053   9.131   6.316   4.115 -1.1951 -2.1330 -1.1132
  882MOL0     H19054   9.126   6.236   3.731 -0.6156 -0.1045  1.3681
  882MOL0     H19055   9.163   6.112   3.521 -1.4723  1.6368 -1.5180
  882MOL0     H19056   9.612   6.465   3.022  1.0488  1.2835  0.1089
  882MOL0     H19057   9.663   6.459   3.250 -0.4264 -0.9812  0.2493
  882MOL0     H19058  10.018   6.662   3.525  1.3797 -1.5238 -1.7016
  882MOL0     H19059  10.058   6.702   3.764 -0.2670  0.8200 -0.2517
  882MOL0     H19060   9.895   6.414   4.049 -1.3054  4.2048  0.6295
  882MOL0     H19061  10.054   6.355   4.012 -1.2478  0.0788 -1.9703
  882MOL0     H19062  10.048   6.392   4.244 -0.7336 -1.1697 -0.7481
  882MOL0     H19063   9.973   6.548   4.232 -1.2397 -1.1296 -1.0339
  882MOL0     H19064  10.175   6.644   4.136 -6.0356 -0.0003  1.0353
  882MOL0     H19065  10.241   6.480   4.095  0.7659 -1.9006  1.7144
  882MOL0     H19066  10.385   6.511   4.245 -0.3802  0.6366  0.7042
  882MOL0     H19067  10.262   6.412   4.322  0.7033 -0.2273  2.1787
  882MOL0     H19068  10.193   6.776   4.536 -2.0986 -0.1140  0.7039
  882MOL0     H19069   9.913   6.299   3.841 -2.7767  1.6440  0.5743
  882MOL0     H19070   9.889   6.267   3.613 -1.3593  0.5969 -1.1063
  883MOL0     O19071   9.387   0.053   0.733 -0.0820  0.0304 -0.8505
  883MOL0     C19072   9.348  -0.059   0.709  0.7648 -0.8193 -0.3246
  883MOL0     O19073   9.258  -0.125   0.779  0.4100 -0.7459 -0.1916
  883MOL0     C19074   9.192  -0.074   0.893  0.4154 -0.0529 -0.6216
  883MOL0     C19075   9.264  -0.014   0.996  0.7623  0.0997  0.2147
  883MOL0     C19076   9.202   0.018   1.117 -0.3510  0.4807 -0.7793
  883MOL0     C19077   9.071  -0.023   1.154 -0.6346 -0.1003 -0.0077
  883MOL0     O19078   9.005  -0.007   1.276 -0.4383  0.5118 -0.3394
  883MOL0     C19079   9.072   0.092   1.363 -0.1146  0.9930  0.1651
  883MOL0     C19080   8.986   0.095   1.484 -0.1899  0.2656 -0.0731
  883MOL0     C19081   9.030   0.202   1.596  0.6168 -0.8220  0.5372
  883MOL0     C19082   8.929   0.217   1.715  0.7597  0.0945 -0.5551
  883MOL0     C19083   8.809   0.310   1.696  0.0725 -0.6796 -0.1716
  883MOL0     C19084   8.681   0.227   1.688 -0.5920 -0.0519 -0.7166
  883MOL0     C19085   8.559   0.319   1.731 -0.6909 -0.9104 -0.3520
  883MOL0     C19086   8.433   0.272   1.657  0.7269  0.9282 -0.2620
  883MOL0     N19087   8.323   0.364   1.686  0.2824  0.6948 -0.2131
  883MOL0     C19088   8.259   0.392   1.806 -1.2184  0.6111  0.2552
  883MOL0     C19089   8.140   0.450   1.777  0.4291 -0.1281 -0.7591
  883MOL0     C19090   8.036   0.481   1.878  0.1179  0.2793 -0.2003
  883MOL0     C19091   7.974   0.629   1.870  0.7814  0.2663 -0.0864
  883MOL0     C19092   7.828   0.619   1.864 -1.2317 -0.5934 -0.7578
  883MOL0     C19093   7.746   0.582   1.993 -0.0664  0.6242  0.2257
  883MOL0     O19094   7.608   0.580   1.949 -0.5692 -0.1280  0.0801
  883MOL0     C19095   7.503   0.584   2.033 -0.4203 -0.1493 -0.3650
  883MOL0     C19096   7.380   0.552   1.987  0.0807  0.8658  0.7849
  883MOL0     C19097   7.261   0.535   2.051  0.6101  0.0249 -0.1095
  883MOL0     C19098   7.134   0.497   1.978  0.0659  0.5571  0.4744
  883MOL0     C19099   7.267   0.571   2.191 -0.0303 -0.3983  0.2049
  883MOL0     C19100   7.140   0.581   2.262 -0.2622  0.4477  0.7864
  883MOL0     O19101   7.061   0.467   2.253  0.2381 -0.0656 -0.0218
  883MOL0     C19102   6.927   0.474   2.286 -0.1619  0.1277 -0.7788
  883MOL0     C19103   6.885   0.542   2.401 -0.2981  0.2927  0.0006
  883MOL0     C19104   6.743   0.548   2.424 -0.6033  0.8502  0.1960
  883MOL0     C19105   6.658   0.487   2.339 -0.1296 -0.0645 -0.5188
  883MOL0     O19106   6.522   0.507   2.354 -1.6167 -0.0111 -0.3063
  883MOL0     C19107   6.472   0.466   2.481 -0.4316  0.3052 -0.4455
  883MOL0     C19108   6.325   0.420   2.461  0.0503 -0.4703 -0.0098
  883MOL0     C19109   6.235   0.532   2.410 -0.2749 -0.6915  0.4833
  883MOL0     C19110   6.087   0.497   2.398  1.3032 -0.1410 -0.3735
  883MOL0     C19111   5.992   0.620   2.391  0.8102 -0.4925  0.1062
  883MOL0     C19112   5.979   0.691   2.527  0.3875 -0.4040 -0.1433
  883MOL0     C19113   5.925   0.594   2.635  0.2267  0.7277 -0.7206
  883MOL0     C19114   5.872   0.663   2.763 -0.8440  0.8486  0.2036
  883MOL0    Cl19115   5.813   0.547   2.884  0.1486  0.0536 -0.0206
  883MOL0     C19116   6.702   0.430   2.223  0.5718 -0.2305  0.3206
  883MOL0     C19117   6.829   0.413   2.209 -0.3113  0.4699  0.7135
  883MOL0     O19118   7.107   0.683   2.315  0.2011  0.1614 -0.8247
  883MOL0     C19119   7.390   0.620   2.242 -0.2250  0.4210 -0.4395
  883MOL0     C19120   7.509   0.628   2.160  1.2583  0.7261 -0.2508
  883MOL0     N19121   8.133   0.460   1.638  1.2163  0.2433 -0.4042
  883MOL0     N19122   8.239   0.408   1.590  0.5023 -0.3774 -0.1279
  883MOL0     C19123   9.000  -0.088   1.056 -0.9564  0.8648  0.1398
  883MOL0     C19124   9.063  -0.109   0.928  0.6556 -0.1481  1.5023
  883MOL0     C19125   9.388  -0.117   0.579 -0.4835 -0.0605  0.1383
  883MOL0     C19126   9.343  -0.244   0.538 -0.1609  0.0881 -0.4550
  883MOL0     C19127   9.371  -0.292   0.410  0.2279 -0.0120  0.2732
  883MOL0     C19128   9.463  -0.225   0.315  1.3032 -0.9474 -0.3615
  883MOL0     O19129   9.497  -0.296   0.211  1.0077 -0.3682 -0.2519
  883MOL0     C19130   9.533  -0.224   0.096  0.2306  0.7149 -0.3015
  883MOL0     C19131   9.603  -0.322   0.006  0.0900  0.3109 -0.3588
  883MOL0     C19132   9.506  -0.430  -0.052  0.5070  0.1436  0.4736
  883MOL0     C19133   9.569  -0.507  -0.179  0.3512 -0.4653 -0.3222
  883MOL0     C19134   9.694  -0.576  -0.148 -0.5218  0.5197  0.1199
  883MOL0     C19135   9.798  -0.625  -0.118  0.4039 -0.6376  0.8338
  883MOL0     C19136   9.503  -0.094   0.361 -0.7748 -0.0023  0.6286
  883MOL0     C19137   9.467  -0.037   0.486  0.5304  0.5459 -0.7177
  883MOL0     H19138   9.365   0.016   0.972  0.4215  4.6566  3.2152
  883MOL0     H19139   9.253   0.075   1.195 -1.6770  0.4242  0.1653
  883MOL0     H19140   9.173   0.058   1.385 -0.7460 -2.2050 -1.2829
  883MOL0     H19141   9.068   0.185   1.305 -0.5772 -0.4202 -2.1944
  883MOL0     H19142   8.888   0.127   1.448 -0.9445 -3.0613 -1.3946
  883MOL0     H19143   8.979   0.001   1.540  1.6198  0.8576  1.2172
  883MOL0     H19144   9.129   0.179   1.637  0.4385 -3.5395 -0.3503
  883MOL0     H19145   9.040   0.298   1.545 -1.0393 -0.0370  1.5974
  883MOL0     H19146   8.897   0.115   1.739 -2.3035  0.8117 -1.1517
  883MOL0     H19147   8.994   0.253   1.796 -2.2816 -0.3730  2.2782
  883MOL0     H19148   8.810   0.375   1.784  2.1081 -3.1081  1.7220
  883MOL0     H19149   8.826   0.373   1.608 -4.1825 -0.4166 -1.0686
  883MOL0     H19150   8.682   0.185   1.587  1.1575  0.2223 -0.8355
  883MOL0     H19151   8.686   0.140   1.753 -0.9529 -1.8017 -2.8974
  883MOL0     H19152   8.542   0.317   1.839  3.3812 -1.0373  0.4506
  883MOL0     H19153   8.566   0.423   1.696 -1.7178 -1.1634 -1.4050
  883MOL0     H19154   8.393   0.175   1.688  2.8072  0.9353  2.9215
  883MOL0     H19155   8.454   0.266   1.550  1.7625 -2.6467  0.0063
  883MOL0     H19156   8.309   0.354   1.895  4.5381  2.7556 -1.5591
  883MOL0     H19157   7.954   0.412   1.854 -0.7377  1.5363 -1.0063
  883MOL0     H19158   8.080   0.448   1.973 -1.7251 -0.0045  0.6183
  883MOL0     H19159   8.005   0.689   1.784  0.4726  1.2827  0.4935
  883MOL0     H19160   8.016   0.683   1.955 -1.4435 -1.9569  2.6254
  883MOL0     H19161   7.803   0.558   1.776 -0.5733 -1.2362 -0.5065
  883MOL0     H19162   7.794   0.719   1.833 -0.7922  0.2125  1.1866
  883MOL0     H19163   7.762   0.654   2.074  1.8658 -0.6199  1.0204
  883MOL0     H19164   7.767   0.478   2.019  3.3083  1.6399  2.1762
  883MOL0     H19165   7.389   0.523   1.883  1.1400  1.5954  0.6656
  883MOL0     H19166   7.144   0.476   1.872  0.9037 -1.7480  0.9442
  883MOL0     H19167   7.081   0.410   2.018 -1.1066  0.5678 -0.9833
  883MOL0     H19168   7.053   0.570   1.985 -0.5265  0.1177 -1.2648
  883MOL0     H19169   6.954   0.593   2.468  0.3890  3.0171 -2.5403
  883MOL0     H19170   6.695   0.595   2.510 -2.5508  0.3211 -0.5469
  883MOL0     H19171   6.522   0.380   2.524  1.7188  0.3424 -2.6550
  883MOL0     H19172   6.462   0.554   2.546 -0.9085  0.5934 -0.8962
  883MOL0     H19173   6.311   0.339   2.389 -0.2758 -0.1635 -0.2945
  883MOL0     H19174   6.284   0.406   2.562 -1.2973  2.1584 -0.1055
  883MOL0     H19175   6.260   0.555   2.306 -0.9394 -3.9704 -0.5434
  883MOL0     H19176   6.244   0.621   2.473  1.6152 -1.6808  1.6971
  883MOL0     H19177   6.065   0.428   2.316  0.2468 -1.5816  1.0720
  883MOL0     H19178   6.058   0.423   2.473  1.6458 -0.9076 -0.9875
  883MOL0     H19179   5.893   0.583   2.361  0.8678 -0.1525 -0.5070
  883MOL0     H19180   6.020   0.691   2.313 -4.6878  0.8562 -1.0939
  883MOL0     H19181   6.071   0.737   2.565  0.7100 -0.4471 -0.8639
  883MOL0     H19182   5.903   0.768   2.507 -1.2050 -2.1775 -1.1897
  883MOL0     H19183   6.010   0.529   2.659  2.6199  3.0125 -2.3968
  883MOL0     H19184   5.836   0.538   2.605  1.5524 -1.8435 -0.1122
  883MOL0     H19185   5.787   0.727   2.736 -0.8109  0.8779  0.1670
  883MOL0     H19186   5.948   0.721   2.817  0.1612 -3.5108  4.0213
  883MOL0     H19187   6.632   0.406   2.143  3.5555 -1.1481 -2.2184
  883MOL0     H19188   6.855   0.366   2.114 -3.0657  0.9220 -0.3677
  883MOL0     H19189   7.392   0.676   2.335 -0.2763  0.9035 -0.7245
  883MOL0     H19190   7.596   0.667   2.212  2.1523 -0.2612 -0.9584
  883MOL0     H19191   8.897  -0.117   1.071 -0.9515  0.8902  0.2257
  883MOL0     H19192   9.006  -0.151   0.846  2.3922 -1.6794  1.0091
  883MOL0     H19193   9.286  -0.311   0.601 -0.2269 -2.6455 -3.1891
  883MOL0     H19194   9.333  -0.388   0.375 -1.5970  0.2999  1.3042
  883MOL0     H19195   9.449  -0.174   0.046  0.7072  2.0442  0.1742
  883MOL0     H19196   9.604  -0.145   0.123  1.5018 -0.6477  0.5128
  883MOL0     H19197   9.681  -0.371   0.067 -1.5331 -0.0664  1.5162
  883MOL0     H19198   9.648  -0.263  -0.074  2.3576 -0.3645  0.3297
  883MOL0     H19199   9.414  -0.377  -0.077  0.9997  0.4717 -0.7193
  883MOL0     H19200   9.480  -0.506   0.023  1.4448  1.2465  1.9726
  883MOL0     H19201   9.580  -0.431  -0.256  0.0098 -1.0954 -1.0036
  883MOL0     H19202   9.492  -0.576  -0.214 -1.8521  0.8868  1.5185
  883MOL0     H19203   9.901  -0.642  -0.095  0.8381  0.0152 -0.5391
  883MOL0     H19204   9.577  -0.030   0.313 -0.8360  0.0544  0.6088
  883MOL0     H19205   9.503   0.062   0.514 -0.3662 -0.1632  3.7469
  884MOL0     O19206   1.529   9.149  10.092 -0.1562  0.5779 -0.1511
  884MOL0     C19207   1.627   9.071  10.096  0.2528 -0.1422 -0.3243
  884MOL0     O19208   1.614   8.946  10.127 -0.2599 -0.3084  0.1823
  884MOL0     C19209   1.498   8.888  10.165 -0.4887 -0.3799  0.7041
  884MOL0     C19210   1.472   8.756  10.130  1.1150  0.3298 -0.2739
  884MOL0     C19211   1.372   8.673  10.192  0.2113  0.0096  0.2537
  884MOL0     C19212   1.283   8.742  10.279  0.1800 -1.0733  0.2407
  884MOL0     O19213   1.183   8.659  10.329 -0.4655 -0.5709  0.2656
  884MOL0     C19214   1.089   8.714  10.426 -0.5770  0.7302  0.9004
  884MOL0     C19215   1.023   8.596  10.495  0.0943 -0.2096  0.4032
  884MOL0     C19216   0.880   8.642  10.532  0.2217 -0.1663  0.3682
  884MOL0     C19217   0.822   8.522  10.606 -0.7512  0.8168 -0.2819
  884MOL0     C19218   0.673   8.544  10.635  0.7244  0.3735  0.7840
  884MOL0     C19219   0.635   8.659  10.735 -1.2343  0.7263  0.8305
  884MOL0     C19220   0.483   8.644  10.769 -0.8523  0.3629 -0.5393
  884MOL0     C19221   0.396   8.632  10.641  0.4065 -0.2127  0.5603
  884MOL0     N19222   0.253   8.625  10.654  0.0390 -0.4989 -0.1592
  884MOL0     C19223   0.183   8.566  10.756  0.5508  0.1645 -0.4218
  884MOL0     C19224   0.053   8.592  10.726 -0.2255  0.6862 -0.4985
  884MOL0     C19225  -0.065   8.536  10.801 -1.0138 -0.7742 -0.4730
  884MOL0     C19226  -0.118   8.620  10.918  0.0596  0.5848 -0.0957
  884MOL0     C19227  -0.091   8.568  11.063  0.7641 -0.7353 -0.2610
  884MOL0     C19228  -0.200   8.462  11.073 -0.1279 -0.3305 -0.7116
  884MOL0     O19229  -0.181   8.338  11.000 -0.5660 -0.0244  0.4972
  884MOL0     C19230  -0.274   8.248  11.012  1.0945  0.4425  0.7674
  884MOL0     C19231  -0.231   8.117  11.016  0.9716  0.4864 -0.6391
  884MOL0     C19232  -0.316   8.008  11.019  0.5286 -0.4378 -0.1791
  884MOL0     C19233  -0.266   7.865  11.042  0.8529  0.4891 -0.0884
  884MOL0     C19234  -0.457   8.036  11.009 -0.1492  0.7640 -0.5945
  884MOL0     C19235  -0.556   7.928  10.997 -0.6370 -0.2478 -0.2400
  884MOL0     O19236  -0.604   7.913  10.869 -0.2695  0.0033 -0.2773
  884MOL0     C19237  -0.677   7.804  10.856  0.0825 -0.2235  0.7903
  884MOL0     C19238  -0.816   7.812  10.867  0.1942  0.4009 -0.2030
  884MOL0     C19239  -0.901   7.705  10.832 -0.8468  0.7320 -1.4923
  884MOL0     C19240  -0.846   7.586  10.794  1.5537  0.5785 -0.4029
  884MOL0     O19241  -0.942   7.495  10.755 -0.7379 -0.0651  0.0666
  884MOL0     C19242  -0.904   7.361  10.724  0.1947  0.7304 -0.8127
  884MOL0     C19243  -1.022   7.274  10.669 -0.7639 -0.7617  0.2198
  884MOL0     C19244  -1.118   7.225  10.779 -0.3151 -0.1549  0.4923
  884MOL0     C19245  -1.059   7.101  10.853  0.0004 -0.2161  1.0232
  884MOL0     C19246  -1.169   7.011  10.910  0.4608  0.0823 -0.7010
  884MOL0     C19247  -1.284   7.082  10.964  0.1393 -0.0785 -0.0061
  884MOL0     C19248  -1.399   6.993  11.021  0.1772  0.5333 -0.1721
  884MOL0     C19249  -1.509   7.077  11.084  0.0895  0.2623 -0.3285
  884MOL0    Cl19250  -1.603   7.173  10.957 -0.0826  0.4807 -0.1267
  884MOL0     C19251  -0.705   7.579  10.787  0.6286  0.6303  0.6629
  884MOL0     C19252  -0.621   7.683  10.819 -0.4248 -0.1973  0.3701
  884MOL0     O19253  -0.590   7.870  11.098  0.0310  0.4853  0.7280
  884MOL0     C19254  -0.507   8.161  11.001 -0.1784 -0.5153  0.6381
  884MOL0     C19255  -0.415   8.271  11.002 -0.1628  0.7506  0.1856
  884MOL0     N19256   0.050   8.659  10.610  0.3014 -0.2339  0.0664
  884MOL0     N19257   0.166   8.664  10.556 -0.1220 -0.2221 -0.0855
  884MOL0     C19258   1.287   8.880  10.309 -0.5613  0.3385  0.2620
  884MOL0     C19259   1.398   8.954  10.250  0.0683  0.0697 -0.0777
  884MOL0     C19260   1.759   9.123  10.036  0.1399  0.3996 -0.4014
  884MOL0     C19261   1.851   9.036   9.994  0.0035  0.7718 -0.7848
  884MOL0     C19262   1.964   9.076   9.920  0.0931  0.4881 -0.6688
  884MOL0     C19263   1.992   9.211   9.903  0.2527 -0.9626  0.7758
  884MOL0     O19264   2.108   9.251   9.839 -0.4243 -0.0892 -0.1408
  884MOL0     C19265   2.231   9.181   9.862 -0.5247 -0.6162 -0.5781
  884MOL0     C19266   2.254   9.079   9.739 -1.4617  0.4333 -0.5106
  884MOL0     C19267   2.219   9.132   9.601 -0.0406 -0.4724 -0.2866
  884MOL0     C19268   2.284   9.064   9.481  0.3829  0.3895  0.9594
  884MOL0     C19269   2.243   9.103   9.343 -0.7493 -0.0080  0.6636
  884MOL0     C19270   2.214   9.143   9.230 -0.4546  0.2911 -0.3073
  884MOL0     C19271   1.895   9.299   9.953 -0.5636 -0.2334 -0.0307
  884MOL0     C19272   1.781   9.253  10.011 -0.4934 -0.0082 -0.5111
  884MOL0     H19273   1.535   8.707  10.057  2.0800  0.7050  0.2810
  884MOL0     H19274   1.338   8.570  10.183 -2.7828  0.8084  1.4341
  884MOL0     H19275   1.143   8.774  10.499  0.4720  0.9682 -0.0401
  884MOL0     H19276   1.024   8.780  10.368  1.6591  1.8443 -0.4614
  884MOL0     H19277   1.023   8.510  10.427 -2.4186  0.6762 -0.8490
  884MOL0     H19278   1.078   8.573  10.587  1.0145 -0.6209 -0.2299
  884MOL0     H19279   0.882   8.734  10.590  2.6635  0.8182 -1.1396
  884MOL0     H19280   0.819   8.658  10.442 -6.2535  0.3818  4.1881
  884MOL0     H19281   0.822   8.424  10.557 -1.7532  0.8700 -0.4175
  884MOL0     H19282   0.870   8.509  10.704  1.5589 -0.2895 -1.4776
  884MOL0     H19283   0.621   8.563  10.541 -2.9800 -2.6503  1.9404
  884MOL0     H19284   0.635   8.446  10.666 -0.7830  1.0772  1.2790
  884MOL0     H19285   0.710   8.654  10.814 -0.5770  0.8028  0.2162
  884MOL0     H19286   0.653   8.749  10.677  2.7912 -1.1799 -1.2918
  884MOL0     H19287   0.479   8.549  10.824  0.1264  1.2673  1.1519
  884MOL0     H19288   0.448   8.716  10.844  2.1063 -0.3619  1.6979
  884MOL0     H19289   0.404   8.528  10.609 -1.9319 -0.1474 -0.3758
  884MOL0     H19290   0.416   8.702  10.560 -0.7008 -2.8752 -2.1797
  884MOL0     H19291   0.225   8.522  10.846 -0.5328  2.6886  1.4200
  884MOL0     H19292  -0.144   8.519  10.728  0.9246 -0.2966 -2.8093
  884MOL0     H19293  -0.026   8.443  10.843 -0.3757  0.3034  1.4636
  884MOL0     H19294  -0.226   8.637  10.913 -0.2214 -0.8656  0.7093
  884MOL0     H19295  -0.082   8.723  10.906  0.6226  0.2498 -1.3634
  884MOL0     H19296  -0.113   8.644  11.139 -0.4029 -1.6110  0.3168
  884MOL0     H19297   0.007   8.520  11.071  1.4340  0.6105 -0.1261
  884MOL0     H19298  -0.297   8.507  11.048  1.2356  1.8041 -2.5063
  884MOL0     H19299  -0.202   8.417  11.173 -3.4661 -1.1016 -1.0053
  884MOL0     H19300  -0.124   8.107  11.030  0.6169 -1.2639  1.2326
  884MOL0     H19301  -0.268   7.794  10.958  2.0094 -0.0218  0.2851
  884MOL0     H19302  -0.157   7.873  11.056  1.3639  1.4226 -3.5191
  884MOL0     H19303  -0.314   7.823  11.130 -0.7323  2.6382  0.1315
  884MOL0     H19304  -0.851   7.908  10.904  0.0977 -0.6499  2.6885
  884MOL0     H19305  -1.009   7.709  10.842 -0.8642  1.2296 -1.8433
  884MOL0     H19306  -0.827   7.360  10.646  1.4299 -1.5406  0.3138
  884MOL0     H19307  -0.857   7.325  10.816  1.5829  0.3717 -1.6233
  884MOL0     H19308  -1.074   7.336  10.595  0.2448 -1.2827 -0.9750
  884MOL0     H19309  -0.980   7.198  10.602  0.3758  2.0034 -2.4545
  884MOL0     H19310  -1.215   7.207  10.730 -0.0841 -0.9024  0.2997
  884MOL0     H19311  -1.132   7.310  10.846  2.8986  2.5527 -1.9649
  884MOL0     H19312  -0.994   7.046  10.784  1.9282  0.4493  2.2259
  884MOL0     H19313  -1.000   7.148  10.932  3.4159 -1.5195 -0.5801
  884MOL0     H19314  -1.131   6.925  10.965  0.3772 -2.0032 -3.6727
  884MOL0     H19315  -1.212   6.951  10.829 -1.4276 -3.6574  2.7460
  884MOL0     H19316  -1.255   7.154  11.041 -0.3881 -0.9196  1.0025
  884MOL0     H19317  -1.336   7.145  10.892 -1.4772  0.7558  1.8156
  884MOL0     H19318  -1.357   6.917  11.086  1.4778  2.0164  0.8087
  884MOL0     H19319  -1.443   6.935  10.940  1.0823  0.5207 -0.6659
  884MOL0     H19320  -1.460   7.137  11.161  0.8450 -2.8935  1.8767
  884MOL0     H19321  -1.570   7.006  11.141 -0.5648 -1.0795 -2.5717
  884MOL0     H19322  -0.659   7.484  10.762  1.1626  1.1598 -0.4575
  884MOL0     H19323  -0.513   7.676  10.807 -0.2641 -0.2779  1.7482
  884MOL0     H19324  -0.609   8.193  10.982  1.0386  2.4222 -1.9021
  884MOL0     H19325  -0.445   8.374  10.983  1.3304  0.7748 -2.6820
  884MOL0     H19326   1.224   8.945  10.370  1.4333  2.1430  0.5437
  884MOL0     H19327   1.402   9.057  10.283  0.0293  0.1685 -0.3861
  884MOL0     H19328   1.844   8.928  10.008 -3.6035  0.7912 -1.4254
  884MOL0     H19329   2.025   8.991   9.891  1.0633 -0.2429  3.0569
  884MOL0     H19330   2.316   9.250   9.862 -0.4075 -0.7170 -2.7243
  884MOL0     H19331   2.224   9.136   9.962 -1.7401  4.4397  1.9341
  884MOL0     H19332   2.182   9.001   9.767 -0.1949  0.3585  3.0754
  884MOL0     H19333   2.355   9.037   9.741 -0.9724  1.5694 -0.8293
  884MOL0     H19334   2.245   9.239   9.602  0.0756 -0.4786  1.7199
  884MOL0     H19335   2.112   9.118   9.583  0.8202 -3.7866 -4.1313
  884MOL0     H19336   2.274   8.956   9.496 -0.3658  0.2125 -0.6314
  884MOL0     H19337   2.389   9.094   9.488  0.0375  1.4519  1.8794
  884MOL0     H19338   2.198   9.182   9.131 -1.4840 -0.1247 -0.3126
  884MOL0     H19339   1.930   9.401   9.935  2.1180 -1.3770 -2.0527
  884MOL0     H19340   1.713   9.333  10.039  0.9084  2.5617 -3.6693
  885MOL0     O19341  10.831   0.320   7.730  0.6966  0.4526  0.1553
  885MOL0     C19342  10.754   0.240   7.780  0.7539  0.8092  0.9194
  885MOL0     O19343  10.781   0.106   7.800  0.0773  0.0441 -0.2800
  885MOL0     C19344  10.899   0.065   7.749 -0.4062 -0.0347 -0.0142
  885MOL0     C19345  11.028   0.126   7.789 -0.4954 -0.1849  0.6909
  885MOL0     C19346  11.153   0.069   7.742 -0.0986  1.0126  0.0308
  885MOL0     C19347  11.146  -0.045   7.660 -0.1173 -0.0401  0.7000
  885MOL0     O19348  11.257  -0.098   7.624 -0.4416  0.4286 -0.0421
  885MOL0     C19349  11.257  -0.240   7.654  0.3617 -0.2021 -0.7616
  885MOL0     C19350  11.405  -0.290   7.672 -0.5997 -0.6976 -0.9349
  885MOL0     C19351  11.491  -0.212   7.770 -0.6697 -0.0849 -0.1609
  885MOL0     C19352  11.640  -0.220   7.734  0.7167 -0.5405 -0.9087
  885MOL0     C19353  11.719  -0.158   7.841 -0.2349  0.5049  0.3665
  885MOL0     C19354  11.875  -0.164   7.809  0.0098  0.2747  0.2350
  885MOL0     C19355  11.964  -0.103   7.916  0.4224  0.2901 -0.3660
  885MOL0     C19356  11.993   0.046   7.903 -0.0813 -0.2753 -0.1870
  885MOL0     N19357  12.078   0.078   7.787 -0.1128  0.5313  0.1969
  885MOL0     C19358  12.212   0.058   7.776 -0.1928  0.0538 -0.6433
  885MOL0     C19359  12.260   0.105   7.657 -0.0216 -0.3518 -0.4880
  885MOL0     C19360  12.402   0.105   7.613 -0.2970 -0.3202  0.4998
  885MOL0     C19361  12.424   0.206   7.499  0.9551 -0.2025  0.4175
  885MOL0     C19362  12.435   0.344   7.558  0.8252  0.6283  0.7173
  885MOL0     C19363  12.424   0.440   7.442 -0.0615  0.1519 -0.8037
  885MOL0     O19364  12.435   0.572   7.500 -0.5033  0.1312  0.0921
  885MOL0     C19365  12.333   0.642   7.551 -0.0890  0.4884 -0.4242
  885MOL0     C19366  12.202   0.636   7.508 -0.5937 -0.3268  0.1296
  885MOL0     C19367  12.105   0.719   7.568 -0.7831  0.4414 -0.8270
  885MOL0     C19368  11.972   0.717   7.512  0.0194  0.2446  0.5023
  885MOL0     C19369  12.139   0.810   7.671 -0.7689  0.5689 -0.2931
  885MOL0     C19370  12.031   0.910   7.739 -0.4642 -0.3164  0.2264
  885MOL0     O19371  12.063   0.955   7.865 -0.2899  0.6811 -0.0620
  885MOL0     C19372  11.966   1.041   7.917 -0.1340 -0.5523  0.8653
  885MOL0     C19373  11.831   0.994   7.940 -0.4940 -0.6884 -0.1781
  885MOL0     C19374  11.732   1.077   7.992  0.7477  0.5395 -0.1559
  885MOL0     C19375  11.763   1.215   8.013  0.0844 -0.1692  0.1968
  885MOL0     O19376  11.668   1.300   8.066 -0.1903 -0.2452 -0.2978
  885MOL0     C19377  11.535   1.295   8.003 -0.2670 -0.1873  0.0033
  885MOL0     C19378  11.466   1.428   8.028 -0.5399  0.1193 -0.0484
  885MOL0     C19379  11.387   1.417   8.162  0.2895  0.0203 -0.2726
  885MOL0     C19380  11.250   1.468   8.149  0.7026  0.1779  0.5867
  885MOL0     C19381  11.157   1.461   8.270 -0.4375  0.2348  0.3403
  885MOL0     C19382  11.185   1.562   8.385  0.4744 -0.8657  0.3243
  885MOL0     C19383  11.124   1.545   8.516  0.4367  0.9052 -0.7928
  885MOL0     C19384  10.983   1.496   8.517 -0.0051  0.2801  0.1303
  885MOL0    Cl19385  10.880   1.609   8.420  0.2664 -0.0740  0.1184
  885MOL0     C19386  11.892   1.257   7.982  0.3768 -0.2799 -0.2548
  885MOL0     C19387  12.003   1.167   7.938 -0.1365 -0.1048 -0.1460
  885MOL0     O19388  11.944   0.957   7.669 -0.1108 -0.1427  0.3121
  885MOL0     C19389  12.268   0.801   7.729  0.5747 -0.7054 -0.1425
  885MOL0     C19390  12.360   0.726   7.665 -0.5687  0.2300  0.0472
  885MOL0     N19391  12.140   0.162   7.601 -0.2229  0.3208 -0.0241
  885MOL0     N19392  12.038   0.147   7.681  0.2337  0.0506  0.6389
  885MOL0     C19393  11.030  -0.095   7.611 -0.0129  1.0166  0.1651
  885MOL0     C19394  10.913  -0.040   7.663  0.3126  0.3270 -0.0290
  885MOL0     C19395  10.632   0.282   7.849 -0.2059  0.7224 -0.3882
  885MOL0     C19396  10.584   0.409   7.844 -0.7517  0.5060  0.0290
  885MOL0     C19397  10.464   0.454   7.901 -0.5614 -0.6283  0.5419
  885MOL0     C19398  10.392   0.368   7.979  0.1001 -1.0911 -0.3249
  885MOL0     O19399  10.279   0.401   8.049 -0.4491 -0.2673 -0.9865
  885MOL0     C19400  10.229   0.534   8.056  0.4519  0.5007  0.2821
  885MOL0     C19401  10.088   0.546   8.116  0.1109  0.4678  0.0742
  885MOL0     C19402  10.010   0.662   8.052  0.8992  0.7574  0.4436
  885MOL0     C19403  10.079   0.796   8.067 -0.7647  0.2450 -0.5009
  885MOL0     C19404  10.089   0.824   8.208  0.1450 -0.2925 -0.0407
  885MOL0     C19405  10.101   0.851   8.325 -0.4830 -0.1425 -0.7443
  885MOL0     C19406  10.451   0.243   8.009  0.3230  0.7447  0.6121
  885MOL0     C19407  10.568   0.202   7.942 -0.1979 -0.6066 -0.0460
  885MOL0     H19408  11.022   0.212   7.855 -0.6986 -1.4070  2.3340
  885MOL0     H19409  11.248   0.118   7.764 -0.8375  3.2192 -1.4181
  885MOL0     H19410  11.189  -0.261   7.737 -3.8156 -1.9016 -4.2728
  885MOL0     H19411  11.207  -0.299   7.578 -0.0876 -0.3153 -0.3867
  885MOL0     H19412  11.407  -0.394   7.708 -0.4293 -0.2354  0.4672
  885MOL0     H19413  11.447  -0.295   7.571 -0.7028 -1.4655 -0.9511
  885MOL0     H19414  11.474  -0.105   7.789  2.5630  0.7544 -1.3390
  885MOL0     H19415  11.476  -0.269   7.862  0.5402  0.6429  0.5083
  885MOL0     H19416  11.669  -0.326   7.739 -0.3207 -0.7630  2.1247
  885MOL0     H19417  11.658  -0.184   7.632  1.0156  1.1671 -0.2895
  885MOL0     H19418  11.682  -0.056   7.853 -1.7012 -0.0478  0.8404
  885MOL0     H19419  11.705  -0.217   7.932 -1.0581 -2.4671 -1.5557
  885MOL0     H19420  11.914  -0.262   7.782 -0.2380  0.9568 -2.9801
  885MOL0     H19421  11.894  -0.108   7.717  0.9327 -0.9334 -0.3357
  885MOL0     H19422  11.911  -0.114   8.011 -0.6717 -0.1838 -1.0104
  885MOL0     H19423  12.058  -0.159   7.919 -1.2101 -2.6917 -0.5675
  885MOL0     H19424  12.049   0.085   7.989  0.6086 -1.2937 -0.1503
  885MOL0     H19425  11.903   0.106   7.890 -0.2899  0.4664  3.5526
  885MOL0     H19426  12.279   0.029   7.856 -2.7089 -1.1389  1.1759
  885MOL0     H19427  12.458   0.139   7.701  0.1345  0.1870  0.0349
  885MOL0     H19428  12.432   0.003   7.589  3.6638  1.4452 -3.3161
  885MOL0     H19429  12.337   0.197   7.433  1.0160 -0.2199  0.3396
  885MOL0     H19430  12.514   0.190   7.439  1.5102 -1.2631  1.4793
  885MOL0     H19431  12.528   0.353   7.614 -0.7358 -1.2176  3.8548
  885MOL0     H19432  12.357   0.366   7.631  2.3980 -0.2796  2.7490
  885MOL0     H19433  12.338   0.430   7.376 -1.2146 -0.5495  0.7518
  885MOL0     H19434  12.510   0.428   7.376  0.4757  0.5998 -0.2053
  885MOL0     H19435  12.196   0.569   7.423  3.1096 -0.5273 -0.1677
  885MOL0     H19436  11.955   0.813   7.463 -0.2985  0.2856  0.6953
  885MOL0     H19437  11.949   0.637   7.440 -0.5534  0.8822 -0.0308
  885MOL0     H19438  11.905   0.714   7.598  3.1527  2.0502  3.2170
  885MOL0     H19439  11.802   0.890   7.928  2.0491 -1.3962 -0.8188
  885MOL0     H19440  11.633   1.036   8.004  0.6080  0.8036 -0.3929
  885MOL0     H19441  11.546   1.282   7.895 -3.1717  0.4830 -0.4572
  885MOL0     H19442  11.478   1.206   8.031 -1.6303  0.3583 -0.9660
  885MOL0     H19443  11.543   1.504   8.015  1.6637 -1.4592  2.7353
  885MOL0     H19444  11.389   1.433   7.950 -2.6827  0.1719  1.9791
  885MOL0     H19445  11.443   1.486   8.226  1.6987 -1.1308 -0.2201
  885MOL0     H19446  11.382   1.313   8.195 -0.6354 -0.0274 -0.5333
  885MOL0     H19447  11.254   1.571   8.115  2.3897 -0.3787 -1.0662
  885MOL0     H19448  11.207   1.407   8.069  2.5339  0.0197 -0.3449
  885MOL0     H19449  11.179   1.361   8.309 -4.8397 -0.3373  1.8756
  885MOL0     H19450  11.058   1.465   8.224  0.1835  1.1510 -0.9847
  885MOL0     H19451  11.292   1.558   8.407  1.5759  0.3010 -3.9433
  885MOL0     H19452  11.162   1.663   8.348 -2.3833 -1.3599  0.5411
  885MOL0     H19453  11.110   1.639   8.570 -0.6425  1.3609 -1.7980
  885MOL0     H19454  11.184   1.471   8.569 -2.4696 -0.8704  0.2927
  885MOL0     H19455  10.959   1.476   8.622 -0.3223  0.6519  0.1301
  885MOL0     H19456  10.985   1.397   8.471 -1.0945  0.0340  0.5884
  885MOL0     H19457  11.922   1.361   7.982  0.6305 -0.3494  0.7889
  885MOL0     H19458  12.106   1.196   7.921 -0.9212  2.9476 -0.3666
  885MOL0     H19459  12.301   0.860   7.814 -3.0366 -0.0542  0.9927
  885MOL0     H19460  12.466   0.732   7.688  0.1431 -0.5932 -2.6093
  885MOL0     H19461  11.036  -0.174   7.537  0.6889 -0.1490  1.4171
  885MOL0     H19462  10.826  -0.103   7.643 -1.9945  3.2367  0.0808
  885MOL0     H19463  10.637   0.488   7.792  0.0235  0.2805  0.4627
  885MOL0     H19464  10.426   0.551   7.873  0.1911  0.3060  2.5565
  885MOL0     H19465  10.298   0.596   8.114 -1.2725  1.1567  1.7265
  885MOL0     H19466  10.230   0.575   7.955  1.9613 -2.0736 -0.8159
  885MOL0     H19467  10.100   0.558   8.224  0.4770 -0.8032  0.1956
  885MOL0     H19468  10.035   0.451   8.098 -1.7217  1.0638  1.9160
  885MOL0     H19469   9.903   0.660   8.075  0.2518 -1.9584 -2.0969
  885MOL0     H19470  10.004   0.651   7.943 -2.4092 -0.6868  0.6482
  885MOL0     H19471  10.025   0.877   8.017 -0.6894  0.5509 -0.0896
  885MOL0     H19472  10.181   0.789   8.029  0.2370  1.2977  1.7767
  885MOL0     H19473  10.108   0.860   8.432 -0.2950 -4.3004 -0.2141
  885MOL0     H19474  10.400   0.175   8.076  1.5900 -1.2503 -0.3473
  885MOL0     H19475  10.610   0.109   7.979 -0.7974  0.0197  2.3564
  886MOL0     O19476   8.841   8.494   8.222 -0.9272  0.4136 -0.0606
  886MOL0     C19477   8.903   8.433   8.309  0.3343  0.5110  0.3853
  886MOL0     O19478   8.856   8.335   8.392  0.6176 -0.2086 -0.2577
  886MOL0     C19479   8.733   8.272   8.391 -1.6162 -0.1120 -0.4216
  886MOL0     C19480   8.625   8.308   8.316 -0.1276  0.8515 -0.6801
  886MOL0     C19481   8.509   8.234   8.321 -0.2437  0.1891 -0.4892
  886MOL0     C19482   8.507   8.120   8.397 -0.0093  1.3022 -0.4487
  886MOL0     O19483   8.399   8.038   8.369 -0.7751 -0.2643 -0.1663
  886MOL0     C19484   8.389   7.916   8.437  0.4497 -0.5157 -0.0560
  886MOL0     C19485   8.300   7.834   8.351  0.1343 -0.2677 -0.4937
  886MOL0     C19486   8.149   7.855   8.387 -0.2763 -1.2972  0.8033
  886MOL0     C19487   8.082   7.981   8.325  0.6429 -0.4975 -0.6917
  886MOL0     C19488   7.928   7.954   8.328  0.4842  0.0809 -0.4047
  886MOL0     C19489   7.885   7.895   8.197  0.2762  0.1977 -0.2491
  886MOL0     C19490   7.737   7.894   8.181  0.7559  0.3447 -0.0576
  886MOL0     C19491   7.650   7.837   8.296 -0.1297  0.4649 -0.6052
  886MOL0     N19492   7.506   7.819   8.266  0.3047 -0.5460  0.2779
  886MOL0     C19493   7.428   7.908   8.191 -1.5921  0.3968 -0.0979
  886MOL0     C19494   7.307   7.886   8.226 -0.3141 -0.2155  0.2274
  886MOL0     C19495   7.191   7.967   8.179 -0.2236  1.0885 -0.5956
  886MOL0     C19496   7.115   7.913   8.059 -0.3563  0.1314 -0.3095
  886MOL0     C19497   7.055   7.786   8.091  0.2284  0.4575 -0.4087
  886MOL0     C19498   6.965   7.742   7.969 -1.0226  0.8529  0.2227
  886MOL0     O19499   7.041   7.705   7.855 -0.0567  0.6063 -0.4285
  886MOL0     C19500   6.970   7.652   7.754  0.2666 -0.1801  0.1069
  886MOL0     C19501   6.894   7.730   7.665  0.0659 -0.3732  0.1873
  886MOL0     C19502   6.837   7.681   7.547 -0.5068  0.4676  0.5076
  886MOL0     C19503   6.780   7.779   7.454 -0.1011  0.4726  0.0002
  886MOL0     C19504   6.842   7.538   7.520  0.5121 -0.0003 -0.2225
  886MOL0     C19505   6.778   7.472   7.404 -0.3974 -0.6841  0.8794
  886MOL0     O19506   6.673   7.545   7.352 -0.4188 -0.1162 -0.3170
  886MOL0     C19507   6.586   7.505   7.258 -0.6905  0.0029 -0.3291
  886MOL0     C19508   6.653   7.453   7.139  1.1882  0.0737 -0.6097
  886MOL0     C19509   6.570   7.413   7.040  0.8384  0.2691 -1.8040
  886MOL0     C19510   6.430   7.420   7.055  0.3270  0.4319 -0.1886
  886MOL0     O19511   6.340   7.367   6.960  0.0010 -0.4977 -0.3146
  886MOL0     C19512   6.383   7.259   6.875  0.1663 -0.1941  1.1156
  886MOL0     C19513   6.254   7.228   6.801 -0.0497 -0.1129 -1.1829
  886MOL0     C19514   6.234   7.348   6.714 -0.1785  0.5591  0.3013
  886MOL0     C19515   6.165   7.313   6.586  0.0843  0.6247  0.7487
  886MOL0     C19516   6.099   7.438   6.526  0.7093 -0.6721  0.1753
  886MOL0     C19517   6.010   7.397   6.408  0.0147 -0.3164 -0.5304
  886MOL0     C19518   6.103   7.367   6.290 -0.2916  0.1624  0.3336
  886MOL0     C19519   6.017   7.370   6.159 -0.4295  0.1912 -0.0542
  886MOL0    Cl19520   5.989   7.546   6.117  0.0005  0.4139  0.6342
  886MOL0     C19521   6.375   7.488   7.160  0.1139  0.8065  0.4627
  886MOL0     C19522   6.452   7.520   7.266  1.0443  0.0353 -0.1235
  886MOL0     O19523   6.809   7.357   7.365 -0.1800 -0.3045  0.2004
  886MOL0     C19524   6.917   7.465   7.611  1.1430  0.2766  0.7964
  886MOL0     C19525   6.972   7.521   7.727  0.1278 -0.6474  0.5176
  886MOL0     N19526   7.308   7.783   8.313  0.2988 -0.2415 -0.0249
  886MOL0     N19527   7.424   7.746   8.339 -0.5494 -0.8821  0.2138
  886MOL0     C19528   8.605   8.095   8.484  0.4733 -0.4750 -0.7404
  886MOL0     C19529   8.719   8.169   8.484  0.1236 -0.5166  0.8136
  886MOL0     C19530   9.051   8.479   8.319  0.2573 -0.7385  0.6979
  886MOL0     C19531   9.117   8.557   8.223  0.1791 -0.0631  0.8417
  886MOL0     C19532   9.249   8.585   8.229  0.2545  0.1399 -0.4741
  886MOL0     C19533   9.320   8.547   8.346 -0.5531 -0.6838 -0.2776
  886MOL0     O19534   9.451   8.585   8.372 -0.4302  0.4162  0.2410
  886MOL0     C19535   9.526   8.645   8.266 -0.8156 -0.1517 -0.1259
  886MOL0     C19536   9.672   8.658   8.295 -0.5597  0.0856 -0.2955
  886MOL0     C19537   9.735   8.536   8.364 -0.4578 -0.3223 -1.1029
  886MOL0     C19538   9.717   8.398   8.292 -0.5348  0.0200 -0.4495
  886MOL0     C19539   9.811   8.400   8.181  0.0468 -0.4612 -0.5236
  886MOL0     C19540   9.903   8.392   8.102 -0.2528  0.8362  0.0313
  886MOL0     C19541   9.261   8.465   8.438  0.0440 -0.0256  0.1504
  886MOL0     C19542   9.125   8.434   8.427 -0.3284 -0.4315 -0.5302
  886MOL0     H19543   8.622   8.395   8.250 -2.5188 -0.8220 -3.0246
  886MOL0     H19544   8.436   8.267   8.248 -1.6505 -2.5730 -0.4732
  886MOL0     H19545   8.482   7.858   8.435  0.1468 -0.9919 -0.6458
  886MOL0     H19546   8.347   7.937   8.536 -1.5868 -0.0337 -0.9767
  886MOL0     H19547   8.321   7.855   8.246 -1.6870  0.4491 -0.7471
  886MOL0     H19548   8.321   7.728   8.371 -0.8994 -0.6118 -1.1535
  886MOL0     H19549   8.099   7.762   8.357 -2.0604 -1.0625  2.8049
  886MOL0     H19550   8.136   7.866   8.495 -0.3284  2.5105  0.5451
  886MOL0     H19551   8.113   8.074   8.373  4.3873 -2.5505  1.3255
  886MOL0     H19552   8.119   7.989   8.223 -1.8319 -0.7820 -1.7024
  886MOL0     H19553   7.910   7.887   8.413  2.7300  1.8315  1.5773
  886MOL0     H19554   7.880   8.052   8.337  0.7785  0.2948 -1.0846
  886MOL0     H19555   7.944   7.950   8.123  2.4447 -0.2771  1.0355
  886MOL0     H19556   7.917   7.790   8.195 -2.3071 -0.6687 -0.1072
  886MOL0     H19557   7.698   7.992   8.154  0.3386  0.7683  1.9436
  886MOL0     H19558   7.706   7.838   8.092  0.9007 -0.1415  0.1924
  886MOL0     H19559   7.671   7.902   8.381  1.2728 -1.2753  0.4499
  886MOL0     H19560   7.700   7.740   8.309 -1.5423 -0.9141 -4.1006
  886MOL0     H19561   7.457   7.988   8.124 -3.2819 -0.3477 -1.8053
  886MOL0     H19562   7.113   7.964   8.256 -1.0618 -0.1212 -1.4419
  886MOL0     H19563   7.225   8.071   8.174  1.3572  0.5280 -2.6274
  886MOL0     H19564   7.181   7.905   7.972  0.2997  0.7305  0.1170
  886MOL0     H19565   7.047   7.991   8.024  0.5486  0.5691 -1.1514
  886MOL0     H19566   6.993   7.790   8.182 -0.0277  1.0830 -0.6034
  886MOL0     H19567   7.132   7.712   8.113  0.5564  0.6440 -0.9304
  886MOL0     H19568   6.887   7.812   7.938 -0.3341  1.6190  0.1780
  886MOL0     H19569   6.910   7.653   8.000 -0.8217  0.7653  0.3299
  886MOL0     H19570   6.893   7.837   7.685 -1.9453 -0.5268  1.2211
  886MOL0     H19571   6.825   7.778   7.355 -1.2570  2.5799 -0.6042
  886MOL0     H19572   6.672   7.761   7.461  0.0997 -0.2672  1.8186
  886MOL0     H19573   6.800   7.882   7.485  2.3161 -0.2656  1.1890
  886MOL0     H19574   6.760   7.443   7.129  1.0666 -1.3913 -0.5885
  886MOL0     H19575   6.605   7.384   6.942 -0.0610  2.9649 -3.0369
  886MOL0     H19576   6.469   7.279   6.809 -0.9395 -1.0155 -0.6536
  886MOL0     H19577   6.421   7.177   6.936  1.7490  0.4468  1.0559
  886MOL0     H19578   6.265   7.140   6.738 -1.0745 -0.7548 -0.4891
  886MOL0     H19579   6.170   7.213   6.869  0.8793 -1.3559 -0.2518
  886MOL0     H19580   6.326   7.402   6.689 -0.6384  1.0652 -0.3223
  886MOL0     H19581   6.165   7.411   6.770  0.7112  1.0111  0.9198
  886MOL0     H19582   6.245   7.279   6.520 -0.6119 -1.0529  0.7318
  886MOL0     H19583   6.087   7.238   6.603 -0.6054  0.5438 -2.2435
  886MOL0     H19584   6.181   7.504   6.494  0.5153  2.3626  4.9225
  886MOL0     H19585   6.038   7.498   6.595  1.9028  2.5841 -1.3847
  886MOL0     H19586   5.938   7.318   6.434 -0.2262  0.9772  3.3347
  886MOL0     H19587   5.946   7.484   6.387 -1.4930 -0.5803  2.4090
  886MOL0     H19588   6.137   7.264   6.295  0.3054  0.3293 -0.1913
  886MOL0     H19589   6.188   7.435   6.277  0.4509 -1.0428 -1.5788
  886MOL0     H19590   5.916   7.329   6.167 -1.7842  3.4891  1.9431
  886MOL0     H19591   6.080   7.323   6.083  1.7472 -0.0150  1.7845
  886MOL0     H19592   6.268   7.503   7.165  0.0032  0.3138 -0.2917
  886MOL0     H19593   6.412   7.556   7.360 -0.8305 -2.6361  0.2124
  886MOL0     H19594   6.931   7.358   7.602  1.5224  0.3632  0.3136
  886MOL0     H19595   7.022   7.444   7.786  0.0280 -0.2331  1.1599
  886MOL0     H19596   8.604   8.006   8.546 -1.4076  0.0431  0.0458
  886MOL0     H19597   8.803   8.136   8.543  1.9219 -0.0850 -1.3568
  886MOL0     H19598   9.074   8.593   8.131 -1.6372  1.8101  2.3139
  886MOL0     H19599   9.301   8.644   8.154 -1.1247 -0.1813 -1.7208
  886MOL0     H19600   9.504   8.589   8.175 -0.7770  0.6486 -0.6315
  886MOL0     H19601   9.500   8.751   8.260  0.2756  0.0567 -5.2446
  886MOL0     H19602   9.693   8.746   8.356  1.7509 -1.2685  1.0065
  886MOL0     H19603   9.728   8.680   8.204  5.0660 -0.3672  2.6599
  886MOL0     H19604   9.679   8.528   8.458 -2.9545 -1.3393 -2.5801
  886MOL0     H19605   9.838   8.547   8.399 -0.7949 -0.9465  0.1294
  886MOL0     H19606   9.614   8.389   8.258 -0.7132 -0.4553  0.2010
  886MOL0     H19607   9.756   8.329   8.368  0.4570 -0.7704 -1.6414
  886MOL0     H19608   9.988   8.375   8.039 -0.4608  2.1131 -0.6215
  886MOL0     H19609   9.309   8.411   8.519  0.4612 -0.6399 -0.4925
  886MOL0     H19610   9.085   8.366   8.501 -1.7242  0.4207 -0.4703
  887MOL0     O19611   3.952  11.249   8.293  0.3581 -0.0759  0.6951
  887MOL0     C19612   4.038  11.322   8.320 -0.4544  0.4823  0.6799
  887MOL0     O19613   4.023  11.452   8.366 -0.2247  0.8541  0.7353
  887MOL0     C19614   3.909  11.524   8.399 -0.1047 -0.1303 -0.6345
  887MOL0     C19615   3.924  11.656   8.443  1.5074  0.5991 -0.7454
  887MOL0     C19616   3.808  11.739   8.463 -0.6538  0.7525 -0.1726
  887MOL0     C19617   3.681  11.688   8.436  0.3644  0.5932  0.3868
  887MOL0     O19618   3.580  11.777   8.461  0.8697  0.2797  0.7988
  887MOL0     C19619   3.447  11.730   8.454  0.6755  0.0865 -0.1013
  887MOL0     C19620   3.367  11.850   8.519  0.0921 -1.3205  0.0270
  887MOL0     C19621   3.221  11.849   8.507  0.8305  0.0886  0.6215
  887MOL0     C19622   3.152  11.963   8.576 -0.2200 -0.1571  0.3334
  887MOL0     C19623   3.165  11.968   8.728  0.0084 -0.1472 -0.3401
  887MOL0     C19624   3.063  12.064   8.804 -0.8077 -0.5609 -0.2661
  887MOL0     C19625   3.042  12.200   8.744 -0.5494 -0.2687 -0.0735
  887MOL0     C19626   2.925  12.286   8.814  1.0611 -0.2913  0.1525
  887MOL0     N19627   2.975  12.362   8.930 -0.2143 -0.1887  0.4139
  887MOL0     C19628   3.019  12.325   9.056  0.6225  0.3886  0.5769
  887MOL0     C19629   3.062  12.430   9.126 -0.0514 -0.3542  0.4925
  887MOL0     C19630   3.107  12.446   9.268  0.5219  0.8832  0.7954
  887MOL0     C19631   3.211  12.332   9.309  0.0918 -0.1043  0.5029
  887MOL0     C19632   3.145  12.215   9.384 -0.2792 -0.1765 -0.8761
  887MOL0     C19633   3.234  12.096   9.383 -0.7677  0.5132  0.4355
  887MOL0     O19634   3.184  11.988   9.465  0.0112 -0.0812  0.3634
  887MOL0     C19635   3.230  11.863   9.423  0.1224 -0.2764  0.9736
  887MOL0     C19636   3.156  11.757   9.470 -0.6985  1.2993 -0.3057
  887MOL0     C19637   3.200  11.633   9.459  0.2780  0.6815 -0.6843
  887MOL0     C19638   3.127  11.526   9.532  0.4338  0.2304  0.6223
  887MOL0     C19639   3.313  11.599   9.382  0.7144 -0.3560  0.7643
  887MOL0     C19640   3.361  11.462   9.353 -0.1271 -0.8028 -0.4355
  887MOL0     O19641   3.496  11.452   9.318 -0.6827  0.3415 -0.7043
  887MOL0     C19642   3.541  11.333   9.270  0.0651  0.2668  1.2205
  887MOL0     C19643   3.525  11.312   9.131  0.2854 -0.9138  0.4277
  887MOL0     C19644   3.580  11.204   9.067 -0.3612  0.0183  0.1780
  887MOL0     C19645   3.646  11.101   9.139 -0.0647 -0.1292 -0.0197
  887MOL0     O19646   3.689  10.991   9.062  0.0403 -0.0914 -0.5816
  887MOL0     C19647   3.739  10.876   9.135 -0.0416 -0.8494  0.4462
  887MOL0     C19648   3.777  10.768   9.035 -0.5386  0.1035  0.2228
  887MOL0     C19649   3.905  10.796   8.963  0.1786 -0.0322  0.4539
  887MOL0     C19650   3.964  10.674   8.905 -0.6694  0.0404 -0.6428
  887MOL0     C19651   4.086  10.687   8.804  0.6747  0.3099 -0.4359
  887MOL0     C19652   4.040  10.742   8.678 -0.3234 -0.1018  0.0474
  887MOL0     C19653   4.154  10.740   8.574 -1.1012  0.1171 -0.3762
  887MOL0     C19654   4.115  10.813   8.449  0.1620  0.6374  0.4310
  887MOL0    Cl19655   4.232  10.767   8.329  0.1733 -0.2401 -0.1404
  887MOL0     C19656   3.640  11.115   9.278  1.0340  0.5255 -0.2121
  887MOL0     C19657   3.592  11.227   9.346  0.0650  0.4272 -0.4198
  887MOL0     O19658   3.283  11.369   9.353 -0.8445  1.1884 -0.6303
  887MOL0     C19659   3.394  11.704   9.336 -0.2535 -0.7824 -0.9211
  887MOL0     C19660   3.353  11.834   9.357 -0.7973 -0.6006 -0.5079
  887MOL0     N19661   3.037  12.533   9.037  0.4440  0.2543  0.1048
  887MOL0     N19662   2.994  12.499   8.919  0.0687  0.3755  0.6926
  887MOL0     C19663   3.671  11.552   8.395  0.0433  0.1462  0.1695
  887MOL0     C19664   3.781  11.471   8.378 -0.5630 -0.3912 -0.4492
  887MOL0     C19665   4.174  11.275   8.287  0.3121 -0.4334 -0.3527
  887MOL0     C19666   4.207  11.150   8.230  0.1833  0.4821 -2.0695
  887MOL0     C19667   4.339  11.122   8.204 -0.4227  0.8598 -0.0233
  887MOL0     C19668   4.444  11.203   8.237 -0.4869  0.9789  0.5212
  887MOL0     O19669   4.569  11.152   8.201 -0.2795 -0.0068  0.5093
  887MOL0     C19670   4.684  11.241   8.233  0.4977 -0.0535  0.0795
  887MOL0     C19671   4.799  11.157   8.183 -1.3558  0.7650  0.7130
  887MOL0     C19672   4.801  11.158   8.029  0.3599 -0.3328 -0.1577
  887MOL0     C19673   4.935  11.102   7.980 -0.0371  0.2721 -0.2478
  887MOL0     C19674   4.911  11.074   7.829  0.3003 -0.0256 -0.6854
  887MOL0     C19675   4.902  11.075   7.713  0.5014  0.3285 -0.3342
  887MOL0     C19676   4.414  11.328   8.285 -0.7015 -0.2336  0.2893
  887MOL0     C19677   4.281  11.361   8.320  0.0621  0.0162  0.4173
  887MOL0     H19678   4.021  11.704   8.445 -0.3864  4.8973 -0.9284
  887MOL0     H19679   3.811  11.842   8.495 -1.7781  0.6121  0.4397
  887MOL0     H19680   3.407  11.704   8.355 -0.1482  1.7399 -0.2428
  887MOL0     H19681   3.422  11.643   8.516 -4.0469  1.7930  0.7882
  887MOL0     H19682   3.400  11.866   8.621 -1.0998  2.8932 -0.0849
  887MOL0     H19683   3.401  11.941   8.469 -1.0258 -0.2732  1.0868
  887MOL0     H19684   3.178  11.840   8.407 -1.4337  0.5149  1.4998
  887MOL0     H19685   3.181  11.757   8.552 -0.1842 -1.3361 -2.8857
  887MOL0     H19686   3.196  12.051   8.528  1.7419 -1.2289  0.0667
  887MOL0     H19687   3.044  11.964   8.558  0.0486  0.4926 -1.4815
  887MOL0     H19688   3.128  11.869   8.757 -2.5989  0.2156 -2.1277
  887MOL0     H19689   3.265  11.998   8.763 -0.1029  1.3299 -1.2244
  887MOL0     H19690   2.971  12.006   8.819 -0.2412 -1.2274  0.7771
  887MOL0     H19691   3.105  12.074   8.905 -2.8041  2.8131  0.3808
  887MOL0     H19692   3.138  12.247   8.765 -1.3882  0.0038  4.1011
  887MOL0     H19693   3.018  12.180   8.639 -2.6007 -0.6691  0.4247
  887MOL0     H19694   2.847  12.218   8.849  1.9151 -1.0706  0.6162
  887MOL0     H19695   2.880  12.347   8.735  3.5571 -0.8732 -1.8639
  887MOL0     H19696   3.019  12.225   9.097  1.9356  0.6919  1.3797
  887MOL0     H19697   3.140  12.550   9.275 -1.9653  1.9836 -1.6864
  887MOL0     H19698   3.022  12.436   9.336  0.4823  0.0594  0.6287
  887MOL0     H19699   3.280  12.380   9.379  0.2409  1.5442 -0.7083
  887MOL0     H19700   3.279  12.299   9.230 -0.5812 -3.0328  1.0215
  887MOL0     H19701   3.046  12.186   9.347 -0.3729  0.3982 -1.0850
  887MOL0     H19702   3.135  12.252   9.486 -1.1254  0.5398 -1.2144
  887MOL0     H19703   3.329  12.132   9.423 -3.2028  3.1604  4.5812
  887MOL0     H19704   3.246  12.055   9.282  1.3096  0.9027  0.4661
  887MOL0     H19705   3.064  11.764   9.529 -0.6602  0.1637 -0.0832
  887MOL0     H19706   3.078  11.474   9.450 -1.4808  3.2913 -0.3487
  887MOL0     H19707   3.195  11.466   9.593  0.5150  0.0505  0.3588
  887MOL0     H19708   3.045  11.564   9.594 -0.4178  1.6683 -1.2725
  887MOL0     H19709   3.478  11.390   9.072 -0.3226 -0.3885  1.5648
  887MOL0     H19710   3.582  11.188   8.959 -1.1757  1.8209 -0.1217
  887MOL0     H19711   3.827  10.911   9.191 -1.5243  2.2988  1.0082
  887MOL0     H19712   3.670  10.827   9.204  1.0137 -1.9238  0.7757
  887MOL0     H19713   3.786  10.680   9.100  3.2771  0.7335  0.7750
  887MOL0     H19714   3.697  10.750   8.962  0.4285 -1.2446 -0.5436
  887MOL0     H19715   3.982  10.845   9.023  0.0365 -0.5611  1.0764
  887MOL0     H19716   3.871  10.866   8.886 -3.2201  0.0774  1.8691
  887MOL0     H19717   3.991  10.624   8.998  0.2124 -0.8852 -1.3760
  887MOL0     H19718   3.883  10.616   8.860 -1.2117  0.1653  0.1652
  887MOL0     H19719   4.132  10.588   8.801 -0.2489 -0.1192 -0.9998
  887MOL0     H19720   4.165  10.756   8.836  1.7979 -0.5692 -1.2518
  887MOL0     H19721   3.967  10.684   8.621  0.5646  0.8728 -2.2256
  887MOL0     H19722   3.983  10.833   8.697 -2.8985 -1.8037  0.9220
  887MOL0     H19723   4.166  10.633   8.553 -0.2624 -0.0099  0.6794
  887MOL0     H19724   4.248  10.778   8.615 -0.8686 -1.4885  0.7046
  887MOL0     H19725   4.107  10.920   8.467  0.6448  0.9523 -1.0735
  887MOL0     H19726   4.014  10.782   8.421 -0.2657  1.9229  0.4834
  887MOL0     H19727   3.667  11.036   9.348  0.3961  0.5274  0.0431
  887MOL0     H19728   3.597  11.238   9.454  0.3427 -0.8656 -0.2796
  887MOL0     H19729   3.494  11.692   9.295  1.4081  0.2502  2.4976
  887MOL0     H19730   3.424  11.913   9.334  0.0924 -1.0243  0.6859
  887MOL0     H19731   3.577  11.500   8.376  1.5066 -1.8805 -1.9615
  887MOL0     H19732   3.764  11.373   8.335 -1.5708 -0.3217 -0.2453
  887MOL0     H19733   4.123  11.086   8.209  1.2284 -1.4301 -0.7233
  887MOL0     H19734   4.351  11.027   8.152 -1.9685  1.2439 -1.1618
  887MOL0     H19735   4.667  11.336   8.182 -1.8050  0.0073  0.8350
  887MOL0     H19736   4.697  11.263   8.340  0.3662  0.1804  0.0502
  887MOL0     H19737   4.802  11.055   8.222 -0.5205  0.9558  1.1677
  887MOL0     H19738   4.884  11.219   8.211 -1.5615  0.4512  2.0885
  887MOL0     H19739   4.777  11.260   8.000 -4.2883 -1.3429 -0.5846
  887MOL0     H19740   4.718  11.103   7.984 -0.4435  1.7195 -1.2575
  887MOL0     H19741   4.964  11.006   8.024 -1.2849  0.8601  2.0442
  887MOL0     H19742   5.012  11.176   8.003 -1.2827  1.4494  0.2244
  887MOL0     H19743   4.873  11.061   7.611 -0.3759 -0.1359 -0.0375
  887MOL0     H19744   4.486  11.407   8.302  0.2158 -1.5242  2.8820
  887MOL0     H19745   4.264  11.440   8.392  1.7582  1.2537 -0.4660
  888MOL0     O19746   9.244   7.969   2.740  0.8442 -1.2355 -0.2034
  888MOL0     C19747   9.320   7.964   2.839  1.1648  0.2992  0.4661
  888MOL0     O19748   9.269   7.951   2.965 -0.2410 -0.2885 -0.3623
  888MOL0     C19749   9.129   7.962   2.987 -0.6906 -0.5928  0.2468
  888MOL0     C19750   9.030   7.899   2.910  1.5563  0.3061 -0.2556
  888MOL0     C19751   8.892   7.911   2.940 -1.4079 -0.7703 -0.6198
  888MOL0     C19752   8.849   7.998   3.043  0.7105 -0.5122 -0.0194
  888MOL0     O19753   8.709   8.018   3.055  0.1335 -0.5339  0.1144
  888MOL0     C19754   8.660   8.061   3.184  0.8025  0.1191  0.1669
  888MOL0     C19755   8.527   7.981   3.212  0.1918 -0.8637 -0.5515
  888MOL0     C19756   8.409   8.021   3.127 -0.1015  0.3826  0.4039
  888MOL0     C19757   8.361   8.168   3.117 -0.4351 -0.6508  0.4979
  888MOL0     C19758   8.318   8.219   3.262 -0.5847 -0.4994  0.2667
  888MOL0     C19759   8.186   8.157   3.299  0.2520 -0.2531 -0.6918
  888MOL0     C19760   8.068   8.181   3.191 -0.2467 -0.0976  0.5449
  888MOL0     C19761   7.940   8.183   3.263  0.8732 -0.7936 -0.0731
  888MOL0     N19762   7.823   8.252   3.193  0.0696 -0.3584  0.7008
  888MOL0     C19763   7.806   8.390   3.181 -0.1865  0.2764 -1.2972
  888MOL0     C19764   7.679   8.417   3.146  0.6661 -0.3237  0.2698
  888MOL0     C19765   7.604   8.555   3.128 -0.2092 -0.4945  0.1903
  888MOL0     C19766   7.563   8.614   3.259  0.6361 -0.2109  0.0601
  888MOL0     C19767   7.475   8.519   3.330 -0.4275  0.1457  0.7332
  888MOL0     C19768   7.395   8.589   3.443 -0.1186 -0.4012  0.3674
  888MOL0     O19769   7.485   8.636   3.542 -0.0498 -0.4139 -0.0450
  888MOL0     C19770   7.463   8.761   3.607  0.1610  0.9029 -0.3779
  888MOL0     C19771   7.572   8.820   3.673  0.2291 -0.3169  1.1995
  888MOL0     C19772   7.554   8.940   3.746 -0.4160  0.6647  0.0578
  888MOL0     C19773   7.688   8.985   3.809  0.1205 -0.2180  0.6838
  888MOL0     C19774   7.433   9.008   3.747  0.3893  0.0449 -0.5258
  888MOL0     C19775   7.402   9.138   3.813 -0.1269  0.0795  0.4740
  888MOL0     O19776   7.272   9.171   3.820  0.1809 -0.1497 -0.2977
  888MOL0     C19777   7.232   9.234   3.931  0.6364  0.2338 -0.2187
  888MOL0     C19778   7.241   9.368   3.937 -0.8353  1.6613 -0.3456
  888MOL0     C19779   7.206   9.434   4.046  0.6920  0.3353 -0.0494
  888MOL0     C19780   7.162   9.365   4.162 -0.7809 -0.1313 -0.3704
  888MOL0     O19781   7.112   9.445   4.253  0.1862 -0.1470 -0.2382
  888MOL0     C19782   7.058   9.390   4.371  0.7379 -0.4952 -0.7458
  888MOL0     C19783   7.011   9.506   4.470  0.2703  0.9527  0.8539
  888MOL0     C19784   6.946   9.628   4.389  0.9038 -0.5665 -0.5024
  888MOL0     C19785   6.808   9.666   4.470  0.0627  0.1800  0.1827
  888MOL0     C19786   6.743   9.779   4.400 -0.6741 -0.3138 -0.4524
  888MOL0     C19787   6.676   9.738   4.267  0.1462  1.4936 -1.4629
  888MOL0     C19788   6.594   9.855   4.223  0.7968  0.6960  0.8292
  888MOL0     C19789   6.500   9.821   4.102 -0.9317 -0.4228  0.2197
  888MOL0    Cl19790   6.344   9.736   4.142  0.0153  0.0395 -0.2675
  888MOL0     C19791   7.160   9.226   4.159 -0.0121  0.1332  0.1632
  888MOL0     C19792   7.195   9.153   4.046 -0.2167 -0.5051  0.0296
  888MOL0     O19793   7.492   9.203   3.861  0.3613 -0.6595  1.0698
  888MOL0     C19794   7.326   8.950   3.674 -0.1990  0.3144 -0.3650
  888MOL0     C19795   7.334   8.828   3.614  0.8538  0.6400 -0.3841
  888MOL0     N19796   7.624   8.295   3.126  0.4813  0.6055  0.7748
  888MOL0     N19797   7.704   8.203   3.163  0.2294  0.4733  0.1454
  888MOL0     C19798   8.952   8.076   3.116 -0.8506  0.1790 -0.5300
  888MOL0     C19799   9.092   8.043   3.089  0.5173  0.1824  0.3791
  888MOL0     C19800   9.462   7.988   2.818 -0.5571 -1.2438  0.4754
  888MOL0     C19801   9.542   8.003   2.934  0.2675 -0.0476 -0.4646
  888MOL0     C19802   9.678   8.032   2.922  0.0377  0.3426 -0.2376
  888MOL0     C19803   9.736   8.064   2.794 -0.5816  0.2997 -0.2714
  888MOL0     O19804   9.868   8.096   2.800  0.3443 -0.0909  0.6013
  888MOL0     C19805   9.947   8.090   2.685  0.4758  0.5764  0.1158
  888MOL0     C19806  10.095   8.096   2.727 -0.4746 -0.0533  1.1391
  888MOL0     C19807  10.152   8.011   2.854 -0.4659 -0.1908  0.3994
  888MOL0     C19808  10.134   7.857   2.842 -0.7188 -0.1003 -0.0104
  888MOL0     C19809   9.995   7.808   2.835 -1.0549  0.8307 -0.5724
  888MOL0     C19810   9.887   7.760   2.828  0.6872  0.3645  0.6533
  888MOL0     C19811   9.652   8.060   2.682 -0.5425  1.1143  0.5870
  888MOL0     C19812   9.520   8.024   2.691  0.1597  0.2601 -0.2938
  888MOL0     H19813   9.069   7.823   2.843  1.3749 -1.1553  1.2414
  888MOL0     H19814   8.831   7.863   2.864  0.7309  0.7086 -3.4975
  888MOL0     H19815   8.728   8.044   3.268  0.4657  0.1473  0.4485
  888MOL0     H19816   8.639   8.168   3.174  1.5452  0.2397 -0.2172
  888MOL0     H19817   8.541   7.876   3.187 -1.0469 -1.1260 -0.1982
  888MOL0     H19818   8.498   7.986   3.317 -5.0096  1.7279 -1.7720
  888MOL0     H19819   8.441   7.993   3.026  4.2499  2.1125  1.1122
  888MOL0     H19820   8.324   7.956   3.151  0.3227  0.0609  1.0514
  888MOL0     H19821   8.449   8.224   3.082 -0.2044 -1.3030 -0.0068
  888MOL0     H19822   8.292   8.174   3.032  1.4420  1.1764 -1.0322
  888MOL0     H19823   8.401   8.208   3.332  0.6500  1.9316 -0.6894
  888MOL0     H19824   8.309   8.328   3.255  0.3171 -0.3884  0.7230
  888MOL0     H19825   8.195   8.048   3.294  0.6285 -0.2643  0.0424
  888MOL0     H19826   8.165   8.193   3.400  0.2664  2.3241 -1.5321
  888MOL0     H19827   8.086   8.275   3.139  4.0511 -1.6309 -1.2146
  888MOL0     H19828   8.063   8.104   3.114  2.6407  1.3663 -1.3204
  888MOL0     H19829   7.959   8.247   3.350 -2.3979 -1.2449  1.1466
  888MOL0     H19830   7.910   8.083   3.297  2.3244 -0.8227  1.2328
  888MOL0     H19831   7.872   8.474   3.201  1.7738 -0.8651 -2.7051
  888MOL0     H19832   7.678   8.618   3.078 -0.9840  1.3622  1.3010
  888MOL0     H19833   7.514   8.539   3.069 -0.1565  3.5143 -1.2869
  888MOL0     H19834   7.517   8.711   3.242  3.2315  1.1856  0.3982
  888MOL0     H19835   7.650   8.637   3.321 -0.5584  0.1302  1.6841
  888MOL0     H19836   7.530   8.431   3.366  0.7970 -0.1474 -1.6296
  888MOL0     H19837   7.397   8.481   3.263 -0.3899  2.7055 -0.9097
  888MOL0     H19838   7.319   8.526   3.491 -1.0765 -1.0296 -1.8156
  888MOL0     H19839   7.346   8.679   3.404 -0.2162 -0.7142 -0.2577
  888MOL0     H19840   7.671   8.777   3.666 -1.3092 -3.9171 -1.1842
  888MOL0     H19841   7.669   9.042   3.901  1.3247 -0.6799  1.2333
  888MOL0     H19842   7.765   8.909   3.827 -0.7352 -1.4938 -0.8531
  888MOL0     H19843   7.734   9.063   3.748  2.7612 -0.0385  2.7155
  888MOL0     H19844   7.270   9.431   3.853  2.6699  0.1010 -0.4612
  888MOL0     H19845   7.215   9.542   4.051 -0.0687  0.3561  2.7699
  888MOL0     H19846   6.980   9.315   4.358  2.2603 -2.2223 -0.3074
  888MOL0     H19847   7.138   9.334   4.421  1.0537  0.1009 -0.5774
  888MOL0     H19848   6.939   9.462   4.541 -1.9944  1.4233 -1.0178
  888MOL0     H19849   7.108   9.537   4.511  1.1624 -1.4858  0.7471
  888MOL0     H19850   6.930   9.609   4.282  3.0023  1.4234 -1.2534
  888MOL0     H19851   7.011   9.716   4.400  1.5246 -0.9949 -0.7135
  888MOL0     H19852   6.741   9.580   4.483 -0.1314  0.0960 -1.2448
  888MOL0     H19853   6.847   9.694   4.569  1.8132  1.5180 -0.8187
  888MOL0     H19854   6.829   9.845   4.384 -1.6138  0.8359 -0.8908
  888MOL0     H19855   6.668   9.839   4.453  1.7619  3.0085 -0.4217
  888MOL0     H19856   6.742   9.685   4.198  1.7223 -1.7506  2.0973
  888MOL0     H19857   6.606   9.656   4.283  1.5507  0.4869 -0.1873
  888MOL0     H19858   6.662   9.938   4.200 -0.1047  0.8834 -1.4639
  888MOL0     H19859   6.524   9.899   4.295 -0.5953 -1.8433  1.1246
  888MOL0     H19860   6.568   9.768   4.035  1.3598  1.9334  0.5510
  888MOL0     H19861   6.472   9.909   4.045 -1.5590 -0.1788  0.8810
  888MOL0     H19862   7.129   9.163   4.242 -0.0094 -1.2324 -0.8311
  888MOL0     H19863   7.199   9.045   4.046 -1.1193 -0.5496  0.3847
  888MOL0     H19864   7.230   8.999   3.663 -0.7710 -0.6923 -0.0127
  888MOL0     H19865   7.246   8.771   3.588  2.8502 -2.8268 -0.1521
  888MOL0     H19866   8.927   8.159   3.181  1.3982  0.0933  0.5517
  888MOL0     H19867   9.168   8.096   3.146  1.4850  1.0048 -1.5947
  888MOL0     H19868   9.489   7.984   3.027 -0.2203  0.0148 -0.7281
  888MOL0     H19869   9.744   8.026   3.008 -1.3204  0.7640  0.8728
  888MOL0     H19870   9.919   8.000   2.630 -1.4257  2.2053 -1.7696
  888MOL0     H19871   9.920   8.167   2.612  3.0044  0.1870 -1.3324
  888MOL0     H19872  10.109   8.200   2.758  1.0826 -0.8320  3.2622
  888MOL0     H19873  10.156   8.081   2.638 -1.0209  3.8874 -0.1349
  888MOL0     H19874  10.102   8.045   2.945 -0.3816  1.4558 -0.1414
  888MOL0     H19875  10.258   8.033   2.867 -0.3666 -0.7168  0.5143
  888MOL0     H19876  10.181   7.819   2.934  0.1810  1.8716  0.4005
  888MOL0     H19877  10.187   7.817   2.755  2.6901 -0.9984  2.2695
  888MOL0     H19878   9.782   7.741   2.817 -0.0285  2.7493  2.4914
  888MOL0     H19879   9.685   8.079   2.581  0.5645  0.7355  0.8624
  888MOL0     H19880   9.467   8.031   2.597 -1.4556 -0.2250  0.5387
  889MOL0     O19881   3.115   6.436   9.125 -0.1284 -0.7542 -0.1633
  889MOL0     C19882   3.160   6.424   9.236  0.0495  0.1199 -0.5108
  889MOL0     O19883   3.080   6.425   9.347 -0.4331 -0.4248  0.4183
  889MOL0     C19884   2.950   6.451   9.343  0.0938  0.2099 -0.4198
  889MOL0     C19885   2.897   6.539   9.435  0.4865  0.0816 -0.0914
  889MOL0     C19886   2.757   6.548   9.442 -0.1916  0.0638  0.3962
  889MOL0     C19887   2.672   6.484   9.351 -0.1419 -0.5967 -0.2130
  889MOL0     O19888   2.535   6.507   9.377  0.2212 -1.0632 -0.3770
  889MOL0     C19889   2.441   6.474   9.275 -0.2782  0.3235 -0.9178
  889MOL0     C19890   2.300   6.496   9.327 -0.7687 -0.0579 -0.0393
  889MOL0     C19891   2.265   6.388   9.439  0.3180  0.1091  0.6993
  889MOL0     C19892   2.236   6.249   9.378 -0.4219  0.1543 -0.8657
  889MOL0     C19893   2.282   6.144   9.484  0.3371  0.8121 -0.5504
  889MOL0     C19894   2.264   5.998   9.440  0.5388  0.2287 -0.5888
  889MOL0     C19895   2.119   5.962   9.443 -0.8033  0.0940 -0.9850
  889MOL0     C19896   2.080   5.863   9.554 -0.0369  1.1001  1.0189
  889MOL0     N19897   2.119   5.892   9.694  0.4548  0.6016  0.6306
  889MOL0     C19898   2.089   6.006   9.759 -0.0626 -0.0609  0.1938
  889MOL0     C19899   2.110   5.985   9.887 -0.4154 -1.3739  0.0853
  889MOL0     C19900   2.062   6.088   9.998 -0.8903  0.6521  0.1779
  889MOL0     C19901   2.164   6.189  10.034 -0.5452  0.1470 -0.0301
  889MOL0     C19902   2.102   6.296  10.115  0.3127 -0.1946  0.2312
  889MOL0     C19903   2.027   6.400  10.029  0.7800 -0.4527  0.8310
  889MOL0     O19904   1.969   6.489  10.121 -0.3072 -0.4452  0.0742
  889MOL0     C19905   1.876   6.579  10.084  0.7157  0.2708 -0.6516
  889MOL0     C19906   1.809   6.596   9.960  0.4750 -0.7746  0.2297
  889MOL0     C19907   1.703   6.692   9.942  0.0633  0.8734 -0.0869
  889MOL0     C19908   1.629   6.694   9.809  0.6850  0.1863 -0.3689
  889MOL0     C19909   1.663   6.773  10.060 -0.8012  0.6366 -0.2646
  889MOL0     C19910   1.555   6.867  10.069 -0.6319 -0.2641 -0.7836
  889MOL0     O19911   1.509   6.904  10.203 -0.1011 -0.3964 -0.3184
  889MOL0     C19912   1.392   6.977  10.202  0.6254 -0.9992  0.0222
  889MOL0     C19913   1.386   7.120  10.174 -0.2960  0.1422  0.5120
  889MOL0     C19914   1.272   7.194  10.198  0.5797  0.3498 -0.2810
  889MOL0     C19915   1.150   7.121  10.223  0.6868  0.5773  0.1378
  889MOL0     O19916   1.035   7.192  10.240  0.2314  0.1915 -1.2553
  889MOL0     C19917   0.971   7.235  10.116 -0.0624 -0.3032  0.7413
  889MOL0     C19918   0.886   7.126  10.057 -0.0498  0.7991  0.7249
  889MOL0     C19919   0.960   7.050   9.941  0.6154 -0.0784 -0.7472
  889MOL0     C19920   0.863   6.970   9.871  0.0351 -0.8904  0.0675
  889MOL0     C19921   0.923   6.937   9.729 -0.2515  0.7746  0.0566
  889MOL0     C19922   0.839   6.839   9.643  0.5709 -0.3344 -0.3623
  889MOL0     C19923   0.837   6.693   9.697  0.0206 -0.2534  0.9372
  889MOL0     C19924   0.970   6.616   9.670 -0.4629  0.5058  0.1116
  889MOL0    Cl19925   0.966   6.459   9.750 -0.9390 -0.4045 -0.5345
  889MOL0     C19926   1.145   6.982  10.233 -0.5143  0.4828  0.1371
  889MOL0     C19927   1.267   6.917  10.232 -0.5653  1.0862  0.2915
  889MOL0     O19928   1.518   6.924   9.970  0.1139  0.0194  0.0463
  889MOL0     C19929   1.734   6.743  10.183  0.4427 -0.0207  0.5746
  889MOL0     C19930   1.837   6.653  10.190  0.4892 -0.5682  0.5524
  889MOL0     N19931   2.175   5.858   9.897 -0.2001  0.6881 -0.4488
  889MOL0     N19932   2.174   5.803   9.781  0.2895 -0.4929 -0.3937
  889MOL0     C19933   2.721   6.395   9.254  0.2418  0.5689 -0.2667
  889MOL0     C19934   2.863   6.371   9.256  0.3741 -0.0050 -0.1311
  889MOL0     C19935   3.312   6.424   9.249 -0.2468  0.4292 -0.6971
  889MOL0     C19936   3.365   6.414   9.378 -1.0174 -0.1956 -0.1251
  889MOL0     C19937   3.504   6.428   9.395 -0.4666 -0.8978  0.3946
  889MOL0     C19938   3.588   6.432   9.276 -0.5245 -0.2895 -1.3472
  889MOL0     O19939   3.719   6.432   9.306  0.1275  0.1247  0.2006
  889MOL0     C19940   3.808   6.401   9.202  0.3800  0.6755 -0.0751
  889MOL0     C19941   3.957   6.426   9.257 -0.3905 -1.0625 -0.3767
  889MOL0     C19942   4.060   6.381   9.157 -0.0802 -0.4853 -0.3105
  889MOL0     C19943   4.201   6.370   9.221 -0.5821 -0.7637 -0.0380
  889MOL0     C19944   4.233   6.504   9.273 -0.4095  0.4140  0.5174
  889MOL0     C19945   4.250   6.612   9.324  0.0428  0.9998  0.0029
  889MOL0     C19946   3.532   6.430   9.148 -0.1511 -0.1406 -0.6448
  889MOL0     C19947   3.396   6.416   9.138 -0.8164  0.3215  0.8637
  889MOL0     H19948   2.963   6.600   9.495  1.6214  0.1007 -1.3106
  889MOL0     H19949   2.716   6.623   9.508 -0.0753 -0.3242  0.9116
  889MOL0     H19950   2.461   6.537   9.188 -2.9249  1.1579 -0.9971
  889MOL0     H19951   2.453   6.369   9.249  2.2063  0.7443 -1.7711
  889MOL0     H19952   2.276   6.596   9.362  2.8399  0.3803  1.6651
  889MOL0     H19953   2.233   6.483   9.242 -1.8211 -0.5782  0.8469
  889MOL0     H19954   2.352   6.376   9.504  0.9851  2.0268  0.2354
  889MOL0     H19955   2.188   6.431   9.503  0.9535  2.3545  0.0699
  889MOL0     H19956   2.128   6.249   9.362 -0.5369  3.1125 -0.6172
  889MOL0     H19957   2.281   6.231   9.279 -0.7927  2.8924 -1.6219
  889MOL0     H19958   2.388   6.160   9.506 -0.5111  5.8159  1.3339
  889MOL0     H19959   2.234   6.162   9.581  0.6500  0.3599 -0.3075
  889MOL0     H19960   2.300   5.996   9.336  2.0963  0.7915 -0.0854
  889MOL0     H19961   2.321   5.939   9.512 -0.3120  0.2008  0.0664
  889MOL0     H19962   2.064   6.056   9.453  0.1486  0.5688 -0.0911
  889MOL0     H19963   2.104   5.908   9.349  2.5370 -0.3849 -1.3644
  889MOL0     H19964   2.134   5.772   9.525 -2.3478 -0.0587  0.1535
  889MOL0     H19965   1.975   5.836   9.563  0.8373 -2.3453  2.4580
  889MOL0     H19966   2.055   6.097   9.712  2.4899  0.7336 -0.2960
  889MOL0     H19967   1.973   6.138   9.958 -1.7711  0.0842  1.3844
  889MOL0     H19968   2.041   6.024  10.084 -0.8999 -0.8332 -0.8909
  889MOL0     H19969   2.206   6.237   9.946 -0.2090  0.4664  0.3023
  889MOL0     H19970   2.248   6.142  10.086  0.9082  0.4904 -1.9881
  889MOL0     H19971   2.188   6.342  10.165  0.9589 -2.1125  0.9867
  889MOL0     H19972   2.027   6.265  10.188 -3.0588 -0.0254 -2.8621
  889MOL0     H19973   1.951   6.362   9.960  1.2577  1.1738 -0.6549
  889MOL0     H19974   2.098   6.441   9.957 -1.9517  0.9535 -1.2684
  889MOL0     H19975   1.829   6.535   9.873  0.8286 -0.2843 -0.0423
  889MOL0     H19976   1.529   6.649   9.813 -0.8808  3.4087  0.8719
  889MOL0     H19977   1.610   6.796   9.774 -0.2883  0.9310  2.1356
  889MOL0     H19978   1.697   6.656   9.732 -0.6744 -1.4653 -0.8302
  889MOL0     H19979   1.486   7.159  10.155  0.3253 -1.1013  1.0727
  889MOL0     H19980   1.267   7.299  10.170 -2.0896 -0.1370 -2.0714
  889MOL0     H19981   0.903   7.319  10.134  1.8874  1.3586  0.6750
  889MOL0     H19982   1.044   7.277  10.047 -1.6796  0.5044 -0.5578
  889MOL0     H19983   0.845   7.055  10.129  2.3527 -1.4116  0.0552
  889MOL0     H19984   0.809   7.180  10.001  1.5356  1.6569 -0.7272
  889MOL0     H19985   1.038   6.982   9.977 -0.0272 -0.1571  0.5488
  889MOL0     H19986   1.020   7.121   9.883  0.9473 -1.3086 -1.9508
  889MOL0     H19987   0.815   6.897   9.937 -2.2491  0.0714 -0.4106
  889MOL0     H19988   0.780   7.039   9.850  0.1798 -0.3590  1.2078
  889MOL0     H19989   1.023   6.896   9.739 -0.4630  0.8664  3.7942
  889MOL0     H19990   0.934   7.032   9.677  1.3246  0.3561 -0.4227
  889MOL0     H19991   0.732   6.860   9.643 -0.2463 -3.8365  1.1215
  889MOL0     H19992   0.864   6.852   9.537 -0.5582 -0.6162 -0.6784
  889MOL0     H19993   0.763   6.630   9.646  1.9821 -0.7692 -1.4336
  889MOL0     H19994   0.812   6.692   9.804  2.4216 -0.9753  1.5729
  889MOL0     H19995   1.054   6.674   9.709 -0.4091 -0.0210  0.8059
  889MOL0     H19996   0.984   6.614   9.562  2.6338  0.0901  0.4526
  889MOL0     H19997   1.058   6.919  10.248 -0.5787 -0.3765 -3.0033
  889MOL0     H19998   1.266   6.808  10.229  0.2296  1.0406  1.1692
  889MOL0     H19999   1.696   6.785  10.276 -2.1589 -0.9843  0.0225
  889MOL0     H20000   1.884   6.641  10.287 -1.0699  1.7018  1.6876
  889MOL0     H20001   2.650   6.338   9.194 -2.8541  0.1569  3.4074
  889MOL0     H20002   2.904   6.299   9.186  1.7567  1.7999 -1.3030
  889MOL0     H20003   3.313   6.411   9.473 -0.8389 -0.4945 -0.0361
  889MOL0     H20004   3.550   6.428   9.493 -0.7639  2.7921  0.6749
  889MOL0     H20005   3.812   6.298   9.168  2.6763  1.1921 -1.6070
  889MOL0     H20006   3.786   6.454   9.109 -0.7784  0.4458  0.0567
  889MOL0     H20007   3.960   6.366   9.348  1.5988  0.6299  0.7900
  889MOL0     H20008   3.968   6.530   9.290 -1.9660 -1.1763  0.6180
  889MOL0     H20009   4.063   6.460   9.081 -0.7559 -1.3298 -1.2483
  889MOL0     H20010   4.036   6.291   9.100  1.4189 -0.5430 -0.8910
  889MOL0     H20011   4.290   6.352   9.160  1.2392 -0.2665  2.3173
  889MOL0     H20012   4.203   6.298   9.303  1.2590  1.0123  1.5853
  889MOL0     H20013   4.258   6.713   9.358 -4.6105  1.9481 -0.9353
  889MOL0     H20014   3.600   6.417   9.065  1.3054 -2.2514  0.7543
  889MOL0     H20015   3.363   6.421   9.035  1.8217  0.6404 -0.0488
  890MOL0     O20016   8.303  10.937   5.977  0.3309  0.4579 -0.1949
  890MOL0     C20017   8.390  10.850   5.970 -0.5097 -1.2086 -0.2930
  890MOL0     O20018   8.509  10.852   6.037 -0.9240  0.5017 -0.3105
  890MOL0     C20019   8.570  10.956   6.100  0.7284  0.0397 -0.7152
  890MOL0     C20020   8.527  11.087   6.101 -1.0766 -0.4403  0.6319
  890MOL0     C20021   8.555  11.172   6.207  0.0823 -0.9741  0.8305
  890MOL0     C20022   8.638  11.141   6.311 -0.3485  0.1335  0.0670
  890MOL0     O20023   8.672  11.234   6.399  0.3563 -0.5682  0.1366
  890MOL0     C20024   8.807  11.233   6.458 -0.3657  0.4414 -0.4205
  890MOL0     C20025   8.820  11.334   6.565 -0.8081  0.1089 -0.0062
  890MOL0     C20026   8.962  11.347   6.615 -0.0461  0.0924 -0.8823
  890MOL0     C20027   8.964  11.470   6.713  0.6195 -0.0553 -0.2251
  890MOL0     C20028   9.084  11.468   6.812 -0.1282 -0.3419  0.9402
  890MOL0     C20029   9.082  11.345   6.900 -0.7650 -0.4273  0.6862
  890MOL0     C20030   9.171  11.364   7.024 -0.4756  0.4317 -0.0808
  890MOL0     C20031   9.133  11.477   7.123  0.0932 -0.3028  0.0846
  890MOL0     N20032   9.003  11.441   7.180  0.6672  0.2574  0.3548
  890MOL0     C20033   8.889  11.483   7.128  1.0895  0.1304  0.8516
  890MOL0     C20034   8.795  11.461   7.226 -0.6200  0.8244 -0.0441
  890MOL0     C20035   8.648  11.476   7.217  0.6371  0.4952 -0.1742
  890MOL0     C20036   8.580  11.342   7.200  0.9517 -0.5131  0.4517
  890MOL0     C20037   8.536  11.307   7.043 -0.6337  0.2481  0.9806
  890MOL0     C20038   8.659  11.266   6.955  0.1374 -0.0899 -0.0533
  890MOL0     O20039   8.619  11.178   6.838  0.8599 -0.1733 -0.4413
  890MOL0     C20040   8.698  11.064   6.805 -0.7613 -0.2769 -0.7682
  890MOL0     C20041   8.634  10.971   6.729  0.4209 -0.3755  1.1333
  890MOL0     C20042   8.698  10.855   6.688  0.0367  0.4164 -0.4456
  890MOL0     C20043   8.619  10.754   6.613 -0.5289 -0.3643  0.5779
  890MOL0     C20044   8.837  10.829   6.715  0.5409 -0.6186  0.1031
  890MOL0     C20045   8.912  10.723   6.661 -0.6811 -0.3591  0.4532
  890MOL0     O20046   9.010  10.655   6.739  0.4136  0.6519  0.8583
  890MOL0     C20047   9.103  10.568   6.682 -0.6278  0.0191  0.1049
  890MOL0     C20048   9.102  10.432   6.716  1.0368  1.7568  0.3503
  890MOL0     C20049   9.184  10.339   6.664  0.1863 -0.2972  0.4824
  890MOL0     C20050   9.284  10.393   6.579  0.4281 -0.1768  0.9173
  890MOL0     O20051   9.361  10.319   6.495 -0.5160  0.7967 -0.5524
  890MOL0     C20052   9.397  10.190   6.537  0.3807  0.4658  0.3362
  890MOL0     C20053   9.483  10.116   6.435  0.5228  0.2278  0.2942
  890MOL0     C20054   9.610  10.186   6.395 -0.3045 -0.3989 -1.1005
  890MOL0     C20055   9.717  10.110   6.309  0.3970  0.1770 -0.2729
  890MOL0     C20056   9.842  10.193   6.278  0.1925  0.2193 -0.7788
  890MOL0     C20057   9.958  10.119   6.223  0.3204 -0.1087  0.2721
  890MOL0     C20058   9.927  10.084   6.078 -1.1114 -0.4507 -0.8860
  890MOL0     C20059  10.024   9.963   6.058  0.2850  0.3568 -0.2541
  890MOL0    Cl20060  10.193  10.011   6.039  0.2150  0.1519 -0.0144
  890MOL0     C20061   9.295  10.526   6.545  0.6623  0.7228 -0.7388
  890MOL0     C20062   9.201  10.615   6.593 -0.1468 -0.1951  0.1322
  890MOL0     O20063   8.901  10.710   6.541 -0.0244 -0.1705 -0.7356
  890MOL0     C20064   8.892  10.916   6.804  0.1540 -0.3720  0.8211
  890MOL0     C20065   8.823  11.033   6.846 -0.0240 -0.3432 -0.3265
  890MOL0     N20066   8.860  11.389   7.328 -0.1453 -0.2995  0.0079
  890MOL0     N20067   8.985  11.373   7.295 -0.2713  0.1093 -0.4670
  890MOL0     C20068   8.680  11.016   6.308 -0.8626 -0.1834  0.0025
  890MOL0     C20069   8.649  10.923   6.207  0.0341  1.1150  0.0966
  890MOL0     C20070   8.358  10.730   5.895 -1.2186  0.1170  0.4488
  890MOL0     C20071   8.231  10.708   5.835  0.8029 -0.1548  1.0356
  890MOL0     C20072   8.204  10.588   5.761  0.5984 -0.2914  0.0652
  890MOL0     C20073   8.306  10.483   5.746  0.1497 -0.5419 -0.2578
  890MOL0     O20074   8.279  10.356   5.708 -0.2649  0.1519  0.2878
  890MOL0     C20075   8.370  10.273   5.638 -0.6703 -0.3346  0.2629
  890MOL0     C20076   8.286  10.167   5.569 -0.3290  0.3740  0.0668
  890MOL0     C20077   8.374  10.059   5.518 -0.3690 -0.0016  0.3707
  890MOL0     C20078   8.296   9.935   5.467  0.5902  0.7669 -0.4164
  890MOL0     C20079   8.218   9.866   5.575 -0.0247 -0.0550  0.3652
  890MOL0     C20080   8.157   9.804   5.663  0.7083 -0.5049 -1.0045
  890MOL0     C20081   8.431  10.508   5.812  0.5704  0.0473 -0.5413
  890MOL0     C20082   8.452  10.625   5.883  0.1428 -0.5188  0.1826
  890MOL0     H20083   8.486  11.124   6.007  0.1497 -2.0521 -0.5998
  890MOL0     H20084   8.528  11.278   6.203 -0.6522 -1.0603  2.4152
  890MOL0     H20085   8.826  11.140   6.513 -0.2650 -0.0608 -1.2928
  890MOL0     H20086   8.882  11.245   6.379  1.2549 -1.4542  0.7128
  890MOL0     H20087   8.794  11.431   6.522 -0.4195  0.6336  0.8989
  890MOL0     H20088   8.749  11.312   6.646  0.4073 -1.9820  0.5605
  890MOL0     H20089   8.991  11.256   6.669 -2.2012  0.3358  0.8053
  890MOL0     H20090   9.030  11.365   6.531 -0.9002  0.2580 -1.5530
  890MOL0     H20091   8.971  11.556   6.645 -0.5027  1.6310  1.6985
  890MOL0     H20092   8.876  11.493   6.772  1.5092  2.5326  0.2005
  890MOL0     H20093   9.174  11.462   6.751  0.9103 -0.9679  2.4776
  890MOL0     H20094   9.071  11.563   6.866 -3.4883  0.9804 -1.8147
  890MOL0     H20095   8.985  11.321   6.944 -0.6908 -1.0666  0.5183
  890MOL0     H20096   9.118  11.263   6.837  0.8324 -0.0607  1.0736
  890MOL0     H20097   9.178  11.265   7.070  0.3385  0.0777 -0.9381
  890MOL0     H20098   9.272  11.395   6.996 -0.7183 -0.6017 -2.3088
  890MOL0     H20099   9.110  11.571   7.072 -1.9928  0.5556  2.4125
  890MOL0     H20100   9.202  11.484   7.208  0.3332 -1.9343  0.0478
  890MOL0     H20101   8.862  11.521   7.030  0.9193 -0.5658  0.6220
  890MOL0     H20102   8.619  11.513   7.316  2.3605  0.3814  0.3949
  890MOL0     H20103   8.628  11.546   7.135 -0.3408 -1.4125 -1.6558
  890MOL0     H20104   8.488  11.347   7.258 -0.1236  0.6345 -1.2683
  890MOL0     H20105   8.642  11.265   7.247 -0.0820  0.1259  3.0466
  890MOL0     H20106   8.491  11.395   6.997 -0.3870  0.4919  1.2075
  890MOL0     H20107   8.473  11.217   7.044 -3.1119  1.8985  0.4174
  890MOL0     H20108   8.728  11.217   7.024  0.1807  0.5307  0.3462
  890MOL0     H20109   8.710  11.350   6.906 -4.0962  2.7181 -0.1743
  890MOL0     H20110   8.537  10.998   6.689  0.3022 -3.3723 -0.9133
  890MOL0     H20111   8.514  10.749   6.644 -0.4672  0.8530  1.0624
  890MOL0     H20112   8.629  10.777   6.507  2.9809 -2.3952  0.2956
  890MOL0     H20113   8.671  10.658   6.621 -1.6522 -1.0284  0.0659
  890MOL0     H20114   9.020  10.391   6.775 -0.6630  0.9719 -2.3942
  890MOL0     H20115   9.171  10.232   6.672  1.8228 -0.4814  1.2265
  890MOL0     H20116   9.439  10.199   6.638 -1.7477  1.5627  1.1995
  890MOL0     H20117   9.303  10.135   6.544  0.4137 -0.2909 -3.3644
  890MOL0     H20118   9.516  10.014   6.457  2.8266  0.5863 -1.1012
  890MOL0     H20119   9.426  10.103   6.342 -1.9690 -2.7603  2.0459
  890MOL0     H20120   9.654  10.209   6.493 -0.5517  0.1446 -1.1169
  890MOL0     H20121   9.590  10.278   6.340  0.0562 -0.8999 -2.0832
  890MOL0     H20122   9.747  10.019   6.361 -0.3633 -1.7198 -2.9295
  890MOL0     H20123   9.675  10.081   6.212  1.8840  2.7559 -1.8047
  890MOL0     H20124   9.877  10.248   6.366 -0.0021 -0.2207 -0.4242
  890MOL0     H20125   9.805  10.266   6.204  1.1524  1.2476 -0.2787
  890MOL0     H20126  10.048  10.181   6.222 -0.6050  1.2736 -1.0757
  890MOL0     H20127   9.968  10.038   6.296 -0.1043 -0.2210  0.2076
  890MOL0     H20128   9.966  10.159   6.008 -1.5576 -0.3814 -1.0594
  890MOL0     H20129   9.823  10.057   6.058 -0.4997 -2.2345 -1.8603
  890MOL0     H20130   9.988   9.913   5.967 -0.0342  2.4942 -1.3763
  890MOL0     H20131  10.018   9.889   6.138  1.0784  1.4060  0.8030
  890MOL0     H20132   9.374  10.559   6.478  1.0949 -1.0845 -1.1908
  890MOL0     H20133   9.216  10.719   6.567 -2.7791  0.8156  2.1964
  890MOL0     H20134   8.996  10.903   6.832  0.4219  1.3302  0.7425
  890MOL0     H20135   8.870  11.105   6.912 -1.9875 -0.0555  0.8237
  890MOL0     H20136   8.730  10.994   6.401  0.4287  1.4982 -0.2459
  890MOL0     H20137   8.663  10.817   6.224  1.6031  1.4852  1.4017
  890MOL0     H20138   8.146  10.774   5.848  0.2002  0.0995 -2.9550
  890MOL0     H20139   8.103  10.572   5.723  0.9754 -0.5729 -0.8265
  890MOL0     H20140   8.419  10.337   5.564 -3.4011  0.2515 -1.1700
  890MOL0     H20141   8.434  10.236   5.719 -1.1184  2.4005  2.0023
  890MOL0     H20142   8.232  10.204   5.481  0.1581 -1.2765 -0.9541
  890MOL0     H20143   8.208  10.125   5.633  0.8646 -0.9499  0.7212
  890MOL0     H20144   8.436  10.019   5.598 -0.3849 -2.8867 -0.9062
  890MOL0     H20145   8.432  10.093   5.432 -1.9584 -1.1465 -1.2458
  890MOL0     H20146   8.372   9.867   5.429  2.3844  1.4801  1.6828
  890MOL0     H20147   8.233   9.968   5.384  1.3972  0.1028 -1.3125
  890MOL0     H20148   8.105   9.763   5.747 -1.8193  1.8064 -1.3048
  890MOL0     H20149   8.502  10.427   5.821  1.0012  0.4032 -0.7008
  890MOL0     H20150   8.547  10.631   5.936  0.0037 -5.3315  1.4693
  891MOL0     O20151   5.768   1.842   7.232 -0.0673 -0.2297 -0.2032
  891MOL0     C20152   5.764   1.761   7.137 -0.5394 -0.3144 -0.8185
  891MOL0     O20153   5.678   1.765   7.035 -0.8304  0.0415 -0.9276
  891MOL0     C20154   5.601   1.872   7.013  0.6398 -0.5076 -0.9236
  891MOL0     C20155   5.628   1.972   6.922 -0.8138  0.9289 -0.1735
  891MOL0     C20156   5.551   2.084   6.895  0.3384 -0.9969 -0.8463
  891MOL0     C20157   5.443   2.100   6.982  0.2516 -0.0804 -0.1084
  891MOL0     O20158   5.377   2.220   6.967 -0.4770  0.1512 -0.8423
  891MOL0     C20159   5.264   2.250   7.043 -0.5642  0.7278  0.0352
  891MOL0     C20160   5.217   2.396   7.015  0.2520 -0.7789 -0.6935
  891MOL0     C20161   5.274   2.514   7.110  0.5257  0.7830 -0.2727
  891MOL0     C20162   5.408   2.569   7.073  0.0016  0.2450  0.0826
  891MOL0     C20163   5.459   2.665   7.165 -0.1444  0.0049  0.1416
  891MOL0     C20164   5.512   2.601   7.296 -0.7219  0.7650  0.2320
  891MOL0     C20165   5.621   2.489   7.291  0.3401  0.4675  0.4906
  891MOL0     C20166   5.746   2.552   7.229 -0.7902  0.2289  0.4779
  891MOL0     N20167   5.852   2.437   7.203 -1.0018 -0.2584 -0.7713
  891MOL0     C20168   5.832   2.322   7.138  0.4419  0.0856 -0.5229
  891MOL0     C20169   5.945   2.245   7.156  0.1974 -0.1319 -0.0007
  891MOL0     C20170   5.949   2.119   7.079  0.4784 -0.4415  0.3744
  891MOL0     C20171   6.085   2.070   7.057  0.6782 -0.6584  0.5865
  891MOL0     C20172   6.082   1.944   6.972  0.5234  1.1984 -0.1328
  891MOL0     C20173   6.082   1.979   6.830 -0.0353  0.0799  0.5588
  891MOL0     O20174   5.962   2.035   6.776 -0.3753  0.4474  0.2084
  891MOL0     C20175   5.959   2.156   6.716  0.4102 -0.8999  0.6219
  891MOL0     C20176   6.047   2.263   6.736 -0.2151  0.7879  0.0049
  891MOL0     C20177   6.034   2.391   6.683 -0.4929  0.0055 -0.7753
  891MOL0     C20178   6.128   2.506   6.726  0.0145 -0.4423  0.1204
  891MOL0     C20179   5.922   2.418   6.608  0.2695 -0.4073  0.2949
  891MOL0     C20180   5.900   2.538   6.526 -0.4842 -0.2695 -0.0335
  891MOL0     O20181   5.775   2.590   6.517  0.1117  0.1355  0.6662
  891MOL0     C20182   5.758   2.713   6.455 -0.3280 -0.2653 -0.2539
  891MOL0     C20183   5.733   2.714   6.319 -0.6576 -0.2399  0.5983
  891MOL0     C20184   5.694   2.828   6.248  0.4451  0.0957 -0.6797
  891MOL0     C20185   5.674   2.953   6.319  0.6255 -0.0423 -0.0333
  891MOL0     O20186   5.607   3.064   6.282  0.3944  0.8925 -0.7630
  891MOL0     C20187   5.565   3.049   6.139  0.0973  0.1958  0.1395
  891MOL0     C20188   5.467   3.154   6.096  0.1026 -0.4868  0.7126
  891MOL0     C20189   5.335   3.143   6.169 -0.1492  0.8580 -0.2193
  891MOL0     C20190   5.258   3.275   6.161  0.5394  0.6959 -0.5388
  891MOL0     C20191   5.123   3.260   6.225  0.6872  0.3832  0.1736
  891MOL0     C20192   5.116   3.263   6.374  0.3690 -0.6972  0.2831
  891MOL0     C20193   4.973   3.285   6.420 -0.1376 -0.3677 -0.4575
  891MOL0     C20194   4.940   3.219   6.554  0.8269  0.5248 -0.8161
  891MOL0    Cl20195   5.004   3.295   6.705 -0.5026  0.2151  0.1216
  891MOL0     C20196   5.698   2.947   6.455  0.0324 -0.8771  0.5802
  891MOL0     C20197   5.738   2.830   6.528 -0.9888  0.6244 -0.2544
  891MOL0     O20198   5.999   2.588   6.474 -0.0913  1.2738 -0.8580
  891MOL0     C20199   5.825   2.314   6.597 -0.0796  1.0338  0.0487
  891MOL0     C20200   5.841   2.187   6.652  0.1697 -0.5547  0.4002
  891MOL0     N20201   6.034   2.327   7.230  0.5566 -0.4196  0.3333
  891MOL0     N20202   5.967   2.430   7.274  0.0552 -0.0845  0.0024
  891MOL0     C20203   5.399   1.995   7.065  0.4260 -0.0521  0.0400
  891MOL0     C20204   5.478   1.885   7.086 -0.1320  0.0716 -0.1104
  891MOL0     C20205   5.873   1.655   7.137  0.2595 -0.6126  0.0131
  891MOL0     C20206   5.948   1.633   7.256 -0.2870  0.2811 -0.4962
  891MOL0     C20207   6.056   1.549   7.249  0.3728 -0.7451 -0.5333
  891MOL0     C20208   6.099   1.499   7.127  0.0693  0.9431  0.2052
  891MOL0     O20209   6.218   1.432   7.112 -0.2325  0.1860 -0.5174
  891MOL0     C20210   6.322   1.500   7.178  0.1903 -0.0086  0.4115
  891MOL0     C20211   6.370   1.415   7.297 -0.0105 -0.4344  0.6616
  891MOL0     C20212   6.412   1.267   7.263  1.7728  0.0895 -0.2993
  891MOL0     C20213   6.436   1.192   7.393  0.0294 -0.0365 -0.1314
  891MOL0     C20214   6.561   1.235   7.460 -0.2142 -0.1437  0.0227
  891MOL0     C20215   6.660   1.270   7.514 -0.7174 -0.1853  0.9155
  891MOL0     C20216   6.023   1.512   7.019 -0.2694 -0.5474 -1.7572
  891MOL0     C20217   5.906   1.589   7.017 -1.0747  0.8916 -0.5510
  891MOL0     H20218   5.720   1.966   6.865  0.2018  2.4497  1.2238
  891MOL0     H20219   5.573   2.159   6.820 -1.8306  4.1521  3.0025
  891MOL0     H20220   5.185   2.181   7.012  1.5634 -1.9955  0.3221
  891MOL0     H20221   5.279   2.247   7.152 -0.0247  1.8286  0.0073
  891MOL0     H20222   5.221   2.421   6.909  0.9915  0.4983 -0.3822
  891MOL0     H20223   5.108   2.389   7.027 -0.2330  0.4912 -3.5875
  891MOL0     H20224   5.199   2.593   7.119  0.3149  0.3525  2.9857
  891MOL0     H20225   5.256   2.482   7.213 -1.4494  1.0423 -0.4922
  891MOL0     H20226   5.477   2.484   7.065 -1.1845 -0.6328 -1.1228
  891MOL0     H20227   5.401   2.621   6.978 -0.7409 -0.2749 -0.1531
  891MOL0     H20228   5.536   2.722   7.113 -0.1711  1.7100  1.8249
  891MOL0     H20229   5.382   2.737   7.195 -0.8271 -0.5789 -0.1736
  891MOL0     H20230   5.551   2.683   7.356  0.5062 -0.4269  1.1013
  891MOL0     H20231   5.434   2.556   7.357 -2.0676 -1.9089 -3.1058
  891MOL0     H20232   5.655   2.448   7.387 -0.9084 -0.9510  0.3621
  891MOL0     H20233   5.590   2.407   7.225  0.8781  2.3488 -2.3121
  891MOL0     H20234   5.793   2.630   7.289  0.8397 -1.5220  1.5963
  891MOL0     H20235   5.718   2.589   7.130 -2.1304 -1.9367 -0.0153
  891MOL0     H20236   5.741   2.298   7.083 -1.8362 -2.0335  3.6281
  891MOL0     H20237   5.879   2.055   7.133  0.3804 -1.1100 -0.5321
  891MOL0     H20238   5.909   2.154   6.983 -1.3883 -1.1874  0.8420
  891MOL0     H20239   6.130   2.042   7.154  0.3062 -0.4638  0.8165
  891MOL0     H20240   6.146   2.143   7.004 -1.8315  3.3198  2.7303
  891MOL0     H20241   5.988   1.890   6.990 -0.0801  2.2064 -0.2090
  891MOL0     H20242   6.176   1.890   6.978  1.4194  2.8355  2.1419
  891MOL0     H20243   6.089   1.892   6.764  2.8464  2.8504 -3.2733
  891MOL0     H20244   6.169   2.037   6.797 -0.2957 -1.2476 -2.8492
  891MOL0     H20245   6.117   2.254   6.818  0.8206 -1.5164 -1.0562
  891MOL0     H20246   6.169   2.495   6.827  0.9674 -3.0150 -0.4632
  891MOL0     H20247   6.219   2.513   6.666  1.8577  1.7257  2.9079
  891MOL0     H20248   6.078   2.603   6.727  1.1098  0.1408 -0.1054
  891MOL0     H20249   5.750   2.630   6.252  1.0913  1.5952 -1.4357
  891MOL0     H20250   5.660   2.801   6.148  0.1356  0.1101 -0.5792
  891MOL0     H20251   5.650   3.054   6.071  0.3287 -2.4250  0.1418
  891MOL0     H20252   5.517   2.953   6.122 -0.2306  0.5041 -0.7621
  891MOL0     H20253   5.509   3.253   6.118  2.6137 -1.5832  1.2247
  891MOL0     H20254   5.462   3.139   5.988  3.9573  1.1363  0.1102
  891MOL0     H20255   5.348   3.126   6.277 -1.8307  0.5851 -0.0325
  891MOL0     H20256   5.278   3.059   6.130  0.0213  0.5823  0.1192
  891MOL0     H20257   5.315   3.353   6.212  3.4250 -2.2642  1.1201
  891MOL0     H20258   5.248   3.297   6.054  0.2677  0.7369 -0.5069
  891MOL0     H20259   5.075   3.175   6.176 -1.5954  1.7723 -0.1590
  891MOL0     H20260   5.067   3.347   6.191 -1.2952 -0.4169  1.2474
  891MOL0     H20261   5.152   3.165   6.408  0.4689 -0.4743  0.8304
  891MOL0     H20262   5.174   3.346   6.415 -2.4906  0.1243  3.1374
  891MOL0     H20263   4.899   3.240   6.354 -1.1882 -2.8414  2.1574
  891MOL0     H20264   4.946   3.391   6.421 -1.3344 -0.5931 -2.8816
  891MOL0     H20265   4.953   3.111   6.546 -1.5480  0.0688  0.3953
  891MOL0     H20266   4.833   3.241   6.566  0.9000  0.3061  0.3662
  891MOL0     H20267   5.690   3.040   6.511  0.3557  0.3756 -1.3554
  891MOL0     H20268   5.776   2.826   6.629  0.9827 -0.8511 -0.9852
  891MOL0     H20269   5.746   2.336   6.525 -1.3217  1.4127  1.4488
  891MOL0     H20270   5.769   2.109   6.628 -1.3546  1.1767 -0.9412
  891MOL0     H20271   5.303   2.004   7.115 -0.2281 -1.1934 -0.9471
  891MOL0     H20272   5.441   1.809   7.153 -2.9908  1.6863  0.3111
  891MOL0     H20273   5.927   1.676   7.353  1.8887  0.9392 -0.2614
  891MOL0     H20274   6.106   1.517   7.340  1.2747  0.0476 -0.7266
  891MOL0     H20275   6.410   1.517   7.115 -0.2788  2.8622  0.4198
  891MOL0     H20276   6.286   1.599   7.205 -1.3911 -0.6616  0.8158
  891MOL0     H20277   6.303   1.426   7.384 -0.9144  2.8657 -0.2927
  891MOL0     H20278   6.460   1.469   7.327 -1.8907  3.0282  0.6443
  891MOL0     H20279   6.502   1.257   7.202  1.8283  2.6939 -0.7773
  891MOL0     H20280   6.336   1.220   7.199  1.7019  0.6520 -0.6370
  891MOL0     H20281   6.465   1.090   7.367  1.4469  0.0222  1.0967
  891MOL0     H20282   6.351   1.201   7.462  0.5067  3.0975  0.2007
  891MOL0     H20283   6.750   1.270   7.573  0.7183  0.1145 -1.1631
  891MOL0     H20284   6.061   1.457   6.933  3.1450  3.0931 -2.9149
  891MOL0     H20285   5.851   1.608   6.925  1.8007 -0.3052 -2.6991
  892MOL0     O20286  10.989   0.797   2.122 -0.2461  0.3243  0.4699
  892MOL0     C20287  11.085   0.867   2.094 -0.6147  0.5018  0.5859
  892MOL0     O20288  11.119   0.982   2.152 -0.3486 -0.4049 -0.5917
  892MOL0     C20289  11.055   1.011   2.276 -0.2811 -0.5494  0.3657
  892MOL0     C20290  11.091   0.945   2.390  0.2181  0.4174  0.4822
  892MOL0     C20291  11.027   0.970   2.506  0.1933 -0.0931 -0.1994
  892MOL0     C20292  10.926   1.064   2.520  0.6129 -0.7383 -0.4561
  892MOL0     O20293  10.877   1.084   2.650 -1.1763  0.2776 -0.0807
  892MOL0     C20294  10.740   1.122   2.667 -0.7392 -0.7133 -0.6307
  892MOL0     C20295  10.634   1.013   2.639 -0.0653  0.0201 -0.5573
  892MOL0     C20296  10.491   1.036   2.695 -0.5164 -0.3555 -0.0543
  892MOL0     C20297  10.414   0.910   2.661 -0.4024  0.1292  0.5125
  892MOL0     C20298  10.264   0.930   2.682  0.5448 -0.4935 -0.7224
  892MOL0     C20299  10.182   0.827   2.609 -0.1093 -0.1996  0.7419
  892MOL0     C20300  10.026   0.861   2.623 -0.2001 -0.2081  0.1452
  892MOL0     C20301   9.937   0.737   2.593 -0.1396 -0.0946  0.6498
  892MOL0     N20302   9.936   0.636   2.705  1.0961  0.9363  0.2933
  892MOL0     C20303   9.836   0.539   2.729  0.1405 -0.6095 -0.8089
  892MOL0     C20304   9.858   0.493   2.854 -0.4148  0.5044 -0.6140
  892MOL0     C20305   9.782   0.380   2.917 -0.2491  0.2753  0.1582
  892MOL0     C20306   9.672   0.442   3.008 -0.1145 -1.4135  1.1253
  892MOL0     C20307   9.586   0.329   3.055  0.7722  0.4204  0.8306
  892MOL0     C20308   9.481   0.391   3.146  0.3017 -0.5176 -0.3365
  892MOL0     O20309   9.396   0.293   3.213 -0.7282  0.2671  0.4874
  892MOL0     C20310   9.270   0.319   3.261  0.7081  0.3514  0.5712
  892MOL0     C20311   9.218   0.436   3.309 -0.3866  1.1287 -0.3197
  892MOL0     C20312   9.088   0.453   3.340  0.7095 -0.5459  0.3552
  892MOL0     C20313   9.039   0.593   3.381  1.1008  0.1787  0.0646
  892MOL0     C20314   9.004   0.338   3.342  0.4841  0.8216 -0.3099
  892MOL0     C20315   8.860   0.336   3.401 -0.9111 -1.0703  0.3287
  892MOL0     O20316   8.814   0.210   3.444  0.7160 -0.2758  0.2990
  892MOL0     C20317   8.696   0.203   3.510 -0.5827  0.5277 -0.8162
  892MOL0     C20318   8.584   0.220   3.431 -0.6905 -0.6392 -0.1658
  892MOL0     C20319   8.461   0.231   3.503 -0.1570  0.0893 -0.4218
  892MOL0     C20320   8.443   0.210   3.643 -0.0478 -0.2084 -0.9949
  892MOL0     O20321   8.320   0.211   3.709  0.0201  0.3401 -0.4792
  892MOL0     C20322   8.203   0.243   3.635  0.4700  0.2091  0.9627
  892MOL0     C20323   8.088   0.232   3.735  0.3244  0.1411  0.3236
  892MOL0     C20324   8.096   0.343   3.851 -0.5844  0.8468  0.0175
  892MOL0     C20325   8.049   0.474   3.793 -1.4308 -0.2296  0.2833
  892MOL0     C20326   7.895   0.468   3.774 -1.0731 -0.5244 -0.1105
  892MOL0     C20327   7.837   0.614   3.737 -0.0556  0.5765  0.3825
  892MOL0     C20328   7.694   0.615   3.744  0.4461 -1.2112  0.2517
  892MOL0     C20329   7.655   0.755   3.701 -0.5521 -0.2206 -0.1576
  892MOL0    Cl20330   7.621   0.761   3.525  0.1952  0.0484  0.2238
  892MOL0     C20331   8.559   0.192   3.720 -0.3199 -0.6085  1.1093
  892MOL0     C20332   8.686   0.189   3.653 -0.5967  0.0702  0.8241
  892MOL0     O20333   8.804   0.443   3.419 -0.0986  1.0700  0.7269
  892MOL0     C20334   9.067   0.214   3.318  0.6271 -0.1721  0.0931
  892MOL0     C20335   9.190   0.205   3.272  0.4133  0.4654 -0.0519
  892MOL0     N20336   9.969   0.557   2.900  0.0761  0.5661 -0.4048
  892MOL0     N20337  10.020   0.640   2.808  0.6357  0.4430 -0.5156
  892MOL0     C20338  10.902   1.150   2.412  1.0401  0.8779 -0.4177
  892MOL0     C20339  10.967   1.124   2.286  0.6671  0.2821 -0.3938
  892MOL0     C20340  11.158   0.829   1.974  0.3045  0.0421 -0.3506
  892MOL0     C20341  11.229   0.912   1.887  0.4140 -0.1841  0.0939
  892MOL0     C20342  11.299   0.858   1.769  0.5456 -0.3404 -0.8781
  892MOL0     C20343  11.302   0.716   1.743  0.1942  0.7460 -0.2178
  892MOL0     O20344  11.373   0.663   1.637 -0.7586 -0.9169  0.3335
  892MOL0     C20345  11.447   0.759   1.555  0.5461  0.1140  0.2441
  892MOL0     C20346  11.533   0.690   1.438  0.4610 -0.0303 -0.5162
  892MOL0     C20347  11.645   0.607   1.506  0.2707  0.9425  0.1304
  892MOL0     C20348  11.744   0.548   1.404 -0.4258 -0.4099  0.6016
  892MOL0     C20349  11.679   0.451   1.313 -0.1195 -0.3859  0.6205
  892MOL0     C20350  11.628   0.349   1.261 -0.8533  0.0014  0.9390
  892MOL0     C20351  11.239   0.634   1.836 -0.8871 -0.7563  0.1380
  892MOL0     C20352  11.163   0.692   1.944 -0.7333 -0.7401  0.2342
  892MOL0     H20353  11.151   0.856   2.370 -1.2962  0.0918 -3.4651
  892MOL0     H20354  11.061   0.908   2.587 -1.8292 -0.9012  0.0955
  892MOL0     H20355  10.750   1.162   2.769  0.2892 -0.4880 -0.8074
  892MOL0     H20356  10.702   1.206   2.608  0.1008 -1.2702 -2.0079
  892MOL0     H20357  10.630   1.020   2.530 -1.4519 -0.2661 -0.5445
  892MOL0     H20358  10.675   0.913   2.654  3.4045  1.4215  0.2944
  892MOL0     H20359  10.482   1.041   2.804 -2.4642  1.5056 -0.2393
  892MOL0     H20360  10.444   1.125   2.653  2.3209  0.2678 -2.1740
  892MOL0     H20361  10.438   0.881   2.558  0.9550  0.3560  0.7453
  892MOL0     H20362  10.452   0.835   2.730 -1.2533  0.2430  1.1171
  892MOL0     H20363  10.251   0.930   2.791  0.6823  0.7408 -0.6896
  892MOL0     H20364  10.232   1.025   2.638  0.3156 -0.0881  0.2752
  892MOL0     H20365  10.219   0.830   2.506 -0.1632  1.0214  0.7455
  892MOL0     H20366  10.190   0.726   2.650 -0.6452 -0.4434  0.2544
  892MOL0     H20367  10.003   0.885   2.727 -4.3898 -0.3352 -0.5842
  892MOL0     H20368   9.988   0.942   2.562  2.1104  1.1208  0.3558
  892MOL0     H20369   9.964   0.688   2.499  0.7819 -0.8414  1.2766
  892MOL0     H20370   9.834   0.772   2.586 -0.1755 -0.5346 -2.1876
  892MOL0     H20371   9.748   0.529   2.666 -1.0547  1.6811  0.3712
  892MOL0     H20372   9.740   0.326   2.832 -1.3949  3.0216 -1.1565
  892MOL0     H20373   9.847   0.315   2.976  0.0187  2.1663  2.0689
  892MOL0     H20374   9.610   0.519   2.963  2.6312  1.2422  1.5929
  892MOL0     H20375   9.723   0.493   3.089  0.2151 -1.6944  1.0982
  892MOL0     H20376   9.644   0.261   3.118 -1.9912 -0.4328  2.6287
  892MOL0     H20377   9.541   0.274   2.972  1.0036  3.5864 -1.6161
  892MOL0     H20378   9.412   0.455   3.090 -0.3001  0.1387  1.1096
  892MOL0     H20379   9.527   0.448   3.227  0.1245 -1.1654  0.2276
  892MOL0     H20380   9.287   0.519   3.315 -1.6831  2.1901  0.3610
  892MOL0     H20381   8.956   0.633   3.322  2.3175  1.3954 -0.8744
  892MOL0     H20382   8.999   0.584   3.483  1.2969 -1.1994  0.0323
  892MOL0     H20383   9.117   0.670   3.381 -0.8862  2.3084 -0.8975
  892MOL0     H20384   8.589   0.239   3.324 -2.5655  1.6535  0.0717
  892MOL0     H20385   8.368   0.224   3.447  1.1042 -4.3078 -2.4611
  892MOL0     H20386   8.208   0.339   3.583  2.4825 -0.0647  0.5458
  892MOL0     H20387   8.181   0.163   3.565 -0.3784 -0.7395  2.2691
  892MOL0     H20388   7.994   0.231   3.679 -1.2574  1.1406  2.8478
  892MOL0     H20389   8.087   0.133   3.780 -0.4795  0.0920  0.2114
  892MOL0     H20390   8.195   0.351   3.897 -1.6563 -1.4757  2.9798
  892MOL0     H20391   8.035   0.305   3.933 -0.1511  0.6191  0.2351
  892MOL0     H20392   8.068   0.552   3.867  2.2861 -1.0146  0.3564
  892MOL0     H20393   8.103   0.496   3.700 -1.3033 -3.2763 -0.4673
  892MOL0     H20394   7.859   0.425   3.868  0.1277 -2.9445 -0.6630
  892MOL0     H20395   7.878   0.399   3.691  1.2918  1.2711 -2.2314
  892MOL0     H20396   7.888   0.691   3.796  0.8210  0.6637 -0.4661
  892MOL0     H20397   7.865   0.629   3.632  3.2704  1.7374  1.3207
  892MOL0     H20398   7.655   0.600   3.845  0.1883 -0.6789  0.2361
  892MOL0     H20399   7.646   0.538   3.683  1.9239 -0.5605 -1.8549
  892MOL0     H20400   7.731   0.828   3.728 -0.7370 -0.1055  0.0539
  892MOL0     H20401   7.562   0.784   3.750  0.8050  1.2884  1.7018
  892MOL0     H20402   8.556   0.196   3.829  1.5531  0.9598  1.1450
  892MOL0     H20403   8.776   0.187   3.715  0.6837  0.1586 -0.9429
  892MOL0     H20404   9.018   0.119   3.332  2.4754 -1.1291  0.4717
  892MOL0     H20405   9.226   0.102   3.270 -2.5024 -0.7139  1.1453
  892MOL0     H20406  10.828   1.229   2.419  2.6963  2.4269  0.2982
  892MOL0     H20407  10.946   1.171   2.190  2.4760 -0.4550 -1.2211
  892MOL0     H20408  11.233   1.020   1.892  3.6322 -0.2692  2.2338
  892MOL0     H20409  11.343   0.933   1.704 -2.8164  0.9584 -1.9109
  892MOL0     H20410  11.365   0.815   1.510  0.0295 -2.1379 -1.8360
  892MOL0     H20411  11.511   0.822   1.618 -1.9325 -0.8965  4.0798
  892MOL0     H20412  11.580   0.764   1.373  2.9490 -1.0855 -0.0483
  892MOL0     H20413  11.476   0.616   1.381 -1.5961 -0.1086  1.4667
  892MOL0     H20414  11.601   0.530   1.570  0.2433 -1.0964 -2.2136
  892MOL0     H20415  11.703   0.678   1.566  1.4003  2.1128 -2.2188
  892MOL0     H20416  11.818   0.497   1.466 -2.3307 -1.5958  2.0371
  892MOL0     H20417  11.775   0.626   1.335 -3.9601  2.0081  1.4607
  892MOL0     H20418  11.571   0.264   1.229 -1.5682  0.5881  0.6122
  892MOL0     H20419  11.237   0.526   1.824  0.8321 -0.5938 -2.2564
  892MOL0     H20420  11.099   0.628   2.004 -1.4093 -0.2824  0.0100
  893MOL0     O20421   9.808   5.364   8.330  0.7825  0.2772  0.3221
  893MOL0     C20422   9.800   5.488   8.328  0.2553  0.3922  0.3200
  893MOL0     O20423   9.696   5.548   8.260 -0.2895  0.2688 -0.2246
  893MOL0     C20424   9.616   5.470   8.179  0.2442 -0.4317 -0.3124
  893MOL0     C20425   9.586   5.509   8.048 -0.2507  0.3484 -0.5201
  893MOL0     C20426   9.498   5.427   7.968  0.0339 -0.4688 -0.6025
  893MOL0     C20427   9.415   5.333   8.025  0.1932  0.4949 -0.0013
  893MOL0     O20428   9.339   5.259   7.938 -0.1194  1.1220 -0.3657
  893MOL0     C20429   9.215   5.220   7.998 -1.5261  0.1687 -0.2166
  893MOL0     C20430   9.129   5.143   7.895 -0.5251  0.2337 -0.6805
  893MOL0     C20431   9.005   5.064   7.947 -0.3092 -0.3635  0.1436
  893MOL0     C20432   8.899   5.162   7.976  0.0360 -0.1537  0.2793
  893MOL0     C20433   8.759   5.107   8.037 -0.3320 -0.4250 -0.3975
  893MOL0     C20434   8.651   5.206   8.014  1.0961  0.1665 -0.1815
  893MOL0     C20435   8.524   5.152   8.074 -0.1756 -0.4825 -0.0613
  893MOL0     C20436   8.391   5.184   8.003 -1.1359 -0.1422 -0.6010
  893MOL0     N20437   8.337   5.088   7.905  0.2282 -0.1035  0.3850
  893MOL0     C20438   8.380   4.958   7.885  0.0298  0.3285  0.0817
  893MOL0     C20439   8.285   4.902   7.799 -0.1728 -0.0827  0.5845
  893MOL0     C20440   8.286   4.760   7.746 -0.4699 -0.6728 -0.3915
  893MOL0     C20441   8.158   4.685   7.748 -0.4564  0.4635  0.7267
  893MOL0     C20442   8.075   4.707   7.616  0.9449 -0.1472  0.0405
  893MOL0     C20443   7.929   4.640   7.607  0.2982 -0.0422 -0.1004
  893MOL0     O20444   7.838   4.683   7.706 -0.0339 -0.2212  0.3432
  893MOL0     C20445   7.724   4.606   7.724 -0.5396  0.7993  0.3415
  893MOL0     C20446   7.687   4.588   7.847  0.2502 -0.1389  0.3234
  893MOL0     C20447   7.574   4.514   7.877  0.3769 -0.3943 -0.4697
  893MOL0     C20448   7.549   4.491   8.024  0.3949  0.2351 -0.2850
  893MOL0     C20449   7.483   4.474   7.776 -0.1969  0.3790  0.7969
  893MOL0     C20450   7.343   4.415   7.796 -0.6566 -0.6691  0.2926
  893MOL0     O20451   7.295   4.314   7.717 -0.5571 -0.5592 -0.3709
  893MOL0     C20452   7.163   4.280   7.726  0.1192  0.1513 -0.6380
  893MOL0     C20453   7.067   4.342   7.649 -0.5083 -0.0252  0.1987
  893MOL0     C20454   6.934   4.304   7.666  0.3704  0.2407 -0.1910
  893MOL0     C20455   6.889   4.208   7.755 -0.1402  0.2503  0.3971
  893MOL0     O20456   6.753   4.183   7.774  0.0108 -1.1090  0.5039
  893MOL0     C20457   6.711   4.237   7.902 -0.7604 -0.7428 -0.6046
  893MOL0     C20458   6.563   4.252   7.870 -0.4854  0.3362  0.1760
  893MOL0     C20459   6.493   4.296   8.000 -0.4886 -0.7301  0.6576
  893MOL0     C20460   6.340   4.266   7.995 -0.2622 -0.9282  0.0078
  893MOL0     C20461   6.274   4.307   8.129  0.4626 -0.7544 -0.8931
  893MOL0     C20462   6.121   4.289   8.121  0.0460  0.1181  0.5073
  893MOL0     C20463   6.049   4.346   8.241  0.0658 -0.2696  0.3425
  893MOL0     C20464   5.899   4.322   8.243 -0.3793  0.8320 -0.5393
  893MOL0    Cl20465   5.822   4.383   8.095  0.4824 -0.0793 -0.3303
  893MOL0     C20466   6.990   4.135   7.829 -0.1497 -0.0626 -0.4262
  893MOL0     C20467   7.123   4.175   7.816  0.2256  0.2337 -0.2768
  893MOL0     O20468   7.269   4.491   7.862 -0.3257 -0.8209  0.4462
  893MOL0     C20469   7.532   4.481   7.645  0.2648  0.0411 -0.3274
  893MOL0     C20470   7.656   4.543   7.618 -0.5070  0.0009  0.4501
  893MOL0     N20471   8.196   5.005   7.766  0.0905  0.6103  0.9149
  893MOL0     N20472   8.231   5.108   7.831 -0.3872  0.0581 -1.3421
  893MOL0     C20473   9.437   5.304   8.159  0.2124 -0.1322  0.2240
  893MOL0     C20474   9.525   5.377   8.235  0.1057  0.1843  0.3033
  893MOL0     C20475   9.885   5.564   8.419  0.9848  0.4765  0.0481
  893MOL0     C20476   9.867   5.709   8.430 -0.0119  0.7416 -0.3192
  893MOL0     C20477   9.944   5.780   8.520  0.9101 -0.4752  0.0933
  893MOL0     C20478  10.029   5.706   8.611  0.1873 -0.8910  0.0249
  893MOL0     O20479  10.087   5.778   8.715 -0.1871 -0.4059 -0.1060
  893MOL0     C20480  10.148   5.703   8.820 -0.1938 -0.1978  0.5654
  893MOL0     C20481  10.167   5.782   8.943  0.7716  0.3951 -0.2170
  893MOL0     C20482  10.229   5.706   9.066 -0.5622 -0.5495 -0.1561
  893MOL0     C20483  10.144   5.594   9.119  0.0042  0.1283 -0.5300
  893MOL0     C20484  10.009   5.641   9.152  0.0734 -0.1030 -0.1689
  893MOL0     C20485   9.905   5.678   9.189  0.3161 -1.0030  0.3954
  893MOL0     C20486  10.043   5.567   8.597 -0.7310  0.5861  0.7607
  893MOL0     C20487   9.979   5.498   8.501 -0.0960 -0.3283 -0.4886
  893MOL0     H20488   9.649   5.586   8.005  0.4742  0.9442  1.4886
  893MOL0     H20489   9.494   5.448   7.862 -1.2490 -2.5819 -1.0540
  893MOL0     H20490   9.228   5.155   8.084 -0.3612  0.0413 -0.4720
  893MOL0     H20491   9.165   5.311   8.033 -1.9573  0.0563 -0.5286
  893MOL0     H20492   9.089   5.221   7.830 -2.4220  0.1592  0.3266
  893MOL0     H20493   9.195   5.074   7.841  1.0093 -0.0497  1.4336
  893MOL0     H20494   8.977   4.986   7.875  2.5037 -1.7342  0.3772
  893MOL0     H20495   9.031   4.996   8.030 -0.0248  0.2049  0.5261
  893MOL0     H20496   8.941   5.249   8.028  0.5050  1.4266 -2.5744
  893MOL0     H20497   8.869   5.195   7.877 -0.5418 -0.1487  0.4502
  893MOL0     H20498   8.730   5.019   7.978 -1.4374 -1.0032  0.9420
  893MOL0     H20499   8.787   5.083   8.140  0.7627  1.0074 -0.3423
  893MOL0     H20500   8.689   5.304   8.047  2.7388 -1.2857  2.5949
  893MOL0     H20501   8.647   5.203   7.905 -1.0898 -1.5253 -0.1103
  893MOL0     H20502   8.545   5.046   8.091  0.7110 -0.2044  0.6398
  893MOL0     H20503   8.527   5.204   8.170 -0.5298 -0.7644  0.1012
  893MOL0     H20504   8.422   5.280   7.960  2.8966 -0.2292  1.6645
  893MOL0     H20505   8.311   5.207   8.075  0.8179  1.4725  1.1941
  893MOL0     H20506   8.471   4.911   7.923  0.6692  1.4245 -0.0723
  893MOL0     H20507   8.331   4.751   7.646  0.4895  3.0096 -0.4407
  893MOL0     H20508   8.346   4.702   7.817 -2.4905 -2.3742  0.0166
  893MOL0     H20509   8.104   4.713   7.839  2.8479  0.0006  3.0299
  893MOL0     H20510   8.179   4.578   7.757 -2.0351  0.0538 -0.0586
  893MOL0     H20511   8.135   4.669   7.533  0.9041 -0.7748  0.2997
  893MOL0     H20512   8.055   4.815   7.606 -0.7097 -0.5199 -1.2970
  893MOL0     H20513   7.946   4.532   7.613  0.5029  0.0551  1.7486
  893MOL0     H20514   7.886   4.669   7.511  0.9447 -1.0204 -0.7021
  893MOL0     H20515   7.754   4.632   7.921  2.2135 -0.2897 -1.2731
  893MOL0     H20516   7.647   4.489   8.072 -0.5848 -1.1891  1.8140
  893MOL0     H20517   7.479   4.563   8.067  3.1249  2.8506  0.1151
  893MOL0     H20518   7.509   4.389   8.023  2.0615 -0.4941 -2.7832
  893MOL0     H20519   7.093   4.421   7.579 -0.1565 -0.3858 -0.0835
  893MOL0     H20520   6.860   4.360   7.611 -1.5937  0.0213  2.0578
  893MOL0     H20521   6.740   4.165   7.978  3.1876 -0.5924 -1.7179
  893MOL0     H20522   6.762   4.331   7.926  1.4572 -0.8209 -4.2269
  893MOL0     H20523   6.559   4.325   7.789 -1.4963 -0.3911 -0.4702
  893MOL0     H20524   6.528   4.158   7.826 -0.3401 -0.3693  1.5302
  893MOL0     H20525   6.525   4.399   8.017 -0.6997 -0.6814  0.7661
  893MOL0     H20526   6.534   4.241   8.085  1.0175 -0.1987  0.3071
  893MOL0     H20527   6.298   4.324   7.912  2.5786 -0.6762 -1.3887
  893MOL0     H20528   6.329   4.160   7.971  2.2091 -1.1103 -0.6266
  893MOL0     H20529   6.292   4.414   8.143 -3.5277 -0.1422  0.6449
  893MOL0     H20530   6.314   4.248   8.211 -0.0506  0.0304 -0.0606
  893MOL0     H20531   6.096   4.332   8.024  0.7437  0.4844  0.4824
  893MOL0     H20532   6.094   4.183   8.112 -1.6062  0.6439 -1.5101
  893MOL0     H20533   6.069   4.454   8.237  4.7297 -0.6959  3.6480
  893MOL0     H20534   6.094   4.302   8.330 -0.6612  0.3293  1.0179
  893MOL0     H20535   5.863   4.390   8.322 -0.6753 -0.4819  0.4911
  893MOL0     H20536   5.867   4.223   8.276  1.4643  0.2906 -0.2975
  893MOL0     H20537   6.956   4.051   7.888  2.2076  0.6079  2.0815
  893MOL0     H20538   7.203   4.137   7.879 -0.6983 -3.0875 -0.9001
  893MOL0     H20539   7.476   4.450   7.557  0.7724 -0.6111 -0.4275
  893MOL0     H20540   7.697   4.556   7.519 -2.9527  0.3414 -0.5729
  893MOL0     H20541   9.376   5.232   8.211  1.4945 -0.1060  1.8535
  893MOL0     H20542   9.537   5.354   8.340 -1.4912 -2.2652  0.0177
  893MOL0     H20543   9.797   5.762   8.367  0.2327 -0.1100 -1.3427
  893MOL0     H20544   9.930   5.887   8.509 -1.4431 -0.8348 -1.1406
  893MOL0     H20545  10.094   5.615   8.856 -1.6074  0.4774  0.1465
  893MOL0     H20546  10.247   5.679   8.778 -0.0669  2.4203 -0.8119
  893MOL0     H20547  10.072   5.817   8.985  1.1025 -2.1444  3.0639
  893MOL0     H20548  10.233   5.863   8.910  0.9953 -0.1729 -1.1675
  893MOL0     H20549  10.249   5.778   9.146  0.9164 -0.4747 -0.5530
  893MOL0     H20550  10.329   5.676   9.033 -0.7622  1.4254 -2.7847
  893MOL0     H20551  10.193   5.560   9.210 -0.5992 -0.7551 -0.5223
  893MOL0     H20552  10.136   5.511   9.049  2.6238  1.0916 -2.1138
  893MOL0     H20553   9.809   5.722   9.209 -1.0083 -2.8503 -1.4992
  893MOL0     H20554  10.108   5.509   8.662 -1.7362 -0.3109  1.0020
  893MOL0     H20555  10.002   5.393   8.492  1.2811 -0.0825 -0.0616
  894MOL0     O20556   6.601   2.683   2.595  0.3921  0.5626  0.1507
  894MOL0     C20557   6.679   2.602   2.545 -0.7414 -0.7493 -0.6115
  894MOL0     O20558   6.669   2.560   2.418  0.3812 -0.5793  0.1500
  894MOL0     C20559   6.560   2.594   2.337 -0.2757 -0.3446  0.5568
  894MOL0     C20560   6.435   2.635   2.378  0.1734  0.7513 -0.2500
  894MOL0     C20561   6.344   2.687   2.280  0.1522  0.5441  0.2939
  894MOL0     C20562   6.370   2.681   2.142  0.3868  0.6294 -0.3183
  894MOL0     O20563   6.283   2.743   2.057  0.1163  0.0486  0.1300
  894MOL0     C20564   6.147   2.708   2.082 -0.8952 -0.3127  0.1683
  894MOL0     C20565   6.065   2.779   1.965 -0.6588 -0.2280  0.4680
  894MOL0     C20566   5.918   2.747   2.001  0.3092 -0.2617  0.5414
  894MOL0     C20567   5.831   2.801   1.889 -0.3547  0.4279 -0.3413
  894MOL0     C20568   5.677   2.803   1.914 -0.3410  0.4633 -0.2731
  894MOL0     C20569   5.608   2.914   1.841 -0.8557  0.9404 -0.4880
  894MOL0     C20570   5.463   2.878   1.819 -0.6055 -0.0060  0.3885
  894MOL0     C20571   5.399   2.968   1.709  1.5927  0.7575 -0.3057
  894MOL0     N20572   5.253   2.956   1.695  0.0455 -0.2622  0.4251
  894MOL0     C20573   5.184   2.891   1.593  0.2830  1.0288 -0.7617
  894MOL0     C20574   5.058   2.904   1.631  0.7490  0.0431  0.4438
  894MOL0     C20575   4.957   2.845   1.534 -0.0562 -0.0595  0.1097
  894MOL0     C20576   4.811   2.864   1.577  0.1957  0.4206 -0.2119
  894MOL0     C20577   4.716   2.820   1.464 -0.3106 -0.6272 -0.1155
  894MOL0     C20578   4.566   2.854   1.486 -0.1839  0.6842  0.0115
  894MOL0     O20579   4.482   2.799   1.386 -0.0083 -0.0532 -0.0712
  894MOL0     C20580   4.350   2.780   1.406 -0.7293 -1.0199  0.0202
  894MOL0     C20581   4.289   2.699   1.315 -0.3734 -0.3194  0.0087
  894MOL0     C20582   4.151   2.680   1.315  0.5099 -0.6847  0.7878
  894MOL0     C20583   4.095   2.590   1.205 -0.5784 -0.3738 -0.3697
  894MOL0     C20584   4.072   2.751   1.408  0.1156  0.9242 -0.7126
  894MOL0     C20585   3.929   2.717   1.428 -0.6964 -0.4634 -0.1883
  894MOL0     O20586   3.902   2.581   1.433  0.0831  0.4380  0.1856
  894MOL0     C20587   3.782   2.514   1.463  0.3329  0.0951 -0.0367
  894MOL0     C20588   3.661   2.587   1.509 -0.2060 -0.8375  0.5018
  894MOL0     C20589   3.552   2.513   1.552 -0.5151  0.4052 -0.3207
  894MOL0     C20590   3.543   2.374   1.559  0.5516 -0.6212  0.4234
  894MOL0     O20591   3.431   2.295   1.577 -0.2987  0.2195 -0.1804
  894MOL0     C20592   3.329   2.346   1.666 -0.5330 -0.9339  0.1023
  894MOL0     C20593   3.225   2.245   1.695 -0.3171  0.7993  0.7619
  894MOL0     C20594   3.116   2.284   1.799 -1.1541  0.5972  0.0059
  894MOL0     C20595   3.033   2.166   1.847 -0.3553 -0.0977  0.2147
  894MOL0     C20596   2.929   2.176   1.955  0.9560  1.2394  0.1238
  894MOL0     C20597   2.808   2.260   1.911 -0.3202  0.0712 -0.5905
  894MOL0     C20598   2.721   2.301   2.030 -0.4025 -0.7026 -0.3722
  894MOL0     C20599   2.579   2.228   2.032 -0.9049 -1.3948  0.3104
  894MOL0    Cl20600   2.607   2.056   2.060 -0.6030  0.2859 -0.2912
  894MOL0     C20601   3.656   2.305   1.530 -0.1713 -0.1659 -0.2574
  894MOL0     C20602   3.772   2.373   1.477  0.1744  0.4511  0.3267
  894MOL0     O20603   3.847   2.811   1.432  0.3794  0.3022 -0.1916
  894MOL0     C20604   4.139   2.821   1.509 -0.2063 -0.6178 -0.0388
  894MOL0     C20605   4.269   2.845   1.509 -0.3330 -0.4178  0.7378
  894MOL0     N20606   5.039   2.985   1.743 -0.5618  0.7515 -0.1451
  894MOL0     N20607   5.164   3.014   1.776  0.8700  0.6119 -0.5944
  894MOL0     C20608   6.494   2.655   2.099  0.2640 -0.5763  0.2679
  894MOL0     C20609   6.593   2.610   2.200  1.1666 -1.0165 -0.3391
  894MOL0     C20610   6.793   2.551   2.626  0.5704  0.0873 -0.2144
  894MOL0     C20611   6.847   2.621   2.735 -0.7444 -0.0993 -0.7760
  894MOL0     C20612   6.959   2.560   2.800  0.0826 -0.2844  0.6783
  894MOL0     C20613   7.030   2.451   2.755 -0.4119  0.2100 -0.4357
  894MOL0     O20614   7.148   2.394   2.807 -0.2426  0.0274  0.7700
  894MOL0     C20615   7.215   2.473   2.907  0.3352  0.2355  0.3165
  894MOL0     C20616   7.328   2.403   2.978 -0.1763  0.8221  0.0241
  894MOL0     C20617   7.422   2.308   2.887  0.2798 -0.9298 -0.0911
  894MOL0     C20618   7.547   2.276   2.970 -0.0933 -0.3154  0.7148
  894MOL0     C20619   7.511   2.182   3.074  1.0185  0.0028 -0.8372
  894MOL0     C20620   7.496   2.092   3.157 -0.3535  0.2619 -0.3666
  894MOL0     C20621   6.976   2.385   2.645  0.4981 -0.0436  0.4509
  894MOL0     C20622   6.852   2.434   2.582 -0.5477 -0.4657 -0.5035
  894MOL0     H20623   6.399   2.627   2.481  1.1250 -2.1107 -0.0642
  894MOL0     H20624   6.253   2.730   2.321  1.2058  3.8006 -0.4501
  894MOL0     H20625   6.140   2.599   2.082  0.5893 -0.4326 -0.7029
  894MOL0     H20626   6.112   2.739   2.181 -2.1696 -4.3285  1.1529
  894MOL0     H20627   6.077   2.888   1.954 -1.0102 -0.3804 -1.9098
  894MOL0     H20628   6.083   2.737   1.866 -1.4448 -0.1074  0.2708
  894MOL0     H20629   5.899   2.640   2.011 -1.5141  0.0923  1.1414
  894MOL0     H20630   5.883   2.793   2.094  1.3440  3.3596 -0.6505
  894MOL0     H20631   5.867   2.903   1.871  1.1089  0.8196  3.7357
  894MOL0     H20632   5.844   2.750   1.793 -1.1809  1.2904 -0.9335
  894MOL0     H20633   5.629   2.707   1.893 -1.4683  0.6551  1.2277
  894MOL0     H20634   5.649   2.817   2.019  2.5643  0.2199  0.6352
  894MOL0     H20635   5.612   3.009   1.895 -0.6692  1.0151 -0.6326
  894MOL0     H20636   5.665   2.925   1.749  1.5599 -1.2226  0.6202
  894MOL0     H20637   5.448   2.777   1.779 -0.7772 -0.2077  0.9514
  894MOL0     H20638   5.398   2.886   1.907  0.2273 -0.5340  1.0554
  894MOL0     H20639   5.443   2.955   1.610  0.2182  1.2183 -1.0096
  894MOL0     H20640   5.413   3.074   1.731 -5.1663  1.8961  0.7040
  894MOL0     H20641   5.220   2.844   1.502  1.4377 -0.5518  0.4392
  894MOL0     H20642   4.971   2.879   1.431  1.3310 -1.9974 -0.3818
  894MOL0     H20643   4.974   2.738   1.545  2.8474  0.3813  0.5372
  894MOL0     H20644   4.805   2.973   1.584  0.1161  0.3923  0.1780
  894MOL0     H20645   4.777   2.810   1.666  0.6531 -0.4260 -0.5452
  894MOL0     H20646   4.720   2.713   1.442  2.9995 -0.7323  0.4627
  894MOL0     H20647   4.751   2.862   1.369 -0.1898 -1.4976 -0.4622
  894MOL0     H20648   4.543   2.961   1.497  1.2507  0.9843  0.2875
  894MOL0     H20649   4.542   2.810   1.583  1.1204  1.1606  0.5779
  894MOL0     H20650   4.361   2.648   1.252 -0.9806 -2.4187  0.9224
  894MOL0     H20651   4.074   2.497   1.259 -2.9083  1.2526  1.7654
  894MOL0     H20652   4.012   2.629   1.145 -0.9420 -2.1860 -1.1213
  894MOL0     H20653   4.165   2.570   1.123  0.1058  0.9107 -0.1205
  894MOL0     H20654   3.665   2.695   1.514 -0.5267 -0.7178 -1.1792
  894MOL0     H20655   3.470   2.581   1.575 -0.4045  0.2966  0.4293
  894MOL0     H20656   3.375   2.372   1.762  0.3229 -0.9344 -0.3053
  894MOL0     H20657   3.287   2.436   1.620 -1.4735  0.2567  3.0279
  894MOL0     H20658   3.172   2.215   1.605 -0.4978  1.8717  0.5023
  894MOL0     H20659   3.282   2.157   1.729 -0.5291 -0.2554 -1.4422
  894MOL0     H20660   3.066   2.368   1.750 -0.7247  1.2348  0.6336
  894MOL0     H20661   3.184   2.317   1.878  0.4045  1.7874 -1.7391
  894MOL0     H20662   2.994   2.131   1.751  0.2028 -0.5152  0.1333
  894MOL0     H20663   3.102   2.097   1.898 -0.1661  0.7594  1.1401
  894MOL0     H20664   2.978   2.233   2.035  1.1982  4.8632 -2.3256
  894MOL0     H20665   2.902   2.073   1.978  1.4116  0.8876 -0.8771
  894MOL0     H20666   2.854   2.352   1.873  1.3374 -1.2244 -1.8961
  894MOL0     H20667   2.751   2.214   1.830  1.3004 -0.0625 -1.7217
  894MOL0     H20668   2.713   2.410   2.021 -0.9934 -0.9217 -3.7846
  894MOL0     H20669   2.769   2.267   2.123 -0.7027 -5.5482 -1.7092
  894MOL0     H20670   2.517   2.230   1.941 -2.6351  0.4994  1.4454
  894MOL0     H20671   2.520   2.264   2.117  1.0358 -5.8816  3.9785
  894MOL0     H20672   3.651   2.197   1.531 -1.5804 -0.1070  0.7241
  894MOL0     H20673   3.856   2.317   1.437  0.2183 -0.0264  1.0684
  894MOL0     H20674   4.083   2.879   1.582  2.8153  0.8603  1.2526
  894MOL0     H20675   4.317   2.920   1.571 -2.2967 -0.2801  2.1625
  894MOL0     H20676   6.518   2.669   1.994 -1.7012 -1.9048 -0.4274
  894MOL0     H20677   6.693   2.583   2.166  0.1884  0.1207 -4.7589
  894MOL0     H20678   6.821   2.724   2.755  1.9265  0.3212  1.1009
  894MOL0     H20679   7.009   2.622   2.874  1.3151  0.0791 -0.4289
  894MOL0     H20680   7.253   2.566   2.864 -1.2424  0.8524  0.2127
  894MOL0     H20681   7.138   2.486   2.983 -1.4238 -2.5699 -0.8361
  894MOL0     H20682   7.289   2.335   3.054  0.6155 -1.7506 -1.7460
  894MOL0     H20683   7.392   2.478   3.026 -0.5668  0.6445  0.8350
  894MOL0     H20684   7.462   2.358   2.798 -0.4918 -2.1091 -1.1440
  894MOL0     H20685   7.364   2.223   2.848  0.6782 -1.3351  0.1822
  894MOL0     H20686   7.587   2.363   3.021 -0.9484  0.0538  0.7838
  894MOL0     H20687   7.629   2.232   2.913  0.2526  1.1355  0.0495
  894MOL0     H20688   7.491   2.025   3.240 -0.6607  0.7843  0.0485
  894MOL0     H20689   7.019   2.301   2.591 -3.4867 -1.2382 -1.2375
  894MOL0     H20690   6.814   2.376   2.499  2.2360  0.1883 -2.3722
  895MOL0     O20691  10.614   3.594  10.879 -1.8598  0.4978  0.5319
  895MOL0     C20692  10.592   3.651  10.773 -0.6149 -0.7033  0.9648
  895MOL0     O20693  10.689   3.697  10.689  0.0092 -0.0138 -0.7080
  895MOL0     C20694  10.822   3.664  10.703  0.6563  0.6562 -0.3391
  895MOL0     C20695  10.897   3.676  10.823 -0.4090  0.7748  0.1431
  895MOL0     C20696  11.032   3.633  10.828  0.4432  0.8298 -1.6612
  895MOL0     C20697  11.096   3.592  10.706 -1.3225  0.8119 -0.5820
  895MOL0     O20698  11.234   3.554  10.719  0.7826 -0.0035 -0.5612
  895MOL0     C20699  11.312   3.580  10.599 -0.6983  0.2614  0.3158
  895MOL0     C20700  11.458   3.613  10.648 -0.0262  0.5551 -1.3372
  895MOL0     C20701  11.479   3.764  10.684  0.9440 -0.3042  0.0232
  895MOL0     C20702  11.585   3.774  10.794  0.7132  0.0776 -0.6620
  895MOL0     C20703  11.616   3.917  10.842  0.0671  0.1634 -0.3492
  895MOL0     C20704  11.754   3.919  10.909  0.6796 -0.1526 -0.7290
  895MOL0     C20705  11.799   4.061  10.919 -0.0939 -0.0413  0.2049
  895MOL0     C20706  11.934   4.055  10.986  0.8170 -0.1267 -0.3408
  895MOL0     N20707  12.047   4.032  10.895  0.1618 -0.2847 -0.7773
  895MOL0     C20708  12.102   3.915  10.850  0.6125 -0.6527  0.2264
  895MOL0     C20709  12.204   3.952  10.775 -0.5898 -0.0164  0.6245
  895MOL0     C20710  12.288   3.848  10.695  0.2783 -0.2560 -0.1082
  895MOL0     C20711  12.219   3.769  10.588  0.1755 -0.1098  0.7907
  895MOL0     C20712  12.306   3.728  10.469  0.1396  0.0665 -0.1052
  895MOL0     C20713  12.443   3.670  10.511  0.1391 -0.0742  0.6552
  895MOL0     O20714  12.489   3.572  10.415  0.0545 -0.0823  0.0914
  895MOL0     C20715  12.611   3.517  10.449 -0.3329  0.0801  0.0378
  895MOL0     C20716  12.699   3.554  10.551 -0.0652  0.4759  0.6758
  895MOL0     C20717  12.819   3.492  10.573  0.1040  0.6449 -1.3265
  895MOL0     C20718  12.923   3.539  10.681 -0.0557 -0.5023 -0.0308
  895MOL0     C20719  12.855   3.376  10.502  0.9170  1.0755  0.0354
  895MOL0     C20720  12.971   3.295  10.540 -0.3748 -0.0177  0.4289
  895MOL0     O20721  13.070   3.288  10.447  0.4687 -0.1643 -0.7981
  895MOL0     C20722  13.175   3.212  10.493 -0.1710  0.0286 -0.0245
  895MOL0     C20723  13.213   3.103  10.414  0.3332 -0.8242 -0.1785
  895MOL0     C20724  13.318   3.020  10.457 -0.4023  0.7902  0.2917
  895MOL0     C20725  13.391   3.042  10.571 -0.5301  0.6262 -0.3620
  895MOL0     O20726  13.488   2.948  10.614  0.2617  0.0158 -0.1982
  895MOL0     C20727  13.579   2.982  10.723  0.3184  0.2682  0.3382
  895MOL0     C20728  13.532   2.942  10.860 -0.2128  0.5478 -0.6034
  895MOL0     C20729  13.499   2.801  10.869 -0.0499 -0.5665 -1.8084
  895MOL0     C20730  13.503   2.759  11.009  0.7518  0.7278 -0.2147
  895MOL0     C20731  13.404   2.636  11.009 -1.0092  0.3187  0.3797
  895MOL0     C20732  13.357   2.581  11.150  0.7164 -0.3423 -0.0659
  895MOL0     C20733  13.235   2.492  11.143  0.7231  0.4006 -1.1408
  895MOL0     C20734  13.210   2.418  11.276  1.2013 -0.3304  0.0238
  895MOL0    Cl20735  13.062   2.316  11.257 -0.0226  0.0863 -0.1239
  895MOL0     C20736  13.367   3.159  10.638  0.2576  0.3117 -0.1493
  895MOL0     C20737  13.256   3.235  10.610 -0.0923 -0.2079 -0.0836
  895MOL0     O20738  12.973   3.243  10.649  0.1272 -0.1823 -0.3262
  895MOL0     C20739  12.771   3.332  10.399  0.9012  0.1072 -1.0832
  895MOL0     C20740  12.646   3.406  10.380  0.3143  0.0503  0.0166
  895MOL0     N20741  12.218   4.091  10.782 -0.1694 -0.4220 -0.5263
  895MOL0     N20742  12.142   4.133  10.877  0.2800  0.3587 -0.1791
  895MOL0     C20743  11.016   3.572  10.588 -0.9752  0.3074 -0.8107
  895MOL0     C20744  10.878   3.610  10.587  1.4425  0.2762  0.0494
  895MOL0     C20745  10.458   3.655  10.722  1.1328 -0.3107 -0.0789
  895MOL0     C20746  10.416   3.721  10.600  0.3078  0.2152 -0.8321
  895MOL0     C20747  10.277   3.723  10.576  0.6522  0.2801  0.7266
  895MOL0     C20748  10.181   3.662  10.656  0.3079  0.1017 -0.6615
  895MOL0     O20749  10.040   3.670  10.644  0.0517 -1.2952 -0.2289
  895MOL0     C20750   9.995   3.754  10.542  1.4327 -0.1468 -0.5345
  895MOL0     C20751   9.831   3.749  10.547 -0.2139 -0.0205  0.0537
  895MOL0     C20752   9.772   3.809  10.675  0.0480 -0.1062 -0.1061
  895MOL0     C20753   9.631   3.832  10.694  0.5318  0.5425 -0.3337
  895MOL0     C20754   9.545   3.709  10.697  0.4341 -0.0127  0.3836
  895MOL0     C20755   9.463   3.625  10.682  0.1499  0.3858 -0.3634
  895MOL0     C20756  10.225   3.593  10.758 -0.0289  0.2102 -0.0340
  895MOL0     C20757  10.360   3.591  10.796 -0.2514  0.0995  0.5540
  895MOL0     H20758  10.856   3.705  10.920 -1.6418 -2.0109  0.5336
  895MOL0     H20759  11.086   3.623  10.922  0.5045 -0.7715 -1.8367
  895MOL0     H20760  11.320   3.496  10.530 -1.2242  1.7662 -1.6577
  895MOL0     H20761  11.276   3.667  10.543 -4.5062  0.9824  3.4583
  895MOL0     H20762  11.481   3.545  10.730  3.9917  1.2815 -1.6742
  895MOL0     H20763  11.542   3.602  10.579  0.1594  0.8320 -1.1610
  895MOL0     H20764  11.512   3.816  10.594 -4.9549  1.0953 -1.7468
  895MOL0     H20765  11.386   3.814  10.712  1.6162  1.5807 -0.9083
  895MOL0     H20766  11.555   3.720  10.884  0.0552 -0.7159 -1.3356
  895MOL0     H20767  11.672   3.719  10.758 -0.6567 -2.4243 -0.3528
  895MOL0     H20768  11.618   3.982  10.754  0.4222 -0.1737 -0.5972
  895MOL0     H20769  11.536   3.961  10.902  1.4510  1.5888  0.5439
  895MOL0     H20770  11.737   3.870  11.006 -0.4625  2.8220  0.6934
  895MOL0     H20771  11.824   3.852  10.858  1.1679 -0.2694  0.0766
  895MOL0     H20772  11.804   4.103  10.818 -3.1120 -1.2512 -0.5430
  895MOL0     H20773  11.731   4.123  10.978 -1.1604  1.8538 -2.8021
  895MOL0     H20774  11.930   3.978  11.063  1.3236  1.1034  0.9530
  895MOL0     H20775  11.955   4.151  11.033  2.4892  0.1532 -1.5648
  895MOL0     H20776  12.065   3.815  10.870 -2.3892 -0.3778 -2.9160
  895MOL0     H20777  12.364   3.904  10.639 -1.4175 -0.7676 -3.1433
  895MOL0     H20778  12.341   3.782  10.764  0.0102 -0.1000  0.2488
  895MOL0     H20779  12.137   3.824  10.540 -1.8462 -3.3917  0.1860
  895MOL0     H20780  12.170   3.681  10.630  0.9306 -0.5168  0.8403
  895MOL0     H20781  12.323   3.818  10.409  0.6447 -0.7423 -1.1977
  895MOL0     H20782  12.250   3.652  10.413 -0.1070 -2.8811  3.7000
  895MOL0     H20783  12.413   3.611  10.598 -2.2043  1.4938  1.0147
  895MOL0     H20784  12.515   3.750  10.532 -2.1314  1.4980  3.1092
  895MOL0     H20785  12.684   3.632  10.625  0.8024  0.2891  1.0549
  895MOL0     H20786  12.884   3.606  10.758 -1.0366 -2.9199  1.6760
  895MOL0     H20787  12.979   3.465  10.738  0.2349  0.5530  1.1081
  895MOL0     H20788  13.003   3.595  10.630  0.0538  2.1071  2.7611
  895MOL0     H20789  13.157   3.071  10.327 -0.5917 -2.7329  1.0397
  895MOL0     H20790  13.340   2.935  10.393  0.6302 -0.9814  2.8738
  895MOL0     H20791  13.674   2.931  10.705  0.7293  1.3305 -0.5846
  895MOL0     H20792  13.611   3.086  10.714  2.4224 -0.4870 -1.9379
  895MOL0     H20793  13.623   2.961  10.918  0.8367  1.9128 -2.5661
  895MOL0     H20794  13.453   3.011  10.894 -0.2369  0.0025  0.4896
  895MOL0     H20795  13.572   2.735  10.822  0.6193  0.4852 -2.2782
  895MOL0     H20796  13.401   2.787  10.822  0.8881 -3.2294 -3.1463
  895MOL0     H20797  13.606   2.742  11.041  0.8050 -0.7081 -1.0196
  895MOL0     H20798  13.464   2.840  11.071  0.4324 -0.3926  1.1032
  895MOL0     H20799  13.452   2.554  10.955 -3.7804 -1.9200  1.0836
  895MOL0     H20800  13.318   2.667  10.948  0.3046 -0.1646 -1.8416
  895MOL0     H20801  13.441   2.527  11.195  1.4168  1.6620  1.1201
  895MOL0     H20802  13.336   2.669  11.210  1.7179 -1.9794  2.8665
  895MOL0     H20803  13.240   2.408  11.073  1.4480  0.0405 -0.6854
  895MOL0     H20804  13.145   2.551  11.128 -1.4762 -2.4251 -0.0253
  895MOL0     H20805  13.199   2.489  11.358  0.0185  0.0640 -0.4620
  895MOL0     H20806  13.297   2.356  11.301  0.8448 -0.5300  0.8190
  895MOL0     H20807  13.419   3.186  10.729 -2.1273  1.0658  1.0754
  895MOL0     H20808  13.235   3.309  10.686  0.1517  0.5210 -0.7140
  895MOL0     H20809  12.808   3.251  10.338 -0.0894 -1.3094  0.1338
  895MOL0     H20810  12.575   3.367  10.308  0.8762 -0.7793 -0.1049
  895MOL0     H20811  11.056   3.525  10.499  0.1533 -1.2942  0.4765
  895MOL0     H20812  10.806   3.594  10.508  0.8364 -0.4208  0.7190
  895MOL0     H20813  10.489   3.785  10.552  1.3076  0.6981  1.2525
  895MOL0     H20814  10.253   3.791  10.494 -1.9329 -1.5557 -0.1733
  895MOL0     H20815  10.021   3.859  10.558  2.0775 -0.2271 -1.0450
  895MOL0     H20816  10.021   3.706  10.448  0.8104 -1.2887 -0.1389
  895MOL0     H20817   9.792   3.648  10.532  0.1588 -0.2300  0.4629
  895MOL0     H20818   9.791   3.804  10.462  0.6633 -2.4532 -2.0695
  895MOL0     H20819   9.832   3.900  10.686  2.4696 -1.6700  0.0515
  895MOL0     H20820   9.804   3.747  10.758 -2.5032 -0.3039  0.8154
  895MOL0     H20821   9.582   3.895  10.619 -1.1806 -1.3595 -0.9052
  895MOL0     H20822   9.629   3.885  10.789  0.5000  1.1430 -0.6621
  895MOL0     H20823   9.379   3.560  10.672 -0.4016  0.0500  4.3086
  895MOL0     H20824  10.156   3.549  10.829 -2.0558  2.6551 -0.3890
  895MOL0     H20825  10.389   3.529  10.881  2.2043 -2.4260 -1.9088
  896MOL0     O20826   2.374   5.783   4.682 -0.2699  1.1306 -0.3406
  896MOL0     C20827   2.433   5.762   4.580 -1.2730 -0.5712 -0.5762
  896MOL0     O20828   2.392   5.702   4.471  0.1195  0.2986  0.0167
  896MOL0     C20829   2.257   5.674   4.460  0.2578  0.6826  0.5281
  896MOL0     C20830   2.154   5.762   4.459  0.3001 -0.3628  0.0734
  896MOL0     C20831   2.020   5.712   4.438 -0.5429  0.1152 -0.7184
  896MOL0     C20832   1.995   5.575   4.423 -0.4530  0.0183  0.1043
  896MOL0     O20833   1.863   5.535   4.408 -0.6607  0.0576  0.1888
  896MOL0     C20834   1.783   5.578   4.516  0.1139  0.1173 -0.0620
  896MOL0     C20835   1.638   5.512   4.494  0.7308 -0.3714  0.2666
  896MOL0     C20836   1.546   5.568   4.378  0.7081  0.4501 -0.0908
  896MOL0     C20837   1.427   5.662   4.429  0.1076 -0.2462 -0.0385
  896MOL0     C20838   1.373   5.747   4.313  0.5936 -0.3820 -0.5351
  896MOL0     C20839   1.252   5.826   4.355 -0.0756  0.7670 -0.0222
  896MOL0     C20840   1.186   5.919   4.243  0.0221 -0.4609  0.0165
  896MOL0     C20841   1.275   6.037   4.210 -0.6996 -0.5916  0.2735
  896MOL0     N20842   1.303   6.126   4.325  0.1680  0.5255 -0.3886
  896MOL0     C20843   1.412   6.105   4.408  0.3989  0.5454  0.4102
  896MOL0     C20844   1.380   6.171   4.522 -0.7220 -0.7646  0.3501
  896MOL0     C20845   1.471   6.161   4.658 -0.2054 -0.3168 -0.1536
  896MOL0     C20846   1.520   6.289   4.732 -1.5002 -0.6016  1.1026
  896MOL0     C20847   1.626   6.257   4.841  0.7357  0.1485  0.3358
  896MOL0     C20848   1.666   6.384   4.912 -0.4642  0.1736 -1.2349
  896MOL0     O20849   1.756   6.453   4.834  0.1519  0.3139 -0.1045
  896MOL0     C20850   1.858   6.510   4.907 -0.1563 -0.4777 -0.0978
  896MOL0     C20851   1.848   6.567   5.037  0.4739 -0.9824  0.2108
  896MOL0     C20852   1.964   6.598   5.113 -1.0098 -1.2023  0.5226
  896MOL0     C20853   1.940   6.648   5.256 -0.2087  0.1696  0.2842
  896MOL0     C20854   2.097   6.574   5.060 -0.1555  0.2519  0.4870
  896MOL0     C20855   2.220   6.601   5.128 -0.5108  1.0126  0.3938
  896MOL0     O20856   2.332   6.534   5.082  0.4702  0.0126 -0.7387
  896MOL0     C20857   2.458   6.577   5.124 -0.1494 -0.2181 -0.3862
  896MOL0     C20858   2.547   6.594   5.024 -1.4265 -0.7897  0.1237
  896MOL0     C20859   2.682   6.625   5.047 -0.0555  0.5719  0.0324
  896MOL0     C20860   2.726   6.649   5.176 -0.4256  0.2203  0.1111
  896MOL0     O20861   2.851   6.685   5.197 -0.1110 -0.2661  0.3819
  896MOL0     C20862   2.915   6.664   5.321  1.0064  0.8183 -0.2426
  896MOL0     C20863   3.057   6.611   5.304  0.3308  0.2521  0.0637
  896MOL0     C20864   3.149   6.712   5.229 -0.3168 -0.1135 -0.1323
  896MOL0     C20865   3.283   6.643   5.183  0.2717  0.8030 -0.3571
  896MOL0     C20866   3.354   6.727   5.090 -1.3241  0.7368  0.4916
  896MOL0     C20867   3.422   6.860   5.129 -0.1666  0.9868 -0.0113
  896MOL0     C20868   3.528   6.832   5.229 -0.7381 -0.0532 -0.2929
  896MOL0     C20869   3.626   6.945   5.248  0.1483  0.0576  0.0733
  896MOL0    Cl20870   3.771   6.866   5.324 -0.2056 -0.1201  0.2684
  896MOL0     C20871   2.635   6.640   5.283 -0.0098  0.0969 -0.7941
  896MOL0     C20872   2.505   6.599   5.257  0.4410 -0.5324 -0.1464
  896MOL0     O20873   2.221   6.694   5.211 -0.6613  0.4335  0.0018
  896MOL0     C20874   2.096   6.522   4.936 -0.5217 -0.7447  0.7656
  896MOL0     C20875   1.985   6.496   4.854 -1.1632 -0.0974 -0.0160
  896MOL0     N20876   1.256   6.224   4.511 -0.0106  0.3994 -0.6819
  896MOL0     N20877   1.208   6.199   4.393 -0.8520 -0.0433 -0.0462
  896MOL0     C20878   2.105   5.492   4.413  0.0325 -0.5348 -0.1229
  896MOL0     C20879   2.235   5.538   4.423 -0.0014  0.4368  0.0734
  896MOL0     C20880   2.571   5.802   4.587  0.9011 -0.4615 -0.7177
  896MOL0     C20881   2.644   5.796   4.702 -0.1357  0.0431  0.0293
  896MOL0     C20882   2.780   5.839   4.713 -0.3675 -1.1640 -0.1464
  896MOL0     C20883   2.835   5.905   4.598  0.8395  0.7312 -0.5234
  896MOL0     O20884   2.957   5.957   4.600 -0.5849 -0.1189 -0.1572
  896MOL0     C20885   3.060   5.905   4.698  0.8853  0.1435  0.2064
  896MOL0     C20886   3.202   5.940   4.635  0.1876 -0.4382  0.9687
  896MOL0     C20887   3.314   5.913   4.737 -0.6538 -0.1671 -0.0188
  896MOL0     C20888   3.445   5.910   4.665 -0.4494  0.5181  0.6903
  896MOL0     C20889   3.464   5.795   4.567  1.2941  1.0285 -1.5836
  896MOL0     C20890   3.479   5.708   4.484 -0.5034  0.3809 -0.2678
  896MOL0     C20891   2.758   5.911   4.482 -0.5669 -0.6511 -0.1969
  896MOL0     C20892   2.632   5.855   4.473 -0.4206  0.2292 -0.3992
  896MOL0     H20893   2.162   5.871   4.463 -0.4178 -0.3298  0.8701
  896MOL0     H20894   1.944   5.788   4.424  0.9408  1.1215 -4.4720
  896MOL0     H20895   1.828   5.552   4.612  3.4391 -0.5559 -1.6924
  896MOL0     H20896   1.780   5.687   4.526 -0.2705 -0.0250  1.7689
  896MOL0     H20897   1.649   5.406   4.470  0.6493 -0.3933  0.3266
  896MOL0     H20898   1.584   5.524   4.589 -0.6911  0.8459 -0.6490
  896MOL0     H20899   1.611   5.627   4.314  1.0512 -0.1006 -0.2595
  896MOL0     H20900   1.501   5.487   4.320 -1.2139  2.0087 -0.8999
  896MOL0     H20901   1.353   5.611   4.491  3.2833 -1.6656  2.9111
  896MOL0     H20902   1.467   5.724   4.510  1.5564 -1.9486  0.6151
  896MOL0     H20903   1.452   5.815   4.279  3.1753 -2.4822  0.9693
  896MOL0     H20904   1.341   5.680   4.233  1.1605  1.2417 -2.2158
  896MOL0     H20905   1.170   5.755   4.371  1.4698 -1.1412 -0.1646
  896MOL0     H20906   1.255   5.888   4.445 -3.1410  1.1573 -0.0832
  896MOL0     H20907   1.170   5.861   4.152  2.3856 -0.7664 -0.2468
  896MOL0     H20908   1.092   5.961   4.282 -0.9858 -0.8406 -1.8575
  896MOL0     H20909   1.230   6.087   4.124  0.5346 -0.8303 -0.5426
  896MOL0     H20910   1.374   6.000   4.180 -0.8647 -1.2342  0.5246
  896MOL0     H20911   1.503   6.049   4.392 -1.3872 -2.5291  0.0862
  896MOL0     H20912   1.416   6.100   4.730 -2.5219  1.0912 -0.6346
  896MOL0     H20913   1.560   6.099   4.640  0.3199  1.1418 -3.3021
  896MOL0     H20914   1.432   6.348   4.757 -2.1190 -0.9019 -0.2897
  896MOL0     H20915   1.581   6.345   4.660 -1.3244 -2.4392 -0.2483
  896MOL0     H20916   1.714   6.209   4.797  1.5747 -0.1239  2.2094
  896MOL0     H20917   1.576   6.195   4.916  1.7060  0.6556  1.4453
  896MOL0     H20918   1.708   6.356   5.010 -1.1524 -2.2885 -1.5864
  896MOL0     H20919   1.580   6.448   4.932 -1.4106 -0.8339 -1.9929
  896MOL0     H20920   1.746   6.571   5.073  0.2026  2.7749 -0.5655
  896MOL0     H20921   1.935   6.758   5.258  1.9841  0.3096  0.1309
  896MOL0     H20922   1.841   6.618   5.293 -1.8887  2.6758 -1.7925
  896MOL0     H20923   2.015   6.608   5.325  0.4996 -0.3175 -0.7447
  896MOL0     H20924   2.514   6.577   4.922  1.7261 -0.2577 -1.0933
  896MOL0     H20925   2.750   6.644   4.964  1.8816  1.1363  1.6567
  896MOL0     H20926   2.907   6.756   5.379  2.1624  0.2413  0.9059
  896MOL0     H20927   2.872   6.581   5.378  1.8654 -0.4885 -1.4256
  896MOL0     H20928   3.096   6.593   5.405  0.7982 -3.1705 -0.6123
  896MOL0     H20929   3.060   6.511   5.259 -1.6437  0.1128  0.1637
  896MOL0     H20930   3.174   6.797   5.293 -0.2711 -1.0567  1.1327
  896MOL0     H20931   3.097   6.749   5.140 -0.9610 -0.5001  0.0767
  896MOL0     H20932   3.348   6.621   5.269 -1.9188 -3.0414  0.5631
  896MOL0     H20933   3.258   6.549   5.132 -1.0882  1.5682 -1.1435
  896MOL0     H20934   3.283   6.762   5.014 -1.4589  2.0162  1.1801
  896MOL0     H20935   3.425   6.659   5.042 -3.9413 -3.0584  1.5547
  896MOL0     H20936   3.466   6.904   5.039 -0.1899  2.6705  0.7549
  896MOL0     H20937   3.340   6.922   5.166  0.1319 -1.0672  4.8813
  896MOL0     H20938   3.590   6.753   5.185  1.1978  1.5390 -0.5606
  896MOL0     H20939   3.474   6.798   5.318 -0.8857 -0.8050 -0.6596
  896MOL0     H20940   3.583   7.020   5.314 -0.8004  0.2450 -0.7309
  896MOL0     H20941   3.655   6.994   5.154  0.1158  0.9089  0.4981
  896MOL0     H20942   2.658   6.667   5.385  1.0361 -1.8901 -0.4664
  896MOL0     H20943   2.432   6.593   5.337  1.5473  1.5281  1.1102
  896MOL0     H20944   2.191   6.501   4.887  1.1563 -0.4901  3.6527
  896MOL0     H20945   1.994   6.467   4.750 -0.4506  1.8923 -0.5535
  896MOL0     H20946   2.095   5.385   4.398  1.8867 -0.5134 -1.8536
  896MOL0     H20947   2.320   5.473   4.406  1.6846  2.9159 -1.8569
  896MOL0     H20948   2.610   5.735   4.786 -3.2944  0.0892 -1.0992
  896MOL0     H20949   2.843   5.817   4.799  0.1614 -1.7091 -0.6661
  896MOL0     H20950   3.038   5.948   4.796 -3.0807 -2.9895  0.9780
  896MOL0     H20951   3.059   5.796   4.706  0.8066  0.1179 -0.1392
  896MOL0     H20952   3.202   6.048   4.616 -1.7097 -0.5521  0.0542
  896MOL0     H20953   3.209   5.889   4.539 -0.5621 -2.2271  1.8155
  896MOL0     H20954   3.299   5.828   4.804  0.0913 -0.0340  0.3181
  896MOL0     H20955   3.325   6.000   4.802  0.9204 -0.5965  0.3204
  896MOL0     H20956   3.532   5.902   4.732  1.2595 -5.1415 -1.6052
  896MOL0     H20957   3.454   6.012   4.626 -2.9235 -0.0633 -1.5933
  896MOL0     H20958   3.490   5.634   4.408  1.6235 -0.3700  0.7036
  896MOL0     H20959   2.813   5.950   4.397  0.8191 -1.5020  0.2831
  896MOL0     H20960   2.567   5.867   4.387 -0.5031 -1.2587 -0.5734
  897MOL0     O20961   2.897   8.043   5.064 -0.0574  0.8908  0.7055
  897MOL0     C20962   2.915   7.921   5.065  0.0865  0.5445  1.8155
  897MOL0     O20963   2.825   7.824   5.093  0.2932  0.0947  0.7479
  897MOL0     C20964   2.689   7.845   5.116  0.5366  0.3628  0.3560
  897MOL0     C20965   2.619   7.757   5.195  0.8492  0.8347 -0.2424
  897MOL0     C20966   2.483   7.763   5.222  0.4481  0.7864 -0.1909
  897MOL0     C20967   2.400   7.861   5.165  0.6219  0.7094 -0.2977
  897MOL0     O20968   2.259   7.847   5.175 -0.2762 -0.4237  0.3850
  897MOL0     C20969   2.179   7.958   5.117  0.3097 -0.2654 -1.0576
  897MOL0     C20970   2.026   7.960   5.162 -0.2063  0.2362 -0.2014
  897MOL0     C20971   1.930   8.051   5.073 -0.6542  0.2337 -0.0428
  897MOL0     C20972   1.976   8.191   5.030 -1.2582  0.3044  0.2318
  897MOL0     C20973   1.849   8.280   5.023 -0.8074 -0.1714  0.3269
  897MOL0     C20974   1.753   8.237   4.913  0.4490 -1.0567  0.2603
  897MOL0     C20975   1.656   8.348   4.861 -0.2081  0.5792  0.2606
  897MOL0     C20976   1.538   8.342   4.946 -0.5438  0.3977 -0.1485
  897MOL0     N20977   1.433   8.438   4.916  0.1363  0.1680 -0.3947
  897MOL0     C20978   1.303   8.423   4.942 -0.2903 -0.4573  0.5975
  897MOL0     C20979   1.245   8.537   4.899 -0.7096 -0.0169  0.1066
  897MOL0     C20980   1.100   8.583   4.901 -0.6262 -0.3663 -0.0542
  897MOL0     C20981   0.982   8.483   4.909  0.2123  0.0774  1.1659
  897MOL0     C20982   0.968   8.408   4.771 -0.0704  0.1161 -0.3085
  897MOL0     C20983   0.845   8.320   4.745  0.0737  0.1143  0.0356
  897MOL0     O20984   0.859   8.238   4.630 -0.1360  0.3082 -0.0319
  897MOL0     C20985   0.867   8.314   4.516  0.3324  0.6490  0.0208
  897MOL0     C20986   0.828   8.451   4.501  0.0132  0.1624 -0.0667
  897MOL0     C20987   0.851   8.522   4.382 -0.5486 -0.2759 -0.5826
  897MOL0     C20988   0.811   8.665   4.369 -0.3028 -0.5757 -0.7312
  897MOL0     C20989   0.920   8.463   4.278  0.2188 -0.5385  0.7149
  897MOL0     C20990   0.940   8.519   4.139  0.4534  0.3473 -0.8419
  897MOL0     O20991   0.976   8.656   4.137  0.2859 -0.4048 -0.2358
  897MOL0     C20992   1.021   8.705   4.015  0.0404  0.1589  0.0931
  897MOL0     C20993   0.979   8.835   3.977 -0.5979  0.3808 -0.4461
  897MOL0     C20994   1.030   8.899   3.862 -0.3806 -0.7930 -0.1480
  897MOL0     C20995   1.120   8.831   3.783 -0.2339  1.0688 -0.5499
  897MOL0     O20996   1.196   8.897   3.690  0.3694  0.4433  0.4556
  897MOL0     C20997   1.189   9.044   3.699  0.5187  0.5960 -0.2518
  897MOL0     C20998   1.276   9.122   3.603 -0.3449 -0.0641 -0.0981
  897MOL0     C20999   1.269   9.068   3.464 -0.9414  0.3560  0.4686
  897MOL0     C21000   1.329   9.173   3.361  0.4552  0.1204  0.6557
  897MOL0     C21001   1.219   9.280   3.340  0.3715  0.2944 -0.6519
  897MOL0     C21002   1.245   9.364   3.210 -0.1763  0.3602 -0.3188
  897MOL0     C21003   1.383   9.440   3.206 -0.7593  0.7971  0.2831
  897MOL0     C21004   1.420   9.512   3.082  1.4907  0.1231  0.8962
  897MOL0    Cl21005   1.300   9.641   3.038 -0.1064  0.3948  0.1021
  897MOL0     C21006   1.159   8.693   3.813 -0.2119 -0.5026 -0.6987
  897MOL0     C21007   1.106   8.635   3.927 -0.3305 -0.1498 -0.3981
  897MOL0     O21008   0.929   8.444   4.047  1.2005 -0.3438  0.0066
  897MOL0     C21009   0.962   8.326   4.300  0.6795 -1.0025  1.4834
  897MOL0     C21010   0.937   8.254   4.415 -0.5991 -0.4269 -0.5483
  897MOL0     N21011   1.351   8.621   4.856 -0.0058 -0.2619  0.0934
  897MOL0     N21012   1.460   8.564   4.879 -0.0553 -0.0448 -0.1299
  897MOL0     C21013   2.471   7.951   5.082  0.2828 -0.2422  0.1059
  897MOL0     C21014   2.608   7.945   5.055 -0.1197 -0.8417 -1.1894
  897MOL0     C21015   3.052   7.867   5.031  0.4218  0.1060  0.2720
  897MOL0     C21016   3.169   7.943   5.051 -0.2407  0.3756  0.0373
  897MOL0     C21017   3.298   7.891   5.009 -0.1329  0.9518 -0.3217
  897MOL0     C21018   3.306   7.775   4.923 -0.3962 -0.0328 -0.4997
  897MOL0     O21019   3.427   7.735   4.876 -0.8813 -0.3284 -0.3607
  897MOL0     C21020   3.533   7.828   4.850  0.0842  1.1609 -0.2790
  897MOL0     C21021   3.667   7.792   4.924 -0.6856  0.2775  0.2482
  897MOL0     C21022   3.772   7.903   4.894  0.6385 -0.4811  0.2371
  897MOL0     C21023   3.918   7.874   4.945 -0.3686  0.2746  0.5648
  897MOL0     C21024   3.977   7.784   4.835  0.0539  0.6673  0.5831
  897MOL0     C21025   4.032   7.716   4.752  0.4028 -0.0400  0.1555
  897MOL0     C21026   3.186   7.712   4.901 -0.0783  0.8127 -0.0702
  897MOL0     C21027   3.062   7.749   4.959 -0.1548 -0.6214  0.1897
  897MOL0     H21028   2.683   7.683   5.243 -0.7441  0.0190  0.6706
  897MOL0     H21029   2.440   7.684   5.283  0.1622  1.0251 -0.0804
  897MOL0     H21030   2.236   8.046   5.147  1.9355 -1.6985  0.2962
  897MOL0     H21031   2.185   7.948   5.008  3.9758 -2.2598 -0.8404
  897MOL0     H21032   1.975   7.863   5.163  2.1237 -1.1002  1.8548
  897MOL0     H21033   2.023   8.004   5.263  0.6077  0.6726 -0.3611
  897MOL0     H21034   1.898   7.994   4.985  0.8746 -1.0084  0.1454
  897MOL0     H21035   1.845   8.064   5.140  0.5693  2.3629  1.2280
  897MOL0     H21036   2.045   8.228   5.106 -1.9969  0.5633  0.7929
  897MOL0     H21037   2.024   8.185   4.932  0.7780  0.4972  1.1713
  897MOL0     H21038   1.794   8.287   5.118 -0.7718  1.8845  0.2226
  897MOL0     H21039   1.887   8.380   5.002 -0.5479 -0.3107  0.1240
  897MOL0     H21040   1.812   8.213   4.824 -0.9727 -2.1083 -0.4308
  897MOL0     H21041   1.690   8.152   4.941 -0.0694 -0.3569  1.2414
  897MOL0     H21042   1.697   8.449   4.855 -0.5159  0.6106 -1.6241
  897MOL0     H21043   1.623   8.322   4.760  1.2169 -0.1008 -0.0674
  897MOL0     H21044   1.570   8.359   5.049  0.2067  0.1985 -0.3429
  897MOL0     H21045   1.498   8.242   4.933 -0.4024  0.6866 -4.0896
  897MOL0     H21046   1.258   8.326   4.963 -3.0470  0.1324 -1.9088
  897MOL0     H21047   1.093   8.640   4.994  1.5325  1.1833 -0.7643
  897MOL0     H21048   1.081   8.656   4.822  1.4567  3.4660  2.6089
  897MOL0     H21049   0.891   8.540   4.928  0.1499  1.3032 -2.1656
  897MOL0     H21050   1.008   8.405   4.982 -2.4035 -3.8268 -1.6436
  897MOL0     H21051   1.043   8.330   4.755 -2.9451 -3.7130  2.8089
  897MOL0     H21052   0.972   8.496   4.706  1.7947  1.8791  2.0031
  897MOL0     H21053   0.759   8.387   4.732  1.1329  1.0592 -2.8900
  897MOL0     H21054   0.823   8.255   4.830 -0.1313 -0.6543 -0.5939
  897MOL0     H21055   0.767   8.507   4.571  0.1661  0.9404 -0.5284
  897MOL0     H21056   0.741   8.691   4.449 -2.3709 -1.1370 -2.2554
  897MOL0     H21057   0.903   8.722   4.381  0.9093 -2.7014  1.0297
  897MOL0     H21058   0.772   8.690   4.271 -2.6586  1.8405  0.6961
  897MOL0     H21059   0.910   8.888   4.042 -0.6205 -1.6211  1.2455
  897MOL0     H21060   0.990   8.999   3.850 -0.4707 -0.4103  2.7558
  897MOL0     H21061   1.087   9.083   3.684  0.2240 -0.6787 -1.8332
  897MOL0     H21062   1.219   9.065   3.802 -1.7247 -2.8133  1.2805
  897MOL0     H21063   1.236   9.224   3.614 -0.8723 -0.2647 -0.1352
  897MOL0     H21064   1.381   9.112   3.631 -0.5572  0.9440  1.1513
  897MOL0     H21065   1.168   9.039   3.435  0.2723 -1.9539 -2.0379
  897MOL0     H21066   1.337   8.981   3.467  0.9109  1.7629  2.6795
  897MOL0     H21067   1.431   9.209   3.379  1.1387  0.2339 -2.7056
  897MOL0     H21068   1.344   9.115   3.270  1.8406 -2.1363  2.2214
  897MOL0     H21069   1.227   9.344   3.428 -0.8931  0.1989 -0.4602
  897MOL0     H21070   1.127   9.222   3.333  1.8474 -4.1092  6.3985
  897MOL0     H21071   1.245   9.290   3.130 -0.8966 -0.4188  0.3808
  897MOL0     H21072   1.164   9.436   3.200  1.4984  1.9981 -4.4459
  897MOL0     H21073   1.455   9.358   3.212  0.0699  1.4372 -0.6223
  897MOL0     H21074   1.391   9.511   3.289  0.4111  0.1677  0.7483
  897MOL0     H21075   1.418   9.435   3.004  1.0745 -1.5880  2.5453
  897MOL0     H21076   1.516   9.564   3.072  1.2221  0.2481 -1.8099
  897MOL0     H21077   1.221   8.645   3.738 -2.9369 -2.4162 -1.8890
  897MOL0     H21078   1.125   8.528   3.938 -0.6697 -0.1402  0.3801
  897MOL0     H21079   1.019   8.278   4.222 -0.0336  0.2982  0.1237
  897MOL0     H21080   0.971   8.153   4.435 -0.7749 -0.8622 -2.2826
  897MOL0     H21081   2.415   8.016   5.015  2.9240 -0.8007 -2.9343
  897MOL0     H21082   2.640   8.005   4.970  0.4127 -1.3552 -1.3597
  897MOL0     H21083   3.159   8.032   5.113 -0.6263 -1.5973  3.0156
  897MOL0     H21084   3.377   7.959   5.040  1.6794 -0.8874 -0.7290
  897MOL0     H21085   3.538   7.820   4.741 -0.2317  1.6191 -0.3320
  897MOL0     H21086   3.506   7.930   4.879 -2.2252 -0.2521  3.3010
  897MOL0     H21087   3.690   7.698   4.872 -0.2552 -0.4926  1.7838
  897MOL0     H21088   3.647   7.765   5.028 -2.4745 -0.5203 -0.2726
  897MOL0     H21089   3.737   7.992   4.947  0.9476  0.6010 -1.3279
  897MOL0     H21090   3.783   7.936   4.791 -0.5323 -2.6537 -0.6476
  897MOL0     H21091   3.928   7.822   5.040 -0.0374 -3.2062 -1.2185
  897MOL0     H21092   3.987   7.960   4.951 -0.5430  0.3878  0.9842
  897MOL0     H21093   4.093   7.666   4.679  1.7872  0.8593  0.6553
  897MOL0     H21094   3.198   7.625   4.836  0.8698  0.9000 -0.0303
  897MOL0     H21095   2.969   7.694   4.947 -1.2126  0.4872  2.5039
  898MOL0     O21096   1.682   9.769   8.334  0.1957  0.1261  0.0192
  898MOL0     C21097   1.725   9.652   8.320 -0.0564  0.4140  0.0148
  898MOL0     O21098   1.744   9.554   8.417  0.4871 -0.6887 -0.0089
  898MOL0     C21099   1.695   9.572   8.539  0.6793  0.7612  0.3541
  898MOL0     C21100   1.564   9.537   8.568  0.7879 -0.7314  0.0866
  898MOL0     C21101   1.517   9.577   8.695  0.9026  0.3196  0.7269
  898MOL0     C21102   1.604   9.622   8.797  0.3261  0.0074  0.3071
  898MOL0     O21103   1.557   9.665   8.916 -0.6887  0.2566 -0.4601
  898MOL0     C21104   1.597   9.609   9.041 -0.2775  0.6555  0.3506
  898MOL0     C21105   1.544   9.679   9.156  0.7592 -0.3208  0.4700
  898MOL0     C21106   1.402   9.715   9.145  0.2399 -0.0782 -0.2822
  898MOL0     C21107   1.293   9.601   9.125  0.0028 -0.1372 -0.9204
  898MOL0     C21108   1.149   9.661   9.107 -0.0335  0.0604 -0.3863
  898MOL0     C21109   1.050   9.549   9.088  0.8426 -0.6556  0.1368
  898MOL0     C21110   0.914   9.609   9.049  0.6346 -0.2131  0.1461
  898MOL0     C21111   0.797   9.601   9.152 -0.0830 -0.0478  1.3761
  898MOL0     N21112   0.676   9.667   9.116  0.4023  0.3380  0.0570
  898MOL0     C21113   0.620   9.771   9.191  0.1171  0.0093  0.4245
  898MOL0     C21114   0.506   9.794   9.121 -0.1075  0.8542 -0.7313
  898MOL0     C21115   0.405   9.900   9.149 -0.0631  1.0273 -0.0796
  898MOL0     C21116   0.270   9.838   9.177 -0.4324 -0.2448 -0.0362
  898MOL0     C21117   0.278   9.734   9.295 -0.0754 -0.3327 -0.7166
  898MOL0     C21118   0.138   9.672   9.329  0.1013 -0.0281  0.0288
  898MOL0     O21119   0.146   9.602   9.455  1.1164 -0.2144  0.4893
  898MOL0     C21120   0.022   9.579   9.509 -0.6256 -0.0822  0.6664
  898MOL0     C21121   0.017   9.568   9.645 -0.3892  0.0777 -1.0891
  898MOL0     C21122  -0.104   9.531   9.712 -0.6247  1.3006  0.0296
  898MOL0     C21123  -0.090   9.509   9.855 -0.2815 -0.1416 -0.5335
  898MOL0     C21124  -0.228   9.510   9.632 -0.2485 -1.2063  0.5311
  898MOL0     C21125  -0.357   9.487   9.699  0.7336  0.5569  0.5473
  898MOL0     O21126  -0.470   9.477   9.621  0.0751  0.3398 -0.8324
  898MOL0     C21127  -0.599   9.504   9.668 -0.5797  0.7854 -0.4143
  898MOL0     C21128  -0.674   9.408   9.732 -0.3428  0.4254 -0.1932
  898MOL0     C21129  -0.807   9.428   9.767  0.3673  1.0175 -0.6521
  898MOL0     C21130  -0.876   9.537   9.728 -0.5011  0.1698  0.0665
  898MOL0     O21131  -0.995   9.581   9.774  0.5942 -0.1374 -0.2856
  898MOL0     C21132  -1.077   9.473   9.820  0.4010  0.0777  0.0947
  898MOL0     C21133  -1.220   9.516   9.834 -0.8089  0.6356 -0.8301
  898MOL0     C21134  -1.319   9.404   9.877  0.8960  0.3837  0.4969
  898MOL0     C21135  -1.458   9.446   9.838 -0.4132 -0.5689 -0.3132
  898MOL0     C21136  -1.576   9.351   9.873  0.4533 -0.2788 -0.4121
  898MOL0     C21137  -1.709   9.393   9.816 -0.3052  0.5705 -0.4108
  898MOL0     C21138  -1.828   9.292   9.838 -0.1710  0.2754 -0.3137
  898MOL0     C21139  -1.966   9.353   9.819  0.7741 -0.4863 -0.8742
  898MOL0    Cl21140  -2.098   9.230   9.808 -0.1693  0.5799 -0.5077
  898MOL0     C21141  -0.800   9.642   9.664  0.1681 -0.1403  0.1034
  898MOL0     C21142  -0.665   9.631   9.656 -0.3059  0.5407  0.3062
  898MOL0     O21143  -0.367   9.501   9.823 -0.1082  0.3176  0.1861
  898MOL0     C21144  -0.224   9.526   9.487 -0.2357  0.0020 -0.7677
  898MOL0     C21145  -0.099   9.568   9.430  0.5951  1.0342 -0.3068
  898MOL0     N21146   0.497   9.702   9.017 -0.3397  0.9566 -0.4319
  898MOL0     N21147   0.595   9.627   9.017 -0.8070 -0.0482 -0.6314
  898MOL0     C21148   1.737   9.641   8.771  0.3043  0.1171  0.0423
  898MOL0     C21149   1.786   9.620   8.636 -0.3340 -0.0389 -0.5889
  898MOL0     C21150   1.753   9.620   8.180  0.8447 -0.6551 -0.1590
  898MOL0     C21151   1.768   9.723   8.088  0.4460  0.4197 -0.8918
  898MOL0     C21152   1.792   9.703   7.960 -0.9132 -0.3908  0.6141
  898MOL0     C21153   1.796   9.571   7.897  0.0420 -0.1102 -0.1343
  898MOL0     O21154   1.823   9.559   7.759  0.8506 -0.0390  0.6225
  898MOL0     C21155   1.828   9.430   7.693 -1.5420 -0.2919  0.1387
  898MOL0     C21156   1.843   9.441   7.540 -0.7120 -0.2368  0.0913
  898MOL0     C21157   1.954   9.506   7.460  0.2310  0.4969 -0.6348
  898MOL0     C21158   1.914   9.503   7.310 -0.2493 -1.1047 -0.5415
  898MOL0     C21159   2.034   9.498   7.232  0.5298 -0.6507 -0.2253
  898MOL0     C21160   2.140   9.493   7.170  0.0873 -0.1241 -0.9044
  898MOL0     C21161   1.775   9.462   7.991 -0.1490 -0.8171 -0.2326
  898MOL0     C21162   1.758   9.490   8.128  0.2043 -0.3799 -0.3718
  898MOL0     H21163   1.500   9.508   8.486 -0.0308  1.0806  0.0392
  898MOL0     H21164   1.411   9.587   8.716  0.5667 -0.8181 -0.3218
  898MOL0     H21165   1.556   9.507   9.043 -1.3416  1.0750  0.7339
  898MOL0     H21166   1.706   9.603   9.044 -0.2730 -0.0202 -0.8263
  898MOL0     H21167   1.560   9.631   9.253 -0.9728 -5.7262 -1.5390
  898MOL0     H21168   1.588   9.779   9.154 -1.9204  1.0019  2.4378
  898MOL0     H21169   1.365   9.769   9.232  2.4032  1.2151 -0.0882
  898MOL0     H21170   1.388   9.788   9.065 -2.4701 -0.8011 -0.5674
  898MOL0     H21171   1.322   9.534   9.043  1.7487 -0.3591 -0.1488
  898MOL0     H21172   1.301   9.533   9.210 -2.6885  0.3860 -0.1305
  898MOL0     H21173   1.126   9.715   9.199 -2.6259 -0.2273 -0.7772
  898MOL0     H21174   1.144   9.732   9.023  2.5017  1.4013  0.4868
  898MOL0     H21175   1.088   9.486   9.007  0.3265 -4.0890  2.3516
  898MOL0     H21176   1.043   9.478   9.171 -1.4970 -0.0263  0.5663
  898MOL0     H21177   0.922   9.715   9.020  2.0472 -0.6667 -1.2728
  898MOL0     H21178   0.879   9.550   8.964 -1.3055  0.6534  0.2846
  898MOL0     H21179   0.844   9.642   9.242  2.9848 -0.1244 -0.0984
  898MOL0     H21180   0.784   9.495   9.173  1.4833 -1.1176 -2.3472
  898MOL0     H21181   0.652   9.819   9.283 -1.8198  2.0766  0.1138
  898MOL0     H21182   0.441   9.960   9.232 -0.6294  1.2695 -0.0065
  898MOL0     H21183   0.400   9.964   9.060 -1.7564  0.2350 -0.6018
  898MOL0     H21184   0.230   9.795   9.084 -0.6258  0.8137 -0.4575
  898MOL0     H21185   0.210   9.926   9.202  1.5950  1.7694 -1.8751
  898MOL0     H21186   0.316   9.786   9.383 -2.6068  2.3891 -1.0896
  898MOL0     H21187   0.349   9.656   9.263  0.2343  0.3709 -1.7908
  898MOL0     H21188   0.103   9.599   9.256  1.4719  1.6766 -2.4561
  898MOL0     H21189   0.072   9.759   9.322  3.1445  2.4193 -0.4640
  898MOL0     H21190   0.113   9.561   9.694 -0.1303 -3.7551 -1.8403
  898MOL0     H21191   0.011   9.476   9.881  0.1151  1.1643 -0.3462
  898MOL0     H21192  -0.121   9.597   9.912  0.7252  0.8410 -1.4524
  898MOL0     H21193  -0.151   9.423   9.884  0.8891 -1.2570 -1.2579
  898MOL0     H21194  -0.629   9.310   9.749 -0.2651  0.6185  0.7433
  898MOL0     H21195  -0.869   9.345   9.799 -1.6758  2.0247 -1.7777
  898MOL0     H21196  -1.074   9.390   9.749  1.1186  0.8442 -0.7973
  898MOL0     H21197  -1.063   9.446   9.925  0.0287 -1.0720 -0.1399
  898MOL0     H21198  -1.227   9.595   9.908  0.2091 -2.0014  2.3089
  898MOL0     H21199  -1.242   9.555   9.734 -1.4608 -0.5754 -1.1884
  898MOL0     H21200  -1.297   9.389   9.983  1.2446  3.7582  1.0329
  898MOL0     H21201  -1.294   9.320   9.812  1.5526 -0.3738  1.7127
  898MOL0     H21202  -1.486   9.546   9.873 -0.0881 -0.5630 -0.0729
  898MOL0     H21203  -1.470   9.453   9.730 -4.4690  0.4676  0.0291
  898MOL0     H21204  -1.592   9.341   9.981 -1.0509  1.2801 -0.4546
  898MOL0     H21205  -1.548   9.254   9.831  0.4214 -0.5325  0.1483
  898MOL0     H21206  -1.749   9.480   9.868 -0.0253 -1.1727  2.9725
  898MOL0     H21207  -1.687   9.421   9.712  1.3362  1.1271  0.0635
  898MOL0     H21208  -1.820   9.249   9.939  0.0962  0.5156 -0.2301
  898MOL0     H21209  -1.821   9.206   9.770 -1.5503  1.2685 -1.7826
  898MOL0     H21210  -1.965   9.420   9.732  0.0848 -0.1510 -0.6312
  898MOL0     H21211  -1.981   9.412   9.910 -1.5550 -0.0815 -1.4525
  898MOL0     H21212  -0.839   9.738   9.631 -2.6243 -1.5599 -1.1205
  898MOL0     H21213  -0.603   9.706   9.608  1.7195 -1.4483 -0.3868
  898MOL0     H21214  -0.312   9.513   9.425  0.3472 -1.1012 -1.3939
  898MOL0     H21215  -0.100   9.578   9.322 -0.4018 -3.1406 -0.8485
  898MOL0     H21216   1.810   9.656   8.849  0.0619  0.3093  0.2335
  898MOL0     H21217   1.888   9.640   8.603 -1.1153  1.1691 -2.4038
  898MOL0     H21218   1.749   9.823   8.125  0.3840 -0.2726  1.0626
  898MOL0     H21219   1.808   9.793   7.901  3.3873  0.4616  2.6311
  898MOL0     H21220   1.920   9.382   7.727  1.6933  3.9663 -1.6623
  898MOL0     H21221   1.742   9.368   7.719 -1.3028 -1.3610 -1.5321
  898MOL0     H21222   1.750   9.487   7.508  0.5996  1.9172 -0.8775
  898MOL0     H21223   1.843   9.334   7.513  0.9888 -1.0871  3.0335
  898MOL0     H21224   2.052   9.462   7.481  0.1169  0.1576 -0.8019
  898MOL0     H21225   1.961   9.604   7.508 -1.0298  0.6859 -0.7923
  898MOL0     H21226   1.847   9.585   7.285  0.2685 -1.1288 -2.0833
  898MOL0     H21227   1.856   9.410   7.296 -1.2528 -0.5105 -0.4324
  898MOL0     H21228   2.225   9.470   7.109 -1.4949 -0.3151 -3.1489
  898MOL0     H21229   1.782   9.357   7.965  1.2197 -1.4579  2.3409
  898MOL0     H21230   1.741   9.413   8.202 -0.8534  0.6336  0.4694
  899MOL0     O21231  10.029   3.454   4.229  0.6538  0.4675  0.3684
  899MOL0     C21232  10.111   3.382   4.175  0.3009  0.0443  0.7396
  899MOL0     O21233  10.080   3.271   4.102 -0.5480  0.0466 -0.0695
  899MOL0     C21234   9.952   3.228   4.081  0.3598  0.1714 -0.5145
  899MOL0     C21235   9.884   3.164   4.185 -0.2521 -0.1868  1.0036
  899MOL0     C21236   9.749   3.138   4.188  0.8796  0.0411 -0.0646
  899MOL0     C21237   9.670   3.173   4.075  0.2934 -0.1983 -1.0388
  899MOL0     O21238   9.539   3.147   4.089  0.5400  0.3821 -0.1958
  899MOL0     C21239   9.453   3.228   4.011 -0.0556 -0.0385  0.3260
  899MOL0     C21240   9.308   3.215   4.054 -0.5034 -0.7642 -0.2440
  899MOL0     C21241   9.234   3.323   3.962 -0.3447  0.0057 -0.3642
  899MOL0     C21242   9.081   3.340   4.002 -0.7525  0.0636  0.4189
  899MOL0     C21243   8.997   3.419   3.892  0.3340  0.1976 -0.4737
  899MOL0     C21244   8.850   3.447   3.923 -0.2675 -0.5797  1.0305
  899MOL0     C21245   8.767   3.466   3.791 -0.5533 -0.2059  1.0840
  899MOL0     C21246   8.722   3.610   3.757  0.2556  0.4101  0.2527
  899MOL0     N21247   8.674   3.691   3.874 -0.1887  0.2455  0.1836
  899MOL0     C21248   8.725   3.807   3.924 -0.4819 -1.2216 -0.4326
  899MOL0     C21249   8.633   3.852   4.011 -0.2197  0.5355  0.2931
  899MOL0     C21250   8.640   3.970   4.090 -0.6824 -0.0816  1.3866
  899MOL0     C21251   8.533   3.983   4.205 -0.4984  0.2439  0.3488
  899MOL0     C21252   8.548   3.886   4.322 -0.4509 -0.0655  0.5995
  899MOL0     C21253   8.452   3.910   4.430 -0.8513 -0.5003  0.2224
  899MOL0     O21254   8.487   3.808   4.526  0.9158  0.3729 -0.3769
  899MOL0     C21255   8.391   3.711   4.557 -0.3528 -0.3505  0.1665
  899MOL0     C21256   8.401   3.639   4.678  0.1780  0.0805 -0.0451
  899MOL0     C21257   8.320   3.529   4.706  0.7090  0.3678 -0.1350
  899MOL0     C21258   8.357   3.451   4.826 -0.5878  0.3640 -0.4767
  899MOL0     C21259   8.209   3.503   4.630 -0.0752  1.2529 -0.9905
  899MOL0     C21260   8.094   3.410   4.664 -0.1733  0.5872  0.0418
  899MOL0     O21261   7.963   3.450   4.625 -0.2329  0.3171  0.3396
  899MOL0     C21262   7.862   3.383   4.692  0.3023  0.1693  0.7358
  899MOL0     C21263   7.791   3.456   4.789 -0.2023 -1.4002 -0.1562
  899MOL0     C21264   7.689   3.402   4.865 -0.0133  0.4827  0.8417
  899MOL0     C21265   7.650   3.264   4.837  1.4533 -0.2225 -1.1295
  899MOL0     O21266   7.552   3.194   4.908 -0.2100 -0.6994  0.2915
  899MOL0     C21267   7.479   3.254   5.013  0.2678 -0.1870 -0.8501
  899MOL0     C21268   7.369   3.346   4.969  0.2711  0.0657  0.5961
  899MOL0     C21269   7.302   3.407   5.091  0.2073  0.4727  0.2500
  899MOL0     C21270   7.170   3.327   5.123 -0.0895 -0.4569  0.0121
  899MOL0     C21271   7.091   3.388   5.250  0.5413 -0.0428  0.2151
  899MOL0     C21272   6.987   3.295   5.306  0.6916 -0.4629  0.3712
  899MOL0     C21273   6.901   3.362   5.409 -0.2781 -0.0539 -0.1557
  899MOL0     C21274   6.769   3.293   5.438  1.1611 -0.1123  0.2674
  899MOL0    Cl21275   6.790   3.157   5.550  0.4348  0.1761 -0.0429
  899MOL0     C21276   7.723   3.184   4.748  0.0929 -0.8553 -0.1745
  899MOL0     C21277   7.838   3.245   4.683 -0.0769 -0.4582  0.9515
  899MOL0     O21278   8.126   3.306   4.727 -0.1440 -0.2309 -0.1831
  899MOL0     C21279   8.192   3.580   4.520 -0.1893  0.4214  0.3698
  899MOL0     C21280   8.276   3.691   4.489 -0.0832 -0.1701 -0.3570
  899MOL0     N21281   8.532   3.755   4.016  0.2249  0.1239  0.5138
  899MOL0     N21282   8.560   3.657   3.935  0.4380  0.4393 -0.4919
  899MOL0     C21283   9.731   3.237   3.961 -0.1993 -0.3951 -0.7988
  899MOL0     C21284   9.871   3.254   3.969  0.0124 -1.1357  0.0466
  899MOL0     C21285  10.253   3.410   4.195 -0.3188 -0.1283 -0.0092
  899MOL0     C21286  10.347   3.323   4.135  0.1254 -0.0029 -0.3082
  899MOL0     C21287  10.480   3.347   4.159 -0.3885  0.2932  0.0035
  899MOL0     C21288  10.527   3.457   4.242  0.3508 -0.7118  1.1417
  899MOL0     O21289  10.661   3.475   4.279  0.4276 -0.4384 -0.1197
  899MOL0     C21290  10.762   3.379   4.246  0.0241  0.2160 -0.2454
  899MOL0     C21291  10.811   3.415   4.109 -0.0451 -0.1158  0.9415
  899MOL0     C21292  10.875   3.557   4.104  0.0629 -0.3323 -0.2531
  899MOL0     C21293  10.883   3.606   3.958  0.9201 -0.2778 -0.0599
  899MOL0     C21294  10.756   3.643   3.894 -0.0210 -0.7703  0.2452
  899MOL0     C21295  10.660   3.692   3.836  0.1861 -0.2264  0.2800
  899MOL0     C21296  10.430   3.545   4.289  0.1135 -0.0607 -0.5909
  899MOL0     C21297  10.293   3.522   4.261 -0.0226  0.3555 -0.6944
  899MOL0     H21298   9.950   3.126   4.261  2.8399  0.9626 -0.9199
  899MOL0     H21299   9.697   3.089   4.270 -0.8064 -0.0977 -1.1924
  899MOL0     H21300   9.477   3.334   4.012  2.8486 -0.6264  0.7478
  899MOL0     H21301   9.449   3.180   3.913 -2.2422  0.1923  0.2468
  899MOL0     H21302   9.276   3.111   4.048 -2.1091 -0.3103 -0.1633
  899MOL0     H21303   9.306   3.243   4.160  1.4690 -0.3101 -0.2800
  899MOL0     H21304   9.284   3.419   3.977 -1.4928  0.4124  1.0273
  899MOL0     H21305   9.234   3.290   3.857  1.7946  1.5452 -0.9097
  899MOL0     H21306   9.038   3.240   4.006 -0.3093 -0.1042  2.1520
  899MOL0     H21307   9.079   3.385   4.102 -0.9233 -1.2790  1.0357
  899MOL0     H21308   9.050   3.514   3.881 -1.6208  1.3869 -0.0462
  899MOL0     H21309   9.000   3.369   3.795 -1.1660 -1.1365  0.1101
  899MOL0     H21310   8.807   3.367   3.983 -0.8047 -2.2634 -1.4736
  899MOL0     H21311   8.856   3.541   3.980 -0.1898  0.7014 -0.9840
  899MOL0     H21312   8.832   3.438   3.708  1.1083  2.0448  1.5098
  899MOL0     H21313   8.683   3.398   3.809 -0.5789 -0.2849  0.6665
  899MOL0     H21314   8.637   3.596   3.690  1.0017  1.7292 -1.0483
  899MOL0     H21315   8.804   3.658   3.702  0.1745  0.9977  0.6371
  899MOL0     H21316   8.823   3.850   3.902 -0.4259  1.5083  3.9335
  899MOL0     H21317   8.745   3.963   4.118  0.8226  1.9392 -2.8546
  899MOL0     H21318   8.632   4.057   4.024 -0.2665 -0.1239  1.2803
  899MOL0     H21319   8.436   3.973   4.156 -0.2398  1.8667 -0.5659
  899MOL0     H21320   8.537   4.079   4.257  2.0426 -0.3305  1.3524
  899MOL0     H21321   8.648   3.901   4.366  0.0338  1.1336 -0.8414
  899MOL0     H21322   8.558   3.781   4.295  0.4092 -1.1088  4.3686
  899MOL0     H21323   8.348   3.913   4.397 -0.6515  1.8388 -0.3546
  899MOL0     H21324   8.467   4.011   4.469 -1.6902 -0.9629  1.8480
  899MOL0     H21325   8.484   3.657   4.746 -0.0605 -2.6880  1.1311
  899MOL0     H21326   8.268   3.451   4.889 -1.4634 -4.0389 -1.3682
  899MOL0     H21327   8.381   3.347   4.803  0.9157 -0.1451  2.8156
  899MOL0     H21328   8.444   3.492   4.878 -1.8529  1.3663  0.9303
  899MOL0     H21329   7.839   3.551   4.810  0.8814 -1.7689 -0.8478
  899MOL0     H21330   7.640   3.474   4.930 -0.0384  1.7912 -0.5533
  899MOL0     H21331   7.430   3.172   5.067 -0.9716  1.4204  0.5991
  899MOL0     H21332   7.550   3.305   5.078  1.7560 -2.4630 -0.5665
  899MOL0     H21333   7.407   3.427   4.907  1.1967  0.9770  2.2793
  899MOL0     H21334   7.294   3.294   4.908 -1.8650  4.7121 -1.1863
  899MOL0     H21335   7.279   3.511   5.066  1.6258  0.6601 -0.4215
  899MOL0     H21336   7.375   3.410   5.172  0.4221  4.4042  0.0839
  899MOL0     H21337   7.099   3.312   5.041  0.8834 -1.8373 -0.6159
  899MOL0     H21338   7.195   3.224   5.151  0.1971  0.1180  1.9391
  899MOL0     H21339   7.044   3.485   5.232 -0.6217 -0.3989  1.2120
  899MOL0     H21340   7.173   3.397   5.322 -1.2890 -4.4691  3.2528
  899MOL0     H21341   6.924   3.259   5.224  3.1121 -1.5390 -1.1400
  899MOL0     H21342   7.035   3.205   5.346  0.6667  0.0412  1.5652
  899MOL0     H21343   6.872   3.461   5.372  0.0356  0.4842  0.9855
  899MOL0     H21344   6.954   3.381   5.503  1.9490 -1.2666 -1.1145
  899MOL0     H21345   6.728   3.265   5.340 -1.1672 -0.5634  1.3081
  899MOL0     H21346   6.700   3.368   5.477  0.9077 -0.1721 -0.0587
  899MOL0     H21347   7.708   3.079   4.726 -1.1481 -0.3937 -1.8447
  899MOL0     H21348   7.897   3.191   4.610 -0.2300  2.1019 -1.2411
  899MOL0     H21349   8.109   3.575   4.450  1.6567 -2.5403 -1.8819
  899MOL0     H21350   8.240   3.752   4.407 -0.0304 -0.0469 -0.2895
  899MOL0     H21351   9.678   3.279   3.877 -0.6762  3.0986  1.0777
  899MOL0     H21352   9.910   3.290   3.875  1.0189 -2.2035  0.0242
  899MOL0     H21353  10.318   3.234   4.079  2.1634 -0.2948 -0.9888
  899MOL0     H21354  10.550   3.273   4.122  1.1382  2.2978 -1.3662
  899MOL0     H21355  10.837   3.384   4.326  0.3399  1.5165 -0.6107
  899MOL0     H21356  10.734   3.273   4.250 -1.7124  0.5440 -1.9131
  899MOL0     H21357  10.726   3.413   4.040 -1.3941  0.3235  2.5238
  899MOL0     H21358  10.879   3.339   4.070 -2.0413 -0.5371 -2.0915
  899MOL0     H21359  10.977   3.551   4.143 -0.0127  1.5190  0.3395
  899MOL0     H21360  10.820   3.629   4.167 -1.1778 -0.8521 -0.7139
  899MOL0     H21361  10.920   3.533   3.886 -0.9945  3.1051 -5.0715
  899MOL0     H21362  10.939   3.700   3.955 -1.0686  0.9893  0.4595
  899MOL0     H21363  10.573   3.729   3.785  0.6990 -0.9022 -1.1371
  899MOL0     H21364  10.468   3.626   4.350 -0.9943  0.0800 -0.0588
  899MOL0     H21365  10.219   3.592   4.300  1.5486  1.4421  0.4822
  900MOL0     O21366   8.022   7.274  11.270 -0.3930  0.3537  0.4671
  900MOL0     C21367   8.013   7.344  11.369 -0.1308 -0.2537  0.4044
  900MOL0     O21368   7.907   7.427  11.399 -0.3280  0.2042 -0.7577
  900MOL0     C21369   7.789   7.440  11.321 -0.2360  0.4787 -0.6849
  900MOL0     C21370   7.748   7.571  11.305  0.1155 -0.5452  0.8263
  900MOL0     C21371   7.626   7.594  11.220 -1.0693 -0.6578  0.3875
  900MOL0     C21372   7.559   7.482  11.167 -0.8453 -0.1212 -0.3877
  900MOL0     O21373   7.442   7.493  11.092 -0.3818 -0.0124 -0.4851
  900MOL0     C21374   7.386   7.616  11.074 -0.4692 -0.3458  0.3807
  900MOL0     C21375   7.256   7.598  10.998 -0.3072 -0.2656 -1.0114
  900MOL0     C21376   7.177   7.730  10.975 -0.1643 -0.4863 -0.0725
  900MOL0     C21377   7.112   7.744  10.845 -0.0908 -0.4678 -0.3052
  900MOL0     C21378   7.019   7.867  10.852 -0.2723 -0.6524  0.9048
  900MOL0     C21379   6.960   7.882  10.713 -0.0010 -0.1203 -0.5743
  900MOL0     C21380   6.837   7.981  10.725 -0.2938 -0.6993  0.6358
  900MOL0     C21381   6.760   7.991  10.585  0.8009 -0.0668 -0.0362
  900MOL0     N21382   6.825   8.062  10.478 -0.0142 -0.0317  0.4316
  900MOL0     C21383   6.867   8.196  10.463  0.0365 -0.2562 -0.3448
  900MOL0     C21384   6.925   8.199  10.343 -0.8425 -0.3021  0.4596
  900MOL0     C21385   6.965   8.323  10.268 -0.5631  0.0714  0.3091
  900MOL0     C21386   7.114   8.361  10.277  0.4142  0.3312  0.2456
  900MOL0     C21387   7.167   8.369  10.421  0.4126 -0.7994 -0.9125
  900MOL0     C21388   7.316   8.408  10.414 -0.0359  0.3576 -0.5603
  900MOL0     O21389   7.371   8.399  10.546  0.1014  0.2955 -0.2077
  900MOL0     C21390   7.502   8.420  10.555 -1.3389  0.0881  0.2439
  900MOL0     C21391   7.590   8.310  10.562  0.2108 -0.3674  1.1219
  900MOL0     C21392   7.728   8.339  10.567 -0.4989  0.6420 -0.9982
  900MOL0     C21393   7.813   8.222  10.549  0.6192 -0.4597  0.3048
  900MOL0     C21394   7.778   8.481  10.574  0.0158 -0.3364  0.2837
  900MOL0     C21395   7.923   8.522  10.589  0.4055  0.2003 -0.0258
  900MOL0     O21396   8.014   8.425  10.583 -0.1576  0.3087 -0.4204
  900MOL0     C21397   8.148   8.440  10.586 -0.4218  0.1593 -0.3415
  900MOL0     C21398   8.224   8.342  10.644 -0.7519 -0.0739 -0.3868
  900MOL0     C21399   8.366   8.343  10.633 -0.4506  0.4448  0.3246
  900MOL0     C21400   8.430   8.421  10.535 -0.5636  0.4007  0.5120
  900MOL0     O21401   8.564   8.424  10.506 -0.2118  0.6094  1.1059
  900MOL0     C21402   8.640   8.492  10.601 -0.1036  0.2045 -0.0244
  900MOL0     C21403   8.788   8.496  10.542  0.0705 -0.8590 -0.6216
  900MOL0     C21404   8.876   8.586  10.624  0.2713  0.3159 -0.3818
  900MOL0     C21405   8.848   8.732  10.608  0.4035  0.5522 -0.3771
  900MOL0     C21406   8.959   8.817  10.665 -0.6681 -0.0525  0.4990
  900MOL0     C21407   8.951   8.955  10.595 -0.2308  0.3218  0.2696
  900MOL0     C21408   9.046   9.061  10.640 -0.3226 -0.8409 -0.0785
  900MOL0     C21409   9.035   9.074  10.794 -0.1064 -0.3743 -0.9207
  900MOL0    Cl21410   8.871   9.107  10.861  0.0341 -0.2829  0.8514
  900MOL0     C21411   8.349   8.513  10.476 -0.4427  0.7957  0.3231
  900MOL0     C21412   8.218   8.526  10.503 -0.1650 -0.6408 -0.6391
  900MOL0     O21413   7.950   8.636  10.582 -0.5390 -0.3418 -0.2033
  900MOL0     C21414   7.686   8.577  10.570  0.0110 -0.8870  0.8456
  900MOL0     C21415   7.550   8.554  10.566  0.2010  0.2557 -0.3665
  900MOL0     N21416   6.932   8.071  10.289  0.1975 -0.3749 -0.3382
  900MOL0     N21417   6.876   7.989  10.377  0.1824  0.4976  0.6198
  900MOL0     C21418   7.619   7.352  11.171 -0.3448  1.3796  0.2274
  900MOL0     C21419   7.732   7.335  11.252 -0.6270  0.1399  0.0485
  900MOL0     C21420   8.122   7.338  11.457 -0.3244  0.1411 -0.8961
  900MOL0     C21421   8.185   7.220  11.496 -0.1323  0.4477  0.7293
  900MOL0     C21422   8.295   7.221  11.590 -0.3081  0.0702 -0.0030
  900MOL0     C21423   8.344   7.336  11.651  0.6322 -1.2044 -0.5750
  900MOL0     O21424   8.459   7.343  11.724 -0.2496  0.0566 -0.2979
  900MOL0     C21425   8.529   7.466  11.742  0.1782  0.5735  0.5620
  900MOL0     C21426   8.668   7.448  11.819 -0.0664 -0.2203 -0.0167
  900MOL0     C21427   8.755   7.576  11.833 -0.3463  0.7328  0.4340
  900MOL0     C21428   8.737   7.656  11.962 -0.1773 -0.3090  0.5468
  900MOL0     C21429   8.849   7.749  11.972  0.1391 -0.8744  0.4820
  900MOL0     C21430   8.939   7.831  11.967 -0.7983 -0.0060 -0.3249
  900MOL0     C21431   8.257   7.451  11.635  0.1898 -0.6417 -0.2381
  900MOL0     C21432   8.152   7.449  11.532 -0.0721  0.4883  0.1340
  900MOL0     H21433   7.798   7.649  11.361  0.0984 -1.9840  2.9648
  900MOL0     H21434   7.596   7.696  11.200  1.7613  0.1340 -0.3878
  900MOL0     H21435   7.360   7.668  11.167 -2.4238  3.2188 -1.9179
  900MOL0     H21436   7.465   7.675  11.026  0.8250  0.6886  3.5099
  900MOL0     H21437   7.275   7.563  10.896  0.9006  0.6595 -1.1252
  900MOL0     H21438   7.202   7.527  11.061  0.1341  0.6503  0.4518
  900MOL0     H21439   7.102   7.731  11.054  2.2955  0.6690  2.4636
  900MOL0     H21440   7.252   7.807  10.999 -0.3303 -0.6105  0.8922
  900MOL0     H21441   7.182   7.747  10.761 -1.6760  0.7595 -1.6618
  900MOL0     H21442   7.055   7.652  10.832  1.8295 -2.0972  2.0084
  900MOL0     H21443   6.949   7.842  10.932  1.7392 -2.2069  2.2724
  900MOL0     H21444   7.070   7.959  10.879  1.4580 -0.6694 -1.9201
  900MOL0     H21445   7.042   7.916  10.649 -0.7153  1.2515 -0.8226
  900MOL0     H21446   6.918   7.784  10.690 -1.1987 -0.2027  1.6570
  900MOL0     H21447   6.758   7.947  10.792 -2.2852 -1.1597 -1.7558
  900MOL0     H21448   6.853   8.082  10.763 -1.8350  0.2870 -1.1049
  900MOL0     H21449   6.663   8.038  10.602  0.6013  0.5489 -2.4913
  900MOL0     H21450   6.735   7.893  10.542 -1.4014  0.5667 -0.2842
  900MOL0     H21451   6.838   8.273  10.535 -3.2616 -0.7199 -1.0201
  900MOL0     H21452   6.939   8.313  10.162  0.3945 -2.1539  0.2386
  900MOL0     H21453   6.908   8.415  10.288  0.1249  1.4208 -3.1685
  900MOL0     H21454   7.124   8.454  10.221 -2.2924  0.7523  0.3238
  900MOL0     H21455   7.175   8.286  10.224 -0.5373  0.7237 -1.4843
  900MOL0     H21456   7.157   8.269  10.465  5.0299 -1.8418 -1.6727
  900MOL0     H21457   7.110   8.441  10.481  1.6301  0.2582 -0.9842
  900MOL0     H21458   7.342   8.500  10.360  0.6633 -0.3162 -1.3930
  900MOL0     H21459   7.366   8.327  10.360  0.5857  1.0560 -1.0552
  900MOL0     H21460   7.561   8.206  10.555  1.5975 -0.6936 -0.4423
  900MOL0     H21461   7.760   8.137  10.506  1.5754 -0.3914 -1.0928
  900MOL0     H21462   7.891   8.253  10.478 -0.1507 -1.1083 -0.8631
  900MOL0     H21463   7.858   8.202  10.647 -1.1227  1.3768  1.5711
  900MOL0     H21464   8.170   8.281  10.716  1.4600 -1.2675  0.3572
  900MOL0     H21465   8.427   8.280  10.697 -0.5864  0.3966  0.4087
  900MOL0     H21466   8.596   8.591  10.617 -1.0170  0.3780 -3.0025
  900MOL0     H21467   8.645   8.432  10.692 -0.1598 -1.1755 -0.9122
  900MOL0     H21468   8.828   8.394  10.550  0.2813 -1.0582 -3.2788
  900MOL0     H21469   8.777   8.514  10.434  1.0988  0.8479 -0.4585
  900MOL0     H21470   8.976   8.565  10.586  0.7818  1.1523  0.4684
  900MOL0     H21471   8.876   8.565  10.731  1.1359  2.2266  0.0281
  900MOL0     H21472   8.824   8.752  10.503 -1.0802 -0.0842 -0.1855
  900MOL0     H21473   8.750   8.757  10.649 -0.7387 -0.7141 -2.1919
  900MOL0     H21474   9.055   8.767  10.649 -0.2608  0.9615 -0.3250
  900MOL0     H21475   8.957   8.824  10.774 -0.6441 -1.7789  0.6456
  900MOL0     H21476   8.973   8.932  10.490  2.9270 -3.0578  1.4814
  900MOL0     H21477   8.850   8.998  10.597  0.7298  2.9059 -0.9334
  900MOL0     H21478   9.026   9.160  10.598 -0.5959 -0.2605  1.3434
  900MOL0     H21479   9.145   9.029  10.605 -1.5095 -0.9541 -3.7074
  900MOL0     H21480   9.104   9.151  10.831 -2.9235  1.1477  1.6817
  900MOL0     H21481   9.059   8.979  10.842 -0.7159 -0.2651 -0.3886
  900MOL0     H21482   8.397   8.572  10.399  0.9150  0.6999  1.0600
  900MOL0     H21483   8.164   8.607  10.455  1.1718  1.6908  1.5802
  900MOL0     H21484   7.718   8.680  10.569 -1.5558 -0.3610 -0.7457
  900MOL0     H21485   7.475   8.633  10.565 -0.7929 -0.6612 -1.7215
  900MOL0     H21486   7.579   7.267  11.118  0.9789  1.2114 -0.5382
  900MOL0     H21487   7.764   7.231  11.252 -1.1508 -0.0286  0.7851
  900MOL0     H21488   8.176   7.127  11.442  2.7154  0.0170  0.7975
  900MOL0     H21489   8.355   7.134  11.611  3.4253  1.6967 -2.8262
  900MOL0     H21490   8.554   7.492  11.638  2.1381  2.3844  1.4043
  900MOL0     H21491   8.459   7.539  11.781  1.8632  2.5054  0.1386
  900MOL0     H21492   8.722   7.377  11.755 -2.5148 -1.8176 -0.4418
  900MOL0     H21493   8.655   7.409  11.920  0.7338  0.1766  0.2450
  900MOL0     H21494   8.749   7.638  11.744  3.9748  0.7951 -0.0331
  900MOL0     H21495   8.852   7.524  11.840 -1.4764 -1.3387  2.1727
  900MOL0     H21496   8.728   7.594  12.052  2.0285 -0.2412  0.8757
  900MOL0     H21497   8.639   7.704  11.967 -0.6631 -1.1608 -0.3204
  900MOL0     H21498   9.020   7.901  11.960  1.6330 -2.6821 -0.4128
  900MOL0     H21499   8.274   7.548  11.682  1.8723 -1.7879  1.7304
  900MOL0     H21500   8.092   7.539  11.524  0.0444  0.9304  3.1286
  901MOL0     O21501   3.728   6.416   4.224 -0.1013 -0.0430  0.0666
  901MOL0     C21502   3.734   6.506   4.296  0.0986 -0.1841 -0.5360
  901MOL0     O21503   3.637   6.537   4.388 -0.5891  0.0621  0.8106
  901MOL0     C21504   3.515   6.472   4.380  0.0994 -0.5459  1.1999
  901MOL0     C21505   3.502   6.326   4.408 -0.7457  0.3209 -0.2195
  901MOL0     C21506   3.376   6.262   4.394 -0.4262  0.5379  0.3283
  901MOL0     C21507   3.256   6.328   4.361 -0.3446  0.1492 -0.3903
  901MOL0     O21508   3.134   6.269   4.353 -0.0983 -0.0602 -0.5238
  901MOL0     C21509   3.135   6.149   4.272  0.0243 -0.4487  0.1991
  901MOL0     C21510   2.986   6.124   4.249  0.8048  0.0546 -0.0711
  901MOL0     C21511   2.921   6.227   4.159 -0.4867  0.2730  0.6904
  901MOL0     C21512   2.959   6.205   4.017 -0.0806 -0.4469  0.7874
  901MOL0     C21513   2.974   6.337   3.920  0.1866  0.5011  1.4166
  901MOL0     C21514   3.070   6.445   3.972 -0.1321 -0.4189 -0.8222
  901MOL0     C21515   3.059   6.563   3.881  0.6571  0.0940 -0.1434
  901MOL0     C21516   2.930   6.649   3.902  0.7231 -0.1736  0.3194
  901MOL0     N21517   2.906   6.697   4.045  0.1729  0.8211 -0.1931
  901MOL0     C21518   2.966   6.799   4.112 -0.0668 -0.2060  1.0222
  901MOL0     C21519   2.896   6.806   4.232 -0.3387  0.3846 -0.8137
  901MOL0     C21520   2.949   6.903   4.333  1.3255  0.6037  0.7587
  901MOL0     C21521   3.097   6.875   4.361 -0.4706  0.6796 -0.5413
  901MOL0     C21522   3.133   6.921   4.498 -0.1128  0.6721 -0.8443
  901MOL0     C21523   3.236   6.831   4.559 -0.3331 -0.8057  1.1052
  901MOL0     O21524   3.291   6.872   4.679  0.6857  0.3561 -0.8509
  901MOL0     C21525   3.408   6.818   4.706  0.0457 -0.3855  0.7409
  901MOL0     C21526   3.512   6.906   4.733 -0.4974 -0.3944 -0.0558
  901MOL0     C21527   3.642   6.865   4.730 -0.9641 -0.6017  0.4605
  901MOL0     C21528   3.744   6.986   4.731  0.7639  0.5033  0.4528
  901MOL0     C21529   3.672   6.727   4.731  0.5715  0.9838 -0.1000
  901MOL0     C21530   3.804   6.676   4.741  0.7675 -0.1571  0.0492
  901MOL0     O21531   3.822   6.563   4.670  0.7866  0.1687 -0.8061
  901MOL0     C21532   3.936   6.508   4.626 -0.6607 -0.3434  0.1807
  901MOL0     C21533   4.073   6.539   4.641 -0.0257 -0.5002  0.1736
  901MOL0     C21534   4.180   6.469   4.586  0.0408  0.3309 -0.0420
  901MOL0     C21535   4.148   6.359   4.494 -0.1273  0.0971 -0.0222
  901MOL0     O21536   4.266   6.317   4.432 -0.0974  0.4752  0.7095
  901MOL0     C21537   4.255   6.218   4.330  0.6726  0.9678 -0.1275
  901MOL0     C21538   4.399   6.191   4.284 -0.0293  0.5843  0.6433
  901MOL0     C21539   4.395   6.125   4.140  0.3221  0.8181 -0.7535
  901MOL0     C21540   4.365   6.213   4.031 -0.2098 -0.4350  0.1153
  901MOL0     C21541   4.350   6.137   3.903  1.2681 -0.6347 -0.3082
  901MOL0     C21542   4.332   6.227   3.788  0.1352  0.0645 -0.5642
  901MOL0     C21543   4.303   6.158   3.658 -0.3777  0.1607 -0.3416
  901MOL0     C21544   4.424   6.072   3.594  0.0612 -0.3699 -0.4026
  901MOL0    Cl21545   4.369   6.028   3.424  0.0578  0.3128 -0.0609
  901MOL0     C21546   4.014   6.322   4.473  0.3205 -0.7045 -1.3024
  901MOL0     C21547   3.915   6.393   4.547 -0.4786  1.1968  1.2658
  901MOL0     O21548   3.891   6.741   4.805  0.1046  0.4699  0.7293
  901MOL0     C21549   3.565   6.639   4.711  0.5099  0.2413  0.5350
  901MOL0     C21550   3.434   6.683   4.688  0.4659  0.1346 -0.7470
  901MOL0     N21551   2.792   6.716   4.243 -1.5055 -0.3692  0.2022
  901MOL0     N21552   2.798   6.659   4.123 -0.3200 -0.4126 -0.2368
  901MOL0     C21553   3.276   6.466   4.338 -0.2642  0.4157  0.3662
  901MOL0     C21554   3.396   6.536   4.345  0.1536 -0.4463 -0.5893
  901MOL0     C21555   3.841   6.596   4.269 -0.9950 -0.1922 -0.3148
  901MOL0     C21556   3.857   6.716   4.356  0.8430  0.7332  0.8931
  901MOL0     C21557   3.979   6.793   4.356 -1.5229  0.6844  0.2228
  901MOL0     C21558   4.091   6.753   4.272 -0.3898  0.1240 -0.0625
  901MOL0     O21559   4.217   6.813   4.270  0.0566  0.1445 -0.9028
  901MOL0     C21560   4.255   6.893   4.383 -0.8864 -0.3650 -0.3962
  901MOL0     C21561   4.316   6.788   4.487  0.9196  0.0027  0.0239
  901MOL0     C21562   4.345   6.845   4.626  0.1115  0.2354 -0.0911
  901MOL0     C21563   4.231   6.920   4.692  0.3390 -0.5680 -0.2176
  901MOL0     C21564   4.273   6.978   4.821  0.0177  0.0535  1.2633
  901MOL0     C21565   4.297   7.047   4.921 -0.5748 -0.3776  0.7070
  901MOL0     C21566   4.075   6.639   4.187  0.9058  0.4625  0.2989
  901MOL0     C21567   3.958   6.564   4.194 -0.7668  0.2928 -0.5012
  901MOL0     H21568   3.593   6.273   4.435 -1.4274 -0.5828  0.3667
  901MOL0     H21569   3.379   6.154   4.404  3.5089  0.5603  1.0271
  901MOL0     H21570   3.204   6.151   4.188 -1.4633  3.8795 -1.1675
  901MOL0     H21571   3.162   6.067   4.339  2.1038  1.6737  2.0993
  901MOL0     H21572   2.988   6.022   4.210  5.5900 -0.2682  0.4384
  901MOL0     H21573   2.938   6.131   4.348 -1.7601  0.7605 -1.2700
  901MOL0     H21574   2.813   6.235   4.178 -0.0972  0.6498  3.1782
  901MOL0     H21575   2.959   6.327   4.180 -4.0194  2.4336 -2.0459
  901MOL0     H21576   3.059   6.164   4.004  0.3797  1.2914 -2.0718
  901MOL0     H21577   2.887   6.128   3.987 -0.3065 -0.1446  0.5398
  901MOL0     H21578   2.994   6.292   3.822 -2.6099 -4.2356  2.6604
  901MOL0     H21579   2.871   6.373   3.922  0.4026  1.5435 -1.4149
  901MOL0     H21580   3.043   6.473   4.074 -1.0809 -1.6652 -0.7140
  901MOL0     H21581   3.174   6.411   3.964  0.0767 -1.0142  2.7619
  901MOL0     H21582   3.128   6.644   3.905  2.6212 -0.6700 -2.7967
  901MOL0     H21583   3.069   6.529   3.778  0.4360 -1.8004  0.4186
  901MOL0     H21584   2.842   6.587   3.880 -1.0882  1.4207  2.5466
  901MOL0     H21585   2.934   6.740   3.842 -1.6548  1.3255  2.2598
  901MOL0     H21586   3.049   6.857   4.075 -0.9136 -0.5536 -1.6334
  901MOL0     H21587   2.936   7.005   4.295  0.3393  1.1185  2.3411
  901MOL0     H21588   2.889   6.887   4.423 -0.3862  1.9096 -0.1095
  901MOL0     H21589   3.158   6.910   4.278  0.3996  0.5586  0.0283
  901MOL0     H21590   3.095   6.766   4.369 -3.7586  0.7761  2.3030
  901MOL0     H21591   3.043   6.929   4.559 -0.7387  0.1039 -1.6696
  901MOL0     H21592   3.172   7.023   4.495  1.8758  0.1726  2.4150
  901MOL0     H21593   3.316   6.840   4.486 -1.7113  1.3630 -0.2656
  901MOL0     H21594   3.188   6.733   4.566 -1.1130 -0.4076  1.5057
  901MOL0     H21595   3.505   7.013   4.749  2.3567 -0.4873  3.1186
  901MOL0     H21596   3.829   6.944   4.675 -0.6969 -0.3130 -1.2353
  901MOL0     H21597   3.710   7.081   4.690 -1.9497 -0.8048 -0.5092
  901MOL0     H21598   3.763   7.018   4.834 -3.6396 -2.1503  2.4030
  901MOL0     H21599   4.105   6.621   4.706  1.1791  0.5722 -1.6768
  901MOL0     H21600   4.282   6.485   4.618 -0.0541  0.0052  0.4431
  901MOL0     H21601   4.209   6.130   4.376 -0.1500  1.9444  1.0243
  901MOL0     H21602   4.186   6.247   4.250 -3.0739 -2.5349  1.4615
  901MOL0     H21603   4.459   6.281   4.269  0.0991  0.3722 -0.1755
  901MOL0     H21604   4.450   6.127   4.357 -1.3466 -0.9943  0.2484
  901MOL0     H21605   4.316   6.049   4.138  0.1056  1.0490 -1.8816
  901MOL0     H21606   4.492   6.073   4.136  0.4845  1.0402  0.0746
  901MOL0     H21607   4.284   6.283   4.052 -0.5315  0.2342 -2.9009
  901MOL0     H21608   4.448   6.280   4.008 -2.4443  1.5834 -2.7967
  901MOL0     H21609   4.264   6.068   3.904  0.2781  0.5240 -1.3108
  901MOL0     H21610   4.438   6.077   3.881  0.7512 -1.4954 -0.0951
  901MOL0     H21611   4.237   6.274   3.817 -0.5393 -0.8695 -1.1955
  901MOL0     H21612   4.406   6.303   3.762 -0.2198  0.3546 -0.7446
  901MOL0     H21613   4.275   6.236   3.587  1.8519  0.0993 -1.3846
  901MOL0     H21614   4.218   6.094   3.681 -1.9229  2.6474  1.2551
  901MOL0     H21615   4.452   5.983   3.651  1.5686  0.4729  0.2503
  901MOL0     H21616   4.514   6.134   3.579  0.2844 -1.0732 -2.2138
  901MOL0     H21617   3.984   6.248   4.400 -2.0554 -2.4675  1.2852
  901MOL0     H21618   3.812   6.362   4.534  0.1727 -0.0762 -1.6869
  901MOL0     H21619   3.583   6.532   4.712 -2.8705 -0.4262  1.7136
  901MOL0     H21620   3.353   6.611   4.674 -1.3390  1.7288  0.8762
  901MOL0     H21621   3.187   6.521   4.310  0.1125  0.3216 -1.1037
  901MOL0     H21622   3.389   6.642   4.323 -0.1472 -0.2302  0.4815
  901MOL0     H21623   3.787   6.736   4.437 -0.9510 -0.3139 -0.3378
  901MOL0     H21624   3.972   6.887   4.410  0.3730  2.6734 -2.7163
  901MOL0     H21625   4.329   6.960   4.337 -1.8819 -0.3613 -2.1045
  901MOL0     H21626   4.171   6.955   4.415 -1.9305 -0.5144 -2.6024
  901MOL0     H21627   4.415   6.751   4.460  1.5240 -2.2019  4.4234
  901MOL0     H21628   4.254   6.698   4.494 -2.3168  1.7468 -2.8826
  901MOL0     H21629   4.442   6.894   4.626  1.4803 -2.3204  0.5836
  901MOL0     H21630   4.361   6.758   4.691 -1.5991 -1.0360 -1.2683
  901MOL0     H21631   4.141   6.859   4.701  0.5880 -0.7650  0.9926
  901MOL0     H21632   4.209   7.010   4.633  3.0656  1.4748  1.5936
  901MOL0     H21633   4.333   7.110   5.000  1.9043 -0.2136 -0.4552
  901MOL0     H21634   4.162   6.620   4.125  0.3772  0.4863 -0.4599
  901MOL0     H21635   3.974   6.472   4.139  4.3548 -0.4548  1.6773
  902MOL0     O21636  11.340   5.798   0.593  0.8006  0.3243  0.7258
  902MOL0     C21637  11.326   5.888   0.505 -0.1635  0.2553  0.5541
  902MOL0     O21638  11.225   5.894   0.418 -0.2944  0.2559 -0.9665
  902MOL0     C21639  11.112   5.823   0.430  0.1914  0.1395  0.8618
  902MOL0     C21640  11.043   5.822   0.311 -0.5756  0.6279 -0.1784
  902MOL0     C21641  10.913   5.775   0.301  1.1236 -0.8500 -0.0808
  902MOL0     C21642  10.839   5.728   0.415  0.4383  0.2084 -1.0060
  902MOL0     O21643  10.713   5.674   0.412  0.2723  0.3261 -0.4304
  902MOL0     C21644  10.639   5.669   0.297  0.1661 -0.9139 -0.3100
  902MOL0     C21645  10.549   5.546   0.312  0.4236 -0.7504  0.2205
  902MOL0     C21646  10.459   5.535   0.196  0.3507  1.2549 -0.5033
  902MOL0     C21647  10.370   5.414   0.214 -0.3689 -0.7790 -0.3375
  902MOL0     C21648  10.257   5.422   0.107 -0.0096 -0.5119  0.4247
  902MOL0     C21649  10.189   5.289   0.077 -0.2214  0.4777 -0.6462
  902MOL0     C21650  10.061   5.303   0.000 -0.0942 -0.1109 -0.5793
  902MOL0     C21651  10.101   5.339  -0.149 -0.0746  0.0900 -0.0071
  902MOL0     N21652   9.984   5.404  -0.210  0.1549  0.1596  0.4775
  902MOL0     C21653   9.915   5.387  -0.333  0.7072  0.8008  0.0525
  902MOL0     C21654   9.825   5.491  -0.341 -0.5688  0.0519 -0.2409
  902MOL0     C21655   9.732   5.524  -0.446 -0.4757 -0.1983 -0.1993
  902MOL0     C21656   9.608   5.597  -0.400  0.1292 -0.9999  1.0286
  902MOL0     C21657   9.490   5.594  -0.498 -1.0095  0.3961 -0.4152
  902MOL0     C21658   9.507   5.696  -0.609 -0.3914 -0.2934  0.6152
  902MOL0     O21659   9.570   5.649  -0.733  1.3577  0.2555  0.6434
  902MOL0     C21660   9.620   5.740  -0.820 -0.1379 -0.7042  0.1577
  902MOL0     C21661   9.600   5.876  -0.831  0.5307  0.1852 -0.5049
  902MOL0     C21662   9.669   5.951  -0.927  0.5622 -0.5504  0.3526
  902MOL0     C21663   9.627   6.100  -0.914  0.2855  0.2969 -0.1210
  902MOL0     C21664   9.747   5.893  -1.023 -0.1137  0.4341 -0.6293
  902MOL0     C21665   9.817   5.972  -1.126  0.2293  0.3928  0.6893
  902MOL0     O21666   9.891   5.902  -1.221  0.7808  0.3966 -0.6295
  902MOL0     C21667   9.997   5.964  -1.289  0.4138  0.0838 -0.4197
  902MOL0     C21668  10.058   6.093  -1.270  0.2869  0.1422 -0.2390
  902MOL0     C21669  10.168   6.146  -1.342 -0.5329 -0.2599  0.2522
  902MOL0     C21670  10.224   6.073  -1.443 -0.2716  0.2033  0.2855
  902MOL0     O21671  10.328   6.099  -1.524 -0.2120  1.1131  0.1090
  902MOL0     C21672  10.420   6.202  -1.510 -0.4182  0.0174 -0.5432
  902MOL0     C21673  10.502   6.234  -1.643 -0.2625  0.6371  0.3019
  902MOL0     C21674  10.647   6.283  -1.626 -0.0658 -0.4287 -0.8631
  902MOL0     C21675  10.695   6.328  -1.763 -0.0598 -0.2628 -0.2811
  902MOL0     C21676  10.827   6.409  -1.751 -0.8537 -0.4058 -0.0619
  902MOL0     C21677  10.871   6.450  -1.889 -0.9614 -0.3619 -0.1024
  902MOL0     C21678  11.015   6.481  -1.886 -0.1124 -0.1108 -0.3525
  902MOL0     C21679  11.054   6.543  -2.014 -0.5606 -0.0572  0.1048
  902MOL0    Cl21680  11.228   6.591  -2.003  0.2178 -0.4157 -0.6168
  902MOL0     C21681  10.179   5.934  -1.452 -0.8550 -0.0931  0.0661
  902MOL0     C21682  10.066   5.887  -1.386 -0.5999  0.1323  0.3161
  902MOL0     O21683   9.802   6.098  -1.131  0.3285  0.1039  0.9918
  902MOL0     C21684   9.769   5.753  -1.022 -0.2278  0.7125 -0.2755
  902MOL0     C21685   9.700   5.679  -0.919  0.3257 -0.3027  0.0958
  902MOL0     N21686   9.830   5.570  -0.223  0.4670  0.3165  0.0530
  902MOL0     N21687   9.925   5.516  -0.155  0.3340  0.3092  0.0032
  902MOL0     C21688  10.917   5.713   0.531  0.3482 -0.2900  0.3531
  902MOL0     C21689  11.048   5.758   0.543 -0.0396 -1.0487  0.4358
  902MOL0     C21690  11.433   5.990   0.476  0.2544 -0.4527 -0.8130
  902MOL0     C21691  11.408   6.092   0.388 -0.4158 -0.3842  0.9216
  902MOL0     C21692  11.498   6.200   0.379 -0.4048  0.1010  0.1156
  902MOL0     C21693  11.611   6.202   0.459 -1.2063 -0.2583 -0.4137
  902MOL0     O21694  11.704   6.303   0.467  0.3216  0.4397 -0.0924
  902MOL0     C21695  11.694   6.412   0.374 -0.0461 -0.0726 -0.2135
  902MOL0     C21696  11.803   6.507   0.409 -0.7874 -0.1286  0.0924
  902MOL0     C21697  11.927   6.481   0.322  0.2734 -0.3936 -1.5403
  902MOL0     C21698  12.047   6.519   0.406 -0.0657 -0.0358  0.0628
  902MOL0     C21699  12.048   6.655   0.457  0.2407 -1.0756 -0.0127
  902MOL0     C21700  12.052   6.767   0.511  0.5343 -0.8417  0.0556
  902MOL0     C21701  11.648   6.087   0.532  0.2696 -1.1241  0.0019
  902MOL0     C21702  11.561   5.980   0.536 -0.0213 -0.5222 -0.3982
  902MOL0     H21703  11.101   5.846   0.223  0.0744 -2.8015 -0.8303
  902MOL0     H21704  10.868   5.793   0.204  0.2386  4.2595  0.9994
  902MOL0     H21705  10.582   5.762   0.304  1.0724 -0.4633  2.2721
  902MOL0     H21706  10.701   5.660   0.208  1.6573  4.1005 -0.0924
  902MOL0     H21707  10.606   5.453   0.314 -1.2057 -1.8393  2.7160
  902MOL0     H21708  10.494   5.558   0.406 -0.2100  1.0740 -0.3496
  902MOL0     H21709  10.388   5.619   0.197  0.2054  1.1285 -0.0031
  902MOL0     H21710  10.508   5.549   0.099  2.3906 -3.0087 -0.3114
  902MOL0     H21711  10.431   5.323   0.209 -2.2480 -2.2505  1.5793
  902MOL0     H21712  10.325   5.423   0.313  0.5990 -1.6417  0.1990
  902MOL0     H21713  10.184   5.496   0.141  1.8714  0.9239  1.5355
  902MOL0     H21714  10.314   5.450   0.018  1.8810  1.2804  2.0928
  902MOL0     H21715  10.268   5.229   0.032  0.3792 -0.1417  1.1544
  902MOL0     H21716  10.162   5.259   0.179 -0.6997 -0.4685 -1.0521
  902MOL0     H21717  10.024   5.201   0.012  2.0337 -1.0906 -1.8561
  902MOL0     H21718   9.993   5.374   0.049 -0.2758 -0.7488  0.1108
  902MOL0     H21719  10.123   5.248  -0.206 -0.6163  1.0847 -1.8770
  902MOL0     H21720  10.180   5.414  -0.148 -0.3732  0.5404  4.0099
  902MOL0     H21721   9.916   5.308  -0.407 -2.0541  0.8739 -0.1516
  902MOL0     H21722   9.783   5.591  -0.516 -1.8479  0.7115 -0.3620
  902MOL0     H21723   9.709   5.424  -0.483  2.2725 -1.0598  0.2202
  902MOL0     H21724   9.642   5.701  -0.395 -2.0119 -0.0878 -1.3326
  902MOL0     H21725   9.567   5.568  -0.302 -1.0770 -0.4947  0.6965
  902MOL0     H21726   9.400   5.611  -0.438 -1.6071 -2.5132 -0.3370
  902MOL0     H21727   9.477   5.497  -0.547 -4.5019  0.6328 -0.2255
  902MOL0     H21728   9.576   5.776  -0.580 -1.6951  0.5740  1.4734
  902MOL0     H21729   9.409   5.744  -0.623 -0.1240 -0.1878 -1.1039
  902MOL0     H21730   9.540   5.928  -0.756  1.0049  3.7098 -2.3507
  902MOL0     H21731   9.561   6.122  -0.998  1.7772  0.1735 -1.3662
  902MOL0     H21732   9.576   6.125  -0.820 -0.1923  1.8327 -0.7611
  902MOL0     H21733   9.715   6.165  -0.921  1.1518 -0.7057  0.9350
  902MOL0     H21734  10.028   6.153  -1.184  5.0053 -1.7490  3.1477
  902MOL0     H21735  10.219   6.240  -1.319 -1.1715  0.3827 -0.8919
  902MOL0     H21736  10.369   6.292  -1.476 -0.4760 -0.9631  2.1839
  902MOL0     H21737  10.497   6.181  -1.436  0.5874  0.0592 -1.5470
  902MOL0     H21738  10.502   6.144  -1.705 -1.8233  1.1005 -0.4137
  902MOL0     H21739  10.440   6.307  -1.696 -0.7021 -0.6159 -0.9607
  902MOL0     H21740  10.713   6.205  -1.587  4.4243  0.9278 -4.7961
  902MOL0     H21741  10.645   6.372  -1.563  0.3475  0.5589 -2.2117
  902MOL0     H21742  10.720   6.234  -1.814 -1.0106  0.6641 -2.6164
  902MOL0     H21743  10.614   6.369  -1.825 -1.2994 -3.1899 -0.7778
  902MOL0     H21744  10.906   6.346  -1.709 -0.1895  1.1130  1.0482
  902MOL0     H21745  10.823   6.492  -1.680  0.0782 -1.3633  1.1540
  902MOL0     H21746  10.857   6.361  -1.951 -1.6765 -0.7582  0.6038
  902MOL0     H21747  10.809   6.533  -1.924 -0.9567  0.1492  1.0589
  902MOL0     H21748  11.077   6.393  -1.868  2.7858  1.2643 -2.5997
  902MOL0     H21749  11.052   6.558  -1.817 -0.1768  0.6452 -1.1364
  902MOL0     H21750  10.998   6.632  -2.042  1.6374  1.1513 -0.6563
  902MOL0     H21751  11.041   6.460  -2.085  0.7717 -1.6805  1.6396
  902MOL0     H21752  10.235   5.864  -1.513  1.1106  1.5233 -0.0658
  902MOL0     H21753  10.042   5.781  -1.386  0.4838 -0.1425 -0.6621
  902MOL0     H21754   9.833   5.701  -1.093 -1.6393 -1.4394 -0.0829
  902MOL0     H21755   9.708   5.571  -0.923  0.4301 -0.3335  0.9676
  902MOL0     H21756  10.860   5.662   0.607 -3.0097 -1.6335 -2.7430
  902MOL0     H21757  11.092   5.756   0.642 -1.6669  0.3062  1.2460
  902MOL0     H21758  11.313   6.090   0.336 -0.2749 -0.6078  0.6731
  902MOL0     H21759  11.463   6.291   0.331 -0.2964  0.0036 -0.1514
  902MOL0     H21760  11.705   6.383   0.269 -1.8245 -0.7700 -0.2453
  902MOL0     H21761  11.600   6.468   0.379 -0.8894 -1.3658 -1.0210
  902MOL0     H21762  11.828   6.504   0.516 -2.3706 -0.6196  0.4742
  902MOL0     H21763  11.773   6.610   0.391  0.6325  0.0856 -1.2202
  902MOL0     H21764  11.914   6.548   0.237  1.0243  1.3367 -0.3684
  902MOL0     H21765  11.939   6.376   0.296  0.4610 -0.5731 -0.7674
  902MOL0     H21766  12.138   6.496   0.350 -1.7319 -2.5833 -1.7845
  902MOL0     H21767  12.053   6.455   0.495  1.9823  0.1476  0.1227
  902MOL0     H21768  12.061   6.866   0.553 -0.3930 -1.0640  0.8044
  902MOL0     H21769  11.747   6.090   0.577  1.2041 -0.1912 -1.9333
  902MOL0     H21770  11.588   5.890   0.590  1.1991 -1.1359 -1.9538
  903MOL0     O21771   5.260   9.861   9.058  0.5665  0.2510 -0.6337
  903MOL0     C21772   5.369   9.811   9.070 -0.3857  0.4836  0.4408
  903MOL0     O21773   5.402   9.673   9.078  0.0838 -0.0312  0.1859
  903MOL0     C21774   5.305   9.582   9.100 -0.0267 -0.2916 -0.4601
  903MOL0     C21775   5.202   9.564   9.002 -0.3239  0.7207 -0.7043
  903MOL0     C21776   5.111   9.456   9.015 -0.3656 -0.4027  0.2208
  903MOL0     C21777   5.107   9.383   9.134 -0.6335  0.0909  0.5501
  903MOL0     O21778   5.016   9.279   9.155 -0.3723  0.8382  0.2092
  903MOL0     C21779   4.905   9.279   9.063 -0.0567  0.3228  0.4403
  903MOL0     C21780   4.801   9.175   9.116 -0.8023 -0.9722  0.5374
  903MOL0     C21781   4.668   9.178   9.044 -0.0238 -0.2008 -0.2272
  903MOL0     C21782   4.565   9.086   9.101  0.6817 -0.4046  0.4909
  903MOL0     C21783   4.453   9.092   8.995 -0.4443  0.2787 -0.3106
  903MOL0     C21784   4.336   9.032   9.070  0.9547  0.1872 -0.4370
  903MOL0     C21785   4.232   8.991   8.970 -0.1837 -0.1010  0.3202
  903MOL0     C21786   4.185   9.107   8.886  0.6811 -0.0995  0.8064
  903MOL0     N21787   4.061   9.079   8.827  0.6361 -0.3622 -0.9361
  903MOL0     C21788   4.015   8.965   8.770  0.1715  0.0533  0.6505
  903MOL0     C21789   3.884   8.956   8.781 -0.7856 -0.9423 -0.2993
  903MOL0     C21790   3.814   8.825   8.751  0.1585  0.0294 -0.3289
  903MOL0     C21791   3.667   8.857   8.767 -0.5228  0.1025  0.2833
  903MOL0     C21792   3.586   8.742   8.705  0.2660 -0.5314 -0.0199
  903MOL0     C21793   3.591   8.730   8.549 -0.5151  0.0228  0.0853
  903MOL0     O21794   3.519   8.609   8.501  0.5374 -0.0879 -1.1234
  903MOL0     C21795   3.393   8.607   8.466  0.1192 -1.6696 -0.1847
  903MOL0     C21796   3.293   8.709   8.500  0.9123  0.0433  0.7369
  903MOL0     C21797   3.162   8.697   8.454  0.6008 -1.1670  0.3543
  903MOL0     C21798   3.073   8.820   8.487  0.6242 -0.3496 -0.3350
  903MOL0     C21799   3.118   8.582   8.382 -0.8167  0.1234  0.1598
  903MOL0     C21800   2.980   8.559   8.331  0.1817  0.6266 -0.2036
  903MOL0     O21801   2.967   8.454   8.243  0.3711  0.2529  0.4731
  903MOL0     C21802   2.864   8.454   8.157  0.6740  0.5745 -1.2538
  903MOL0     C21803   2.828   8.565   8.084 -0.6341 -0.3152  0.9495
  903MOL0     C21804   2.741   8.563   7.992  1.1401  0.0603  0.1936
  903MOL0     C21805   2.663   8.444   7.962  0.0393 -0.2364  0.0478
  903MOL0     O21806   2.574   8.437   7.859  0.7384  0.2247  0.0875
  903MOL0     C21807   2.520   8.558   7.814  0.1687 -0.1124  0.3010
  903MOL0     C21808   2.387   8.527   7.729 -1.3041  0.7497  0.3116
  903MOL0     C21809   2.358   8.632   7.627 -0.8066  0.3401  0.3196
  903MOL0     C21810   2.240   8.588   7.552  0.0755 -0.1544  0.8429
  903MOL0     C21811   2.199   8.684   7.441  0.2839  0.7124 -0.2511
  903MOL0     C21812   2.057   8.636   7.396  0.1896  0.1035  0.4389
  903MOL0     C21813   2.020   8.697   7.267 -0.3684 -0.5074 -0.0743
  903MOL0     C21814   1.898   8.633   7.207 -0.2083  0.3467 -0.3073
  903MOL0    Cl21815   1.823   8.753   7.092 -0.1634 -0.0210 -0.4893
  903MOL0     C21816   2.687   8.332   8.034  0.9444  0.5123 -0.1274
  903MOL0     C21817   2.789   8.335   8.136  0.9459  1.0798 -0.9113
  903MOL0     O21818   2.899   8.633   8.366 -0.4659 -0.2136 -0.5175
  903MOL0     C21819   3.220   8.482   8.355 -0.8263  0.4803 -0.5260
  903MOL0     C21820   3.352   8.496   8.400 -1.3619 -0.0049  0.6377
  903MOL0     N21821   3.842   9.073   8.838 -0.3941  0.6267  0.2815
  903MOL0     N21822   3.950   9.141   8.862  0.3472 -0.9169 -0.4215
  903MOL0     C21823   5.209   9.395   9.235  0.6433 -0.0825  0.3590
  903MOL0     C21824   5.307   9.497   9.211  0.6063 -0.2548  0.3608
  903MOL0     C21825   5.476   9.902   9.088 -0.3730 -0.0958  0.7968
  903MOL0     C21826   5.592   9.861   9.154 -0.1260  0.9275 -0.3212
  903MOL0     C21827   5.693   9.950   9.180  0.0105  0.9346 -0.3388
  903MOL0     C21828   5.693  10.089   9.132  1.0430  0.5680  0.5310
  903MOL0     O21829   5.794  10.169   9.162 -0.2402 -0.2673 -0.2104
  903MOL0     C21830   5.790  10.314   9.181  0.7172 -0.2395  1.2519
  903MOL0     C21831   5.803  10.386   9.046 -0.4110  0.5636 -1.4846
  903MOL0     C21832   5.787  10.539   9.030 -0.7701  0.0897  0.2278
  903MOL0     C21833   5.864  10.629   9.128  0.3627 -0.6133  0.4991
  903MOL0     C21834   6.007  10.612   9.134  0.8370 -0.4674  0.2744
  903MOL0     C21835   6.129  10.592   9.136 -0.7400 -1.8076 -0.0830
  903MOL0     C21836   5.575  10.133   9.071  0.2758 -0.5223  0.1492
  903MOL0     C21837   5.471  10.036   9.048 -0.5368 -0.2682 -0.4712
  903MOL0     H21838   5.197   9.631   8.917  2.1256 -0.8668 -2.2359
  903MOL0     H21839   5.039   9.449   8.934  0.8700 -2.5058 -0.7780
  903MOL0     H21840   4.863   9.380   9.061  1.9579  1.2422  1.1747
  903MOL0     H21841   4.940   9.259   8.961  1.1175 -1.0338  1.0825
  903MOL0     H21842   4.851   9.079   9.125  1.9301  0.5091  3.2251
  903MOL0     H21843   4.773   9.202   9.218  0.4843  0.9557  0.4489
  903MOL0     H21844   4.644   9.285   9.053  1.1900 -0.0143  1.2003
  903MOL0     H21845   4.696   9.157   8.941 -0.7709 -0.8904 -0.2953
  903MOL0     H21846   4.611   8.987   9.112 -0.2326 -0.6844  2.0478
  903MOL0     H21847   4.538   9.128   9.198  0.1241  0.0439  0.1495
  903MOL0     H21848   4.437   9.189   8.946 -2.2458  0.5414  0.6846
  903MOL0     H21849   4.493   9.038   8.909  0.4717  0.3811  0.0436
  903MOL0     H21850   4.360   8.940   9.125 -2.5348 -1.4254 -1.3415
  903MOL0     H21851   4.294   9.102   9.142 -1.0757 -0.4090 -0.9814
  903MOL0     H21852   4.279   8.925   8.896 -1.2319  0.4461 -0.8714
  903MOL0     H21853   4.152   8.937   9.021 -0.1351 -0.6876 -0.2132
  903MOL0     H21854   4.239   9.133   8.794 -1.8690 -1.0667 -1.1098
  903MOL0     H21855   4.171   9.188   8.958  1.7051  1.0257 -0.2102
  903MOL0     H21856   4.072   8.876   8.745  1.8763  0.7740  1.7342
  903MOL0     H21857   3.843   8.796   8.650  1.4158  3.2060 -1.0026
  903MOL0     H21858   3.842   8.751   8.827  1.2234  0.9273  0.1866
  903MOL0     H21859   3.652   8.949   8.709 -0.1969  1.0009  1.5969
  903MOL0     H21860   3.637   8.871   8.871  2.3006  1.6782  0.9853
  903MOL0     H21861   3.487   8.768   8.742  0.1101  0.0111 -0.7842
  903MOL0     H21862   3.607   8.643   8.746 -0.7640 -1.0689 -0.7615
  903MOL0     H21863   3.692   8.710   8.514  0.2268  0.5131  1.8336
  903MOL0     H21864   3.563   8.822   8.496 -0.0902  0.7102  1.0107
  903MOL0     H21865   3.319   8.806   8.544 -2.0602  2.1798 -1.7761
  903MOL0     H21866   2.991   8.794   8.554 -0.8408  0.0876 -1.8765
  903MOL0     H21867   3.134   8.900   8.530 -2.5228 -0.2281  4.6203
  903MOL0     H21868   3.036   8.857   8.391  3.0165  1.8633 -0.5270
  903MOL0     H21869   2.880   8.660   8.092  0.3232 -0.5189 -1.6308
  903MOL0     H21870   2.722   8.651   7.931  2.7446  0.8922  0.8258
  903MOL0     H21871   2.497   8.629   7.893 -2.0825  0.6594 -0.9557
  903MOL0     H21872   2.596   8.603   7.750 -2.2174  2.5992 -0.8370
  903MOL0     H21873   2.398   8.426   7.688  0.9838  0.5823  1.1832
  903MOL0     H21874   2.301   8.511   7.795 -1.5468 -0.9591 -0.3549
  903MOL0     H21875   2.442   8.642   7.559 -1.4907 -3.7570 -1.4171
  903MOL0     H21876   2.339   8.727   7.678 -0.3297  2.0480 -2.5107
  903MOL0     H21877   2.250   8.483   7.523 -0.7995  0.0649 -0.3487
  903MOL0     H21878   2.159   8.583   7.625 -0.5993  0.9962  0.2234
  903MOL0     H21879   2.273   8.671   7.361  0.3488 -4.3300  0.3303
  903MOL0     H21880   2.197   8.789   7.472  1.0641  0.1759  1.8405
  903MOL0     H21881   2.053   8.527   7.388  0.5167  0.0878  0.4518
  903MOL0     H21882   1.996   8.671   7.479  0.1665  1.7521 -0.2202
  903MOL0     H21883   2.102   8.669   7.201 -0.2310  1.0702 -0.6218
  903MOL0     H21884   2.001   8.805   7.278  0.1957 -0.3882 -0.2186
  903MOL0     H21885   1.826   8.612   7.286  0.2812 -0.3960 -0.0476
  903MOL0     H21886   1.931   8.545   7.150 -1.5679  0.4118 -1.2254
  903MOL0     H21887   2.627   8.245   8.010 -0.1600  0.5097  2.2619
  903MOL0     H21888   2.811   8.246   8.194  3.7440  1.1058 -1.7674
  903MOL0     H21889   3.198   8.396   8.292  2.3079  0.4786 -1.8045
  903MOL0     H21890   3.430   8.422   8.388 -2.2690 -0.7835 -0.7219
  903MOL0     H21891   5.218   9.317   9.310 -3.4330 -2.8541 -1.7111
  903MOL0     H21892   5.383   9.487   9.288 -2.6690 -3.1230  3.5905
  903MOL0     H21893   5.613   9.760   9.189  0.6631  1.2966  0.2950
  903MOL0     H21894   5.778   9.922   9.241  0.5452  1.5639 -0.7911
  903MOL0     H21895   5.698  10.359   9.221  0.9279  2.2605 -0.8809
  903MOL0     H21896   5.884  10.345   9.227  1.3994  0.5952 -0.6136
  903MOL0     H21897   5.742  10.348   8.963  1.5883  2.0941 -3.8264
  903MOL0     H21898   5.903  10.377   9.003 -0.7451  0.1834 -2.2027
  903MOL0     H21899   5.680  10.560   9.021 -1.0432 -1.7326 -1.3208
  903MOL0     H21900   5.824  10.563   8.930  0.4431  0.6087  0.7811
  903MOL0     H21901   5.827  10.614   9.230  0.2082 -1.3375  0.3439
  903MOL0     H21902   5.839  10.729   9.090  1.7458 -0.7437 -0.8379
  903MOL0     H21903   6.236  10.599   9.130 -0.3232 -0.1185  4.8017
  903MOL0     H21904   5.564  10.232   9.028  1.0226  0.2645  1.6857
  903MOL0     H21905   5.394  10.081   8.985  1.7168 -0.9566 -3.9669
  904MOL0     O21906   8.733   4.295   8.262  0.4829  0.0971 -0.5575
  904MOL0     C21907   8.748   4.192   8.197 -0.1301  0.0554 -0.2876
  904MOL0     O21908   8.864   4.119   8.185 -0.7332  0.0202 -0.3350
  904MOL0     C21909   8.974   4.138   8.267  0.5550  0.4634 -0.5635
  904MOL0     C21910   8.966   4.147   8.401  0.2066 -0.1731 -0.4075
  904MOL0     C21911   9.074   4.142   8.485  0.2805  0.2444 -1.1855
  904MOL0     C21912   9.204   4.121   8.432  0.0219 -0.4719 -0.2518
  904MOL0     O21913   9.325   4.130   8.513  0.6615 -0.2599 -1.0532
  904MOL0     C21914   9.325   4.029   8.617  0.1596 -0.5647  1.5544
  904MOL0     C21915   9.463   3.968   8.638  0.2382 -0.9885  0.1793
  904MOL0     C21916   9.581   4.060   8.654  0.2246 -0.5195 -0.2732
  904MOL0     C21917   9.702   4.004   8.720 -0.1963  0.5247  0.0935
  904MOL0     C21918   9.789   3.906   8.627  0.0541  0.2903 -0.3292
  904MOL0     C21919   9.844   3.961   8.506  0.6523 -0.3162 -0.2907
  904MOL0     C21920   9.910   3.837   8.425  0.2417 -0.0387  0.0109
  904MOL0     C21921   9.844   3.807   8.283 -0.4090 -0.5899 -0.2894
  904MOL0     N21922   9.720   3.747   8.318  0.4779  0.3759  0.5384
  904MOL0     C21923   9.597   3.810   8.308  0.0355 -0.6673 -0.5393
  904MOL0     C21924   9.509   3.706   8.299  0.0859  0.1794 -0.4141
  904MOL0     C21925   9.354   3.735   8.285 -0.6661  0.2628 -0.3546
  904MOL0     C21926   9.269   3.611   8.273  0.1288 -0.5833 -0.1779
  904MOL0     C21927   9.130   3.629   8.207  0.1430 -0.9052  0.0470
  904MOL0     C21928   9.039   3.744   8.263  0.4691 -0.1101 -0.1117
  904MOL0     O21929   8.910   3.741   8.200  0.2854  0.5760 -0.1320
  904MOL0     C21930   8.795   3.786   8.267 -0.4563 -0.1042  0.8421
  904MOL0     C21931   8.786   3.833   8.399 -0.6347 -0.9709 -0.2258
  904MOL0     C21932   8.669   3.890   8.443  0.7840 -0.1915 -0.5633
  904MOL0     C21933   8.664   3.926   8.590 -0.4963  0.0841  0.4395
  904MOL0     C21934   8.550   3.891   8.361 -0.0301  0.1171  0.1397
  904MOL0     C21935   8.417   3.952   8.399 -0.3897  0.2530 -0.6548
  904MOL0     O21936   8.295   3.882   8.374 -0.2931  0.5396  0.2482
  904MOL0     C21937   8.173   3.923   8.419  0.2338  0.0700 -0.7597
  904MOL0     C21938   8.066   3.878   8.347 -0.1993 -0.3397 -0.6415
  904MOL0     C21939   7.937   3.918   8.371 -0.7507 -0.7676  0.8077
  904MOL0     C21940   7.912   4.001   8.480  0.0805 -0.2007 -0.1795
  904MOL0     O21941   7.780   4.043   8.494  0.0983 -0.7344  0.1655
  904MOL0     C21942   7.735   4.114   8.612 -0.5912 -0.6043 -0.3999
  904MOL0     C21943   7.588   4.149   8.581 -0.8627 -0.0744  0.1997
  904MOL0     C21944   7.556   4.229   8.454  0.7016  0.3833 -0.4262
  904MOL0     C21945   7.410   4.287   8.457 -0.6690 -0.3618  0.1352
  904MOL0     C21946   7.400   4.406   8.365 -0.6424  0.6757  0.8171
  904MOL0     C21947   7.255   4.457   8.368  0.3830 -1.3263  0.6008
  904MOL0     C21948   7.139   4.368   8.316  0.7885 -0.9029 -1.1133
  904MOL0     C21949   7.020   4.458   8.279 -0.4449  0.4313  0.5893
  904MOL0    Cl21950   6.865   4.381   8.285 -0.2278 -0.0172 -0.0415
  904MOL0     C21951   8.017   4.033   8.564  0.2037 -0.6087 -0.3487
  904MOL0     C21952   8.147   3.997   8.531  0.8296  0.1298 -0.9208
  904MOL0     O21953   8.426   4.064   8.442  0.8898  0.2497  0.6392
  904MOL0     C21954   8.554   3.816   8.241  0.2699  0.0498  0.2175
  904MOL0     C21955   8.674   3.770   8.195 -0.2732 -0.1181 -0.6104
  904MOL0     N21956   9.573   3.590   8.293  0.2699 -0.3175  0.1136
  904MOL0     N21957   9.695   3.610   8.315  0.1386  0.8762  0.2947
  904MOL0     C21958   9.220   4.115   8.294 -0.5463  0.4438 -0.8183
  904MOL0     C21959   9.104   4.120   8.215 -0.4307 -0.0087 -0.7771
  904MOL0     C21960   8.624   4.147   8.126 -0.4115  0.8271 -0.3697
  904MOL0     C21961   8.489   4.202   8.148 -0.9438 -0.3829 -0.6275
  904MOL0     C21962   8.382   4.145   8.085 -0.5849 -0.5917  0.6167
  904MOL0     C21963   8.397   4.047   7.984 -0.4092  0.1114 -0.0351
  904MOL0     O21964   8.301   3.979   7.915 -0.0745 -0.2684 -0.1606
  904MOL0     C21965   8.171   3.980   7.979 -0.4029 -0.8211  0.3021
  904MOL0     C21966   8.085   3.861   7.934 -0.2976 -0.2091 -0.2221
  904MOL0     C21967   7.927   3.892   7.951 -0.9722  0.0421  0.7052
  904MOL0     C21968   7.840   3.775   7.891 -0.2339 -0.2762 -0.0209
  904MOL0     C21969   7.857   3.647   7.956 -0.0293  0.1894  0.8096
  904MOL0     C21970   7.876   3.540   8.016  0.5654  0.1091  1.0776
  904MOL0     C21971   8.527   4.010   7.949 -0.5504  0.1699 -0.5207
  904MOL0     C21972   8.634   4.055   8.017 -0.7366  0.7295 -0.3067
  904MOL0     H21973   8.864   4.169   8.434  0.5750 -0.8450  1.2714
  904MOL0     H21974   9.047   4.170   8.586 -4.1680 -0.1997 -2.0437
  904MOL0     H21975   9.288   4.082   8.705  0.1975  2.3446 -0.0760
  904MOL0     H21976   9.254   3.950   8.591  0.1311 -0.1701  0.3741
  904MOL0     H21977   9.454   3.925   8.738 -4.6237  1.6825  1.2042
  904MOL0     H21978   9.475   3.900   8.553 -1.3823  0.0601 -0.9358
  904MOL0     H21979   9.607   4.088   8.551 -2.2230 -0.5357 -0.9720
  904MOL0     H21980   9.555   4.144   8.718  0.2676  0.9947 -2.1548
  904MOL0     H21981   9.762   4.090   8.752 -0.3148  1.3484 -1.7382
  904MOL0     H21982   9.678   3.954   8.814  0.1523  2.5645  1.3419
  904MOL0     H21983   9.873   3.863   8.683  1.1603  1.4251 -1.0538
  904MOL0     H21984   9.726   3.818   8.613  0.0418  0.0460  1.1221
  904MOL0     H21985   9.776   4.011   8.436  1.3036  0.3228 -0.4778
  904MOL0     H21986   9.926   4.027   8.534  1.5091 -1.0531 -0.9927
  904MOL0     H21987  10.015   3.860   8.407  0.3205 -0.9094 -0.7203
  904MOL0     H21988   9.915   3.752   8.494 -0.6081  0.6128  0.9175
  904MOL0     H21989   9.907   3.736   8.229  0.3108  0.6643 -1.1370
  904MOL0     H21990   9.839   3.895   8.218  2.4427 -1.6304 -2.1206
  904MOL0     H21991   9.580   3.917   8.311 -0.4933 -0.7524 -0.3156
  904MOL0     H21992   9.304   3.793   8.364 -1.7661  0.5175 -1.2121
  904MOL0     H21993   9.347   3.787   8.189 -1.1170 -0.7279 -0.8765
  904MOL0     H21994   9.250   3.564   8.370 -0.8680  0.2566  0.0441
  904MOL0     H21995   9.322   3.538   8.211 -0.7709 -0.9967 -0.4795
  904MOL0     H21996   9.073   3.536   8.206  0.7320 -1.2760 -0.2214
  904MOL0     H21997   9.150   3.650   8.101 -0.7990  2.1302  0.3821
  904MOL0     H21998   9.083   3.841   8.240 -0.3188  1.0226  2.7478
  904MOL0     H21999   9.026   3.733   8.371 -3.8920 -1.2503 -0.5616
  904MOL0     H22000   8.872   3.828   8.465 -1.4591 -0.5466  0.9152
  904MOL0     H22001   8.571   3.881   8.626 -1.5791  1.5886 -0.3748
  904MOL0     H22002   8.743   3.880   8.650 -2.5747 -2.1183  1.6681
  904MOL0     H22003   8.662   4.034   8.606 -0.6251  0.3804 -1.3898
  904MOL0     H22004   8.090   3.825   8.255  0.6442  1.8785 -1.7800
  904MOL0     H22005   7.854   3.878   8.313 -0.8187  0.0257  0.3386
  904MOL0     H22006   7.731   4.059   8.706  0.4767  0.7020  0.4387
  904MOL0     H22007   7.799   4.201   8.625 -1.3554 -0.2207  0.9706
  904MOL0     H22008   7.530   4.057   8.572 -1.4085  0.3918 -1.4172
  904MOL0     H22009   7.560   4.210   8.668  2.6101  2.2963 -0.0859
  904MOL0     H22010   7.571   4.176   8.359 -0.2366  1.7158 -1.3547
  904MOL0     H22011   7.626   4.313   8.449  0.0981  0.8931 -0.4315
  904MOL0     H22012   7.342   4.208   8.425 -0.1846 -0.7924  0.1609
  904MOL0     H22013   7.393   4.318   8.561 -0.9755  0.4793 -0.1564
  904MOL0     H22014   7.420   4.369   8.264  0.1896  0.8330  0.9165
  904MOL0     H22015   7.468   4.489   8.386 -0.6143  1.1756 -1.0403
  904MOL0     H22016   7.235   4.487   8.471  3.0449 -0.7273  1.0026
  904MOL0     H22017   7.249   4.536   8.293  0.2857 -3.2679 -1.5624
  904MOL0     H22018   7.113   4.297   8.396 -0.7883  0.6583 -0.1517
  904MOL0     H22019   7.165   4.307   8.230  2.8563 -1.0841 -0.4090
  904MOL0     H22020   7.036   4.506   8.182  0.1038  1.3210  1.1024
  904MOL0     H22021   7.016   4.531   8.361  3.1155  0.8442  0.5930
  904MOL0     H22022   7.992   4.105   8.641  2.4839  1.6288 -1.5624
  904MOL0     H22023   8.232   4.028   8.590 -1.2203  1.9329  1.2969
  904MOL0     H22024   8.473   3.794   8.172 -0.8068  1.4968  0.9509
  904MOL0     H22025   8.674   3.712   8.103 -1.8112 -1.6725  0.3164
  904MOL0     H22026   9.319   4.105   8.251 -0.4091  0.2534 -0.4612
  904MOL0     H22027   9.107   4.102   8.108 -3.0093 -0.5825 -0.8284
  904MOL0     H22028   8.472   4.270   8.230  0.3030 -1.8957  0.9768
  904MOL0     H22029   8.282   4.175   8.114 -0.6818 -1.0571  0.7665
  904MOL0     H22030   8.180   3.974   8.087 -0.4991 -0.1613  0.3490
  904MOL0     H22031   8.118   4.074   7.962  2.1989  1.1064  2.1397
  904MOL0     H22032   8.100   3.767   7.988 -1.5201 -2.0016 -2.7850
  904MOL0     H22033   8.105   3.840   7.828 -1.7225 -3.4853  0.0279
  904MOL0     H22034   7.904   3.983   7.894  2.4131 -0.8280 -2.4402
  904MOL0     H22035   7.897   3.902   8.056  0.0041 -1.8797  1.2090
  904MOL0     H22036   7.858   3.777   7.783 -1.1825  1.4870 -0.1757
  904MOL0     H22037   7.734   3.800   7.896  0.3555  2.5409  0.0562
  904MOL0     H22038   7.897   3.448   8.067  1.4124 -0.5013 -0.3056
  904MOL0     H22039   8.532   3.939   7.866 -2.5214  0.3886 -0.8807
  904MOL0     H22040   8.726   4.003   7.990 -1.5263  0.2871 -2.3446
  905MOL0     O22041   2.369   6.142   4.001  0.0506 -0.2762  0.6205
  905MOL0     C22042   2.309   6.133   4.102 -0.1848 -0.3160 -0.4501
  905MOL0     O22043   2.185   6.091   4.106  0.1287 -0.2619 -0.2888
  905MOL0     C22044   2.100   6.115   3.996  0.6267 -0.2923  0.0704
  905MOL0     C22045   2.107   6.220   3.909  0.1323  0.1762  0.7700
  905MOL0     C22046   2.019   6.237   3.804  0.1227  0.3776 -0.5654
  905MOL0     C22047   1.910   6.156   3.791 -0.0592  0.1058 -0.0875
  905MOL0     O22048   1.814   6.179   3.695 -1.3052  0.1662  0.1612
  905MOL0     C22049   1.824   6.305   3.620 -0.3934 -0.0095  0.4022
  905MOL0     C22050   1.720   6.297   3.509  0.9087  0.3345 -0.2550
  905MOL0     C22051   1.727   6.175   3.427  0.7605  0.2883 -0.3607
  905MOL0     C22052   1.694   6.218   3.281 -0.3646 -0.0961 -0.3239
  905MOL0     C22053   1.647   6.100   3.208 -0.0872 -1.7248  0.0743
  905MOL0     C22054   1.586   6.128   3.067 -0.6479  0.5207 -1.2124
  905MOL0     C22055   1.674   6.224   2.981 -0.1216 -0.3301 -0.3743
  905MOL0     C22056   1.617   6.249   2.838 -0.8105  0.0121  0.3613
  905MOL0     N22057   1.608   6.116   2.767  0.7493 -0.4097  0.2745
  905MOL0     C22058   1.697   6.052   2.702 -0.1678 -0.2279  0.1859
  905MOL0     C22059   1.642   5.954   2.638 -0.2484 -0.1539 -0.4653
  905MOL0     C22060   1.717   5.851   2.542  0.1602  0.4748  0.6827
  905MOL0     C22061   1.689   5.889   2.389 -1.0084  0.3785  0.4168
  905MOL0     C22062   1.769   5.798   2.290  0.7202  0.2475  0.1596
  905MOL0     C22063   1.708   5.813   2.147  0.4041  0.0998 -0.3157
  905MOL0     O22064   1.701   5.946   2.112 -0.2541 -0.2879  1.0341
  905MOL0     C22065   1.692   5.975   1.979 -0.3270 -0.8797 -0.2758
  905MOL0     C22066   1.680   5.887   1.871  0.0413 -0.4262 -0.0662
  905MOL0     C22067   1.678   5.933   1.739  0.8712 -0.5463 -0.3318
  905MOL0     C22068   1.673   5.826   1.638 -0.5906  0.4741  0.3160
  905MOL0     C22069   1.670   6.071   1.708 -0.4126 -0.0589  0.0646
  905MOL0     C22070   1.695   6.129   1.572 -0.6845 -0.0446 -0.9264
  905MOL0     O22071   1.758   6.252   1.566 -0.0997  0.2553 -0.0403
  905MOL0     C22072   1.799   6.309   1.447  0.4094  0.7553 -0.8526
  905MOL0     C22073   1.908   6.402   1.461  0.8986 -0.3383 -0.1075
  905MOL0     C22074   1.965   6.472   1.353  0.5995  0.5919 -0.0495
  905MOL0     C22075   1.908   6.461   1.228  0.3833  0.2526 -0.3678
  905MOL0     O22076   1.956   6.539   1.130  0.0897 -0.5110  0.1735
  905MOL0     C22077   1.951   6.477   1.002 -0.0755  0.4059  0.2491
  905MOL0     C22078   2.043   6.553   0.911 -0.3477 -0.3897  0.8627
  905MOL0     C22079   2.008   6.535   0.763 -0.3206 -0.5930 -0.0071
  905MOL0     C22080   2.020   6.395   0.706  0.4194  0.1819  0.6635
  905MOL0     C22081   2.158   6.333   0.671  0.6856  0.5896  0.2697
  905MOL0     C22082   2.244   6.407   0.562 -0.9649 -0.2744 -0.0785
  905MOL0     C22083   2.193   6.383   0.416  0.3741 -0.5738  0.9880
  905MOL0     C22084   2.284   6.290   0.336 -0.3731 -0.4873  0.6079
  905MOL0    Cl22085   2.259   6.126   0.401 -0.0114  0.1730 -0.0322
  905MOL0     C22086   1.807   6.363   1.217 -1.0237 -0.1293  0.3280
  905MOL0     C22087   1.747   6.293   1.320  0.0849  0.3152  0.0357
  905MOL0     O22088   1.662   6.061   1.475  0.0597 -0.6019 -0.1599
  905MOL0     C22089   1.674   6.164   1.815 -0.7128  0.4736 -1.4142
  905MOL0     C22090   1.690   6.119   1.949 -0.1583 -0.1181  1.4295
  905MOL0     N22091   1.510   5.960   2.673 -0.2282 -0.0754 -0.9342
  905MOL0     N22092   1.483   6.063   2.748 -0.2325  0.2899  0.2586
  905MOL0     C22093   1.906   6.037   3.880 -1.0832 -0.5392 -0.4746
  905MOL0     C22094   2.000   6.021   3.977 -0.5061  0.2410  0.0937
  905MOL0     C22095   2.383   6.167   4.224  0.2612  0.5801 -0.2267
  905MOL0     C22096   2.323   6.138   4.347  0.1718  0.0909  0.8433
  905MOL0     C22097   2.392   6.172   4.469  0.5111 -0.2183  0.1050
  905MOL0     C22098   2.517   6.236   4.462 -0.0285 -0.0352 -0.6554
  905MOL0     O22099   2.580   6.266   4.580  0.1372  0.2064  0.4931
  905MOL0     C22100   2.724   6.248   4.587  0.0253 -0.2582  0.2463
  905MOL0     C22101   2.808   6.376   4.573 -1.7635 -0.2497  0.2384
  905MOL0     C22102   2.738   6.499   4.619 -0.1820  0.2722 -0.2603
  905MOL0     C22103   2.805   6.636   4.622  0.1198  0.2965 -0.3911
  905MOL0     C22104   2.919   6.631   4.706  0.9159 -1.0234 -0.1600
  905MOL0     C22105   3.008   6.614   4.791  0.2068  0.3390 -0.2740
  905MOL0     C22106   2.578   6.259   4.334 -0.7509 -0.4431 -0.1387
  905MOL0     C22107   2.510   6.216   4.217 -0.3731 -1.1935 -0.4881
  905MOL0     H22108   2.190   6.290   3.909  1.4973 -1.1679 -3.1484
  905MOL0     H22109   2.027   6.329   3.747  0.4862  0.2078 -0.7912
  905MOL0     H22110   1.805   6.385   3.691 -4.1922  0.9988 -1.5187
  905MOL0     H22111   1.922   6.321   3.573 -1.3947  3.6383 -0.7062
  905MOL0     H22112   1.622   6.294   3.558  0.3054  1.5366 -1.3414
  905MOL0     H22113   1.724   6.391   3.453  2.3037  1.2250  1.2653
  905MOL0     H22114   1.827   6.131   3.420  0.3232 -0.9521  0.7167
  905MOL0     H22115   1.658   6.102   3.472  0.0782  0.2391 -1.4361
  905MOL0     H22116   1.608   6.284   3.290 -0.2419 -0.2680  3.4033
  905MOL0     H22117   1.790   6.255   3.243  0.4348 -0.4194  1.3095
  905MOL0     H22118   1.734   6.038   3.186  0.5942 -0.2284 -1.7302
  905MOL0     H22119   1.563   6.049   3.255  0.9015 -3.3162  0.1785
  905MOL0     H22120   1.573   6.032   3.016  0.1395 -0.3508  0.1619
  905MOL0     H22121   1.486   6.168   3.088 -2.2151 -4.0244  1.7544
  905MOL0     H22122   1.677   6.321   3.031  0.1335  0.5491 -2.0107
  905MOL0     H22123   1.777   6.185   2.979  1.4772  3.3523  1.5230
  905MOL0     H22124   1.679   6.318   2.781 -0.8863  2.5356  3.1206
  905MOL0     H22125   1.517   6.291   2.847 -0.5023  0.4098  2.8117
  905MOL0     H22126   1.799   6.090   2.701 -0.2817  0.0665 -0.5501
  905MOL0     H22127   1.826   5.848   2.551  0.4583  2.4860 -1.5804
  905MOL0     H22128   1.679   5.753   2.574  1.3561  0.3291  1.7574
  905MOL0     H22129   1.729   5.987   2.362  1.7975 -0.9842 -0.8243
  905MOL0     H22130   1.582   5.875   2.374 -0.9841 -1.0684  1.3673
  905MOL0     H22131   1.769   5.691   2.316  3.0097  0.1354 -0.1142
  905MOL0     H22132   1.873   5.828   2.280  1.0992 -1.2717 -0.9210
  905MOL0     H22133   1.602   5.784   2.150 -0.3863  2.7490  2.6762
  905MOL0     H22134   1.762   5.757   2.070 -0.4940 -2.3872  0.7640
  905MOL0     H22135   1.680   5.783   1.904 -0.8064 -0.5316 -0.3736
  905MOL0     H22136   1.665   5.725   1.679 -4.2468  1.1379  1.5652
  905MOL0     H22137   1.580   5.835   1.580  0.2790 -0.3236 -1.2920
  905MOL0     H22138   1.758   5.830   1.568 -1.5797  0.0804 -0.9573
  905MOL0     H22139   1.950   6.409   1.561 -0.2524 -0.0028  0.3764
  905MOL0     H22140   2.057   6.528   1.367  0.1400  1.2266  0.5526
  905MOL0     H22141   1.988   6.374   0.995 -3.5629 -0.9269 -0.6849
  905MOL0     H22142   1.852   6.483   0.956 -0.2456 -0.5760  0.4585
  905MOL0     H22143   2.048   6.661   0.930  0.9320  0.1793 -2.0709
  905MOL0     H22144   2.148   6.520   0.914 -0.0033  0.3612 -1.0823
  905MOL0     H22145   2.072   6.598   0.700  1.5038 -0.8739  1.4761
  905MOL0     H22146   1.909   6.579   0.746 -0.1182 -0.0669  0.1565
  905MOL0     H22147   1.968   6.330   0.778  0.8911  1.5402  2.3006
  905MOL0     H22148   1.971   6.408   0.609  0.4159  3.4166  0.9937
  905MOL0     H22149   2.147   6.229   0.636  1.6494 -0.1376  2.0185
  905MOL0     H22150   2.221   6.335   0.760 -2.6048 -1.9236  2.9455
  905MOL0     H22151   2.247   6.513   0.590  1.8095 -0.0310 -1.0067
  905MOL0     H22152   2.349   6.377   0.566 -1.4792 -2.3026 -0.5709
  905MOL0     H22153   2.185   6.477   0.361  0.4069 -2.3609 -2.3211
  905MOL0     H22154   2.091   6.343   0.409  1.0559 -2.3486  0.4745
  905MOL0     H22155   2.389   6.322   0.338 -0.3324 -0.1583 -2.4581
  905MOL0     H22156   2.257   6.285   0.231  0.0645 -0.8951  0.5127
  905MOL0     H22157   1.748   6.349   1.126 -1.9639 -0.8938  1.0339
  905MOL0     H22158   1.667   6.228   1.286  0.7781 -1.3270  1.4654
  905MOL0     H22159   1.680   6.272   1.816 -0.4047  0.5595  2.6112
  905MOL0     H22160   1.681   6.206   2.015 -1.4061  3.0440 -2.5101
  905MOL0     H22161   1.816   5.976   3.877  0.5169 -3.3230  2.2540
  905MOL0     H22162   1.994   5.933   4.040 -0.7453 -0.7440 -1.2818
  905MOL0     H22163   2.219   6.107   4.342  0.5743 -1.0848 -1.6130
  905MOL0     H22164   2.345   6.150   4.564  0.4339 -2.4634 -0.4044
  905MOL0     H22165   2.746   6.207   4.686 -0.2196 -0.2634  0.2984
  905MOL0     H22166   2.753   6.172   4.513 -2.6326 -1.3997  0.2490
  905MOL0     H22167   2.831   6.396   4.468 -0.1467  1.9672  0.9491
  905MOL0     H22168   2.900   6.364   4.632  0.3834  2.8403 -2.1620
  905MOL0     H22169   2.715   6.479   4.723 -0.0724 -0.9838 -0.4694
  905MOL0     H22170   2.647   6.499   4.559 -0.0498  0.0245 -0.4643
  905MOL0     H22171   2.725   6.696   4.666 -1.5921 -1.7779 -0.4803
  905MOL0     H22172   2.819   6.656   4.515 -0.6184 -0.2274 -0.5922
  905MOL0     H22173   3.086   6.594   4.862  0.5424 -2.5147 -1.3195
  905MOL0     H22174   2.663   6.325   4.318 -1.4740 -0.3132 -5.0529
  905MOL0     H22175   2.559   6.240   4.123 -3.2728 -1.2556 -2.1073
  906MOL0     O22176   0.086   0.205   0.797  0.2863 -0.1930 -0.7521
  906MOL0     C22177   0.013   0.104   0.802  0.2929  0.3229  0.0415
  906MOL0     O22178   0.038  -0.019   0.741 -0.1420  0.3036 -0.0075
  906MOL0     C22179   0.149  -0.024   0.661  0.2834 -0.6001 -0.8512
  906MOL0     C22180   0.145   0.024   0.527 -0.0409  0.6779  0.4731
  906MOL0     C22181   0.259   0.023   0.448 -0.2445 -0.1178  0.6744
  906MOL0     C22182   0.383  -0.015   0.506  0.0687  0.0066 -0.8320
  906MOL0     O22183   0.502  -0.007   0.433 -0.2261 -0.3849 -0.1215
  906MOL0     C22184   0.629  -0.024   0.504 -0.2139  0.3456 -0.1155
  906MOL0     C22185   0.740   0.017   0.403  0.5560 -0.4547  0.5855
  906MOL0     C22186   0.868   0.001   0.470 -0.5703 -0.9909 -0.1811
  906MOL0     C22187   0.975   0.011   0.364 -0.6740  0.0315  0.1451
  906MOL0     C22188   1.105   0.086   0.427  0.6075  0.4241  0.0040
  906MOL0     C22189   1.227   0.070   0.332  0.4114 -0.8154  0.8160
  906MOL0     C22190   1.347   0.127   0.393 -0.5005  0.3937 -0.2099
  906MOL0     C22191   1.462   0.166   0.296 -1.5786 -0.4688 -0.2452
  906MOL0     N22192   1.584   0.214   0.366  0.4282 -0.3110  0.2696
  906MOL0     C22193   1.674   0.123   0.426 -0.1155 -0.8467  0.4105
  906MOL0     C22194   1.759   0.205   0.487  0.6972 -0.0981 -0.5130
  906MOL0     C22195   1.871   0.160   0.577 -0.2950  0.0930  0.7768
  906MOL0     C22196   1.976   0.075   0.496 -0.2535  0.1620 -0.3024
  906MOL0     C22197   2.082   0.006   0.577 -0.8352  0.4281 -0.0675
  906MOL0     C22198   2.191  -0.060   0.501  0.9640  0.2490  0.1059
  906MOL0     O22199   2.187  -0.208   0.507  0.5498 -0.2219  0.4537
  906MOL0     C22200   2.296  -0.275   0.448 -0.5478  0.5427 -0.1674
  906MOL0     C22201   2.300  -0.413   0.473 -0.8728 -0.6233 -0.4057
  906MOL0     C22202   2.401  -0.479   0.408  0.3655  1.1993 -0.0510
  906MOL0     C22203   2.415  -0.626   0.455  0.1588 -0.4072 -0.1315
  906MOL0     C22204   2.493  -0.415   0.320 -0.6944 -0.4678  0.9426
  906MOL0     C22205   2.586  -0.484   0.234  0.0413  0.1229  0.6680
  906MOL0     O22206   2.722  -0.476   0.250  0.1725 -0.8617 -0.2261
  906MOL0     C22207   2.804  -0.519   0.146  0.3463  0.0438  0.1549
  906MOL0     C22208   2.839  -0.654   0.128  0.0712 -0.2581 -0.2154
  906MOL0     C22209   2.918  -0.679   0.020 -0.4221  0.7041  0.0243
  906MOL0     C22210   2.964  -0.579  -0.072 -0.0855 -0.2996  0.6914
  906MOL0     O22211   3.030  -0.602  -0.197 -0.1085 -0.1856 -0.1287
  906MOL0     C22212   3.049  -0.740  -0.224  0.0316 -0.1084  0.4704
  906MOL0     C22213   3.171  -0.790  -0.133  1.0751 -0.3727 -0.0327
  906MOL0     C22214   3.303  -0.806  -0.226  0.7782 -0.1310  0.1017
  906MOL0     C22215   3.423  -0.816  -0.137 -0.6737 -0.0875  0.8634
  906MOL0     C22216   3.552  -0.837  -0.212 -0.3393 -0.8083  1.1573
  906MOL0     C22217   3.668  -0.781  -0.133 -0.1908 -0.1204  1.8393
  906MOL0     C22218   3.788  -0.743  -0.224  0.6944  0.2607 -0.0894
  906MOL0     C22219   3.793  -0.608  -0.302  0.1628  0.7091 -0.5246
  906MOL0    Cl22220   3.868  -0.622  -0.456  0.1214 -0.4076 -0.1772
  906MOL0     C22221   2.939  -0.451  -0.042  0.0931 -0.4098 -0.6063
  906MOL0     C22222   2.855  -0.423   0.068 -1.0115  0.3746  0.0064
  906MOL0     O22223   2.536  -0.539   0.137  0.0598  0.3289  0.0754
  906MOL0     C22224   2.478  -0.278   0.290  0.6062  0.4062  1.2759
  906MOL0     C22225   2.380  -0.204   0.354  0.8255 -0.2219 -0.1548
  906MOL0     N22226   1.728   0.339   0.467  0.0350  0.6539  0.2453
  906MOL0     N22227   1.617   0.340   0.399  0.2016 -0.0535  0.7503
  906MOL0     C22228   0.378  -0.071   0.640  0.2109  0.0250 -0.4825
  906MOL0     C22229   0.262  -0.068   0.715 -0.3467 -0.2365  0.4848
  906MOL0     C22230  -0.107   0.095   0.894 -0.5700 -0.8933 -1.5426
  906MOL0     C22231  -0.183  -0.023   0.911 -0.7521 -0.5991 -0.3185
  906MOL0     C22232  -0.283  -0.035   1.008 -0.3268 -0.8371 -0.7958
  906MOL0     C22233  -0.318   0.077   1.094 -0.2099  0.5013  0.1508
  906MOL0     O22234  -0.420   0.062   1.187 -0.5769 -0.4802  0.4828
  906MOL0     C22235  -0.467   0.176   1.258 -0.2536  1.0443 -0.3912
  906MOL0     C22236  -0.392   0.213   1.381 -0.5355  0.9686 -0.2313
  906MOL0     C22237  -0.311   0.105   1.442  0.1666  0.6593 -0.5995
  906MOL0     C22238  -0.261   0.134   1.578 -0.7681  0.1950 -0.3998
  906MOL0     C22239  -0.162   0.243   1.565  0.1034 -0.8299  0.3118
  906MOL0     C22240  -0.081   0.332   1.557 -0.8995 -0.3006  0.1603
  906MOL0     C22241  -0.235   0.192   1.078  1.2356  0.5042  0.1780
  906MOL0     C22242  -0.131   0.195   0.988 -0.7048  0.2817  0.8258
  906MOL0     H22243   0.052   0.059   0.485  1.1989  0.7278 -2.5115
  906MOL0     H22244   0.260   0.052   0.343  0.9757  1.7608  1.1470
  906MOL0     H22245   0.633   0.045   0.589 -2.3444 -2.1486  2.2324
  906MOL0     H22246   0.643  -0.129   0.533  2.9125  0.5212 -0.6299
  906MOL0     H22247   0.736  -0.039   0.309  0.7784  1.7879 -0.8142
  906MOL0     H22248   0.711   0.121   0.385  1.5429 -0.3275 -0.3008
  906MOL0     H22249   0.878   0.076   0.549  0.4460 -3.0622  1.7953
  906MOL0     H22250   0.882  -0.096   0.519 -0.3812 -0.4044  0.9516
  906MOL0     H22251   1.004  -0.088   0.327  1.2010 -0.6509  3.1798
  906MOL0     H22252   0.936   0.064   0.276 -0.9821 -0.6086 -0.1133
  906MOL0     H22253   1.073   0.188   0.451 -3.3475 -0.5152 -0.5252
  906MOL0     H22254   1.128   0.038   0.522  2.8575 -0.7611 -1.0594
  906MOL0     H22255   1.251  -0.033   0.302  0.1052 -0.3316 -1.2228
  906MOL0     H22256   1.199   0.136   0.249 -2.8909  1.3192  3.3257
  906MOL0     H22257   1.327   0.214   0.456  0.4456  0.3399  0.1851
  906MOL0     H22258   1.394   0.052   0.458 -0.9001  0.4432  0.1431
  906MOL0     H22259   1.434   0.246   0.226  2.3270 -0.0433 -1.5681
  906MOL0     H22260   1.495   0.075   0.245 -1.4324 -0.8070  0.4467
  906MOL0     H22261   1.674   0.015   0.433 -1.8396 -0.8341  1.1445
  906MOL0     H22262   1.919   0.246   0.625 -0.2992  0.0079  0.9341
  906MOL0     H22263   1.821   0.094   0.648  1.1365 -1.2434  0.5815
  906MOL0     H22264   2.032   0.142   0.431  0.8475  1.4520  1.8603
  906MOL0     H22265   1.934  -0.002   0.431  2.9228 -2.4890  0.4627
  906MOL0     H22266   2.042  -0.053   0.660  0.0460  3.2126  2.5412
  906MOL0     H22267   2.141   0.082   0.630  0.7062 -0.1604 -0.8646
  906MOL0     H22268   2.284  -0.018   0.539 -0.2283  1.5507  1.7374
  906MOL0     H22269   2.186  -0.023   0.398  1.6956 -2.4894 -0.9978
  906MOL0     H22270   2.222  -0.457   0.534 -1.3508 -0.5837 -0.9833
  906MOL0     H22271   2.333  -0.690   0.423 -1.1935 -0.3057  2.7977
  906MOL0     H22272   2.510  -0.668   0.418 -0.6287 -0.9042 -1.6812
  906MOL0     H22273   2.405  -0.643   0.563  0.5479 -1.4651 -0.2479
  906MOL0     H22274   2.791  -0.720   0.200  0.0843 -0.8296 -0.7150
  906MOL0     H22275   2.944  -0.784   0.008 -2.7586  0.0067  0.5258
  906MOL0     H22276   2.958  -0.800  -0.214 -0.3730  0.1278 -1.5443
  906MOL0     H22277   3.074  -0.762  -0.328 -3.8211 -0.9001 -0.4228
  906MOL0     H22278   3.185  -0.714  -0.055 -2.6422  3.6888 -2.8517
  906MOL0     H22279   3.148  -0.884  -0.082 -0.6924  1.0294  1.9279
  906MOL0     H22280   3.301  -0.720  -0.293 -1.0028  0.5057  0.8998
  906MOL0     H22281   3.282  -0.889  -0.295 -2.7610 -0.3931  1.2959
  906MOL0     H22282   3.426  -0.723  -0.080 -2.3758  0.5715 -0.0348
  906MOL0     H22283   3.408  -0.908  -0.081 -0.1187 -1.6888 -1.4463
  906MOL0     H22284   3.557  -0.784  -0.308 -0.3682 -1.7329  0.6341
  906MOL0     H22285   3.560  -0.943  -0.240 -1.1903  0.0561 -3.0850
  906MOL0     H22286   3.642  -0.694  -0.072  0.0763  0.1854  1.5208
  906MOL0     H22287   3.708  -0.868  -0.080  1.3522  0.4871  1.7174
  906MOL0     H22288   3.793  -0.820  -0.302  1.1304  1.6456 -1.4744
  906MOL0     H22289   3.883  -0.763  -0.174  0.1297 -2.5822  0.0461
  906MOL0     H22290   3.852  -0.534  -0.247  2.1733 -1.6323  0.7022
  906MOL0     H22291   3.691  -0.572  -0.315 -0.3504 -0.4583  0.1054
  906MOL0     H22292   2.980  -0.376  -0.109 -0.3656  1.2584  0.9063
  906MOL0     H22293   2.857  -0.317   0.094 -0.3778  0.0388  1.4452
  906MOL0     H22294   2.526  -0.227   0.207  0.8658 -2.2178 -0.2962
  906MOL0     H22295   2.363  -0.103   0.317  1.4940 -0.6657 -1.7691
  906MOL0     H22296   0.466  -0.103   0.696 -0.8633  1.5963  2.2931
  906MOL0     H22297   0.263  -0.100   0.818  0.1139  1.0401  0.8883
  906MOL0     H22298  -0.158  -0.104   0.843 -3.9696 -1.1911 -0.9391
  906MOL0     H22299  -0.336  -0.129   1.021 -1.3872 -0.1034  0.3204
  906MOL0     H22300  -0.478   0.260   1.189 -1.3660  1.3492  0.1426
  906MOL0     H22301  -0.565   0.149   1.298  0.4533  0.0696  0.7691
  906MOL0     H22302  -0.461   0.252   1.455 -0.8321  0.3069 -0.1481
  906MOL0     H22303  -0.320   0.294   1.363 -0.2350  1.1194  1.5140
  906MOL0     H22304  -0.233   0.067   1.375  0.0968  1.1957 -0.9900
  906MOL0     H22305  -0.379   0.021   1.459  1.8242 -0.4195  0.9973
  906MOL0     H22306  -0.216   0.047   1.626  0.0252  1.1925  0.7530
  906MOL0     H22307  -0.339   0.175   1.642 -0.7911 -0.1161 -0.2252
  906MOL0     H22308  -0.001   0.404   1.556  1.3307 -2.5923  1.6335
  906MOL0     H22309  -0.237   0.285   1.134  0.1501  0.0756  0.8711
  906MOL0     H22310  -0.058   0.276   0.991  1.9821 -1.8149 -1.8523
  907MOL0     O22311   8.626   8.624   4.557 -0.2451  0.6608 -0.1472
  907MOL0     C22312   8.597   8.731   4.509 -0.3727 -0.0997 -0.8122
  907MOL0     O22313   8.482   8.790   4.519  0.7409 -0.0899 -0.7756
  907MOL0     C22314   8.381   8.734   4.590  0.0689 -0.0663 -1.2847
  907MOL0     C22315   8.393   8.699   4.724  0.6237 -0.3924  0.1520
  907MOL0     C22316   8.284   8.657   4.796  0.3553 -0.3554  1.2031
  907MOL0     C22317   8.155   8.682   4.744 -0.1236 -0.1163  0.4444
  907MOL0     O22318   8.044   8.660   4.818  0.2334  0.2240  0.0340
  907MOL0     C22319   7.908   8.643   4.755 -0.9481 -0.8393  0.2814
  907MOL0     C22320   7.815   8.585   4.856  0.5530  0.0063 -0.3814
  907MOL0     C22321   7.665   8.575   4.810 -0.3900  0.1754 -0.1571
  907MOL0     C22322   7.664   8.473   4.696 -0.1743 -0.2020 -0.0510
  907MOL0     C22323   7.519   8.456   4.661  1.4293  0.4158 -0.0332
  907MOL0     C22324   7.438   8.351   4.746  0.0833  0.1900  0.5463
  907MOL0     C22325   7.308   8.340   4.683  0.9365 -0.0422 -0.3453
  907MOL0     C22326   7.221   8.245   4.770 -0.0285  0.5393  0.0406
  907MOL0     N22327   7.084   8.226   4.713  0.6303 -0.6710  0.8163
  907MOL0     C22328   6.970   8.294   4.756  0.3070  0.6207 -0.3179
  907MOL0     C22329   6.874   8.271   4.663 -0.0382 -0.4170 -0.2707
  907MOL0     C22330   6.738   8.335   4.671 -0.6923  0.3387 -0.5058
  907MOL0     C22331   6.653   8.269   4.782  0.3111 -0.2456 -0.6733
  907MOL0     C22332   6.504   8.283   4.769  0.2106  0.2581  0.3746
  907MOL0     C22333   6.438   8.197   4.866  0.7912 -0.3895 -1.1125
  907MOL0     O22334   6.487   8.068   4.863 -0.0156  0.2953  0.4927
  907MOL0     C22335   6.462   7.988   4.971  0.3620  0.3562 -0.1104
  907MOL0     C22336   6.552   7.886   5.002 -0.8300 -0.0557 -0.9472
  907MOL0     C22337   6.530   7.795   5.103 -0.1613 -0.3556  0.6873
  907MOL0     C22338   6.632   7.691   5.118 -0.0874  0.0712  0.2931
  907MOL0     C22339   6.417   7.816   5.190 -0.2565  0.6332 -0.1211
  907MOL0     C22340   6.378   7.715   5.296  0.6165 -1.2435  1.0950
  907MOL0     O22341   6.289   7.752   5.389 -0.7528 -0.4591 -0.2088
  907MOL0     C22342   6.243   7.664   5.479  0.2929  0.6180 -0.3283
  907MOL0     C22343   6.177   7.539   5.444 -0.1478 -0.1194  0.3576
  907MOL0     C22344   6.143   7.449   5.547  0.0484 -0.4733 -0.4115
  907MOL0     C22345   6.154   7.485   5.678 -0.6341 -0.0125  1.0642
  907MOL0     O22346   6.117   7.404   5.784  0.3315  0.4851  0.9263
  907MOL0     C22347   5.999   7.322   5.760  0.4232 -0.0852  0.7182
  907MOL0     C22348   6.035   7.171   5.751 -0.0370 -0.5898  0.5068
  907MOL0     C22349   5.913   7.083   5.758  0.0610 -0.0503  0.3199
  907MOL0     C22350   5.861   7.072   5.902  0.2544  0.4816 -1.0631
  907MOL0     C22351   5.750   6.965   5.915 -0.2152  0.3268 -0.5149
  907MOL0     C22352   5.625   7.002   5.834 -0.2825  0.2424 -0.0047
  907MOL0     C22353   5.543   6.875   5.793  0.0332  0.1195  0.3150
  907MOL0     C22354   5.454   6.812   5.912  1.1055  0.2679 -0.7156
  907MOL0    Cl22355   5.337   6.932   5.986 -0.4636  0.2066  0.1178
  907MOL0     C22356   6.241   7.593   5.713 -0.0179 -0.5847 -0.6618
  907MOL0     C22357   6.275   7.693   5.614  0.1180  0.9193 -0.6785
  907MOL0     O22358   6.427   7.599   5.285  0.1860 -0.1947  0.3785
  907MOL0     C22359   6.329   7.922   5.163 -0.0472  0.3287 -1.0401
  907MOL0     C22360   6.351   8.011   5.060 -0.2178  0.7795 -0.3994
  907MOL0     N22361   6.925   8.168   4.588 -0.6043  0.0074 -0.3495
  907MOL0     N22362   7.050   8.137   4.625  0.0410 -0.0860 -0.1488
  907MOL0     C22363   8.152   8.738   4.613 -0.2009  0.2622  0.3325
  907MOL0     C22364   8.258   8.749   4.528  0.6470 -1.0825 -0.4539
  907MOL0     C22365   8.709   8.818   4.449  0.0343  1.6157  0.0393
  907MOL0     C22366   8.848   8.779   4.448 -0.2565  0.3616  0.4849
  907MOL0     C22367   8.952   8.856   4.397  0.1462  0.3570  0.5699
  907MOL0     C22368   8.920   8.973   4.328  0.5589 -0.4268 -0.5159
  907MOL0     O22369   9.014   9.055   4.286 -0.3150  0.0357 -0.0093
  907MOL0     C22370   9.023   9.065   4.148 -0.8903  0.3762  0.1182
  907MOL0     C22371   9.164   9.031   4.097 -0.0527  0.1370  0.2593
  907MOL0     C22372   9.193   9.066   3.952  0.6211 -0.0523 -0.7300
  907MOL0     C22373   9.180   9.213   3.915  0.3120 -0.5884 -0.3529
  907MOL0     C22374   9.224   9.225   3.776  0.0547 -0.1857  0.4499
  907MOL0     C22375   9.266   9.211   3.663  0.5942 -0.2856  0.5301
  907MOL0     C22376   8.785   9.014   4.322 -0.6033  0.1221  0.5686
  907MOL0     C22377   8.690   8.947   4.408  0.3840 -1.0089  0.9554
  907MOL0     H22378   8.493   8.688   4.767  0.6682 -3.8563 -0.5216
  907MOL0     H22379   8.309   8.614   4.892  3.5562 -1.0504  0.1698
  907MOL0     H22380   7.864   8.736   4.717  0.1996  0.2182  1.4098
  907MOL0     H22381   7.924   8.575   4.671  2.6704 -0.5700  0.5966
  907MOL0     H22382   7.856   8.486   4.876 -0.5881 -0.2479  0.7878
  907MOL0     H22383   7.823   8.653   4.942 -0.1490 -1.7958  1.1605
  907MOL0     H22384   7.615   8.537   4.900  1.7111 -1.9201  0.2250
  907MOL0     H22385   7.636   8.678   4.786  2.0001  0.9769  0.0493
  907MOL0     H22386   7.728   8.484   4.608 -0.1990 -1.8529 -0.3080
  907MOL0     H22387   7.701   8.376   4.732  0.6822 -0.1334 -0.7276
  907MOL0     H22388   7.475   8.555   4.675  1.3164  0.4445 -0.5512
  907MOL0     H22389   7.511   8.425   4.556 -2.0223 -0.7113  0.4459
  907MOL0     H22390   7.485   8.252   4.751 -1.8702 -0.8384 -0.2915
  907MOL0     H22391   7.428   8.393   4.847 -0.7948  0.8088  0.2143
  907MOL0     H22392   7.256   8.437   4.685 -1.4113 -1.2521 -0.0125
  907MOL0     H22393   7.311   8.296   4.583  1.0271  1.0489 -0.8485
  907MOL0     H22394   7.195   8.281   4.870 -3.1298 -1.3710  0.0740
  907MOL0     H22395   7.273   8.149   4.763  1.3830  1.3276 -0.6379
  907MOL0     H22396   6.956   8.367   4.835 -0.7598 -0.2944  0.3799
  907MOL0     H22397   6.746   8.440   4.699  1.0900  0.4327 -1.1989
  907MOL0     H22398   6.688   8.332   4.574 -0.8407 -0.4987 -0.4120
  907MOL0     H22399   6.691   8.301   4.880 -0.2985  0.3322 -0.6186
  907MOL0     H22400   6.664   8.160   4.777 -1.6463 -0.7152  2.5844
  907MOL0     H22401   6.477   8.259   4.666 -1.9917  2.8622  0.2309
  907MOL0     H22402   6.470   8.386   4.774 -0.1282  0.1069  1.3665
  907MOL0     H22403   6.330   8.213   4.856  0.4851 -2.1605 -1.0062
  907MOL0     H22404   6.468   8.244   4.961  0.1224  3.3141 -2.5815
  907MOL0     H22405   6.651   7.881   4.957  0.0882  1.3509  0.7627
  907MOL0     H22406   6.638   7.663   5.223  4.2110 -0.8681 -0.0026
  907MOL0     H22407   6.618   7.601   5.057  2.7176 -0.2609 -0.0063
  907MOL0     H22408   6.726   7.735   5.082 -0.3251  1.5809  1.4185
  907MOL0     H22409   6.153   7.511   5.342 -0.5397 -4.8972  1.5398
  907MOL0     H22410   6.107   7.350   5.524  1.1399 -1.3416  1.4281
  907MOL0     H22411   5.930   7.328   5.845 -0.8006  1.4496 -0.3272
  907MOL0     H22412   5.950   7.341   5.664 -0.4839 -0.6487  1.0558
  907MOL0     H22413   6.087   7.156   5.656 -0.2320 -0.1531  0.3299
  907MOL0     H22414   6.104   7.160   5.836  2.3112  1.3700 -1.0156
  907MOL0     H22415   5.942   6.985   5.720  0.2982  0.0821  0.1563
  907MOL0     H22416   5.837   7.132   5.696 -1.2779 -2.3369  0.0180
  907MOL0     H22417   5.939   7.049   5.976 -4.5983 -0.1346  4.6264
  907MOL0     H22418   5.825   7.161   5.955  0.7492 -2.9342  6.3149
  907MOL0     H22419   5.714   6.944   6.016  0.9977 -1.5408 -0.4166
  907MOL0     H22420   5.793   6.871   5.878 -0.7565  0.1736 -0.7727
  907MOL0     H22421   5.568   7.074   5.894 -0.4618 -1.0810  1.4693
  907MOL0     H22422   5.649   7.056   5.742 -2.6036 -1.8315 -1.9667
  907MOL0     H22423   5.614   6.802   5.755  0.8302  0.8488  0.3871
  907MOL0     H22424   5.485   6.905   5.705  1.5011  3.1543  0.2440
  907MOL0     H22425   5.513   6.784   6.000  1.3023  4.3007  0.6135
  907MOL0     H22426   5.408   6.717   5.881  0.9930 -0.0871  0.4841
  907MOL0     H22427   6.254   7.613   5.819  1.6305 -0.1779 -0.9128
  907MOL0     H22428   6.322   7.782   5.652 -0.0730  2.1749 -3.2008
  907MOL0     H22429   6.244   7.936   5.230  0.2520 -2.3208  0.0263
  907MOL0     H22430   6.278   8.090   5.052 -0.3187  1.0020  2.1055
  907MOL0     H22431   8.058   8.754   4.560 -0.0776 -5.1841 -2.1399
  907MOL0     H22432   8.255   8.770   4.421 -3.3898 -1.1222 -0.4915
  907MOL0     H22433   8.877   8.682   4.489  2.3968  0.1507 -1.6108
  907MOL0     H22434   9.055   8.822   4.404  0.1732 -0.2391 -1.7961
  907MOL0     H22435   8.946   9.014   4.089  2.0929 -2.6278 -1.4860
  907MOL0     H22436   9.009   9.171   4.125 -2.6078 -0.3774 -2.9348
  907MOL0     H22437   9.185   8.925   4.113  2.7936  0.8627  1.8743
  907MOL0     H22438   9.229   9.091   4.161  1.6326  0.8604 -2.0163
  907MOL0     H22439   9.123   9.007   3.892  0.9664 -0.1073 -1.0878
  907MOL0     H22440   9.293   9.025   3.934  0.8155  0.6904 -1.3598
  907MOL0     H22441   9.233   9.274   3.990 -2.9337  1.8553  0.1978
  907MOL0     H22442   9.076   9.248   3.919  0.6687  0.6566 -1.2072
  907MOL0     H22443   9.306   9.188   3.566 -1.2955 -0.9632 -0.1268
  907MOL0     H22444   8.762   9.111   4.279 -0.5057  0.4605  1.2718
  907MOL0     H22445   8.589   8.986   4.412  0.0998 -1.8090  2.2832
  908MOL0     O22446   8.762   0.017   2.482 -0.0383 -0.3728  0.1027
  908MOL0     C22447   8.713   0.075   2.380  0.0828  1.0563  0.0017
  908MOL0     O22448   8.587   0.077   2.341  0.1896 -0.2543  0.3577
  908MOL0     C22449   8.492   0.012   2.412  0.3164  0.1492 -0.2282
  908MOL0     C22450   8.484  -0.125   2.425  0.1932  0.0591  0.0050
  908MOL0     C22451   8.384  -0.181   2.509 -0.3878  0.4992  0.5000
  908MOL0     C22452   8.277  -0.106   2.554  0.5811 -0.3302  0.6299
  908MOL0     O22453   8.174  -0.167   2.619  0.2661  0.1029  0.5267
  908MOL0     C22454   8.053  -0.092   2.656 -0.5851  0.4147  0.3505
  908MOL0     C22455   7.941  -0.176   2.718 -0.8529  0.3512  0.1200
  908MOL0     C22456   7.810  -0.096   2.754 -1.4740  0.3582  0.0378
  908MOL0     C22457   7.735  -0.174   2.863  0.9964  0.2229  0.1679
  908MOL0     C22458   7.604  -0.099   2.902  0.0958  0.7839 -0.4746
  908MOL0     C22459   7.534  -0.162   3.018  0.5362 -0.0132  0.1128
  908MOL0     C22460   7.394  -0.092   3.025  0.7771  0.7013  0.3476
  908MOL0     C22461   7.321  -0.123   3.158 -0.6935 -0.3370  0.1917
  908MOL0     N22462   7.180  -0.081   3.162 -0.5857  0.9791  0.5093
  908MOL0     C22463   7.093  -0.145   3.075 -0.2160 -0.9997 -0.0913
  908MOL0     C22464   6.970  -0.090   3.112  0.0507 -0.8437 -0.2398
  908MOL0     C22465   6.834  -0.113   3.047 -0.0784 -0.1827 -0.8968
  908MOL0     C22466   6.717  -0.046   3.116 -0.3347  0.8252  0.1354
  908MOL0     C22467   6.596  -0.087   3.049 -0.5260  0.1746  0.2758
  908MOL0     C22468   6.482  -0.019   3.113 -0.1320 -1.0376  0.7188
  908MOL0     O22469   6.438  -0.070   3.234 -1.1802  0.1138 -0.2429
  908MOL0     C22470   6.367   0.005   3.318 -0.6069  0.4193 -0.4969
  908MOL0     C22471   6.362  -0.021   3.456  0.8073 -0.3354 -0.1087
  908MOL0     C22472   6.279   0.055   3.546 -0.5572 -0.4061 -0.0924
  908MOL0     C22473   6.293   0.004   3.689 -0.4542  0.2845  0.9901
  908MOL0     C22474   6.202   0.166   3.508  1.0545  0.6645 -0.1624
  908MOL0     C22475   6.101   0.243   3.590 -0.7169 -0.6543 -0.4566
  908MOL0     O22476   6.022   0.343   3.519 -0.6262 -0.4617 -0.0485
  908MOL0     C22477   5.942   0.432   3.592 -0.0417 -0.2280 -0.4055
  908MOL0     C22478   5.804   0.446   3.557 -0.1064  0.6151  0.0315
  908MOL0     C22479   5.721   0.516   3.643  0.4473 -0.4048  0.8715
  908MOL0     C22480   5.769   0.586   3.762  0.5533  0.4910 -0.5414
  908MOL0     O22481   5.697   0.666   3.850 -0.1909 -0.3990  0.1193
  908MOL0     C22482   5.554   0.654   3.859  0.5300  0.3462 -0.6705
  908MOL0     C22483   5.520   0.616   3.999 -0.8070 -0.4664  0.0028
  908MOL0     C22484   5.548   0.465   4.021  0.4183 -0.1804  0.6007
  908MOL0     C22485   5.452   0.417   4.138  0.3554  0.2349  0.9900
  908MOL0     C22486   5.447   0.270   4.153  0.3305 -0.2199 -0.2682
  908MOL0     C22487   5.394   0.193   4.035  0.0256  0.0928 -0.6222
  908MOL0     C22488   5.440   0.044   4.034 -0.8863  1.1659 -0.2652
  908MOL0     C22489   5.415  -0.030   4.165 -0.6541 -1.0559  0.4100
  908MOL0    Cl22490   5.245  -0.014   4.212  0.4618  0.6695 -0.2027
  908MOL0     C22491   5.902   0.579   3.792 -0.9205  0.3565 -0.4557
  908MOL0     C22492   5.988   0.497   3.704 -0.8488  0.6821 -0.3304
  908MOL0     O22493   6.084   0.216   3.701  0.9362  0.6995 -0.6578
  908MOL0     C22494   6.208   0.194   3.365  0.1973  0.1090  0.0393
  908MOL0     C22495   6.302   0.122   3.282 -0.8487  0.0031 -0.6543
  908MOL0     N22496   6.987  -0.009   3.222 -0.9982 -0.7169  0.3308
  908MOL0     N22497   7.107  -0.014   3.249 -0.4498 -0.2920  0.2775
  908MOL0     C22498   8.276   0.035   2.519  0.5244  0.0268  0.9672
  908MOL0     C22499   8.382   0.093   2.455 -0.5095  1.3426  0.1080
  908MOL0     C22500   8.806   0.128   2.288  0.3106 -0.3319 -0.1521
  908MOL0     C22501   8.942   0.119   2.313 -0.3317 -0.1121 -0.9396
  908MOL0     C22502   9.036   0.185   2.233  0.1780 -0.4972 -0.2628
  908MOL0     C22503   8.985   0.262   2.120 -0.3017 -0.4141 -0.0362
  908MOL0     O22504   9.058   0.320   2.019 -0.1658 -0.4007 -0.2430
  908MOL0     C22505   9.194   0.279   1.988 -0.8804 -0.6602 -0.1663
  908MOL0     C22506   9.300   0.392   2.035  0.2182  0.1227  0.7682
  908MOL0     C22507   9.442   0.333   2.016  0.3590 -0.8874  0.9498
  908MOL0     C22508   9.472   0.266   1.881  0.0613  0.2803 -0.2161
  908MOL0     C22509   9.443   0.348   1.764  0.2941 -0.2862 -0.5119
  908MOL0     C22510   9.415   0.402   1.662  0.6879 -0.9227  0.1176
  908MOL0     C22511   8.849   0.267   2.095 -1.2187 -0.0744 -0.5817
  908MOL0     C22512   8.758   0.202   2.181 -0.1564 -0.1674 -0.0961
  908MOL0     H22513   8.551  -0.194   2.375 -2.4011 -1.8277 -1.1484
  908MOL0     H22514   8.381  -0.288   2.524  3.0450  0.2465  0.1761
  908MOL0     H22515   8.079  -0.012   2.726 -3.2129  1.5544  0.1715
  908MOL0     H22516   8.012  -0.050   2.564  1.4972 -0.8767 -1.2489
  908MOL0     H22517   7.919  -0.255   2.646 -1.0252  1.2037 -0.7833
  908MOL0     H22518   7.974  -0.209   2.817 -3.3500  0.9666  1.2463
  908MOL0     H22519   7.834   0.005   2.791 -1.4740  0.4609 -0.2425
  908MOL0     H22520   7.747  -0.091   2.665 -0.6854 -1.2982 -0.6397
  908MOL0     H22521   7.715  -0.278   2.836 -2.1874  0.2482  1.9202
  908MOL0     H22522   7.796  -0.186   2.953  0.6121 -3.7593  0.0887
  908MOL0     H22523   7.633  -0.000   2.938 -0.0395  1.9138 -3.2296
  908MOL0     H22524   7.533  -0.094   2.818  1.1381  1.1257 -1.3538
  908MOL0     H22525   7.518  -0.269   2.997 -0.0777  0.6991 -3.8671
  908MOL0     H22526   7.589  -0.150   3.111  1.5769  1.5481 -0.6725
  908MOL0     H22527   7.416   0.013   3.003  0.2574  0.6441 -0.4775
  908MOL0     H22528   7.332  -0.123   2.941  1.0157 -0.2391  0.5008
  908MOL0     H22529   7.378  -0.068   3.234  0.5114 -0.4676 -0.5969
  908MOL0     H22530   7.342  -0.230   3.165 -0.7482 -0.2429  2.5497
  908MOL0     H22531   7.108  -0.207   2.988 -2.2198  2.1365 -2.8986
  908MOL0     H22532   6.839  -0.066   2.948  0.5691  1.5649 -0.0605
  908MOL0     H22533   6.825  -0.222   3.045  1.9133 -0.4911  1.9462
  908MOL0     H22534   6.727   0.063   3.108  1.5930  0.6435 -0.6889
  908MOL0     H22535   6.704  -0.066   3.223  0.2045 -2.5368 -0.3073
  908MOL0     H22536   6.572  -0.193   3.058 -4.1477  0.7840 -0.4194
  908MOL0     H22537   6.593  -0.072   2.941 -1.2720 -1.1083  0.0930
  908MOL0     H22538   6.398  -0.035   3.044  0.2765 -0.0437 -0.0243
  908MOL0     H22539   6.513   0.086   3.111  3.2464 -1.9195  1.7589
  908MOL0     H22540   6.433  -0.100   3.481  1.0470  0.6636  2.7644
  908MOL0     H22541   6.387  -0.051   3.694 -0.6419 -0.3404 -1.2862
  908MOL0     H22542   6.300   0.090   3.756  1.1962  1.5019 -0.6596
  908MOL0     H22543   6.212  -0.070   3.695 -0.0860 -0.4203 -1.6980
  908MOL0     H22544   5.769   0.397   3.467  4.2839 -2.4085 -0.3699
  908MOL0     H22545   5.617   0.510   3.613  0.7722 -0.4747 -0.3052
  908MOL0     H22546   5.502   0.748   3.834 -1.2305  0.4789  2.8191
  908MOL0     H22547   5.506   0.581   3.793  1.6237 -1.7216  0.7390
  908MOL0     H22548   5.585   0.681   4.060 -0.3826  1.2080 -2.1262
  908MOL0     H22549   5.419   0.641   4.032 -0.4489  0.5159  0.4163
  908MOL0     H22550   5.653   0.456   4.049  0.3451  0.6984  1.1816
  908MOL0     H22551   5.530   0.406   3.931  3.6808 -3.5036  1.8831
  908MOL0     H22552   5.480   0.462   4.233 -0.9360 -2.3908  2.7445
  908MOL0     H22553   5.354   0.458   4.113  1.4858  2.9342  0.6862
  908MOL0     H22554   5.391   0.252   4.245  2.0121  1.6779  1.2027
  908MOL0     H22555   5.548   0.233   4.171  0.3276  0.6573  1.7737
  908MOL0     H22556   5.286   0.196   4.023 -0.1588 -2.5028 -0.2105
  908MOL0     H22557   5.432   0.226   3.937 -0.2724 -2.4172 -1.6596
  908MOL0     H22558   5.546   0.043   4.006 -0.8879 -0.0795 -0.2539
  908MOL0     H22559   5.376  -0.005   3.961 -0.3975  1.0330 -0.6075
  908MOL0     H22560   5.477   0.018   4.241  0.3557 -1.0028 -0.4286
  908MOL0     H22561   5.451  -0.133   4.166  0.2494 -0.7550  1.1956
  908MOL0     H22562   5.933   0.620   3.888 -0.3970 -0.1236 -0.4127
  908MOL0     H22563   6.091   0.475   3.732 -1.0868 -0.1056 -0.0387
  908MOL0     H22564   6.153   0.269   3.308  0.4647 -0.8021 -1.4688
  908MOL0     H22565   6.318   0.159   3.182 -3.7875 -1.9243 -1.9791
  908MOL0     H22566   8.194   0.099   2.549  0.5944 -0.0982  1.4349
  908MOL0     H22567   8.397   0.198   2.432  1.1361  0.8457 -1.2985
  908MOL0     H22568   8.984   0.050   2.385 -1.4534  0.3761  0.2244
  908MOL0     H22569   9.142   0.174   2.256 -0.6452 -1.5114  3.7363
  908MOL0     H22570   9.220   0.187   2.040 -1.1814 -0.3797  0.4970
  908MOL0     H22571   9.194   0.274   1.879 -3.0290  1.4960 -0.3386
  908MOL0     H22572   9.290   0.410   2.143 -0.3778 -1.7565  1.0539
  908MOL0     H22573   9.267   0.479   1.977 -1.3191  0.8503  2.6116
  908MOL0     H22574   9.448   0.254   2.092 -1.8679 -2.4807 -0.4111
  908MOL0     H22575   9.516   0.411   2.037  0.0039 -0.4140  0.4671
  908MOL0     H22576   9.406   0.179   1.880 -1.2234  1.1776  1.5431
  908MOL0     H22577   9.579   0.252   1.864 -0.3723 -2.8191 -0.9660
  908MOL0     H22578   9.388   0.447   1.568  1.1824 -0.6238  0.1185
  908MOL0     H22579   8.812   0.328   2.013  1.2322  0.0308 -1.7142
  908MOL0     H22580   8.655   0.224   2.153  0.0233  0.8424 -0.0207
  909MOL0     O22581   2.875   9.049   8.207  0.3975  0.1832 -0.5161
  909MOL0     C22582   2.761   9.087   8.230 -0.3314 -0.1346  1.3738
  909MOL0     O22583   2.654   9.090   8.140 -0.4932  0.0814  0.0676
  909MOL0     C22584   2.655   9.033   8.015 -0.3504 -0.0018  0.4367
  909MOL0     C22585   2.768   9.015   7.937  0.1956  0.2578  0.2775
  909MOL0     C22586   2.758   8.979   7.798 -0.6050  0.2394 -1.9659
  909MOL0     C22587   2.637   8.940   7.747  0.5117 -0.6088  0.1757
  909MOL0     O22588   2.620   8.888   7.618  0.5176  0.2603 -0.5784
  909MOL0     C22589   2.728   8.871   7.530 -0.0967  0.3579  0.3428
  909MOL0     C22590   2.681   8.788   7.408  0.0718  0.2372 -0.3205
  909MOL0     C22591   2.555   8.852   7.353 -0.4999 -0.3440 -0.0813
  909MOL0     C22592   2.539   8.798   7.206  0.4884 -0.0044 -0.7184
  909MOL0     C22593   2.432   8.879   7.129  0.5044 -0.1604 -0.5994
  909MOL0     C22594   2.396   8.838   6.988 -0.7796 -0.1875  0.0597
  909MOL0     C22595   2.521   8.795   6.902  0.2264  0.5943 -0.4537
  909MOL0     C22596   2.481   8.791   6.757  0.3494 -0.7886  0.8410
  909MOL0     N22597   2.575   8.727   6.668 -0.6709  0.9914  0.2302
  909MOL0     C22598   2.625   8.598   6.687 -0.4224 -0.3404 -0.3945
  909MOL0     C22599   2.719   8.580   6.592 -0.1847  0.0425  0.1685
  909MOL0     C22600   2.781   8.450   6.549  0.5967 -0.5127 -0.2058
  909MOL0     C22601   2.923   8.425   6.587  0.6186 -0.0460 -0.0085
  909MOL0     C22602   2.997   8.309   6.514 -0.7632 -0.2709 -0.0838
  909MOL0     C22603   3.143   8.290   6.554 -0.3253  0.4111  0.7515
  909MOL0     O22604   3.217   8.190   6.480  0.4270  0.3773  0.1042
  909MOL0     C22605   3.352   8.159   6.495 -0.1238  0.1688 -0.3940
  909MOL0     C22606   3.454   8.238   6.554  1.3842 -0.0739  0.1591
  909MOL0     C22607   3.587   8.189   6.578 -0.1075  0.1604  0.5604
  909MOL0     C22608   3.674   8.268   6.659  0.8046  0.2288 -0.0224
  909MOL0     C22609   3.633   8.062   6.524  0.4546  0.2725  0.7511
  909MOL0     C22610   3.774   8.001   6.528  0.2406 -0.4095  0.6190
  909MOL0     O22611   3.780   7.868   6.491 -0.1211  0.5194  0.3612
  909MOL0     C22612   3.896   7.791   6.497  0.7748  0.0681 -0.3008
  909MOL0     C22613   4.015   7.819   6.549 -0.7813  0.3330 -0.6137
  909MOL0     C22614   4.116   7.715   6.548  0.5322 -0.1887  0.6959
  909MOL0     C22615   4.102   7.589   6.487 -0.7384 -0.5068 -0.2141
  909MOL0     O22616   4.197   7.494   6.508 -0.0478 -0.1330 -0.4544
  909MOL0     C22617   4.165   7.361   6.476  0.8322  0.5876 -0.6723
  909MOL0     C22618   4.281   7.262   6.497 -0.1532  0.2094 -0.6171
  909MOL0     C22619   4.293   7.230   6.651 -0.4676 -0.4603  0.6017
  909MOL0     C22620   4.417   7.150   6.674 -0.9395  0.4686  0.0839
  909MOL0     C22621   4.440   7.137   6.826 -0.2397  0.8648  0.8459
  909MOL0     C22622   4.532   7.011   6.860  0.8850 -0.8165 -1.5660
  909MOL0     C22623   4.673   7.022   6.798 -0.9390  0.1061  0.1774
  909MOL0     C22624   4.773   6.915   6.841  0.9024  0.3765 -0.5758
  909MOL0    Cl22625   4.921   6.920   6.740 -0.2107  0.0873  0.0336
  909MOL0     C22626   3.988   7.579   6.409 -0.3289  0.7318 -0.5725
  909MOL0     C22627   3.883   7.671   6.425 -0.7039  0.4011  0.2298
  909MOL0     O22628   3.864   8.077   6.547 -0.3063  1.1064  0.0781
  909MOL0     C22629   3.531   7.993   6.446  0.8183  0.9155 -0.2643
  909MOL0     C22630   3.399   8.042   6.438  0.1449  0.2695 -1.0426
  909MOL0     N22631   2.728   8.701   6.520  0.4743 -0.1131  0.2203
  909MOL0     N22632   2.653   8.782   6.567  0.3728  1.1049 -0.5579
  909MOL0     C22633   2.519   8.974   7.828 -0.5460 -0.0778  0.1070
  909MOL0     C22634   2.525   9.013   7.956  0.1021 -0.4296  0.1977
  909MOL0     C22635   2.729   9.144   8.359 -0.2361  0.2903 -0.4267
  909MOL0     C22636   2.836   9.174   8.449 -0.2387 -0.9855  0.0954
  909MOL0     C22637   2.810   9.230   8.572 -0.2902  0.1115  0.1548
  909MOL0     C22638   2.674   9.259   8.611 -0.7779  0.6495 -1.4817
  909MOL0     O22639   2.644   9.306   8.741  0.3838  0.3259 -0.2046
  909MOL0     C22640   2.508   9.344   8.792  0.2886  0.3120  0.0116
  909MOL0     C22641   2.517   9.354   8.940 -0.5479  0.8457 -0.2805
  909MOL0     C22642   2.556   9.497   8.976 -0.2617 -0.3318 -0.1041
  909MOL0     C22643   2.587   9.510   9.123 -0.9495 -0.1011  0.4775
  909MOL0     C22644   2.468   9.550   9.198 -0.1074  0.3527 -0.6580
  909MOL0     C22645   2.373   9.592   9.269 -0.2048  0.1921  0.8847
  909MOL0     C22646   2.570   9.231   8.524  0.0210 -0.5505 -0.0511
  909MOL0     C22647   2.591   9.175   8.394 -0.8180  0.5241 -0.2511
  909MOL0     H22648   2.867   9.023   7.982 -0.7386  2.1934  2.1827
  909MOL0     H22649   2.848   8.976   7.737 -0.1182 -0.0979 -1.2396
  909MOL0     H22650   2.771   8.966   7.500 -0.0568  0.1126 -0.4015
  909MOL0     H22651   2.812   8.817   7.574 -0.6970  0.5138  1.7543
  909MOL0     H22652   2.769   8.792   7.343  1.5758 -0.4171  1.5645
  909MOL0     H22653   2.655   8.689   7.447 -1.9667  0.3412 -1.3370
  909MOL0     H22654   2.467   8.834   7.415 -2.0328  1.6150 -1.5518
  909MOL0     H22655   2.574   8.960   7.342  0.2647 -0.5203 -0.6094
  909MOL0     H22656   2.635   8.801   7.154  0.3188  1.8883 -0.9875
  909MOL0     H22657   2.506   8.694   7.207  0.6856 -0.0783 -1.3453
  909MOL0     H22658   2.342   8.878   7.191  2.5516 -2.5733  2.6584
  909MOL0     H22659   2.483   8.976   7.128  0.9074 -0.2916  1.6722
  909MOL0     H22660   2.332   8.750   7.000  1.0130 -1.6172 -0.4330
  909MOL0     H22661   2.326   8.913   6.951 -1.8727  0.2801  2.8326
  909MOL0     H22662   2.599   8.866   6.928 -1.2709  1.0839  3.5049
  909MOL0     H22663   2.558   8.697   6.934 -3.5964 -1.1326 -0.7665
  909MOL0     H22664   2.461   8.895   6.730 -0.6248 -1.4548 -1.1827
  909MOL0     H22665   2.376   8.762   6.749 -0.4985  1.7806  1.6762
  909MOL0     H22666   2.597   8.523   6.761  0.3045 -0.8701 -0.6506
  909MOL0     H22667   2.722   8.365   6.582 -0.1503  0.6139  1.5330
  909MOL0     H22668   2.776   8.451   6.440  0.4812 -1.3549 -0.2101
  909MOL0     H22669   2.934   8.404   6.694  3.4749  3.3673  0.5825
  909MOL0     H22670   2.985   8.513   6.567  0.4079 -0.5106 -3.2852
  909MOL0     H22671   2.997   8.339   6.409  0.1732 -0.5664 -0.1835
  909MOL0     H22672   2.937   8.219   6.527 -0.0837 -0.4392  2.5974
  909MOL0     H22673   3.153   8.267   6.661  0.1446 -2.7781  0.1166
  909MOL0     H22674   3.184   8.392   6.546 -1.1919  0.6809 -0.4687
  909MOL0     H22675   3.423   8.338   6.585  1.7634  0.2959 -0.6509
  909MOL0     H22676   3.617   8.345   6.711  0.7950 -0.7016  1.4155
  909MOL0     H22677   3.732   8.199   6.722  1.2450  0.6057 -0.0098
  909MOL0     H22678   3.749   8.316   6.596 -0.7483 -0.0898 -2.2650
  909MOL0     H22679   4.042   7.898   6.619  4.2658 -0.4732 -1.2606
  909MOL0     H22680   4.199   7.723   6.618 -2.0584  0.0453  3.9620
  909MOL0     H22681   4.070   7.332   6.522  0.3265  0.6050 -1.6695
  909MOL0     H22682   4.150   7.363   6.367  0.2559  3.6488 -0.6151
  909MOL0     H22683   4.263   7.168   6.445 -0.2981  0.7210 -1.5030
  909MOL0     H22684   4.372   7.311   6.460  0.7324 -0.2820  0.8128
  909MOL0     H22685   4.207   7.176   6.692  0.6503 -1.3491  1.8475
  909MOL0     H22686   4.311   7.323   6.706 -0.4407  1.4912 -2.4620
  909MOL0     H22687   4.403   7.051   6.630 -1.0200  0.6183 -0.2315
  909MOL0     H22688   4.501   7.206   6.630  0.1112  2.0532  3.7191
  909MOL0     H22689   4.343   7.122   6.874 -0.4372 -1.3248 -0.1134
  909MOL0     H22690   4.468   7.231   6.873  0.1201  0.5018  1.3599
  909MOL0     H22691   4.541   7.003   6.969 -0.3052 -1.3745 -1.4920
  909MOL0     H22692   4.484   6.919   6.827  1.3194 -0.7808 -2.3111
  909MOL0     H22693   4.728   7.115   6.819  2.0275 -1.6627  0.9301
  909MOL0     H22694   4.665   7.007   6.690  2.3111 -0.3804 -0.1122
  909MOL0     H22695   4.716   6.823   6.822  0.3364 -0.1293  2.9387
  909MOL0     H22696   4.791   6.898   6.947 -1.7604  2.1584  0.2491
  909MOL0     H22697   3.969   7.497   6.340  1.6407 -0.3784  0.1137
  909MOL0     H22698   3.786   7.656   6.377 -0.4410 -0.1376 -0.1399
  909MOL0     H22699   3.538   7.898   6.395 -2.7686  1.5674 -2.2955
  909MOL0     H22700   3.320   7.983   6.392 -0.1298 -0.1888 -0.0150
  909MOL0     H22701   2.429   8.966   7.767  0.9477 -3.5914 -2.0201
  909MOL0     H22702   2.441   9.049   8.014  2.1574  3.0886  1.3096
  909MOL0     H22703   2.937   9.166   8.408  0.7414 -0.3303  2.2526
  909MOL0     H22704   2.886   9.267   8.641  0.5469  3.5305 -2.3428
  909MOL0     H22705   2.465   9.434   8.747 -0.6777 -1.1364 -2.1451
  909MOL0     H22706   2.437   9.263   8.770 -0.0225  1.3992 -3.6121
  909MOL0     H22707   2.597   9.285   8.968 -2.1871 -0.6607  0.8721
  909MOL0     H22708   2.435   9.310   8.997  1.0247 -1.4163  0.3755
  909MOL0     H22709   2.475   9.568   8.958 -1.2059 -1.4285 -0.3335
  909MOL0     H22710   2.638   9.538   8.917 -1.3808  0.8378 -0.9158
  909MOL0     H22711   2.654   9.596   9.129  0.6249 -1.2149 -0.4367
  909MOL0     H22712   2.638   9.430   9.177  1.8217  0.1438 -1.5873
  909MOL0     H22713   2.283   9.612   9.324  0.1366  0.0196  1.5037
  909MOL0     H22714   2.468   9.241   8.562  0.0220 -0.1806 -0.1387
  909MOL0     H22715   2.516   9.143   8.324  0.1985 -0.8261 -0.7630
  910MOL0     O22716   6.923   2.550   7.037 -0.0631 -0.1766  0.8271
  910MOL0     C22717   7.035   2.540   6.989  0.5684 -0.4549  0.1859
  910MOL0     O22718   7.131   2.444   7.006  0.0134 -0.1916 -0.6817
  910MOL0     C22719   7.115   2.339   7.087 -0.5201  0.2113  0.1018
  910MOL0     C22720   7.230   2.279   7.150  0.3822  0.1761  0.6264
  910MOL0     C22721   7.221   2.174   7.240 -0.8433 -0.3131  0.1845
  910MOL0     C22722   7.094   2.115   7.268  0.8927  0.8163 -0.5849
  910MOL0     O22723   7.073   2.015   7.362 -0.2080 -0.2060 -0.4695
  910MOL0     C22724   7.188   1.924   7.371 -0.4545  0.4537 -0.8246
  910MOL0     C22725   7.152   1.809   7.463 -0.0921 -0.3124  1.0148
  910MOL0     C22726   7.244   1.696   7.421  1.4184 -0.1395 -0.8026
  910MOL0     C22727   7.223   1.581   7.527 -0.3015  0.2168 -0.4069
  910MOL0     C22728   7.315   1.454   7.488  0.1012 -0.7267 -0.2478
  910MOL0     C22729   7.324   1.345   7.590  0.1239 -0.2155 -0.4931
  910MOL0     C22730   7.208   1.234   7.591 -0.8099  0.5176 -0.7361
  910MOL0     C22731   7.262   1.107   7.647 -0.0309  0.2006 -0.4247
  910MOL0     N22732   7.340   1.028   7.560 -0.2739  0.1912 -0.5650
  910MOL0     C22733   7.473   0.996   7.569  1.2249  0.6141  0.2232
  910MOL0     C22734   7.485   0.884   7.492 -0.3178 -0.3834  0.1606
  910MOL0     C22735   7.602   0.797   7.483  0.1460  0.3299 -0.5371
  910MOL0     C22736   7.735   0.872   7.472 -0.1423  1.3189 -0.3096
  910MOL0     C22737   7.736   0.943   7.328 -0.0932 -0.4528 -0.6609
  910MOL0     C22738   7.864   1.026   7.316 -0.2194  0.0731  0.2837
  910MOL0     O22739   7.983   0.946   7.324  1.3283  0.3476 -1.1335
  910MOL0     C22740   8.091   0.998   7.259 -0.4857  0.4182  0.3261
  910MOL0     C22741   8.111   1.134   7.217 -0.0725  0.0306 -0.0659
  910MOL0     C22742   8.235   1.166   7.159 -0.1728 -0.1561 -0.1675
  910MOL0     C22743   8.252   1.303   7.103  0.6625 -0.0864  0.1119
  910MOL0     C22744   8.342   1.074   7.146  0.6894 -0.6190 -0.4655
  910MOL0     C22745   8.472   1.099   7.088  0.0526 -0.3386  0.2563
  910MOL0     O22746   8.523   1.002   7.008  0.7433  0.5731  0.6316
  910MOL0     C22747   8.653   0.998   6.970  1.0602  1.3981 -0.4534
  910MOL0     C22748   8.701   1.012   6.838  0.2749 -0.8233 -0.2632
  910MOL0     C22749   8.838   0.992   6.804 -1.2099 -0.3084  0.0641
  910MOL0     C22750   8.932   0.971   6.907  0.3600 -0.1776 -0.8908
  910MOL0     O22751   9.069   0.959   6.883 -0.1905 -0.4924 -0.6676
  910MOL0     C22752   9.125   0.930   6.750 -0.1938  0.5567 -0.5349
  910MOL0     C22753   9.275   0.913   6.771  0.5594  0.2538  0.2576
  910MOL0     C22754   9.331   0.828   6.650  0.0111  0.3103  0.7537
  910MOL0     C22755   9.486   0.800   6.671  0.1959  0.2180 -1.3123
  910MOL0     C22756   9.584   0.910   6.621 -0.6382  0.6169 -0.1147
  910MOL0     C22757   9.725   0.860   6.589 -0.6361  0.5648  0.4425
  910MOL0     C22758   9.819   0.826   6.707  0.3997  0.4912  0.1194
  910MOL0     C22759   9.916   0.711   6.685  0.1011  0.6100 -0.1221
  910MOL0    Cl22760  10.003   0.731   6.537  0.1140 -0.5202 -0.0275
  910MOL0     C22761   8.885   0.946   7.040  0.9760 -0.0573 -0.0398
  910MOL0     C22762   8.754   0.958   7.071  0.5827  0.2612 -0.2036
  910MOL0     O22763   8.541   1.197   7.124 -1.0222  0.8357 -0.4565
  910MOL0     C22764   8.311   0.942   7.184  0.1330  0.5073 -0.2922
  910MOL0     C22765   8.194   0.906   7.236  0.8788  0.4495  0.0441
  910MOL0     N22766   7.369   0.862   7.426  0.2556  0.6639  1.4463
  910MOL0     N22767   7.293   0.956   7.454  0.2963  0.1306  0.3045
  910MOL0     C22768   6.981   2.158   7.202 -0.3778 -1.0875  0.4666
  910MOL0     C22769   6.992   2.274   7.115  1.1626  0.2848 -1.0946
  910MOL0     C22770   7.067   2.657   6.901 -0.2451  1.1444 -0.2710
  910MOL0     C22771   7.196   2.672   6.839 -0.2874  0.5653  0.0562
  910MOL0     C22772   7.235   2.787   6.774  0.4217  0.5635 -0.8893
  910MOL0     C22773   7.138   2.888   6.768 -1.0425 -0.3479 -0.1660
  910MOL0     O22774   7.188   2.987   6.689 -0.0012  0.6159  0.0522
  910MOL0     C22775   7.148   3.122   6.725  0.4590 -0.9553  0.9531
  910MOL0     C22776   7.226   3.222   6.646  0.0097 -0.1978 -0.3908
  910MOL0     C22777   7.180   3.360   6.678 -0.2042 -0.8791 -0.6739
  910MOL0     C22778   7.233   3.415   6.817  0.3669  0.2559 -0.6981
  910MOL0     C22779   7.380   3.425   6.817 -0.3220 -0.3381 -0.0438
  910MOL0     C22780   7.501   3.428   6.818  0.6850 -0.3279 -0.5569
  910MOL0     C22781   7.012   2.879   6.830 -0.0282  1.0288  0.4976
  910MOL0     C22782   6.974   2.759   6.883 -0.8248 -0.6871 -0.2400
  910MOL0     H22783   7.327   2.314   7.116  0.0920 -3.1083 -4.8460
  910MOL0     H22784   7.312   2.140   7.287  0.7631  1.8142 -1.2025
  910MOL0     H22785   7.218   1.888   7.272  3.7760  2.2216 -0.3851
  910MOL0     H22786   7.272   1.972   7.421  0.1018  0.4415 -1.7315
  910MOL0     H22787   7.163   1.840   7.567  0.0024 -0.3302  1.0099
  910MOL0     H22788   7.045   1.792   7.445 -0.3833  1.7252  0.5113
  910MOL0     H22789   7.231   1.667   7.316 -0.6312  0.9048 -0.8829
  910MOL0     H22790   7.345   1.729   7.445  1.1217  0.3657 -0.2191
  910MOL0     H22791   7.253   1.615   7.626  2.7556 -2.4200 -0.2426
  910MOL0     H22792   7.119   1.548   7.535 -1.0135  2.5231  0.6469
  910MOL0     H22793   7.283   1.415   7.391 -0.1319  1.7863 -1.2539
  910MOL0     H22794   7.417   1.492   7.477  1.1013 -3.2698 -0.3523
  910MOL0     H22795   7.419   1.292   7.574  0.0688 -1.0401  1.5839
  910MOL0     H22796   7.327   1.390   7.690  1.7943 -0.3674 -0.4425
  910MOL0     H22797   7.130   1.278   7.654  1.3112  1.5800  1.3097
  910MOL0     H22798   7.172   1.219   7.489 -1.4051 -1.7224 -0.2339
  910MOL0     H22799   7.173   1.047   7.668  0.7148 -1.4154 -1.6520
  910MOL0     H22800   7.308   1.131   7.744 -0.6131 -2.0770  0.4744
  910MOL0     H22801   7.545   1.027   7.644  0.5184  2.6144  0.1236
  910MOL0     H22802   7.610   0.746   7.579  0.5294  1.6815  0.1669
  910MOL0     H22803   7.589   0.725   7.402 -0.6017  0.3185 -0.4086
  910MOL0     H22804   7.821   0.807   7.490 -0.5007  0.6587 -0.9218
  910MOL0     H22805   7.738   0.948   7.551  0.2814  0.1763  0.7969
  910MOL0     H22806   7.644   1.002   7.320 -1.8502 -1.9739  4.2628
  910MOL0     H22807   7.731   0.863   7.254 -1.0957 -1.3333  0.3243
  910MOL0     H22808   7.864   1.086   7.408 -1.3086  0.2016  0.2201
  910MOL0     H22809   7.860   1.085   7.224 -0.4549 -2.9217 -1.7564
  910MOL0     H22810   8.033   1.209   7.226  0.5740  1.0065 -2.0505
  910MOL0     H22811   8.287   1.302   6.999 -0.8861  3.2876 -0.5790
  910MOL0     H22812   8.157   1.357   7.112 -0.0135 -0.7481 -2.3123
  910MOL0     H22813   8.327   1.358   7.161  2.2235  1.2750 -2.9140
  910MOL0     H22814   8.624   1.043   6.769 -1.8794 -0.2699  2.2004
  910MOL0     H22815   8.880   0.989   6.704  1.0661  0.4249  0.9277
  910MOL0     H22816   9.088   0.834   6.712 -2.5902  0.9851  0.5333
  910MOL0     H22817   9.120   1.009   6.675 -3.6575  0.5736 -0.4531
  910MOL0     H22818   9.329   1.006   6.789  1.6105 -0.0251 -1.2607
  910MOL0     H22819   9.285   0.850   6.860  1.8557 -1.0349 -0.7569
  910MOL0     H22820   9.310   0.877   6.554 -2.4317  0.1745  1.1549
  910MOL0     H22821   9.279   0.732   6.643  2.4920 -0.9498 -2.2978
  910MOL0     H22822   9.510   0.784   6.777 -0.1850 -3.8346 -1.6813
  910MOL0     H22823   9.514   0.698   6.643  0.3215 -0.0452 -0.3026
  910MOL0     H22824   9.570   1.002   6.677 -3.8752 -0.0949  0.4458
  910MOL0     H22825   9.544   0.920   6.520  1.1899  0.6658 -0.8766
  910MOL0     H22826   9.710   0.763   6.540 -0.0689  0.9112 -0.4364
  910MOL0     H22827   9.772   0.936   6.526 -1.7430 -0.5916 -1.9044
  910MOL0     H22828   9.764   0.805   6.799  2.1784 -1.0216  0.9010
  910MOL0     H22829   9.871   0.917   6.736 -3.4015  3.1808 -0.7337
  910MOL0     H22830   9.864   0.616   6.669  0.4283  0.3568  0.2816
  910MOL0     H22831   9.986   0.702   6.768  0.4479 -1.7465 -0.5789
  910MOL0     H22832   8.959   0.912   7.111  2.0405 -0.6037 -1.3754
  910MOL0     H22833   8.722   0.929   7.171 -1.6758  0.5555 -0.7744
  910MOL0     H22834   8.393   0.871   7.176 -0.8329 -0.7243  0.2964
  910MOL0     H22835   8.187   0.805   7.275 -1.0579  0.2369 -0.7613
  910MOL0     H22836   6.889   2.115   7.240 -0.4653  0.3508  1.9554
  910MOL0     H22837   6.898   2.301   7.068  2.0057  1.1369 -2.3718
  910MOL0     H22838   7.269   2.593   6.847  0.3158  1.2765  2.0434
  910MOL0     H22839   7.335   2.796   6.733  0.8755  2.0544  0.4343
  910MOL0     H22840   7.041   3.140   6.710  0.7541 -0.6896 -1.1359
  910MOL0     H22841   7.170   3.147   6.829 -2.5452 -2.7888  2.1914
  910MOL0     H22842   7.199   3.210   6.541  0.5547  3.2021 -1.0223
  910MOL0     H22843   7.332   3.200   6.655 -0.1588 -1.1617 -0.6541
  910MOL0     H22844   7.070   3.363   6.675 -0.2019  0.0882 -0.2217
  910MOL0     H22845   7.218   3.430   6.604 -0.5511 -1.7390 -1.6844
  910MOL0     H22846   7.206   3.350   6.901 -2.1740  1.9188 -0.0964
  910MOL0     H22847   7.188   3.509   6.850  0.6752  0.1186  0.1599
  910MOL0     H22848   7.607   3.416   6.826  0.6909 -0.2517 -0.5146
  910MOL0     H22849   6.937   2.957   6.843 -1.8525 -1.0467  3.6399
  910MOL0     H22850   6.877   2.755   6.932  0.2344  0.0043  2.0291
  911MOL0     O22851   8.821   3.875  11.054 -0.0872  0.1552  0.2841
  911MOL0     C22852   8.903   3.901  11.143  0.6800 -0.1036 -0.6044
  911MOL0     O22853   8.868   3.977  11.254  0.2942  0.5129  0.3172
  911MOL0     C22854   8.737   4.011  11.271 -0.1200  0.2797  0.9186
  911MOL0     C22855   8.707   4.144  11.270 -1.1424  0.0031 -0.6478
  911MOL0     C22856   8.575   4.198  11.291 -0.3728 -0.0783  0.1966
  911MOL0     C22857   8.472   4.105  11.290 -0.1941  0.5110 -0.5337
  911MOL0     O22858   8.339   4.127  11.302 -0.5799 -0.1244 -0.3288
  911MOL0     C22859   8.290   4.252  11.262  0.8215  0.0919  0.4292
  911MOL0     C22860   8.169   4.287  11.341  0.9383 -0.4380 -0.1861
  911MOL0     C22861   8.051   4.188  11.316 -0.6218  0.0473 -0.9174
  911MOL0     C22862   7.919   4.241  11.368 -0.5329  0.5245 -0.6690
  911MOL0     C22863   7.800   4.142  11.366  0.1200 -0.3184 -0.0842
  911MOL0     C22864   7.819   4.017  11.453 -0.3308 -0.0476 -0.5530
  911MOL0     C22865   7.682   3.948  11.474  0.3328 -0.0923 -0.4119
  911MOL0     C22866   7.634   3.850  11.365 -0.2883  0.4379 -0.7604
  911MOL0     N22867   7.494   3.812  11.366  0.1216 -0.4533 -0.4949
  911MOL0     C22868   7.423   3.740  11.464  0.8654 -0.5384 -0.8750
  911MOL0     C22869   7.295   3.736  11.416 -0.1730  0.3765 -0.8705
  911MOL0     C22870   7.180   3.676  11.490 -0.4335  0.2662  0.5001
  911MOL0     C22871   7.232   3.548  11.561 -0.1698  0.3600  0.2497
  911MOL0     C22872   7.123   3.456  11.616  0.7431  0.6173  0.3444
  911MOL0     C22873   7.151   3.424  11.758  0.4414  0.4378  0.0396
  911MOL0     O22874   7.030   3.384  11.827  0.7305 -0.5639 -0.2610
  911MOL0     C22875   6.963   3.279  11.770 -0.7402  0.3389  0.2688
  911MOL0     C22876   7.025   3.151  11.752 -0.2402  1.0366  0.8976
  911MOL0     C22877   6.957   3.042  11.690 -0.2298 -0.1916 -0.0366
  911MOL0     C22878   7.034   2.914  11.688  0.6836 -0.5666 -0.1399
  911MOL0     C22879   6.825   3.067  11.651  0.1282  0.7399 -0.2777
  911MOL0     C22880   6.736   2.953  11.604 -0.3245 -0.5153 -0.0862
  911MOL0     O22881   6.610   3.001  11.585  0.9439  0.3556  0.1375
  911MOL0     C22882   6.519   2.897  11.584  0.3581  0.0296 -0.7033
  911MOL0     C22883   6.518   2.804  11.483 -0.1703  0.1847 -0.7136
  911MOL0     C22884   6.422   2.697  11.486 -0.8475 -0.0640  0.0177
  911MOL0     C22885   6.324   2.687  11.592 -0.2644 -0.8613 -0.0691
  911MOL0     O22886   6.227   2.594  11.606 -0.5313 -0.8626  0.5666
  911MOL0     C22887   6.141   2.568  11.488 -0.0038  0.9476 -0.5432
  911MOL0     C22888   6.161   2.415  11.461  1.0770  0.2559  0.2125
  911MOL0     C22889   6.102   2.353  11.332  0.4570  0.3498  0.1006
  911MOL0     C22890   5.987   2.255  11.361  0.3261  0.8452 -0.1829
  911MOL0     C22891   5.904   2.230  11.244 -1.0814 -0.0366  0.1808
  911MOL0     C22892   5.757   2.195  11.270 -0.1331  0.2091  0.6434
  911MOL0     C22893   5.692   2.140  11.140  0.0654  0.6797 -0.0796
  911MOL0     C22894   5.551   2.116  11.164 -0.2409  0.0545  0.2917
  911MOL0    Cl22895   5.460   2.259  11.222  0.1620 -0.0256  0.1443
  911MOL0     C22896   6.332   2.775  11.689  0.5209  0.3401  0.3440
  911MOL0     C22897   6.433   2.875  11.697  0.2800  0.6246  0.1974
  911MOL0     O22898   6.770   2.839  11.618  0.4208  0.2872 -0.3687
  911MOL0     C22899   6.762   3.191  11.684 -1.0073  1.0122  0.8808
  911MOL0     C22900   6.830   3.299  11.735  0.2861  0.3236  0.3469
  911MOL0     N22901   7.289   3.789  11.291  0.1610  0.5220  0.5156
  911MOL0     N22902   7.400   3.841  11.271 -0.3177 -0.1733  0.3776
  911MOL0     C22903   8.491   3.965  11.281 -0.3378 -0.4603 -0.1413
  911MOL0     C22904   8.626   3.918  11.271 -0.2469 -0.7613 -1.1761
  911MOL0     C22905   9.036   3.838  11.127 -0.2263  0.3040 -0.8044
  911MOL0     C22906   9.075   3.776  11.010 -0.2906 -0.0814 -0.0122
  911MOL0     C22907   9.215   3.740  10.990  0.8628  0.7932  0.2819
  911MOL0     C22908   9.304   3.756  11.102 -1.0863 -0.2242  1.2286
  911MOL0     O22909   9.441   3.733  11.091  0.5933 -0.4285 -0.1288
  911MOL0     C22910   9.472   3.603  11.048 -0.1293 -0.3452 -0.1955
  911MOL0     C22911   9.623   3.545  11.057 -0.3851 -0.7135  0.2063
  911MOL0     C22912   9.631   3.410  10.995 -0.2072  0.1071  0.4643
  911MOL0     C22913   9.771   3.353  11.009  0.0539  0.7772 -0.5140
  911MOL0     C22914   9.786   3.228  10.932  0.0677 -0.5555 -0.0148
  911MOL0     C22915   9.790   3.128  10.866 -0.5857 -0.2288  0.0685
  911MOL0     C22916   9.264   3.840  11.210  0.4829  0.1588  0.7869
  911MOL0     C22917   9.129   3.864  11.229 -0.5223 -0.1898  0.8492
  911MOL0     H22918   8.787   4.218  11.269 -1.4433  0.3266 -0.8957
  911MOL0     H22919   8.558   4.305  11.295 -0.1820  0.0144 -1.1074
  911MOL0     H22920   8.350   4.343  11.276 -0.6789  1.3668 -0.9441
  911MOL0     H22921   8.277   4.245  11.154 -0.5439 -0.7693  0.6253
  911MOL0     H22922   8.183   4.310  11.447 -0.3083 -0.3011 -0.0385
  911MOL0     H22923   8.127   4.378  11.297 -2.9579 -1.8145  0.2983
  911MOL0     H22924   8.044   4.167  11.209  0.3362 -0.3602 -0.9039
  911MOL0     H22925   8.074   4.097  11.371 -2.9367 -1.3033 -2.0066
  911MOL0     H22926   7.938   4.276  11.470 -0.6112  0.9381 -0.7909
  911MOL0     H22927   7.905   4.333  11.309  2.7369 -0.4126 -3.2508
  911MOL0     H22928   7.713   4.200  11.399  0.5833  0.0676  0.4914
  911MOL0     H22929   7.790   4.116  11.261 -2.0942 -1.5346  0.3798
  911MOL0     H22930   7.902   3.959  11.411 -0.9882 -0.6590 -1.0288
  911MOL0     H22931   7.846   4.056  11.551  1.3031 -0.7134 -0.6911
  911MOL0     H22932   7.697   3.891  11.566  1.8895 -4.3977 -3.0277
  911MOL0     H22933   7.597   4.017  11.485  2.1266  2.0822  0.5019
  911MOL0     H22934   7.696   3.760  11.371  1.5567  1.7394  2.5364
  911MOL0     H22935   7.655   3.884  11.263  0.9971  0.3071 -0.5592
  911MOL0     H22936   7.461   3.704  11.559  1.5325  0.8233 -0.6016
  911MOL0     H22937   7.144   3.743  11.568  0.0117 -0.4062  1.2937
  911MOL0     H22938   7.105   3.643  11.418  1.8004 -5.8981  0.3612
  911MOL0     H22939   7.291   3.591  11.642 -0.6959  0.1638  0.7467
  911MOL0     H22940   7.301   3.485  11.504 -0.6682 -1.2401  1.3387
  911MOL0     H22941   7.115   3.374  11.543  3.0097  1.3452 -0.8277
  911MOL0     H22942   7.029   3.511  11.616  0.4103  0.2638 -2.7948
  911MOL0     H22943   7.190   3.516  11.803  4.0315 -0.3433 -1.1760
  911MOL0     H22944   7.222   3.344  11.777 -2.0194 -1.0428  4.6436
  911MOL0     H22945   7.126   3.148  11.792 -1.2748  1.6817  3.8099
  911MOL0     H22946   6.991   2.847  11.763 -1.8429  3.0499  1.8961
  911MOL0     H22947   7.023   2.883  11.583 -4.0454 -0.0489 -0.0109
  911MOL0     H22948   7.140   2.937  11.706  1.0185 -0.4775 -2.0054
  911MOL0     H22949   6.592   2.815  11.405  0.3340 -1.3463 -0.4942
  911MOL0     H22950   6.425   2.630  11.401 -0.3644 -2.5273  1.8899
  911MOL0     H22951   6.036   2.573  11.515  0.5668 -1.8305  3.0016
  911MOL0     H22952   6.166   2.633  11.403  0.6995  4.3107  2.0028
  911MOL0     H22953   6.267   2.389  11.462  0.7550 -1.2259 -0.8081
  911MOL0     H22954   6.098   2.370  11.539 -0.3270  0.6750 -0.6453
  911MOL0     H22955   6.180   2.288  11.292 -1.1112 -0.0161 -2.5585
  911MOL0     H22956   6.065   2.432  11.266  2.5720  2.3747  1.2067
  911MOL0     H22957   6.015   2.159  11.404 -3.5515  0.5281  2.0699
  911MOL0     H22958   5.923   2.303  11.435  1.8433 -0.2109  1.9107
  911MOL0     H22959   5.938   2.135  11.202 -1.3776  1.4127 -3.7684
  911MOL0     H22960   5.913   2.309  11.169 -1.1794 -0.4206 -0.2366
  911MOL0     H22961   5.747   2.117  11.346  3.6033 -2.2385 -1.0678
  911MOL0     H22962   5.704   2.286  11.297 -0.4294 -0.0190  0.8335
  911MOL0     H22963   5.741   2.046  11.112 -0.9658 -0.0710  0.5754
  911MOL0     H22964   5.707   2.218  11.065  0.0813 -0.4642 -1.3171
  911MOL0     H22965   5.540   2.045  11.246 -0.8080  1.4144  1.4210
  911MOL0     H22966   5.495   2.080  11.077 -0.9773  1.0402  0.3392
  911MOL0     H22967   6.274   2.776  11.781  1.7013  7.0476  1.5311
  911MOL0     H22968   6.433   2.951  11.775  2.2574 -2.1683  3.1870
  911MOL0     H22969   6.658   3.212  11.659 -1.4212  3.3538  4.0402
  911MOL0     H22970   6.777   3.392  11.752 -2.1338 -0.9466  0.1769
  911MOL0     H22971   8.407   3.898  11.267 -0.2968 -0.8884  1.4529
  911MOL0     H22972   8.635   3.812  11.247 -1.4119 -1.0354 -0.4957
  911MOL0     H22973   9.005   3.774  10.927 -0.2609 -1.5684 -0.0269
  911MOL0     H22974   9.256   3.731  10.890 -2.5329  0.9252 -1.2484
  911MOL0     H22975   9.411   3.530  11.102  1.8568 -0.4778  2.0679
  911MOL0     H22976   9.443   3.597  10.943  0.0423  1.0234 -0.3423
  911MOL0     H22977   9.654   3.548  11.162 -0.5559  1.6452  0.2597
  911MOL0     H22978   9.688   3.613  11.000  0.1375 -2.7693 -1.7777
  911MOL0     H22979   9.595   3.424  10.893 -2.4267 -0.1089  1.1504
  911MOL0     H22980   9.572   3.334  11.048  1.5842 -0.5530  1.5834
  911MOL0     H22981   9.796   3.322  11.111 -2.4006 -3.7411 -0.9798
  911MOL0     H22982   9.848   3.413  10.960  0.9039 -2.0301 -2.8712
  911MOL0     H22983   9.804   3.038  10.810 -4.3305 -1.8493  1.4249
  911MOL0     H22984   9.338   3.865  11.285 -2.1659 -2.0859  4.4689
  911MOL0     H22985   9.088   3.915  11.316 -3.9808 -0.2580 -0.5729
  912MOL0     O22986   7.000   4.366   4.366 -0.1506 -1.0190  0.4102
  912MOL0     C22987   6.935   4.261   4.383  0.3771 -0.4078 -0.2563
  912MOL0     O22988   6.796   4.249   4.400 -0.5918  0.1380  0.0359
  912MOL0     C22989   6.722   4.360   4.444 -0.1520  0.8564 -0.0325
  912MOL0     C22990   6.593   4.383   4.387 -0.4540 -0.1053 -0.3926
  912MOL0     C22991   6.519   4.496   4.430  0.6024 -0.1720  0.8324
  912MOL0     C22992   6.561   4.573   4.532 -0.5785 -0.8590  0.8018
  912MOL0     O22993   6.476   4.662   4.590 -0.2018 -0.0585  0.3877
  912MOL0     C22994   6.521   4.765   4.679 -0.3528 -0.2560 -0.0026
  912MOL0     C22995   6.395   4.823   4.743  0.4356 -1.1860  0.0861
  912MOL0     C22996   6.315   4.902   4.643 -0.4896  0.5300 -0.6031
  912MOL0     C22997   6.179   4.921   4.708  0.2896  0.4252 -0.0240
  912MOL0     C22998   6.105   5.035   4.640 -0.3584  0.8824 -0.6329
  912MOL0     C22999   5.946   5.010   4.653 -0.3232 -0.1556 -0.3697
  912MOL0     C23000   5.863   5.099   4.561  0.9961  1.3246  0.3888
  912MOL0     C23001   5.713   5.097   4.578  0.7818 -0.1304  0.7906
  912MOL0     N23002   5.646   5.146   4.456 -0.7367 -0.1688 -0.5116
  912MOL0     C23003   5.516   5.122   4.420 -0.1748 -0.8495 -0.3186
  912MOL0     C23004   5.493   5.198   4.311  0.6548  0.6224 -0.8627
  912MOL0     C23005   5.360   5.230   4.260  0.2163 -0.1054  0.4643
  912MOL0     C23006   5.298   5.102   4.184  0.2992 -0.1449  0.0835
  912MOL0     C23007   5.367   5.057   4.056  0.7269  1.3199 -0.8164
  912MOL0     C23008   5.381   5.160   3.951  0.4460 -0.5663  0.6520
  912MOL0     O23009   5.276   5.254   3.942 -0.1570  0.0315  0.1110
  912MOL0     C23010   5.169   5.243   3.859  0.0422  0.0968 -0.0096
  912MOL0     C23011   5.095   5.353   3.845  1.2277 -1.6192 -0.0990
  912MOL0     C23012   4.970   5.370   3.771  0.4517  0.1193  0.4365
  912MOL0     C23013   4.881   5.493   3.796 -0.7187 -0.2584  0.4648
  912MOL0     C23014   4.942   5.256   3.687  0.9350 -0.5481 -0.0006
  912MOL0     C23015   4.812   5.241   3.625 -0.6687  0.1699 -0.5608
  912MOL0     O23016   4.710   5.160   3.672 -0.0988 -0.4073 -0.4226
  912MOL0     C23017   4.579   5.189   3.636 -0.3099  0.1735 -0.4354
  912MOL0     C23018   4.488   5.233   3.733  0.1003 -0.2627  0.1449
  912MOL0     C23019   4.356   5.258   3.701 -0.2388  0.6728  0.1156
  912MOL0     C23020   4.303   5.246   3.573 -0.5199  0.6707  1.0683
  912MOL0     O23021   4.176   5.268   3.529  0.4123  0.0484 -0.7443
  912MOL0     C23022   4.070   5.280   3.629 -0.4408  0.4387  0.4489
  912MOL0     C23023   3.975   5.389   3.573  0.1813 -0.4783  0.2962
  912MOL0     C23024   3.916   5.328   3.444 -0.3954  0.7418 -0.1937
  912MOL0     C23025   3.825   5.432   3.376  0.0635 -0.1728 -0.0573
  912MOL0     C23026   3.730   5.367   3.281  0.6443 -0.7059  0.5978
  912MOL0     C23027   3.608   5.462   3.249 -0.1357  0.7251 -0.5585
  912MOL0     C23028   3.645   5.578   3.170 -0.4892 -0.3970  0.2222
  912MOL0     C23029   3.688   5.538   3.028 -0.5708 -0.4880  0.5678
  912MOL0    Cl23030   3.681   5.675   2.911  0.3406  0.0189 -0.3031
  912MOL0     C23031   4.399   5.209   3.476  0.5067  0.6442 -0.2873
  912MOL0     C23032   4.535   5.182   3.510 -0.3751  0.5154  0.4371
  912MOL0     O23033   4.802   5.297   3.517  0.0602 -0.3430  1.0383
  912MOL0     C23034   5.030   5.145   3.685 -0.0374  0.3007 -0.4839
  912MOL0     C23035   5.139   5.136   3.779  1.2721 -0.1305 -0.6194
  912MOL0     N23036   5.603   5.281   4.291 -0.4039 -0.1193 -0.7596
  912MOL0     N23037   5.696   5.248   4.380  0.4680  0.2726 -0.3703
  912MOL0     C23038   6.697   4.560   4.578 -0.5666 -0.3054  0.9353
  912MOL0     C23039   6.775   4.456   4.534 -0.7085  0.0131  0.0805
  912MOL0     C23040   7.013   4.137   4.375  0.2129  0.2052  0.6229
  912MOL0     C23041   7.136   4.139   4.306  0.0338  0.5373 -0.1992
  912MOL0     C23042   7.205   4.022   4.297  0.4267  0.7327  0.1404
  912MOL0     C23043   7.153   3.894   4.332 -0.2675  0.2758  0.4002
  912MOL0     O23044   7.234   3.793   4.295  0.2333  0.7503 -0.0630
  912MOL0     C23045   7.187   3.657   4.311 -0.1234 -1.2006 -0.1288
  912MOL0     C23046   7.314   3.566   4.293 -0.6164 -0.8854  0.9494
  912MOL0     C23047   7.287   3.423   4.247  0.1532  0.6283  0.9911
  912MOL0     C23048   7.406   3.333   4.240 -0.0931  0.4184 -0.2174
  912MOL0     C23049   7.455   3.314   4.380 -0.1378  0.2244 -0.9778
  912MOL0     C23050   7.501   3.333   4.488 -0.0803 -0.2124  0.7744
  912MOL0     C23051   7.031   3.894   4.392  0.3087 -0.4029 -0.0204
  912MOL0     C23052   6.953   4.014   4.411 -0.1881  0.7590  0.2657
  912MOL0     H23053   6.567   4.308   4.314 -0.5478 -0.3324 -0.1278
  912MOL0     H23054   6.415   4.510   4.404  0.4614 -0.9377  0.9719
  912MOL0     H23055   6.581   4.740   4.767 -0.1311 -0.4950 -0.2182
  912MOL0     H23056   6.576   4.827   4.609  1.3194 -2.6714 -0.9579
  912MOL0     H23057   6.339   4.740   4.785 -1.1372  0.2881  1.0532
  912MOL0     H23058   6.417   4.887   4.829  1.0372 -2.3652  0.8191
  912MOL0     H23059   6.356   4.995   4.604 -0.5054 -0.4469 -3.1518
  912MOL0     H23060   6.298   4.842   4.553  2.5772 -0.8964 -0.3432
  912MOL0     H23061   6.121   4.829   4.718  0.0943  0.7711  2.7626
  912MOL0     H23062   6.187   4.963   4.808  1.1191 -1.6662  0.8302
  912MOL0     H23063   6.141   5.131   4.677 -0.2335  1.5509 -2.3654
  912MOL0     H23064   6.121   5.037   4.531  0.1672  2.2436 -0.5508
  912MOL0     H23065   5.929   4.905   4.626 -0.3704  0.3143 -2.3415
  912MOL0     H23066   5.911   5.030   4.755 -0.4598 -1.7029 -0.0960
  912MOL0     H23067   5.893   5.202   4.586  0.1729  1.8126 -0.5457
  912MOL0     H23068   5.886   5.066   4.460 -3.3256 -2.1687  0.2133
  912MOL0     H23069   5.681   5.158   4.663  1.0816  0.8480  0.2073
  912MOL0     H23070   5.668   5.006   4.619  0.1821 -0.0831  0.2623
  912MOL0     H23071   5.438   5.075   4.479 -2.4391  1.3924 -1.3675
  912MOL0     H23072   5.286   5.274   4.328 -0.7250 -0.3136 -0.3928
  912MOL0     H23073   5.374   5.308   4.184  1.3714 -0.7353  0.0138
  912MOL0     H23074   5.196   5.128   4.155  0.6842 -1.1120 -2.3576
  912MOL0     H23075   5.293   5.014   4.248  3.0134 -0.8366 -0.5489
  912MOL0     H23076   5.319   4.967   4.016 -0.4464  0.3923  2.3858
  912MOL0     H23077   5.466   5.019   4.084 -0.2109 -0.5433  0.1706
  912MOL0     H23078   5.395   5.102   3.859 -0.8844  2.3674 -1.5614
  912MOL0     H23079   5.468   5.221   3.978  0.8299 -1.0369  0.5024
  912MOL0     H23080   5.111   5.425   3.924 -0.5941  0.7750 -1.7678
  912MOL0     H23081   4.780   5.477   3.758 -1.7282  0.2697  2.7099
  912MOL0     H23082   4.867   5.509   3.904 -1.1687  0.1145  0.3564
  912MOL0     H23083   4.926   5.581   3.749 -0.0429 -0.9873 -0.2820
  912MOL0     H23084   4.515   5.231   3.838 -2.7997 -3.7448  1.0249
  912MOL0     H23085   4.308   5.296   3.790 -0.4663  0.9535 -0.1256
  912MOL0     H23086   4.005   5.195   3.654 -2.0659  1.8951  1.3244
  912MOL0     H23087   4.115   5.325   3.718  2.6419  0.5963 -1.0765
  912MOL0     H23088   3.901   5.414   3.648 -0.1822  0.7036 -0.4345
  912MOL0     H23089   4.030   5.480   3.548  0.8648 -0.7773  0.6670
  912MOL0     H23090   3.855   5.241   3.468  2.0858 -0.2429  3.2419
  912MOL0     H23091   3.999   5.301   3.377  0.7095  0.6361  1.1740
  912MOL0     H23092   3.762   5.490   3.444  1.1335  0.5314  0.3711
  912MOL0     H23093   3.887   5.507   3.325  1.0756  0.7197  2.3410
  912MOL0     H23094   3.686   5.272   3.312  0.5833 -1.0369 -0.4573
  912MOL0     H23095   3.773   5.343   3.183  0.8546 -0.6017  0.6637
  912MOL0     H23096   3.533   5.409   3.190  0.1432 -0.8598  0.4508
  912MOL0     H23097   3.563   5.493   3.344  0.4699 -1.0879  0.3600
  912MOL0     H23098   3.728   5.640   3.207 -0.9936  1.0249 -0.9101
  912MOL0     H23099   3.556   5.639   3.155  1.3006  2.1537 -0.8639
  912MOL0     H23100   3.625   5.457   2.989 -0.6915 -0.1903  0.1402
  912MOL0     H23101   3.788   5.496   3.031 -0.4094 -0.0999  0.7760
  912MOL0     H23102   4.359   5.194   3.376 -1.3438 -1.3182  0.6560
  912MOL0     H23103   4.613   5.165   3.436  0.8129  3.0337  0.9949
  912MOL0     H23104   4.992   5.056   3.635 -0.7963  1.4945 -2.1205
  912MOL0     H23105   5.193   5.043   3.793  1.9295  0.2975 -0.3066
  912MOL0     H23106   6.731   4.639   4.645 -1.5835  0.6074  0.4047
  912MOL0     H23107   6.876   4.452   4.572 -1.1242  1.8636  1.5048
  912MOL0     H23108   7.178   4.228   4.259 -1.1672  0.0437 -2.3690
  912MOL0     H23109   7.300   4.022   4.245  0.4573 -0.3701  0.1749
  912MOL0     H23110   7.147   3.624   4.407  1.7828 -3.1584  0.0672
  912MOL0     H23111   7.116   3.647   4.228 -0.0475 -0.2070 -0.3183
  912MOL0     H23112   7.377   3.574   4.382 -0.0810 -2.5684  0.7517
  912MOL0     H23113   7.375   3.610   4.213 -2.1798 -0.9825 -0.3498
  912MOL0     H23114   7.249   3.428   4.145  1.0569  2.0587  0.6984
  912MOL0     H23115   7.205   3.372   4.299 -1.5089  1.4386 -0.7364
  912MOL0     H23116   7.487   3.366   4.175  1.3013  0.3508  1.3988
  912MOL0     H23117   7.366   3.238   4.203  1.7411 -0.5569  0.1891
  912MOL0     H23118   7.567   3.348   4.571  0.7116 -0.6981  0.2350
  912MOL0     H23119   6.989   3.796   4.415 -1.9621  0.5955  0.3166
  912MOL0     H23120   6.851   3.996   4.442 -0.2757 -2.3758 -1.4195
  913MOL0     O23121   6.792  10.423  10.706 -0.6236  0.1334  0.2214
  913MOL0     C23122   6.807  10.521  10.785  0.4155 -0.4449  0.6302
  913MOL0     O23123   6.696  10.572  10.866  0.2324  0.3313  1.4051
  913MOL0     C23124   6.573  10.512  10.883 -1.2175  0.6123  0.4017
  913MOL0     C23125   6.457  10.590  10.885  1.0395 -0.3553  1.3001
  913MOL0     C23126   6.332  10.524  10.898 -0.0826  0.4659  0.0831
  913MOL0     C23127   6.329  10.390  10.952 -0.2433 -0.5819  1.1062
  913MOL0     O23128   6.208  10.332  10.966  0.0691 -0.4971  0.1826
  913MOL0     C23129   6.181  10.207  10.917 -0.9656 -0.1492  0.8285
  913MOL0     C23130   6.050  10.159  10.966 -0.0718  0.5561  0.3860
  913MOL0     C23131   5.934  10.236  10.903  0.2204  0.3740  0.0656
  913MOL0     C23132   5.918  10.197  10.745 -0.0983 -0.0212 -0.9534
  913MOL0     C23133   5.763  10.200  10.721 -0.1696  0.3781  0.1627
  913MOL0     C23134   5.723  10.194  10.574  0.5611  0.5360  0.2867
  913MOL0     C23135   5.570  10.222  10.556  0.9787  0.2606  1.3626
  913MOL0     C23136   5.515  10.365  10.607 -0.8936 -0.0800  0.1991
  913MOL0     N23137   5.374  10.384  10.561  0.0328  0.2655  0.4265
  913MOL0     C23138   5.331  10.410  10.428 -0.4186 -0.5368 -0.7646
  913MOL0     C23139   5.202  10.469  10.456  0.1407 -0.6112  0.2316
  913MOL0     C23140   5.114  10.531  10.351  0.4562 -0.0571 -0.0647
  913MOL0     C23141   4.993  10.614  10.407  0.7289  0.6571  0.4195
  913MOL0     C23142   4.922  10.678  10.289  0.4448  0.9094  0.5965
  913MOL0     C23143   4.782  10.738  10.335  0.0202 -0.9191  0.4011
  913MOL0     O23144   4.709  10.759  10.216  0.4982  0.0747  0.1509
  913MOL0     C23145   4.580  10.812  10.218  0.4289  0.5369  0.3336
  913MOL0     C23146   4.523  10.855  10.098 -0.2999  0.4231 -0.2940
  913MOL0     C23147   4.406  10.929  10.098 -0.0482 -0.2909  0.5811
  913MOL0     C23148   4.353  10.967   9.956 -0.5286  0.1389 -0.2692
  913MOL0     C23149   4.329  10.950  10.223 -0.5819 -0.3167  0.7550
  913MOL0     C23150   4.199  11.029  10.228 -0.1096 -0.7882  0.3845
  913MOL0     O23151   4.128  11.044  10.112 -0.3054  0.9607 -0.2997
  913MOL0     C23152   4.005  11.097  10.117 -0.2249  0.0653 -0.7223
  913MOL0     C23153   3.892  11.022  10.092  0.2684  0.1307  0.4804
  913MOL0     C23154   3.768  11.077  10.099  0.5630  0.1777 -0.5129
  913MOL0     C23155   3.755  11.206  10.130  0.9350 -1.1405  0.9193
  913MOL0     O23156   3.626  11.240  10.123 -0.3460  0.1987  0.0064
  913MOL0     C23157   3.586  11.376  10.120 -0.5724  0.3871 -0.5235
  913MOL0     C23158   3.438  11.389  10.096 -0.6498  0.0812 -0.4549
  913MOL0     C23159   3.360  11.408  10.226 -0.2740 -0.7808 -0.3878
  913MOL0     C23160   3.221  11.444  10.185 -0.1528  0.0544  0.1343
  913MOL0     C23161   3.151  11.466  10.318  0.1205 -0.2248  0.4838
  913MOL0     C23162   3.034  11.559  10.303 -0.1100 -0.6374 -0.0623
  913MOL0     C23163   2.979  11.622  10.436  0.5603 -0.4197  0.0881
  913MOL0     C23164   2.868  11.732  10.406 -1.5014  0.1280 -0.1339
  913MOL0    Cl23165   2.873  11.841  10.551 -0.2133  0.1297  0.5456
  913MOL0     C23166   3.863  11.287  10.162 -0.4902 -1.5856  0.7994
  913MOL0     C23167   3.993  11.228  10.149 -0.9953 -1.0300  0.4892
  913MOL0     O23168   4.164  11.065  10.343 -0.4412  0.0999  0.5748
  913MOL0     C23169   4.385  10.896  10.328  0.5488  0.4446 -0.7148
  913MOL0     C23170   4.499  10.824  10.334 -0.7881 -0.7797 -0.1168
  913MOL0     N23171   5.177  10.456  10.590  0.4491 -0.3047  0.6166
  913MOL0     N23172   5.281  10.420  10.657 -0.1436  0.5461  0.4612
  913MOL0     C23173   6.452  10.325  10.960  0.4435  0.9442 -0.8915
  913MOL0     C23174   6.568  10.379  10.918 -1.0266  0.1984  0.9409
  913MOL0     C23175   6.939  10.577  10.806  0.8784 -0.2448 -0.6489
  913MOL0     C23176   7.042  10.539  10.715 -0.4857  0.0123  0.0122
  913MOL0     C23177   7.177  10.582  10.736  0.8740 -0.3357  0.1796
  913MOL0     C23178   7.203  10.675  10.827  0.5392 -0.1255  0.2630
  913MOL0     O23179   7.327  10.722  10.842  0.2742 -0.1644 -0.2996
  913MOL0     C23180   7.375  10.808  10.740 -0.0437  0.4056 -0.0548
  913MOL0     C23181   7.435  10.939  10.797  0.0164  0.5747  0.2021
  913MOL0     C23182   7.578  10.929  10.849  0.5094 -0.7120  0.2286
  913MOL0     C23183   7.629  11.054  10.920  0.5663  0.0474 -0.8037
  913MOL0     C23184   7.766  11.052  10.956  0.0719 -0.5888 -0.3794
  913MOL0     C23185   7.886  11.035  10.994  0.1489  0.7415  0.2966
  913MOL0     C23186   7.096  10.734  10.897 -0.1803  0.0015 -0.5591
  913MOL0     C23187   6.970  10.673  10.908 -0.6300  0.3370  0.6731
  913MOL0     H23188   6.464  10.691  10.846  1.6659 -0.6074  0.7369
  913MOL0     H23189   6.246  10.590  10.890 -0.4120  0.7177  3.8593
  913MOL0     H23190   6.182  10.224  10.809  1.3056  0.7854  0.9379
  913MOL0     H23191   6.264  10.135  10.922  0.5506  1.4964  0.4166
  913MOL0     H23192   6.042  10.053  10.939  0.6725  0.1916  1.5404
  913MOL0     H23193   6.038  10.168  11.074  0.9389 -1.1726  0.6760
  913MOL0     H23194   5.846  10.212  10.964 -1.5801 -1.6476 -3.0169
  913MOL0     H23195   5.948  10.344  10.913 -0.1621  0.2878  1.9013
  913MOL0     H23196   5.977  10.261  10.679  2.1593  0.3686  1.2497
  913MOL0     H23197   5.961  10.096  10.741  0.7955  0.3105 -0.1411
  913MOL0     H23198   5.724  10.109  10.765  1.9196 -0.8177 -0.3333
  913MOL0     H23199   5.708  10.284  10.766  0.9678  1.0868  0.2753
  913MOL0     H23200   5.783  10.270  10.522 -0.9293 -0.1620 -2.6972
  913MOL0     H23201   5.757  10.105  10.520  2.7162  1.7254 -0.4748
  913MOL0     H23202   5.547  10.222  10.450  1.4878  0.4299  1.2466
  913MOL0     H23203   5.512  10.140  10.599 -0.6988  1.4594  1.5032
  913MOL0     H23204   5.573  10.445  10.562  0.9736 -1.5290 -0.0960
  913MOL0     H23205   5.517  10.378  10.716 -4.7177  0.5745  0.3206
  913MOL0     H23206   5.387  10.414  10.335  0.8770  1.2464  0.0269
  913MOL0     H23207   5.182  10.607  10.310 -1.5401  0.6814 -2.2502
  913MOL0     H23208   5.093  10.457  10.273 -1.7464  0.7485 -0.3063
  913MOL0     H23209   5.028  10.687  10.481  1.5985 -0.0492  0.7193
  913MOL0     H23210   4.932  10.558  10.478  2.8926  0.2066  2.0292
  913MOL0     H23211   4.910  10.597  10.216 -0.2110  1.8002 -0.3084
  913MOL0     H23212   4.987  10.748  10.236 -0.3971  0.6424 -0.8256
  913MOL0     H23213   4.788  10.829  10.396  0.6175 -0.9721  0.4353
  913MOL0     H23214   4.733  10.669  10.405  0.4373 -1.2537  0.3701
  913MOL0     H23215   4.585  10.850  10.009 -0.6747  1.4564 -0.6352
  913MOL0     H23216   4.426  10.929   9.885  1.1800 -1.6587  2.2843
  913MOL0     H23217   4.253  10.923   9.942 -0.2646  0.0349 -1.9804
  913MOL0     H23218   4.330  11.073   9.950 -3.7103 -0.3899  0.6581
  913MOL0     H23219   3.908  10.914  10.088  1.4762  0.3333 -2.3173
  913MOL0     H23220   3.689  11.004  10.083 -1.4539  2.3683 -1.1058
  913MOL0     H23221   3.627  11.436  10.202  0.4066 -3.3268  1.9594
  913MOL0     H23222   3.625  11.416  10.026  0.5994  0.2717 -0.1009
  913MOL0     H23223   3.418  11.477  10.034 -1.2635 -0.0198 -0.4134
  913MOL0     H23224   3.394  11.301  10.049  1.5919 -2.1669  1.3646
  913MOL0     H23225   3.408  11.498  10.267  1.0376  0.3553 -3.9702
  913MOL0     H23226   3.359  11.330  10.302  0.0716 -0.9819 -0.5887
  913MOL0     H23227   3.222  11.532  10.120  0.5657 -0.1160 -0.0974
  913MOL0     H23228   3.178  11.367  10.122 -2.0116  1.4074 -0.3459
  913MOL0     H23229   3.217  11.511  10.392 -0.8153  3.5085 -0.7575
  913MOL0     H23230   3.110  11.368  10.346 -2.2316 -0.7488 -3.9307
  913MOL0     H23231   3.077  11.637  10.240 -0.1217 -0.5086  0.0867
  913MOL0     H23232   2.958  11.504  10.247 -0.4029 -3.1376  2.5264
  913MOL0     H23233   3.054  11.661  10.504  0.7756 -2.5689  1.1616
  913MOL0     H23234   2.925  11.550  10.498 -0.0374  0.2908  0.4125
  913MOL0     H23235   2.771  11.683  10.396 -1.1137 -0.3084 -2.4023
  913MOL0     H23236   2.915  11.791  10.326 -1.1984 -0.8173 -0.6740
  913MOL0     H23237   3.854  11.393  10.184  0.3679 -1.3906  0.2840
  913MOL0     H23238   4.087  11.280  10.163 -0.5078 -1.1606 -1.8121
  913MOL0     H23239   4.343  10.915  10.425  3.8109  1.5942  0.6293
  913MOL0     H23240   4.536  10.790  10.430 -0.6299 -0.1394  0.0538
  913MOL0     H23241   6.465  10.220  10.983 -0.1165  1.3776  1.8028
  913MOL0     H23242   6.661  10.323  10.916 -1.0333  0.0536 -3.0940
  913MOL0     H23243   7.028  10.463  10.639  0.5136 -3.2561  2.8549
  913MOL0     H23244   7.256  10.541  10.674  0.3233 -0.2502 -0.5927
  913MOL0     H23245   7.459  10.756  10.692  0.4069 -1.4345  2.4929
  913MOL0     H23246   7.296  10.834  10.669 -0.4373  2.4566  1.0365
  913MOL0     H23247   7.381  10.982  10.882  0.0505 -0.1818  0.6125
  913MOL0     H23248   7.430  11.007  10.711 -2.7700 -1.5850 -1.5188
  913MOL0     H23249   7.649  10.919  10.767 -0.3331  3.7616 -1.3464
  913MOL0     H23250   7.583  10.843  10.917 -0.3123  0.2323  1.5429
  913MOL0     H23251   7.560  11.071  11.004  0.0876  1.0923 -1.3811
  913MOL0     H23252   7.615  11.138  10.851 -3.9859 -0.3243 -0.6534
  913MOL0     H23253   7.985  11.011  11.027 -0.1653 -1.0354  0.0653
  913MOL0     H23254   7.119  10.801  10.979  2.0104 -0.8907 -0.3795
  913MOL0     H23255   6.896  10.705  10.980 -3.0390 -1.1414 -0.9947
  914MOL0     O23256   0.224   9.815   6.001 -0.3862  0.1235  0.2365
  914MOL0     C23257   0.189   9.704   6.008 -0.4332  0.2586 -0.2431
  914MOL0     O23258   0.250   9.607   5.940  0.2186  0.1490  0.0273
  914MOL0     C23259   0.361   9.616   5.860  0.4561 -0.2815 -0.0835
  914MOL0     C23260   0.375   9.517   5.762  0.1237 -0.2039 -0.8827
  914MOL0     C23261   0.479   9.513   5.673  0.1278 -0.2987  0.9922
  914MOL0     C23262   0.574   9.610   5.665  0.4147 -0.8815 -0.7336
  914MOL0     O23263   0.672   9.604   5.560 -0.2678  0.0333  0.3219
  914MOL0     C23264   0.799   9.670   5.580 -0.4261  0.0316 -0.2048
  914MOL0     C23265   0.885   9.638   5.460  0.5430 -1.2917  0.8636
  914MOL0     C23266   1.035   9.669   5.499  0.9278 -0.2832 -0.4240
  914MOL0     C23267   1.121   9.704   5.384  0.8708  0.3216  0.6671
  914MOL0     C23268   1.259   9.738   5.433 -0.3734 -0.2997  0.6183
  914MOL0     C23269   1.324   9.853   5.356  0.5879  0.0301  0.1296
  914MOL0     C23270   1.354   9.810   5.210  0.1242 -0.1616 -0.8073
  914MOL0     C23271   1.497   9.794   5.178  0.3368 -0.3670 -0.5191
  914MOL0     N23272   1.562   9.932   5.188  0.6711  0.0742 -0.4424
  914MOL0     C23273   1.526  10.057   5.156 -0.3960  0.5583  0.1172
  914MOL0     C23274   1.624  10.142   5.180  1.3754  0.2805 -0.3363
  914MOL0     C23275   1.633  10.294   5.164 -0.0688  0.1678  0.2297
  914MOL0     C23276   1.706  10.365   5.280  0.0137 -0.0058 -0.5863
  914MOL0     C23277   1.768  10.504   5.231 -0.0220  0.4876 -0.3749
  914MOL0     C23278   1.830  10.594   5.337 -0.4684 -0.5483 -0.1128
  914MOL0     O23279   1.923  10.690   5.280  0.0317  0.4974 -0.3768
  914MOL0     C23280   1.996  10.744   5.374  0.2340 -0.4693 -0.7938
  914MOL0     C23281   1.958  10.849   5.458  0.2209 -0.6875  0.2505
  914MOL0     C23282   2.049  10.890   5.563  0.5751 -0.1540 -0.9796
  914MOL0     C23283   1.995  11.016   5.639  0.5563 -0.5503 -0.0277
  914MOL0     C23284   2.175  10.834   5.589  0.4602  0.7052  0.1335
  914MOL0     C23285   2.279  10.864   5.697  1.5279 -0.1705  0.2801
  914MOL0     O23286   2.404  10.851   5.670  0.1860  0.0419  0.7689
  914MOL0     C23287   2.488  10.895   5.768  0.0268  0.0438 -0.5995
  914MOL0     C23288   2.538  10.799   5.855 -0.4529 -0.5160  0.2948
  914MOL0     C23289   2.624  10.849   5.960 -0.8296 -0.2741 -0.1479
  914MOL0     C23290   2.660  10.983   5.973  0.4315 -0.4208 -0.4137
  914MOL0     O23291   2.727  11.016   6.086  0.7396  0.3035  0.0243
  914MOL0     C23292   2.751  11.146   6.127  0.0780 -0.0970 -0.3496
  914MOL0     C23293   2.783  11.120   6.277  0.0702 -0.3296  0.0448
  914MOL0     C23294   2.816  11.238   6.358 -0.3242 -1.2025 -0.5203
  914MOL0     C23295   2.696  11.330   6.383  0.4126  0.0397 -0.8519
  914MOL0     C23296   2.606  11.265   6.487 -0.5487  0.5481 -0.1047
  914MOL0     C23297   2.494  11.349   6.528  0.0849 -0.0345 -0.1580
  914MOL0     C23298   2.414  11.380   6.394 -0.5895  0.0817 -0.3251
  914MOL0     C23299   2.284  11.454   6.424  1.1432  1.4098 -0.2565
  914MOL0    Cl23300   2.179  11.468   6.273 -0.4667  0.2261  0.2669
  914MOL0     C23301   2.612  11.081   5.884  0.2506 -0.1992  0.5156
  914MOL0     C23302   2.527  11.032   5.779 -0.4024 -0.0593 -0.0139
  914MOL0     O23303   2.230  10.910   5.799  1.1742 -1.4880  0.3026
  914MOL0     C23304   2.210  10.724   5.503  0.3998 -0.5793  0.4781
  914MOL0     C23305   2.126  10.686   5.397  0.1833 -0.7377 -0.2317
  914MOL0     N23306   1.723  10.065   5.223 -0.1208  0.2541  0.0695
  914MOL0     N23307   1.688   9.942   5.240 -0.4815  0.1315 -0.6738
  914MOL0     C23308   0.565   9.723   5.756 -0.1885  0.4041 -0.6095
  914MOL0     C23309   0.460   9.720   5.857 -1.0474 -0.1849 -0.3165
  914MOL0     C23310   0.069   9.665   6.094  0.6658  1.4626 -0.5937
  914MOL0     C23311   0.006   9.544   6.069  0.4782 -0.1460 -0.8635
  914MOL0     C23312  -0.107   9.504   6.145 -0.3152  0.2292  0.3826
  914MOL0     C23313  -0.158   9.584   6.251  0.4870  0.0646  1.1474
  914MOL0     O23314  -0.261   9.558   6.333  0.7642  0.0165  0.3739
  914MOL0     C23315  -0.372   9.483   6.276 -0.0000 -1.1190 -0.4258
  914MOL0     C23316  -0.350   9.339   6.279  0.1827 -0.2482 -0.1059
  914MOL0     C23317  -0.471   9.270   6.338 -0.1499  0.7031  0.3501
  914MOL0     C23318  -0.573   9.228   6.226  0.6662  0.7764  1.8447
  914MOL0     C23319  -0.641   9.339   6.164 -0.2630 -0.2093  0.2863
  914MOL0     C23320  -0.709   9.426   6.112  0.2555 -0.4182  0.3449
  914MOL0     C23321  -0.088   9.698   6.282 -0.6807  0.3343  0.3058
  914MOL0     C23322   0.023   9.739   6.206 -0.5728 -0.8089  0.2345
  914MOL0     H23323   0.295   9.444   5.756  0.0119 -0.2821  0.9358
  914MOL0     H23324   0.483   9.428   5.606  2.2031 -1.1482  2.1023
  914MOL0     H23325   0.779   9.777   5.584 -3.6783 -0.4920  2.7722
  914MOL0     H23326   0.845   9.647   5.676 -0.8808 -0.8876 -0.1907
  914MOL0     H23327   0.896   9.530   5.448  1.8012 -1.2887  1.8298
  914MOL0     H23328   0.846   9.684   5.368  1.9997 -0.8948  0.4118
  914MOL0     H23329   1.028   9.745   5.577  3.2734 -0.4131 -0.0135
  914MOL0     H23330   1.081   9.590   5.560  1.3609  0.3059  0.0260
  914MOL0     H23331   1.126   9.622   5.312 -0.4110  0.0743  0.8480
  914MOL0     H23332   1.074   9.791   5.336 -1.4329 -1.8677 -1.3430
  914MOL0     H23333   1.249   9.766   5.538 -0.9431 -0.5951  0.6458
  914MOL0     H23334   1.330   9.655   5.428 -0.3632 -0.2623  0.0217
  914MOL0     H23335   1.266   9.946   5.353  2.9845  1.5945 -2.2196
  914MOL0     H23336   1.423   9.872   5.397 -0.1225 -0.9044  2.4043
  914MOL0     H23337   1.310   9.714   5.183  1.2178 -0.1568 -2.7943
  914MOL0     H23338   1.308   9.881   5.140  1.4984 -0.9218 -2.5364
  914MOL0     H23339   1.509   9.754   5.078 -0.6410  0.3520 -0.9461
  914MOL0     H23340   1.550   9.725   5.245  1.6311 -0.0981 -1.2412
  914MOL0     H23341   1.421  10.081   5.145 -0.3074  0.4758 -1.1079
  914MOL0     H23342   1.678  10.314   5.066  0.8662 -2.1256  0.1296
  914MOL0     H23343   1.532  10.336   5.156  0.0040  0.0167 -2.5769
  914MOL0     H23344   1.791  10.304   5.312 -1.0260 -0.9793  0.4189
  914MOL0     H23345   1.635  10.376   5.363  0.7203  0.4112 -0.0226
  914MOL0     H23346   1.699  10.571   5.178  0.9200  4.1606  2.5788
  914MOL0     H23347   1.851  10.481   5.164 -0.5829  3.2176 -2.2078
  914MOL0     H23348   1.889  10.535   5.408  0.2165 -1.2184 -1.2088
  914MOL0     H23349   1.748  10.641   5.393 -1.0341 -0.1599 -1.2467
  914MOL0     H23350   1.859  10.892   5.445  0.4029 -0.2628  0.2584
  914MOL0     H23351   2.064  11.101   5.635 -0.6605  0.6217  1.8254
  914MOL0     H23352   1.899  11.042   5.591  1.3603 -0.0045 -1.4087
  914MOL0     H23353   1.973  10.991   5.743 -4.0845 -0.9845 -0.9009
  914MOL0     H23354   2.518  10.692   5.843 -2.6966 -0.9057  5.0866
  914MOL0     H23355   2.675  10.778   6.024  0.0521  0.5528  0.0883
  914MOL0     H23356   2.835  11.193   6.077  3.6615 -0.7364  4.3784
  914MOL0     H23357   2.660  11.207   6.121  1.0452  1.7451  2.0802
  914MOL0     H23358   2.699  11.065   6.320  0.2281 -2.2691 -1.9414
  914MOL0     H23359   2.871  11.055   6.276 -0.1109 -0.8349 -4.6788
  914MOL0     H23360   2.885  11.293   6.293 -0.7385 -2.1775 -1.8330
  914MOL0     H23361   2.861  11.208   6.453  0.3630 -0.2579 -0.5364
  914MOL0     H23362   2.726  11.431   6.412 -0.4341  0.3690 -1.0891
  914MOL0     H23363   2.652  11.327   6.283 -0.3849 -2.6959 -0.5035
  914MOL0     H23364   2.648  11.241   6.585 -1.8314 -0.1241  0.3128
  914MOL0     H23365   2.560  11.174   6.447  0.1605  0.3550 -0.4844
  914MOL0     H23366   2.436  11.298   6.606  1.5301 -1.5083  0.0101
  914MOL0     H23367   2.526  11.438   6.581  0.6673  0.5821 -1.4911
  914MOL0     H23368   2.384  11.289   6.342 -0.9090  1.0617 -1.9192
  914MOL0     H23369   2.472  11.448   6.330 -2.7819  0.8898 -1.5467
  914MOL0     H23370   2.298  11.554   6.468 -1.9695  1.2267  1.4734
  914MOL0     H23371   2.221  11.411   6.503  2.2546  0.1787 -0.0137
  914MOL0     H23372   2.635  11.187   5.896  1.2973 -0.3991  0.4007
  914MOL0     H23373   2.491  11.096   5.700  0.2710 -1.7836 -1.7910
  914MOL0     H23374   2.302  10.668   5.519  0.9198  0.7290  2.3669
  914MOL0     H23375   2.161  10.602   5.338  0.0028 -1.8119  1.1389
  914MOL0     H23376   0.636   9.805   5.757  0.4490 -0.0902  1.6721
  914MOL0     H23377   0.459   9.799   5.931  0.6475 -3.5270  3.6751
  914MOL0     H23378   0.048   9.469   6.001  0.7515 -2.8448  2.0561
  914MOL0     H23379  -0.142   9.407   6.113 -2.4299  0.3997  1.9738
  914MOL0     H23380  -0.464   9.508   6.330 -1.6474 -0.5702 -3.2596
  914MOL0     H23381  -0.394   9.519   6.175 -0.7308  1.7799  0.6696
  914MOL0     H23382  -0.271   9.309   6.350 -0.5246  1.5926  1.5681
  914MOL0     H23383  -0.337   9.303   6.177  0.3916 -0.0933 -0.1342
  914MOL0     H23384  -0.514   9.335   6.415  1.9309  3.0536 -0.3572
  914MOL0     H23385  -0.444   9.175   6.385  1.3970  0.6588 -0.5453
  914MOL0     H23386  -0.639   9.155   6.274  2.7172 -1.2492  1.7554
  914MOL0     H23387  -0.527   9.165   6.149  0.9970  0.8967  1.9415
  914MOL0     H23388  -0.766   9.487   6.044 -0.7050 -0.1062  1.4095
  914MOL0     H23389  -0.131   9.765   6.356 -0.2308  2.0581 -0.9199
  914MOL0     H23390   0.075   9.834   6.206  1.1672 -1.7141  1.0287
  915MOL0     O23391   8.524   5.749   8.237 -0.4252  0.4736 -1.0793
  915MOL0     C23392   8.597   5.665   8.189 -0.6901  0.4828  0.4828
  915MOL0     O23393   8.551   5.565   8.101  0.4026 -0.7333  0.5895
  915MOL0     C23394   8.416   5.549   8.104 -0.0264  0.3770 -0.1856
  915MOL0     C23395   8.336   5.614   8.008 -0.1666 -0.1062 -0.3888
  915MOL0     C23396   8.202   5.588   8.008 -0.5770  1.1947 -0.4085
  915MOL0     C23397   8.150   5.489   8.089  0.1048  1.0243 -0.2148
  915MOL0     O23398   8.018   5.466   8.080  0.7753 -0.1407  0.2112
  915MOL0     C23399   7.969   5.333   8.079 -0.2300 -0.2861 -0.0024
  915MOL0     C23400   7.824   5.323   8.037 -0.1521 -0.4225  0.2823
  915MOL0     C23401   7.786   5.172   8.024 -0.2833  0.4425 -0.0356
  915MOL0     C23402   7.642   5.164   7.963  0.8756  0.3435 -0.2577
  915MOL0     C23403   7.591   5.027   7.927 -0.4122  0.6652 -0.1518
  915MOL0     C23404   7.449   5.020   7.870 -0.0999  0.3083  0.5064
  915MOL0     C23405   7.438   4.876   7.823 -0.1024 -0.0474 -0.3919
  915MOL0     C23406   7.293   4.855   7.784  0.1767  0.5936 -0.0414
  915MOL0     N23407   7.249   4.948   7.677  0.0738 -0.4322  0.3559
  915MOL0     C23408   7.189   5.070   7.693  0.3025  0.4416  0.3282
  915MOL0     C23409   7.195   5.135   7.576 -1.0287 -0.3186  0.8339
  915MOL0     C23410   7.151   5.276   7.547 -1.0713 -0.0914  0.7459
  915MOL0     C23411   7.011   5.288   7.588 -0.9122  0.6844 -0.1250
  915MOL0     C23412   6.959   5.421   7.562  0.7845 -0.0670  0.0982
  915MOL0     C23413   6.815   5.427   7.609 -0.6710  1.2492 -0.4232
  915MOL0     O23414   6.767   5.553   7.550  0.3657  0.0039 -0.0964
  915MOL0     C23415   6.637   5.557   7.533 -0.3126 -0.4148  0.3576
  915MOL0     C23416   6.592   5.652   7.450 -0.5491  0.1070  0.9746
  915MOL0     C23417   6.457   5.679   7.427 -0.1331  0.1772  0.2516
  915MOL0     C23418   6.424   5.807   7.367 -0.4759 -0.3010 -0.2322
  915MOL0     C23419   6.359   5.588   7.479  0.0372  0.8314  0.4534
  915MOL0     C23420   6.214   5.593   7.459 -0.4904 -0.0993 -0.2703
  915MOL0     O23421   6.132   5.653   7.555  0.3229  0.0719  0.0489
  915MOL0     C23422   6.012   5.708   7.513  0.3367  0.1555  0.3728
  915MOL0     C23423   5.896   5.677   7.592 -0.6059  0.1937 -0.5121
  915MOL0     C23424   5.768   5.724   7.570 -0.6055  0.3117 -0.0638
  915MOL0     C23425   5.745   5.815   7.468 -0.6379 -0.4815 -0.4311
  915MOL0     O23426   5.626   5.869   7.420  0.0998 -0.1812 -0.3010
  915MOL0     C23427   5.536   5.917   7.526 -0.0596 -0.1943  0.5691
  915MOL0     C23428   5.438   5.995   7.445 -0.2465 -0.2391 -1.1872
  915MOL0     C23429   5.312   6.049   7.518  0.2021  0.5205  0.3630
  915MOL0     C23430   5.341   6.172   7.613  0.1326  0.5461  0.3200
  915MOL0     C23431   5.218   6.198   7.709 -0.5264 -0.7977  0.6227
  915MOL0     C23432   5.232   6.323   7.789 -0.5543 -0.6422 -0.6849
  915MOL0     C23433   5.232   6.455   7.703  0.3236  0.6774  0.2235
  915MOL0     C23434   5.155   6.567   7.773  1.0116  0.7345  0.1756
  915MOL0    Cl23435   4.983   6.524   7.820 -0.2559 -0.6893  0.6227
  915MOL0     C23436   5.854   5.858   7.397 -0.3666 -0.1366 -1.1178
  915MOL0     C23437   5.982   5.803   7.411 -0.4185  1.4546 -0.5180
  915MOL0     O23438   6.181   5.566   7.344 -0.0364  0.0849 -0.6386
  915MOL0     C23439   6.403   5.481   7.556 -0.2172  0.2538  0.0716
  915MOL0     C23440   6.540   5.473   7.594 -0.0994 -0.6680 -0.9182
  915MOL0     N23441   7.271   5.059   7.489 -0.1169 -0.5251 -0.5830
  915MOL0     N23442   7.301   4.951   7.547  0.1829  0.8392  0.1871
  915MOL0     C23443   8.227   5.425   8.185  0.6334 -0.5321 -0.0188
  915MOL0     C23444   8.365   5.462   8.197  0.2167  0.2694  0.0611
  915MOL0     C23445   8.738   5.667   8.230 -1.1820  0.0693  0.5926
  915MOL0     C23446   8.771   5.737   8.348 -0.0431  0.2320 -0.1102
  915MOL0     C23447   8.901   5.744   8.397 -0.7403  0.4203  0.0643
  915MOL0     C23448   9.005   5.685   8.332  0.7223  1.0464  0.1616
  915MOL0     O23449   9.129   5.697   8.389  0.3048  0.3220  0.2386
  915MOL0     C23450   9.248   5.689   8.293 -0.1943 -1.0277 -1.2946
  915MOL0     C23451   9.364   5.761   8.354  0.5347 -0.2574  0.3071
  915MOL0     C23452   9.479   5.802   8.255  0.1075  0.4322  0.0731
  915MOL0     C23453   9.457   5.937   8.187 -0.2520 -0.1971 -0.5892
  915MOL0     C23454   9.365   5.929   8.072  0.8349 -0.2237 -0.8232
  915MOL0     C23455   9.297   5.911   7.968 -0.0914 -0.1217  0.4280
  915MOL0     C23456   8.971   5.612   8.217 -0.5417  0.2502  0.8209
  915MOL0     C23457   8.846   5.596   8.167  0.8026 -0.1448  0.4115
  915MOL0     H23458   8.373   5.679   7.930  0.4682  3.0423  2.2915
  915MOL0     H23459   8.138   5.640   7.938 -0.8842  0.9878 -0.2849
  915MOL0     H23460   8.029   5.275   8.009 -2.4987 -0.7118 -1.7280
  915MOL0     H23461   7.980   5.297   8.182 -0.3737  3.0532  1.2985
  915MOL0     H23462   7.761   5.377   8.108 -1.2363  1.8303 -2.2056
  915MOL0     H23463   7.813   5.377   7.942  0.0634  0.8491  0.9617
  915MOL0     H23464   7.854   5.121   7.955 -2.4902 -2.5729 -0.1614
  915MOL0     H23465   7.785   5.116   8.118 -0.6434 -0.1995 -0.4189
  915MOL0     H23466   7.563   5.211   8.023 -0.1323  2.0842 -2.7765
  915MOL0     H23467   7.653   5.209   7.864 -0.9785  0.3118 -0.5097
  915MOL0     H23468   7.665   4.984   7.859 -2.6512 -1.4127 -1.4346
  915MOL0     H23469   7.599   4.969   8.020 -2.2009  1.2970  0.4374
  915MOL0     H23470   7.373   5.044   7.945 -1.6000 -1.0744 -0.5000
  915MOL0     H23471   7.441   5.093   7.790  3.3942 -1.1133 -1.3736
  915MOL0     H23472   7.504   4.854   7.738  0.1991  1.1868 -0.4938
  915MOL0     H23473   7.467   4.807   7.903 -0.1241  0.4508  0.0469
  915MOL0     H23474   7.227   4.850   7.871 -1.2556 -0.8289 -1.1580
  915MOL0     H23475   7.281   4.753   7.746 -3.1279  0.3350  1.3370
  915MOL0     H23476   7.143   5.096   7.788 -2.2795 -0.1373 -0.7006
  915MOL0     H23477   7.216   5.340   7.607 -0.0979  1.4147 -1.7719
  915MOL0     H23478   7.175   5.297   7.443  0.3967  1.3576  1.3438
  915MOL0     H23479   6.993   5.268   7.694 -1.2273 -0.9794 -0.4752
  915MOL0     H23480   6.953   5.219   7.526 -0.5589  1.1528 -0.9961
  915MOL0     H23481   6.968   5.443   7.456  0.2763  2.3132  0.4865
  915MOL0     H23482   7.009   5.512   7.597 -0.2504  1.4338 -2.0730
  915MOL0     H23483   6.800   5.444   7.716 -0.6388  2.9318 -0.6642
  915MOL0     H23484   6.766   5.335   7.576 -0.5710  0.9487  0.2530
  915MOL0     H23485   6.666   5.714   7.399 -1.4085  0.0984 -0.3400
  915MOL0     H23486   6.373   5.874   7.437 -0.5059  0.8565 -1.3128
  915MOL0     H23487   6.515   5.846   7.319  1.1696 -1.7488  1.5402
  915MOL0     H23488   6.351   5.792   7.287 -0.2938 -2.3274 -0.0599
  915MOL0     H23489   5.913   5.601   7.668 -0.1104  1.2473  0.4484
  915MOL0     H23490   5.697   5.691   7.645  1.6955 -0.4859  1.8882
  915MOL0     H23491   5.487   5.827   7.564 -0.0502 -1.5980 -2.4539
  915MOL0     H23492   5.594   5.976   7.597 -0.7320 -0.4059  1.3184
  915MOL0     H23493   5.483   6.084   7.402  0.7504  1.1077  2.3291
  915MOL0     H23494   5.392   5.939   7.363  0.6469 -0.2445 -1.6892
  915MOL0     H23495   5.268   5.976   7.585 -0.5128  1.2524  0.7110
  915MOL0     H23496   5.235   6.061   7.441 -0.1314 -6.3594 -1.0203
  915MOL0     H23497   5.435   6.158   7.667 -1.4432 -1.0115  2.8619
  915MOL0     H23498   5.362   6.244   7.533  1.5011 -1.8163 -1.5564
  915MOL0     H23499   5.212   6.113   7.778  1.4160 -1.2323  0.3259
  915MOL0     H23500   5.124   6.206   7.655 -0.3899  1.4750  0.6081
  915MOL0     H23501   5.153   6.331   7.865  0.5699 -2.4456  0.7632
  915MOL0     H23502   5.328   6.312   7.841 -1.2352 -1.2987  0.4736
  915MOL0     H23503   5.176   6.440   7.610  0.7429  0.2630  0.0279
  915MOL0     H23504   5.332   6.494   7.680 -0.3715  0.4479 -4.0771
  915MOL0     H23505   5.158   6.657   7.711 -1.4723  1.0799  0.4522
  915MOL0     H23506   5.212   6.596   7.862  1.0072 -0.3617  0.5494
  915MOL0     H23507   5.833   5.935   7.324  0.3756  1.5650  0.3913
  915MOL0     H23508   6.062   5.822   7.341  0.8932 -2.8536 -0.4775
  915MOL0     H23509   6.331   5.409   7.593 -1.2048  0.9220 -0.5091
  915MOL0     H23510   6.573   5.398   7.666  0.2542 -0.7016 -1.1147
  915MOL0     H23511   8.193   5.347   8.252 -3.2341 -0.4462 -1.6097
  915MOL0     H23512   8.426   5.404   8.265  0.2227 -0.8520 -0.8710
  915MOL0     H23513   8.694   5.788   8.404  0.8077  3.7155 -1.8235
  915MOL0     H23514   8.924   5.771   8.499  3.1020  0.5470 -0.6958
  915MOL0     H23515   9.279   5.587   8.273  0.4452 -1.3041  0.8340
  915MOL0     H23516   9.218   5.742   8.202 -2.7132 -1.0723 -0.5876
  915MOL0     H23517   9.405   5.693   8.430  1.4810  0.0404  0.0802
  915MOL0     H23518   9.326   5.849   8.407  1.7112 -0.8106  2.2159
  915MOL0     H23519   9.488   5.727   8.176 -0.5488 -1.5246  1.7314
  915MOL0     H23520   9.574   5.810   8.308  0.9255  0.6427 -1.3686
  915MOL0     H23521   9.554   5.964   8.146 -0.0274  1.4039  0.8910
  915MOL0     H23522   9.437   6.024   8.250  0.3706  0.5466 -1.3998
  915MOL0     H23523   9.256   5.887   7.872  1.5871  1.1817 -0.6717
  915MOL0     H23524   9.043   5.554   8.160 -1.9220 -2.3149  1.5386
  915MOL0     H23525   8.826   5.525   8.087  4.2082 -1.4204  0.5469
  916MOL0     O23526   1.520   7.478   6.054 -0.2940 -0.5549 -0.1349
  916MOL0     C23527   1.530   7.534   6.166 -1.0950 -0.3863  0.3772
  916MOL0     O23528   1.651   7.542   6.232 -0.4654  0.4336  0.2527
  916MOL0     C23529   1.759   7.520   6.148 -0.4349 -0.8925 -0.2082
  916MOL0     C23530   1.817   7.627   6.072 -0.7691  0.3853 -0.0894
  916MOL0     C23531   1.924   7.591   5.995  0.2718 -0.1758 -0.1442
  916MOL0     C23532   1.981   7.467   5.975 -0.0583 -0.8445 -1.0441
  916MOL0     O23533   2.081   7.445   5.881 -0.5716 -0.8924 -0.5323
  916MOL0     C23534   2.174   7.547   5.846 -0.5568 -0.8604 -0.1376
  916MOL0     C23535   2.275   7.484   5.761  0.2761  0.1314  0.3765
  916MOL0     C23536   2.395   7.409   5.826 -0.6222  0.7699 -0.0908
  916MOL0     C23537   2.473   7.323   5.732 -0.1913 -0.9340 -0.0609
  916MOL0     C23538   2.603   7.267   5.801  1.1181  0.6572 -0.0837
  916MOL0     C23539   2.551   7.150   5.891 -0.0214 -1.1116 -0.5567
  916MOL0     C23540   2.648   7.047   5.954  0.4673 -0.0933  0.4584
  916MOL0     C23541   2.711   6.964   5.843 -0.4838 -0.4731  0.2617
  916MOL0     N23542   2.634   6.865   5.779 -0.2818 -0.2509 -0.9415
  916MOL0     C23543   2.531   6.797   5.838  0.1681  0.6930 -0.2582
  916MOL0     C23544   2.516   6.698   5.751  0.8397  0.3542  0.8810
  916MOL0     C23545   2.415   6.586   5.735  0.4641 -0.0349  0.2210
  916MOL0     C23546   2.284   6.605   5.822 -0.5989  0.1105  0.0467
  916MOL0     C23547   2.181   6.711   5.771 -0.5095  0.4790 -0.2010
  916MOL0     C23548   2.070   6.724   5.869 -0.3438  0.2239  0.3662
  916MOL0     O23549   1.981   6.612   5.846  0.2547  0.3048  0.2999
  916MOL0     C23550   1.892   6.623   5.740  0.2686 -0.1770  0.4277
  916MOL0     C23551   1.797   6.519   5.718 -0.5187  0.1838  0.5681
  916MOL0     C23552   1.698   6.527   5.616  0.2239  0.2197 -0.7131
  916MOL0     C23553   1.606   6.405   5.611 -0.1587  0.0963  1.4080
  916MOL0     C23554   1.684   6.645   5.552  0.0448 -0.7330  0.1776
  916MOL0     C23555   1.576   6.659   5.450 -0.1651  0.3727 -0.3882
  916MOL0     O23556   1.610   6.677   5.323 -0.3577  0.8572  0.1429
  916MOL0     C23557   1.517   6.647   5.224  1.1531  0.5024 -0.5212
  916MOL0     C23558   1.424   6.543   5.226 -0.5347  0.6557  0.3991
  916MOL0     C23559   1.355   6.507   5.114  0.0470  0.2487  0.3012
  916MOL0     C23560   1.374   6.577   4.990  1.3501  0.5876 -0.4812
  916MOL0     O23561   1.294   6.542   4.886  0.0532 -0.5125 -0.7455
  916MOL0     C23562   1.290   6.641   4.775  0.4029 -0.2522 -0.1822
  916MOL0     C23563   1.172   6.589   4.681 -0.0193 -0.0309 -0.4126
  916MOL0     C23564   1.034   6.547   4.739 -0.9336 -0.5383 -0.1565
  916MOL0     C23565   0.965   6.668   4.805 -0.0298 -0.7087 -0.2596
  916MOL0     C23566   0.836   6.630   4.890 -0.5239  0.0705  0.0385
  916MOL0     C23567   0.740   6.742   4.934  0.1589  0.3531 -0.6477
  916MOL0     C23568   0.632   6.692   5.040 -0.1064  0.1514  0.0514
  916MOL0     C23569   0.521   6.617   4.976 -0.1313 -0.6222  0.1021
  916MOL0    Cl23570   0.384   6.593   5.090 -0.2160 -0.5711  0.2075
  916MOL0     C23571   1.468   6.682   4.987 -0.0859 -0.5523 -0.7884
  916MOL0     C23572   1.543   6.709   5.104 -0.1181 -0.4975 -0.1000
  916MOL0     O23573   1.464   6.680   5.496  0.0191 -0.0979 -0.2184
  916MOL0     C23574   1.785   6.744   5.557 -0.0009  0.1057 -0.6465
  916MOL0     C23575   1.882   6.734   5.658 -0.1196  0.0809  0.3370
  916MOL0     N23576   2.601   6.715   5.643  0.7875  1.1445 -0.2403
  916MOL0     N23577   2.672   6.815   5.666 -0.4272 -0.3726  0.3256
  916MOL0     C23578   1.929   7.369   6.051  0.7621 -0.7573  0.5267
  916MOL0     C23579   1.819   7.396   6.142 -1.0384  0.0549 -1.3194
  916MOL0     C23580   1.403   7.553   6.239 -0.5021 -0.2177  0.3434
  916MOL0     C23581   1.284   7.486   6.187 -0.2421  1.0699  0.4081
  916MOL0     C23582   1.168   7.497   6.260 -0.7385  1.0874  0.6206
  916MOL0     C23583   1.163   7.567   6.378  0.3108 -0.1440 -0.7289
  916MOL0     O23584   1.055   7.542   6.466  0.2340  0.1233 -0.0053
  916MOL0     C23585   0.974   7.655   6.499  1.1344 -1.4481  0.7076
  916MOL0     C23586   0.895   7.706   6.379  0.5537 -0.1381 -0.1623
  916MOL0     C23587   0.747   7.741   6.409  0.4048 -0.5326  0.4137
  916MOL0     C23588   0.652   7.622   6.436 -0.0963 -0.4423  0.0732
  916MOL0     C23589   0.539   7.671   6.505  0.1112 -0.1133 -0.1751
  916MOL0     C23590   0.440   7.710   6.572 -0.4713 -0.1409 -0.3666
  916MOL0     C23591   1.275   7.622   6.432  0.6157  0.3380  0.9204
  916MOL0     C23592   1.395   7.622   6.360 -0.2895 -0.0300 -0.4977
  916MOL0     H23593   1.762   7.720   6.080 -2.7507 -0.5780 -1.5105
  916MOL0     H23594   1.966   7.676   5.942  1.6711 -0.6864  0.0823
  916MOL0     H23595   2.134   7.633   5.791 -1.1402 -1.1785 -0.2176
  916MOL0     H23596   2.218   7.594   5.934 -2.4878 -0.1191  0.4847
  916MOL0     H23597   2.226   7.414   5.692 -1.3918  3.3453 -1.9865
  916MOL0     H23598   2.314   7.562   5.695 -0.4936  0.1790 -0.0336
  916MOL0     H23599   2.469   7.481   5.861  0.0852 -0.4845  1.1238
  916MOL0     H23600   2.362   7.356   5.916  0.8616 -0.5725 -0.2827
  916MOL0     H23601   2.406   7.247   5.692  1.3414 -1.7357 -1.2140
  916MOL0     H23602   2.493   7.391   5.648  0.2400  0.1764  0.9154
  916MOL0     H23603   2.673   7.225   5.727  1.8028 -0.6541  1.2414
  916MOL0     H23604   2.657   7.337   5.866 -0.0592  1.0397  0.4974
  916MOL0     H23605   2.511   7.209   5.973 -2.9697 -0.8563 -2.0432
  916MOL0     H23606   2.466   7.101   5.843  0.5098 -1.2239 -1.4078
  916MOL0     H23607   2.738   7.078   6.008  1.0270 -2.9450  1.3189
  916MOL0     H23608   2.599   6.981   6.026  0.4699 -0.9868 -0.3284
  916MOL0     H23609   2.801   6.913   5.879  1.5133  0.0120 -3.4897
  916MOL0     H23610   2.746   7.038   5.770 -0.7993 -0.3187  0.2692
  916MOL0     H23611   2.479   6.825   5.930 -2.3677  0.2898 -1.4704
  916MOL0     H23612   2.389   6.571   5.630 -0.0722 -0.4781  0.4078
  916MOL0     H23613   2.466   6.495   5.767  0.5391  0.1127  0.5254
  916MOL0     H23614   2.300   6.629   5.928  2.8072  0.4202 -0.4122
  916MOL0     H23615   2.242   6.504   5.819  2.3456 -1.2060 -1.5465
  916MOL0     H23616   2.148   6.695   5.668 -0.0825 -3.4371  0.0913
  916MOL0     H23617   2.236   6.805   5.773 -2.0908  1.5053 -2.0306
  916MOL0     H23618   2.032   6.825   5.851  2.0090  1.0263 -0.5908
  916MOL0     H23619   2.109   6.715   5.971  0.1497 -2.0857  0.0162
  916MOL0     H23620   1.801   6.431   5.780  0.2503  0.7580  1.3488
  916MOL0     H23621   1.504   6.419   5.650 -0.1961  0.9347  1.0386
  916MOL0     H23622   1.605   6.371   5.507 -0.7259 -2.6188  2.2335
  916MOL0     H23623   1.648   6.313   5.651  2.2581 -0.3571 -1.7924
  916MOL0     H23624   1.422   6.496   5.324  0.4636 -0.5302 -0.1251
  916MOL0     H23625   1.279   6.429   5.115  0.7405 -0.4745  2.4659
  916MOL0     H23626   1.256   6.738   4.811 -0.0050 -1.1621  2.0792
  916MOL0     H23627   1.385   6.647   4.721  0.2430  0.4685 -0.3821
  916MOL0     H23628   1.151   6.655   4.596  0.7161 -0.6919 -1.1289
  916MOL0     H23629   1.208   6.502   4.624 -1.5363  0.3037 -1.9523
  916MOL0     H23630   1.037   6.464   4.810  0.4297  0.4375  0.9863
  916MOL0     H23631   0.977   6.522   4.648 -1.9554  2.0498 -0.3140
  916MOL0     H23632   1.026   6.717   4.882  3.2660 -1.3270 -2.2612
  916MOL0     H23633   0.940   6.746   4.731  0.3152  0.7324  1.0841
  916MOL0     H23634   0.881   6.580   4.977  1.5013  0.3140 -0.8173
  916MOL0     H23635   0.780   6.551   4.840 -1.1838  0.3840  0.2764
  916MOL0     H23636   0.786   6.833   4.972  1.4419 -0.5329 -0.0223
  916MOL0     H23637   0.686   6.778   4.846 -0.1792  1.9899  0.2016
  916MOL0     H23638   0.595   6.783   5.087  2.5345  1.2730  0.1444
  916MOL0     H23639   0.677   6.626   5.115  1.2757  0.5219 -0.4246
  916MOL0     H23640   0.563   6.528   4.929  3.8739  1.4740 -0.7966
  916MOL0     H23641   0.473   6.676   4.898  0.0410  1.7817  1.6884
  916MOL0     H23642   1.484   6.746   4.901  0.3286  1.0586  0.4397
  916MOL0     H23643   1.617   6.788   5.113 -0.9165  0.2574 -0.0187
  916MOL0     H23644   1.768   6.831   5.494 -0.4048  0.8370  0.4251
  916MOL0     H23645   1.948   6.820   5.660 -1.4823  1.1580  0.7123
  916MOL0     H23646   1.951   7.263   6.038  0.3063 -0.7039 -0.9146
  916MOL0     H23647   1.776   7.325   6.211  1.5907 -1.8717 -1.5275
  916MOL0     H23648   1.289   7.441   6.088 -1.9216  2.4896 -0.3598
  916MOL0     H23649   1.075   7.452   6.226 -0.9045  1.8124  0.0862
  916MOL0     H23650   0.900   7.632   6.577 -1.9121  2.7234 -0.6060
  916MOL0     H23651   1.032   7.739   6.537  0.1886  0.1140 -1.1403
  916MOL0     H23652   0.890   7.639   6.292 -1.7345 -0.0987 -0.1306
  916MOL0     H23653   0.953   7.791   6.342  3.3592 -1.7693  0.2532
  916MOL0     H23654   0.712   7.814   6.335  0.7827  1.5634  2.1750
  916MOL0     H23655   0.759   7.796   6.503  4.1500  0.5328 -0.5340
  916MOL0     H23656   0.699   7.548   6.502  1.9033 -0.9105 -1.7733
  916MOL0     H23657   0.631   7.571   6.341 -1.6134  2.3876 -1.2589
  916MOL0     H23658   0.359   7.745   6.633 -1.2723 -0.4025 -1.2604
  916MOL0     H23659   1.276   7.657   6.535 -1.3471  0.4456  0.9425
  916MOL0     H23660   1.483   7.659   6.412 -0.2991  0.0281 -0.5226
  917MOL0     O23661   9.619   5.937   1.240  0.4691  0.1628 -0.3138
  917MOL0     C23662   9.664   5.915   1.126  0.1337  0.2468 -0.8482
  917MOL0     O23663   9.603   5.826   1.035  0.0944 -0.3499 -0.1981
  917MOL0     C23664   9.468   5.783   1.058 -0.1746  0.8557 -0.2439
  917MOL0     C23665   9.426   5.666   0.997  0.4530  0.0849  0.4870
  917MOL0     C23666   9.296   5.614   1.002 -1.2652 -0.2092 -0.2282
  917MOL0     C23667   9.204   5.680   1.073  0.6889 -0.2624  0.7860
  917MOL0     O23668   9.077   5.636   1.060  0.2335  0.2851 -0.0382
  917MOL0     C23669   8.969   5.666   1.149 -0.0091 -0.8111 -1.2133
  917MOL0     C23670   8.843   5.607   1.094  0.1874 -0.0746  0.5271
  917MOL0     C23671   8.831   5.450   1.086 -0.1829 -0.0865  0.4629
  917MOL0     C23672   8.827   5.395   1.226 -0.4786  0.5340 -0.8232
  917MOL0     C23673   8.812   5.251   1.216  0.0127 -0.0087  0.5364
  917MOL0     C23674   8.686   5.190   1.157 -0.6175 -1.1851  0.5450
  917MOL0     C23675   8.711   5.047   1.115  0.0944  0.8380  0.1057
  917MOL0     C23676   8.582   4.991   1.050 -0.5792  0.1500 -0.4050
  917MOL0     N23677   8.457   5.003   1.131 -0.0441 -0.1407  0.0687
  917MOL0     C23678   8.388   5.121   1.142  0.5959 -0.1449 -0.4730
  917MOL0     C23679   8.278   5.092   1.207  0.4465 -0.0379 -0.0393
  917MOL0     C23680   8.160   5.186   1.230 -0.5998 -0.5378 -0.5248
  917MOL0     C23681   8.108   5.222   1.087 -0.6175 -1.9304 -0.8963
  917MOL0     C23682   7.988   5.329   1.101  0.2153  0.1298  0.1553
  917MOL0     C23683   8.019   5.465   1.169 -0.5896 -0.1024  0.7229
  917MOL0     O23684   7.917   5.555   1.131  0.3881 -0.5385  0.8262
  917MOL0     C23685   7.881   5.664   1.212 -0.3716  0.4575  0.0043
  917MOL0     C23686   7.962   5.697   1.326 -0.2375  0.4548  0.3333
  917MOL0     C23687   7.930   5.804   1.413  0.1179  0.0439  1.0063
  917MOL0     C23688   8.030   5.836   1.522 -0.1715  0.2034  0.3263
  917MOL0     C23689   7.800   5.858   1.404 -0.7739 -0.1097  0.4105
  917MOL0     C23690   7.743   5.955   1.497 -0.0693  0.8135  0.2128
  917MOL0     O23691   7.611   5.958   1.501  0.0564  0.2577  0.2980
  917MOL0     C23692   7.558   6.074   1.550 -0.1432  0.2599  0.4733
  917MOL0     C23693   7.454   6.065   1.645 -0.0605  0.5214 -1.1425
  917MOL0     C23694   7.376   6.169   1.689 -0.0399  0.7494 -0.0399
  917MOL0     C23695   7.400   6.299   1.641 -0.7647 -0.1066  0.3509
  917MOL0     O23696   7.322   6.415   1.669  0.2012  1.3031  0.4580
  917MOL0     C23697   7.191   6.395   1.718 -0.1499  0.0779  1.0406
  917MOL0     C23698   7.102   6.513   1.730 -0.1685 -0.2966  0.3217
  917MOL0     C23699   7.055   6.561   1.597  1.1155  0.8287  0.2578
  917MOL0     C23700   6.947   6.668   1.604  0.1061  0.2769 -0.6570
  917MOL0     C23701   6.986   6.815   1.641 -0.7188 -0.0966  0.3303
  917MOL0     C23702   7.107   6.879   1.559  0.6126 -0.1286  0.0209
  917MOL0     C23703   7.140   7.027   1.588 -0.0840  0.2987  0.8503
  917MOL0     C23704   7.215   7.046   1.721  0.5670 -0.5025 -0.4315
  917MOL0    Cl23705   7.102   7.033   1.873  0.2439  0.2597 -0.0506
  917MOL0     C23706   7.501   6.313   1.547 -0.1610 -0.0500 -0.9254
  917MOL0     C23707   7.580   6.205   1.509 -0.2985  0.3628 -0.6397
  917MOL0     O23708   7.822   6.025   1.559  0.0298 -0.0999 -0.1278
  917MOL0     C23709   7.719   5.817   1.294 -0.7418 -0.5721  0.1444
  917MOL0     C23710   7.760   5.722   1.198 -0.5330 -0.0589  0.1721
  917MOL0     N23711   8.264   4.961   1.240 -0.4104  0.4079  0.7369
  917MOL0     N23712   8.375   4.906   1.190  0.4154  0.1345  0.2668
  917MOL0     C23713   9.252   5.791   1.144  0.5808 -0.6485 -0.2398
  917MOL0     C23714   9.379   5.842   1.142  1.3628 -0.2666  0.2860
  917MOL0     C23715   9.787   5.985   1.077 -0.1212 -0.5310 -0.0594
  917MOL0     C23716   9.874   6.049   1.172 -0.3507  0.4139  1.3507
  917MOL0     C23717   9.985   6.121   1.116  0.1974 -0.6537  0.5020
  917MOL0     C23718  10.007   6.132   0.980  0.4862 -0.2378  0.9826
  917MOL0     O23719  10.112   6.198   0.921  0.1551  0.3844  0.1451
  917MOL0     C23720  10.241   6.188   0.985 -0.0595 -0.2074  1.2638
  917MOL0     C23721  10.346   6.181   0.868  0.9450 -0.1085  0.1020
  917MOL0     C23722  10.390   6.322   0.838  0.4216  0.0648 -0.0017
  917MOL0     C23723  10.527   6.345   0.769  0.5238 -0.6590  0.0094
  917MOL0     C23724  10.537   6.489   0.743  0.9838  0.9247  0.0850
  917MOL0     C23725  10.548   6.607   0.718  0.5287 -0.0890 -0.8703
  917MOL0     C23726   9.914   6.073   0.891  0.2228 -0.2680  0.4195
  917MOL0     C23727   9.810   5.995   0.940  0.2738 -0.7980  1.3302
  917MOL0     H23728   9.484   5.605   0.929 -1.7905  0.1707 -1.6231
  917MOL0     H23729   9.281   5.526   0.940  1.6649  1.0150 -2.9694
  917MOL0     H23730   8.976   5.625   1.250 -1.7693  0.2795 -0.5922
  917MOL0     H23731   8.976   5.775   1.162  0.2821 -0.9078 -0.5471
  917MOL0     H23732   8.746   5.647   1.125 -1.4219  0.3619 -4.1559
  917MOL0     H23733   8.844   5.644   0.991  2.9184  1.8193  1.1261
  917MOL0     H23734   8.744   5.418   1.029  0.0120 -2.2345  1.2917
  917MOL0     H23735   8.922   5.413   1.038 -0.1480  2.9947 -2.1676
  917MOL0     H23736   8.918   5.421   1.280 -0.8547 -0.7532  0.4855
  917MOL0     H23737   8.747   5.434   1.290  1.3563  1.6162  0.9216
  917MOL0     H23738   8.900   5.211   1.164  3.5317 -1.5335  6.6480
  917MOL0     H23739   8.821   5.211   1.317 -0.0674  0.1149  0.5919
  917MOL0     H23740   8.611   5.190   1.237  0.8172 -1.7929  1.9436
  917MOL0     H23741   8.634   5.246   1.080 -1.9798  0.7947  2.7542
  917MOL0     H23742   8.795   5.039   1.045 -0.6743 -0.9393 -0.6596
  917MOL0     H23743   8.728   4.981   1.201 -1.3854  0.0015 -0.2150
  917MOL0     H23744   8.590   4.885   1.025  1.1329  0.7424 -2.7310
  917MOL0     H23745   8.571   5.043   0.954  0.3285  2.5436  0.7108
  917MOL0     H23746   8.404   5.212   1.085  0.7280 -1.1195 -2.0547
  917MOL0     H23747   8.081   5.129   1.280  0.1687 -1.2196 -0.0604
  917MOL0     H23748   8.180   5.275   1.290 -4.9782  0.3145 -0.0063
  917MOL0     H23749   8.096   5.133   1.025  1.1574 -4.0449  1.6081
  917MOL0     H23750   8.181   5.282   1.032  0.3139  2.4175  4.1999
  917MOL0     H23751   7.898   5.281   1.141 -1.3524  2.5255 -0.3117
  917MOL0     H23752   7.947   5.353   1.003 -3.0248  0.9957  1.5901
  917MOL0     H23753   8.118   5.496   1.137 -1.0323 -0.7790 -1.4721
  917MOL0     H23754   8.026   5.448   1.277  0.9573 -0.4304  0.5836
  917MOL0     H23755   8.064   5.660   1.339  0.8759  1.8063 -3.3289
  917MOL0     H23756   7.986   5.833   1.622  0.0302 -1.6567  0.3851
  917MOL0     H23757   8.115   5.768   1.519 -1.0509 -0.8973 -0.3007
  917MOL0     H23758   8.059   5.938   1.495  1.9440 -0.5342 -0.3465
  917MOL0     H23759   7.447   5.970   1.696  0.7015 -0.1329 -2.2345
  917MOL0     H23760   7.313   6.166   1.778  1.9929  1.3889  1.5012
  917MOL0     H23761   7.153   6.309   1.662  0.7509 -0.6535  1.5195
  917MOL0     H23762   7.223   6.360   1.816  4.2499 -0.2907 -0.2759
  917MOL0     H23763   7.016   6.498   1.796  0.0333  1.2470  0.9718
  917MOL0     H23764   7.161   6.597   1.768  2.7769 -1.3662 -1.4778
  917MOL0     H23765   7.022   6.475   1.539  1.9475  0.2148  0.6756
  917MOL0     H23766   7.141   6.600   1.542  1.5059  0.7324  0.7937
  917MOL0     H23767   6.899   6.668   1.506  0.7695  0.7872 -0.9982
  917MOL0     H23768   6.872   6.625   1.670  0.5187 -0.7012 -0.8117
  917MOL0     H23769   7.023   6.805   1.743 -2.8138 -0.1334  1.1447
  917MOL0     H23770   6.902   6.886   1.642  0.1451  1.0826 -2.1405
  917MOL0     H23771   7.193   6.812   1.570  0.8218 -0.3792 -2.5928
  917MOL0     H23772   7.080   6.875   1.453 -0.5074  1.8792  0.1938
  917MOL0     H23773   7.051   7.090   1.574  1.9552  2.6181 -4.1898
  917MOL0     H23774   7.215   7.060   1.517 -0.7551  2.3265  1.0252
  917MOL0     H23775   7.272   7.139   1.731 -1.3391  0.7058 -0.2238
  917MOL0     H23776   7.290   6.969   1.739 -1.2272 -1.5949  3.4848
  917MOL0     H23777   7.531   6.412   1.513 -0.1895  0.6793  1.0238
  917MOL0     H23778   7.661   6.215   1.436  0.6253 -2.6665 -0.1734
  917MOL0     H23779   7.617   5.854   1.297 -1.2089 -1.8463  2.9367
  917MOL0     H23780   7.687   5.689   1.125  0.0003 -2.0697  0.4904
  917MOL0     H23781   9.183   5.848   1.205 -0.9056 -1.4788 -1.0802
  917MOL0     H23782   9.392   5.939   1.188  0.8134  1.2835 -2.5706
  917MOL0     H23783   9.869   6.038   1.280  0.8583  1.3544  1.5306
  917MOL0     H23784  10.052   6.169   1.187  0.1532  0.4332 -0.1583
  917MOL0     H23785  10.247   6.272   1.054  1.6593 -0.4423  1.4561
  917MOL0     H23786  10.244   6.096   1.043 -0.7147  0.4535  2.3758
  917MOL0     H23787  10.300   6.141   0.777 -0.0296  2.3659 -0.5814
  917MOL0     H23788  10.433   6.122   0.898 -0.5138 -1.6656  1.4037
  917MOL0     H23789  10.402   6.370   0.936  2.1097 -1.1496  0.4279
  917MOL0     H23790  10.316   6.385   0.789 -1.3539 -1.3572  0.7449
  917MOL0     H23791  10.523   6.293   0.672  0.2734 -0.0890 -0.2872
  917MOL0     H23792  10.613   6.319   0.830  0.8847  0.0338 -0.1944
  917MOL0     H23793  10.568   6.710   0.695 -1.8486  0.3646 -1.1632
  917MOL0     H23794   9.936   6.068   0.785  1.7024  0.8622  0.6446
  917MOL0     H23795   9.758   5.939   0.863  2.1772 -1.9809  0.8102
  918MOL0     O23796   2.501   9.499   4.519  0.0431 -0.9668 -0.9912
  918MOL0     C23797   2.543   9.584   4.450 -0.4693  0.7661 -0.1337
  918MOL0     O23798   2.471   9.672   4.385 -0.1036  0.1176 -0.0466
  918MOL0     C23799   2.341   9.665   4.401  0.4766 -0.1129  0.5274
  918MOL0     C23800   2.270   9.565   4.333 -0.0878 -0.3278 -0.2541
  918MOL0     C23801   2.130   9.560   4.345  0.1166 -0.5300 -0.1242
  918MOL0     C23802   2.062   9.660   4.418 -0.6988  0.3149 -0.2346
  918MOL0     O23803   1.929   9.659   4.441 -0.1267  0.5478  0.4994
  918MOL0     C23804   1.852   9.534   4.436  0.2003  0.7119  0.2496
  918MOL0     C23805   1.712   9.528   4.504  0.8312 -0.2109 -0.2863
  918MOL0     C23806   1.608   9.620   4.435  0.0769  0.5904  0.4483
  918MOL0     C23807   1.479   9.631   4.518  0.1293 -0.0385  0.2720
  918MOL0     C23808   1.390   9.504   4.495  0.2397 -0.3041  0.4666
  918MOL0     C23809   1.239   9.532   4.496  0.1296  0.4282 -1.1125
  918MOL0     C23810   1.179   9.652   4.413  0.0186  0.3430 -0.3937
  918MOL0     C23811   1.195   9.639   4.267  0.3193 -0.0606 -0.1298
  918MOL0     N23812   1.128   9.752   4.194  0.3290  0.5704 -0.1485
  918MOL0     C23813   1.184   9.869   4.155  0.2552 -0.9192  0.1451
  918MOL0     C23814   1.076   9.949   4.119  1.3865 -0.4272 -0.3017
  918MOL0     C23815   1.081  10.097   4.068 -0.0894 -0.2459  0.0521
  918MOL0     C23816   1.041  10.116   3.927  0.4700 -1.1989 -0.4538
  918MOL0     C23817   0.888  10.104   3.886 -0.1181  0.2613 -0.0623
  918MOL0     C23818   0.790  10.198   3.975 -1.1725  0.2585 -0.0128
  918MOL0     O23819   0.655  10.179   3.940 -0.2871  0.2953 -0.0400
  918MOL0     C23820   0.561  10.271   3.982  0.1274  0.6930  0.1174
  918MOL0     C23821   0.587  10.360   4.085 -0.5358  0.4277  0.7742
  918MOL0     C23822   0.482  10.439   4.139 -0.1891 -1.2214  0.1783
  918MOL0     C23823   0.521  10.544   4.248  0.2392  0.6024  0.2703
  918MOL0     C23824   0.356  10.443   4.080  0.5021  0.3307  0.9448
  918MOL0     C23825   0.242  10.512   4.135  0.8039  0.2817  0.4421
  918MOL0     O23826   0.123  10.474   4.094  0.6936  0.5280 -0.4639
  918MOL0     C23827   0.016  10.551   4.125 -1.2773  0.4685 -0.3330
  918MOL0     C23828  -0.103  10.496   4.177  0.8275  0.1200 -0.6847
  918MOL0     C23829  -0.223  10.557   4.189  0.3699 -0.5355 -0.3800
  918MOL0     C23830  -0.238  10.693   4.156  0.2661 -0.1546 -0.1906
  918MOL0     O23831  -0.364  10.756   4.159 -0.1998 -0.0186  0.0872
  918MOL0     C23832  -0.378  10.864   4.253  0.0825 -0.5665 -0.0026
  918MOL0     C23833  -0.505  10.943   4.220 -0.0850  0.8410 -0.7452
  918MOL0     C23834  -0.563  11.002   4.349 -0.5845  0.0450  0.5448
  918MOL0     C23835  -0.643  10.908   4.433 -0.3199  0.6351  0.4095
  918MOL0     C23836  -0.670  10.965   4.569 -0.1403  0.3652  0.0157
  918MOL0     C23837  -0.788  11.064   4.593  0.0654 -0.2730 -0.0512
  918MOL0     C23838  -0.926  11.006   4.590 -0.2228  0.1164  0.4714
  918MOL0     C23839  -1.041  11.112   4.598  0.8226  0.3799 -0.3411
  918MOL0    Cl23840  -1.181  11.023   4.669  0.0162  0.2287  0.0462
  918MOL0     C23841  -0.121  10.759   4.112 -1.3506  0.1045  0.0514
  918MOL0     C23842   0.001  10.690   4.087 -0.8632  0.2504 -0.1990
  918MOL0     O23843   0.257  10.603   4.213 -0.5772 -0.3823 -0.5478
  918MOL0     C23844   0.326  10.353   3.975 -0.6179  0.6074  0.7919
  918MOL0     C23845   0.429  10.263   3.930  0.0214 -0.0537 -0.8724
  918MOL0     N23846   0.959   9.874   4.127  0.9396 -0.6027  0.4403
  918MOL0     N23847   0.996   9.751   4.168  0.5850 -0.8627 -0.7942
  918MOL0     C23848   2.131   9.769   4.472  0.1992 -0.1855  0.4773
  918MOL0     C23849   2.269   9.772   4.474  0.8814  0.1165 -0.0591
  918MOL0     C23850   2.684   9.585   4.422  0.9019 -0.2649  0.0274
  918MOL0     C23851   2.729   9.665   4.328  0.3097  0.2670 -0.0576
  918MOL0     C23852   2.867   9.668   4.291  0.0200  0.6438  0.0400
  918MOL0     C23853   2.947   9.584   4.362  0.2734  0.0350  0.1185
  918MOL0     O23854   3.073   9.595   4.330 -0.8366  0.0348  0.6918
  918MOL0     C23855   3.186   9.537   4.397 -0.2714  0.9768 -0.5819
  918MOL0     C23856   3.317   9.606   4.374 -0.4532 -0.2385 -0.0387
  918MOL0     C23857   3.445   9.538   4.433  0.7356 -0.1444 -0.2991
  918MOL0     C23858   3.558   9.642   4.445  0.1821  0.4174 -0.5273
  918MOL0     C23859   3.667   9.591   4.532 -0.5687  0.3848  1.0963
  918MOL0     C23860   3.735   9.538   4.620 -0.5182  0.1089  0.3113
  918MOL0     C23861   2.898   9.492   4.458 -0.3054 -0.2892 -0.5231
  918MOL0     C23862   2.769   9.505   4.499  0.5910  0.0108 -0.3489
  918MOL0     H23863   2.323   9.487   4.279  0.5685 -0.5567  0.6960
  918MOL0     H23864   2.076   9.475   4.304  1.6453 -3.1285  2.7996
  918MOL0     H23865   1.848   9.509   4.330 -0.1405 -1.6479  0.7698
  918MOL0     H23866   1.909   9.453   4.483 -1.4303 -0.2037  0.7475
  918MOL0     H23867   1.670   9.428   4.514  0.9431 -0.1347  1.1973
  918MOL0     H23868   1.721   9.559   4.608  1.1969  0.3575 -0.4795
  918MOL0     H23869   1.653   9.720   4.425  2.9007 -0.3345  2.5824
  918MOL0     H23870   1.586   9.575   4.338  1.3076 -2.6306  1.5373
  918MOL0     H23871   1.491   9.645   4.626  0.2634  1.8741  0.0461
  918MOL0     H23872   1.414   9.711   4.482 -3.2462 -2.4506  0.4840
  918MOL0     H23873   1.415   9.471   4.394  2.5408  0.2590  0.8000
  918MOL0     H23874   1.412   9.426   4.569  0.2735  1.2755  2.2146
  918MOL0     H23875   1.194   9.438   4.465  1.2485  0.5321 -3.3115
  918MOL0     H23876   1.201   9.553   4.596 -0.1145 -0.9100 -0.9142
  918MOL0     H23877   1.078   9.672   4.449  0.5269 -3.3532  4.1010
  918MOL0     H23878   1.233   9.744   4.439  0.8050 -0.6297  1.6525
  918MOL0     H23879   1.133   9.557   4.231  0.4693  0.8982 -2.8553
  918MOL0     H23880   1.298   9.622   4.235 -0.4470 -2.3772 -1.5908
  918MOL0     H23881   1.289   9.895   4.163  1.2011 -3.2970 -2.5873
  918MOL0     H23882   1.019  10.145   4.144 -1.3462 -2.1527  0.3096
  918MOL0     H23883   1.186  10.127   4.079 -0.6249  0.9239  3.1884
  918MOL0     H23884   1.098  10.040   3.872  1.1142 -1.4202  0.4909
  918MOL0     H23885   1.086  10.211   3.895 -0.4575  0.0452  1.7105
  918MOL0     H23886   0.859  10.000   3.901 -0.5372  0.0003 -2.3792
  918MOL0     H23887   0.875  10.139   3.783 -1.7870  0.2663  0.1214
  918MOL0     H23888   0.822  10.301   3.956  0.4221 -0.0347  0.8368
  918MOL0     H23889   0.812  10.186   4.081  1.9136  1.9848 -0.3291
  918MOL0     H23890   0.683  10.355   4.136 -0.7074  0.2218  1.0790
  918MOL0     H23891   0.458  10.545   4.337 -2.5763 -1.2276 -1.5465
  918MOL0     H23892   0.620  10.533   4.294  0.3176 -2.1187 -0.3977
  918MOL0     H23893   0.517  10.650   4.219 -2.8697  0.0576 -1.8004
  918MOL0     H23894  -0.090  10.392   4.205 -0.4495 -0.5455 -2.3917
  918MOL0     H23895  -0.296  10.492   4.235  0.9636 -1.3253 -0.5367
  918MOL0     H23896  -0.402  10.810   4.345  2.4298  0.4660  1.3251
  918MOL0     H23897  -0.290  10.928   4.252 -0.8320  0.8079  1.8700
  918MOL0     H23898  -0.494  11.022   4.145  0.9295  1.7742  0.3237
  918MOL0     H23899  -0.573  10.872   4.174 -0.5504  1.7899 -1.5679
  918MOL0     H23900  -0.642  11.073   4.323 -0.8452  0.0252  1.2607
  918MOL0     H23901  -0.486  11.056   4.405 -0.3360  0.7717 -0.4605
  918MOL0     H23902  -0.734  10.882   4.377 -0.2793 -0.8946  0.9897
  918MOL0     H23903  -0.594  10.810   4.446 -2.7513 -0.7089  0.0139
  918MOL0     H23904  -0.567  10.991   4.595  0.2909  0.3262 -1.5700
  918MOL0     H23905  -0.688  10.878   4.632  1.6544 -0.9788 -1.2232
  918MOL0     H23906  -0.775  11.112   4.690  1.3187  0.3213 -0.4889
  918MOL0     H23907  -0.784  11.146   4.521 -0.0951  0.1117  0.3729
  918MOL0     H23908  -0.932  10.950   4.684 -2.0485 -1.7243 -0.6470
  918MOL0     H23909  -0.934  10.943   4.501  0.6734 -1.4381  1.4473
  918MOL0     H23910  -1.082  11.159   4.508 -2.4305  0.2953  0.9597
  918MOL0     H23911  -1.008  11.173   4.683  0.9534  1.4836 -1.1620
  918MOL0     H23912  -0.128  10.867   4.103  2.9097  0.5655 -0.1086
  918MOL0     H23913   0.078  10.740   4.029  2.0178 -3.7117 -0.1430
  918MOL0     H23914   0.227  10.352   3.930 -1.2462 -0.4377  2.1534
  918MOL0     H23915   0.410  10.187   3.856 -1.0621  0.7719 -1.4780
  918MOL0     H23916   2.077   9.845   4.528  0.5754 -0.2254  0.9018
  918MOL0     H23917   2.324   9.849   4.528  0.8067  0.0133  0.1603
  918MOL0     H23918   2.664   9.732   4.272  2.1874 -0.5246 -3.4622
  918MOL0     H23919   2.897   9.740   4.215 -1.2016  1.0598 -0.0568
  918MOL0     H23920   3.174   9.532   4.506 -0.4092 -1.8215 -0.6394
  918MOL0     H23921   3.194   9.434   4.361 -2.4834  0.6651 -0.3799
  918MOL0     H23922   3.320   9.711   4.406 -4.7752  0.0189  0.0822
  918MOL0     H23923   3.336   9.606   4.266 -1.9938 -2.6072 -0.3774
  918MOL0     H23924   3.464   9.455   4.364 -1.7559 -1.5244  0.5806
  918MOL0     H23925   3.420   9.501   4.532 -2.8277  0.4111 -0.8451
  918MOL0     H23926   3.528   9.735   4.495  2.5446  0.6408  0.6003
  918MOL0     H23927   3.587   9.664   4.342  0.0308 -0.2364 -0.7146
  918MOL0     H23928   3.808   9.498   4.687 -1.2221  0.4759  1.3273
  918MOL0     H23929   2.970   9.423   4.499 -0.8656 -1.6556 -1.7623
  918MOL0     H23930   2.724   9.446   4.578 -3.4755  0.8219 -1.7825
  919MOL0     O23931   1.497   6.726   2.068  0.4891  0.3545  0.2007
  919MOL0     C23932   1.434   6.832   2.059 -0.0893 -0.5829  0.3481
  919MOL0     O23933   1.342   6.866   1.963 -0.1214 -0.5161  0.9503
  919MOL0     C23934   1.271   6.773   1.888 -0.5118  0.2318 -0.4958
  919MOL0     C23935   1.162   6.706   1.947 -1.4185  0.4552 -0.5416
  919MOL0     C23936   1.095   6.613   1.864 -0.0047  0.7561 -0.5394
  919MOL0     C23937   1.128   6.576   1.733  0.1305  1.3898  0.1914
  919MOL0     O23938   1.043   6.489   1.671  0.4400  0.3958  0.0047
  919MOL0     C23939   1.092   6.412   1.556  0.6503 -1.0126  0.8864
  919MOL0     C23940   0.979   6.324   1.489 -1.1399  0.3763  0.1930
  919MOL0     C23941   0.954   6.360   1.332  0.2268  0.4656 -1.3248
  919MOL0     C23942   0.851   6.254   1.281 -0.3828 -0.3589  0.6754
  919MOL0     C23943   0.721   6.258   1.354  0.5318 -0.0446  0.1142
  919MOL0     C23944   0.615   6.180   1.268  0.2546 -0.4535 -0.2226
  919MOL0     C23945   0.476   6.194   1.331 -0.0069  0.7996  0.2996
  919MOL0     C23946   0.375   6.137   1.222 -1.0215 -0.4309  0.2366
  919MOL0     N23947   0.239   6.161   1.267 -0.1986  0.7438  0.4797
  919MOL0     C23948   0.151   6.053   1.291  0.1436 -0.0233  0.1461
  919MOL0     C23949   0.043   6.122   1.348  0.0966  0.8511 -0.1089
  919MOL0     C23950  -0.077   6.060   1.405 -0.4591  0.3510 -0.0078
  919MOL0     C23951  -0.179   6.008   1.304 -0.0381  0.5575 -0.4285
  919MOL0     C23952  -0.169   5.852   1.303  0.1422 -0.6579  0.4624
  919MOL0     C23953  -0.221   5.783   1.424  0.2456  0.0023 -0.2654
  919MOL0     O23954  -0.224   5.643   1.422 -0.6706  0.0437  0.9171
  919MOL0     C23955  -0.331   5.580   1.366  0.2622  0.0155 -0.1695
  919MOL0     C23956  -0.335   5.442   1.388  0.1541  0.3701 -0.3545
  919MOL0     C23957  -0.439   5.358   1.342  0.0246  0.9921  0.0858
  919MOL0     C23958  -0.444   5.201   1.355 -0.9180 -0.0008  0.2340
  919MOL0     C23959  -0.544   5.419   1.271 -0.2850 -0.0623 -0.3333
  919MOL0     C23960  -0.665   5.365   1.218 -0.3907  1.1785 -0.1016
  919MOL0     O23961  -0.789   5.417   1.252 -0.1818  0.2640 -0.6693
  919MOL0     C23962  -0.900   5.359   1.196 -0.5840  0.4474  0.0055
  919MOL0     C23963  -0.951   5.230   1.222  0.0572  0.3647  0.7041
  919MOL0     C23964  -1.071   5.181   1.165  0.4053  0.5041  0.6628
  919MOL0     C23965  -1.156   5.270   1.088  0.1360 -0.2618  0.1262
  919MOL0     O23966  -1.269   5.218   1.037 -0.9431  0.8547  0.0810
  919MOL0     C23967  -1.327   5.292   0.929  0.0970  1.1104  0.0827
  919MOL0     C23968  -1.441   5.209   0.866 -0.7834  0.7272  0.0471
  919MOL0     C23969  -1.529   5.139   0.978 -0.4406 -0.2185  0.3938
  919MOL0     C23970  -1.674   5.131   0.923 -1.1868 -0.2689  0.4063
  919MOL0     C23971  -1.742   5.021   0.998  0.2004 -0.3446 -1.2834
  919MOL0     C23972  -1.883   5.004   0.951 -0.4191  0.0339 -0.5658
  919MOL0     C23973  -1.967   4.912   1.036 -0.4876 -0.5537 -0.2368
  919MOL0     C23974  -2.105   4.911   0.977 -0.0145  0.0564  0.2390
  919MOL0    Cl23975  -2.212   5.047   1.045  0.4538 -0.1902 -0.2253
  919MOL0     C23976  -1.111   5.400   1.067 -0.6155 -0.9104 -0.9421
  919MOL0     C23977  -0.982   5.442   1.119 -0.1053 -0.0306  0.0793
  919MOL0     O23978  -0.654   5.260   1.152 -0.0917  0.6592 -0.6221
  919MOL0     C23979  -0.532   5.560   1.248 -0.2665  0.7121  0.3544
  919MOL0     C23980  -0.432   5.644   1.294  0.4404 -0.4817 -0.0301
  919MOL0     N23981   0.057   6.258   1.349 -1.0837  0.4984  0.5066
  919MOL0     N23982   0.173   6.280   1.300  0.0018  0.5760 -0.0759
  919MOL0     C23983   1.235   6.643   1.671 -1.3482 -0.1151  0.1164
  919MOL0     C23984   1.311   6.738   1.749  0.3780 -0.3648 -0.2281
  919MOL0     C23985   1.469   6.932   2.163 -0.4266 -0.3802  0.3547
  919MOL0     C23986   1.575   6.912   2.259  0.3311  0.0975  0.3246
  919MOL0     C23987   1.587   6.986   2.378  1.0659  0.0768  1.0246
  919MOL0     C23988   1.501   7.095   2.397 -0.9018  0.3589  0.1901
  919MOL0     O23989   1.525   7.168   2.511  0.5435  0.0121 -0.5619
  919MOL0     C23990   1.478   7.305   2.506 -0.4207  0.7691 -0.7805
  919MOL0     C23991   1.553   7.384   2.617 -0.2531 -0.3363  0.4203
  919MOL0     C23992   1.525   7.345   2.761 -1.2080 -0.2185  0.0707
  919MOL0     C23993   1.629   7.385   2.858  0.7443 -0.7845 -0.1543
  919MOL0     C23994   1.592   7.368   2.999  0.0180  0.0445  0.8796
  919MOL0     C23995   1.556   7.352   3.110  0.2525 -0.1739  0.1431
  919MOL0     C23996   1.388   7.107   2.309 -0.3320 -0.4061  0.6552
  919MOL0     C23997   1.364   7.018   2.204  0.4092  0.1606  0.2556
  919MOL0     H23998   1.136   6.722   2.051  4.7543  0.2650  1.4181
  919MOL0     H23999   1.007   6.564   1.903 -0.0664 -0.5993 -2.2865
  919MOL0     H24000   1.130   6.492   1.491 -1.1519  1.9161  3.1789
  919MOL0     H24001   1.169   6.339   1.581  0.8267 -1.4273 -0.7292
  919MOL0     H24002   1.010   6.219   1.499 -2.9633  0.0320  3.9364
  919MOL0     H24003   0.891   6.334   1.552 -0.2750 -0.7627  1.6703
  919MOL0     H24004   0.911   6.461   1.330 -0.1474  0.4001  0.6617
  919MOL0     H24005   1.050   6.357   1.280  0.1244 -0.5891 -1.4742
  919MOL0     H24006   0.827   6.287   1.179 -0.5271  1.4789  1.2639
  919MOL0     H24007   0.904   6.158   1.285 -0.8855 -0.5901  3.2619
  919MOL0     H24008   0.729   6.215   1.454  0.8927 -0.2086  0.0147
  919MOL0     H24009   0.691   6.362   1.371 -1.9540 -0.7602  0.5427
  919MOL0     H24010   0.623   6.205   1.162  0.3812  0.3965 -0.0224
  919MOL0     H24011   0.635   6.074   1.279 -4.3705 -1.6206 -0.8798
  919MOL0     H24012   0.464   6.133   1.421 -1.2795 -0.2623 -0.5532
  919MOL0     H24013   0.457   6.294   1.371 -0.1283  1.1930 -0.7206
  919MOL0     H24014   0.405   6.035   1.196  1.8782  0.1955  0.7985
  919MOL0     H24015   0.387   6.195   1.130 -0.1673 -1.4538 -0.3170
  919MOL0     H24016   0.155   5.948   1.266 -1.4663  0.4271 -2.3425
  919MOL0     H24017  -0.042   5.982   1.473 -0.2947  0.2571 -0.1981
  919MOL0     H24018  -0.116   6.141   1.468  0.6477  1.4133 -0.6484
  919MOL0     H24019  -0.160   6.050   1.204 -0.3769  2.1491  0.1414
  919MOL0     H24020  -0.275   6.047   1.341  0.7694  2.6347 -0.3732
  919MOL0     H24021  -0.070   5.820   1.269  0.7598  1.3257  0.2685
  919MOL0     H24022  -0.229   5.822   1.216  0.6489 -0.3061 -0.0165
  919MOL0     H24023  -0.314   5.833   1.452  0.6615 -1.0049  3.5112
  919MOL0     H24024  -0.152   5.817   1.502  0.7491 -1.1483 -0.1876
  919MOL0     H24025  -0.256   5.387   1.437 -1.8622 -1.8195  0.6159
  919MOL0     H24026  -0.426   5.168   1.252  0.9345  1.3709  0.0735
  919MOL0     H24027  -0.366   5.159   1.420  0.6767  1.9188 -0.3324
  919MOL0     H24028  -0.540   5.181   1.402  0.5023 -0.8372  3.0162
  919MOL0     H24029  -0.884   5.175   1.287 -1.5330 -0.1002  2.0422
  919MOL0     H24030  -1.117   5.083   1.171 -1.3800  1.1290 -1.3865
  919MOL0     H24031  -1.376   5.383   0.967 -2.8114 -0.0544 -0.5973
  919MOL0     H24032  -1.249   5.315   0.857  2.0721  0.0022  1.7770
  919MOL0     H24033  -1.501   5.281   0.810  1.6179  0.2740 -3.4480
  919MOL0     H24034  -1.392   5.136   0.800  2.7781 -0.3888  3.5124
  919MOL0     H24035  -1.523   5.188   1.076  1.0114  1.1856 -0.3403
  919MOL0     H24036  -1.481   5.041   0.987  0.4408 -0.0186 -1.5398
  919MOL0     H24037  -1.725   5.227   0.933  0.5362  0.8503 -0.9638
  919MOL0     H24038  -1.675   5.101   0.818 -1.0160 -0.9263  0.5908
  919MOL0     H24039  -1.759   5.046   1.103 -0.0036 -0.5183 -1.2726
  919MOL0     H24040  -1.682   4.930   0.996  1.0367 -0.1627  3.4472
  919MOL0     H24041  -1.932   5.101   0.945  1.5563  1.3180  2.0994
  919MOL0     H24042  -1.876   4.953   0.854  1.3137 -0.0865 -0.4165
  919MOL0     H24043  -1.974   4.949   1.138 -1.8730  0.8277 -0.7968
  919MOL0     H24044  -1.922   4.812   1.037  4.6972  1.4732  1.0630
  919MOL0     H24045  -2.144   4.820   1.022 -1.6340  1.3823  1.6643
  919MOL0     H24046  -2.108   4.912   0.867  0.8530 -0.5612  0.1991
  919MOL0     H24047  -1.157   5.468   0.996 -2.7875 -1.8882 -0.5437
  919MOL0     H24048  -0.951   5.541   1.086 -2.8303  0.5157 -1.1129
  919MOL0     H24049  -0.616   5.612   1.204 -0.9487 -0.8706 -0.2487
  919MOL0     H24050  -0.437   5.751   1.275  1.0722 -0.1102  1.6737
  919MOL0     H24051   1.262   6.629   1.567  2.6323 -0.2801  1.0226
  919MOL0     H24052   1.402   6.772   1.701  0.3246  0.8752  0.5346
  919MOL0     H24053   1.646   6.836   2.228 -2.4899 -1.0902 -4.0855
  919MOL0     H24054   1.665   6.978   2.454  1.1949  2.4961  1.1993
  919MOL0     H24055   1.503   7.347   2.409 -1.6803 -1.1527 -2.0054
  919MOL0     H24056   1.370   7.309   2.522 -0.6987 -1.0254 -1.9673
  919MOL0     H24057   1.518   7.487   2.611  1.5605  0.3367  0.7259
  919MOL0     H24058   1.662   7.389   2.607 -0.2298 -0.1894  0.7337
  919MOL0     H24059   1.514   7.237   2.766 -1.8908 -0.2167 -0.9076
  919MOL0     H24060   1.430   7.383   2.800 -1.5525 -1.4827  0.5051
  919MOL0     H24061   1.658   7.490   2.847  0.7279 -0.8582 -0.9110
  919MOL0     H24062   1.707   7.310   2.840 -1.8356 -3.3627 -1.1924
  919MOL0     H24063   1.523   7.341   3.211 -0.0310 -0.3901  0.0290
  919MOL0     H24064   1.318   7.184   2.341 -2.8105 -2.3121  0.0824
  919MOL0     H24065   1.267   7.010   2.157 -0.7230  0.7461  2.3718
  920MOL0     O24066  10.614   9.253  10.439  1.0739  0.0883 -0.0685
  920MOL0     C24067  10.725   9.242  10.491  0.3432  0.6127  0.2638
  920MOL0     O24068  10.737   9.202  10.625 -0.0337  0.5312  0.4280
  920MOL0     C24069  10.623   9.143  10.673  0.4965 -0.2810 -0.2927
  920MOL0     C24070  10.612   9.003  10.670  0.4048  0.4329  0.3122
  920MOL0     C24071  10.497   8.940  10.722 -0.7635 -0.3068  0.4257
  920MOL0     C24072  10.391   9.020  10.770 -0.0646  0.6567 -0.5154
  920MOL0     O24073  10.268   8.949  10.807  0.2064  0.4858 -1.0276
  920MOL0     C24074  10.152   9.034  10.823 -0.8319  0.4105  0.4624
  920MOL0     C24075  10.021   8.967  10.816  0.4618  0.0024  0.2923
  920MOL0     C24076   9.911   9.072  10.789  0.0200  0.3162  0.1638
  920MOL0     C24077   9.770   9.011  10.790 -0.0670 -0.7621  0.6560
  920MOL0     C24078   9.725   8.920  10.905 -0.1862  0.0738  0.5726
  920MOL0     C24079   9.741   9.000  11.037 -0.8797  0.0076  0.2476
  920MOL0     C24080   9.649   8.959  11.152 -0.6510  0.7164  0.0905
  920MOL0     C24081   9.704   8.830  11.219 -0.6478 -0.5956  0.3670
  920MOL0     N24082   9.630   8.801  11.340  0.5200  0.1563  0.7251
  920MOL0     C24083   9.613   8.880  11.454 -0.8006 -0.0436 -0.2117
  920MOL0     C24084   9.515   8.824  11.529  0.3221 -0.5047  0.9198
  920MOL0     C24085   9.479   8.858  11.671  0.2810 -0.4862 -0.5165
  920MOL0     C24086   9.356   8.793  11.722  0.0675 -0.4341 -0.2861
  920MOL0     C24087   9.334   8.833  11.867 -0.3120  0.6670 -0.5335
  920MOL0     C24088   9.216   8.761  11.931 -0.1045 -0.3695  0.8380
  920MOL0     O24089   9.092   8.829  11.911  0.5334 -0.0557  0.1822
  920MOL0     C24090   8.979   8.777  11.973 -0.0010 -0.2682 -0.8355
  920MOL0     C24091   8.971   8.672  12.057  0.5048 -0.3364 -0.0460
  920MOL0     C24092   8.860   8.635  12.120  1.6612  0.1681 -0.6787
  920MOL0     C24093   8.862   8.506  12.192 -0.2984 -0.5350 -0.4248
  920MOL0     C24094   8.740   8.722  12.118 -0.7242  0.7848  0.1256
  920MOL0     C24095   8.617   8.698  12.193 -1.0267  0.3034 -0.7847
  920MOL0     O24096   8.535   8.811  12.206  0.0017 -0.3506  0.2618
  920MOL0     C24097   8.421   8.804  12.279 -0.0504 -0.1607  0.0803
  920MOL0     C24098   8.403   8.755  12.403 -0.3273 -0.2020  0.3614
  920MOL0     C24099   8.280   8.758  12.468 -0.3511 -0.7259 -0.6643
  920MOL0     C24100   8.161   8.815  12.410 -0.8608 -1.1975  0.5247
  920MOL0     O24101   8.044   8.814  12.472  0.6231  0.0624  0.5741
  920MOL0     C24102   7.921   8.847  12.404 -0.5238 -0.3154 -0.4158
  920MOL0     C24103   7.805   8.822  12.507 -0.3602  0.5801  0.0059
  920MOL0     C24104   7.669   8.827  12.448  1.2832  0.2162 -0.1136
  920MOL0     C24105   7.561   8.845  12.557 -0.4922  0.3494 -0.8085
  920MOL0     C24106   7.421   8.859  12.497  0.6632 -0.6151 -0.3143
  920MOL0     C24107   7.366   8.725  12.439  0.1546 -0.3063 -0.6236
  920MOL0     C24108   7.225   8.755  12.374  0.0110 -0.4196  0.5259
  920MOL0     C24109   7.172   8.626  12.315 -0.2409 -0.8317  0.4678
  920MOL0    Cl24110   7.013   8.668  12.226 -0.4665  0.1080  0.1324
  920MOL0     C24111   8.182   8.895  12.295  0.8282  1.2932 -0.2685
  920MOL0     C24112   8.317   8.891  12.239 -0.8551  0.3825 -0.2290
  920MOL0     O24113   8.601   8.592  12.259 -0.1894  0.1162 -0.2298
  920MOL0     C24114   8.753   8.836  12.038  0.4916 -0.7259  0.2505
  920MOL0     C24115   8.867   8.856  11.961  1.2340 -0.0560  0.8262
  920MOL0     N24116   9.470   8.708  11.458 -0.2393 -0.6415 -0.6360
  920MOL0     N24117   9.527   8.709  11.341  0.4752  0.1555 -0.2553
  920MOL0     C24118  10.402   9.156  10.786  0.1014 -0.2812  1.4722
  920MOL0     C24119  10.519   9.217  10.734  0.8130  0.0692 -0.6204
  920MOL0     C24120  10.840   9.250  10.405 -0.3073  0.7299 -0.1356
  920MOL0     C24121  10.951   9.180  10.444 -0.0526  0.1276  0.1032
  920MOL0     C24122  11.071   9.185  10.368  0.5934  0.3832 -0.6707
  920MOL0     C24123  11.077   9.269  10.260  0.5383  0.4815 -0.0186
  920MOL0     O24124  11.196   9.276  10.193 -0.2281  0.0828  0.0829
  920MOL0     C24125  11.313   9.193  10.225 -0.5181  0.3177  0.4494
  920MOL0     C24126  11.425   9.217  10.120  0.2089 -0.9619 -0.4685
  920MOL0     C24127  11.520   9.096  10.106  0.5772  0.0171  0.0594
  920MOL0     C24128  11.629   9.101  10.202 -0.7295  0.5422  0.0605
  920MOL0     C24129  11.595   9.065  10.343 -1.0144 -0.9530 -1.1198
  920MOL0     C24130  11.547   9.035  10.449  0.2971 -0.3390  0.3563
  920MOL0     C24131  10.967   9.334  10.216 -0.1880 -0.3302  0.1159
  920MOL0     C24132  10.846   9.318  10.283 -0.9747  0.3181 -0.3347
  920MOL0     H24133  10.696   8.949  10.626  0.0233  0.5803 -0.6184
  920MOL0     H24134  10.502   8.832  10.713  1.2093 -0.1898 -0.6391
  920MOL0     H24135  10.160   9.087  10.919  0.1209  0.2595  0.4739
  920MOL0     H24136  10.162   9.094  10.733 -0.4128  0.6589  0.6732
  920MOL0     H24137  10.023   8.891  10.738  2.1543 -0.1227  0.4267
  920MOL0     H24138   9.990   8.920  10.910 -0.1619  0.2061  0.1944
  920MOL0     H24139   9.914   9.138  10.876 -1.9441  3.3939 -1.9021
  920MOL0     H24140   9.915   9.124  10.693 -0.2339 -1.0982 -0.6576
  920MOL0     H24141   9.702   9.096  10.798 -0.0020 -0.5688 -0.6169
  920MOL0     H24142   9.747   8.953  10.700  0.1588  1.7346 -1.0931
  920MOL0     H24143   9.619   8.894  10.890 -0.2270  0.7969 -0.5442
  920MOL0     H24144   9.775   8.823  10.911 -2.5199 -1.1753  0.8913
  920MOL0     H24145   9.842   8.995  11.079 -1.1936  1.0439  1.1468
  920MOL0     H24146   9.712   9.104  11.023 -1.4202 -0.1357  0.3092
  920MOL0     H24147   9.650   9.034  11.231  1.6639  2.4062 -1.4011
  920MOL0     H24148   9.548   8.932  11.119  0.1613 -0.3027 -1.7596
  920MOL0     H24149   9.808   8.836  11.251 -1.2944 -1.1945  2.8577
  920MOL0     H24150   9.691   8.746  11.150  0.3927 -0.4603 -0.0058
  920MOL0     H24151   9.672   8.966  11.484  0.0030 -0.2316 -1.2111
  920MOL0     H24152   9.561   8.820  11.732 -0.5581  1.1697  1.7449
  920MOL0     H24153   9.463   8.964  11.693  2.9360 -0.4042  1.4025
  920MOL0     H24154   9.366   8.687  11.697  0.2131 -0.0657 -1.8880
  920MOL0     H24155   9.267   8.824  11.667 -1.9375  0.4704  3.1748
  920MOL0     H24156   9.320   8.942  11.862  1.4955  1.0006  0.7676
  920MOL0     H24157   9.432   8.824  11.915  0.1038 -1.4814 -1.6904
  920MOL0     H24158   9.240   8.769  12.038  2.3569  1.4052  0.2476
  920MOL0     H24159   9.213   8.653  11.909 -0.3061 -0.4783  1.3919
  920MOL0     H24160   9.062   8.614  12.069 -0.4021 -1.6719  0.6577
  920MOL0     H24161   8.845   8.522  12.299  1.3311  3.4490 -0.6073
  920MOL0     H24162   8.789   8.431  12.158 -1.0904  0.3000 -0.5924
  920MOL0     H24163   8.964   8.468  12.184  0.0875  0.4223 -0.1682
  920MOL0     H24164   8.488   8.706  12.451 -0.6557  1.4508  2.8248
  920MOL0     H24165   8.278   8.707  12.564  2.6885  0.5730  0.1831
  920MOL0     H24166   7.928   8.948  12.362  0.7439 -0.1503  0.1545
  920MOL0     H24167   7.909   8.781  12.318  1.9704 -3.2486  1.2967
  920MOL0     H24168   7.821   8.730  12.562  1.9622 -0.6040 -2.4232
  920MOL0     H24169   7.814   8.912  12.569  1.3344  0.3363  0.1433
  920MOL0     H24170   7.644   8.735  12.395  0.9640 -1.0926  2.1639
  920MOL0     H24171   7.659   8.911  12.379  1.5471 -0.5561 -1.1095
  920MOL0     H24172   7.561   8.754  12.617 -2.9627 -0.3170 -1.6680
  920MOL0     H24173   7.585   8.924  12.628  1.7474 -0.0548 -1.0391
  920MOL0     H24174   7.420   8.942  12.426 -0.0587 -1.0284 -0.7973
  920MOL0     H24175   7.349   8.894  12.572  1.0387  1.4796 -0.8620
  920MOL0     H24176   7.443   8.679  12.377 -0.6931 -2.0569 -0.4447
  920MOL0     H24177   7.355   8.650  12.518  0.4195  0.3653  0.0610
  920MOL0     H24178   7.240   8.821  12.288 -0.2533 -0.5192  0.4011
  920MOL0     H24179   7.163   8.801  12.451  0.2716  0.1802  0.3804
  920MOL0     H24180   7.163   8.549  12.393 -0.5618 -0.1347  1.1249
  920MOL0     H24181   7.241   8.591  12.238 -1.9437  1.7010 -2.4005
  920MOL0     H24182   8.115   8.958  12.238  0.6630 -0.2450 -1.8713
  920MOL0     H24183   8.344   8.958  12.159 -1.8100  2.3067  0.9917
  920MOL0     H24184   8.666   8.900  12.030  0.3086 -0.5413  2.8676
  920MOL0     H24185   8.877   8.945  11.899  3.4714 -0.4959  0.4522
  920MOL0     H24186  10.316   9.213  10.821  0.6610  1.8906 -0.4329
  920MOL0     H24187  10.523   9.325  10.743 -3.5582  0.4120 -0.6223
  920MOL0     H24188  10.940   9.109  10.525 -0.5899  0.0617 -0.0271
  920MOL0     H24189  11.148   9.114  10.397 -1.3924 -0.4576  3.3468
  920MOL0     H24190  11.342   9.219  10.327  1.0913 -1.9008  0.6325
  920MOL0     H24191  11.288   9.087  10.229  0.9695 -0.0206  1.4640
  920MOL0     H24192  11.473   9.311  10.147 -2.1229 -0.4069  2.3404
  920MOL0     H24193  11.366   9.236  10.030 -0.8079  2.3477  0.7530
  920MOL0     H24194  11.550   9.086  10.002 -1.4779 -2.8873 -0.3686
  920MOL0     H24195  11.466   9.007  10.139 -0.7433  1.2762  1.5031
  920MOL0     H24196  11.679   9.196  10.182  1.4617 -0.9830 -2.3872
  920MOL0     H24197  11.705   9.027  10.176 -1.1145  0.6389 -1.4636
  920MOL0     H24198  11.513   9.003  10.545 -0.2590 -0.6991  0.0483
  920MOL0     H24199  10.970   9.382  10.119  2.1666  4.1511  2.1030
  920MOL0     H24200  10.762   9.368  10.234  0.5112  1.7146 -1.5564
  921MOL0     O24201   7.590  10.642   0.741  0.6271  0.7705  0.2109
  921MOL0     C24202   7.653  10.543   0.773  0.0499 -0.3912 -0.0955
  921MOL0     O24203   7.610  10.409   0.783  0.1282  0.5945 -0.1271
  921MOL0     C24204   7.477  10.376   0.785 -0.3005  0.1416  0.2667
  921MOL0     C24205   7.451  10.240   0.753  0.8405  0.0538  0.0049
  921MOL0     C24206   7.328  10.191   0.750  1.2527 -0.1071 -0.6760
  921MOL0     C24207   7.221  10.271   0.800  0.1144 -0.0654 -0.0271
  921MOL0     O24208   7.093  10.229   0.795 -0.0588 -0.0950 -0.2483
  921MOL0     C24209   7.060  10.112   0.712 -0.4770  0.9868 -0.2578
  921MOL0     C24210   6.913  10.101   0.674 -0.3630  0.6973 -0.1179
  921MOL0     C24211   6.872   9.962   0.640  0.5114 -0.3180 -0.5405
  921MOL0     C24212   6.926   9.885   0.515 -0.2239 -0.7879 -0.2566
  921MOL0     C24213   6.854   9.750   0.481 -0.3849  0.0108  0.6100
  921MOL0     C24214   6.731   9.778   0.385  0.9320  0.9581  0.1366
  921MOL0     C24215   6.668   9.648   0.329 -0.4298  0.0419  0.2221
  921MOL0     C24216   6.526   9.676   0.294  0.3176 -0.5931  0.2158
  921MOL0     N24217   6.460   9.571   0.215  0.1369  0.3077 -0.7729
  921MOL0     C24218   6.424   9.448   0.271 -0.7134 -0.3956  0.4716
  921MOL0     C24219   6.345   9.401   0.173  0.4589  0.4535 -0.6102
  921MOL0     C24220   6.261   9.282   0.168 -0.3010 -0.4824 -0.4221
  921MOL0     C24221   6.110   9.297   0.174 -0.1916  0.1378 -0.7326
  921MOL0     C24222   6.048   9.389   0.282  0.0704 -0.9409  0.2079
  921MOL0     C24223   5.899   9.366   0.305  0.4874  0.9806  0.8903
  921MOL0     O24224   5.879   9.226   0.326  0.2570 -0.1317 -0.1696
  921MOL0     C24225   5.763   9.187   0.394  0.4987  0.3879  0.3036
  921MOL0     C24226   5.750   9.051   0.421  0.4364 -0.7190  0.1436
  921MOL0     C24227   5.637   8.996   0.484 -0.4644 -0.2002  0.8701
  921MOL0     C24228   5.656   8.853   0.545 -0.2560 -0.0394 -0.2522
  921MOL0     C24229   5.524   9.085   0.501  0.4063 -0.4943 -0.5277
  921MOL0     C24230   5.390   9.033   0.550 -0.0677 -0.2151  0.3131
  921MOL0     O24231   5.294   9.112   0.618 -0.2241 -0.1210  0.2632
  921MOL0     C24232   5.178   9.040   0.656  1.0681 -0.2951 -0.4063
  921MOL0     C24233   5.195   8.961   0.772  0.1722 -0.4182 -0.4008
  921MOL0     C24234   5.083   8.908   0.829  0.0050 -0.1245  0.5616
  921MOL0     C24235   4.956   8.934   0.769 -0.6382  0.8196  0.0121
  921MOL0     O24236   4.840   8.895   0.824 -0.2285  0.2237 -0.0994
  921MOL0     C24237   4.839   8.782   0.913  0.4881 -0.6560 -0.4617
  921MOL0     C24238   4.698   8.739   0.948  0.0327  0.0431  0.6754
  921MOL0     C24239   4.633   8.658   0.824 -0.0740 -1.2664  0.4423
  921MOL0     C24240   4.680   8.519   0.821  0.3838  0.3687 -0.4379
  921MOL0     C24241   4.591   8.442   0.720 -0.2657  0.1753 -0.3574
  921MOL0     C24242   4.448   8.412   0.761  0.6392  0.4390 -0.5940
  921MOL0     C24243   4.374   8.307   0.677 -0.2679  0.6273 -0.0086
  921MOL0     C24244   4.344   8.353   0.527 -0.1160 -0.8501  0.6214
  921MOL0    Cl24245   4.255   8.509   0.529 -0.1797  0.1013 -0.6267
  921MOL0     C24246   4.940   8.995   0.646 -0.8821 -1.1949  0.0031
  921MOL0     C24247   5.052   9.053   0.586  0.0759  0.8467  0.2075
  921MOL0     O24248   5.371   8.913   0.525  0.3150 -0.0724 -0.0117
  921MOL0     C24249   5.538   9.217   0.479 -0.3110 -0.2363  0.2844
  921MOL0     C24250   5.653   9.274   0.433 -0.0869 -0.3040  0.0262
  921MOL0     N24251   6.346   9.479   0.058 -0.6222 -0.0604  0.6957
  921MOL0     N24252   6.409   9.593   0.088  0.4533 -0.5049  0.1058
  921MOL0     C24253   7.246  10.402   0.829  0.2471 -0.5367 -0.3908
  921MOL0     C24254   7.375  10.461   0.818  0.6184  0.2190  1.4872
  921MOL0     C24255   7.800  10.573   0.782  0.4908 -0.3580 -0.2203
  921MOL0     C24256   7.890  10.474   0.742  0.2020 -0.3450 -0.3739
  921MOL0     C24257   8.030  10.507   0.736 -0.1050  0.5692  0.2949
  921MOL0     C24258   8.082  10.630   0.756 -0.0796  0.2649  0.3290
  921MOL0     O24259   8.218  10.642   0.724 -0.6177  0.1586 -0.7629
  921MOL0     C24260   8.267  10.775   0.700 -0.7479 -0.2589 -0.4319
  921MOL0     C24261   8.411  10.792   0.653 -0.2768 -0.7263  0.3822
  921MOL0     C24262   8.427  10.726   0.517  0.2219  0.1755  0.8940
  921MOL0     C24263   8.563  10.746   0.461 -0.2253  0.0927  0.5633
  921MOL0     C24264   8.580  10.665   0.340  0.6937 -0.5296 -0.4497
  921MOL0     C24265   8.574  10.601   0.234 -0.2675 -0.6479  0.2568
  921MOL0     C24266   7.995  10.726   0.806 -0.4259 -1.2426 -0.3394
  921MOL0     C24267   7.858  10.699   0.823  1.2371  0.3094 -0.3488
  921MOL0     H24268   7.538  10.175   0.753  2.0298  1.4912 -2.8836
  921MOL0     H24269   7.318  10.083   0.743 -0.5527 -0.1023  0.8159
  921MOL0     H24270   7.114  10.123   0.617  3.1154 -1.6636  1.2370
  921MOL0     H24271   7.103  10.028   0.766 -0.2818 -0.3682 -2.4005
  921MOL0     H24272   6.866  10.138   0.766 -0.1941 -1.1159  0.7303
  921MOL0     H24273   6.888  10.179   0.601 -1.7765  1.6244  1.2680
  921MOL0     H24274   6.892   9.901   0.728 -2.9940  0.0094  0.6659
  921MOL0     H24275   6.763   9.956   0.632  0.2353 -0.7805  2.6048
  921MOL0     H24276   6.915   9.952   0.429 -1.8442 -0.0797  0.4515
  921MOL0     H24277   7.029   9.851   0.528  0.1514 -0.2710 -1.6856
  921MOL0     H24278   6.917   9.678   0.428 -0.4889 -1.3567  2.2821
  921MOL0     H24279   6.829   9.697   0.573  2.7138 -2.0478  0.4202
  921MOL0     H24280   6.664   9.841   0.444  0.0024 -0.7262  0.9209
  921MOL0     H24281   6.765   9.846   0.305 -0.4231  0.1082 -1.2222
  921MOL0     H24282   6.720   9.616   0.239  2.9013  1.3988  1.5081
  921MOL0     H24283   6.669   9.568   0.404  3.3392 -1.2568 -0.9732
  921MOL0     H24284   6.525   9.764   0.228  1.2964  0.2615  1.3176
  921MOL0     H24285   6.468   9.697   0.384  0.6047  1.2716  0.0147
  921MOL0     H24286   6.428   9.398   0.367 -1.0797 -0.1898  0.5973
  921MOL0     H24287   6.281   9.243   0.067  2.7509 -1.2779  0.3789
  921MOL0     H24288   6.297   9.201   0.232 -0.6637  1.7184  2.7890
  921MOL0     H24289   6.073   9.195   0.187 -1.9945  0.6186 -1.7049
  921MOL0     H24290   6.072   9.332   0.078 -0.7450  1.2128 -0.1328
  921MOL0     H24291   6.053   9.495   0.256 -2.1411 -0.3519  1.8086
  921MOL0     H24292   6.100   9.381   0.378  0.9098 -0.1207 -0.1608
  921MOL0     H24293   5.841   9.392   0.216  0.3376  0.2895  0.7785
  921MOL0     H24294   5.871   9.420   0.396  1.6579  0.5702  1.5150
  921MOL0     H24295   5.835   8.990   0.391 -0.0732 -0.7879 -1.2699
  921MOL0     H24296   5.605   8.763   0.509  1.9605 -2.7253  2.6439
  921MOL0     H24297   5.761   8.823   0.559 -0.6621 -0.9474  1.1247
  921MOL0     H24298   5.612   8.866   0.645 -0.1179  2.4832 -0.4621
  921MOL0     H24299   5.290   8.956   0.824  0.8023  0.4657 -1.4257
  921MOL0     H24300   5.077   8.847   0.919  1.3092 -0.5082  0.4085
  921MOL0     H24301   4.901   8.704   0.870  1.4992  0.3845 -0.9539
  921MOL0     H24302   4.877   8.828   1.005 -0.4641  1.3465 -1.0053
  921MOL0     H24303   4.701   8.673   1.035 -3.1703 -0.2003  0.7426
  921MOL0     H24304   4.645   8.829   0.981  0.2354 -0.6861  3.1735
  921MOL0     H24305   4.664   8.711   0.734  1.8584 -2.1456  0.5480
  921MOL0     H24306   4.524   8.657   0.829 -0.1989 -3.4602 -1.1857
  921MOL0     H24307   4.787   8.513   0.798  0.9106 -0.2492  1.9215
  921MOL0     H24308   4.662   8.481   0.922  0.4358  1.7011  0.0975
  921MOL0     H24309   4.637   8.347   0.690 -1.1736 -0.5861  0.5644
  921MOL0     H24310   4.582   8.501   0.629  0.9950  2.1838  0.7420
  921MOL0     H24311   4.459   8.370   0.861 -0.7720  3.0497  0.7626
  921MOL0     H24312   4.394   8.507   0.767 -2.0669 -1.0752  4.1049
  921MOL0     H24313   4.276   8.291   0.723  0.0337 -0.4728  0.2862
  921MOL0     H24314   4.444   8.224   0.690  2.7309  2.5940 -2.2243
  921MOL0     H24315   4.284   8.279   0.472  1.5496 -0.8448 -1.3308
  921MOL0     H24316   4.435   8.369   0.469 -1.7634  1.9506 -1.4181
  921MOL0     H24317   4.842   9.007   0.603 -0.2039 -0.6113 -1.4238
  921MOL0     H24318   5.044   9.115   0.497 -1.6576 -1.3125 -1.2505
  921MOL0     H24319   5.453   9.284   0.489 -0.6769 -0.7299  0.5719
  921MOL0     H24320   5.651   9.381   0.416  2.4560 -0.3777 -1.2398
  921MOL0     H24321   7.160  10.464   0.854  0.3502 -1.2393  1.9210
  921MOL0     H24322   7.390  10.561   0.858  2.1311  0.2432  0.9290
  921MOL0     H24323   7.853  10.377   0.711  2.5911 -0.5694 -2.9902
  921MOL0     H24324   8.098  10.436   0.690  2.5778  2.1382  1.6169
  921MOL0     H24325   8.208  10.832   0.628  1.1151 -0.7067 -2.4356
  921MOL0     H24326   8.256  10.825   0.797  1.4007 -2.2368  0.9486
  921MOL0     H24327   8.486  10.760   0.726 -0.0161 -0.7335  0.1136
  921MOL0     H24328   8.434  10.898   0.642  1.5969 -1.1606 -0.2159
  921MOL0     H24329   8.351  10.762   0.447 -1.7131 -1.0785  2.2526
  921MOL0     H24330   8.412  10.618   0.525 -1.7786  0.4485  1.4021
  921MOL0     H24331   8.647  10.714   0.522  2.9781  0.9939 -3.0195
  921MOL0     H24332   8.580  10.852   0.436  1.7943 -1.0994 -4.2846
  921MOL0     H24333   8.572  10.559   0.136 -0.5038 -0.0416 -0.0034
  921MOL0     H24334   8.036  10.820   0.840 -1.8634  0.4053 -2.8041
  921MOL0     H24335   7.796  10.779   0.863  3.9984  3.0791 -1.2174
  922MOL0     O24336   6.281   0.646   5.423 -0.8490 -0.3657 -0.2260
  922MOL0     C24337   6.373   0.588   5.490 -0.3927  0.2925  0.0080
  922MOL0     O24338   6.366   0.555   5.622  0.8762 -0.0060 -0.4132
  922MOL0     C24339   6.250   0.577   5.694 -0.2243 -0.4003  0.2639
  922MOL0     C24340   6.185   0.701   5.683 -0.1574  0.1736 -0.3783
  922MOL0     C24341   6.066   0.717   5.745 -0.0961 -0.2852 -0.1277
  922MOL0     C24342   6.023   0.620   5.833 -0.4000  0.9196 -0.7755
  922MOL0     O24343   5.905   0.623   5.905 -0.3563 -1.5817 -0.0124
  922MOL0     C24344   5.798   0.707   5.851  0.0720 -0.8215 -0.0554
  922MOL0     C24345   5.668   0.670   5.924 -1.0168 -0.1469  0.2753
  922MOL0     C24346   5.539   0.716   5.853  0.2799  0.0268 -0.6709
  922MOL0     C24347   5.518   0.865   5.874 -0.3257  0.5671  0.2786
  922MOL0     C24348   5.407   0.917   5.785 -0.2593  0.7070 -0.0704
  922MOL0     C24349   5.412   1.065   5.794  0.1573 -0.3003 -0.0100
  922MOL0     C24350   5.286   1.134   5.755  0.4314 -0.7550 -0.4772
  922MOL0     C24351   5.219   1.069   5.634  0.1544 -0.1195  0.9670
  922MOL0     N24352   5.113   1.147   5.566  0.0262 -0.3778  0.1502
  922MOL0     C24353   5.128   1.268   5.510 -0.1914  0.2055  1.0639
  922MOL0     C24354   5.000   1.312   5.478  0.7705  0.6055  0.2264
  922MOL0     C24355   4.973   1.451   5.414  0.3596  0.7542  0.3330
  922MOL0     C24356   4.995   1.560   5.522 -0.1274 -0.0647  0.1329
  922MOL0     C24357   4.872   1.573   5.618 -0.1853 -1.2699  0.6037
  922MOL0     C24358   4.913   1.649   5.737  0.4284  1.0899  0.4590
  922MOL0     O24359   4.795   1.676   5.809  0.3964 -0.3975 -0.3436
  922MOL0     C24360   4.698   1.750   5.749  1.0177 -0.6432  0.0794
  922MOL0     C24361   4.718   1.883   5.702 -0.5462  0.4839  0.2308
  922MOL0     C24362   4.617   1.965   5.659  0.5828 -0.3195  0.2460
  922MOL0     C24363   4.639   2.113   5.630 -0.7577  0.4159 -0.2434
  922MOL0     C24364   4.489   1.910   5.641  1.0132  0.8194 -0.1747
  922MOL0     C24365   4.365   1.978   5.593 -0.3519 -0.6303  0.2031
  922MOL0     O24366   4.278   1.898   5.533  0.7271  0.1237  0.4225
  922MOL0     C24367   4.145   1.921   5.544 -0.0228 -0.8245  0.5555
  922MOL0     C24368   4.069   1.946   5.658  0.6113 -0.2180 -0.8781
  922MOL0     C24369   3.927   1.983   5.650 -0.3858  0.1893 -0.1092
  922MOL0     C24370   3.862   1.975   5.517  0.0879 -0.6816 -0.8292
  922MOL0     O24371   3.728   2.004   5.505 -0.0029 -0.7184 -0.0201
  922MOL0     C24372   3.664   1.950   5.390  0.5938 -0.6672 -0.1726
  922MOL0     C24373   3.510   1.951   5.404  0.6729 -0.3905 -0.8923
  922MOL0     C24374   3.437   2.094   5.408  0.2533  0.3605  0.7130
  922MOL0     C24375   3.293   2.103   5.364 -0.7281 -0.3055  0.5399
  922MOL0     C24376   3.223   2.230   5.410 -0.1072 -0.1714  0.2000
  922MOL0     C24377   3.082   2.243   5.359 -0.2226 -0.2954 -0.5946
  922MOL0     C24378   3.001   2.351   5.435 -0.0733 -0.1046 -0.4060
  922MOL0     C24379   3.054   2.500   5.421  0.5212  0.4467 -0.0381
  922MOL0    Cl24380   3.106   2.545   5.254  0.0254 -0.1976 -0.1866
  922MOL0     C24381   3.942   1.940   5.407  0.4217 -0.3671  0.7976
  922MOL0     C24382   4.080   1.925   5.419 -0.0572  0.8273 -0.9566
  922MOL0     O24383   4.352   2.093   5.609 -0.5940  0.1586  0.3313
  922MOL0     C24384   4.470   1.774   5.682 -0.3430  0.6656  0.5939
  922MOL0     C24385   4.567   1.699   5.744 -0.3842 -0.0359 -0.4119
  922MOL0     N24386   4.912   1.211   5.517 -0.4645  0.2813 -0.2156
  922MOL0     N24387   4.982   1.112   5.570 -0.3889  1.3325  0.5912
  922MOL0     C24388   6.094   0.503   5.854  0.1906 -0.4503 -0.5698
  922MOL0     C24389   6.209   0.477   5.784  0.0634 -0.4108  0.1349
  922MOL0     C24390   6.505   0.559   5.424 -1.0555 -0.3802  0.3587
  922MOL0     C24391   6.524   0.603   5.292 -0.1550  0.2362 -0.1498
  922MOL0     C24392   6.633   0.564   5.221  0.7398 -0.4150 -1.1105
  922MOL0     C24393   6.730   0.484   5.278  0.7540  0.6203  0.2312
  922MOL0     O24394   6.841   0.436   5.219 -0.1418  0.2057 -0.0864
  922MOL0     C24395   6.842   0.471   5.080 -0.2317 -0.7359  0.2789
  922MOL0     C24396   6.976   0.422   5.023  0.0183  0.3949  0.9574
  922MOL0     C24397   7.105   0.501   5.071 -0.2629 -0.6686 -0.5312
  922MOL0     C24398   7.179   0.423   5.179 -0.6274  0.9149  0.1397
  922MOL0     C24399   7.284   0.500   5.241  0.1799  0.4341  0.0820
  922MOL0     C24400   7.378   0.560   5.289 -0.0880  0.3457  0.5726
  922MOL0     C24401   6.719   0.441   5.406  0.1568  0.1561  0.0277
  922MOL0     C24402   6.608   0.479   5.486 -0.2917  0.1606  0.5351
  922MOL0     H24403   6.223   0.779   5.618 -2.4722  0.0390 -2.0413
  922MOL0     H24404   6.010   0.810   5.744  0.8562  0.4406  2.8472
  922MOL0     H24405   5.828   0.809   5.876 -1.1269  0.1784 -2.4081
  922MOL0     H24406   5.779   0.704   5.743 -1.2727 -0.6520  0.1602
  922MOL0     H24407   5.675   0.561   5.926  1.8753 -0.1226 -1.9745
  922MOL0     H24408   5.671   0.701   6.029  0.2202  2.2414 -0.3982
  922MOL0     H24409   5.536   0.678   5.751  0.4246 -0.8160 -0.3694
  922MOL0     H24410   5.451   0.671   5.901 -0.0756  2.3989  1.1014
  922MOL0     H24411   5.493   0.876   5.980 -2.3758  1.5835 -0.2529
  922MOL0     H24412   5.612   0.918   5.855 -0.3240  0.2314 -0.7376
  922MOL0     H24413   5.430   0.869   5.690  3.4435  1.8700  0.0970
  922MOL0     H24414   5.308   0.882   5.815  1.0339 -0.4959  3.3318
  922MOL0     H24415   5.429   1.093   5.899 -0.2571 -1.5464  0.4166
  922MOL0     H24416   5.494   1.104   5.734  0.5975 -0.3097  0.5705
  922MOL0     H24417   5.209   1.136   5.832  0.1716 -0.4867 -0.7368
  922MOL0     H24418   5.313   1.237   5.728  1.2429 -0.6965  0.5323
  922MOL0     H24419   5.167   0.980   5.670 -3.4621  1.6944  0.6923
  922MOL0     H24420   5.291   1.046   5.555 -1.7953  0.1784 -0.9979
  922MOL0     H24421   5.213   1.333   5.489 -1.0661  1.2353  0.6413
  922MOL0     H24422   5.029   1.467   5.321 -1.4857 -0.2743 -1.0130
  922MOL0     H24423   4.871   1.465   5.377  0.5461  1.2319 -0.0144
  922MOL0     H24424   5.001   1.658   5.473  0.5878  1.0794  2.3665
  922MOL0     H24425   5.084   1.535   5.581 -0.5764  2.1373  1.8644
  922MOL0     H24426   4.835   1.473   5.641 -0.3153 -1.8218 -1.7140
  922MOL0     H24427   4.788   1.616   5.562  0.7781  1.5067  1.1034
  922MOL0     H24428   4.964   1.741   5.706  1.9684 -0.0134 -0.4778
  922MOL0     H24429   4.987   1.603   5.804  0.0368  1.8719  1.4583
  922MOL0     H24430   4.817   1.925   5.720 -1.9087  3.5751  1.1500
  922MOL0     H24431   4.571   2.166   5.697 -1.8535 -1.0397 -0.1601
  922MOL0     H24432   4.739   2.151   5.652  0.3051 -3.1839  1.8930
  922MOL0     H24433   4.619   2.137   5.525  1.4182  0.2486 -0.7284
  922MOL0     H24434   4.110   1.913   5.753  1.6725  1.2229 -0.7976
  922MOL0     H24435   3.863   2.004   5.735 -0.1717  1.3387 -0.2111
  922MOL0     H24436   3.696   2.019   5.311 -1.5802  2.1652  1.2386
  922MOL0     H24437   3.699   1.848   5.375 -1.3828 -1.1974 -1.5059
  922MOL0     H24438   3.482   1.890   5.318 -0.0950  0.2749 -1.1327
  922MOL0     H24439   3.491   1.892   5.494  0.9126  0.1911 -0.4556
  922MOL0     H24440   3.502   2.149   5.339  1.2222 -0.2761  1.0880
  922MOL0     H24441   3.440   2.132   5.510  0.9595  0.8685  0.5156
  922MOL0     H24442   3.292   2.099   5.254 -0.3920 -2.1301  0.5567
  922MOL0     H24443   3.248   2.011   5.403 -0.0469 -0.9340 -0.1004
  922MOL0     H24444   3.282   2.311   5.365  3.1600 -3.2286 -1.5766
  922MOL0     H24445   3.225   2.240   5.519  0.5678  2.6893  0.0105
  922MOL0     H24446   3.084   2.263   5.251 -2.0366  1.5929 -0.3284
  922MOL0     H24447   3.033   2.150   5.389  0.5625 -0.7372 -0.6646
  922MOL0     H24448   2.990   2.334   5.542 -1.6305  1.1742 -0.3129
  922MOL0     H24449   2.898   2.343   5.398  0.0882  0.5067 -1.0155
  922MOL0     H24450   3.140   2.510   5.488 -0.2012  3.9116  0.5795
  922MOL0     H24451   2.971   2.564   5.454 -1.5973 -0.8004 -2.6082
  922MOL0     H24452   3.900   1.928   5.308 -0.1400 -0.1164  1.0014
  922MOL0     H24453   4.138   1.906   5.329  0.3472 -1.6599 -0.2538
  922MOL0     H24454   4.367   1.742   5.671  0.0233  0.3772 -4.3367
  922MOL0     H24455   4.533   1.613   5.802 -1.9242 -0.2910 -1.6151
  922MOL0     H24456   6.053   0.446   5.937 -1.4311 -0.7818 -1.5478
  922MOL0     H24457   6.266   0.384   5.787 -1.7187 -1.6459 -1.8405
  922MOL0     H24458   6.457   0.668   5.236  0.0596  3.2436  2.7124
  922MOL0     H24459   6.653   0.607   5.124  1.2225  1.3929 -0.2628
  922MOL0     H24460   6.764   0.416   5.027  0.8140  1.1034 -3.5468
  922MOL0     H24461   6.834   0.578   5.058  0.4801 -0.4463  1.3393
  922MOL0     H24462   6.970   0.441   4.915  1.0128 -0.7041  0.6848
  922MOL0     H24463   6.992   0.315   5.043 -2.1250 -0.5356 -1.7077
  922MOL0     H24464   7.076   0.591   5.125 -0.8387 -0.8134 -0.5843
  922MOL0     H24465   7.166   0.516   4.982  0.9820 -2.4602 -0.0338
  922MOL0     H24466   7.231   0.334   5.143  1.2886  0.5840  3.3307
  922MOL0     H24467   7.119   0.381   5.261 -1.0939 -1.1374 -1.1838
  922MOL0     H24468   7.458   0.623   5.323  0.4894  0.8367 -1.5833
  922MOL0     H24469   6.794   0.376   5.450  0.3492  0.9952  0.9930
  922MOL0     H24470   6.597   0.440   5.587  1.1498 -1.0328  0.2644
  923MOL0     O24471   2.750   9.062  10.378  0.2758  0.7871  0.4600
  923MOL0     C24472   2.826   8.982  10.431  0.7962  0.0509 -0.2566
  923MOL0     O24473   2.874   8.997  10.560  0.0384  0.3637  0.0511
  923MOL0     C24474   2.837   9.098  10.644 -1.2582 -0.1234  0.4942
  923MOL0     C24475   2.931   9.147  10.733 -0.5541 -0.6528  0.9885
  923MOL0     C24476   2.889   9.240  10.826  0.4173 -0.0889 -0.5851
  923MOL0     C24477   2.758   9.288  10.832 -0.0311 -0.1763 -0.7805
  923MOL0     O24478   2.733   9.376  10.932 -0.0689  0.3876  0.3570
  923MOL0     C24479   2.613   9.452  10.949 -0.0639  0.0475 -0.4519
  923MOL0     C24480   2.604   9.525  11.077 -0.1520 -0.4963  0.7150
  923MOL0     C24481   2.461   9.523  11.132 -0.9114  0.3866  0.4584
  923MOL0     C24482   2.413   9.394  11.198 -1.0417 -0.5500  0.4413
  923MOL0     C24483   2.269   9.403  11.234 -0.0795 -0.8718  1.5272
  923MOL0     C24484   2.200   9.285  11.300  0.0113 -0.5400  0.3924
  923MOL0     C24485   2.055   9.319  11.348 -0.2760 -0.0986 -0.5755
  923MOL0     C24486   2.011   9.205  11.440  0.6010  0.3782  1.0083
  923MOL0     N24487   1.884   9.242  11.502 -0.1712  0.2558  0.4539
  923MOL0     C24488   1.876   9.313  11.620 -0.1777 -0.6464  0.2758
  923MOL0     C24489   1.742   9.325  11.631  0.2767  0.1609 -0.6198
  923MOL0     C24490   1.668   9.406  11.739 -0.1729 -0.2897 -0.0395
  923MOL0     C24491   1.521   9.359  11.765  0.1230  0.4331  0.0536
  923MOL0     C24492   1.445   9.455  11.857  0.8425  0.2211  0.4557
  923MOL0     C24493   1.301   9.415  11.879 -0.4790 -0.1412  0.5150
  923MOL0     O24494   1.250   9.457  12.009 -0.1312 -0.1080  0.4446
  923MOL0     C24495   1.108   9.461  12.024 -0.2730 -0.0135 -0.4793
  923MOL0     C24496   1.064   9.521  12.142 -0.3242  0.1244  0.1045
  923MOL0     C24497   0.924   9.536  12.170  0.5260  0.3916  0.7221
  923MOL0     C24498   0.876   9.599  12.302 -0.1308  0.3809 -0.8205
  923MOL0     C24499   0.837   9.482  12.072  0.5067 -0.3133 -0.5299
  923MOL0     C24500   0.695   9.490  12.110  0.7371 -0.1884  0.6118
  923MOL0     O24501   0.637   9.378  12.141  0.7890  0.2469  0.3727
  923MOL0     C24502   0.506   9.359  12.112 -1.1451  0.0732  0.4093
  923MOL0     C24503   0.422   9.433  12.018 -0.7034 -1.1224 -0.1119
  923MOL0     C24504   0.286   9.420  12.013 -0.5001 -0.8060  0.5236
  923MOL0     C24505   0.221   9.338  12.105  0.4302  0.3647  0.4430
  923MOL0     O24506   0.077   9.342  12.100  0.9536 -0.0442  0.2246
  923MOL0     C24507   0.009   9.400  12.220 -0.4660 -0.2033  0.2032
  923MOL0     C24508  -0.084   9.286  12.285  0.0638 -0.1846  0.5557
  923MOL0     C24509  -0.158   9.318  12.414 -0.3508 -0.2183 -0.7126
  923MOL0     C24510  -0.234   9.198  12.471  0.4943 -0.4877  0.7909
  923MOL0     C24511  -0.148   9.145  12.595 -0.0690  1.3415 -0.1548
  923MOL0     C24512  -0.237   9.059  12.684 -0.3096 -0.8654 -0.2178
  923MOL0     C24513  -0.151   9.000  12.795 -0.5241  0.2979 -0.3515
  923MOL0     C24514  -0.211   8.869  12.851 -0.1564 -1.1556  0.4562
  923MOL0    Cl24515  -0.228   8.741  12.719 -0.4384 -0.8046  0.1236
  923MOL0     C24516   0.289   9.259  12.198  0.0987  0.2806 -0.3108
  923MOL0     C24517   0.433   9.276  12.193  0.1830 -0.8442  1.2359
  923MOL0     O24518   0.644   9.602  12.101  0.5312 -0.7041  0.4226
  923MOL0     C24519   0.880   9.425  11.954  0.8499 -0.3570 -0.4828
  923MOL0     C24520   1.014   9.404  11.938  0.3182  0.5250  0.2036
  923MOL0     N24521   1.679   9.257  11.534 -0.5063 -0.6723  0.4933
  923MOL0     N24522   1.765   9.212  11.445  0.2107 -0.3474  1.2034
  923MOL0     C24523   2.660   9.236  10.745 -1.8801  0.0401 -0.1929
  923MOL0     C24524   2.704   9.142  10.650 -0.4146  0.3825 -0.4121
  923MOL0     C24525   2.860   8.861  10.347 -0.9151 -1.0785  0.9330
  923MOL0     C24526   2.820   8.844  10.212  1.1171 -0.1223 -0.1815
  923MOL0     C24527   2.863   8.734  10.141  0.2932  0.6128  0.3301
  923MOL0     C24528   2.932   8.626  10.199  0.9711  0.3314 -0.1017
  923MOL0     O24529   2.994   8.527  10.122  0.8683 -0.3968  0.2648
  923MOL0     C24530   3.104   8.567  10.047  0.0702 -0.3816 -0.3411
  923MOL0     C24531   3.151   8.441   9.964  0.1909 -0.3606  0.3925
  923MOL0     C24532   3.040   8.392   9.866 -0.5618 -0.0369  0.4538
  923MOL0     C24533   3.094   8.279   9.781  0.0556  0.1725 -0.1787
  923MOL0     C24534   2.977   8.223   9.712  0.0616 -0.9359  0.0910
  923MOL0     C24535   2.890   8.165   9.644  0.2403 -0.6214 -0.9628
  923MOL0     C24536   2.974   8.649  10.334 -0.1331 -0.4086  0.7244
  923MOL0     C24537   2.951   8.767  10.398 -0.4697 -0.1263 -0.4492
  923MOL0     H24538   3.031   9.106  10.721  0.4956  1.8908  0.1886
  923MOL0     H24539   2.964   9.270  10.899 -0.7767  0.4054  0.4774
  923MOL0     H24540   2.613   9.527  10.870  0.4208 -0.3365 -0.8335
  923MOL0     H24541   2.526   9.386  10.938 -0.8148  0.7523  1.0254
  923MOL0     H24542   2.670   9.478  11.151  1.1929 -0.4574 -0.4016
  923MOL0     H24543   2.649   9.625  11.078  2.9756 -1.7557 -0.1884
  923MOL0     H24544   2.454   9.593  11.215  0.4851  1.9154 -0.6288
  923MOL0     H24545   2.394   9.543  11.047  1.2462  1.2172 -1.1678
  923MOL0     H24546   2.431   9.303  11.139  2.3053 -0.0150  0.4654
  923MOL0     H24547   2.471   9.376  11.288  2.7080  0.5707 -1.5613
  923MOL0     H24548   2.269   9.487  11.303 -0.5683 -0.4859  1.0579
  923MOL0     H24549   2.216   9.432  11.143 -0.0626  1.4438  2.2117
  923MOL0     H24550   2.216   9.206  11.226  0.2120  2.2928 -2.7976
  923MOL0     H24551   2.265   9.264  11.386  1.9599  3.1287 -0.0039
  923MOL0     H24552   2.052   9.412  11.406  0.1853 -0.3087 -0.2075
  923MOL0     H24553   1.995   9.325  11.257  2.4928 -0.9032 -2.6079
  923MOL0     H24554   2.089   9.193  11.517  0.1899  6.0586  2.7219
  923MOL0     H24555   2.009   9.108  11.388  2.3351  0.4630  0.7198
  923MOL0     H24556   1.950   9.364  11.680  0.7016 -0.0885 -1.2093
  923MOL0     H24557   1.734   9.390  11.825 -0.0611  0.5590  0.0366
  923MOL0     H24558   1.657   9.512  11.716 -0.3597 -0.0587  1.0840
  923MOL0     H24559   1.521   9.253  11.791 -0.8252  0.1349 -1.0557
  923MOL0     H24560   1.482   9.366  11.663  1.8424 -0.1769 -0.6957
  923MOL0     H24561   1.455   9.560  11.829 -2.9859  1.3460  2.6243
  923MOL0     H24562   1.491   9.441  11.956 -3.1725 -0.5811  2.4304
  923MOL0     H24563   1.292   9.307  11.894 -2.4923  0.2235  2.5216
  923MOL0     H24564   1.236   9.443  11.796  0.2767  0.5285  0.1362
  923MOL0     H24565   1.136   9.540  12.221 -1.2735  1.1127  0.7705
  923MOL0     H24566   0.846   9.539  12.389  2.4297  0.6967  0.3942
  923MOL0     H24567   0.967   9.647  12.339  0.1846 -1.6024  1.2064
  923MOL0     H24568   0.798   9.673  12.284  0.6986  1.0395 -1.8205
  923MOL0     H24569   0.458   9.505  11.945 -1.1348  0.0110  0.7656
  923MOL0     H24570   0.244   9.487  11.939  0.0221 -4.7545 -3.7695
  923MOL0     H24571   0.085   9.430  12.292  0.5583 -1.6084 -0.2505
  923MOL0     H24572  -0.056   9.486  12.201  1.9151  1.9057  1.1453
  923MOL0     H24573  -0.164   9.267  12.213  0.5605 -0.3921  0.0483
  923MOL0     H24574  -0.026   9.195  12.303  0.5802  0.0775  0.2600
  923MOL0     H24575  -0.226   9.404  12.410  1.6469  1.4109 -2.0098
  923MOL0     H24576  -0.082   9.348  12.486 -1.2223  0.9028 -0.2118
  923MOL0     H24577  -0.335   9.230  12.497 -0.1333 -2.5496  1.0365
  923MOL0     H24578  -0.230   9.121  12.394  3.9171 -0.0651  0.3802
  923MOL0     H24579  -0.099   9.225  12.651  1.4375  2.1509 -2.4939
  923MOL0     H24580  -0.071   9.081  12.551 -0.2559 -0.9025  2.5679
  923MOL0     H24581  -0.316   9.123  12.725 -1.1109 -3.2572  2.2376
  923MOL0     H24582  -0.275   8.975  12.626  0.5226 -0.3985 -1.4955
  923MOL0     H24583  -0.144   9.085  12.865  1.4445  3.6281 -4.1900
  923MOL0     H24584  -0.047   8.982  12.767  0.0465  1.7468  0.6701
  923MOL0     H24585  -0.310   8.908  12.876  1.8005  1.9331  4.8071
  923MOL0     H24586  -0.150   8.831  12.933  2.9965  0.9751 -0.7108
  923MOL0     H24587   0.242   9.195  12.271  0.4076 -0.3549 -0.6597
  923MOL0     H24588   0.488   9.223  12.269  2.7618 -0.5582 -0.3094
  923MOL0     H24589   0.807   9.385  11.884 -1.3942 -1.3844  2.2694
  923MOL0     H24590   1.042   9.348  11.850  0.1097  2.1503 -0.9406
  923MOL0     H24591   2.553   9.249  10.757 -2.2347 -3.9007  3.7991
  923MOL0     H24592   2.629   9.106  10.580 -0.5137 -1.9157  0.7475
  923MOL0     H24593   2.742   8.909  10.173 -1.9209 -4.0683 -1.3255
  923MOL0     H24594   2.829   8.717  10.039  2.8062  0.6179 -0.5866
  923MOL0     H24595   3.097   8.655   9.982  0.0884  2.5077  3.2175
  923MOL0     H24596   3.182   8.600  10.116 -2.0089  0.4722  1.7397
  923MOL0     H24597   3.190   8.366  10.034 -2.9777  0.2036  3.0154
  923MOL0     H24598   3.240   8.472   9.908  1.0564 -4.5354 -0.9062
  923MOL0     H24599   3.016   8.470   9.793  1.5792 -0.5222 -0.8452
  923MOL0     H24600   2.945   8.356   9.906 -2.6385  2.4970 -1.8037
  923MOL0     H24601   3.141   8.198   9.838 -0.5366 -0.3729 -0.4590
  923MOL0     H24602   3.172   8.313   9.713  1.2527  1.2505  1.6213
  923MOL0     H24603   2.812   8.115   9.590 -2.1543  2.2409 -0.4144
  923MOL0     H24604   3.040   8.573  10.376 -0.2584 -0.6533  0.4864
  923MOL0     H24605   2.990   8.786  10.498 -1.6199 -1.6781  0.3400
  924MOL0     O24606   6.300  11.058   4.676  0.0329  0.1327 -0.2240
  924MOL0     C24607   6.289  10.987   4.575 -0.7931  0.9815 -0.4656
  924MOL0     O24608   6.180  10.983   4.487  0.0214 -0.0369 -1.2757
  924MOL0     C24609   6.078  11.076   4.501  0.3381 -1.5757  0.4593
  924MOL0     C24610   6.076  11.177   4.405  0.3272  0.3171  0.0409
  924MOL0     C24611   5.973  11.268   4.411 -0.1837 -0.5584 -0.0072
  924MOL0     C24612   5.875  11.279   4.509 -0.0322 -0.7867  0.4243
  924MOL0     O24613   5.794  11.389   4.493  0.1966 -0.4426 -0.7748
  924MOL0     C24614   5.753  11.443   4.621 -0.8573  0.6079  0.5792
  924MOL0     C24615   5.614  11.413   4.663 -0.4977  0.7858 -0.2932
  924MOL0     C24616   5.508  11.458   4.570  0.4165  1.1473 -1.0783
  924MOL0     C24617   5.416  11.556   4.644  0.0409  0.1919  0.9992
  924MOL0     C24618   5.288  11.576   4.567  0.5069 -0.0854 -0.0721
  924MOL0     C24619   5.181  11.660   4.644 -0.3938  0.2916  0.1940
  924MOL0     C24620   5.078  11.722   4.555  1.0661 -0.0865  0.4295
  924MOL0     C24621   5.128  11.855   4.487  0.4263  0.6246  0.4906
  924MOL0     N24622   5.070  11.876   4.353 -0.5215 -0.3909 -1.6845
  924MOL0     C24623   4.957  11.952   4.323  0.1048  0.7536 -0.4431
  924MOL0     C24624   4.952  11.922   4.187 -0.9071 -0.6498  0.5227
  924MOL0     C24625   4.845  11.973   4.105 -0.1217  0.1554 -1.1481
  924MOL0     C24626   4.890  12.000   3.961 -0.0139  1.2717  0.6254
  924MOL0     C24627   4.819  11.896   3.867  0.9042  1.0537 -0.7700
  924MOL0     C24628   4.891  11.881   3.731  0.2001  0.1205 -0.0378
  924MOL0     O24629   4.810  11.806   3.645 -0.2107  0.3679  0.4455
  924MOL0     C24630   4.710  11.865   3.574  0.0777 -0.7028  0.2532
  924MOL0     C24631   4.614  11.776   3.525  0.3615 -0.6641 -0.2714
  924MOL0     C24632   4.499  11.830   3.463  0.3327 -0.0568 -0.9553
  924MOL0     C24633   4.396  11.735   3.403 -0.1746  0.0714 -0.1615
  924MOL0     C24634   4.486  11.963   3.436 -0.1303 -0.3433  0.2280
  924MOL0     C24635   4.368  12.025   3.368 -0.2132  0.6025  0.0520
  924MOL0     O24636   4.399  12.134   3.284 -0.0132 -0.4179  0.4507
  924MOL0     C24637   4.298  12.192   3.213 -0.3286 -1.5623  0.1576
  924MOL0     C24638   4.199  12.124   3.138 -0.6816  0.1267 -0.7192
  924MOL0     C24639   4.110  12.198   3.057  0.4787  0.3501 -0.2682
  924MOL0     C24640   4.115  12.332   3.042 -0.2448  0.5531 -0.0449
  924MOL0     O24641   4.009  12.388   2.978  0.3956  0.2105  0.3949
  924MOL0     C24642   3.928  12.451   3.080  0.2980 -0.2265 -0.2216
  924MOL0     C24643   3.784  12.478   3.034 -0.2268  0.8973 -0.3706
  924MOL0     C24644   3.697  12.348   3.042  0.3549 -0.2058  0.1740
  924MOL0     C24645   3.558  12.367   3.111 -0.6227  0.7645  0.1190
  924MOL0     C24646   3.448  12.377   3.004 -0.6919 -0.1817 -0.0628
  924MOL0     C24647   3.454  12.513   2.954  0.2113 -0.4519  1.0229
  924MOL0     C24648   3.325  12.554   2.889 -1.1571  0.3873 -0.7588
  924MOL0     C24649   3.342  12.674   2.801  0.1132  0.1440 -1.1178
  924MOL0    Cl24650   3.408  12.619   2.642  0.0011 -0.4354 -0.0981
  924MOL0     C24651   4.212  12.400   3.110 -0.4860 -0.0210  0.4663
  924MOL0     C24652   4.302  12.333   3.192  0.4290 -0.1673  0.0408
  924MOL0     O24653   4.254  11.995   3.404 -0.0260 -0.3679  0.5077
  924MOL0     C24654   4.585  12.052   3.481  0.2722  1.2438  0.3892
  924MOL0     C24655   4.698  12.000   3.546  0.9959  0.7166 -0.1505
  924MOL0     N24656   5.062  11.842   4.144  0.9253  1.0551  0.9816
  924MOL0     N24657   5.118  11.804   4.251 -0.0320 -0.7991 -0.3923
  924MOL0     C24658   5.863  11.175   4.598 -0.0955 -0.7390  0.3968
  924MOL0     C24659   5.968  11.074   4.593  0.4065  0.0276  0.9211
  924MOL0     C24660   6.414  10.899   4.547  0.6795 -0.4017 -0.6728
  924MOL0     C24661   6.530  10.916   4.624 -0.3775  0.4633  0.2400
  924MOL0     C24662   6.649  10.840   4.592 -0.3272 -0.5113 -1.1277
  924MOL0     C24663   6.648  10.737   4.500 -0.9246  0.6474  1.3401
  924MOL0     O24664   6.756  10.659   4.442 -0.9366 -0.2944 -0.3507
  924MOL0     C24665   6.895  10.689   4.483  0.1935  0.2722 -1.1124
  924MOL0     C24666   7.007  10.626   4.400 -0.5321 -0.2565 -0.0823
  924MOL0     C24667   7.132  10.652   4.490  0.2583  0.2219 -0.3819
  924MOL0     C24668   7.176  10.525   4.558  0.0818 -0.0075  0.0156
  924MOL0     C24669   7.292  10.559   4.641 -0.3142 -0.1888 -0.1950
  924MOL0     C24670   7.394  10.584   4.701 -0.5587 -0.1776  1.0198
  924MOL0     C24671   6.526  10.717   4.432 -0.6179  0.2282 -0.7469
  924MOL0     C24672   6.408  10.787   4.459  0.3640  0.4373 -0.4769
  924MOL0     H24673   6.148  11.182   4.323  0.6184 -2.6777  0.0181
  924MOL0     H24674   5.991  11.346   4.338  0.9158 -0.4612  0.3490
  924MOL0     H24675   5.822  11.429   4.705 -1.1858  1.3025  0.9714
  924MOL0     H24676   5.754  11.550   4.599  2.0523 -0.0321 -3.6962
  924MOL0     H24677   5.609  11.306   4.684  1.2732  0.7027 -0.1771
  924MOL0     H24678   5.604  11.458   4.762 -2.3992 -2.1467  0.9821
  924MOL0     H24679   5.553  11.495   4.477  0.2118 -2.5625 -2.8319
  924MOL0     H24680   5.457  11.363   4.555  1.9151 -0.1759  1.5118
  924MOL0     H24681   5.399  11.522   4.746  4.6720  1.6367  2.5057
  924MOL0     H24682   5.456  11.658   4.651  0.9720 -0.1300  0.5833
  924MOL0     H24683   5.320  11.622   4.472 -2.1780 -0.5593 -1.2905
  924MOL0     H24684   5.239  11.485   4.532 -0.8892  0.8619 -0.6893
  924MOL0     H24685   5.132  11.583   4.704  1.9890 -0.4743  1.2704
  924MOL0     H24686   5.220  11.744   4.702 -1.6019  1.1864 -0.2485
  924MOL0     H24687   5.056  11.654   4.472  1.0729 -1.6472  1.6489
  924MOL0     H24688   4.988  11.726   4.618  0.3308 -2.2276 -0.3701
  924MOL0     H24689   5.235  11.835   4.473  0.3559  0.5018  0.1256
  924MOL0     H24690   5.114  11.935   4.560  0.9559 -0.5554  1.9516
  924MOL0     H24691   4.889  12.012   4.382 -1.2371  0.1284 -1.3105
  924MOL0     H24692   4.761  11.904   4.117 -3.8298  4.5205  1.4490
  924MOL0     H24693   4.813  12.067   4.151  2.4808  1.0870 -1.0772
  924MOL0     H24694   4.999  11.997   3.950  0.2195 -1.6445  2.6682
  924MOL0     H24695   4.850  12.098   3.933  1.7129  2.2378  1.4149
  924MOL0     H24696   4.719  11.935   3.847  0.1627 -0.0881  0.5482
  924MOL0     H24697   4.800  11.804   3.924  1.2726  2.1651  1.2770
  924MOL0     H24698   4.986  11.827   3.739  0.5370 -0.1166 -3.8587
  924MOL0     H24699   4.903  11.986   3.701 -2.3859  0.9525  1.5077
  924MOL0     H24700   4.619  11.668   3.524 -1.1697 -0.7776  0.9314
  924MOL0     H24701   4.297  11.746   3.448 -0.0094 -5.1080  2.1802
  924MOL0     H24702   4.385  11.739   3.294 -1.5930  0.5150 -0.0213
  924MOL0     H24703   4.432  11.635   3.429  3.1718  0.8210 -1.4591
  924MOL0     H24704   4.175  12.019   3.154 -1.1324 -0.0118 -2.1992
  924MOL0     H24705   4.023  12.143   3.021  0.6074  1.1371 -1.8368
  924MOL0     H24706   3.924  12.398   3.175  0.5228 -0.3437 -0.2781
  924MOL0     H24707   3.980  12.545   3.100 -1.4045  0.7679 -0.2300
  924MOL0     H24708   3.731  12.558   3.086 -1.2367  1.1947 -1.7754
  924MOL0     H24709   3.785  12.510   2.929  0.7654  1.0402 -0.3281
  924MOL0     H24710   3.764  12.283   3.100 -0.1294 -2.0096 -1.2256
  924MOL0     H24711   3.681  12.281   2.958 -0.3536 -2.7099  2.1814
  924MOL0     H24712   3.539  12.279   3.173  1.7477  0.2552  0.1994
  924MOL0     H24713   3.562  12.454   3.178  2.6999  0.3573  0.6051
  924MOL0     H24714   3.351  12.363   3.053 -2.2940 -0.9038 -3.1331
  924MOL0     H24715   3.463  12.299   2.928 -3.5415 -0.6110 -0.2930
  924MOL0     H24716   3.474  12.589   3.030 -1.9124  1.4163 -0.1522
  924MOL0     H24717   3.532  12.523   2.878 -1.3826  0.0644 -0.6344
  924MOL0     H24718   3.253  12.596   2.961 -1.4317  0.3199 -0.9913
  924MOL0     H24719   3.272  12.469   2.846 -1.2853  0.6589 -1.1394
  924MOL0     H24720   3.411  12.744   2.848  1.3426 -1.5137 -0.3298
  924MOL0     H24721   3.246  12.725   2.794  0.9959  2.5263  2.1808
  924MOL0     H24722   4.208  12.509   3.103  0.6216 -0.0825 -4.2993
  924MOL0     H24723   4.372  12.386   3.256 -1.9692  1.5695  1.4359
  924MOL0     H24724   4.570  12.158   3.463 -2.6476  0.5360 -2.2972
  924MOL0     H24725   4.754  12.081   3.592 -1.4510  3.6284 -1.8914
  924MOL0     H24726   5.794  11.181   4.682  1.0391  2.8834  1.2224
  924MOL0     H24727   5.964  10.999   4.671  0.9887  0.8749  1.7974
  924MOL0     H24728   6.530  10.994   4.700 -1.7519  2.7520 -1.9709
  924MOL0     H24729   6.740  10.854   4.650 -2.3225 -1.2234  2.5113
  924MOL0     H24730   6.912  10.797   4.481  2.2404 -0.0097 -1.7505
  924MOL0     H24731   6.894  10.657   4.588 -1.9284 -1.5478 -1.6256
  924MOL0     H24732   7.011  10.689   4.310 -0.1451  0.7401  0.6157
  924MOL0     H24733   6.992  10.518   4.391 -3.5969 -0.2312  2.6107
  924MOL0     H24734   7.120  10.737   4.557  1.3090 -0.2296  0.4081
  924MOL0     H24735   7.209  10.681   4.418  0.0038  3.9417  0.6840
  924MOL0     H24736   7.197  10.448   4.483  0.3912  2.2474 -2.3642
  924MOL0     H24737   7.101  10.469   4.615  1.9068 -4.4403 -1.5046
  924MOL0     H24738   7.495  10.585   4.736 -0.1824  0.1897 -0.0128
  924MOL0     H24739   6.517  10.648   4.349  0.5842 -0.7004 -0.1406
  924MOL0     H24740   6.322  10.768   4.396  0.5795  2.7560 -1.5673
  925MOL0     O24741   1.863   8.527   3.651  0.3509  0.2423 -0.3129
  925MOL0     C24742   1.820   8.415   3.702 -0.7342  0.0716 -0.2072
  925MOL0     O24743   1.716   8.401   3.791 -0.1937 -0.6799 -0.2199
  925MOL0     C24744   1.649   8.511   3.822  0.1579  0.1533 -0.3403
  925MOL0     C24745   1.583   8.591   3.727 -0.2413  0.2918  0.2655
  925MOL0     C24746   1.500   8.696   3.753  0.1106 -0.1456  0.5376
  925MOL0     C24747   1.481   8.731   3.890 -1.1523 -0.7188 -0.2907
  925MOL0     O24748   1.405   8.845   3.930 -0.4403  0.3094 -0.0037
  925MOL0     C24749   1.474   8.925   4.032 -0.3081 -0.6079 -0.9076
  925MOL0     C24750   1.399   9.054   4.036  0.5565 -0.1272 -0.4102
  925MOL0     C24751   1.441   9.136   4.162  0.4531 -0.0690  0.1624
  925MOL0     C24752   1.546   9.241   4.134 -0.2353 -0.1526  0.0732
  925MOL0     C24753   1.693   9.201   4.136 -0.3227 -0.1638 -0.3234
  925MOL0     C24754   1.797   9.309   4.115 -0.0743 -0.9956 -0.2847
  925MOL0     C24755   1.815   9.352   3.968  0.6079 -0.5301  0.6949
  925MOL0     C24756   1.805   9.500   3.929  0.7285 -0.5559  0.3479
  925MOL0     N24757   1.670   9.548   3.960  0.5799 -0.2801  0.2739
  925MOL0     C24758   1.564   9.535   3.877  0.0957 -0.1508  0.0426
  925MOL0     C24759   1.460   9.569   3.956 -0.5423  0.1846  0.1138
  925MOL0     C24760   1.319   9.570   3.902  0.7098 -0.0697 -0.3702
  925MOL0     C24761   1.243   9.439   3.904 -1.1654 -0.7539 -1.0628
  925MOL0     C24762   1.129   9.434   3.793 -0.8702  0.1152  0.0499
  925MOL0     C24763   1.019   9.511   3.834 -1.1429 -0.5232 -0.3320
  925MOL0     O24764   0.914   9.514   3.737 -0.0902 -0.3068 -0.1333
  925MOL0     C24765   0.797   9.580   3.767 -0.2187  0.8617 -0.3295
  925MOL0     C24766   0.780   9.652   3.882  0.2571  0.1454 -0.6995
  925MOL0     C24767   0.661   9.725   3.909 -0.1056  0.1857  0.9380
  925MOL0     C24768   0.667   9.806   4.045  0.5559  0.6166  0.6603
  925MOL0     C24769   0.556   9.710   3.818  0.0832  0.0629 -0.4429
  925MOL0     C24770   0.416   9.769   3.835  0.1246  0.0782 -1.4086
  925MOL0     O24771   0.407   9.891   3.903  0.4203  0.0754  0.1837
  925MOL0     C24772   0.287   9.953   3.911 -0.4761  0.9303  0.6554
  925MOL0     C24773   0.253  10.013   4.038 -0.5373  0.4990 -0.9165
  925MOL0     C24774   0.137  10.093   4.050  0.5776  0.1351 -0.1158
  925MOL0     C24775   0.030  10.081   3.957  0.6585  0.2932 -0.1999
  925MOL0     O24776  -0.090  10.140   3.981  0.4233  0.1814 -0.1131
  925MOL0     C24777  -0.190  10.136   3.872 -0.6875 -0.7262  1.1772
  925MOL0     C24778  -0.325  10.187   3.915 -0.7352  0.1778 -0.2681
  925MOL0     C24779  -0.432  10.195   3.797  0.2442  0.5302  0.0315
  925MOL0     C24780  -0.402  10.293   3.672 -0.3905 -0.0052  0.6142
  925MOL0     C24781  -0.461  10.242   3.539  0.4488 -0.3376  0.6051
  925MOL0     C24782  -0.441  10.357   3.430  0.3426  0.1860  0.0110
  925MOL0     C24783  -0.486  10.320   3.298 -0.1306 -0.7319 -0.0148
  925MOL0     C24784  -0.387  10.230   3.223 -0.1896  0.6555 -0.6913
  925MOL0    Cl24785  -0.396  10.220   3.042 -0.0720  0.3121  0.1062
  925MOL0     C24786   0.061  10.011   3.832 -0.6176 -0.2368 -0.5261
  925MOL0     C24787   0.194   9.952   3.808  1.2234  0.2697 -0.6421
  925MOL0     O24788   0.321   9.704   3.789  0.1031 -0.0785 -0.1011
  925MOL0     C24789   0.575   9.623   3.701  0.3520  0.2787 -0.3760
  925MOL0     C24790   0.696   9.567   3.675 -0.1530  0.2457 -0.7982
  925MOL0     N24791   1.500   9.602   4.084 -0.1504 -0.2752 -0.2995
  925MOL0     N24792   1.625   9.603   4.080  0.8872  0.1061  0.8052
  925MOL0     C24793   1.535   8.641   3.994  0.0586 -0.6188 -0.2363
  925MOL0     C24794   1.624   8.542   3.955  0.5369 -0.4929 -0.6760
  925MOL0     C24795   1.905   8.289   3.685 -0.5622  0.1639  0.4300
  925MOL0     C24796   2.011   8.297   3.589 -0.2611 -0.2090  0.6570
  925MOL0     C24797   2.103   8.195   3.580  0.3705 -0.9863  0.5625
  925MOL0     C24798   2.091   8.080   3.654  0.1320 -0.5280 -0.4947
  925MOL0     O24799   2.169   7.973   3.658  0.7212 -0.3237 -0.7574
  925MOL0     C24800   2.304   7.991   3.623 -0.0738 -0.5861 -1.6916
  925MOL0     C24801   2.385   8.086   3.710 -0.4362 -0.5014  0.3742
  925MOL0     C24802   2.382   8.064   3.856  1.2284  0.1734 -0.5073
  925MOL0     C24803   2.512   8.081   3.936  0.6237 -0.6363 -0.0873
  925MOL0     C24804   2.498   8.181   4.054 -0.6000 -0.3125  0.2691
  925MOL0     C24805   2.478   8.250   4.152  0.9044 -0.2255 -0.3866
  925MOL0     C24806   1.987   8.072   3.750 -0.0618 -0.1429  0.7393
  925MOL0     C24807   1.892   8.180   3.762  0.6922  0.3683  0.2825
  925MOL0     H24808   1.606   8.564   3.625  0.8944 -3.4540  1.3406
  925MOL0     H24809   1.442   8.736   3.670  1.4078 -1.4203 -1.0435
  925MOL0     H24810   1.461   8.879   4.130  2.8108 -1.6274 -0.8806
  925MOL0     H24811   1.579   8.942   4.008 -0.5993  0.8229 -1.3446
  925MOL0     H24812   1.435   9.102   3.945 -0.5880  1.2365 -0.1746
  925MOL0     H24813   1.290   9.043   4.037  0.3643  1.5049  0.3085
  925MOL0     H24814   1.357   9.201   4.189 -0.6621 -0.9070 -1.1357
  925MOL0     H24815   1.460   9.063   4.242 -2.2273 -0.1697  0.8143
  925MOL0     H24816   1.522   9.291   4.040  0.3650  1.3707  0.6925
  925MOL0     H24817   1.544   9.324   4.206  2.5246 -0.9887  1.2359
  925MOL0     H24818   1.717   9.165   4.236 -0.1557 -1.5904 -0.8500
  925MOL0     H24819   1.712   9.119   4.065  0.1765 -1.1435  0.9045
  925MOL0     H24820   1.753   9.393   4.169 -1.6347 -0.5074 -2.1795
  925MOL0     H24821   1.888   9.275   4.164 -0.6027 -1.1100  0.6428
  925MOL0     H24822   1.914   9.317   3.938  1.6616 -0.0433  3.3085
  925MOL0     H24823   1.743   9.315   3.895 -1.0485  2.4206  0.6582
  925MOL0     H24824   1.810   9.501   3.820 -0.6731  0.3438  0.2760
  925MOL0     H24825   1.882   9.564   3.974  0.3946 -1.1776  1.8647
  925MOL0     H24826   1.557   9.501   3.774 -0.1629 -1.8296  0.5846
  925MOL0     H24827   1.263   9.647   3.956 -1.1738 -1.3006 -0.4393
  925MOL0     H24828   1.323   9.590   3.795  0.5283 -0.4218 -0.4423
  925MOL0     H24829   1.198   9.418   4.001  1.2207 -1.8834 -0.1014
  925MOL0     H24830   1.322   9.365   3.886 -1.1698 -1.0148 -0.0378
  925MOL0     H24831   1.090   9.332   3.788  2.3861 -1.3212  1.1249
  925MOL0     H24832   1.167   9.465   3.695 -1.0875  0.9021  0.2021
  925MOL0     H24833   1.052   9.608   3.871  0.5660 -0.8897 -0.7962
  925MOL0     H24834   0.980   9.462   3.924  0.4512  1.9062  1.8219
  925MOL0     H24835   0.852   9.654   3.963 -0.1865 -0.6760 -0.2766
  925MOL0     H24836   0.570   9.832   4.089  0.2114  3.7396 -1.6049
  925MOL0     H24837   0.725   9.760   4.126 -0.8231 -0.4758  1.0683
  925MOL0     H24838   0.710   9.904   4.021  0.9178  0.7183  1.6424
  925MOL0     H24839   0.322  10.016   4.121  1.0215  1.0577 -2.1756
  925MOL0     H24840   0.122  10.143   4.146 -2.4632  1.0685 -0.9732
  925MOL0     H24841  -0.160  10.193   3.785 -0.4670 -1.3854  0.8148
  925MOL0     H24842  -0.206  10.031   3.845 -1.8559 -0.5411  1.1033
  925MOL0     H24843  -0.366  10.127   3.997  3.9854 -1.1141  1.5226
  925MOL0     H24844  -0.313  10.289   3.955 -0.1977 -0.0250  0.1015
  925MOL0     H24845  -0.515  10.240   3.852  0.8817 -0.5002  1.9364
  925MOL0     H24846  -0.455  10.095   3.759  0.4337 -0.4120  2.2454
  925MOL0     H24847  -0.445  10.391   3.689  0.1043  0.2218  0.5869
  925MOL0     H24848  -0.296  10.310   3.651 -0.7423  1.3677 -0.1310
  925MOL0     H24849  -0.569  10.227   3.546 -0.0647  0.9640 -2.6604
  925MOL0     H24850  -0.403  10.155   3.507 -1.4762 -2.2166  1.9780
  925MOL0     H24851  -0.502  10.441   3.464  0.3698 -0.8205  2.7602
  925MOL0     H24852  -0.339  10.396   3.420 -0.0295  1.7233  1.6694
  925MOL0     H24853  -0.506  10.414   3.246 -2.6804 -0.3205  1.5235
  925MOL0     H24854  -0.583  10.270   3.302 -1.1212  1.1091  0.1962
  925MOL0     H24855  -0.413  10.130   3.261 -0.3013  0.6946 -0.6641
  925MOL0     H24856  -0.283  10.254   3.249  0.0640 -0.9620 -0.0263
  925MOL0     H24857  -0.010  10.011   3.750 -1.8488 -0.9950  0.4995
  925MOL0     H24858   0.215   9.909   3.711  4.2151 -1.2782  0.5287
  925MOL0     H24859   0.489   9.591   3.643 -0.8177  2.6816 -0.1216
  925MOL0     H24860   0.717   9.488   3.604 -0.6797 -0.7622  0.1354
  925MOL0     H24861   1.530   8.658   4.101  2.7248  1.2603 -0.3273
  925MOL0     H24862   1.676   8.483   4.030 -0.8306 -0.6199  0.1869
  925MOL0     H24863   2.026   8.383   3.524 -2.0489 -2.0280 -2.3945
  925MOL0     H24864   2.182   8.203   3.505  0.7781 -0.3547  1.0520
  925MOL0     H24865   2.347   7.891   3.634  2.1918  0.4433 -0.7567
  925MOL0     H24866   2.309   8.028   3.520 -0.9966 -0.0380 -1.5588
  925MOL0     H24867   2.353   8.186   3.680 -2.4043 -0.8383  1.1335
  925MOL0     H24868   2.485   8.060   3.677 -0.6350 -2.1559  0.9788
  925MOL0     H24869   2.342   7.962   3.870 -1.8496  1.2166 -0.9277
  925MOL0     H24870   2.317   8.146   3.887  1.9311  1.1400 -1.5459
  925MOL0     H24871   2.583   8.130   3.869 -2.6810  1.0670 -2.6180
  925MOL0     H24872   2.546   7.983   3.969  0.3878 -1.1192 -1.2420
  925MOL0     H24873   2.447   8.296   4.244 -1.7310 -1.7616 -0.4135
  925MOL0     H24874   1.959   7.981   3.802 -0.7130 -1.4524 -1.7289
  925MOL0     H24875   1.812   8.179   3.835 -0.6290  1.7470 -1.0731
  926MOL0     O24876   1.336   8.137   5.099  0.2664  0.2729 -0.1191
  926MOL0     C24877   1.312   8.091   5.209 -0.0992 -0.1163  0.1054
  926MOL0     O24878   1.205   8.116   5.276 -0.6289  0.1635 -0.5837
  926MOL0     C24879   1.084   8.134   5.206 -1.4054 -0.6671  0.5502
  926MOL0     C24880   1.060   8.051   5.095  0.2152  0.2473  0.3158
  926MOL0     C24881   0.927   8.052   5.038 -0.1969 -0.1265 -0.3723
  926MOL0     C24882   0.827   8.128   5.099 -0.0973 -0.5722 -0.5599
  926MOL0     O24883   0.707   8.111   5.046  0.5614  0.1558 -0.2371
  926MOL0     C24884   0.599   8.163   5.121 -0.5015 -0.0348  0.0748
  926MOL0     C24885   0.455   8.137   5.056 -0.5441  0.1769 -1.0995
  926MOL0     C24886   0.448   8.188   4.917  0.2305 -0.0204 -0.5009
  926MOL0     C24887   0.319   8.155   4.850 -0.6387  0.4044 -0.2490
  926MOL0     C24888   0.305   8.003   4.814  0.0481  0.5079 -0.0676
  926MOL0     C24889   0.183   7.972   4.739 -0.1943  0.2189  0.6563
  926MOL0     C24890   0.191   8.003   4.593 -1.0387 -0.2713  0.2737
  926MOL0     C24891   0.277   7.913   4.507  0.0568 -0.3021 -0.2892
  926MOL0     N24892   0.299   7.961   4.366  0.1774  0.5235 -0.6435
  926MOL0     C24893   0.403   7.923   4.284 -1.1490  0.1003 -0.2858
  926MOL0     C24894   0.373   7.982   4.171  1.0476  0.2759 -0.1394
  926MOL0     C24895   0.454   7.984   4.043  1.0022 -0.5525  0.4019
  926MOL0     C24896   0.370   7.976   3.907 -0.2825 -0.1924 -0.7248
  926MOL0     C24897   0.329   7.830   3.886 -0.1086 -0.0753  0.4064
  926MOL0     C24898   0.244   7.805   3.760 -1.0386  0.7004 -0.1130
  926MOL0     O24899   0.129   7.884   3.776 -0.6843 -0.5390  0.4972
  926MOL0     C24900   0.013   7.855   3.702  0.3612 -0.0599  0.0655
  926MOL0     C24901   0.017   7.787   3.582 -0.1006  0.1596  0.8844
  926MOL0     C24902  -0.100   7.740   3.515  0.7007 -0.3735  0.0754
  926MOL0     C24903  -0.082   7.644   3.399  0.8845 -0.1450  0.6028
  926MOL0     C24904  -0.231   7.775   3.567 -0.0673 -0.4116  0.2364
  926MOL0     C24905  -0.349   7.730   3.512  0.1310  0.1061  0.7703
  926MOL0     O24906  -0.412   7.642   3.585  0.1465  0.4235  0.4164
  926MOL0     C24907  -0.521   7.583   3.538  0.4912 -0.3789  0.6349
  926MOL0     C24908  -0.515   7.441   3.519 -0.8694  0.4165  0.9376
  926MOL0     C24909  -0.618   7.366   3.482 -0.5688 -0.1407 -0.6305
  926MOL0     C24910  -0.744   7.434   3.471  0.6665  0.4009  1.2253
  926MOL0     O24911  -0.849   7.350   3.431 -0.2246 -0.2475  0.1017
  926MOL0     C24912  -0.954   7.398   3.347  0.5563  0.1387  0.8275
  926MOL0     C24913  -1.033   7.280   3.293 -0.9858  0.2780  0.2668
  926MOL0     C24914  -0.944   7.172   3.219  0.6844  0.2077 -0.0928
  926MOL0     C24915  -1.017   7.060   3.142 -0.4273 -0.7544  0.1652
  926MOL0     C24916  -0.912   6.965   3.082  0.5331  0.8941  0.6414
  926MOL0     C24917  -0.987   6.847   3.029 -0.5030  0.9503  0.3734
  926MOL0     C24918  -0.914   6.738   2.942  0.3692  0.3628 -0.2730
  926MOL0     C24919  -0.909   6.775   2.791 -0.9923  0.0555 -0.3109
  926MOL0    Cl24920  -0.835   6.637   2.707  0.1654 -0.1694  0.1753
  926MOL0     C24921  -0.754   7.578   3.481 -0.2134  0.5595 -0.1939
  926MOL0     C24922  -0.643   7.648   3.515 -0.8656  0.1953  1.0139
  926MOL0     O24923  -0.384   7.778   3.402  0.0415  0.3624  0.4193
  926MOL0     C24924  -0.233   7.853   3.683  0.0590  0.3180 -0.7044
  926MOL0     C24925  -0.116   7.888   3.749 -0.0017  0.5222 -1.5124
  926MOL0     N24926   0.259   8.070   4.190  0.1812  0.2341  0.1912
  926MOL0     N24927   0.214   8.042   4.306 -0.3090 -0.2745  0.3423
  926MOL0     C24928   0.855   8.209   5.208  0.5452  0.1437  0.3292
  926MOL0     C24929   0.982   8.209   5.262  0.4987  0.7848  0.1867
  926MOL0     C24930   1.427   8.027   5.282  0.2778  0.5557  1.0340
  926MOL0     C24931   1.394   7.981   5.407  0.0512  0.0355 -0.0558
  926MOL0     C24932   1.483   7.896   5.471  0.0301 -0.5979  0.5968
  926MOL0     C24933   1.612   7.859   5.413 -0.1396  0.3771 -0.3000
  926MOL0     O24934   1.703   7.774   5.475  0.3085  0.5759 -0.4913
  926MOL0     C24935   1.680   7.727   5.603  0.2910 -0.4725  1.3343
  926MOL0     C24936   1.771   7.616   5.655 -0.0970 -0.3138  1.3097
  926MOL0     C24937   1.815   7.506   5.551  0.4926 -0.2573 -0.4770
  926MOL0     C24938   1.973   7.505   5.540  0.5021 -0.0191 -0.2014
  926MOL0     C24939   2.028   7.622   5.470  1.4792 -0.6358 -0.4961
  926MOL0     C24940   2.094   7.718   5.437 -0.7209  0.6388  0.3470
  926MOL0     C24941   1.643   7.913   5.284  0.3516  0.0439  0.4562
  926MOL0     C24942   1.554   8.004   5.227 -0.1696 -0.1249  0.2231
  926MOL0     H24943   1.128   7.974   5.060  0.0168 -0.0865  0.6540
  926MOL0     H24944   0.894   7.975   4.969 -0.1780 -1.5038  1.0987
  926MOL0     H24945   0.592   8.119   5.221  0.5997  2.6897  1.4750
  926MOL0     H24946   0.600   8.273   5.126  2.9727  0.0491  0.3716
  926MOL0     H24947   0.442   8.029   5.066 -1.9131  0.3977 -0.1481
  926MOL0     H24948   0.379   8.187   5.117 -2.8434 -2.2976 -1.7291
  926MOL0     H24949   0.444   8.296   4.926  0.2688 -0.0589  0.0164
  926MOL0     H24950   0.533   8.159   4.855  2.4991  0.9878  1.9313
  926MOL0     H24951   0.231   8.189   4.904 -0.5807  2.4901 -1.3288
  926MOL0     H24952   0.318   8.218   4.760 -0.9566  3.1018  1.5201
  926MOL0     H24953   0.391   7.969   4.756 -2.6424 -0.7071 -3.7260
  926MOL0     H24954   0.305   7.945   4.906 -3.7364 -3.6037 -2.2627
  926MOL0     H24955   0.166   7.864   4.741  1.3132 -0.0789 -0.6415
  926MOL0     H24956   0.096   8.026   4.778 -0.3113  0.4210  0.1199
  926MOL0     H24957   0.088   8.004   4.556 -1.9490 -3.9369  2.2744
  926MOL0     H24958   0.233   8.104   4.592  0.8050 -0.9119 -3.0216
  926MOL0     H24959   0.234   7.812   4.511  0.9544 -0.6653  2.0920
  926MOL0     H24960   0.377   7.902   4.549 -0.4137  1.1322  1.3566
  926MOL0     H24961   0.488   7.857   4.303 -1.7191 -0.3391  0.8434
  926MOL0     H24962   0.503   8.082   4.037  1.6955 -0.9450 -0.9125
  926MOL0     H24963   0.533   7.909   4.048  0.4466 -1.1873 -0.1333
  926MOL0     H24964   0.437   8.007   3.827 -0.5815  0.1896 -0.8274
  926MOL0     H24965   0.286   8.045   3.907  0.4945  0.7863 -0.5216
  926MOL0     H24966   0.259   7.795   3.963  0.4475 -1.0815  0.4665
  926MOL0     H24967   0.418   7.768   3.884 -0.8504 -1.1563 -0.0522
  926MOL0     H24968   0.214   7.700   3.752  2.7460 -0.6569  1.2710
  926MOL0     H24969   0.304   7.828   3.671  0.2743 -2.8432 -0.2869
  926MOL0     H24970   0.114   7.759   3.542 -0.7505 -2.8024  1.1385
  926MOL0     H24971  -0.144   7.672   3.313 -0.2929  1.1817  1.8264
  926MOL0     H24972   0.023   7.638   3.370  0.6343 -0.6432 -0.2527
  926MOL0     H24973  -0.127   7.549   3.431 -1.1760  0.9182  1.0478
  926MOL0     H24974  -0.418   7.397   3.537 -0.6458  0.9568  1.0688
  926MOL0     H24975  -0.601   7.260   3.466  0.7404  0.1902 -1.5549
  926MOL0     H24976  -1.020   7.452   3.415 -1.5356  0.5185 -1.3857
  926MOL0     H24977  -0.916   7.468   3.271  2.8125  2.1658  3.6003
  926MOL0     H24978  -1.080   7.238   3.383  2.9015 -0.7097  2.0352
  926MOL0     H24979  -1.111   7.325   3.231 -0.2747  2.6336  0.9456
  926MOL0     H24980  -0.894   7.127   3.305 -2.7170 -3.6148  0.2169
  926MOL0     H24981  -0.866   7.223   3.162  0.6164 -0.4446 -0.7942
  926MOL0     H24982  -1.091   7.002   3.198 -1.3968  2.3674  2.3904
  926MOL0     H24983  -1.074   7.108   3.062 -0.6522 -0.5491  0.4470
  926MOL0     H24984  -0.842   6.923   3.155  1.6789 -0.8609 -1.3940
  926MOL0     H24985  -0.854   7.022   3.009  1.5927  2.4959  2.6030
  926MOL0     H24986  -1.037   6.808   3.118 -0.8913  1.5861  0.4404
  926MOL0     H24987  -1.067   6.883   2.964 -0.1237  1.4383  0.1687
  926MOL0     H24988  -0.970   6.645   2.956  3.1514 -1.4455 -0.4331
  926MOL0     H24989  -0.820   6.723   2.996 -1.9366  1.2532  4.5473
  926MOL0     H24990  -0.840   6.858   2.776 -0.7880 -0.0943 -0.2039
  926MOL0     H24991  -1.009   6.806   2.756 -1.0315 -1.5522 -1.7708
  926MOL0     H24992  -0.850   7.624   3.460 -0.5775  0.6969  1.6712
  926MOL0     H24993  -0.646   7.757   3.522 -2.5170  0.0946  2.5830
  926MOL0     H24994  -0.324   7.876   3.737  0.8068  0.5831  0.4824
  926MOL0     H24995  -0.125   7.939   3.845 -3.8561 -1.6420 -0.4858
  926MOL0     H24996   0.771   8.261   5.252 -0.8102  1.7295 -3.6878
  926MOL0     H24997   0.994   8.271   5.350 -3.6620  0.4914  1.1906
  926MOL0     H24998   1.299   8.005   5.453 -0.3405  0.2048 -0.9339
  926MOL0     H24999   1.457   7.871   5.573 -0.0893  0.8625  0.9387
  926MOL0     H25000   1.673   7.807   5.677  0.2923  1.7360 -0.9380
  926MOL0     H25001   1.580   7.682   5.615 -0.4119  0.9558  1.0606
  926MOL0     H25002   1.731   7.573   5.746  2.2183 -1.4868  1.8480
  926MOL0     H25003   1.853   7.678   5.692  2.0055 -0.3287 -2.7429
  926MOL0     H25004   1.773   7.518   5.451  2.0677  1.4536 -0.9871
  926MOL0     H25005   1.785   7.411   5.595 -4.6694  1.3777  0.2123
  926MOL0     H25006   1.998   7.424   5.470  2.3386  1.2605 -1.0978
  926MOL0     H25007   2.016   7.488   5.638  0.7849 -1.4656 -0.5523
  926MOL0     H25008   2.156   7.800   5.405 -0.5588  0.7823  1.0121
  926MOL0     H25009   1.733   7.894   5.226  0.3793  2.7533 -0.5130
  926MOL0     H25010   1.574   8.037   5.125 -0.9544  2.6964  0.9089
  927MOL0     O25011   5.175   2.017   4.528  0.0161  1.2230  0.0221
  927MOL0     C25012   5.133   2.047   4.639 -0.0075  0.5641  0.2094
  927MOL0     O25013   5.190   2.140   4.728  0.6939  0.1612 -0.8422
  927MOL0     C25014   5.333   2.156   4.736  0.6612  0.2768  0.9391
  927MOL0     C25015   5.430   2.074   4.664  0.6439  0.0704 -0.8096
  927MOL0     C25016   5.565   2.094   4.675 -0.6824 -0.2690  0.5904
  927MOL0     C25017   5.627   2.194   4.746  0.2939  0.3005  1.4991
  927MOL0     O25018   5.766   2.218   4.736 -0.4596 -0.0554  0.6095
  927MOL0     C25019   5.841   2.323   4.807 -0.7277  0.0511 -0.1873
  927MOL0     C25020   5.993   2.305   4.811 -0.0905  0.5135 -0.2691
  927MOL0     C25021   6.019   2.176   4.902 -0.1099  0.7293  1.0270
  927MOL0     C25022   6.018   2.223   5.047 -0.0395  0.0003 -0.3020
  927MOL0     C25023   6.087   2.119   5.140  0.2723 -0.8397 -0.3961
  927MOL0     C25024   6.002   1.992   5.153  0.3544  1.3643  0.1294
  927MOL0     C25025   6.060   1.877   5.232 -0.4987 -0.2781 -0.0286
  927MOL0     C25026   6.150   1.924   5.353 -0.3399  0.2103 -0.4970
  927MOL0     N25027   6.077   1.983   5.470  0.8148 -1.0956 -0.7047
  927MOL0     C25028   5.954   1.933   5.520  0.7254  0.1480 -0.5442
  927MOL0     C25029   5.905   2.028   5.612  0.0258 -0.9107 -0.1328
  927MOL0     C25030   5.785   2.004   5.698 -0.3147 -0.0129  0.1432
  927MOL0     C25031   5.831   1.960   5.840  0.4008 -0.9387  0.0526
  927MOL0     C25032   5.902   1.827   5.833 -0.2476  0.6087 -0.2104
  927MOL0     C25033   5.954   1.772   5.960 -0.7118  0.1722 -0.8133
  927MOL0     O25034   5.861   1.771   6.078  0.2324 -0.1466  0.4207
  927MOL0     C25035   5.799   1.655   6.128 -0.2222 -0.1333 -0.9610
  927MOL0     C25036   5.876   1.557   6.190 -0.2962 -0.3443 -0.9010
  927MOL0     C25037   5.821   1.449   6.269  0.0400  0.4862 -0.0106
  927MOL0     C25038   5.914   1.348   6.336  0.3170  0.0036  0.7440
  927MOL0     C25039   5.682   1.440   6.276 -0.4916  0.4458 -0.0655
  927MOL0     C25040   5.593   1.340   6.336 -0.1812 -0.5237 -1.2888
  927MOL0     O25041   5.497   1.370   6.429  0.2852 -0.5227  0.0582
  927MOL0     C25042   5.405   1.288   6.484  0.0792 -0.6236  0.8477
  927MOL0     C25043   5.269   1.311   6.449  0.9781  0.3700  0.8527
  927MOL0     C25044   5.169   1.223   6.487  0.6065 -0.4251 -0.3059
  927MOL0     C25045   5.202   1.107   6.561 -1.0374 -0.0728 -0.2381
  927MOL0     O25046   5.126   1.004   6.601  0.0135 -1.0960  0.1552
  927MOL0     C25047   5.021   1.028   6.687  0.2408 -0.7149  0.2488
  927MOL0     C25048   4.966   0.890   6.725  0.2684 -0.4406 -0.0310
  927MOL0     C25049   4.874   0.843   6.620  1.2097  0.8843 -0.6235
  927MOL0     C25050   4.781   0.731   6.662  0.4438  0.0740 -0.0400
  927MOL0     C25051   4.657   0.765   6.749 -0.8263 -0.1131 -0.0737
  927MOL0     C25052   4.568   0.642   6.750 -0.0447  0.0459  0.3612
  927MOL0     C25053   4.430   0.666   6.803  0.4687 -0.1125 -0.1774
  927MOL0     C25054   4.342   0.760   6.723 -0.0442 -0.7935  0.9648
  927MOL0    Cl25055   4.349   0.740   6.547  0.4914 -0.1909  0.3542
  927MOL0     C25056   5.341   1.083   6.593  0.1535  0.2931 -0.9482
  927MOL0     C25057   5.441   1.170   6.551 -0.1335  0.3073 -0.5651
  927MOL0     O25058   5.614   1.229   6.305 -0.2230  1.0621  0.4525
  927MOL0     C25059   5.602   1.547   6.213 -0.3791  0.9134  0.0700
  927MOL0     C25060   5.660   1.646   6.149  0.0535 -0.6517 -0.0969
  927MOL0     N25061   5.982   2.141   5.604 -0.3904  0.9225  0.0905
  927MOL0     N25062   6.090   2.109   5.530 -0.3583  0.4265 -0.0351
  927MOL0     C25063   5.536   2.280   4.803 -0.4020 -0.0045 -1.0807
  927MOL0     C25064   5.397   2.267   4.803 -0.0104 -0.3998 -0.5936
  927MOL0     C25065   5.010   1.978   4.681 -0.6561 -0.0737  0.7022
  927MOL0     C25066   4.977   1.975   4.814  0.2133 -0.1398 -0.7693
  927MOL0     C25067   4.857   1.913   4.859 -0.4942  0.6785 -0.2873
  927MOL0     C25068   4.774   1.846   4.774  0.1800 -1.2648  0.1217
  927MOL0     O25069   4.658   1.802   4.830 -0.3758 -0.6074 -0.5518
  927MOL0     C25070   4.539   1.772   4.756 -0.5027 -0.2988 -0.6310
  927MOL0     C25071   4.424   1.716   4.848  0.6455  0.4032 -0.2621
  927MOL0     C25072   4.464   1.575   4.914 -0.6549  0.5837  0.9040
  927MOL0     C25073   4.364   1.508   5.007 -0.5032 -0.8956  0.6935
  927MOL0     C25074   4.230   1.504   4.955 -0.3822  1.3312 -0.4980
  927MOL0     C25075   4.121   1.485   4.914 -0.9130  0.2708  0.8995
  927MOL0     C25076   4.806   1.852   4.631 -0.5543  0.4132  0.0620
  927MOL0     C25077   4.922   1.909   4.590 -0.0286 -0.8095 -0.1382
  927MOL0     H25078   5.395   1.992   4.601 -1.0540 -1.9192  2.4598
  927MOL0     H25079   5.634   2.028   4.623 -0.8225 -0.6943  0.9283
  927MOL0     H25080   5.809   2.423   4.779 -1.4705 -0.1893 -0.2216
  927MOL0     H25081   5.796   2.316   4.907  0.1450  0.2962  0.2284
  927MOL0     H25082   6.030   2.280   4.711  0.2066 -1.0702  0.2110
  927MOL0     H25083   6.045   2.394   4.848 -0.1447  0.6617 -0.5443
  927MOL0     H25084   5.952   2.091   4.882  0.9146 -0.2227  1.5341
  927MOL0     H25085   6.120   2.138   4.888 -0.8156 -0.9198  0.1350
  927MOL0     H25086   6.066   2.321   5.059  1.5808 -0.9128  1.1591
  927MOL0     H25087   5.919   2.249   5.086  0.9384  2.9240  0.4845
  927MOL0     H25088   6.194   2.102   5.122  0.3882 -0.6777  0.1197
  927MOL0     H25089   6.081   2.155   5.243 -1.8064 -2.3909  0.0972
  927MOL0     H25090   5.903   2.012   5.194 -1.5285 -1.0673 -2.8097
  927MOL0     H25091   5.986   1.955   5.051  0.3105  3.1103 -0.5457
  927MOL0     H25092   5.980   1.805   5.256 -0.7218 -0.4250 -1.1641
  927MOL0     H25093   6.128   1.822   5.166  0.2400  0.1675  0.3530
  927MOL0     H25094   6.228   1.991   5.316  0.4379  0.7868  1.9670
  927MOL0     H25095   6.213   1.843   5.392  0.2749  1.6111  1.5645
  927MOL0     H25096   5.912   1.834   5.509  0.6094 -0.2592  2.7139
  927MOL0     H25097   5.716   2.089   5.698  0.7676  0.9204 -1.1469
  927MOL0     H25098   5.731   1.923   5.647  0.3274  0.2537 -0.9912
  927MOL0     H25099   5.749   1.957   5.912 -0.9381 -1.5268 -1.4352
  927MOL0     H25100   5.902   2.034   5.877 -0.6051 -1.1549  2.6713
  927MOL0     H25101   5.991   1.845   5.772  1.0899  3.4868  2.2701
  927MOL0     H25102   5.835   1.754   5.787 -1.6550  0.9783  1.1495
  927MOL0     H25103   6.046   1.829   5.976 -0.2152 -0.9131  0.3788
  927MOL0     H25104   5.986   1.669   5.940  0.6967  0.2659  0.7057
  927MOL0     H25105   5.984   1.558   6.185  0.0736  3.9975  2.4798
  927MOL0     H25106   5.963   1.392   6.423 -2.0753 -0.2995  2.3411
  927MOL0     H25107   5.853   1.265   6.371 -1.7124  0.9028 -0.4698
  927MOL0     H25108   5.986   1.317   6.259  1.7356  2.4501  0.9894
  927MOL0     H25109   5.242   1.399   6.392 -0.4080 -0.7768 -0.3264
  927MOL0     H25110   5.066   1.232   6.453  0.4691  0.9444  0.4116
  927MOL0     H25111   5.061   1.079   6.775 -1.1149 -0.6632  0.8582
  927MOL0     H25112   4.952   1.100   6.643 -1.7911 -2.3648  0.5800
  927MOL0     H25113   5.042   0.811   6.733  0.5785 -0.1734 -0.3274
  927MOL0     H25114   4.905   0.912   6.813 -1.7231  2.7632 -1.9845
  927MOL0     H25115   4.946   0.818   6.542  2.8552  2.2726  0.3645
  927MOL0     H25116   4.803   0.922   6.594 -0.9924  1.2227  4.9200
  927MOL0     H25117   4.745   0.676   6.574 -0.9135 -3.6585  2.5818
  927MOL0     H25118   4.849   0.662   6.714 -0.3326  0.3896  1.4619
  927MOL0     H25119   4.611   0.851   6.701 -0.4208  1.3372  2.0313
  927MOL0     H25120   4.681   0.801   6.849  0.1437 -0.4410 -0.1662
  927MOL0     H25121   4.562   0.591   6.654  1.8323  0.2935  0.0613
  927MOL0     H25122   4.621   0.579   6.823 -0.0173  0.3644  0.6222
  927MOL0     H25123   4.423   0.710   6.902 -0.8327  1.9861 -1.1298
  927MOL0     H25124   4.378   0.570   6.795  1.6636 -0.6710 -1.9293
  927MOL0     H25125   4.386   0.858   6.745 -2.3658 -0.1932  3.5253
  927MOL0     H25126   4.240   0.756   6.762 -0.3161 -3.0626  0.1668
  927MOL0     H25127   5.370   0.988   6.638 -1.0833 -0.6303 -2.0188
  927MOL0     H25128   5.545   1.161   6.581 -1.1048 -0.0267  3.0656
  927MOL0     H25129   5.496   1.533   6.195 -0.1282  0.4859 -1.2159
  927MOL0     H25130   5.593   1.718   6.103 -1.8444 -1.0419  1.9332
  927MOL0     H25131   5.580   2.370   4.845  2.0247 -1.0190 -1.2845
  927MOL0     H25132   5.331   2.338   4.852  0.3917 -2.6167  3.6076
  927MOL0     H25133   5.047   2.016   4.886 -0.0337 -2.6080  0.9891
  927MOL0     H25134   4.833   1.913   4.965  1.7656  1.2480  0.2917
  927MOL0     H25135   4.507   1.867   4.712 -2.3541 -0.3524  0.5298
  927MOL0     H25136   4.565   1.713   4.668 -2.8350  0.3296 -1.8072
  927MOL0     H25137   4.350   1.681   4.775  2.8678 -3.3072 -0.9769
  927MOL0     H25138   4.386   1.798   4.910 -1.0832 -0.0417 -0.6718
  927MOL0     H25139   4.559   1.585   4.967  0.6263  0.4445 -1.2544
  927MOL0     H25140   4.500   1.507   4.836  0.7180  0.9640  1.1817
  927MOL0     H25141   4.373   1.580   5.089  2.1915  0.4127 -0.6267
  927MOL0     H25142   4.403   1.410   5.037 -0.3666 -1.0362  0.0614
  927MOL0     H25143   4.029   1.456   4.867  0.4477  0.8401 -2.3042
  927MOL0     H25144   4.733   1.810   4.563 -0.6627 -0.9328  0.9682
  927MOL0     H25145   4.946   1.913   4.484  1.5878  1.4700  0.2394
  928MOL0     O25146   9.361   0.053   2.443  0.5869 -0.8736 -0.3181
  928MOL0     C25147   9.409  -0.035   2.371  0.1796  0.3797  0.4344
  928MOL0     O25148   9.376  -0.166   2.373  0.9368 -0.3475  0.0024
  928MOL0     C25149   9.260  -0.212   2.417 -1.1969 -0.6282 -0.6289
  928MOL0     C25150   9.185  -0.159   2.523 -0.4591  0.2982  0.5371
  928MOL0     C25151   9.071  -0.231   2.580 -0.0147 -0.4695 -0.6541
  928MOL0     C25152   9.026  -0.350   2.520  0.5498  0.4415 -0.3254
  928MOL0     O25153   8.912  -0.414   2.575 -0.1788 -0.0855 -0.2353
  928MOL0     C25154   8.802  -0.427   2.496  0.0127 -0.3366  0.5098
  928MOL0     C25155   8.665  -0.410   2.570  0.4536 -0.7615  0.1548
  928MOL0     C25156   8.644  -0.515   2.684  0.8187 -0.7892 -0.2193
  928MOL0     C25157   8.499  -0.519   2.723 -0.3465 -0.1830  0.3502
  928MOL0     C25158   8.466  -0.605   2.844  0.2077  0.3735  0.0768
  928MOL0     C25159   8.495  -0.536   2.978 -0.7400 -0.9532 -0.0371
  928MOL0     C25160   8.488  -0.632   3.099  0.3792 -0.4522 -0.0094
  928MOL0     C25161   8.348  -0.698   3.118  0.6835 -0.0130 -0.1986
  928MOL0     N25162   8.244  -0.597   3.138  0.7763 -0.0912 -0.2287
  928MOL0     C25163   8.140  -0.561   3.050  0.6292 -0.1009 -0.2327
  928MOL0     C25164   8.067  -0.464   3.121 -0.6412  0.3607  0.1474
  928MOL0     C25165   7.936  -0.408   3.067  0.4834  0.2235  0.6286
  928MOL0     C25166   7.826  -0.516   3.022 -0.2917 -0.2246  0.3301
  928MOL0     C25167   7.758  -0.599   3.137 -0.4548  0.2269 -0.8249
  928MOL0     C25168   7.659  -0.526   3.217  0.0585  0.6549 -1.0409
  928MOL0     O25169   7.565  -0.485   3.119  0.2582  0.1934  0.2682
  928MOL0     C25170   7.432  -0.492   3.156  0.3296  0.0972  0.1367
  928MOL0     C25171   7.338  -0.533   3.058 -0.1435  0.3502  0.2396
  928MOL0     C25172   7.200  -0.555   3.096 -1.3372 -0.0877 -0.3129
  928MOL0     C25173   7.104  -0.613   3.000 -0.7002  0.0519 -0.0858
  928MOL0     C25174   7.160  -0.524   3.223 -0.7568  0.5719 -0.3759
  928MOL0     C25175   7.023  -0.547   3.276  0.3349 -1.0678  0.6560
  928MOL0     O25176   6.918  -0.515   3.192  0.0997  0.1689 -0.1918
  928MOL0     C25177   6.804  -0.503   3.251  0.2241  0.0154  0.1646
  928MOL0     C25178   6.723  -0.607   3.294 -0.4379  0.6784  0.2747
  928MOL0     C25179   6.615  -0.599   3.372 -0.0171 -1.5544 -0.2459
  928MOL0     C25180   6.563  -0.470   3.406 -0.8055 -0.0633  0.2667
  928MOL0     O25181   6.446  -0.457   3.479  0.2789  0.0841 -0.4177
  928MOL0     C25182   6.348  -0.561   3.488 -0.4633  0.5992 -0.4222
  928MOL0     C25183   6.213  -0.512   3.541 -0.6242  0.4924 -0.8398
  928MOL0     C25184   6.233  -0.465   3.698 -0.0174  0.2165  0.6314
  928MOL0     C25185   6.095  -0.472   3.753 -0.0286 -0.4269  0.4169
  928MOL0     C25186   6.075  -0.384   3.879  0.0406 -0.3051 -0.8721
  928MOL0     C25187   5.937  -0.350   3.903 -0.4251 -0.4859 -0.1720
  928MOL0     C25188   5.908  -0.251   4.023 -0.1948 -0.2051  0.1729
  928MOL0     C25189   5.773  -0.284   4.084  1.0026  0.3131 -0.3748
  928MOL0    Cl25190   5.639  -0.246   3.972 -0.4361 -0.1641 -0.2370
  928MOL0     C25191   6.630  -0.357   3.352 -0.8522  0.4128  0.4387
  928MOL0     C25192   6.753  -0.373   3.283 -0.3402  0.1669  1.0789
  928MOL0     O25193   7.011  -0.601   3.388 -0.3072 -0.3482 -0.0487
  928MOL0     C25194   7.254  -0.484   3.322 -0.2430 -0.3580 -0.2600
  928MOL0     C25195   7.387  -0.468   3.288  0.3255 -0.6752  0.2543
  928MOL0     N25196   8.133  -0.444   3.250 -0.1489 -0.1059  0.5613
  928MOL0     N25197   8.231  -0.524   3.259  0.4344  0.7693  0.5444
  928MOL0     C25198   9.109  -0.402   2.421  0.5279  0.5395 -1.3362
  928MOL0     C25199   9.222  -0.336   2.367  0.0448  0.6456  1.2412
  928MOL0     C25200   9.535  -0.011   2.301  0.1429  0.6526  0.3655
  928MOL0     C25201   9.569   0.114   2.255 -0.1644  0.6700  0.2524
  928MOL0     C25202   9.686   0.136   2.188  0.2068  0.1922 -1.1466
  928MOL0     C25203   9.775   0.037   2.176 -0.9643 -0.4568 -0.0805
  928MOL0     O25204   9.897   0.071   2.124 -0.3428  0.0309  0.0315
  928MOL0     C25205   9.986  -0.023   2.065 -0.4392  0.8779 -0.6539
  928MOL0     C25206  10.124   0.048   2.057  1.0425  0.1294 -0.3350
  928MOL0     C25207  10.124   0.157   1.954  0.3585  0.3608 -0.4921
  928MOL0     C25208  10.269   0.201   1.906  0.2744 -0.5490 -0.7636
  928MOL0     C25209  10.353   0.245   2.025 -0.1710  0.9029 -0.0037
  928MOL0     C25210  10.420   0.300   2.108  0.1252  0.2544  0.5675
  928MOL0     C25211   9.747  -0.094   2.226 -0.5672  0.8798  0.2307
  928MOL0     C25212   9.627  -0.117   2.297 -0.8234  0.3043  0.5721
  928MOL0     H25213   9.204  -0.064   2.572 -0.9507 -0.3457  2.0540
  928MOL0     H25214   9.019  -0.184   2.663 -0.8396  0.0669 -1.4595
  928MOL0     H25215   8.803  -0.352   2.416 -0.9049  0.7984  1.5290
  928MOL0     H25216   8.809  -0.528   2.455  0.5077  0.2846 -0.9880
  928MOL0     H25217   8.668  -0.308   2.612  2.5415 -1.4349  1.8146
  928MOL0     H25218   8.580  -0.420   2.502  0.5330 -0.9117  0.0793
  928MOL0     H25219   8.675  -0.615   2.653  2.6471 -0.5262  0.6538
  928MOL0     H25220   8.693  -0.490   2.778 -1.7630 -2.1138  1.6065
  928MOL0     H25221   8.463  -0.417   2.741  0.0737  0.3541 -1.6189
  928MOL0     H25222   8.441  -0.550   2.635  0.4598 -0.4537 -0.1000
  928MOL0     H25223   8.363  -0.631   2.818  1.1379 -0.4856 -3.3132
  928MOL0     H25224   8.534  -0.689   2.826  2.3609  2.1523 -0.5461
  928MOL0     H25225   8.602  -0.515   2.987 -1.1149  0.8329  0.5331
  928MOL0     H25226   8.432  -0.447   2.989  2.1593  1.2459 -0.0661
  928MOL0     H25227   8.556  -0.713   3.074  1.3090 -0.1772  1.5018
  928MOL0     H25228   8.519  -0.589   3.194  1.8534 -1.7663  0.1428
  928MOL0     H25229   8.345  -0.766   3.204  1.8334 -0.7687 -0.7322
  928MOL0     H25230   8.321  -0.753   3.027  0.7988 -0.3147 -0.0532
  928MOL0     H25231   8.123  -0.596   2.948  0.0307  0.0220 -0.1765
  928MOL0     H25232   7.902  -0.330   3.136 -1.9645  0.4366 -0.7140
  928MOL0     H25233   7.965  -0.353   2.977  0.3089  2.0752  1.6534
  928MOL0     H25234   7.883  -0.583   2.957  0.8177  1.9782 -1.0636
  928MOL0     H25235   7.758  -0.464   2.954  0.2392 -0.2592 -0.2365
  928MOL0     H25236   7.828  -0.633   3.213 -0.3337  1.9094 -0.1589
  928MOL0     H25237   7.714  -0.682   3.081 -0.6475 -2.3895  2.8910
  928MOL0     H25238   7.707  -0.437   3.260 -2.0360  0.8763  1.0617
  928MOL0     H25239   7.631  -0.593   3.299  4.7134 -0.4618 -0.0859
  928MOL0     H25240   7.377  -0.552   2.958  0.8513  0.1217  0.6645
  928MOL0     H25241   7.035  -0.531   2.979  0.2588  0.9728  0.2478
  928MOL0     H25242   7.165  -0.645   2.915 -2.4304 -1.7975 -0.6875
  928MOL0     H25243   7.045  -0.699   3.033  0.1787 -0.9189 -0.9663
  928MOL0     H25244   6.762  -0.700   3.253 -0.9957  0.4746  0.2007
  928MOL0     H25245   6.573  -0.692   3.410 -1.6079 -1.1605 -0.9453
  928MOL0     H25246   6.336  -0.611   3.392  0.3370 -2.6426  1.0452
  928MOL0     H25247   6.385  -0.646   3.545 -1.1138 -1.1695 -2.5242
  928MOL0     H25248   6.167  -0.429   3.486  0.5148  1.5695 -0.2276
  928MOL0     H25249   6.141  -0.593   3.532  1.8847 -1.9457 -0.2521
  928MOL0     H25250   6.294  -0.375   3.705  0.7607 -0.1413 -1.0339
  928MOL0     H25251   6.292  -0.535   3.756  1.3186  0.3875 -0.4570
  928MOL0     H25252   6.031  -0.438   3.672  0.6652 -0.8679 -0.3272
  928MOL0     H25253   6.076  -0.579   3.770  2.3654 -1.2710 -1.6581
  928MOL0     H25254   6.134  -0.291   3.878 -4.1884  2.6912  0.3638
  928MOL0     H25255   6.112  -0.445   3.962  0.2098 -1.3321 -1.6825
  928MOL0     H25256   5.889  -0.316   3.811  0.4553 -2.1091 -1.2522
  928MOL0     H25257   5.889  -0.445   3.927 -5.1142  1.1394 -1.8880
  928MOL0     H25258   5.918  -0.146   3.993 -0.2781 -0.2254  0.0725
  928MOL0     H25259   5.995  -0.274   4.084  0.1861 -1.4041 -0.7865
  928MOL0     H25260   5.763  -0.231   4.180 -0.1261  0.9833 -0.8426
  928MOL0     H25261   5.780  -0.391   4.106 -0.9477  0.2336  0.0517
  928MOL0     H25262   6.594  -0.256   3.371  3.2438  1.9161  1.2780
  928MOL0     H25263   6.815  -0.290   3.252  1.8819 -2.2152 -1.4169
  928MOL0     H25264   7.228  -0.483   3.428  3.2523 -2.2569  0.7863
  928MOL0     H25265   7.459  -0.431   3.361  0.3913  1.9269 -1.0245
  928MOL0     H25266   9.084  -0.496   2.372 -0.0706 -0.6493  1.0851
  928MOL0     H25267   9.276  -0.378   2.283  0.1853  0.0357  1.6318
  928MOL0     H25268   9.509   0.200   2.281 -1.4409  0.1204 -0.7807
  928MOL0     H25269   9.713   0.235   2.153 -0.5862 -0.8697 -5.2514
  928MOL0     H25270  10.000  -0.122   2.110  1.1160  1.2503 -0.2695
  928MOL0     H25271   9.958  -0.038   1.960 -0.4846  0.7227 -0.6208
  928MOL0     H25272  10.197  -0.031   2.038  1.3776 -0.1604  1.8284
  928MOL0     H25273  10.159   0.087   2.154  0.9674 -0.8538  0.0934
  928MOL0     H25274  10.068   0.241   1.997  1.5901  0.4600  1.0005
  928MOL0     H25275  10.070   0.124   1.865 -2.1674 -2.8013  1.9580
  928MOL0     H25276  10.258   0.288   1.840 -0.6103 -0.2369 -0.2164
  928MOL0     H25277  10.323   0.117   1.862  1.6198 -1.4208  2.3091
  928MOL0     H25278  10.476   0.341   2.189  0.1385 -1.5252  1.5179
  928MOL0     H25279   9.824  -0.171   2.230 -0.5622  0.9365  1.5331
  928MOL0     H25280   9.616  -0.213   2.347  0.9088  0.0160  0.4573
  929MOL0     O25281   4.972   8.337   5.678 -0.5453 -0.3800 -0.7208
  929MOL0     C25282   4.909   8.374   5.777  0.0996  0.4123  0.8074
  929MOL0     O25283   4.916   8.497   5.834 -0.6318  0.3962 -0.0741
  929MOL0     C25284   5.012   8.585   5.782 -0.6564  0.3170  1.0266
  929MOL0     C25285   4.972   8.671   5.678 -0.2565 -0.1054  0.9457
  929MOL0     C25286   5.065   8.771   5.635 -0.6514  0.1386 -1.0305
  929MOL0     C25287   5.193   8.787   5.698 -0.0842 -0.2353  0.5492
  929MOL0     O25288   5.262   8.906   5.662  0.0012 -0.3513  0.4169
  929MOL0     C25289   5.399   8.914   5.695  0.2071 -0.9757  0.4104
  929MOL0     C25290   5.445   9.062   5.663 -0.6687  0.2766 -0.1524
  929MOL0     C25291   5.593   9.091   5.690 -0.0339 -0.6376  0.1304
  929MOL0     C25292   5.642   9.041   5.832  0.6189 -0.8672  0.2772
  929MOL0     C25293   5.795   9.052   5.848 -0.2720  0.4220 -0.0427
  929MOL0     C25294   5.849   9.000   5.980  0.2345  0.2927  1.3931
  929MOL0     C25295   6.001   9.013   5.989  0.2686 -0.3773  0.2143
  929MOL0     C25296   6.081   8.923   5.906  0.1142  1.0442 -0.5354
  929MOL0     N25297   6.217   8.938   5.950  0.0646 -0.5422 -0.4622
  929MOL0     C25298   6.310   9.031   5.920  0.2203 -0.1435 -0.4163
  929MOL0     C25299   6.417   9.003   5.998 -0.1983 -0.1759 -0.6803
  929MOL0     C25300   6.556   9.071   5.989  0.2788  0.4808 -0.0867
  929MOL0     C25301   6.678   8.984   5.996  0.7180  0.2937  0.8493
  929MOL0     C25302   6.688   8.865   5.890 -0.6654  0.2555 -0.4468
  929MOL0     C25303   6.709   8.886   5.742  0.6838  0.8547 -0.4184
  929MOL0     O25304   6.594   8.965   5.682  0.2809  0.1623 -0.2654
  929MOL0     C25305   6.475   8.903   5.656  0.5429 -0.0434 -0.0668
  929MOL0     C25306   6.435   8.767   5.680 -0.9129  0.0023 -0.8980
  929MOL0     C25307   6.305   8.715   5.658 -0.6235 -0.8319  0.4513
  929MOL0     C25308   6.278   8.570   5.670 -0.2111 -0.1395 -0.1295
  929MOL0     C25309   6.207   8.810   5.606 -0.4968  0.3784  0.1620
  929MOL0     C25310   6.056   8.777   5.583 -0.2741 -0.5148 -0.3912
  929MOL0     O25311   6.007   8.655   5.624 -0.0066  0.1612  0.0525
  929MOL0     C25312   5.878   8.630   5.584 -0.2114  0.1494  0.7376
  929MOL0     C25313   5.842   8.606   5.456  0.6645  0.2338  1.2288
  929MOL0     C25314   5.715   8.570   5.429  0.4603 -0.3941  0.1905
  929MOL0     C25315   5.613   8.556   5.522  0.6072 -0.1114  0.0693
  929MOL0     O25316   5.490   8.519   5.480 -0.3629  0.3806 -0.1351
  929MOL0     C25317   5.370   8.531   5.556  0.8761  0.1659  0.1392
  929MOL0     C25318   5.264   8.457   5.481 -0.6283  0.4027 -0.3563
  929MOL0     C25319   5.294   8.306   5.506  0.3980 -0.7298 -0.3888
  929MOL0     C25320   5.178   8.213   5.455 -0.7463 -0.0819  0.9348
  929MOL0     C25321   5.168   8.088   5.545  0.3211  0.0427  0.5803
  929MOL0     C25322   5.284   7.999   5.541  0.0767  0.7235 -0.1350
  929MOL0     C25323   5.309   7.913   5.664  0.3032  1.4319 -0.2580
  929MOL0     C25324   5.203   7.813   5.695  1.1137 -0.8213 -0.6422
  929MOL0    Cl25325   5.193   7.692   5.569 -0.4641 -0.1836  0.2215
  929MOL0     C25326   5.653   8.583   5.653 -0.3268 -0.7285  0.6098
  929MOL0     C25327   5.784   8.622   5.680  0.3723  1.0959  0.5260
  929MOL0     O25328   5.985   8.860   5.526  0.1847 -0.3018 -0.3660
  929MOL0     C25329   6.250   8.945   5.575 -0.0749  0.1827  1.1853
  929MOL0     C25330   6.383   8.987   5.605  0.2723  0.1264 -0.4767
  929MOL0     N25331   6.376   8.904   6.082  0.1172 -0.4123 -0.5598
  929MOL0     N25332   6.263   8.861   6.056  0.0356 -0.2541 -0.6112
  929MOL0     C25333   5.233   8.698   5.793  0.3547  0.6913  0.3515
  929MOL0     C25334   5.143   8.598   5.837  0.7262  0.0957  0.0506
  929MOL0     C25335   4.799   8.276   5.836 -0.3714 -0.2892  0.7802
  929MOL0     C25336   4.715   8.320   5.945  0.6509 -0.9091  0.8956
  929MOL0     C25337   4.624   8.224   5.996 -0.5935  0.1801 -0.5634
  929MOL0     C25338   4.617   8.094   5.958 -0.0077  0.0302  0.1544
  929MOL0     O25339   4.521   8.021   6.016 -0.1499  0.0258 -0.4134
  929MOL0     C25340   4.512   7.885   5.984 -0.3737  0.5800  1.1883
  929MOL0     C25341   4.388   7.830   6.058 -0.5832 -0.1464  0.1795
  929MOL0     C25342   4.351   7.679   6.035 -0.4699  0.7070 -0.6448
  929MOL0     C25343   4.231   7.621   6.113 -0.0909 -0.6313 -0.9986
  929MOL0     C25344   4.127   7.725   6.113  0.7251 -0.0141 -0.8622
  929MOL0     C25345   4.040   7.806   6.107 -0.0606 -0.7193  1.3567
  929MOL0     C25346   4.703   8.048   5.858 -0.1954  0.2484 -0.0778
  929MOL0     C25347   4.790   8.147   5.792  0.0222  0.9504  0.3552
  929MOL0     H25348   4.876   8.654   5.630 -1.1492 -1.2224  2.9984
  929MOL0     H25349   5.016   8.833   5.562 -2.8923  1.1770  1.1986
  929MOL0     H25350   5.420   8.895   5.800  1.3819  0.5458  0.4806
  929MOL0     H25351   5.456   8.845   5.633  0.3327  1.0619 -1.9475
  929MOL0     H25352   5.423   9.097   5.562  1.8418  3.1261  0.1515
  929MOL0     H25353   5.385   9.130   5.724 -2.5107 -0.5385 -0.9907
  929MOL0     H25354   5.660   9.055   5.612  1.0533  1.2348  0.1261
  929MOL0     H25355   5.603   9.199   5.679  2.5999 -0.7891  0.4594
  929MOL0     H25356   5.595   9.105   5.908  4.4625 -3.9849  6.0389
  929MOL0     H25357   5.597   8.946   5.860 -1.7720 -0.5229 -2.0296
  929MOL0     H25358   5.848   8.995   5.772 -2.8429 -2.0938 -0.0971
  929MOL0     H25359   5.816   9.159   5.844 -1.2723  0.6249 -0.3342
  929MOL0     H25360   5.798   9.049   6.064 -2.9326 -0.5860  0.1491
  929MOL0     H25361   5.838   8.891   5.975  1.4824  0.1828  0.7558
  929MOL0     H25362   6.029   9.115   5.962 -0.2273  0.4874  2.7050
  929MOL0     H25363   6.034   8.997   6.092  0.4175 -1.7507 -0.0270
  929MOL0     H25364   6.074   8.955   5.801 -0.7411  1.9897 -0.2033
  929MOL0     H25365   6.034   8.825   5.909  1.3810  0.4162 -0.2630
  929MOL0     H25366   6.290   9.117   5.856 -0.5635  1.8830  2.3962
  929MOL0     H25367   6.556   9.117   5.890  0.4536 -2.1588 -1.3943
  929MOL0     H25368   6.550   9.140   6.074 -1.0720  2.5894 -1.7771
  929MOL0     H25369   6.681   8.947   6.099  0.9036  0.2419  0.8254
  929MOL0     H25370   6.765   9.050   5.991 -1.6333  3.7266  1.4947
  929MOL0     H25371   6.612   8.787   5.902  1.8895 -2.0532  2.5701
  929MOL0     H25372   6.780   8.818   5.927 -0.7725  1.3910  1.3917
  929MOL0     H25373   6.718   8.784   5.703 -4.6717  0.3075 -0.9358
  929MOL0     H25374   6.800   8.936   5.709  1.1648 -0.5679 -1.3626
  929MOL0     H25375   6.513   8.700   5.714 -1.2797 -1.1369 -2.2181
  929MOL0     H25376   6.212   8.532   5.592  0.6914  0.0441 -1.0146
  929MOL0     H25377   6.368   8.509   5.655 -0.2836 -0.4156  0.5142
  929MOL0     H25378   6.223   8.555   5.763 -1.5044 -0.2013 -0.8833
  929MOL0     H25379   5.922   8.612   5.382  2.5783 -2.3097  2.8995
  929MOL0     H25380   5.684   8.559   5.325 -1.9709 -0.7898  0.9035
  929MOL0     H25381   5.385   8.488   5.655 -1.4128 -3.3657 -0.8756
  929MOL0     H25382   5.350   8.638   5.564  0.1980  0.3122 -2.4789
  929MOL0     H25383   5.166   8.487   5.520 -1.5326 -1.8019 -0.7640
  929MOL0     H25384   5.266   8.479   5.374  1.0231  3.0160  0.1224
  929MOL0     H25385   5.301   8.312   5.615  3.3711  3.4016 -0.5869
  929MOL0     H25386   5.389   8.281   5.459  1.5757  2.6294 -0.0118
  929MOL0     H25387   5.084   8.268   5.461  0.0164  1.6825 -1.6487
  929MOL0     H25388   5.193   8.198   5.348 -2.1108 -0.0775  0.7281
  929MOL0     H25389   5.086   8.022   5.516  2.5350 -2.6860  0.1548
  929MOL0     H25390   5.145   8.125   5.646 -0.4758  0.4634  0.2547
  929MOL0     H25391   5.280   7.932   5.455  0.3104 -0.6871  0.8984
  929MOL0     H25392   5.378   8.053   5.528  0.9183 -0.3077  1.3230
  929MOL0     H25393   5.335   7.974   5.752  3.1324 -2.4038  1.9123
  929MOL0     H25394   5.402   7.859   5.642  0.1409  1.2863 -0.5884
  929MOL0     H25395   5.109   7.863   5.721  2.3528  1.2854  0.0521
  929MOL0     H25396   5.226   7.763   5.790 -0.1610  3.0089  1.8963
  929MOL0     H25397   5.584   8.577   5.736  1.3366 -2.3267  1.9640
  929MOL0     H25398   5.817   8.647   5.780  2.1329  0.8798  0.0358
  929MOL0     H25399   6.177   9.013   5.533  1.6303  0.6493 -1.2424
  929MOL0     H25400   6.409   9.087   5.572 -0.8578  1.0297  1.1950
  929MOL0     H25401   5.331   8.699   5.840  0.9168  1.1404 -0.7677
  929MOL0     H25402   5.170   8.527   5.914 -2.6456  0.3426  1.6243
  929MOL0     H25403   4.714   8.424   5.976 -0.6164 -0.6262 -0.0111
  929MOL0     H25404   4.552   8.258   6.070  0.1362  1.7241 -0.5067
  929MOL0     H25405   4.499   7.861   5.878  0.9585 -1.5643  1.4475
  929MOL0     H25406   4.597   7.822   6.014 -1.0057 -1.5143 -1.0765
  929MOL0     H25407   4.307   7.888   6.012 -0.1336 -0.9554 -1.7496
  929MOL0     H25408   4.405   7.849   6.164  0.3270 -1.8820  0.3885
  929MOL0     H25409   4.441   7.618   6.043 -1.1121 -0.2411 -0.4885
  929MOL0     H25410   4.318   7.673   5.931 -0.3121 -3.5100 -0.6350
  929MOL0     H25411   4.273   7.608   6.213  1.0150 -1.7809 -1.5683
  929MOL0     H25412   4.196   7.525   6.072 -2.2521 -0.9729  1.3782
  929MOL0     H25413   3.962   7.879   6.111 -0.6747 -1.3516  1.1642
  929MOL0     H25414   4.698   7.949   5.812 -1.2689  0.1125  0.2986
  929MOL0     H25415   4.852   8.111   5.711  0.2309  0.3380  0.7738
  930MOL0     O25416   7.966   8.735   8.969 -0.3536  0.3048 -0.8783
  930MOL0     C25417   8.000   8.614   8.965  0.6241  0.3543  0.1938
  930MOL0     O25418   8.124   8.565   8.953  0.3356 -0.2343 -0.2957
  930MOL0     C25419   8.237   8.645   8.950  0.6967  0.9550  0.8532
  930MOL0     C25420   8.255   8.763   9.029  0.7735 -0.5472  0.3747
  930MOL0     C25421   8.365   8.851   9.006  0.6350 -0.1660 -0.0506
  930MOL0     C25422   8.473   8.814   8.920 -0.0331 -0.4278 -0.1992
  930MOL0     O25423   8.580   8.894   8.921  0.1158 -0.1034 -0.0602
  930MOL0     C25424   8.683   8.886   8.819 -0.7191  0.1485  1.1779
  930MOL0     C25425   8.710   9.020   8.750  0.0221 -0.0484  0.4730
  930MOL0     C25426   8.839   9.012   8.677 -0.0664 -0.3574 -0.2099
  930MOL0     C25427   8.867   9.154   8.602 -0.0638  0.9537 -0.0932
  930MOL0     C25428   8.962   9.227   8.697  0.4719  0.0199 -0.9846
  930MOL0     C25429   9.003   9.363   8.629 -0.1177 -0.0398  0.6178
  930MOL0     C25430   9.088   9.436   8.729  0.6030  0.0601 -0.4194
  930MOL0     C25431   9.226   9.371   8.747 -0.9914  0.2045 -0.5045
  930MOL0     N25432   9.287   9.438   8.861  0.0479  0.0350  0.2948
  930MOL0     C25433   9.262   9.437   8.998  0.1650 -0.4214 -0.8577
  930MOL0     C25434   9.339   9.526   9.053 -0.1819  0.0013 -0.5554
  930MOL0     C25435   9.370   9.563   9.196 -0.0593  0.5149 -0.0583
  930MOL0     C25436   9.429   9.440   9.277  0.1100  0.2006 -0.1180
  930MOL0     C25437   9.431   9.466   9.429 -0.5037  0.1433  0.0685
  930MOL0     C25438   9.537   9.565   9.463 -0.8925 -0.9562  1.0243
  930MOL0     O25439   9.666   9.508   9.485 -0.9683 -0.0051 -0.4931
  930MOL0     C25440   9.783   9.574   9.451  0.4414  0.0068 -0.1065
  930MOL0     C25441   9.880   9.489   9.410 -0.6525  0.1631 -0.7650
  930MOL0     C25442  10.009   9.538   9.397 -0.4277  0.1358  0.5508
  930MOL0     C25443  10.111   9.438   9.336 -0.0063  0.1036 -0.2913
  930MOL0     C25444  10.049   9.668   9.423  0.4109 -0.2023 -0.1393
  930MOL0     C25445  10.186   9.716   9.404  0.7457  0.1319 -0.1788
  930MOL0     O25446  10.242   9.665   9.294 -0.4252 -1.0093  0.1940
  930MOL0     C25447  10.373   9.705   9.267  0.6727 -0.9281  0.1282
  930MOL0     C25448  10.409   9.791   9.158  0.0066 -0.0351  0.9481
  930MOL0     C25449  10.545   9.819   9.122 -0.9807  0.1331  0.2697
  930MOL0     C25450  10.641   9.751   9.195  0.2287  0.2219 -0.6351
  930MOL0     O25451  10.778   9.783   9.186  0.1687  0.8544  0.1101
  930MOL0     C25452  10.820   9.878   9.084 -0.4419  0.3627 -0.2801
  930MOL0     C25453  10.958   9.926   9.104  0.0060  0.1931  0.1810
  930MOL0     C25454  11.005  10.012   8.991 -0.4422 -0.0801  0.4719
  930MOL0     C25455  11.147  10.081   9.019  0.4971  0.4390  0.0889
  930MOL0     C25456  11.226  10.110   8.886 -0.3238 -0.0834 -0.7538
  930MOL0     C25457  11.353  10.196   8.925 -0.9440 -0.3356 -0.4125
  930MOL0     C25458  11.461  10.194   8.811  0.3551  0.1720  0.2526
  930MOL0     C25459  11.581  10.279   8.830 -1.3421  0.5836 -0.6341
  930MOL0    Cl25460  11.665  10.293   8.666  0.6590  0.1242  0.0748
  930MOL0     C25461  10.608   9.671   9.304 -0.4576  0.0749 -0.1907
  930MOL0     C25462  10.476   9.652   9.349  0.6702 -0.1808  0.3389
  930MOL0     O25463  10.221   9.813   9.472  0.1037 -0.2511 -0.1144
  930MOL0     C25464   9.944   9.757   9.461  0.2377  0.8449  0.0912
  930MOL0     C25465   9.813   9.710   9.466 -0.1635  0.1136  0.2046
  930MOL0     N25466   9.418   9.583   8.952 -0.1693  0.7261  0.2739
  930MOL0     N25467   9.384   9.531   8.835 -0.2048  0.3337  0.8101
  930MOL0     C25468   8.448   8.695   8.847  0.2558 -0.4865 -0.4634
  930MOL0     C25469   8.335   8.615   8.863  0.6572 -0.4322 -0.2370
  930MOL0     C25470   7.900   8.509   8.985  0.7857  0.3723 -0.2855
  930MOL0     C25471   7.763   8.540   8.991 -0.3134 -0.3251 -0.4216
  930MOL0     C25472   7.670   8.440   9.023  0.2104 -1.0543 -0.2748
  930MOL0     C25473   7.708   8.307   9.047  0.0295 -0.1876 -0.6658
  930MOL0     O25474   7.633   8.197   9.083  0.4520 -0.7043  0.4788
  930MOL0     C25475   7.494   8.232   9.085  0.0575 -0.1429 -1.1107
  930MOL0     C25476   7.404   8.114   9.110  0.1878  0.6154  0.1320
  930MOL0     C25477   7.408   8.059   9.253  0.6046  0.7959  0.3842
  930MOL0     C25478   7.316   7.931   9.256  0.4902 -0.4591  0.6750
  930MOL0     C25479   7.302   7.882   9.393 -1.3655  0.3558  0.0183
  930MOL0     C25480   7.309   7.845   9.509  0.5941 -1.1684  0.1190
  930MOL0     C25481   7.843   8.278   9.052 -0.1654 -0.9882 -0.1369
  930MOL0     C25482   7.933   8.373   9.017  0.2289  0.0605 -0.3985
  930MOL0     H25483   8.187   8.797   9.106  0.7020  2.8526 -1.0006
  930MOL0     H25484   8.372   8.942   9.066 -0.9952 -0.9819  1.4537
  930MOL0     H25485   8.774   8.856   8.871  2.0488 -0.0791 -3.2340
  930MOL0     H25486   8.662   8.820   8.735 -0.3746  2.4417 -0.8351
  930MOL0     H25487   8.624   9.047   8.688 -0.5042 -0.6833  0.9048
  930MOL0     H25488   8.724   9.097   8.827  2.4819  3.0785 -2.7848
  930MOL0     H25489   8.921   8.996   8.748  0.8839 -1.8282 -1.5788
  930MOL0     H25490   8.840   8.930   8.604 -2.7567 -3.3111  2.7369
  930MOL0     H25491   8.908   9.137   8.502  0.5662  4.3688 -0.5466
  930MOL0     H25492   8.776   9.212   8.588 -2.2874 -1.7871  1.8655
  930MOL0     H25493   8.904   9.248   8.788 -2.5282 -1.3822 -2.4412
  930MOL0     H25494   9.053   9.168   8.713 -0.3258 -0.9676  0.0568
  930MOL0     H25495   9.047   9.357   8.529 -1.4842  0.4240 -0.0302
  930MOL0     H25496   8.911   9.418   8.609  1.0269  1.8030  0.1583
  930MOL0     H25497   9.105   9.543   8.713 -0.1987  0.6557  2.2142
  930MOL0     H25498   9.040   9.421   8.827  2.9516  2.5204  1.2490
  930MOL0     H25499   9.268   9.386   8.647 -1.0510 -4.6293 -1.5163
  930MOL0     H25500   9.223   9.263   8.767  0.5518  0.4744  1.5684
  930MOL0     H25501   9.192   9.379   9.057  0.6245 -1.3903 -1.2490
  930MOL0     H25502   9.434   9.651   9.196  1.5725 -0.5829  2.1655
  930MOL0     H25503   9.277   9.600   9.242  0.2923 -0.5864  1.6636
  930MOL0     H25504   9.530   9.412   9.246  1.0438  0.4021  2.4652
  930MOL0     H25505   9.359   9.358   9.260 -2.6528  2.4643 -0.3895
  930MOL0     H25506   9.461   9.378   9.487  1.3102 -0.0024 -1.0158
  930MOL0     H25507   9.337   9.501   9.474 -1.0448 -2.4941  1.2204
  930MOL0     H25508   9.510   9.615   9.557  1.0534  1.8865  0.2064
  930MOL0     H25509   9.556   9.637   9.382  2.9303  0.2243  2.7467
  930MOL0     H25510   9.855   9.385   9.393 -0.6287 -0.0020  0.1632
  930MOL0     H25511  10.064   9.340   9.351  2.0498 -0.6350  1.9482
  930MOL0     H25512  10.122   9.460   9.230 -1.8034  2.5764 -0.0527
  930MOL0     H25513  10.209   9.430   9.384  0.8037 -1.5638 -2.1124
  930MOL0     H25514  10.317   9.827   9.114 -0.5150 -2.7683 -0.3738
  930MOL0     H25515  10.571   9.882   9.038  1.2014 -1.6809 -0.5072
  930MOL0     H25516  10.801   9.835   8.985 -1.3664 -0.0767  0.0754
  930MOL0     H25517  10.753   9.963   9.094 -0.4984  0.4434 -1.2888
  930MOL0     H25518  10.959   9.990   9.193 -0.6934  1.3424 -0.6096
  930MOL0     H25519  11.017   9.835   9.116 -2.9762 -1.8934  0.0739
  930MOL0     H25520  10.931  10.092   8.981  2.5267  2.6254 -2.9183
  930MOL0     H25521  10.997   9.958   8.896  1.8148  0.4781 -0.0966
  930MOL0     H25522  11.136  10.173   9.077  0.4350 -0.2820  1.2554
  930MOL0     H25523  11.196  10.013   9.088 -2.9447 -0.6373  1.6938
  930MOL0     H25524  11.166  10.176   8.822 -0.0749  1.1492  0.2464
  930MOL0     H25525  11.244  10.013   8.837 -3.4116 -2.6225  2.6105
  930MOL0     H25526  11.330  10.301   8.947  0.2688  0.3839 -2.2651
  930MOL0     H25527  11.397  10.159   9.018 -4.0881 -0.7340  1.0366
  930MOL0     H25528  11.404  10.237   8.728 -0.7498  0.2043  1.0037
  930MOL0     H25529  11.485  10.092   8.780  1.6477  0.5949 -0.1989
  930MOL0     H25530  11.653  10.226   8.894 -0.2887  0.9000 -1.5269
  930MOL0     H25531  11.565  10.373   8.883  1.8808  0.6939  0.3574
  930MOL0     H25532  10.686   9.631   9.368 -0.3688  2.5419  1.4109
  930MOL0     H25533  10.457   9.613   9.449  1.0626 -0.3283  0.3614
  930MOL0     H25534   9.966   9.859   9.489  0.5131  1.2887 -1.6091
  930MOL0     H25535   9.729   9.774   9.490 -0.5668  0.5498 -2.1958
  930MOL0     H25536   8.524   8.667   8.775  2.0445  0.3045  1.0118
  930MOL0     H25537   8.342   8.523   8.806 -1.1818 -1.0725  0.5004
  930MOL0     H25538   7.724   8.642   8.994  1.6221  0.4784 -1.1959
  930MOL0     H25539   7.565   8.462   9.036 -0.2257 -2.9667 -0.2974
  930MOL0     H25540   7.479   8.306   9.164  1.3085 -2.0678  1.0605
  930MOL0     H25541   7.478   8.276   8.986 -1.3893  2.5654  0.2095
  930MOL0     H25542   7.450   8.042   9.041  1.1213 -1.8608  3.0868
  930MOL0     H25543   7.302   8.144   9.086  0.2248  0.5035 -0.1681
  930MOL0     H25544   7.373   8.135   9.322 -1.7180 -1.2879  1.6925
  930MOL0     H25545   7.508   8.032   9.288  0.1448 -0.6882  0.6488
  930MOL0     H25546   7.361   7.853   9.194 -1.4435 -1.7788  0.8518
  930MOL0     H25547   7.221   7.962   9.213  1.7579  1.1279 -1.1150
  930MOL0     H25548   7.304   7.811   9.610 -3.8762  1.1984  0.9872
  930MOL0     H25549   7.877   8.188   9.103 -0.3115 -0.1307  1.5783
  930MOL0     H25550   8.037   8.348   9.035  0.5045  1.2915 -0.2139
  931MOL0     O25551   7.806   5.659   3.162 -0.2963  1.0691 -0.5925
  931MOL0     C25552   7.807   5.772   3.117  0.0109 -0.0222  0.1018
  931MOL0     O25553   7.904   5.822   3.021  0.5369 -0.9109 -0.3463
  931MOL0     C25554   8.007   5.729   3.005 -0.2537 -0.0854  1.4887
  931MOL0     C25555   8.047   5.732   2.873  0.6966  0.0235 -0.1051
  931MOL0     C25556   8.170   5.672   2.840 -0.4352 -0.1567  0.1399
  931MOL0     C25557   8.249   5.611   2.935 -0.2658  0.3159  0.3829
  931MOL0     O25558   8.356   5.525   2.903  0.0944 -0.4830 -0.8360
  931MOL0     C25559   8.443   5.577   2.797 -0.2925 -0.0798  0.0401
  931MOL0     C25560   8.581   5.510   2.788 -0.1296 -0.4824  0.3576
  931MOL0     C25561   8.662   5.492   2.910 -0.0640  0.0684 -0.0888
  931MOL0     C25562   8.790   5.415   2.890 -0.3781 -0.1048 -0.3152
  931MOL0     C25563   8.783   5.280   2.976 -0.2104  1.0200  0.2103
  931MOL0     C25564   8.904   5.200   2.948 -1.0577  0.2023 -0.9073
  931MOL0     C25565   9.033   5.258   2.996  0.2673  0.0765  0.1279
  931MOL0     C25566   9.038   5.300   3.147 -0.0754  0.3830  0.6617
  931MOL0     N25567   8.990   5.183   3.227  0.0130 -0.9728  0.1587
  931MOL0     C25568   9.027   5.045   3.225 -0.0711 -0.4843  0.5231
  931MOL0     C25569   8.985   4.995   3.346  0.0704  0.5409  1.0213
  931MOL0     C25570   8.988   4.851   3.382 -0.8269  0.5947 -0.6699
  931MOL0     C25571   8.937   4.761   3.270 -0.0257  0.3653  0.4652
  931MOL0     C25572   8.780   4.741   3.276 -0.1550 -0.1067 -0.3758
  931MOL0     C25573   8.702   4.872   3.246  1.0640 -0.0862  0.1857
  931MOL0     O25574   8.574   4.830   3.220  0.0964 -0.1115 -0.5396
  931MOL0     C25575   8.486   4.815   3.328  0.4329  0.0723 -0.1226
  931MOL0     C25576   8.353   4.804   3.295 -0.3346 -0.4772 -0.6700
  931MOL0     C25577   8.257   4.793   3.398  1.0278 -0.4080  0.5596
  931MOL0     C25578   8.118   4.782   3.352  0.8721 -0.8655  0.0830
  931MOL0     C25579   8.301   4.783   3.540  0.6044  0.4114  0.3559
  931MOL0     C25580   8.217   4.770   3.659 -0.1902  0.7313  0.3244
  931MOL0     O25581   8.272   4.745   3.789 -0.7363  0.2458  0.1603
  931MOL0     C25582   8.182   4.761   3.894  0.2278  0.4804 -0.0385
  931MOL0     C25583   8.141   4.643   3.956  0.2850 -0.2933 -0.4051
  931MOL0     C25584   8.045   4.657   4.058 -0.6650  0.5413  0.0066
  931MOL0     C25585   7.993   4.784   4.099  0.6284  1.3515 -0.0457
  931MOL0     O25586   7.909   4.786   4.210  0.4570  0.1174  0.2599
  931MOL0     C25587   7.889   4.911   4.275  0.9873  0.1337 -0.7714
  931MOL0     C25588   7.818   4.870   4.412  0.1033  0.5486  0.9325
  931MOL0     C25589   7.784   5.004   4.486 -0.1976 -0.0479 -0.6151
  931MOL0     C25590   7.665   4.975   4.581  0.7712 -0.4356 -0.1491
  931MOL0     C25591   7.648   5.097   4.669 -0.9339 -0.5304  0.2407
  931MOL0     C25592   7.544   5.073   4.780 -0.0964 -0.3001  0.1169
  931MOL0     C25593   7.526   5.197   4.866  0.4999  0.2446 -0.6722
  931MOL0     C25594   7.381   5.247   4.871 -0.1828  0.0880 -0.1671
  931MOL0    Cl25595   7.346   5.355   5.004 -0.2415 -0.1618 -0.3289
  931MOL0     C25596   8.027   4.901   4.027 -0.2177 -0.2355 -0.3749
  931MOL0     C25597   8.126   4.888   3.929 -0.4010  0.2675  0.2507
  931MOL0     O25598   8.097   4.773   3.641 -0.2969  0.9067  0.5367
  931MOL0     C25599   8.440   4.792   3.561 -0.1829  0.1727  0.2459
  931MOL0     C25600   8.530   4.826   3.459  0.0669 -0.4817  0.1495
  931MOL0     N25601   8.927   5.096   3.413  0.3713  0.4267 -1.3738
  931MOL0     N25602   8.925   5.200   3.346  0.4204  0.9133  0.1110
  931MOL0     C25603   8.210   5.617   3.063  0.1282  0.1776 -0.6208
  931MOL0     C25604   8.084   5.673   3.102 -0.2722 -0.8124 -0.3223
  931MOL0     C25605   7.703   5.871   3.164 -1.1764  0.7449  0.5013
  931MOL0     C25606   7.631   5.834   3.275 -0.4288 -0.6432  0.3018
  931MOL0     C25607   7.523   5.912   3.314  1.1346  0.0994 -0.4303
  931MOL0     C25608   7.486   6.028   3.246 -0.1446  0.0225 -0.8967
  931MOL0     O25609   7.382   6.113   3.296  0.3071 -0.0913  0.2352
  931MOL0     C25610   7.254   6.091   3.235 -0.5694  0.5056 -0.4021
  931MOL0     C25611   7.178   6.223   3.257 -0.0073 -0.3354  0.0598
  931MOL0     C25612   7.149   6.269   3.409  0.0141 -0.2769 -1.1497
  931MOL0     C25613   7.056   6.397   3.408  0.8493 -0.3561  0.0395
  931MOL0     C25614   6.917   6.384   3.368 -0.3882  0.9371  0.2548
  931MOL0     C25615   6.804   6.364   3.328 -0.6473  0.2255  0.2945
  931MOL0     C25616   7.556   6.060   3.129  0.6415  0.2028  0.0629
  931MOL0     C25617   7.672   5.982   3.091 -0.5521 -0.6975 -0.0134
  931MOL0     H25618   7.974   5.783   2.810 -1.0422 -1.4101  0.6590
  931MOL0     H25619   8.193   5.665   2.734 -0.6230 -1.1739  0.1548
  931MOL0     H25620   8.397   5.571   2.698 -1.5524  1.0666  0.5232
  931MOL0     H25621   8.472   5.681   2.815  1.3242 -0.4021 -0.5584
  931MOL0     H25622   8.566   5.418   2.730 -3.9573  0.7093 -0.8439
  931MOL0     H25623   8.646   5.567   2.720 -0.8538  0.8187  0.7339
  931MOL0     H25624   8.689   5.587   2.956  0.3173 -1.7993  4.0834
  931MOL0     H25625   8.594   5.434   2.974 -0.2363  0.6053  0.2213
  931MOL0     H25626   8.799   5.389   2.784 -0.5819 -3.2813  0.3331
  931MOL0     H25627   8.871   5.487   2.902 -1.7856  1.3252  1.1130
  931MOL0     H25628   8.763   5.305   3.080 -0.5494 -1.3114  0.7551
  931MOL0     H25629   8.695   5.228   2.935 -0.5103  0.5583  1.4109
  931MOL0     H25630   8.888   5.098   2.985 -2.0144  0.5378 -0.3420
  931MOL0     H25631   8.912   5.200   2.839  1.4695  3.4140 -0.8626
  931MOL0     H25632   9.119   5.192   2.984 -0.9616 -2.0096  2.0571
  931MOL0     H25633   9.057   5.344   2.932 -1.5073 -0.2155 -0.9894
  931MOL0     H25634   8.969   5.380   3.176 -1.4681 -0.1946 -0.8834
  931MOL0     H25635   9.139   5.331   3.175  1.9423 -3.2893 -1.7312
  931MOL0     H25636   9.072   4.992   3.142  1.9198  2.5980 -0.5406
  931MOL0     H25637   9.094   4.836   3.405 -1.1151 -0.5199  0.0255
  931MOL0     H25638   8.926   4.840   3.472 -2.2555 -1.2214 -1.8086
  931MOL0     H25639   8.990   4.666   3.279 -0.1874  0.2300  0.0504
  931MOL0     H25640   8.966   4.798   3.171 -0.8947  1.2133  0.5105
  931MOL0     H25641   8.741   4.697   3.369 -2.4256  2.1718 -0.1300
  931MOL0     H25642   8.770   4.673   3.191  0.0477  1.5413 -1.7442
  931MOL0     H25643   8.737   4.924   3.156  1.1721  1.3327  1.0242
  931MOL0     H25644   8.715   4.948   3.323 -0.6142  1.0946 -0.6518
  931MOL0     H25645   8.316   4.810   3.193  1.4533 -2.6273 -1.5219
  931MOL0     H25646   8.111   4.798   3.244 -2.0720 -0.1610  0.2927
  931MOL0     H25647   8.079   4.681   3.368 -2.2777  0.3928  1.0946
  931MOL0     H25648   8.048   4.852   3.399  2.2376  0.3075  0.4262
  931MOL0     H25649   8.180   4.546   3.929  2.7382  0.3551  0.5547
  931MOL0     H25650   8.003   4.569   4.106 -1.2720  0.8870  0.1059
  931MOL0     H25651   7.982   4.957   4.309 -0.0026  2.3252 -0.8727
  931MOL0     H25652   7.827   4.975   4.211 -1.7306 -2.6615 -1.1751
  931MOL0     H25653   7.735   4.806   4.380 -0.2131  1.9136 -1.1948
  931MOL0     H25654   7.885   4.799   4.460 -0.8166  0.4240  2.0811
  931MOL0     H25655   7.752   5.083   4.418 -0.6174  0.7767  0.4987
  931MOL0     H25656   7.871   5.040   4.543 -1.7113  1.0811  1.0728
  931MOL0     H25657   7.571   4.958   4.528  1.9045 -1.6608 -1.8607
  931MOL0     H25658   7.682   4.884   4.639  0.7832  0.5816  1.5251
  931MOL0     H25659   7.603   5.169   4.601  0.2279 -1.4465 -1.5749
  931MOL0     H25660   7.742   5.144   4.700 -1.3620  1.6756 -1.5478
  931MOL0     H25661   7.451   5.048   4.728  0.2501 -0.5379 -0.4018
  931MOL0     H25662   7.581   4.990   4.842  1.1908 -0.4557 -0.8147
  931MOL0     H25663   7.592   5.280   4.839 -0.6250  0.7589 -1.9296
  931MOL0     H25664   7.548   5.164   4.968 -2.6051 -1.4190 -0.4144
  931MOL0     H25665   7.309   5.165   4.883  1.3562 -1.3901 -0.5741
  931MOL0     H25666   7.366   5.308   4.781 -0.2730  4.2663  2.4157
  931MOL0     H25667   7.997   5.000   4.059  0.0922 -1.5043  4.6803
  931MOL0     H25668   8.165   4.977   3.882 -2.9589  0.9184 -0.7534
  931MOL0     H25669   8.474   4.782   3.663 -0.4798 -0.4838  0.2847
  931MOL0     H25670   8.632   4.849   3.489 -0.2222 -1.0960  1.6688
  931MOL0     H25671   8.267   5.562   3.136 -0.1289 -2.1805 -2.0755
  931MOL0     H25672   8.053   5.690   3.204 -3.0494 -1.3133 -1.0110
  931MOL0     H25673   7.655   5.743   3.329  0.1312  1.6548  4.3476
  931MOL0     H25674   7.473   5.861   3.396  2.7597 -1.6473 -0.4309
  931MOL0     H25675   7.264   6.076   3.127 -1.1325  0.4325 -0.4476
  931MOL0     H25676   7.204   6.005   3.280 -0.2513 -0.5267 -1.9514
  931MOL0     H25677   7.077   6.198   3.223 -0.5319  1.9206 -0.2623
  931MOL0     H25678   7.224   6.307   3.203 -0.1906  2.0755  3.3596
  931MOL0     H25679   7.242   6.297   3.458 -0.7426 -0.7493  0.6167
  931MOL0     H25680   7.097   6.186   3.459  0.6471 -1.9465 -3.1081
  931MOL0     H25681   7.096   6.466   3.334  0.9284  1.5998  1.8397
  931MOL0     H25682   7.061   6.443   3.506 -1.3630  1.8504 -0.7611
  931MOL0     H25683   6.704   6.354   3.292 -1.4290  3.1821  1.3389
  931MOL0     H25684   7.519   6.144   3.070  0.5500  0.0573 -0.0868
  931MOL0     H25685   7.730   6.006   3.003  4.1679 -2.2078  2.3848
  932MOL0     O25686   8.599   9.622   8.499  0.1299 -0.0563 -0.5201
  932MOL0     C25687   8.697   9.607   8.576  0.7280  0.1751 -0.1619
  932MOL0     O25688   8.691   9.538   8.694  0.8301  0.2423 -0.4427
  932MOL0     C25689   8.575   9.483   8.739  0.4233 -0.8821 -0.4198
  932MOL0     C25690   8.447   9.544   8.725 -0.5216 -0.5376 -0.8519
  932MOL0     C25691   8.331   9.470   8.764 -0.4632  0.6440  0.1838
  932MOL0     C25692   8.339   9.343   8.820 -0.5445 -0.2450 -0.6629
  932MOL0     O25693   8.227   9.274   8.836  0.6204  0.0623 -0.9817
  932MOL0     C25694   8.218   9.173   8.941 -0.2771  0.2545  0.0999
  932MOL0     C25695   8.074   9.154   8.985  1.1130 -0.0966 -0.7948
  932MOL0     C25696   7.982   9.086   8.883  0.7235 -0.6730 -0.0330
  932MOL0     C25697   7.832   9.082   8.913 -1.0514 -0.0461  0.2525
  932MOL0     C25698   7.793   9.010   9.046 -0.6399 -0.1060  0.0512
  932MOL0     C25699   7.639   8.996   9.046 -0.0842  0.3313 -0.0977
  932MOL0     C25700   7.577   8.940   9.173  0.4329 -0.1205 -0.6523
  932MOL0     C25701   7.426   8.968   9.184  0.6831  0.3514 -0.0034
  932MOL0     N25702   7.373   8.902   9.300  1.0961  0.2292  0.6231
  932MOL0     C25703   7.305   8.783   9.307 -0.1790  0.6912 -0.2038
  932MOL0     C25704   7.263   8.765   9.431  0.7336 -1.1846  0.2306
  932MOL0     C25705   7.173   8.650   9.484  0.6582  0.8431  0.4261
  932MOL0     C25706   7.023   8.664   9.443 -0.0633  0.4116 -0.3284
  932MOL0     C25707   6.954   8.774   9.532 -0.3698  0.0408  0.3152
  932MOL0     C25708   6.805   8.787   9.503 -0.0672 -0.7611  0.7036
  932MOL0     O25709   6.736   8.872   9.593 -0.3973 -0.0110  0.3743
  932MOL0     C25710   6.600   8.894   9.575  0.5956 -0.1623  0.0814
  932MOL0     C25711   6.537   8.966   9.670 -0.6521  0.2820  0.3092
  932MOL0     C25712   6.400   8.986   9.673 -0.1425  0.1610  0.9754
  932MOL0     C25713   6.358   9.084   9.776  0.2691 -0.2537 -0.1056
  932MOL0     C25714   6.312   8.925   9.574 -0.7551  0.7103  0.3121
  932MOL0     C25715   6.167   8.961   9.566 -0.6702 -0.0592 -0.0933
  932MOL0     O25716   6.107   8.941   9.449  0.4710  0.0504  0.9210
  932MOL0     C25717   5.974   8.905   9.443  0.4878 -0.5302  0.6621
  932MOL0     C25718   5.929   8.780   9.460  0.3545  0.1200 -0.0592
  932MOL0     C25719   5.795   8.744   9.449  0.2625  0.5185 -0.0112
  932MOL0     C25720   5.704   8.844   9.444  1.5141  0.1943  0.3499
  932MOL0     O25721   5.567   8.840   9.447 -0.1086 -0.0187  0.3168
  932MOL0     C25722   5.502   8.764   9.349  0.1137 -0.5090  0.0516
  932MOL0     C25723   5.357   8.736   9.379  0.6393 -0.4272 -1.0447
  932MOL0     C25724   5.297   8.632   9.284 -0.5504  0.5105 -1.4110
  932MOL0     C25725   5.154   8.599   9.337 -0.2587 -0.7488 -0.3491
  932MOL0     C25726   5.050   8.687   9.268 -0.6205  0.0886  0.3011
  932MOL0     C25727   4.937   8.685   9.370  0.5260  0.1274  0.1252
  932MOL0     C25728   4.810   8.757   9.315 -0.2466  0.0051 -0.1848
  932MOL0     C25729   4.739   8.835   9.423 -0.1086 -0.0322 -0.2069
  932MOL0    Cl25730   4.651   8.755   9.562  0.3421 -0.6370 -0.6576
  932MOL0     C25731   5.738   8.971   9.430 -0.0570  0.6973  0.5853
  932MOL0     C25732   5.871   9.007   9.422  0.2957 -0.3414  0.1606
  932MOL0     O25733   6.108   8.970   9.672 -0.2792  0.4042 -0.0756
  932MOL0     C25734   6.376   8.855   9.468 -1.0278  0.1133  0.1844
  932MOL0     C25735   6.518   8.840   9.473 -0.7692  0.5774 -0.2287
  932MOL0     N25736   7.303   8.872   9.500  0.7136 -0.2882 -1.0452
  932MOL0     N25737   7.356   8.958   9.419  0.4279 -0.4602  0.2719
  932MOL0     C25738   8.464   9.294   8.844  0.5248 -0.5545  0.6305
  932MOL0     C25739   8.584   9.356   8.808  0.6133  0.0811  0.4288
  932MOL0     C25740   8.823   9.676   8.542 -0.1289 -0.8247 -0.2821
  932MOL0     C25741   8.907   9.723   8.639  0.6735  0.1682 -0.7346
  932MOL0     C25742   9.020   9.803   8.606 -0.0693 -0.1273  0.3905
  932MOL0     C25743   9.060   9.816   8.471 -0.2159 -0.1083  0.0314
  932MOL0     O25744   9.180   9.880   8.455 -0.1251 -0.7607  0.5264
  932MOL0     C25745   9.219   9.894   8.317 -0.7474  0.6855 -0.3443
  932MOL0     C25746   9.369   9.911   8.309 -0.5082 -0.0550 -1.1219
  932MOL0     C25747   9.431  10.036   8.371  0.3759 -0.2860 -0.4199
  932MOL0     C25748   9.409  10.063   8.524  0.3223  0.5857  0.1919
  932MOL0     C25749   9.440   9.942   8.608 -0.8572  0.5529  0.1451
  932MOL0     C25750   9.468   9.830   8.666  0.2065 -0.3889 -0.8471
  932MOL0     C25751   8.963   9.778   8.373  0.3789  1.3446  0.2840
  932MOL0     C25752   8.860   9.702   8.404 -0.1330  0.8103 -0.4161
  932MOL0     H25753   8.434   9.642   8.680  0.2371  1.1666  2.3185
  932MOL0     H25754   8.232   9.508   8.742 -2.4416 -3.8290  0.4117
  932MOL0     H25755   8.265   9.084   8.899  1.2256 -0.1406  2.3991
  932MOL0     H25756   8.278   9.203   9.027  2.0173 -0.8047 -1.0314
  932MOL0     H25757   8.072   9.091   9.074 -2.0990 -2.7288 -2.5043
  932MOL0     H25758   8.033   9.251   9.014  0.1811 -0.4655 -0.8621
  932MOL0     H25759   8.002   9.146   8.794 -0.0208  0.9692  0.8763
  932MOL0     H25760   8.026   8.986   8.881 -1.5306 -1.7345  0.3925
  932MOL0     H25761   7.790   9.183   8.909 -1.6564 -0.3152 -0.6014
  932MOL0     H25762   7.783   9.032   8.829 -0.3361  0.7601 -0.6835
  932MOL0     H25763   7.847   8.914   9.046 -0.9592 -0.2893  0.7141
  932MOL0     H25764   7.845   9.064   9.126  1.9152 -0.6738 -1.1100
  932MOL0     H25765   7.591   9.093   9.032  0.3194  0.5422 -0.0348
  932MOL0     H25766   7.606   8.942   8.957 -1.9377  0.4536  0.4727
  932MOL0     H25767   7.591   8.832   9.170  1.3658 -0.0218 -3.9815
  932MOL0     H25768   7.635   8.987   9.254 -0.0566  0.9756 -0.9198
  932MOL0     H25769   7.387   8.920   9.094  2.2404  0.6149 -0.8658
  932MOL0     H25770   7.408   9.076   9.179  1.7467  0.5141 -3.6399
  932MOL0     H25771   7.287   8.706   9.233  1.2868 -3.0282  2.9827
  932MOL0     H25772   7.206   8.558   9.435 -1.8975  1.5139 -2.8656
  932MOL0     H25773   7.183   8.639   9.592 -0.8485  0.8607  0.5850
  932MOL0     H25774   6.969   8.571   9.461 -2.0773  1.1086 -2.3257
  932MOL0     H25775   7.011   8.681   9.335 -0.8405  1.4467 -0.0936
  932MOL0     H25776   6.999   8.869   9.501  0.3891 -0.8328 -1.4059
  932MOL0     H25777   6.974   8.757   9.638 -0.0778 -3.7829 -0.2211
  932MOL0     H25778   6.768   8.684   9.511 -0.5085 -0.9113 -2.1684
  932MOL0     H25779   6.776   8.808   9.400  1.0610 -3.0675 -0.1543
  932MOL0     H25780   6.600   9.022   9.739  1.7623 -0.1779 -1.3924
  932MOL0     H25781   6.431   9.160   9.802 -0.6133  2.5246 -4.6185
  932MOL0     H25782   6.284   9.148   9.726 -0.5716 -2.2413 -1.5204
  932MOL0     H25783   6.326   9.029   9.865  1.0314 -2.9080 -1.3689
  932MOL0     H25784   6.008   8.708   9.482 -0.0797  0.6585  4.0220
  932MOL0     H25785   5.776   8.637   9.454 -0.5376  0.2562 -4.5561
  932MOL0     H25786   5.497   8.817   9.254  0.1017  1.5697  1.1605
  932MOL0     H25787   5.546   8.664   9.336  1.6591  0.1835 -0.2427
  932MOL0     H25788   5.363   8.685   9.476 -0.4400 -0.9340 -1.2232
  932MOL0     H25789   5.301   8.830   9.372  2.1451  0.5735 -0.0113
  932MOL0     H25790   5.351   8.537   9.283 -1.2676  0.0903 -0.5036
  932MOL0     H25791   5.299   8.672   9.182  2.8415  0.0746 -1.6297
  932MOL0     H25792   5.117   8.498   9.319 -1.1882 -0.2616 -1.2852
  932MOL0     H25793   5.152   8.609   9.446 -0.5376 -1.3071 -0.2978
  932MOL0     H25794   5.022   8.643   9.171 -2.9366  1.9491  0.0462
  932MOL0     H25795   5.087   8.789   9.258  1.2085 -0.4509  1.0178
  932MOL0     H25796   4.902   8.582   9.384  0.8898  0.0680  0.6158
  932MOL0     H25797   4.975   8.722   9.465  0.5011 -0.7080  0.4757
  932MOL0     H25798   4.743   8.681   9.275  1.6347 -1.1277 -1.3618
  932MOL0     H25799   4.830   8.830   9.235  0.6836 -0.8576 -0.7696
  932MOL0     H25800   4.674   8.901   9.365  1.2076  1.7357  0.2320
  932MOL0     H25801   4.812   8.908   9.460  0.0477 -0.0067 -0.5551
  932MOL0     H25802   5.657   9.044   9.422 -0.0330  0.7136  0.4847
  932MOL0     H25803   5.914   9.104   9.402  1.2896 -0.4575  1.5558
  932MOL0     H25804   6.313   8.816   9.389 -0.7833 -0.5500  0.3141
  932MOL0     H25805   6.559   8.796   9.383  0.5890 -1.4318  1.2962
  932MOL0     H25806   8.470   9.201   8.899 -0.4204  0.6071  2.8502
  932MOL0     H25807   8.681   9.312   8.829  1.6301  0.6782 -2.4926
  932MOL0     H25808   8.885   9.690   8.740  1.6054  0.5813 -0.3958
  932MOL0     H25809   9.078   9.841   8.690 -0.9450  1.4778  0.2975
  932MOL0     H25810   9.199   9.799   8.267  1.2590 -0.3427  0.6986
  932MOL0     H25811   9.171   9.978   8.264 -2.0114 -0.1007 -0.4840
  932MOL0     H25812   9.400   9.910   8.204 -0.8690 -2.2925 -1.2635
  932MOL0     H25813   9.410   9.822   8.359 -1.5748 -1.5154 -2.7610
  932MOL0     H25814   9.398  10.120   8.309 -0.6132 -1.2801 -1.2870
  932MOL0     H25815   9.538  10.025   8.354  0.7111  1.3490  0.3828
  932MOL0     H25816   9.304  10.090   8.541  0.4788 -0.1694  2.8509
  932MOL0     H25817   9.466  10.146   8.565 -0.0366  1.1615 -0.4434
  932MOL0     H25818   9.481   9.738   8.719  1.8491 -0.5126 -1.4210
  932MOL0     H25819   8.980   9.778   8.266 -0.7862 -3.1181 -0.1027
  932MOL0     H25820   8.787   9.680   8.326 -1.7091  3.8320  0.0851
  933MOL0     O25821   6.745   4.643   3.411 -0.0993 -0.4622 -0.7753
  933MOL0     C25822   6.795   4.674   3.301  0.6527 -0.0739 -0.1779
  933MOL0     O25823   6.721   4.674   3.188  0.0744 -0.0114  0.1439
  933MOL0     C25824   6.586   4.675   3.196  0.9160  0.2047  0.5014
  933MOL0     C25825   6.511   4.790   3.194 -1.6638 -0.0614 -0.1243
  933MOL0     C25826   6.375   4.791   3.173  1.1284  0.5500  0.7247
  933MOL0     C25827   6.300   4.667   3.182 -0.4092 -0.3273  0.2115
  933MOL0     O25828   6.162   4.657   3.164  0.0374  0.0164  0.6171
  933MOL0     C25829   6.110   4.709   3.032  0.6940  0.5428  0.2535
  933MOL0     C25830   6.018   4.592   2.975 -0.3861  0.1380  0.2791
  933MOL0     C25831   5.940   4.640   2.851  0.3554  0.6479 -0.3265
  933MOL0     C25832   5.822   4.555   2.842 -0.6389 -0.2319 -0.8145
  933MOL0     C25833   5.711   4.632   2.926  0.4139  0.6715 -0.2414
  933MOL0     C25834   5.590   4.529   2.917  0.1825  0.5668  0.6273
  933MOL0     C25835   5.502   4.545   2.791  0.0156 -0.5330 -0.2496
  933MOL0     C25836   5.402   4.430   2.772 -0.5447  0.9227  0.0346
  933MOL0     N25837   5.327   4.416   2.644 -0.8716 -0.2162  0.2743
  933MOL0     C25838   5.366   4.455   2.517 -0.3728 -0.8661 -1.8375
  933MOL0     C25839   5.266   4.411   2.439  0.3242  0.3217  0.5491
  933MOL0     C25840   5.278   4.417   2.284 -0.0668  1.0143 -0.3464
  933MOL0     C25841   5.195   4.535   2.228 -0.3637 -0.2847 -0.2371
  933MOL0     C25842   5.045   4.502   2.229  0.4554 -0.1449 -0.2959
  933MOL0     C25843   4.951   4.625   2.217 -0.3027 -0.5516 -0.2835
  933MOL0     O25844   4.814   4.608   2.240 -0.0537  0.4916 -0.0132
  933MOL0     C25845   4.749   4.552   2.128  0.0681 -0.5581 -1.2755
  933MOL0     C25846   4.742   4.619   2.006 -0.3476  0.7329  0.3339
  933MOL0     C25847   4.683   4.553   1.900  0.9698 -1.1926  0.6869
  933MOL0     C25848   4.683   4.626   1.770 -0.1763  0.2166  0.0726
  933MOL0     C25849   4.626   4.425   1.911  0.2960  0.7319  0.2699
  933MOL0     C25850   4.556   4.359   1.791  0.2950  0.6808  0.0825
  933MOL0     O25851   4.470   4.439   1.708  0.9903 -0.0686 -0.5803
  933MOL0     C25852   4.438   4.412   1.580  0.1529 -0.4949  0.1257
  933MOL0     C25853   4.382   4.289   1.541 -0.2908 -0.2071  0.5834
  933MOL0     C25854   4.360   4.262   1.404 -0.1250  0.8668 -0.3347
  933MOL0     C25855   4.402   4.355   1.307  0.3502 -1.0004  0.6989
  933MOL0     O25856   4.380   4.342   1.175  0.0887  0.7499 -0.2282
  933MOL0     C25857   4.377   4.214   1.121  0.2214  0.4638  0.1113
  933MOL0     C25858   4.371   4.227   0.970 -0.6256  0.2343  0.1570
  933MOL0     C25859   4.519   4.273   0.923  0.7928  0.1841 -0.0439
  933MOL0     C25860   4.537   4.264   0.768  0.3614  0.7598 -0.0471
  933MOL0     C25861   4.684   4.255   0.723 -0.0872  0.7595  0.2166
  933MOL0     C25862   4.764   4.368   0.756 -0.2389  0.3905  0.2083
  933MOL0     C25863   4.855   4.417   0.640  0.3006  0.3183  0.5303
  933MOL0     C25864   4.959   4.314   0.605 -0.2485  0.2485 -0.4226
  933MOL0    Cl25865   5.050   4.304   0.758  0.4759 -0.1219 -0.0266
  933MOL0     C25866   4.434   4.484   1.350  0.6283 -0.5427 -0.1358
  933MOL0     C25867   4.456   4.514   1.483 -0.1396  0.0177  0.9669
  933MOL0     O25868   4.592   4.241   1.762 -0.2634 -0.4196  1.0015
  933MOL0     C25869   4.636   4.363   2.033 -0.6137 -0.2891  0.0372
  933MOL0     C25870   4.700   4.424   2.144 -0.6507 -0.6854 -1.0449
  933MOL0     N25871   5.173   4.355   2.519  0.5123  0.4414 -0.1646
  933MOL0     N25872   5.215   4.355   2.640  0.6991 -0.2379 -0.0033
  933MOL0     C25873   6.375   4.553   3.183 -1.2011  0.9577 -0.6981
  933MOL0     C25874   6.515   4.554   3.192  0.1256  0.0467 -0.7730
  933MOL0     C25875   6.929   4.724   3.296  0.6861 -0.3110 -0.3112
  933MOL0     C25876   6.983   4.772   3.170 -0.0746  0.7755 -0.4695
  933MOL0     C25877   7.118   4.819   3.174  0.9275  0.0150  0.8434
  933MOL0     C25878   7.189   4.829   3.289 -0.5884 -0.2685  0.0621
  933MOL0     O25879   7.313   4.889   3.292  0.3106 -0.2687  0.6120
  933MOL0     C25880   7.417   4.825   3.352 -0.0564  0.8229 -0.0850
  933MOL0     C25881   7.543   4.839   3.274 -0.5079  0.7228  0.1605
  933MOL0     C25882   7.515   4.763   3.138 -0.5943 -0.3647  0.3631
  933MOL0     C25883   7.639   4.772   3.048  0.0465  0.1960  0.0197
  933MOL0     C25884   7.757   4.697   3.094 -1.0678 -0.3019 -0.0094
  933MOL0     C25885   7.838   4.627   3.137  1.3496  1.6625 -0.6835
  933MOL0     C25886   7.137   4.786   3.414 -0.3430 -0.0394  0.1231
  933MOL0     C25887   7.008   4.731   3.416 -0.1180  0.4868 -0.6938
  933MOL0     H25888   6.550   4.889   3.176 -1.1150 -0.3628 -0.6024
  933MOL0     H25889   6.314   4.880   3.159 -2.0925 -1.7741 -1.1812
  933MOL0     H25890   6.044   4.794   3.054 -1.3352 -0.7389 -0.7060
  933MOL0     H25891   6.187   4.731   2.958  1.4313  3.6785  1.7791
  933MOL0     H25892   6.074   4.505   2.939 -2.7292 -0.8909 -1.1137
  933MOL0     H25893   5.956   4.559   3.058  2.4649 -0.7719  2.2070
  933MOL0     H25894   5.920   4.747   2.861  0.8490  0.7209 -0.0795
  933MOL0     H25895   5.999   4.625   2.761 -1.4369 -0.0783 -1.4367
  933MOL0     H25896   5.791   4.548   2.737 -1.2259  1.4076 -0.7784
  933MOL0     H25897   5.842   4.456   2.883  1.4189 -0.4012 -2.0890
  933MOL0     H25898   5.740   4.630   3.031  2.5657 -1.0999 -0.7875
  933MOL0     H25899   5.685   4.730   2.885  1.8071  0.1239 -2.6829
  933MOL0     H25900   5.627   4.427   2.934  3.6414  1.8365  1.4384
  933MOL0     H25901   5.516   4.539   2.997 -1.0186 -0.9718 -0.2332
  933MOL0     H25902   5.443   4.637   2.796 -0.4225 -0.8435  0.3695
  933MOL0     H25903   5.563   4.550   2.700 -0.9379  1.8152 -0.8299
  933MOL0     H25904   5.335   4.434   2.858 -0.3337 -2.2157  0.4535
  933MOL0     H25905   5.447   4.330   2.773 -2.3946  0.0459  1.5990
  933MOL0     H25906   5.461   4.495   2.483  0.3095  0.5190  1.3239
  933MOL0     H25907   5.383   4.441   2.266  0.7507 -0.7701  1.6112
  933MOL0     H25908   5.242   4.324   2.239 -0.8685  0.1772  1.8798
  933MOL0     H25909   5.222   4.561   2.125 -0.9714 -2.7588 -1.0865
  933MOL0     H25910   5.212   4.628   2.284 -2.8768  0.7681 -1.0620
  933MOL0     H25911   5.016   4.434   2.310  1.1106 -1.1898 -0.9152
  933MOL0     H25912   5.028   4.452   2.133  0.5005 -0.0404 -0.3588
  933MOL0     H25913   4.964   4.668   2.117 -1.0654 -4.2089 -2.1190
  933MOL0     H25914   4.983   4.699   2.291 -1.0476 -0.4958 -0.0077
  933MOL0     H25915   4.779   4.721   1.999 -2.1575  1.3286 -1.0652
  933MOL0     H25916   4.711   4.559   1.688  0.7265  1.4282 -0.6460
  933MOL0     H25917   4.584   4.659   1.737  0.7498  1.9602 -1.1651
  933MOL0     H25918   4.750   4.712   1.774  3.1187 -2.1629 -0.1611
  933MOL0     H25919   4.367   4.204   1.606  1.2127  0.3002  1.6516
  933MOL0     H25920   4.316   4.171   1.366  1.4125  1.4951 -4.0600
  933MOL0     H25921   4.459   4.144   1.140 -1.1011 -1.3282 -0.4792
  933MOL0     H25922   4.283   4.167   1.153 -1.6619  2.1988 -2.4001
  933MOL0     H25923   4.354   4.134   0.915 -2.0226  2.4881 -3.6006
  933MOL0     H25924   4.301   4.307   0.946 -0.3115  0.2995 -0.5749
  933MOL0     H25925   4.596   4.206   0.961  0.5934  1.7003  3.4649
  933MOL0     H25926   4.545   4.373   0.960  0.7943 -0.0720  0.6609
  933MOL0     H25927   4.491   4.170   0.736  1.0983  0.1541  0.5886
  933MOL0     H25928   4.490   4.348   0.716 -0.4706  1.0001  1.0639
  933MOL0     H25929   4.696   4.242   0.615  0.3023  3.2994 -0.1050
  933MOL0     H25930   4.722   4.163   0.768 -1.5963  0.5835  1.1773
  933MOL0     H25931   4.692   4.450   0.763 -0.2067  0.4261  0.1164
  933MOL0     H25932   4.802   4.360   0.858 -3.2462  1.2496  1.5040
  933MOL0     H25933   4.899   4.516   0.651 -2.5516  1.7522  0.0012
  933MOL0     H25934   4.804   4.429   0.544  1.2015 -0.1445 -0.0117
  933MOL0     H25935   5.020   4.343   0.519 -3.1702  1.2648 -2.3491
  933MOL0     H25936   4.912   4.217   0.587 -0.6343 -0.2190  2.6670
  933MOL0     H25937   4.459   4.566   1.283 -1.0094  2.6970  2.8888
  933MOL0     H25938   4.484   4.613   1.517  0.0349  0.4416 -0.3809
  933MOL0     H25939   4.599   4.262   2.046  1.6983 -1.6461 -2.7114
  933MOL0     H25940   4.706   4.368   2.236  0.4994 -1.6362 -1.6714
  933MOL0     H25941   6.329   4.455   3.191  4.6878 -2.2790 -1.1220
  933MOL0     H25942   6.569   4.460   3.187  0.0485 -0.0353 -0.0911
  933MOL0     H25943   6.923   4.782   3.080  1.0507 -0.2248 -1.3739
  933MOL0     H25944   7.154   4.849   3.077  0.1496 -1.6849 -0.0264
  933MOL0     H25945   7.428   4.870   3.451 -0.9046  0.3507  0.2417
  933MOL0     H25946   7.384   4.720   3.347  0.2535  0.7464 -0.5881
  933MOL0     H25947   7.633   4.794   3.316  0.7367 -0.0606 -2.9928
  933MOL0     H25948   7.572   4.942   3.251  3.2555 -0.5305 -1.6262
  933MOL0     H25949   7.436   4.818   3.086 -0.2531  0.7941  1.0255
  933MOL0     H25950   7.490   4.658   3.156  1.2703 -0.6000  1.9060
  933MOL0     H25951   7.678   4.874   3.039  2.0854 -0.6149 -1.1555
  933MOL0     H25952   7.608   4.746   2.946  0.2382 -1.6712  0.3991
  933MOL0     H25953   7.925   4.579   3.178 -0.5251  1.4322  3.5919
  933MOL0     H25954   7.190   4.815   3.504  0.5334  1.7753 -0.9186
  933MOL0     H25955   6.980   4.696   3.514  3.2369  1.8627  0.8991
  934MOL0     O25956  10.145   1.029   6.899 -0.0705 -0.1040 -0.5558
  934MOL0     C25957  10.195   0.971   6.802 -1.4103  0.2813 -0.2376
  934MOL0     O25958  10.174   0.998   6.666 -0.1634  0.1605 -0.3950
  934MOL0     C25959  10.074   1.084   6.619 -0.7452  0.3079  0.4804
  934MOL0     C25960  10.061   1.067   6.480  1.0667 -0.3775 -0.0250
  934MOL0     C25961   9.966   1.145   6.421  0.2435  0.2024 -0.3326
  934MOL0     C25962   9.884   1.238   6.486  0.7683 -0.5351 -0.1167
  934MOL0     O25963   9.796   1.313   6.414 -0.1743  0.1543 -0.4027
  934MOL0     C25964   9.759   1.443   6.465  0.0372 -0.1423 -0.0306
  934MOL0     C25965   9.727   1.536   6.351  0.3536 -0.5436  0.4510
  934MOL0     C25966   9.701   1.678   6.408  0.4537  0.0372  0.5872
  934MOL0     C25967   9.677   1.782   6.294 -0.4182 -0.9764  0.1217
  934MOL0     C25968   9.633   1.918   6.347 -0.7220  0.1896 -1.2033
  934MOL0     C25969   9.596   2.022   6.239  1.1493  0.1859 -0.3636
  934MOL0     C25970   9.723   2.051   6.159 -0.3029 -0.2404  0.2791
  934MOL0     C25971   9.711   2.179   6.080  0.5612 -1.4690 -0.0813
  934MOL0     N25972   9.835   2.215   6.009  0.5150  0.4102 -0.6203
  934MOL0     C25973   9.942   2.286   6.061 -0.0372 -0.5623  0.6993
  934MOL0     C25974  10.032   2.290   5.961 -0.6927 -0.7737  0.6734
  934MOL0     C25975  10.162   2.366   5.957  0.1044  0.3349 -0.5574
  934MOL0     C25976  10.284   2.284   6.014 -0.5676 -1.0604 -0.4083
  934MOL0     C25977  10.301   2.148   5.949  0.1461  0.0089 -0.1599
  934MOL0     C25978  10.357   2.145   5.805 -0.3517  0.9180  0.3213
  934MOL0     O25979  10.496   2.192   5.789  0.4653  0.6262  0.4399
  934MOL0     C25980  10.587   2.121   5.851 -0.8098 -0.6356  0.1710
  934MOL0     C25981  10.695   2.196   5.866 -0.4197 -0.4962 -0.1080
  934MOL0     C25982  10.816   2.150   5.920  0.3243  0.5246 -0.7437
  934MOL0     C25983  10.936   2.241   5.927 -0.8218  0.9944  0.4704
  934MOL0     C25984  10.819   2.017   5.957 -0.7596  0.5558  0.7993
  934MOL0     C25985  10.934   1.951   6.009  0.0435  0.0439 -0.1093
  934MOL0     O25986  10.952   1.821   5.948  0.9205 -0.3562  0.5769
  934MOL0     C25987  11.061   1.753   5.996 -0.1730  0.1574 -0.1294
  934MOL0     C25988  11.185   1.758   5.922  0.5712 -0.1985 -0.0207
  934MOL0     C25989  11.296   1.674   5.960  0.1964 -0.4001 -0.3004
  934MOL0     C25990  11.287   1.595   6.068  0.0775 -0.6328 -0.6108
  934MOL0     O25991  11.383   1.510   6.117 -0.8064 -0.0061 -0.0323
  934MOL0     C25992  11.489   1.471   6.024 -0.0091 -0.1528 -0.2172
  934MOL0     C25993  11.622   1.561   6.015  0.8053 -0.1732 -0.4843
  934MOL0     C25994  11.749   1.487   5.969  0.4158 -0.2040 -0.0417
  934MOL0     C25995  11.737   1.429   5.822 -0.1940 -1.1647 -0.5248
  934MOL0     C25996  11.861   1.351   5.773  0.1080  1.1398  0.3678
  934MOL0     C25997  11.994   1.430   5.812 -0.5513 -0.2380 -0.6200
  934MOL0     C25998  12.120   1.349   5.761 -0.1490  0.8781  0.5083
  934MOL0     C25999  12.236   1.376   5.847 -0.4638  0.3872 -0.0090
  934MOL0    Cl26000  12.371   1.260   5.817  0.3444 -0.0356 -0.0113
  934MOL0     C26001  11.170   1.592   6.147  0.4072  0.4035 -0.4892
  934MOL0     C26002  11.052   1.667   6.106 -0.0159  0.0682 -0.5397
  934MOL0     O26003  11.006   2.000   6.088 -0.4772  0.3481 -0.6312
  934MOL0     C26004  10.700   1.927   5.953 -0.9314 -0.3427  0.2174
  934MOL0     C26005  10.582   1.983   5.893  0.3391 -0.5200 -0.5397
  934MOL0     N26006   9.988   2.215   5.853  0.2233  0.2111  0.0860
  934MOL0     N26007   9.866   2.175   5.887  0.0110  0.3212  0.4047
  934MOL0     C26008   9.900   1.252   6.624  0.5878  0.0280  0.3575
  934MOL0     C26009  10.012   1.185   6.682 -0.8752  0.6573 -1.2983
  934MOL0     C26010  10.308   0.877   6.834  1.2554  0.1810 -0.0730
  934MOL0     C26011  10.343   0.854   6.970 -0.4991 -0.5023  0.0720
  934MOL0     C26012  10.437   0.745   7.000  0.4521 -0.1497 -0.0641
  934MOL0     C26013  10.499   0.672   6.906 -0.0397 -1.0666  0.7082
  934MOL0     O26014  10.587   0.575   6.941  0.4880  0.0800 -0.4760
  934MOL0     C26015  10.715   0.587   6.879  0.9578 -0.1929  0.3942
  934MOL0     C26016  10.808   0.539   6.993 -0.3728 -0.8303 -0.4637
  934MOL0     C26017  10.841   0.645   7.100 -0.4718 -0.1875  0.8177
  934MOL0     C26018  10.942   0.744   7.044  0.4913 -0.0520  0.3599
  934MOL0     C26019  11.072   0.673   7.024 -0.1858 -0.0025  0.7656
  934MOL0     C26020  11.189   0.643   7.023  0.2781  0.1179  1.1495
  934MOL0     C26021  10.483   0.715   6.769  0.8090  0.5630 -0.8330
  934MOL0     C26022  10.383   0.812   6.734  0.4057 -0.3502  0.4801
  934MOL0     H26023  10.122   0.989   6.435  2.7444  1.3882 -0.9742
  934MOL0     H26024   9.950   1.139   6.314 -2.2908 -0.9023  0.0309
  934MOL0     H26025   9.662   1.435   6.516  0.1731  0.8722  0.4238
  934MOL0     H26026   9.827   1.493   6.536 -2.5894  0.9979  1.8726
  934MOL0     H26027   9.811   1.549   6.281 -1.2042  1.4431 -1.1656
  934MOL0     H26028   9.643   1.514   6.285  1.9198  0.9494 -2.2461
  934MOL0     H26029   9.606   1.671   6.461 -0.3893 -0.4340 -0.9440
  934MOL0     H26030   9.777   1.707   6.481 -0.8421  2.7780  0.9693
  934MOL0     H26031   9.760   1.798   6.225  0.6344 -0.4731  1.4402
  934MOL0     H26032   9.600   1.726   6.242 -0.8386 -1.0145  0.7772
  934MOL0     H26033   9.566   1.905   6.433  0.3702  1.2672 -0.1421
  934MOL0     H26034   9.713   1.959   6.409 -3.8097  0.3022  3.1764
  934MOL0     H26035   9.518   1.978   6.176  0.1564 -1.8857  2.1350
  934MOL0     H26036   9.538   2.104   6.283  0.1542 -0.4703 -0.4097
  934MOL0     H26037   9.801   2.053   6.236 -0.8738 -0.5197  0.8755
  934MOL0     H26038   9.742   1.963   6.098 -2.6315 -2.1073  2.0372
  934MOL0     H26039   9.691   2.269   6.138  2.7905  0.4201 -1.9901
  934MOL0     H26040   9.623   2.174   6.015 -0.9985 -0.3897  1.8299
  934MOL0     H26041   9.939   2.347   6.150 -0.5224  1.2444 -0.5080
  934MOL0     H26042  10.188   2.396   5.856 -1.8811 -2.2329 -1.9634
  934MOL0     H26043  10.149   2.454   6.021 -1.7926 -0.7446  0.6372
  934MOL0     H26044  10.267   2.273   6.121  1.5828 -0.0921  0.0883
  934MOL0     H26045  10.380   2.335   6.003  0.9183 -3.8700 -1.6561
  934MOL0     H26046  10.203   2.100   5.943  0.1601  0.0853 -1.3411
  934MOL0     H26047  10.361   2.083   6.014 -1.9737 -1.2792  0.6009
  934MOL0     H26048  10.285   2.198   5.742 -0.9252 -1.6027 -1.3085
  934MOL0     H26049  10.351   2.045   5.761  2.0151  0.1294  1.6551
  934MOL0     H26050  10.691   2.298   5.831  0.0019 -0.3980  0.1183
  934MOL0     H26051  11.018   2.183   5.884 -1.9283  1.7087 -2.9093
  934MOL0     H26052  10.922   2.332   5.867  1.7843  0.3570 -1.3161
  934MOL0     H26053  10.960   2.271   6.030 -2.1127  0.0519  1.0663
  934MOL0     H26054  11.191   1.825   5.837 -1.2174 -1.0410 -0.8511
  934MOL0     H26055  11.388   1.678   5.902 -0.7347  2.2586 -1.7690
  934MOL0     H26056  11.513   1.371   6.061 -0.1850  0.0441  0.4451
  934MOL0     H26057  11.442   1.465   5.926  1.1023  0.3956 -0.8110
  934MOL0     H26058  11.604   1.642   5.943 -2.4385  0.7230  1.1388
  934MOL0     H26059  11.647   1.615   6.107 -1.7401  2.1135 -0.9895
  934MOL0     H26060  11.773   1.404   6.036 -3.0453 -1.3960 -0.0898
  934MOL0     H26061  11.830   1.560   5.973  1.4488 -1.3807  1.8656
  934MOL0     H26062  11.650   1.365   5.804  0.8618 -2.4428 -1.2329
  934MOL0     H26063  11.723   1.518   5.760  2.9915 -1.7281 -2.2320
  934MOL0     H26064  11.853   1.337   5.665  0.5064  1.0573  0.3464
  934MOL0     H26065  11.860   1.247   5.805 -1.2034  0.9215 -0.3199
  934MOL0     H26066  12.004   1.535   5.782 -0.6776  0.3173  1.1464
  934MOL0     H26067  11.998   1.442   5.921 -1.1535 -1.0287 -0.5011
  934MOL0     H26068  12.147   1.370   5.657  0.2611 -0.8004  0.2522
  934MOL0     H26069  12.096   1.243   5.778  0.9747  0.8721  2.2429
  934MOL0     H26070  12.204   1.363   5.951  0.7660  1.9399  0.5976
  934MOL0     H26071  12.269   1.478   5.826 -0.7933  0.4813 -0.0756
  934MOL0     H26072  11.169   1.518   6.227 -1.7953  0.2746 -0.5607
  934MOL0     H26073  10.959   1.655   6.160 -0.0697  0.7571 -0.4759
  934MOL0     H26074  10.716   1.829   5.996 -2.1354 -1.0201 -0.8094
  934MOL0     H26075  10.490   1.928   5.880 -1.5649  2.4302 -0.3744
  934MOL0     H26076   9.840   1.322   6.681 -0.8425 -1.7082  1.0724
  934MOL0     H26077  10.047   1.194   6.785 -3.4449 -1.9731 -0.0373
  934MOL0     H26078  10.300   0.908   7.053  1.7462 -0.0518  0.9962
  934MOL0     H26079  10.471   0.729   7.102 -2.2749  0.3540  1.0009
  934MOL0     H26080  10.730   0.518   6.796 -0.6274  1.5318 -1.4032
  934MOL0     H26081  10.739   0.690   6.854 -1.0697  1.1672  3.3770
  934MOL0     H26082  10.905   0.498   6.963 -0.4238 -2.2576  1.1696
  934MOL0     H26083  10.756   0.464   7.054 -0.0122 -0.6504  0.0760
  934MOL0     H26084  10.870   0.596   7.193  0.5133  0.8942  1.1070
  934MOL0     H26085  10.747   0.693   7.125 -1.1772 -1.2590  0.2860
  934MOL0     H26086  10.955   0.828   7.112  5.0652  0.1612 -0.4568
  934MOL0     H26087  10.902   0.794   6.955  1.1533 -0.9728 -0.4878
  934MOL0     H26088  11.289   0.603   7.022 -0.0474 -0.7089  1.1734
  934MOL0     H26089  10.549   0.669   6.696  0.6330  3.5551 -3.0527
  934MOL0     H26090  10.359   0.828   6.630 -2.0747  0.8598  1.1623
  935MOL0     O26091   2.182   9.161   5.766  1.0605  0.4635 -0.1837
  935MOL0     C26092   2.285   9.202   5.734 -0.2821 -1.2078 -0.1847
  935MOL0     O26093   2.313   9.338   5.743  0.2912  0.6099  0.7130
  935MOL0     C26094   2.221   9.424   5.805 -0.2350  0.4507  0.8266
  935MOL0     C26095   2.189   9.541   5.735 -0.2170 -0.7690  0.4111
  935MOL0     C26096   2.098   9.640   5.782  0.3794 -0.7969  0.0044
  935MOL0     C26097   2.050   9.619   5.907 -0.3591 -0.4483  0.4438
  935MOL0     O26098   1.979   9.719   5.964 -0.4676 -0.0234 -1.0221
  935MOL0     C26099   1.863   9.758   5.907  0.5230  0.0745  0.2757
  935MOL0     C26100   1.773   9.818   6.014 -1.3887 -0.4240 -0.4277
  935MOL0     C26101   1.670   9.906   5.943 -0.1949  0.4426  0.3001
  935MOL0     C26102   1.586   9.977   6.040  0.2088 -0.5177  0.2807
  935MOL0     C26103   1.488   9.895   6.122 -0.0433  0.3130  0.4124
  935MOL0     C26104   1.390   9.811   6.039  0.7354 -0.2199  0.2928
  935MOL0     C26105   1.301   9.746   6.139 -0.0551 -0.5546 -0.5889
  935MOL0     C26106   1.197   9.664   6.065  0.3217  1.0421  0.8668
  935MOL0     N26107   1.089   9.748   6.007  0.8510  0.2697 -0.4364
  935MOL0     C26108   1.012   9.836   6.078 -0.9856 -0.6163  0.3972
  935MOL0     C26109   0.916   9.887   5.992  0.4106 -0.6986  1.1537
  935MOL0     C26110   0.808   9.988   6.038  0.2211 -0.0591  0.2039
  935MOL0     C26111   0.676   9.938   6.080  0.0997  0.0436 -0.3740
  935MOL0     C26112   0.559  10.038   6.080  0.2884  0.4642  0.2847
  935MOL0     C26113   0.566  10.114   6.211 -0.2827  0.1969  0.6850
  935MOL0     O26114   0.463  10.220   6.203  0.0790  0.1015 -0.8373
  935MOL0     C26115   0.337  10.194   6.252 -0.4136 -0.0271  0.6566
  935MOL0     C26116   0.316  10.159   6.378 -0.2630  0.6235  0.5803
  935MOL0     C26117   0.199  10.122   6.425  0.6507  0.8125 -0.1741
  935MOL0     C26118   0.200  10.104   6.573  0.1350 -0.1382 -0.0562
  935MOL0     C26119   0.084  10.109   6.351 -1.0063 -0.8459 -0.4138
  935MOL0     C26120  -0.048  10.072   6.405 -0.4607  0.6237 -0.0624
  935MOL0     O26121  -0.071  10.031   6.536 -0.1055 -0.3519  0.1797
  935MOL0     C26122  -0.199  10.003   6.582 -0.0345  0.7343 -0.4414
  935MOL0     C26123  -0.215   9.884   6.648  0.7074 -0.5785  0.5875
  935MOL0     C26124  -0.345   9.828   6.675  0.1321 -0.4663 -0.7225
  935MOL0     C26125  -0.467   9.898   6.646 -0.0112  0.0397 -0.0814
  935MOL0     O26126  -0.593   9.848   6.665 -0.3133  0.0269 -0.3812
  935MOL0     C26127  -0.618   9.713   6.647  1.0230  0.2289  0.3225
  935MOL0     C26128  -0.631   9.673   6.498 -0.5346  0.2972 -0.3096
  935MOL0     C26129  -0.745   9.738   6.438 -0.0011 -0.5013 -0.1662
  935MOL0     C26130  -0.784   9.684   6.301 -0.2424  0.1141  0.5881
  935MOL0     C26131  -0.907   9.768   6.242 -0.3984 -0.7636 -0.3001
  935MOL0     C26132  -0.947   9.713   6.115  0.8487  0.9520 -0.3474
  935MOL0     C26133  -1.004   9.570   6.124  0.8344 -0.4840  0.0583
  935MOL0     C26134  -1.040   9.525   5.979  0.0473  0.1881 -0.4396
  935MOL0    Cl26135  -1.187   9.627   5.931  0.4565 -0.0377  0.1573
  935MOL0     C26136  -0.449  10.024   6.587 -0.4591  0.6125  0.0920
  935MOL0     C26137  -0.317  10.073   6.557  0.2711  0.0242 -0.6026
  935MOL0     O26138  -0.142  10.079   6.322 -0.2168  0.4116  0.1808
  935MOL0     C26139   0.096  10.167   6.224 -0.6148 -0.4158  0.5845
  935MOL0     C26140   0.222  10.211   6.172  0.2752 -0.6641  0.8679
  935MOL0     N26141   0.945   9.834   5.863 -0.0770  0.5230  0.2022
  935MOL0     N26142   1.041   9.750   5.876 -0.2246 -0.0107  0.3957
  935MOL0     C26143   2.076   9.507   5.979  0.3703 -0.3852 -0.1360
  935MOL0     C26144   2.164   9.419   5.928 -0.1508  0.7707 -0.4198
  935MOL0     C26145   2.394   9.118   5.698 -1.2043  0.0368 -0.0990
  935MOL0     C26146   2.385   8.977   5.672  0.8970  0.1693  1.0802
  935MOL0     C26147   2.503   8.900   5.656  0.0877  0.0694 -1.2337
  935MOL0     C26148   2.632   8.959   5.661  0.3445  0.0643 -0.6090
  935MOL0     O26149   2.754   8.883   5.649  0.0436 -0.6965  0.1062
  935MOL0     C26150   2.873   8.956   5.639 -0.3516  0.0787 -0.5145
  935MOL0     C26151   2.999   8.863   5.656  0.0486 -0.1882 -0.1330
  935MOL0     C26152   2.995   8.738   5.567  0.0300  0.1258  0.6437
  935MOL0     C26153   3.143   8.707   5.540 -0.5807  0.2915 -0.0051
  935MOL0     C26154   3.160   8.570   5.497 -0.1200 -0.6178  0.3811
  935MOL0     C26155   3.195   8.461   5.452  0.0717  0.9688  0.3350
  935MOL0     C26156   2.637   9.095   5.681 -0.1379  0.9745 -0.1346
  935MOL0     C26157   2.522   9.172   5.696  0.4065  0.3481 -0.2488
  935MOL0     H26158   2.211   9.553   5.630  3.1511  0.7661  1.1449
  935MOL0     H26159   2.068   9.724   5.719 -1.0881 -1.8117 -0.6957
  935MOL0     H26160   1.882   9.830   5.827 -1.6520 -1.1532 -1.4728
  935MOL0     H26161   1.818   9.674   5.853  3.6797 -0.5521 -1.6123
  935MOL0     H26162   1.722   9.737   6.067  0.7962 -1.1407  0.7034
  935MOL0     H26163   1.834   9.873   6.085 -0.2792 -2.9440  0.6804
  935MOL0     H26164   1.723   9.983   5.888  0.2451  0.6220  0.9690
  935MOL0     H26165   1.614   9.849   5.868 -0.8095  1.0939  0.2605
  935MOL0     H26166   1.656  10.024   6.109  4.7461 -1.1200 -3.4253
  935MOL0     H26167   1.523  10.049   5.987 -0.8802 -0.7718  1.1892
  935MOL0     H26168   1.542   9.829   6.191  0.1030 -1.5217 -1.3514
  935MOL0     H26169   1.424   9.966   6.176  0.6233  1.4652 -0.2792
  935MOL0     H26170   1.346   9.868   5.958 -1.3371  2.3508  3.0152
  935MOL0     H26171   1.447   9.732   5.990 -1.0882 -0.9993 -0.6623
  935MOL0     H26172   1.362   9.676   6.198 -3.1514 -2.7195  0.3258
  935MOL0     H26173   1.247   9.808   6.212  2.1504 -0.6058  1.2249
  935MOL0     H26174   1.157   9.596   6.141 -0.2198  0.4028  0.0373
  935MOL0     H26175   1.245   9.601   5.990 -0.1655  1.0936  0.5016
  935MOL0     H26176   1.027   9.854   6.184  3.6826 -0.6486 -0.0410
  935MOL0     H26177   0.860  10.049   6.112  1.4537  0.8669 -1.3647
  935MOL0     H26178   0.790  10.055   5.954  0.8790  0.2305  0.2858
  935MOL0     H26179   0.676   9.876   6.170 -0.5591 -1.5443 -1.4058
  935MOL0     H26180   0.656   9.874   5.992  3.7435  0.2538 -1.5254
  935MOL0     H26181   0.463   9.987   6.086 -0.4488  1.8860  1.0353
  935MOL0     H26182   0.558  10.095   5.986  1.5078 -3.6660 -2.5634
  935MOL0     H26183   0.658  10.164   6.243  1.7913 -1.5846 -2.0167
  935MOL0     H26184   0.552  10.036   6.286  1.5228 -2.0093 -1.1310
  935MOL0     H26185   0.397  10.161   6.451 -0.0588  1.5487  0.3377
  935MOL0     H26186   0.182  10.000   6.602  0.3525  0.7780  3.8560
  935MOL0     H26187   0.294  10.138   6.617  0.1185 -1.2274  0.8481
  935MOL0     H26188   0.123  10.167   6.619  0.1641  0.8625 -1.3254
  935MOL0     H26189  -0.126   9.821   6.643  1.2882  0.3060 -0.7633
  935MOL0     H26190  -0.371   9.739   6.731 -1.4631  1.3912  1.7177
  935MOL0     H26191  -0.537   9.650   6.684  0.3970  0.7063  2.6960
  935MOL0     H26192  -0.714   9.695   6.696  0.1749 -2.9608 -2.1881
  935MOL0     H26193  -0.535   9.694   6.451 -0.3431  1.1190  0.4341
  935MOL0     H26194  -0.637   9.563   6.502  1.7759  0.1621  1.4588
  935MOL0     H26195  -0.730   9.845   6.421  1.0808 -0.7425 -0.8289
  935MOL0     H26196  -0.834   9.730   6.501 -0.0026  3.3041  0.5341
  935MOL0     H26197  -0.696   9.698   6.237 -2.3497  1.4933 -2.2268
  935MOL0     H26198  -0.811   9.580   6.320  0.0356  0.1126  1.0119
  935MOL0     H26199  -0.896   9.876   6.231 -0.8347 -0.5840  0.8924
  935MOL0     H26200  -0.992   9.754   6.309 -0.9285  0.8155 -0.5863
  935MOL0     H26201  -1.024   9.767   6.060 -0.5588  0.2427  0.8447
  935MOL0     H26202  -0.858   9.713   6.051  0.7692 -0.5373 -0.5002
  935MOL0     H26203  -1.099   9.580   6.177 -0.7144  3.7218 -2.9342
  935MOL0     H26204  -0.939   9.497   6.173  0.9465  0.3002  1.1207
  935MOL0     H26205  -1.073   9.421   5.989  0.6784 -0.0948 -1.2286
  935MOL0     H26206  -0.956   9.531   5.910 -0.8419  0.2564 -1.5362
  935MOL0     H26207  -0.539  10.077   6.558  0.6455  1.5212 -1.8644
  935MOL0     H26208  -0.329  10.166   6.503 -2.1653  0.1434  0.0403
  935MOL0     H26209   0.021  10.146   6.149 -0.2178 -0.1787  0.1104
  935MOL0     H26210   0.231  10.239   6.068 -3.2669 -0.4303  0.5234
  935MOL0     H26211   2.031   9.495   6.077  0.4582 -0.6276 -0.1242
  935MOL0     H26212   2.177   9.326   5.982 -2.9330 -1.0437 -2.5879
  935MOL0     H26213   2.293   8.920   5.666  1.7288 -1.2886  1.6368
  935MOL0     H26214   2.495   8.792   5.649 -0.8512  0.1311 -1.2180
  935MOL0     H26215   2.878   8.993   5.536  0.9373 -2.1399 -1.3141
  935MOL0     H26216   2.889   9.035   5.713  0.4362 -0.5837  0.0469
  935MOL0     H26217   3.013   8.829   5.759 -3.6476 -1.6250  0.0301
  935MOL0     H26218   3.087   8.927   5.646 -0.1425 -0.3133 -4.0137
  935MOL0     H26219   2.947   8.738   5.469  2.5437  0.2792 -0.6566
  935MOL0     H26220   2.940   8.658   5.619 -1.9819  0.3224 -1.0595
  935MOL0     H26221   3.194   8.727   5.635  0.5907  0.6645 -0.6818
  935MOL0     H26222   3.187   8.784   5.476 -0.8341  2.3938  2.2129
  935MOL0     H26223   3.225   8.361   5.428 -4.1403 -0.5207  0.4072
  935MOL0     H26224   2.729   9.153   5.689  2.7110 -3.0891 -0.1480
  935MOL0     H26225   2.544   9.278   5.707 -3.6432  1.4042 -0.6058
  936MOL0     O26226  10.287   8.413   8.258 -0.9215  0.3405 -0.2463
  936MOL0     C26227  10.193   8.485   8.245 -0.2671 -0.4361  0.3685
  936MOL0     O26228  10.100   8.513   8.339  0.1546 -0.1407 -0.2698
  936MOL0     C26229  10.104   8.453   8.458  0.7436  0.0438  0.4945
  936MOL0     C26230  10.166   8.515   8.568 -0.0721  0.1535 -0.3103
  936MOL0     C26231  10.178   8.445   8.694  0.5057 -0.0294  0.2097
  936MOL0     C26232  10.121   8.321   8.707  0.3990 -0.1217  0.5943
  936MOL0     O26233  10.125   8.274   8.837 -0.2203  0.0874  0.0897
  936MOL0     C26234  10.056   8.152   8.867  0.3317  0.1496 -0.8011
  936MOL0     C26235  10.158   8.039   8.837  0.5317  0.3097 -0.0243
  936MOL0     C26236  10.117   7.897   8.877  0.4795 -0.0618  0.4178
  936MOL0     C26237  10.217   7.793   8.827  0.3239  0.4439 -1.0083
  936MOL0     C26238  10.146   7.650   8.812  0.1737  0.2568  0.0163
  936MOL0     C26239  10.233   7.562   8.728 -0.0704  0.0963 -0.3215
  936MOL0     C26240  10.198   7.416   8.754 -0.0935  0.0216 -0.1356
  936MOL0     C26241  10.273   7.320   8.660  0.3978  0.3804  0.8108
  936MOL0     N26242  10.225   7.182   8.671  0.7619  0.3492 -0.2292
  936MOL0     C26243  10.207   7.107   8.789 -0.2004  0.0406 -0.1475
  936MOL0     C26244  10.162   6.990   8.752 -0.0322 -0.1889 -0.4709
  936MOL0     C26245  10.109   6.875   8.833 -0.0031  0.4995 -0.0003
  936MOL0     C26246  10.010   6.905   8.938  0.8050  0.0491 -0.3830
  936MOL0     C26247   9.944   6.777   8.988  0.1392  0.2320 -0.3344
  936MOL0     C26248   9.831   6.728   8.897  0.0116  0.0568 -0.7068
  936MOL0     O26249   9.782   6.599   8.957 -0.2644  0.1116 -0.3192
  936MOL0     C26250   9.694   6.526   8.885 -0.3045 -0.8113  0.2404
  936MOL0     C26251   9.611   6.436   8.954  0.5317 -0.6627 -0.3114
  936MOL0     C26252   9.510   6.359   8.894 -1.1559 -0.1313 -0.4805
  936MOL0     C26253   9.422   6.287   8.994 -0.2180 -0.9346 -0.7489
  936MOL0     C26254   9.480   6.383   8.762 -0.2148  0.0405  0.2654
  936MOL0     C26255   9.359   6.323   8.696  0.0797  0.9796  0.5175
  936MOL0     O26256   9.360   6.307   8.561 -0.0658  0.3357  0.2225
  936MOL0     C26257   9.235   6.282   8.507 -0.0334 -0.4157  0.1524
  936MOL0     C26258   9.168   6.389   8.452 -0.5424  1.3392  0.1446
  936MOL0     C26259   9.044   6.360   8.391 -0.1120  0.0518 -0.6366
  936MOL0     C26260   8.995   6.228   8.382  0.4399  0.4657 -0.1550
  936MOL0     O26261   8.867   6.219   8.339  0.0531 -0.0060  1.0229
  936MOL0     C26262   8.802   6.094   8.361 -0.7628 -0.0692 -0.1832
  936MOL0     C26263   8.652   6.096   8.321  0.4893 -0.2521  0.1633
  936MOL0     C26264   8.572   6.183   8.417 -0.5523 -0.5194 -0.0705
  936MOL0     C26265   8.439   6.207   8.350  0.3587 -0.4422  0.2202
  936MOL0     C26266   8.365   6.320   8.420  0.2795  0.4082  0.2865
  936MOL0     C26267   8.322   6.291   8.568  0.2076  0.0924 -0.5912
  936MOL0     C26268   8.238   6.409   8.625 -0.4967  0.7686  0.4536
  936MOL0     C26269   8.293   6.544   8.626  0.8856 -0.0936  0.1922
  936MOL0    Cl26270   8.192   6.653   8.723  0.0399  0.4967  0.0531
  936MOL0     C26271   9.069   6.123   8.428  1.0254 -0.3853  0.1296
  936MOL0     C26272   9.188   6.146   8.491 -0.2184  0.0431  0.8697
  936MOL0     O26273   9.266   6.290   8.771  0.6651 -0.4723 -0.3362
  936MOL0     C26274   9.561   6.473   8.689  0.3334  0.1254 -0.0256
  936MOL0     C26275   9.662   6.551   8.751  0.6481  0.7777 -0.1613
  936MOL0     N26276  10.156   6.987   8.618 -0.1634  0.2637  1.3120
  936MOL0     N26277  10.207   7.092   8.566 -0.1791 -0.3438 -0.1682
  936MOL0     C26278  10.064   8.255   8.598  0.3337  0.8960  0.2905
  936MOL0     C26279  10.058   8.320   8.473 -0.1968  0.6977 -0.0201
  936MOL0     C26280  10.185   8.572   8.121 -0.0827  0.3403  0.2376
  936MOL0     C26281  10.260   8.551   8.006  0.0865 -0.3007 -0.5835
  936MOL0     C26282  10.250   8.625   7.891 -0.3622  0.2103 -0.8058
  936MOL0     C26283  10.163   8.736   7.892 -0.1381  0.9401  0.7942
  936MOL0     O26284  10.135   8.813   7.782 -0.3479  0.1965 -0.5543
  936MOL0     C26285  10.211   8.801   7.655 -0.8309 -0.5643  1.0637
  936MOL0     C26286  10.356   8.856   7.668  0.4690 -0.5299  0.2114
  936MOL0     C26287  10.430   8.893   7.529 -0.0406 -0.1414  0.4047
  936MOL0     C26288  10.415   9.041   7.498  0.4505  0.4229 -0.0656
  936MOL0     C26289  10.465   9.073   7.368  0.5700  0.0209 -0.2293
  936MOL0     C26290  10.486   9.111   7.259 -0.3910  0.0878 -0.1074
  936MOL0     C26291  10.102   8.766   8.009 -0.6724  0.0346 -0.0879
  936MOL0     C26292  10.116   8.688   8.126  0.0255  0.2331  1.2259
  936MOL0     H26293  10.196   8.618   8.550  1.4321 -0.1520  0.2844
  936MOL0     H26294  10.227   8.490   8.780  0.9197 -0.6877  0.3238
  936MOL0     H26295  10.021   8.148   8.970 -2.8706 -0.2982 -1.7925
  936MOL0     H26296   9.963   8.151   8.809  0.2079  0.6434 -0.6122
  936MOL0     H26297  10.168   8.040   8.728 -1.7890 -3.0038 -0.4113
  936MOL0     H26298  10.248   8.068   8.892  1.9414 -0.8408 -1.6255
  936MOL0     H26299  10.104   7.894   8.986 -0.3839  0.5764  0.3434
  936MOL0     H26300  10.018   7.874   8.837  1.4905 -1.4714 -1.3925
  936MOL0     H26301  10.266   7.827   8.736  1.0798  1.2292 -0.3162
  936MOL0     H26302  10.306   7.781   8.888 -1.4231  3.3077  2.4582
  936MOL0     H26303  10.137   7.617   8.917  5.2407  1.3396  1.0473
  936MOL0     H26304  10.054   7.669   8.756  1.3709  1.4203 -1.6157
  936MOL0     H26305  10.217   7.594   8.625  2.3117  2.5383 -0.0579
  936MOL0     H26306  10.340   7.577   8.748  0.3662 -1.0803 -1.6238
  936MOL0     H26307  10.232   7.385   8.853  1.4356 -0.9106 -0.9210
  936MOL0     H26308  10.089   7.407   8.758 -0.3027  2.2699  1.0361
  936MOL0     H26309  10.380   7.320   8.683  0.4442  0.3975  0.5979
  936MOL0     H26310  10.280   7.350   8.555 -0.3678  0.1190  0.6778
  936MOL0     H26311  10.237   7.140   8.888  2.0322 -2.3050  0.0833
  936MOL0     H26312  10.066   6.806   8.761  0.0377  0.0454  0.4002
  936MOL0     H26313  10.189   6.816   8.880 -1.7501 -2.8200 -0.9503
  936MOL0     H26314   9.924   6.959   8.899 -2.0448 -2.1373  2.3867
  936MOL0     H26315  10.064   6.951   9.022  0.6024 -0.1769 -0.1296
  936MOL0     H26316   9.901   6.800   9.085  2.2090 -3.0546  1.5325
  936MOL0     H26317  10.009   6.690   8.997 -2.1423 -1.4837  0.4946
  936MOL0     H26318   9.880   6.712   8.801 -1.3460  0.4820 -1.4888
  936MOL0     H26319   9.759   6.809   8.888  0.2807  0.6923  1.9551
  936MOL0     H26320   9.634   6.430   9.060 -0.5227 -1.3662 -0.1019
  936MOL0     H26321   9.393   6.186   8.966 -1.0485 -1.0425  0.4481
  936MOL0     H26322   9.465   6.279   9.094 -1.6381  0.5961  0.0327
  936MOL0     H26323   9.329   6.343   9.007  0.3410  0.1220 -1.1597
  936MOL0     H26324   9.202   6.491   8.466 -2.5932  1.7878  2.6280
  936MOL0     H26325   8.978   6.438   8.352 -0.6045 -0.4480 -0.8149
  936MOL0     H26326   8.857   6.021   8.302 -0.7210  0.0645 -0.3085
  936MOL0     H26327   8.810   6.073   8.468  0.0215  1.6041  0.1248
  936MOL0     H26328   8.664   6.136   8.219 -0.5382  0.9170  0.4741
  936MOL0     H26329   8.613   5.994   8.322  0.5037 -0.3217 -1.8853
  936MOL0     H26330   8.630   6.276   8.425  1.7544 -1.6535 -2.2479
  936MOL0     H26331   8.550   6.137   8.514 -2.3541  1.3035  0.4691
  936MOL0     H26332   8.440   6.245   8.247 -2.0812  0.6347  0.5236
  936MOL0     H26333   8.370   6.122   8.358  0.1615 -0.1224  4.1175
  936MOL0     H26334   8.271   6.349   8.371  0.0873 -1.9341 -0.8719
  936MOL0     H26335   8.429   6.408   8.416 -1.9890  2.1312 -2.0966
  936MOL0     H26336   8.277   6.192   8.581  0.6247 -0.3063 -1.9757
  936MOL0     H26337   8.414   6.291   8.628  0.0543  0.3999 -0.3562
  936MOL0     H26338   8.224   6.366   8.725  1.0839 -1.0307 -0.0150
  936MOL0     H26339   8.145   6.411   8.568 -0.1367 -1.6169 -0.3664
  936MOL0     H26340   8.286   6.583   8.524 -2.8748  1.8276  0.9808
  936MOL0     H26341   8.399   6.537   8.653  1.3817  2.1533 -0.8758
  936MOL0     H26342   9.041   6.019   8.424  0.8149 -0.2888 -2.0047
  936MOL0     H26343   9.255   6.069   8.529 -0.8345  0.0598  2.0433
  936MOL0     H26344   9.539   6.492   8.584 -0.8792 -0.8342  0.0305
  936MOL0     H26345   9.728   6.613   8.693  2.1660 -1.2081 -0.6781
  936MOL0     H26346  10.023   8.155   8.586  2.4696 -0.0157  0.2661
  936MOL0     H26347  10.011   8.282   8.383  2.3945  0.1698 -1.2468
  936MOL0     H26348  10.329   8.467   7.997  1.2981  0.8321 -2.5789
  936MOL0     H26349  10.306   8.610   7.799  0.6997 -0.2701 -0.1006
  936MOL0     H26350  10.226   8.700   7.615 -0.5281  0.3731 -1.3324
  936MOL0     H26351  10.148   8.862   7.590  0.4987 -1.9763 -1.7110
  936MOL0     H26352  10.424   8.777   7.701  2.3753  0.7268 -0.5323
  936MOL0     H26353  10.356   8.935   7.743  0.5509 -1.3382  1.0755
  936MOL0     H26354  10.379   8.839   7.448  1.3139  0.0429 -0.5953
  936MOL0     H26355  10.534   8.860   7.523 -0.1209 -0.3798  0.2755
  936MOL0     H26356  10.460   9.104   7.576 -0.7863  1.1448  0.0812
  936MOL0     H26357  10.308   9.062   7.499  0.3938  0.1398 -0.2114
  936MOL0     H26358  10.505   9.155   7.164  1.3413 -0.2370  0.0608
  936MOL0     H26359  10.050   8.859   8.026 -3.2564 -0.8364 -2.5097
  936MOL0     H26360  10.065   8.714   8.218 -0.3018 -3.5058  2.2742
  937MOL0     O26361   4.327   8.525   1.274  0.3304 -0.6560 -0.0800
  937MOL0     C26362   4.434   8.580   1.306 -0.7624 -0.4691  0.5946
  937MOL0     O26363   4.453   8.694   1.382 -0.0476 -0.1626 -0.3994
  937MOL0     C26364   4.355   8.741   1.468  0.6374 -1.0749  0.4570
  937MOL0     C26365   4.409   8.778   1.590  0.1527 -0.4163  0.4280
  937MOL0     C26366   4.322   8.839   1.683 -0.1924 -0.4758 -0.4936
  937MOL0     C26367   4.187   8.854   1.663  0.2169  0.5126  0.0591
  937MOL0     O26368   4.111   8.924   1.753  0.5448  0.5043 -0.2193
  937MOL0     C26369   3.972   8.891   1.758 -0.3025  0.8506  0.2797
  937MOL0     C26370   3.905   9.007   1.825  0.6147  0.5374  0.4468
  937MOL0     C26371   3.752   8.992   1.835  0.0330 -0.2649  0.5597
  937MOL0     C26372   3.686   9.106   1.911  0.2682  0.0954  0.1919
  937MOL0     C26373   3.528   9.094   1.905 -0.3834  0.9421  0.5787
  937MOL0     C26374   3.467   9.108   1.764  0.0089 -0.7438  0.0143
  937MOL0     C26375   3.314   9.133   1.769 -0.0547  0.3578 -0.2905
  937MOL0     C26376   3.278   9.279   1.765  0.6186 -0.4411 -0.8975
  937MOL0     N26377   3.139   9.277   1.794 -0.3485  0.7291 -0.5287
  937MOL0     C26378   3.075   9.303   1.920 -0.8305  0.1708 -0.3575
  937MOL0     C26379   2.945   9.292   1.888 -0.2698 -0.5810  0.0019
  937MOL0     C26380   2.830   9.299   1.984  0.7029 -0.4776 -0.1699
  937MOL0     C26381   2.779   9.443   2.000 -0.3555 -0.0696  0.0195
  937MOL0     C26382   2.627   9.466   2.013  0.5064  0.2344 -0.7182
  937MOL0     C26383   2.553   9.447   1.881  0.1535  0.1634  0.0010
  937MOL0     O26384   2.529   9.305   1.860 -0.7048 -0.3164 -0.5881
  937MOL0     C26385   2.417   9.248   1.916  0.4603 -0.8603 -0.8833
  937MOL0     C26386   2.340   9.300   2.030  0.4960 -0.0121  1.2113
  937MOL0     C26387   2.242   9.223   2.100  0.5769  0.3713 -0.1917
  937MOL0     C26388   2.175   9.293   2.213 -0.6014 -0.1862 -0.5615
  937MOL0     C26389   2.213   9.088   2.056 -0.3437  0.0767 -0.5868
  937MOL0     C26390   2.105   8.989   2.101  0.3309 -1.0520  0.6218
  937MOL0     O26391   1.991   9.037   2.162  0.1607 -0.9596 -0.1601
  937MOL0     C26392   1.891   8.945   2.185 -0.0252 -0.2451  0.3336
  937MOL0     C26393   1.812   8.967   2.302 -0.2957  0.0097  0.1889
  937MOL0     C26394   1.697   8.888   2.333  0.4258  0.2693  0.0250
  937MOL0     C26395   1.659   8.782   2.247  0.5301 -0.8238  0.3222
  937MOL0     O26396   1.553   8.702   2.286  0.0405  0.1319  0.1476
  937MOL0     C26397   1.460   8.672   2.175  0.1362  0.3610  0.0215
  937MOL0     C26398   1.338   8.595   2.231  0.5269  0.4264 -0.3582
  937MOL0     C26399   1.238   8.571   2.114 -0.3389 -0.1191  0.2377
  937MOL0     C26400   1.141   8.460   2.143 -0.3040  0.0676 -0.6808
  937MOL0     C26401   1.053   8.475   2.267  0.2337  0.2377  0.3529
  937MOL0     C26402   0.953   8.361   2.291  0.1829 -0.4010 -0.4076
  937MOL0     C26403   0.830   8.412   2.371  0.2708 -0.1286  0.0189
  937MOL0     C26404   0.738   8.294   2.403  0.4273  1.5386  0.0808
  937MOL0    Cl26405   0.688   8.208   2.250 -0.1543 -0.1437  0.1264
  937MOL0     C26406   1.736   8.771   2.129  0.3237  0.2218  0.0402
  937MOL0     C26407   1.855   8.850   2.099  0.3159  0.5036  0.2023
  937MOL0     O26408   2.142   8.867   2.090 -0.7699  0.0072 -0.3671
  937MOL0     C26409   2.297   9.035   1.948 -0.0471 -0.7882  0.2349
  937MOL0     C26410   2.397   9.115   1.882  0.0577  1.3507 -0.0145
  937MOL0     N26411   2.936   9.264   1.748 -0.1723  0.7685 -0.0312
  937MOL0     N26412   3.046   9.248   1.697 -0.8894  0.0845 -0.0684
  937MOL0     C26413   4.133   8.811   1.535  0.3412  0.1560 -1.2488
  937MOL0     C26414   4.220   8.766   1.437  0.2619  0.7506  0.3762
  937MOL0     C26415   4.561   8.522   1.259 -0.6079  0.4333  0.4488
  937MOL0     C26416   4.684   8.568   1.313 -0.5623 -0.7949  0.9033
  937MOL0     C26417   4.802   8.493   1.280  0.7703  0.1316  0.8735
  937MOL0     C26418   4.804   8.389   1.194  0.3798  0.1092 -0.8463
  937MOL0     O26419   4.929   8.346   1.172  0.0375 -0.0926  0.3621
  937MOL0     C26420   4.944   8.228   1.077  0.0950 -0.5580 -0.6574
  937MOL0     C26421   5.092   8.206   1.051 -0.8234  0.2038 -0.5216
  937MOL0     C26422   5.177   8.158   1.170 -0.4493  0.2736 -0.7224
  937MOL0     C26423   5.307   8.094   1.112 -0.0270 -0.5140 -0.8317
  937MOL0     C26424   5.416   8.087   1.212  0.5046 -0.3972  0.4166
  937MOL0     C26425   5.502   8.050   1.285 -0.3362  0.0550  0.2867
  937MOL0     C26426   4.680   8.336   1.147 -0.0058 -0.4698 -0.0367
  937MOL0     C26427   4.563   8.397   1.178  0.3374 -0.1517  0.1791
  937MOL0     H26428   4.513   8.759   1.613  0.1871  0.5044  1.0870
  937MOL0     H26429   4.360   8.877   1.777 -1.0154 -0.6192 -0.0885
  937MOL0     H26430   3.932   8.876   1.658  3.5189  1.4740 -1.5391
  937MOL0     H26431   3.954   8.805   1.823 -1.1795 -0.9458 -2.2152
  937MOL0     H26432   3.935   9.003   1.930  2.2638 -1.1089 -0.0358
  937MOL0     H26433   3.940   9.105   1.792  2.5326 -0.6302 -1.2105
  937MOL0     H26434   3.710   8.990   1.734 -0.6286  0.3155  0.8103
  937MOL0     H26435   3.738   8.898   1.889 -0.0151 -1.4260 -1.3996
  937MOL0     H26436   3.712   9.122   2.015 -2.0195  3.4851  0.3992
  937MOL0     H26437   3.707   9.206   1.871 -1.3252  1.1848  1.8941
  937MOL0     H26438   3.501   8.993   1.939 -1.1351  0.6392 -0.8441
  937MOL0     H26439   3.500   9.181   1.965  1.1975  0.7553  1.6722
  937MOL0     H26440   3.507   9.191   1.704  0.8397 -2.8037 -2.4994
  937MOL0     H26441   3.485   9.010   1.720 -1.7845 -1.0744 -0.0695
  937MOL0     H26442   3.271   9.085   1.681  0.2148 -2.2544  0.9173
  937MOL0     H26443   3.280   9.077   1.857 -1.1437  0.4711 -0.6244
  937MOL0     H26444   3.300   9.316   1.664 -3.3798  0.0984 -1.7484
  937MOL0     H26445   3.331   9.337   1.841 -0.0972  0.2598 -0.9119
  937MOL0     H26446   3.120   9.336   2.013  1.6025  1.5827 -1.9176
  937MOL0     H26447   2.743   9.249   1.941  0.0080  1.4214 -1.0757
  937MOL0     H26448   2.870   9.253   2.075  2.9679  0.4925 -0.5988
  937MOL0     H26449   2.812   9.508   1.917  0.5158 -0.6872 -0.1347
  937MOL0     H26450   2.829   9.484   2.088  2.2326 -0.4280 -1.1632
  937MOL0     H26451   2.617   9.570   2.045 -2.9486  0.2444 -1.3934
  937MOL0     H26452   2.600   9.399   2.096  2.1431 -1.9815 -1.8577
  937MOL0     H26453   2.609   9.498   1.802  1.4766  2.4214  2.2248
  937MOL0     H26454   2.455   9.495   1.889 -0.3475 -0.9381  0.6215
  937MOL0     H26455   2.361   9.402   2.059  1.9015  0.2709 -0.6000
  937MOL0     H26456   2.256   9.334   2.273 -0.6803  5.0813 -3.4278
  937MOL0     H26457   2.119   9.377   2.171  1.2152  0.9731 -0.7307
  937MOL0     H26458   2.107   9.228   2.270  0.1916 -0.3819  0.1681
  937MOL0     H26459   1.842   9.043   2.373  1.8358  0.6525 -1.3251
  937MOL0     H26460   1.662   8.893   2.436 -0.4430 -1.5501 -0.1246
  937MOL0     H26461   1.428   8.759   2.116 -2.4788  0.4573  1.4479
  937MOL0     H26462   1.501   8.603   2.101 -3.6721  0.4465 -2.4528
  937MOL0     H26463   1.377   8.505   2.280 -1.4080 -0.3857 -0.2564
  937MOL0     H26464   1.286   8.661   2.300  1.0809  1.9115 -1.3079
  937MOL0     H26465   1.296   8.547   2.024 -1.8450 -0.7314 -0.6156
  937MOL0     H26466   1.181   8.662   2.092  1.8932  1.0632 -1.0145
  937MOL0     H26467   1.091   8.436   2.048  1.5811  1.1373 -2.0205
  937MOL0     H26468   1.202   8.372   2.164 -0.0651  0.6381  1.1498
  937MOL0     H26469   1.006   8.573   2.258 -0.3321  0.0374  1.0645
  937MOL0     H26470   1.116   8.474   2.357  1.6364  0.5241 -0.5811
  937MOL0     H26471   0.932   8.319   2.192  0.8644  1.4137 -1.3659
  937MOL0     H26472   1.010   8.287   2.347  4.0385  0.9956 -2.1414
  937MOL0     H26473   0.776   8.479   2.303 -1.0551 -3.3378 -2.3571
  937MOL0     H26474   0.853   8.478   2.455  1.4959 -1.2504  0.5967
  937MOL0     H26475   0.651   8.330   2.458 -4.5400 -1.7424 -4.6103
  937MOL0     H26476   0.782   8.211   2.459  1.7128  0.4647 -2.4049
  937MOL0     H26477   1.713   8.689   2.063 -0.5145  1.4529 -1.2592
  937MOL0     H26478   1.904   8.825   2.005  0.9607  0.2503  0.6023
  937MOL0     H26479   2.281   8.937   1.904  2.9056 -0.1493 -2.6498
  937MOL0     H26480   2.459   9.069   1.806  0.9223 -0.3532  1.6477
  937MOL0     H26481   4.031   8.835   1.505  0.9306  0.2306 -3.3816
  937MOL0     H26482   4.183   8.748   1.336 -0.7445  1.1604  0.6593
  937MOL0     H26483   4.701   8.648   1.385 -0.0811 -1.4083  1.4836
  937MOL0     H26484   4.898   8.526   1.316  2.0680 -1.6443 -0.7660
  937MOL0     H26485   4.885   8.144   1.114 -1.4963  1.3453  1.3599
  937MOL0     H26486   4.900   8.252   0.980  0.3992 -0.3538 -0.7499
  937MOL0     H26487   5.137   8.304   1.032 -0.2863  0.3246  1.1894
  937MOL0     H26488   5.098   8.140   0.965 -1.1548  1.4009 -1.4987
  937MOL0     H26489   5.127   8.086   1.235 -0.2256  1.3040  0.6342
  937MOL0     H26490   5.204   8.243   1.234 -1.6272  0.5679 -0.5969
  937MOL0     H26491   5.348   8.161   1.035  0.1482 -1.0131 -1.1715
  937MOL0     H26492   5.294   7.996   1.065  2.5886 -1.0077 -0.6405
  937MOL0     H26493   5.582   8.032   1.354  0.3727  3.1782  0.4582
  937MOL0     H26494   4.684   8.249   1.081 -1.9007  0.4436 -1.4832
  937MOL0     H26495   4.475   8.359   1.128 -0.2438  3.1339 -1.5363
  938MOL0     O26496   2.439   1.991  10.779 -0.0692 -0.2995 -0.0751
  938MOL0     C26497   2.528   2.025  10.697 -0.0863 -0.0625 -0.5252
  938MOL0     O26498   2.509   2.111  10.587  0.4270 -1.0809  0.7836
  938MOL0     C26499   2.394   2.142  10.519  0.1804 -0.1192 -0.6174
  938MOL0     C26500   2.400   2.201  10.391  0.3503 -0.4586 -0.1035
  938MOL0     C26501   2.280   2.222  10.309 -0.4088  0.2362 -0.1421
  938MOL0     C26502   2.159   2.181  10.367 -0.2271  0.5892  0.2855
  938MOL0     O26503   2.047   2.186  10.298  0.1417  0.1201  0.2552
  938MOL0     C26504   2.032   2.077  10.201  0.6001  0.0585  0.1800
  938MOL0     C26505   2.019   1.931  10.254 -0.2096 -1.0985 -0.2132
  938MOL0     C26506   1.989   1.846  10.134  0.5468 -0.1710  0.3905
  938MOL0     C26507   1.993   1.700  10.180  1.0731  1.1206  0.7198
  938MOL0     C26508   1.923   1.605  10.080 -1.4961 -0.5087 -0.5187
  938MOL0     C26509   1.954   1.457  10.096  0.0923 -0.2555 -0.5740
  938MOL0     C26510   1.872   1.365  10.006 -0.5748  0.5664  0.6809
  938MOL0     C26511   1.916   1.217  10.038  0.3278  0.0247 -0.0938
  938MOL0     N26512   1.856   1.116   9.965 -0.6039 -0.9196  0.0845
  938MOL0     C26513   1.859   1.116   9.832 -0.0986  0.0970  0.4435
  938MOL0     C26514   1.802   0.993   9.798 -1.5434 -0.7424  0.2531
  938MOL0     C26515   1.804   0.942   9.657  0.1336 -0.5052  0.4511
  938MOL0     C26516   1.700   1.015   9.574  0.6568 -0.4868  0.1725
  938MOL0     C26517   1.557   0.983   9.605  0.7183  0.0700 -0.1952
  938MOL0     C26518   1.497   0.992   9.753 -0.0396 -0.2183  0.8100
  938MOL0     O26519   1.355   0.960   9.749  0.0592  0.6765  0.3929
  938MOL0     C26520   1.297   0.935   9.877 -0.7275  0.7610 -0.4811
  938MOL0     C26521   1.159   0.920   9.879  1.0473 -0.2867 -0.4213
  938MOL0     C26522   1.091   0.888   9.996  0.3068 -0.2384  0.4422
  938MOL0     C26523   0.945   0.872   9.991  1.3436  0.1527 -0.1075
  938MOL0     C26524   1.163   0.870  10.111  0.6591  0.5688  0.0283
  938MOL0     C26525   1.105   0.838  10.234  0.8892  0.1893  0.1886
  938MOL0     O26526   1.169   0.736  10.305 -1.1851 -0.3566 -0.6255
  938MOL0     C26527   1.096   0.674  10.408 -0.7447  0.9511 -0.3808
  938MOL0     C26528   0.956   0.652  10.407 -0.6332  0.0013  0.5832
  938MOL0     C26529   0.893   0.598  10.514 -0.6532  0.8311 -0.5247
  938MOL0     C26530   0.970   0.550  10.626 -0.7847 -0.5179  0.5499
  938MOL0     O26531   0.926   0.471  10.726 -0.6189  0.3560 -0.1562
  938MOL0     C26532   0.785   0.463  10.747  0.3160  1.2875  0.1859
  938MOL0     C26533   0.761   0.346  10.849  0.9541  0.5272  0.2721
  938MOL0     C26534   0.800   0.379  10.991  0.1979 -0.8612 -1.2855
  938MOL0     C26535   0.806   0.244  11.072 -0.3003  0.3620 -1.1428
  938MOL0     C26536   0.851   0.287  11.215  0.3366 -0.6598 -0.7293
  938MOL0     C26537   0.861   0.172  11.316  0.3117 -0.5005  0.7770
  938MOL0     C26538   0.745   0.167  11.415 -0.4650 -0.2834 -0.1200
  938MOL0     C26539   0.610   0.171  11.377  0.8551  0.6135 -0.1505
  938MOL0    Cl26540   0.503   0.246  11.505  0.2558  0.3183 -0.2133
  938MOL0     C26541   1.109   0.575  10.630  0.1940  0.4726 -0.0640
  938MOL0     C26542   1.166   0.634  10.519 -1.2132  1.0062  0.1861
  938MOL0     O26543   1.011   0.904  10.273 -0.7393 -0.7027 -0.3118
  938MOL0     C26544   1.303   0.895  10.112  0.2883  1.1541  0.7255
  938MOL0     C26545   1.374   0.930   9.998 -0.4352  0.5809  0.0960
  938MOL0     N26546   1.766   0.923   9.908  0.4669 -0.6615  0.3805
  938MOL0     N26547   1.792   0.998  10.011 -0.5545 -0.6457 -0.1939
  938MOL0     C26548   2.151   2.122  10.492  0.3185 -0.2250  0.7499
  938MOL0     C26549   2.270   2.091  10.558  0.4251  0.4188 -0.3669
  938MOL0     C26550   2.663   1.980  10.734 -0.3312 -0.1394  0.5309
  938MOL0     C26551   2.700   1.951  10.871  0.1418  0.6347 -0.0464
  938MOL0     C26552   2.833   1.908  10.891 -0.9040  0.4559  0.4827
  938MOL0     C26553   2.932   1.899  10.782  0.4505 -0.1735 -0.8183
  938MOL0     O26554   3.057   1.857  10.797 -0.2618  0.8687  0.2840
  938MOL0     C26555   3.103   1.844  10.934 -0.2699  0.2722  0.1186
  938MOL0     C26556   3.243   1.774  10.932  0.5465 -0.5981 -0.1182
  938MOL0     C26557   3.344   1.855  10.852  0.0351  0.9273  0.9283
  938MOL0     C26558   3.329   2.004  10.894 -0.0535 -0.9287 -0.6594
  938MOL0     C26559   3.467   2.057  10.874 -0.3952 -1.3039  0.6260
  938MOL0     C26560   3.577   2.108  10.862  0.6012  0.2078 -0.6639
  938MOL0     C26561   2.894   1.942  10.659  0.7033  0.5719  0.4209
  938MOL0     C26562   2.764   1.980  10.629 -0.1166  0.0138 -0.0759
  938MOL0     H26563   2.498   2.236  10.361  1.1948 -0.8784  2.0022
  938MOL0     H26564   2.283   2.278  10.216 -0.0492  0.2002 -0.1532
  938MOL0     H26565   1.942   2.094  10.142 -0.0578  0.2281  1.1958
  938MOL0     H26566   2.112   2.073  10.127 -0.8281 -1.0360 -1.3936
  938MOL0     H26567   2.117   1.908  10.297 -0.2586 -0.6562  0.1383
  938MOL0     H26568   1.938   1.914  10.325 -1.0845  0.8860 -0.6693
  938MOL0     H26569   1.894   1.872  10.086  1.2589  1.7765 -0.0893
  938MOL0     H26570   2.057   1.862  10.050  0.8845  2.8492  1.1079
  938MOL0     H26571   2.097   1.669  10.194  0.8090 -0.2561 -0.1784
  938MOL0     H26572   1.933   1.677  10.269 -1.7576 -2.3461 -1.7953
  938MOL0     H26573   1.816   1.621  10.090 -1.3241  0.6668 -0.4593
  938MOL0     H26574   1.943   1.634   9.977 -1.4490 -2.3159 -1.0682
  938MOL0     H26575   2.061   1.453  10.073 -0.3641  0.8059 -3.2241
  938MOL0     H26576   1.935   1.425  10.199 -1.9646 -0.5476 -1.0052
  938MOL0     H26577   1.765   1.382  10.017 -1.0976  0.3765 -2.9385
  938MOL0     H26578   1.891   1.397   9.904 -2.6151  1.7713  0.6389
  938MOL0     H26579   1.889   1.200  10.142 -0.4086 -4.8800 -0.8723
  938MOL0     H26580   2.023   1.208  10.017  0.9179  2.3804  1.4845
  938MOL0     H26581   1.906   1.192   9.770  0.2050  1.8917  2.7198
  938MOL0     H26582   1.898   0.962   9.606 -0.8431  2.2975 -0.4091
  938MOL0     H26583   1.781   0.836   9.644  2.3436 -0.9117 -0.6461
  938MOL0     H26584   1.717   0.990   9.469 -0.0227  1.1376 -0.3603
  938MOL0     H26585   1.710   1.121   9.598 -2.0714  0.0694 -0.8804
  938MOL0     H26586   1.541   0.879   9.575  0.7418 -0.3301  1.1208
  938MOL0     H26587   1.502   1.047   9.536  2.2400  0.7573 -0.8219
  938MOL0     H26588   1.500   1.096   9.788  2.2256  0.3382 -0.8107
  938MOL0     H26589   1.547   0.916   9.814 -1.7867 -1.4298  0.7919
  938MOL0     H26590   1.122   0.929   9.778  3.0466  0.3022 -1.1606
  938MOL0     H26591   0.924   0.771  10.027 -0.5953  1.0459  1.4052
  938MOL0     H26592   0.889   0.941  10.054  0.9087  1.2544 -1.6288
  938MOL0     H26593   0.905   0.877   9.889  2.0431 -3.5785 -0.7404
  938MOL0     H26594   0.894   0.694  10.329 -0.4079  1.5178  1.1941
  938MOL0     H26595   0.785   0.591  10.507 -0.7824  2.7838 -1.2222
  938MOL0     H26596   0.760   0.558  10.794 -0.0315  1.1756  0.2275
  938MOL0     H26597   0.734   0.440  10.653  0.2166 -1.5645  0.8347
  938MOL0     H26598   0.663   0.298  10.838  0.5781  1.6212 -1.7996
  938MOL0     H26599   0.818   0.265  10.804  1.7013  0.9631  0.4188
  938MOL0     H26600   0.726   0.444  11.038  2.1093  1.2941 -1.0811
  938MOL0     H26601   0.893   0.436  11.001 -0.3720 -0.1644  0.5083
  938MOL0     H26602   0.709   0.193  11.072  0.8306 -1.9409 -1.1815
  938MOL0     H26603   0.877   0.183  11.016 -0.4619  0.1320 -1.0984
  938MOL0     H26604   0.785   0.366  11.251  0.0296 -0.8378 -0.8943
  938MOL0     H26605   0.941   0.349  11.211 -2.3125  3.5041 -1.7692
  938MOL0     H26606   0.853   0.081  11.255 -0.8602  1.7080 -2.6981
  938MOL0     H26607   0.953   0.190  11.372  0.3974  3.2121 -0.2844
  938MOL0     H26608   0.754   0.266  11.462 -3.4240  1.6769 -3.1630
  938MOL0     H26609   0.766   0.084  11.482  1.8218  0.5061  0.2214
  938MOL0     H26610   0.576   0.073  11.343  3.5386  0.6031 -3.4044
  938MOL0     H26611   0.594   0.238  11.292 -0.5657 -0.2912 -0.6335
  938MOL0     H26612   1.162   0.538  10.718 -0.4180 -0.6643 -0.1606
  938MOL0     H26613   1.273   0.653  10.514 -1.1064  0.4695  0.4479
  938MOL0     H26614   1.351   0.906  10.209 -0.6118  2.5211  1.0340
  938MOL0     H26615   1.480   0.948  10.008 -0.8718  3.4707  0.2057
  938MOL0     H26616   2.051   2.087  10.515 -0.9456  3.2754  1.3501
  938MOL0     H26617   2.257   2.031  10.647  3.6072  0.3318  0.1212
  938MOL0     H26618   2.632   1.975  10.952 -3.8769  0.3609 -3.0039
  938MOL0     H26619   2.853   1.876  10.993 -0.2677  1.5416  0.7227
  938MOL0     H26620   3.092   1.937  10.990 -1.7248  0.6954 -0.8009
  938MOL0     H26621   3.042   1.764  10.977 -0.7640  0.3617 -0.4074
  938MOL0     H26622   3.233   1.667  10.911  0.5176 -0.5046 -0.5937
  938MOL0     H26623   3.277   1.776  11.036  0.9322  1.1623 -0.2428
  938MOL0     H26624   3.297   1.843  10.754 -2.0453 -2.9925  2.2242
  938MOL0     H26625   3.441   1.807  10.869 -0.8332 -2.0421 -1.6558
  938MOL0     H26626   3.305   2.011  11.001  0.2973  0.5517 -0.6565
  938MOL0     H26627   3.259   2.055  10.828 -0.9164 -3.2336 -1.6255
  938MOL0     H26628   3.670   2.159  10.844  0.5074 -0.2006 -2.4694
  938MOL0     H26629   2.953   1.939  10.569 -0.6644  0.0388 -0.4993
  938MOL0     H26630   2.747   2.017  10.528  1.4784 -1.7908 -1.0738
  939MOL0     O26631   9.790   1.417   7.705  0.2126 -0.0704  0.6351
  939MOL0     C26632   9.877   1.413   7.617 -0.1521  0.0328 -0.1819
  939MOL0     O26633   9.863   1.383   7.481  0.3478 -0.3696 -0.2497
  939MOL0     C26634   9.740   1.329   7.444 -0.3662 -1.0877  0.9467
  939MOL0     C26635   9.709   1.198   7.468  0.4936  1.4586  0.1674
  939MOL0     C26636   9.588   1.148   7.409 -1.0091  0.7306  0.1114
  939MOL0     C26637   9.503   1.223   7.332 -0.0068 -0.2430 -0.1269
  939MOL0     O26638   9.393   1.158   7.276  0.2272  0.7044 -0.2594
  939MOL0     C26639   9.285   1.247   7.236  0.3806 -0.7418  0.4810
  939MOL0     C26640   9.147   1.175   7.208  0.0982  0.0425 -0.5953
  939MOL0     C26641   9.041   1.258   7.146 -0.4682 -0.6808  0.3922
  939MOL0     C26642   8.958   1.325   7.255  0.2819 -0.6703  0.7499
  939MOL0     C26643   8.835   1.377   7.177 -0.0425 -0.8249  0.2755
  939MOL0     C26644   8.750   1.441   7.285 -0.6926  0.5539 -0.1176
  939MOL0     C26645   8.616   1.504   7.229 -0.4030  0.0071 -0.7693
  939MOL0     C26646   8.545   1.587   7.340  0.7142 -0.1573  0.4521
  939MOL0     N26647   8.420   1.661   7.299 -0.7366 -0.8684 -0.7188
  939MOL0     C26648   8.410   1.752   7.194  0.0158 -0.0070  0.1566
  939MOL0     C26649   8.285   1.771   7.165 -0.8620  0.6459  0.8547
  939MOL0     C26650   8.226   1.863   7.061  0.3983 -0.2328  0.3391
  939MOL0     C26651   8.220   1.807   6.920 -0.7633  0.9178 -0.1195
  939MOL0     C26652   8.159   1.906   6.823  0.2036  0.6641 -0.1552
  939MOL0     C26653   8.163   1.839   6.679 -0.7490 -0.3041  0.1983
  939MOL0     O26654   8.289   1.773   6.648  0.5303 -0.3956 -0.5072
  939MOL0     C26655   8.311   1.723   6.520  0.6379 -0.4702  0.0132
  939MOL0     C26656   8.253   1.783   6.410 -0.9537 -1.2765  0.6807
  939MOL0     C26657   8.265   1.732   6.279  0.1615  0.2815  0.1159
  939MOL0     C26658   8.188   1.806   6.170 -0.1192  0.2349  0.1171
  939MOL0     C26659   8.338   1.610   6.256  1.1063  1.4391 -0.0177
  939MOL0     C26660   8.306   1.513   6.144 -0.2075 -0.0064 -0.1914
  939MOL0     O26661   8.412   1.433   6.101 -0.6222 -0.2306  0.2229
  939MOL0     C26662   8.371   1.320   6.031 -0.3369  0.0818  0.0345
  939MOL0     C26663   8.274   1.230   6.080  1.6976  1.0198 -0.2078
  939MOL0     C26664   8.256   1.106   6.012 -0.6351  0.7258 -0.4388
  939MOL0     C26665   8.326   1.087   5.890  0.4524  0.8982 -1.1018
  939MOL0     O26666   8.318   0.960   5.841  0.2265  0.2997 -0.0235
  939MOL0     C26667   8.278   0.944   5.695 -0.3947 -0.0226 -0.5315
  939MOL0     C26668   8.357   0.838   5.634 -0.0475 -0.4230 -0.1027
  939MOL0     C26669   8.373   0.705   5.715  0.1796 -0.2170  0.4915
  939MOL0     C26670   8.266   0.608   5.664 -0.1666  0.6873 -0.4859
  939MOL0     C26671   8.253   0.475   5.738 -0.4554  0.1774 -0.8327
  939MOL0     C26672   8.133   0.398   5.692 -0.3835 -0.0523  0.3291
  939MOL0     C26673   8.092   0.287   5.795  0.6263  0.2761 -0.6189
  939MOL0     C26674   7.981   0.191   5.750 -1.0876 -0.1374 -0.0726
  939MOL0    Cl26675   7.823   0.252   5.693 -0.1666 -0.1817  0.2555
  939MOL0     C26676   8.410   1.178   5.834 -0.0179  0.0045 -0.4304
  939MOL0     C26677   8.438   1.292   5.908 -0.9476  0.5771  0.8195
  939MOL0     O26678   8.188   1.504   6.108 -0.7232 -0.1964 -0.4422
  939MOL0     C26679   8.399   1.560   6.370 -0.5593 -0.0498  0.0895
  939MOL0     C26680   8.389   1.615   6.500  0.5529  0.1089 -1.5269
  939MOL0     N26681   8.219   1.701   7.265 -0.8301  0.0055 -0.9134
  939MOL0     N26682   8.296   1.634   7.339 -0.0346 -0.6011  0.5158
  939MOL0     C26683   9.523   1.360   7.324 -0.1233  0.4688 -0.2156
  939MOL0     C26684   9.649   1.409   7.377 -0.5708 -0.2095  0.5590
  939MOL0     C26685  10.011   1.443   7.663 -0.4310  0.1388 -0.0786
  939MOL0     C26686  10.127   1.423   7.577 -0.6627  1.0628  0.2934
  939MOL0     C26687  10.251   1.460   7.622 -1.3404 -0.4047  0.3653
  939MOL0     C26688  10.272   1.527   7.743  0.7187  0.4563 -0.1815
  939MOL0     O26689  10.390   1.586   7.787 -0.5132 -0.0146  0.0864
  939MOL0     C26690  10.516   1.543   7.728  1.7698 -0.2099 -0.0573
  939MOL0     C26691  10.634   1.554   7.813 -0.4449  0.9949  0.1610
  939MOL0     C26692  10.648   1.693   7.877  0.4537  0.6239  0.7592
  939MOL0     C26693  10.757   1.688   7.979 -0.1984 -0.4312 -1.3739
  939MOL0     C26694  10.894   1.629   7.938  0.3745 -0.5451 -0.1405
  939MOL0     C26695  10.999   1.570   7.912 -0.3590 -0.4080 -0.1595
  939MOL0     C26696  10.163   1.540   7.828  0.6931  0.1056 -0.0309
  939MOL0     C26697  10.041   1.498   7.792  0.5423  0.1802  0.2115
  939MOL0     H26698   9.768   1.130   7.529  1.0156 -0.7328 -2.5788
  939MOL0     H26699   9.556   1.045   7.423 -2.3451  1.3225  1.6759
  939MOL0     H26700   9.272   1.312   7.323  0.8268  0.6025 -0.4294
  939MOL0     H26701   9.314   1.311   7.152 -0.8533 -1.8941 -0.9047
  939MOL0     H26702   9.165   1.094   7.137  1.5373  2.0229 -2.6566
  939MOL0     H26703   9.118   1.131   7.304 -0.1068 -0.0961 -0.7209
  939MOL0     H26704   9.083   1.339   7.086 -1.7279 -0.7231 -0.5783
  939MOL0     H26705   8.974   1.209   7.075 -2.3140  1.3029  0.6724
  939MOL0     H26706   8.942   1.253   7.336  0.0022 -0.7336  0.6380
  939MOL0     H26707   9.012   1.409   7.301 -1.1976 -0.0922  1.4696
  939MOL0     H26708   8.860   1.461   7.111  0.3100 -0.0078  1.4262
  939MOL0     H26709   8.775   1.303   7.124  0.9241 -2.2405  1.0965
  939MOL0     H26710   8.732   1.365   7.362  0.5090 -0.0651 -0.4250
  939MOL0     H26711   8.808   1.527   7.320 -0.1069  0.8773 -1.8023
  939MOL0     H26712   8.640   1.564   7.141  0.4031 -1.9660 -1.9638
  939MOL0     H26713   8.558   1.423   7.184  3.1682 -1.7824 -2.5237
  939MOL0     H26714   8.625   1.654   7.370 -0.3042  1.5859 -0.5933
  939MOL0     H26715   8.514   1.520   7.421 -0.6687 -0.4603 -0.2938
  939MOL0     H26716   8.491   1.796   7.136 -1.3397  0.0364 -1.8025
  939MOL0     H26717   8.127   1.891   7.099 -0.9277 -1.4582 -1.9912
  939MOL0     H26718   8.287   1.954   7.066  2.5373 -1.6315  0.7419
  939MOL0     H26719   8.159   1.717   6.931 -1.5461  1.5813  1.3586
  939MOL0     H26720   8.320   1.776   6.889  0.6881  2.0706  2.9929
  939MOL0     H26721   8.225   1.992   6.811  0.3419  0.2507 -3.4996
  939MOL0     H26722   8.065   1.950   6.857 -0.5270 -0.6264 -0.4478
  939MOL0     H26723   8.136   1.915   6.606 -2.0476 -1.9833 -1.1621
  939MOL0     H26724   8.091   1.757   6.684 -1.1270  0.1005  3.6231
  939MOL0     H26725   8.209   1.881   6.424  3.3715  0.6573  3.0408
  939MOL0     H26726   8.168   1.909   6.204 -1.6044  0.5977 -1.7101
  939MOL0     H26727   8.240   1.815   6.075 -2.3472  2.0773 -1.0322
  939MOL0     H26728   8.090   1.761   6.151  0.3571 -1.5969  1.6523
  939MOL0     H26729   8.208   1.259   6.161 -0.9620  0.8056 -2.1536
  939MOL0     H26730   8.191   1.022   6.035  1.6738 -0.9620  0.2291
  939MOL0     H26731   8.175   0.909   5.684 -0.2437 -0.4830 -0.4681
  939MOL0     H26732   8.283   1.042   5.647 -1.9142 -0.7299 -2.2373
  939MOL0     H26733   8.322   0.803   5.537  2.9944 -1.0777 -1.0848
  939MOL0     H26734   8.456   0.882   5.618  0.5749 -2.5408 -2.9485
  939MOL0     H26735   8.362   0.714   5.824 -1.6073 -2.1665  0.5395
  939MOL0     H26736   8.468   0.656   5.692 -0.9755 -2.4350  0.1221
  939MOL0     H26737   8.165   0.650   5.665  0.2027  1.6424  1.4581
  939MOL0     H26738   8.299   0.582   5.563  0.9688 -0.9883  0.2629
  939MOL0     H26739   8.224   0.499   5.841 -0.8577 -3.7285  0.1225
  939MOL0     H26740   8.342   0.411   5.730 -1.9622 -1.7854 -3.4040
  939MOL0     H26741   8.048   0.467   5.687 -0.0142  0.3508 -1.2139
  939MOL0     H26742   8.145   0.348   5.595  0.1688 -1.3271  1.0291
  939MOL0     H26743   8.047   0.351   5.872 -2.8638 -1.5701 -0.8988
  939MOL0     H26744   8.175   0.226   5.832  1.1926 -0.5785 -3.1100
  939MOL0     H26745   7.960   0.138   5.844  1.6110  2.6027  2.2756
  939MOL0     H26746   8.024   0.127   5.672  0.8430 -0.9408  1.5679
  939MOL0     H26747   8.466   1.146   5.746 -1.8754 -1.9542 -0.9832
  939MOL0     H26748   8.509   1.368   5.878 -1.9030  2.2080  2.4738
  939MOL0     H26749   8.454   1.469   6.350 -1.7432 -1.2439  2.0160
  939MOL0     H26750   8.451   1.586   6.583  3.0133  0.7289 -3.0496
  939MOL0     H26751   9.463   1.428   7.266  0.7596  0.0508 -1.6597
  939MOL0     H26752   9.648   1.517   7.376 -5.9416  0.0196 -0.7790
  939MOL0     H26753  10.102   1.382   7.480 -3.1409  2.0275  0.4710
  939MOL0     H26754  10.334   1.426   7.560 -0.3851  1.4797  0.5420
  939MOL0     H26755  10.500   1.436   7.715 -0.0971  0.1928 -1.4994
  939MOL0     H26756  10.534   1.586   7.629  1.3769  3.3990  1.2776
  939MOL0     H26757  10.729   1.528   7.764 -0.9596 -1.7921  0.4649
  939MOL0     H26758  10.613   1.474   7.885  2.0410 -1.5096 -1.6663
  939MOL0     H26759  10.559   1.738   7.923  0.1255  0.2233  0.5266
  939MOL0     H26760  10.677   1.760   7.796 -0.4849 -1.5994 -1.5630
  939MOL0     H26761  10.722   1.633   8.066  2.9736  0.8881  0.9307
  939MOL0     H26762  10.767   1.794   8.005 -0.7381 -1.1032  1.9286
  939MOL0     H26763  11.089   1.522   7.881 -0.3758 -0.1971 -0.5408
  939MOL0     H26764  10.183   1.590   7.922  1.5149  2.5939 -1.4405
  939MOL0     H26765   9.959   1.518   7.860  0.1874 -0.0082 -0.1541
  940MOL0     O26766   3.792   3.897   8.174 -0.2969 -0.5965  0.2618
  940MOL0     C26767   3.818   3.787   8.210 -0.7338  0.2542  0.4549
  940MOL0     O26768   3.722   3.686   8.224  0.1171 -0.1269 -0.5061
  940MOL0     C26769   3.589   3.716   8.231 -0.7567  0.5660 -0.7283
  940MOL0     C26770   3.533   3.834   8.279  0.0574  0.3390  0.8468
  940MOL0     C26771   3.394   3.844   8.282 -0.4185  0.1559 -0.6883
  940MOL0     C26772   3.305   3.736   8.250  0.0882 -0.9319 -0.1132
  940MOL0     O26773   3.169   3.754   8.263 -0.4037 -0.2658 -0.1380
  940MOL0     C26774   3.132   3.886   8.285  0.3617  0.1943  0.5392
  940MOL0     C26775   2.982   3.892   8.277  1.1579  0.3151  0.3087
  940MOL0     C26776   2.917   3.806   8.378 -0.5226 -0.0361  0.2450
  940MOL0     C26777   2.769   3.824   8.372 -0.2448 -0.2613 -0.1318
  940MOL0     C26778   2.690   3.743   8.475 -1.1506 -0.6455 -0.8702
  940MOL0     C26779   2.538   3.780   8.476  0.0196 -0.1430  0.1220
  940MOL0     C26780   2.463   3.698   8.571 -0.3831 -0.4195  0.4735
  940MOL0     C26781   2.316   3.730   8.562 -0.5810  1.0407  0.4210
  940MOL0     N26782   2.243   3.621   8.629  0.2653 -0.0862 -0.0851
  940MOL0     C26783   2.225   3.617   8.767  0.7997  0.5505 -0.3725
  940MOL0     C26784   2.146   3.507   8.779 -0.6119  0.2367 -0.5328
  940MOL0     C26785   2.092   3.453   8.905  0.3442  0.0290 -1.2060
  940MOL0     C26786   1.997   3.540   8.976 -0.1852 -0.2397 -0.5862
  940MOL0     C26787   1.970   3.485   9.116  0.8180  0.0869 -0.6863
  940MOL0     C26788   1.834   3.538   9.186  0.3292  0.1305  1.5914
  940MOL0     O26789   1.849   3.680   9.229  0.4792 -0.3777 -0.1349
  940MOL0     C26790   1.734   3.739   9.282 -0.0887  0.3285 -0.1064
  940MOL0     C26791   1.628   3.672   9.351  0.5051 -0.2585 -0.9386
  940MOL0     C26792   1.513   3.745   9.400  0.0920  0.7317 -0.3469
  940MOL0     C26793   1.408   3.667   9.465 -0.3919  0.2620  0.2347
  940MOL0     C26794   1.508   3.883   9.378 -0.9544  0.3599  0.8068
  940MOL0     C26795   1.393   3.960   9.414 -0.6266 -0.3239  0.3333
  940MOL0     O26796   1.421   4.087   9.456  0.2160 -0.0573  0.2376
  940MOL0     C26797   1.317   4.175   9.475 -1.0138  0.2067 -0.2578
  940MOL0     C26798   1.218   4.161   9.578  0.3710  0.0169 -0.0888
  940MOL0     C26799   1.125   4.263   9.605 -0.4039  0.2086 -0.1459
  940MOL0     C26800   1.125   4.377   9.519  0.4224  0.8324  0.1741
  940MOL0     O26801   1.039   4.483   9.535 -0.9362  0.2155 -0.1016
  940MOL0     C26802   0.929   4.475   9.622 -0.3268 -0.4873 -0.6574
  940MOL0     C26803   0.850   4.602   9.602  0.3654 -0.0091  0.1520
  940MOL0     C26804   0.722   4.612   9.693  0.8957  0.1207 -0.5513
  940MOL0     C26805   0.621   4.716   9.657 -0.4275  1.3037  0.6799
  940MOL0     C26806   0.487   4.696   9.730 -0.2090  0.0939  0.4289
  940MOL0     C26807   0.404   4.575   9.677 -0.7901 -0.0777 -0.3301
  940MOL0     C26808   0.351   4.586   9.534 -0.2002  0.0851  0.5119
  940MOL0     C26809   0.242   4.492   9.488  0.6776 -0.0450  0.0655
  940MOL0    Cl26810   0.301   4.384   9.349 -0.2566  0.1772  0.4499
  940MOL0     C26811   1.218   4.382   9.419 -0.2181 -0.4371 -0.7509
  940MOL0     C26812   1.321   4.289   9.394  0.3276  0.1658  0.9606
  940MOL0     O26813   1.279   3.917   9.398 -0.0808  0.1035  0.2429
  940MOL0     C26814   1.608   3.946   9.321 -0.2831  0.0020  0.4494
  940MOL0     C26815   1.716   3.874   9.263  0.5222  0.0914  0.8925
  940MOL0     N26816   2.139   3.439   8.657 -0.6520  0.2604 -0.0953
  940MOL0     N26817   2.195   3.504   8.566  0.0018 -0.2689 -0.3729
  940MOL0     C26818   3.365   3.625   8.198 -0.3505  0.1654  0.7521
  940MOL0     C26819   3.507   3.610   8.191  0.3557 -0.0304  0.0761
  940MOL0     C26820   3.962   3.753   8.245  0.5702  0.9340 -0.3690
  940MOL0     C26821   4.006   3.628   8.266 -0.1918 -0.3724  0.6610
  940MOL0     C26822   4.132   3.598   8.296 -0.3516  0.8797  0.0501
  940MOL0     C26823   4.229   3.687   8.324 -0.6485 -0.5133 -0.2681
  940MOL0     O26824   4.356   3.655   8.364  0.2501  0.1774 -0.7967
  940MOL0     C26825   4.455   3.751   8.402  1.0158  0.2914  0.2972
  940MOL0     C26826   4.587   3.680   8.410  0.7205  0.2904 -0.2983
  940MOL0     C26827   4.670   3.645   8.280  0.5552  0.0035 -0.4076
  940MOL0     C26828   4.770   3.758   8.232  0.4390 -0.1923 -0.0318
  940MOL0     C26829   4.695   3.875   8.195 -0.2061 -0.2947  0.2799
  940MOL0     C26830   4.630   3.980   8.174  0.0443  0.8016  1.2030
  940MOL0     C26831   4.188   3.816   8.312  1.4078 -0.6391 -0.2852
  940MOL0     C26832   4.058   3.851   8.264  0.4246  0.3202  0.1971
  940MOL0     H26833   3.583   3.925   8.312 -1.4623  0.9962  1.4152
  940MOL0     H26834   3.372   3.941   8.327  0.0929 -1.3474  3.1425
  940MOL0     H26835   3.144   3.929   8.385 -2.9054 -2.1563  2.1051
  940MOL0     H26836   3.177   3.949   8.208  0.9052 -0.4506  0.3279
  940MOL0     H26837   2.948   3.996   8.286 -0.3960  0.0611 -1.8119
  940MOL0     H26838   2.939   3.877   8.178  0.3313  2.0201  0.3541
  940MOL0     H26839   2.939   3.701   8.355  2.7553  0.3385  1.1214
  940MOL0     H26840   2.946   3.827   8.481 -2.9393 -1.7923  1.3723
  940MOL0     H26841   2.729   3.926   8.372 -2.4541 -0.9529 -3.8916
  940MOL0     H26842   2.738   3.785   8.275  0.6014 -1.4983  0.0745
  940MOL0     H26843   2.695   3.636   8.451 -0.8284 -0.8348  0.0116
  940MOL0     H26844   2.729   3.760   8.576  0.5563 -2.0549 -1.2508
  940MOL0     H26845   2.525   3.887   8.495  1.2529 -0.1698  1.2863
  940MOL0     H26846   2.506   3.757   8.374  2.9403  0.6226 -1.0975
  940MOL0     H26847   2.471   3.594   8.538  2.6110 -0.2715  0.5221
  940MOL0     H26848   2.504   3.694   8.673  1.0929 -0.8391 -0.1202
  940MOL0     H26849   2.293   3.719   8.455 -1.2070  1.1835  0.5388
  940MOL0     H26850   2.288   3.825   8.609  1.7575  2.2249 -0.3778
  940MOL0     H26851   2.260   3.688   8.841 -1.6286  0.5093  0.9314
  940MOL0     H26852   2.040   3.361   8.878 -3.5826  1.5939  0.3480
  940MOL0     H26853   2.166   3.431   8.983 -1.1413  2.8503  1.1661
  940MOL0     H26854   1.902   3.522   8.927  0.4038 -0.8758 -1.5175
  940MOL0     H26855   2.027   3.645   8.979 -0.7119 -0.0220 -2.3502
  940MOL0     H26856   2.059   3.493   9.179  0.1516 -3.6501  1.0050
  940MOL0     H26857   1.966   3.377   9.099  2.0872 -0.3229  1.3229
  940MOL0     H26858   1.820   3.469   9.269  0.5735 -0.5078  1.1162
  940MOL0     H26859   1.753   3.535   9.112  0.5478 -0.5006  1.3719
  940MOL0     H26860   1.644   3.566   9.368  0.0858 -0.2740 -0.6216
  940MOL0     H26861   1.315   3.665   9.407 -1.6362 -0.0587  2.1446
  940MOL0     H26862   1.439   3.562   9.472 -3.4259 -0.6923  0.7489
  940MOL0     H26863   1.388   3.708   9.564  0.6733  0.4743  0.3722
  940MOL0     H26864   1.219   4.080   9.651 -2.4726  0.2212  0.2993
  940MOL0     H26865   1.054   4.250   9.686 -1.2844 -1.5552 -1.1196
  940MOL0     H26866   0.871   4.383   9.614 -3.0936  1.1333 -0.6617
  940MOL0     H26867   0.971   4.481   9.723 -1.3786  0.0784 -0.2381
  940MOL0     H26868   0.920   4.686   9.609 -0.8061  1.1978 -1.6783
  940MOL0     H26869   0.823   4.598   9.496 -1.6189  0.0926  0.6097
  940MOL0     H26870   0.755   4.616   9.797 -2.1868  0.6324  0.5217
  940MOL0     H26871   0.677   4.513   9.687  3.0178 -1.0083  1.0547
  940MOL0     H26872   0.660   4.814   9.684 -0.7742  1.7213 -0.3072
  940MOL0     H26873   0.611   4.710   9.549 -0.6997 -1.5330  0.7844
  940MOL0     H26874   0.435   4.791   9.718  1.0501  0.6746 -0.6386
  940MOL0     H26875   0.499   4.684   9.838 -1.4123 -1.6077  0.4176
  940MOL0     H26876   0.473   4.490   9.689  3.7584  3.3689  0.7016
  940MOL0     H26877   0.319   4.557   9.743 -1.1081  0.5176 -0.5698
  940MOL0     H26878   0.434   4.570   9.464  0.5094 -1.0951  1.5870
  940MOL0     H26879   0.324   4.692   9.531  2.0610  0.7305  0.8042
  940MOL0     H26880   0.160   4.553   9.448 -0.1345 -1.6144 -0.7894
  940MOL0     H26881   0.215   4.422   9.568  1.4333 -0.2699  0.1292
  940MOL0     H26882   1.213   4.467   9.351  2.0783 -0.4538 -1.0222
  940MOL0     H26883   1.379   4.300   9.303 -1.5544 -0.3293 -0.3694
  940MOL0     H26884   1.614   4.050   9.290 -0.6755 -0.1292 -0.0689
  940MOL0     H26885   1.793   3.925   9.205 -0.4825  0.0348 -0.5365
  940MOL0     H26886   3.302   3.545   8.160 -1.9337  1.8987 -0.4484
  940MOL0     H26887   3.554   3.516   8.165  0.9969  0.1705  0.4858
  940MOL0     H26888   3.930   3.551   8.253 -0.1622 -0.0761 -1.7219
  940MOL0     H26889   4.167   3.495   8.304  0.6221  1.2489  0.7795
  940MOL0     H26890   4.442   3.827   8.325 -2.7806  0.7909  1.2647
  940MOL0     H26891   4.419   3.794   8.496  0.0909  0.3444 -0.0734
  940MOL0     H26892   4.564   3.589   8.466  3.1170  0.1897  0.6312
  940MOL0     H26893   4.643   3.740   8.482 -3.5058  1.7247  2.1458
  940MOL0     H26894   4.597   3.627   8.201  1.3675 -0.6807 -1.0245
  940MOL0     H26895   4.734   3.559   8.300 -0.4620 -0.6709  0.0216
  940MOL0     H26896   4.826   3.730   8.142  0.8706 -0.1679  0.2255
  940MOL0     H26897   4.846   3.777   8.308 -0.7441 -2.5132  1.8558
  940MOL0     H26898   4.581   4.074   8.157 -1.7330 -0.4715 -1.3142
  940MOL0     H26899   4.264   3.892   8.325  2.0862 -1.6429  2.0963
  940MOL0     H26900   4.040   3.954   8.237 -0.5182 -0.2965 -1.6921
  941MOL0     O26901   1.243   5.130   1.761 -0.3025 -0.5523  0.6608
  941MOL0     C26902   1.166   5.056   1.700 -0.6288  0.0336  0.1228
  941MOL0     O26903   1.188   4.941   1.629  0.7346  0.1745 -0.1214
  941MOL0     C26904   1.318   4.901   1.628  0.3428  0.1221  0.7663
  941MOL0     C26905   1.372   4.859   1.504  0.1825  0.3939 -0.5096
  941MOL0     C26906   1.506   4.821   1.479 -0.3660  0.0652 -0.0926
  941MOL0     C26907   1.586   4.808   1.598 -0.6162 -0.0549  0.5171
  941MOL0     O26908   1.724   4.772   1.586  0.0264  0.1922  0.2284
  941MOL0     C26909   1.813   4.882   1.621 -0.3792 -0.0244  0.2849
  941MOL0     C26910   1.861   4.935   1.495 -1.7008 -0.8614 -0.3740
  941MOL0     C26911   1.973   5.034   1.505 -0.2113  0.4327  0.3712
  941MOL0     C26912   2.111   4.975   1.481  0.2653  0.0473  0.4111
  941MOL0     C26913   2.228   5.071   1.498 -0.1019  0.7863 -0.0000
  941MOL0     C26914   2.363   4.996   1.474  0.3818  0.1682 -0.4013
  941MOL0     C26915   2.484   5.070   1.528 -0.4150  0.5147 -0.0623
  941MOL0     C26916   2.602   4.971   1.520  0.4670 -0.4511 -0.7369
  941MOL0     N26917   2.735   5.044   1.541  0.1515 -0.5647 -1.1397
  941MOL0     C26918   2.753   5.125   1.651  0.2572 -0.3123 -0.3834
  941MOL0     C26919   2.889   5.138   1.661 -0.0816 -0.0846 -0.4633
  941MOL0     C26920   2.960   5.230   1.751 -0.2336 -0.5381  0.6028
  941MOL0     C26921   2.937   5.376   1.749 -0.2448  0.2167 -0.4514
  941MOL0     C26922   2.981   5.451   1.624 -0.4445  0.1975  0.5251
  941MOL0     C26923   3.113   5.520   1.643 -0.0014 -0.3828 -0.3723
  941MOL0     O26924   3.096   5.633   1.734  0.1926 -0.5017 -0.3056
  941MOL0     C26925   3.204   5.693   1.792 -0.1537  0.7086  0.0049
  941MOL0     C26926   3.179   5.786   1.895 -0.6810  0.4139  0.5168
  941MOL0     C26927   3.276   5.834   1.974  1.1559 -0.9230 -0.9312
  941MOL0     C26928   3.234   5.915   2.096  0.6582 -0.2476 -0.2013
  941MOL0     C26929   3.409   5.813   1.935 -0.1535  0.0363 -0.0565
  941MOL0     C26930   3.527   5.880   2.004  0.7218 -0.1148 -1.4069
  941MOL0     O26931   3.631   5.897   1.928 -0.2418  0.3688 -0.0248
  941MOL0     C26932   3.755   5.933   1.990 -0.4366  0.0507 -0.1054
  941MOL0     C26933   3.816   5.848   2.077  0.0510  0.3803 -0.6943
  941MOL0     C26934   3.935   5.885   2.142 -0.3597  0.4764 -0.1460
  941MOL0     C26935   3.989   6.016   2.121 -0.0078 -0.6453  0.0126
  941MOL0     O26936   4.108   6.039   2.184 -1.4186  1.0196 -0.3368
  941MOL0     C26937   4.161   6.169   2.164  0.7415  0.2106  0.5149
  941MOL0     C26938   4.294   6.174   2.242  0.4024  0.8055  0.6962
  941MOL0     C26939   4.379   6.292   2.184  0.1339 -0.6222  0.4566
  941MOL0     C26940   4.308   6.430   2.172 -0.5161  0.0357 -0.0079
  941MOL0     C26941   4.396   6.547   2.130  0.1804 -0.2892 -0.1533
  941MOL0     C26942   4.475   6.605   2.249  0.1046  0.0154  0.0004
  941MOL0     C26943   4.503   6.752   2.227 -0.2861 -0.2299 -0.5277
  941MOL0     C26944   4.619   6.793   2.128 -0.0059 -1.2567  0.6291
  941MOL0    Cl26945   4.552   6.792   1.959 -0.0923 -0.0831  0.1409
  941MOL0     C26946   3.925   6.100   2.035  0.7090 -0.2465 -0.1834
  941MOL0     C26947   3.804   6.058   1.966  0.3892 -0.5583 -0.4580
  941MOL0     O26948   3.515   5.921   2.123 -0.1222  0.1982 -0.0168
  941MOL0     C26949   3.440   5.725   1.830 -0.0442 -0.2904  0.8566
  941MOL0     C26950   3.338   5.661   1.759  0.1275 -0.1578  0.4076
  941MOL0     N26951   2.951   5.066   1.559 -0.4153 -0.1276 -0.3855
  941MOL0     N26952   2.855   5.015   1.489  0.6468 -0.5977  0.1182
  941MOL0     C26953   1.525   4.831   1.724 -0.1501 -0.5173  0.0035
  941MOL0     C26954   1.394   4.885   1.737  0.1679  0.2476  0.6268
  941MOL0     C26955   1.030   5.094   1.713 -0.3857  0.2983 -0.1529
  941MOL0     C26956   0.930   5.063   1.614 -0.1421  0.8143 -0.5348
  941MOL0     C26957   0.793   5.094   1.640 -0.2771  0.1401  0.7615
  941MOL0     C26958   0.756   5.160   1.754 -0.4614 -0.5571 -0.4808
  941MOL0     O26959   0.634   5.205   1.798  0.3296  0.5206  0.0564
  941MOL0     C26960   0.527   5.192   1.705  0.0999 -0.5122 -0.6961
  941MOL0     C26961   0.403   5.255   1.774  0.4602  0.0267 -0.0753
  941MOL0     C26962   0.404   5.415   1.767 -0.1170 -0.6303 -0.8673
  941MOL0     C26963   0.271   5.490   1.788  0.0736 -0.3476 -0.2479
  941MOL0     C26964   0.202   5.437   1.905 -0.3017 -0.5127 -0.1204
  941MOL0     C26965   0.133   5.402   2.002 -0.5715  0.2213 -0.3420
  941MOL0     C26966   0.858   5.188   1.858  0.8996  0.1196 -0.1167
  941MOL0     C26967   0.990   5.153   1.838  0.0308 -0.1893  0.5932
  941MOL0     H26968   1.314   4.873   1.413 -3.1961  3.3506  1.8564
  941MOL0     H26969   1.553   4.792   1.386 -0.9120 -3.0100  0.4830
  941MOL0     H26970   1.755   4.964   1.665  0.5193  0.4502  0.6151
  941MOL0     H26971   1.891   4.847   1.689 -1.9703  0.6467  2.5933
  941MOL0     H26972   1.904   4.845   1.450  3.6977  1.2685 -0.2416
  941MOL0     H26973   1.781   4.975   1.433 -2.4012  0.3061  1.2042
  941MOL0     H26974   1.952   5.110   1.429  1.9461  1.3412  0.6107
  941MOL0     H26975   1.972   5.081   1.604  1.0513  1.7491 -0.2129
  941MOL0     H26976   2.126   4.896   1.556  0.7281 -1.2675 -1.0109
  941MOL0     H26977   2.110   4.921   1.386 -3.3126  0.6812 -0.0751
  941MOL0     H26978   2.216   5.154   1.429  3.1457  1.0765 -0.4001
  941MOL0     H26979   2.228   5.109   1.601 -2.0394 -0.0725  0.3641
  941MOL0     H26980   2.360   4.903   1.532 -2.4606 -0.3630 -1.2258
  941MOL0     H26981   2.385   4.974   1.369  0.1996  0.0854 -0.4227
  941MOL0     H26982   2.513   5.155   1.466  6.1240  0.3258  1.9802
  941MOL0     H26983   2.476   5.110   1.630  1.5943 -1.8432  1.1534
  941MOL0     H26984   2.592   4.921   1.423 -0.8230  2.0964 -2.0251
  941MOL0     H26985   2.594   4.895   1.598  0.7771  0.3563  0.1029
  941MOL0     H26986   2.682   5.182   1.711 -2.6062 -0.7752 -3.1181
  941MOL0     H26987   2.934   5.198   1.852 -0.6166 -3.4277 -0.3275
  941MOL0     H26988   3.067   5.212   1.737 -0.9621 -3.9579 -1.6657
  941MOL0     H26989   2.978   5.421   1.839 -0.3367  1.0489 -0.8194
  941MOL0     H26990   2.829   5.390   1.761  0.1897  1.9967  2.2543
  941MOL0     H26991   2.910   5.534   1.614 -1.2617 -0.3106  1.9123
  941MOL0     H26992   2.993   5.380   1.542 -1.2914 -0.8994  1.3298
  941MOL0     H26993   3.155   5.566   1.554  0.1230  0.5602  0.1563
  941MOL0     H26994   3.183   5.446   1.682 -0.4567 -0.7157 -0.1705
  941MOL0     H26995   3.076   5.815   1.917 -2.0805 -2.9193 -1.0262
  941MOL0     H26996   3.267   5.856   2.182 -1.8544 -0.7387  0.5031
  941MOL0     H26997   3.280   6.014   2.100  1.1751 -0.4043 -1.6874
  941MOL0     H26998   3.126   5.932   2.101  0.8840  1.5126 -0.7966
  941MOL0     H26999   3.765   5.756   2.103  2.6975 -0.8088  0.6635
  941MOL0     H27000   3.975   5.816   2.216 -0.9425  0.5903  0.2807
  941MOL0     H27001   4.177   6.195   2.059  0.5312  1.1137  0.6981
  941MOL0     H27002   4.098   6.240   2.217  3.3548  2.2545  1.1257
  941MOL0     H27003   4.293   6.176   2.352  0.4745  1.5636  0.6928
  941MOL0     H27004   4.351   6.084   2.215 -1.9949 -1.1163  1.7242
  941MOL0     H27005   4.420   6.259   2.087 -0.2540  1.1182 -0.3420
  941MOL0     H27006   4.467   6.311   2.247  0.3159  1.9806 -0.4351
  941MOL0     H27007   4.230   6.417   2.096  0.4088 -0.9842 -0.8215
  941MOL0     H27008   4.261   6.458   2.266  1.5952 -0.9887  1.4305
  941MOL0     H27009   4.333   6.628   2.092  1.7852  0.7252 -0.7902
  941MOL0     H27010   4.463   6.512   2.050 -0.0266 -1.0965  0.0165
  941MOL0     H27011   4.408   6.600   2.336 -3.7939 -0.8754 -2.7861
  941MOL0     H27012   4.564   6.543   2.266 -1.0934 -1.8161 -0.1177
  941MOL0     H27013   4.534   6.788   2.326 -0.6586  2.7287 -1.3744
  941MOL0     H27014   4.416   6.810   2.195 -1.8305 -3.0764 -1.7718
  941MOL0     H27015   4.697   6.717   2.122  1.7443  0.5117  0.0436
  941MOL0     H27016   4.660   6.892   2.149 -1.8365 -0.1647 -0.6492
  941MOL0     H27017   3.959   6.204   2.029 -0.3028  0.0140 -2.4354
  941MOL0     H27018   3.740   6.120   1.903 -1.6117 -2.1943 -0.1183
  941MOL0     H27019   3.541   5.712   1.794  0.0128 -0.2221  0.9905
  941MOL0     H27020   3.368   5.600   1.674 -0.1363  2.7224 -1.9312
  941MOL0     H27021   1.579   4.822   1.817  0.3932 -2.4296 -0.4600
  941MOL0     H27022   1.357   4.897   1.838 -1.8542  1.3140 -0.1844
  941MOL0     H27023   0.955   5.002   1.528 -0.1637 -2.7331  1.7588
  941MOL0     H27024   0.726   5.068   1.558  2.9284  1.1552 -2.4669
  941MOL0     H27025   0.543   5.245   1.611  0.0198  1.4773  0.3544
  941MOL0     H27026   0.515   5.084   1.697 -1.1415 -0.5197  0.7528
  941MOL0     H27027   0.399   5.228   1.880  0.3820  1.0801  0.2042
  941MOL0     H27028   0.311   5.226   1.723  1.0101  1.3900 -1.9547
  941MOL0     H27029   0.444   5.452   1.672  0.4648  1.8588  0.2582
  941MOL0     H27030   0.475   5.462   1.836 -0.8219  3.5846 -2.6983
  941MOL0     H27031   0.202   5.460   1.708  0.3059 -2.8648  0.4138
  941MOL0     H27032   0.300   5.595   1.798  0.5584 -0.5398  0.4714
  941MOL0     H27033   0.058   5.381   2.077 -0.9618  0.7295 -0.5898
  941MOL0     H27034   0.833   5.251   1.943  2.7081  0.8780 -0.0904
  941MOL0     H27035   1.059   5.185   1.916  0.1467  3.0884 -0.7088
  942MOL0     O27036   0.414   6.094   9.145 -0.2051  0.0490 -0.0249
  942MOL0     C27037   0.514   6.086   9.075  0.4180  0.5782  0.1400
  942MOL0     O27038   0.578   5.961   9.060  0.9087 -0.7714  0.0259
  942MOL0     C27039   0.537   5.855   9.133  0.2970  1.4687 -0.1522
  942MOL0     C27040   0.495   5.857   9.273  0.0696  0.1520  0.9779
  942MOL0     C27041   0.478   5.735   9.334 -0.6382  0.0990 -0.6712
  942MOL0     C27042   0.506   5.618   9.278  0.2178  0.7049 -0.1563
  942MOL0     O27043   0.511   5.507   9.359 -0.3005  0.6646 -0.5369
  942MOL0     C27044   0.528   5.380   9.286 -0.4198 -0.4548  0.0955
  942MOL0     C27045   0.533   5.262   9.386  0.1861  0.5921 -0.1348
  942MOL0     C27046   0.396   5.254   9.450 -0.2737 -0.0393  0.8978
  942MOL0     C27047   0.364   5.110   9.496  0.2302 -0.9357 -0.1702
  942MOL0     C27048   0.214   5.096   9.540  0.0866 -1.5513  0.3647
  942MOL0     C27049   0.176   4.956   9.583  0.1787 -0.4408 -0.9428
  942MOL0     C27050   0.037   4.949   9.654 -0.7878  0.5290  0.1384
  942MOL0     C27051   0.013   4.817   9.748  0.1755 -0.4043  0.3937
  942MOL0     N27052  -0.031   4.706   9.669 -0.9875 -0.7343 -0.3846
  942MOL0     C27053  -0.051   4.579   9.713 -0.5071  0.0630 -0.3659
  942MOL0     C27054  -0.101   4.508   9.600  0.2124 -0.9415 -0.5149
  942MOL0     C27055  -0.141   4.361   9.585 -0.2389 -0.9997 -0.4691
  942MOL0     C27056  -0.278   4.345   9.516  0.3122 -0.4668 -0.2182
  942MOL0     C27057  -0.383   4.438   9.583  0.5073  0.5041  0.4658
  942MOL0     C27058  -0.509   4.398   9.498  0.2882  1.0446 -0.8365
  942MOL0     O27059  -0.606   4.489   9.548 -0.2172 -0.0121  0.4811
  942MOL0     C27060  -0.732   4.449   9.559  0.6695 -1.0774  0.0831
  942MOL0     C27061  -0.796   4.334   9.500 -0.9588  0.2356  0.0403
  942MOL0     C27062  -0.937   4.313   9.513 -0.2371 -0.4408  0.5091
  942MOL0     C27063  -0.984   4.191   9.448 -0.2578 -0.3496  0.0387
  942MOL0     C27064  -1.022   4.412   9.588 -0.1387 -0.3110  0.2975
  942MOL0     C27065  -1.171   4.412   9.581 -0.5394  0.6551 -0.2509
  942MOL0     O27066  -1.231   4.508   9.650 -0.4471  0.1981 -1.1657
  942MOL0     C27067  -1.356   4.551   9.654  0.7160 -0.2354 -0.4803
  942MOL0     C27068  -1.466   4.532   9.567 -1.1190 -0.2218 -0.1276
  942MOL0     C27069  -1.587   4.597   9.586  0.2332  0.2961 -0.3768
  942MOL0     C27070  -1.616   4.662   9.711  0.0161 -0.2113  0.5490
  942MOL0     O27071  -1.737   4.714   9.723 -0.0345 -0.8375 -0.7128
  942MOL0     C27072  -1.763   4.790   9.841 -0.0120  0.0157 -0.5001
  942MOL0     C27073  -1.905   4.842   9.847  0.4593  0.3223  1.3005
  942MOL0     C27074  -1.940   4.887   9.994 -0.3682 -0.6429  0.2915
  942MOL0     C27075  -2.039   5.010  10.003 -0.1992 -0.0672  0.0946
  942MOL0     C27076  -2.113   4.989  10.130 -0.4009 -0.3826 -0.8996
  942MOL0     C27077  -2.186   5.110  10.182  0.9435  0.2157  0.7706
  942MOL0     C27078  -2.275   5.086  10.304  0.0594  0.2015 -0.6425
  942MOL0     C27079  -2.394   4.998  10.270 -0.1082 -1.0688  0.4359
  942MOL0    Cl27080  -2.497   5.068  10.147 -0.1060 -0.3234  0.4153
  942MOL0     C27081  -1.509   4.678   9.806  1.1446  0.7022  0.0759
  942MOL0     C27082  -1.379   4.633   9.770 -0.3449 -0.2820  0.4964
  942MOL0     O27083  -1.225   4.343   9.501  0.7680  0.6201 -0.3345
  942MOL0     C27084  -0.954   4.519   9.646 -0.2790 -0.2352 -0.8895
  942MOL0     C27085  -0.814   4.536   9.639  0.5177  0.3143  0.0179
  942MOL0     N27086  -0.090   4.597   9.491  0.1043 -0.1362 -0.3655
  942MOL0     N27087  -0.043   4.709   9.535 -0.1667  0.5588 -0.1154
  942MOL0     C27088   0.553   5.616   9.146  0.2358 -0.2593 -0.4131
  942MOL0     C27089   0.580   5.735   9.084  0.2301  0.1416 -0.8564
  942MOL0     C27090   0.575   6.195   9.001  0.7104 -0.4261 -0.0477
  942MOL0     C27091   0.700   6.181   8.939 -0.0030  0.2420 -0.7309
  942MOL0     C27092   0.745   6.281   8.854  0.5496 -0.0482 -0.6702
  942MOL0     C27093   0.683   6.410   8.850  0.5429 -0.1361 -0.0707
  942MOL0     O27094   0.741   6.511   8.788 -0.4229 -0.6720  0.3514
  942MOL0     C27095   0.886   6.514   8.820 -0.4312  1.0740 -0.8477
  942MOL0     C27096   0.964   6.624   8.754 -0.1962 -0.9203  0.5873
  942MOL0     C27097   0.977   6.606   8.602 -0.1927 -0.7431 -0.1311
  942MOL0     C27098   1.115   6.628   8.549  0.3623  0.5331  0.6687
  942MOL0     C27099   1.132   6.583   8.410 -0.1877  0.5767  0.5195
  942MOL0     C27100   1.173   6.558   8.298  0.4357 -0.0875 -0.9257
  942MOL0     C27101   0.563   6.422   8.919  0.0446 -0.8070  0.5671
  942MOL0     C27102   0.507   6.317   8.990  0.4573  0.2353 -0.0852
  942MOL0     H27103   0.479   5.950   9.327  2.8881  0.9424  0.6494
  942MOL0     H27104   0.455   5.742   9.440 -0.8229 -0.9474 -0.6307
  942MOL0     H27105   0.452   5.368   9.208  1.6831 -0.7637 -2.0308
  942MOL0     H27106   0.624   5.388   9.234 -0.2023  0.0731  0.5632
  942MOL0     H27107   0.565   5.175   9.327 -1.8365 -1.4774  1.6186
  942MOL0     H27108   0.607   5.275   9.466  1.2065  2.0723 -1.2740
  942MOL0     H27109   0.382   5.328   9.529  1.0129  0.0356  1.0658
  942MOL0     H27110   0.323   5.277   9.372 -0.6453 -2.6726  0.3728
  942MOL0     H27111   0.383   5.035   9.418  0.9662 -0.9937  0.0570
  942MOL0     H27112   0.431   5.072   9.574 -2.8205 -1.4679  2.3625
  942MOL0     H27113   0.202   5.160   9.628 -3.0387 -2.0050  0.3894
  942MOL0     H27114   0.148   5.141   9.466  1.7437  0.3978 -0.0165
  942MOL0     H27115   0.171   4.890   9.496  3.3633 -0.2464 -1.3824
  942MOL0     H27116   0.253   4.921   9.653 -0.1635  0.9922  0.2225
  942MOL0     H27117   0.014   5.024   9.730 -0.7146 -1.9548  2.8230
  942MOL0     H27118  -0.038   4.963   9.576 -0.3936 -0.7740 -0.5081
  942MOL0     H27119  -0.057   4.844   9.828  0.1586 -1.5797  0.7865
  942MOL0     H27120   0.108   4.802   9.798  0.3366 -1.2059 -0.1422
  942MOL0     H27121  -0.052   4.542   9.815 -0.4647 -1.4928 -0.8971
  942MOL0     H27122  -0.065   4.310   9.525  5.1442  5.1977  0.0519
  942MOL0     H27123  -0.136   4.313   9.683  1.3698 -0.7214 -0.3947
  942MOL0     H27124  -0.320   4.244   9.517 -1.5603  0.2586 -0.4937
  942MOL0     H27125  -0.263   4.386   9.416 -0.9180 -0.0187 -0.2429
  942MOL0     H27126  -0.368   4.546   9.580  1.9397  0.3879  1.9669
  942MOL0     H27127  -0.402   4.412   9.688  1.5158 -1.2315  0.2589
  942MOL0     H27128  -0.538   4.295   9.520  1.3416  1.6656  4.6744
  942MOL0     H27129  -0.492   4.413   9.391 -1.7873 -1.0819 -1.5537
  942MOL0     H27130  -0.732   4.259   9.454  1.2545  0.5076  2.4690
  942MOL0     H27131  -1.015   4.115   9.520  2.2511  0.3961  2.0314
  942MOL0     H27132  -1.068   4.193   9.378  0.2551 -1.9438 -0.6972
  942MOL0     H27133  -0.905   4.139   9.393  0.4701 -0.8607  1.5140
  942MOL0     H27134  -1.449   4.479   9.474 -0.1230  0.9933 -0.6527
  942MOL0     H27135  -1.659   4.599   9.505 -2.6281  0.0209  1.9950
  942MOL0     H27136  -1.751   4.721   9.925  1.1313  1.1040  0.2575
  942MOL0     H27137  -1.692   4.873   9.848  0.1257  0.0381 -1.9722
  942MOL0     H27138  -1.915   4.929   9.782 -0.6120 -0.4590  0.3691
  942MOL0     H27139  -1.980   4.767   9.818  0.9173  0.6203 -0.8014
  942MOL0     H27140  -1.846   4.902  10.048 -0.2194 -3.1157  0.8042
  942MOL0     H27141  -1.986   4.798  10.038  0.3044 -1.6090 -0.8997
  942MOL0     H27142  -1.983   5.104  10.008  1.9857 -1.3420  0.8515
  942MOL0     H27143  -2.114   5.011   9.923 -0.2055 -1.7689  0.0428
  942MOL0     H27144  -2.044   4.970  10.213 -1.4000  0.0512  0.0490
  942MOL0     H27145  -2.176   4.900  10.125  0.3537 -1.0824  1.1990
  942MOL0     H27146  -2.119   5.183  10.229  2.4350 -0.0324 -0.8693
  942MOL0     H27147  -2.253   5.153  10.107  1.0289  2.3699  1.8534
  942MOL0     H27148  -2.317   5.181  10.337 -1.6702 -0.7728  0.0612
  942MOL0     H27149  -2.217   5.028  10.377 -1.9463 -1.0742  0.0069
  942MOL0     H27150  -2.459   4.973  10.355  0.4371 -0.7913  0.9387
  942MOL0     H27151  -2.343   4.907  10.236 -0.0833 -0.7427 -0.4342
  942MOL0     H27152  -1.531   4.729   9.899  0.1658  0.9726 -0.2953
  942MOL0     H27153  -1.298   4.666   9.833 -0.1395  0.4018 -0.1164
  942MOL0     H27154  -1.011   4.601   9.689 -0.9535  0.1856 -2.5022
  942MOL0     H27155  -0.756   4.607   9.697  5.1774 -3.2521  0.4140
  942MOL0     H27156   0.577   5.527   9.088 -3.0281 -1.3721 -0.2522
  942MOL0     H27157   0.645   5.738   8.997  0.7175 -1.0734 -0.5531
  942MOL0     H27158   0.757   6.089   8.944  1.4078  1.1250  0.3586
  942MOL0     H27159   0.842   6.260   8.811  1.0755 -0.4410  0.6590
  942MOL0     H27160   0.900   6.533   8.927  1.4767  0.7231 -1.0040
  942MOL0     H27161   0.934   6.420   8.793 -1.2832 -0.3393  2.1967
  942MOL0     H27162   1.065   6.612   8.795  0.0881  0.1109  0.2003
  942MOL0     H27163   0.924   6.723   8.777  4.5025  1.2440  0.4759
  942MOL0     H27164   0.910   6.683   8.563  0.8133 -0.8297 -2.1210
  942MOL0     H27165   0.939   6.507   8.574  3.5354 -1.6127 -2.7992
  942MOL0     H27166   1.189   6.571   8.605 -0.3679 -0.3184  0.8005
  942MOL0     H27167   1.141   6.734   8.548 -0.2528  0.6858 -0.4931
  942MOL0     H27168   1.211   6.530   8.202  2.1549 -0.7199 -0.0963
  942MOL0     H27169   0.522   6.519   8.895  1.4426 -0.8434 -2.5099
  942MOL0     H27170   0.407   6.332   9.027 -0.7532 -2.2939 -2.0484
  943MOL0     O27171   1.575  11.126   3.523  0.3963 -0.0734  0.6361
  943MOL0     C27172   1.631  11.139   3.634 -0.4818 -0.5962  0.3199
  943MOL0     O27173   1.577  11.197   3.753  0.5820  0.1947  0.3196
  943MOL0     C27174   1.451  11.250   3.760 -0.3435 -0.2698  0.5764
  943MOL0     C27175   1.433  11.387   3.783  0.3762 -0.6206 -0.0137
  943MOL0     C27176   1.305  11.446   3.760 -0.4132 -0.6379 -0.3187
  943MOL0     C27177   1.194  11.371   3.706 -0.1759  0.2706 -0.7147
  943MOL0     O27178   1.077  11.433   3.686 -0.9063 -0.2649  0.8688
  943MOL0     C27179   0.976  11.378   3.773 -0.1082 -0.3928  0.3341
  943MOL0     C27180   1.015  11.346   3.916  0.0349 -0.5130  0.0805
  943MOL0     C27181   0.895  11.338   4.008 -0.1867  0.2254 -0.3297
  943MOL0     C27182   0.846  11.193   4.014  1.0299  0.0702  0.3634
  943MOL0     C27183   0.720  11.171   4.100 -0.4326  0.2637 -0.4918
  943MOL0     C27184   0.659  11.026   4.110  0.1295 -0.3193  0.1462
  943MOL0     C27185   0.554  11.003   4.218  0.0917 -0.2912  0.0262
  943MOL0     C27186   0.610  11.017   4.362 -0.3176 -0.5699  0.3879
  943MOL0     N27187   0.703  10.917   4.406  0.0706 -0.3780 -0.6757
  943MOL0     C27188   0.728  10.893   4.542  0.0268  0.7854 -0.1938
  943MOL0     C27189   0.805  10.776   4.551  0.3144 -0.6877 -0.2202
  943MOL0     C27190   0.850  10.714   4.677  0.2089  0.1560 -0.1518
  943MOL0     C27191   0.822  10.562   4.668 -0.4866  0.6559 -0.1540
  943MOL0     C27192   0.680  10.522   4.657  0.1703 -0.2144 -0.3069
  943MOL0     C27193   0.626  10.477   4.782 -0.3996  0.0360 -0.1219
  943MOL0     O27194   0.485  10.459   4.764  0.3127 -0.3168  0.3873
  943MOL0     C27195   0.400  10.469   4.877 -0.6000 -0.0581  0.8615
  943MOL0     C27196   0.446  10.496   5.007  0.3997 -0.7143 -1.0488
  943MOL0     C27197   0.361  10.488   5.111  0.7741  0.1674 -0.0495
  943MOL0     C27198   0.419  10.523   5.247 -0.6142  0.8122 -0.6756
  943MOL0     C27199   0.222  10.460   5.094 -0.8260  0.3862 -0.3844
  943MOL0     C27200   0.130  10.457   5.211  0.2943 -0.3952  0.0732
  943MOL0     O27201   0.004  10.503   5.193 -0.4485  0.1780  0.5457
  943MOL0     C27202  -0.110  10.471   5.268  0.0300 -0.0588 -0.7154
  943MOL0     C27203  -0.114  10.380   5.378 -0.3669 -0.3128 -0.1832
  943MOL0     C27204  -0.237  10.333   5.427 -0.2013 -0.2531  0.0960
  943MOL0     C27205  -0.356  10.393   5.376  0.7141  0.8667  0.2347
  943MOL0     O27206  -0.480  10.356   5.415 -0.2769 -0.4578  0.8831
  943MOL0     C27207  -0.527  10.237   5.347 -0.8575  1.0411 -0.5680
  943MOL0     C27208  -0.595  10.279   5.221  0.2099 -0.3607  0.0751
  943MOL0     C27209  -0.714  10.369   5.262 -0.5093 -0.1630 -0.0618
  943MOL0     C27210  -0.827  10.362   5.152 -0.0667 -0.2165 -0.8128
  943MOL0     C27211  -0.965  10.414   5.194  0.1916 -0.3140  0.2352
  943MOL0     C27212  -0.958  10.542   5.268 -0.5132 -0.3043  1.4290
  943MOL0     C27213  -1.093  10.618   5.252 -0.2508 -0.0589 -0.2775
  943MOL0     C27214  -1.111  10.721   5.365  0.9751 -0.0816 -0.5028
  943MOL0    Cl27215  -1.259  10.816   5.339 -0.0458 -0.1097 -0.2689
  943MOL0     C27216  -0.350  10.488   5.274 -0.1331  0.0758 -0.4991
  943MOL0     C27217  -0.224  10.531   5.224  0.2937 -0.0889 -0.4897
  943MOL0     O27218   0.168  10.416   5.315 -0.2033  0.2769 -0.4913
  943MOL0     C27219   0.179  10.432   4.961  0.0578 -0.0631 -0.7498
  943MOL0     C27220   0.264  10.442   4.853 -0.0834 -0.7501  0.1822
  943MOL0     N27221   0.825  10.745   4.416 -0.5975 -0.2440  0.1208
  943MOL0     N27222   0.770  10.828   4.340 -1.0292 -0.0854  0.2563
  943MOL0     C27223   1.216  11.232   3.684  0.3928 -0.7106  0.0915
  943MOL0     C27224   1.341  11.176   3.709  0.5037  0.4967 -0.6281
  943MOL0     C27225   1.757  11.078   3.657 -0.2744 -0.1762 -0.8739
  943MOL0     C27226   1.805  10.973   3.568  0.4774  0.3809 -1.0153
  943MOL0     C27227   1.928  10.904   3.597  0.8841 -0.1678 -0.3249
  943MOL0     C27228   1.999  10.927   3.713  0.4860  1.1323 -0.1906
  943MOL0     O27229   2.110  10.860   3.753  0.0097 -0.3041  0.4276
  943MOL0     C27230   2.196  10.796   3.649  0.5286 -0.3034 -0.9198
  943MOL0     C27231   2.135  10.659   3.611  0.2884 -0.0362  0.8771
  943MOL0     C27232   2.247  10.554   3.643  0.2935 -0.6216  0.1859
  943MOL0     C27233   2.258  10.535   3.796 -0.3310 -0.3175 -0.5011
  943MOL0     C27234   2.370  10.442   3.827 -0.3654 -1.0779  1.6686
  943MOL0     C27235   2.456  10.367   3.860  0.8251  0.2606 -0.2318
  943MOL0     C27236   1.955  11.026   3.795  0.3437 -0.1744 -0.5470
  943MOL0     C27237   1.833  11.099   3.774  0.3839  0.0035  0.5237
  943MOL0     H27238   1.513  11.451   3.818 -2.1136  1.8207  1.6927
  943MOL0     H27239   1.290  11.552   3.777 -2.0274 -0.8588 -0.1724
  943MOL0     H27240   0.892  11.448   3.775 -0.1372 -0.4329  0.5909
  943MOL0     H27241   0.930  11.289   3.731 -2.0065  1.2166 -1.1801
  943MOL0     H27242   1.080  11.258   3.912 -0.9079 -1.2991 -4.9159
  943MOL0     H27243   1.073  11.432   3.951 -2.0965  0.6563  0.9654
  943MOL0     H27244   0.912  11.386   4.105 -1.2469 -1.2583  0.6189
  943MOL0     H27245   0.808  11.395   3.972 -0.9659 -0.1778  0.8539
  943MOL0     H27246   0.822  11.161   3.912  1.0307  0.5150  0.2230
  943MOL0     H27247   0.925  11.126   4.048  1.7620  0.7242 -0.0278
  943MOL0     H27248   0.735  11.208   4.201 -1.3427  1.5366 -0.7898
  943MOL0     H27249   0.641  11.233   4.055 -0.4920  0.7746  0.3078
  943MOL0     H27250   0.623  10.984   4.016  1.6695 -1.4651  0.0325
  943MOL0     H27251   0.744  10.960   4.133  1.2959  1.8473  2.4646
  943MOL0     H27252   0.473  11.075   4.204 -0.7744 -1.1813  0.3398
  943MOL0     H27253   0.507  10.906   4.197 -2.6877  0.9735 -0.0355
  943MOL0     H27254   0.528  11.002   4.433 -2.2897  0.9618 -1.4202
  943MOL0     H27255   0.654  11.114   4.385 -1.1771  0.0206 -0.3637
  943MOL0     H27256   0.700  10.958   4.623  3.9664  2.2279  0.2340
  943MOL0     H27257   0.956  10.733   4.697  0.0321  0.8829  0.1282
  943MOL0     H27258   0.794  10.748   4.765 -0.4056 -0.5422 -0.2632
  943MOL0     H27259   0.875  10.522   4.754  2.4191  0.2810 -1.9871
  943MOL0     H27260   0.884  10.520   4.588  0.3561  2.5229 -0.5482
  943MOL0     H27261   0.658  10.438   4.590  0.0727  0.2789 -0.9040
  943MOL0     H27262   0.634  10.617   4.628  1.9283  2.2782  4.0528
  943MOL0     H27263   0.652  10.550   4.860 -0.3937 -1.6092  1.4932
  943MOL0     H27264   0.656  10.374   4.805 -0.2345 -0.9530 -4.0314
  943MOL0     H27265   0.547  10.520   5.039  0.4069  2.3096 -2.8643
  943MOL0     H27266   0.502  10.594   5.239  1.8522 -1.8843 -0.6992
  943MOL0     H27267   0.355  10.544   5.333 -0.9042 -2.0797 -0.0740
  943MOL0     H27268   0.475  10.435   5.280 -2.2486  0.6458  1.9187
  943MOL0     H27269  -0.025  10.344   5.428  0.8697  3.2508  0.4713
  943MOL0     H27270  -0.238  10.269   5.515 -0.8463  1.3598  1.3132
  943MOL0     H27271  -0.446  10.169   5.320 -1.3771 -0.0566  0.5323
  943MOL0     H27272  -0.594  10.192   5.422 -1.0689 -2.0296 -2.4259
  943MOL0     H27273  -0.534  10.339   5.152  0.9847 -2.0249 -0.7542
  943MOL0     H27274  -0.624  10.185   5.172  0.8285 -0.3335 -0.3486
  943MOL0     H27275  -0.680  10.473   5.260 -1.3824  0.1175 -0.7570
  943MOL0     H27276  -0.744  10.341   5.363  1.9468  1.6004  1.2801
  943MOL0     H27277  -0.793  10.405   5.057  1.9322 -1.6027 -0.7968
  943MOL0     H27278  -0.840  10.257   5.123  0.7457 -1.6591  3.3865
  943MOL0     H27279  -1.009  10.338   5.260  2.8566 -0.2240  2.3144
  943MOL0     H27280  -1.021  10.422   5.100  1.4777 -2.3729 -0.7871
  943MOL0     H27281  -0.938  10.521   5.374 -0.3216 -1.0092  1.2556
  943MOL0     H27282  -0.880  10.606   5.225 -1.0093  0.0792  1.1053
  943MOL0     H27283  -1.184  10.557   5.252 -0.9355  0.9182  0.9848
  943MOL0     H27284  -1.086  10.669   5.155 -0.0955 -1.0255 -0.7907
  943MOL0     H27285  -1.027  10.790   5.373  0.3980  0.5139  0.9175
  943MOL0     H27286  -1.121  10.676   5.465  0.0947  0.1817 -0.4633
  943MOL0     H27287  -0.443  10.529   5.236 -1.3256  1.0386  3.0750
  943MOL0     H27288  -0.214  10.597   5.139  2.6834  0.7381  0.3504
  943MOL0     H27289   0.076  10.402   4.943  0.0008 -1.5901  1.7086
  943MOL0     H27290   0.218  10.428   4.756 -3.3206 -1.9314  1.7289
  943MOL0     H27291   1.140  11.164   3.648  0.4312  0.5054 -2.5410
  943MOL0     H27292   1.355  11.069   3.698  0.1274  0.3335  0.3707
  943MOL0     H27293   1.748  10.952   3.477 -0.1250 -0.8396 -0.3725
  943MOL0     H27294   1.964  10.838   3.519 -1.5836 -1.6488 -0.3445
  943MOL0     H27295   2.209  10.858   3.559 -0.6248  1.3508  0.0025
  943MOL0     H27296   2.290  10.788   3.704 -0.5627  0.2511  1.1059
  943MOL0     H27297   2.116  10.661   3.503  0.4607  2.0094  0.8580
  943MOL0     H27298   2.037  10.643   3.656 -0.0679  2.0569  0.9459
  943MOL0     H27299   2.340  10.591   3.598 -1.0264  0.6255 -1.6337
  943MOL0     H27300   2.238  10.456   3.594  2.4117  0.3961 -2.5492
  943MOL0     H27301   2.168  10.497   3.846  1.2123 -1.5861  1.4230
  943MOL0     H27302   2.282  10.620   3.861  3.5399 -0.3888 -1.6240
  943MOL0     H27303   2.511  10.284   3.902 -1.9329 -1.0989  0.9677
  943MOL0     H27304   2.014  11.040   3.885 -1.0026  0.2709  0.3046
  943MOL0     H27305   1.786  11.169   3.842  1.2431  1.9388 -0.8011
  944MOL0     O27306  11.406   0.612  10.931  0.1943  0.6558 -0.2173
  944MOL0     C27307  11.483   0.689  10.990  0.4091  0.0275  0.2372
  944MOL0     O27308  11.456   0.758  11.105  0.9237 -0.2321  0.2415
  944MOL0     C27309  11.341   0.737  11.165 -0.0775  0.8639 -1.4937
  944MOL0     C27310  11.340   0.672  11.283 -0.0042  0.4430  0.4574
  944MOL0     C27311  11.224   0.652  11.351  0.2488 -0.1273 -0.5545
  944MOL0     C27312  11.104   0.701  11.305  0.7886 -0.1396 -0.6384
  944MOL0     O27313  10.977   0.686  11.356 -0.1200  0.0312  0.3038
  944MOL0     C27314  10.950   0.575  11.439 -0.9153 -0.7604  1.0171
  944MOL0     C27315  10.809   0.614  11.491 -0.0223  1.0582 -0.5000
  944MOL0     C27316  10.814   0.714  11.612 -0.6174  0.6722 -0.1003
  944MOL0     C27317  10.886   0.845  11.582  0.1792 -0.5308 -0.0449
  944MOL0     C27318  10.841   0.955  11.688  0.5491 -0.2526  0.2770
  944MOL0     C27319  10.875   0.933  11.833  0.8529  0.7392  0.5083
  944MOL0     C27320  11.025   0.950  11.862  0.1721 -0.2127  0.0254
  944MOL0     C27321  11.066   0.948  12.011 -0.4752 -1.1064 -0.4655
  944MOL0     N27322  11.207   0.968  12.021 -1.1708 -0.4954  0.7088
  944MOL0     C27323  11.309   0.878  12.035 -0.2878 -0.1950  0.3560
  944MOL0     C27324  11.413   0.950  12.065  0.2754  0.1066  0.3877
  944MOL0     C27325  11.555   0.912  12.101 -0.7378  0.1144  0.1662
  944MOL0     C27326  11.544   0.838  12.238  0.2510 -0.4893 -0.4889
  944MOL0     C27327  11.461   0.703  12.232  0.2212  0.9792 -0.1676
  944MOL0     C27328  11.488   0.604  12.346 -0.1943  0.0182 -0.5409
  944MOL0     O27329  11.516   0.676  12.472  0.7658 -0.3006 -1.0487
  944MOL0     C27330  11.409   0.747  12.535  0.6909  0.5053 -0.0032
  944MOL0     C27331  11.431   0.877  12.580  0.9586  0.4290 -0.0254
  944MOL0     C27332  11.336   0.937  12.659 -0.4585 -0.0208 -0.0628
  944MOL0     C27333  11.358   1.087  12.690  0.4287  0.1597 -0.6107
  944MOL0     C27334  11.222   0.865  12.711 -0.1482  0.4569  0.4957
  944MOL0     C27335  11.124   0.914  12.819 -0.8059 -0.2715  0.6471
  944MOL0     O27336  11.007   0.840  12.832  0.2098 -0.3580  0.0814
  944MOL0     C27337  10.934   0.886  12.936  0.3476 -0.0733  0.0542
  944MOL0     C27338  10.817   0.960  12.910  0.3033  0.4184 -0.1701
  944MOL0     C27339  10.732   0.995  13.018  0.4076 -0.2733  0.3402
  944MOL0     C27340  10.766   0.967  13.151 -0.6650  0.4191  0.8519
  944MOL0     O27341  10.682   0.994  13.260  0.0416 -0.3128  0.2604
  944MOL0     C27342  10.662   0.878  13.348  0.3032 -0.7055  0.2378
  944MOL0     C27343  10.540   0.898  13.438  0.4077  0.0208 -0.2275
  944MOL0     C27344  10.577   1.001  13.543 -0.4003  0.7152 -0.5468
  944MOL0     C27345  10.463   1.041  13.642  0.9308 -0.1099  0.6544
  944MOL0     C27346  10.493   1.168  13.724  0.3795  0.3288 -0.5659
  944MOL0     C27347  10.366   1.205  13.804  0.1119 -0.7175  1.8670
  944MOL0     C27348  10.365   1.340  13.879 -0.0893 -0.1150 -0.1513
  944MOL0     C27349  10.226   1.395  13.921  0.3774  0.3099 -0.1408
  944MOL0    Cl27350  10.229   1.558  13.997 -0.6766 -0.3792  0.3203
  944MOL0     C27351  10.886   0.893  13.173  0.1213  0.3739  0.2161
  944MOL0     C27352  10.965   0.855  13.070 -0.2192 -0.6431 -1.3151
  944MOL0     O27353  11.156   1.008  12.890 -0.6230 -1.4417  0.3515
  944MOL0     C27354  11.197   0.741  12.652 -0.0128  0.5623  0.3074
  944MOL0     C27355  11.289   0.679  12.568  0.2474 -0.2772  0.5435
  944MOL0     N27356  11.378   1.083  12.090  0.6341  0.4019  0.0201
  944MOL0     N27357  11.255   1.094  12.055  0.3546  0.3931 -0.2870
  944MOL0     C27358  11.110   0.783  11.190 -0.2091 -0.8318 -0.5525
  944MOL0     C27359  11.228   0.793  11.119  0.0648 -0.1191 -0.0168
  944MOL0     C27360  11.601   0.716  10.901 -0.5088  0.3065 -0.3281
  944MOL0     C27361  11.623   0.641  10.789 -0.1940  0.6400 -0.2099
  944MOL0     C27362  11.732   0.661  10.699 -0.1379  0.2799  1.4129
  944MOL0     C27363  11.828   0.759  10.730  0.0557  0.0421  0.1945
  944MOL0     O27364  11.939   0.769  10.648 -0.6462  0.0826 -0.3365
  944MOL0     C27365  12.018   0.884  10.656 -0.8159 -0.6778  0.9583
  944MOL0     C27366  12.079   0.900  10.514  0.1970 -0.1332 -0.3997
  944MOL0     C27367  11.972   0.938  10.411  0.1019 -0.4624 -0.0602
  944MOL0     C27368  12.049   0.953  10.274  0.3563 -0.4605 -0.8166
  944MOL0     C27369  11.948   0.952  10.169 -0.3664  0.2530 -0.7242
  944MOL0     C27370  11.856   0.945  10.087  0.0323  0.1758 -0.2729
  944MOL0     C27371  11.806   0.835  10.843 -0.9060 -0.5720  1.0496
  944MOL0     C27372  11.694   0.823  10.927  0.6892  0.2109 -0.2505
  944MOL0     H27373  11.440   0.654  11.321  0.2402  1.6232  0.4039
  944MOL0     H27374  11.238   0.616  11.452  1.8620  3.5446  0.6943
  944MOL0     H27375  10.935   0.493  11.368  0.8692 -0.5502  0.3490
  944MOL0     H27376  11.033   0.552  11.507  0.9212  0.9710 -0.5251
  944MOL0     H27377  10.755   0.653  11.404 -0.5292  0.5352 -0.4249
  944MOL0     H27378  10.754   0.524  11.520  0.3869  1.2785  1.0389
  944MOL0     H27379  10.713   0.731  11.652  0.6530  2.2960  2.7345
  944MOL0     H27380  10.873   0.662  11.688  0.6905  0.8037 -0.9873
  944MOL0     H27381  10.994   0.831  11.588  0.3829  0.0867 -1.6409
  944MOL0     H27382  10.873   0.881  11.480  0.2044 -1.6757 -0.4694
  944MOL0     H27383  10.899   1.043  11.658  2.7905 -0.4010  3.5866
  944MOL0     H27384  10.734   0.973  11.679  1.0087  3.5306  0.7156
  944MOL0     H27385  10.824   1.020  11.877 -0.4332  0.8855 -1.1527
  944MOL0     H27386  10.839   0.834  11.863  1.4458  0.7240  1.2088
  944MOL0     H27387  11.080   0.877  11.801 -2.3626  0.6204 -3.5393
  944MOL0     H27388  11.059   1.038  11.806  0.9216 -0.8839 -0.6150
  944MOL0     H27389  11.042   0.858  12.069 -1.6692  0.0598  0.9149
  944MOL0     H27390  11.000   1.025  12.050  0.4687 -1.1868  1.4006
  944MOL0     H27391  11.296   0.771  12.020 -0.7691 -0.0514 -0.2912
  944MOL0     H27392  11.592   0.850  12.019 -1.3502 -0.9899  0.7003
  944MOL0     H27393  11.616   1.002  12.114  2.6236 -2.2154  2.1083
  944MOL0     H27394  11.495   0.903  12.311 -1.7378 -2.6998  0.2728
  944MOL0     H27395  11.645   0.815  12.273  0.0525 -0.6581 -0.0274
  944MOL0     H27396  11.477   0.672  12.128  2.5858  0.3359  0.3183
  944MOL0     H27397  11.354   0.727  12.236  0.2410  0.9145  1.2238
  944MOL0     H27398  11.572   0.539  12.324 -0.9548 -0.0429 -3.6381
  944MOL0     H27399  11.397   0.543  12.356  0.2130 -0.5448 -0.2392
  944MOL0     H27400  11.525   0.929  12.565  0.4495  1.4633  0.2747
  944MOL0     H27401  11.262   1.137  12.676 -1.6677 -3.3627  0.0624
  944MOL0     H27402  11.395   1.096  12.793 -3.1320 -1.7425  1.0048
  944MOL0     H27403  11.435   1.130  12.626  2.6837 -2.4532  0.1472
  944MOL0     H27404  10.791   0.985  12.807 -0.0943 -0.7659 -0.3742
  944MOL0     H27405  10.640   1.053  13.009  0.4200 -0.2539  0.3367
  944MOL0     H27406  10.639   0.794  13.283 -2.5485  0.7979 -0.8813
  944MOL0     H27407  10.747   0.852  13.411  0.4731  0.2899  0.4482
  944MOL0     H27408  10.453   0.929  13.380  0.3597  1.1155  0.4129
  944MOL0     H27409  10.518   0.807  13.495 -1.1474  0.0889 -0.6665
  944MOL0     H27410  10.600   1.091  13.484  0.9341  2.2926  2.1833
  944MOL0     H27411  10.673   0.969  13.585 -0.3929 -1.1043 -1.8431
  944MOL0     H27412  10.372   1.061  13.584  1.9766 -1.3510 -1.5242
  944MOL0     H27413  10.433   0.961  13.710 -1.2801  2.0739  2.4594
  944MOL0     H27414  10.535   1.243  13.655 -0.5225  1.7314  0.3490
  944MOL0     H27415  10.572   1.136  13.793 -0.4432 -1.2788 -0.3267
  944MOL0     H27416  10.280   1.209  13.736  2.5993 -0.7814 -1.5372
  944MOL0     H27417  10.351   1.132  13.885 -1.6309 -3.3854 -0.6492
  944MOL0     H27418  10.401   1.414  13.806 -2.0708  0.8349 -0.2394
  944MOL0     H27419  10.428   1.335  13.968 -0.2936 -0.9972 -0.0520
  944MOL0     H27420  10.179   1.326  13.992 -1.1084 -0.1834 -1.5403
  944MOL0     H27421  10.167   1.398  13.829  0.1240  3.2217  0.0459
  944MOL0     H27422  10.915   0.861  13.272  2.2976  2.7059  0.4195
  944MOL0     H27423  11.046   0.789  13.095 -1.2447 -1.5624 -0.3075
  944MOL0     H27424  11.106   0.685  12.671  0.6430 -0.9344 -0.7781
  944MOL0     H27425  11.268   0.577  12.537  1.1820 -0.3363  0.0589
  944MOL0     H27426  11.020   0.836  11.159 -1.3312 -0.7316  2.4882
  944MOL0     H27427  11.242   0.857  11.033 -0.7129 -0.2503 -0.2449
  944MOL0     H27428  11.556   0.558  10.769  1.3453 -1.2031  1.8315
  944MOL0     H27429  11.741   0.591  10.617 -1.0592 -0.0843  1.6133
  944MOL0     H27430  11.967   0.979  10.672 -0.7549 -0.4025 -0.3368
  944MOL0     H27431  12.101   0.860  10.724  1.1560  0.2882 -0.9565
  944MOL0     H27432  12.118   0.804  10.478 -2.6701 -1.6496  0.2663
  944MOL0     H27433  12.151   0.982  10.527  0.0988 -0.2410  0.9747
  944MOL0     H27434  11.921   1.031  10.439  0.2910 -0.8749  1.7737
  944MOL0     H27435  11.906   0.851  10.398  0.0091 -0.3279 -0.5315
  944MOL0     H27436  12.130   0.889  10.240  2.1753  1.1896  0.2174
  944MOL0     H27437  12.088   1.055  10.272 -2.3587  0.6699 -1.6253
  944MOL0     H27438  11.774   0.927  10.020  0.1338  0.1196 -0.3845
  944MOL0     H27439  11.880   0.910  10.873 -1.6707  0.8202 -0.3964
  944MOL0     H27440  11.694   0.888  11.014  0.1946 -0.9467  0.6369
  945MOL0     O27441  10.446   3.955  10.243  0.3900  0.4066 -0.1984
  945MOL0     C27442  10.430   4.004  10.132 -0.2920 -0.3494  0.3981
  945MOL0     O27443  10.308   4.053  10.082 -0.4419  0.1941  0.2560
  945MOL0     C27444  10.217   4.103  10.175 -0.3547  0.7751  0.4359
  945MOL0     C27445  10.208   4.094  10.310 -0.7766  0.7529  0.6463
  945MOL0     C27446  10.099   4.140  10.375  0.3758 -0.0297  0.5211
  945MOL0     C27447   9.987   4.193  10.313 -0.3244  0.8720 -0.3092
  945MOL0     O27448   9.866   4.221  10.375  0.4258  0.2110  0.3003
  945MOL0     C27449   9.850   4.180  10.515  0.5980 -0.3022 -0.2500
  945MOL0     C27450   9.700   4.153  10.557 -0.2426 -0.7745  0.4346
  945MOL0     C27451   9.609   4.272  10.559 -0.5479 -0.1461  0.3081
  945MOL0     C27452   9.642   4.378  10.671 -0.8431 -0.8093 -0.2208
  945MOL0     C27453   9.538   4.489  10.683 -0.2909 -1.1714  0.1980
  945MOL0     C27454   9.402   4.433  10.743 -0.5508  0.6847  0.0525
  945MOL0     C27455   9.289   4.539  10.754  0.3974 -0.4733 -0.0416
  945MOL0     C27456   9.177   4.475  10.830  0.8951  0.1185  0.0615
  945MOL0     N27457   9.051   4.551  10.853  0.0339 -0.3333  0.0246
  945MOL0     C27458   8.965   4.602  10.752  0.1565  0.1269  0.0042
  945MOL0     C27459   8.870   4.664  10.831  0.7502 -0.3663  1.4175
  945MOL0     C27460   8.734   4.716  10.780  0.0161 -0.2225  0.2692
  945MOL0     C27461   8.753   4.785  10.636 -0.3566  0.0893 -0.5144
  945MOL0     C27462   8.613   4.869  10.607  0.3438  0.0054  0.0402
  945MOL0     C27463   8.615   4.938  10.480 -1.2536  0.3548  0.0174
  945MOL0     O27464   8.502   5.023  10.472  0.6362 -0.2109 -0.2970
  945MOL0     C27465   8.474   5.108  10.370  0.8883  1.0636 -0.0726
  945MOL0     C27466   8.552   5.117  10.256 -0.1618  0.1598 -0.3444
  945MOL0     C27467   8.513   5.188  10.141 -0.1324 -0.3864 -0.1729
  945MOL0     C27468   8.617   5.210  10.029  0.6305  0.9556  0.5019
  945MOL0     C27469   8.383   5.247  10.138  0.0971  0.5060  0.3081
  945MOL0     C27470   8.328   5.294  10.020 -0.0018  0.1156 -1.0742
  945MOL0     O27471   8.236   5.386  10.047 -0.6982 -1.1273 -0.6189
  945MOL0     C27472   8.153   5.440   9.950 -0.1273 -0.1494  0.6517
  945MOL0     C27473   8.091   5.354   9.862 -0.1490  0.5669  0.2301
  945MOL0     C27474   8.022   5.394   9.750 -0.8487  0.4274 -0.8211
  945MOL0     C27475   8.014   5.530   9.727  0.0775 -0.1796  0.5254
  945MOL0     O27476   7.964   5.587   9.618 -0.2057  0.2909 -0.4594
  945MOL0     C27477   7.897   5.506   9.513 -0.1538  0.2723 -0.6619
  945MOL0     C27478   7.760   5.462   9.556  0.5012 -0.3785  0.4529
  945MOL0     C27479   7.687   5.393   9.435 -0.7455  0.6088  0.2129
  945MOL0     C27480   7.557   5.326   9.486  0.2230  0.2871 -0.1358
  945MOL0     C27481   7.509   5.265   9.357  1.2636 -0.5406  0.5926
  945MOL0     C27482   7.392   5.175   9.397  0.0606 -0.3125 -0.5619
  945MOL0     C27483   7.340   5.079   9.296  0.8623 -0.1878  0.3179
  945MOL0     C27484   7.196   5.041   9.320  0.1745 -0.5705 -0.2306
  945MOL0    Cl27485   7.139   4.957   9.174 -0.1341 -0.1006  0.0833
  945MOL0     C27486   8.062   5.623   9.821 -0.5615  0.1910 -0.7751
  945MOL0     C27487   8.144   5.577   9.927  0.1372 -0.1281 -0.8277
  945MOL0     O27488   8.359   5.254   9.914 -0.4231  1.0795  0.0824
  945MOL0     C27489   8.306   5.244  10.257 -0.4400  0.4570  0.2172
  945MOL0     C27490   8.353   5.175  10.370 -0.3459 -0.0355  0.0359
  945MOL0     N27491   8.910   4.666  10.963  0.7016 -0.5975 -0.2670
  945MOL0     N27492   9.007   4.598  10.980 -1.3205 -0.0705  0.4618
  945MOL0     C27493   9.996   4.215  10.175 -0.2878  0.2747 -0.2576
  945MOL0     C27494  10.111   4.172  10.105  0.2467  0.4524  0.1703
  945MOL0     C27495  10.548   4.033  10.051 -0.5153 -0.2621  0.4980
  945MOL0     C27496  10.540   4.089   9.922 -0.2149 -0.9026  0.6881
  945MOL0     C27497  10.651   4.135   9.852 -0.5126 -0.7327 -0.1049
  945MOL0     C27498  10.780   4.120   9.911  0.0103  0.5061  1.0145
  945MOL0     O27499  10.880   4.165   9.827  0.4292 -0.3244  0.1616
  945MOL0     C27500  11.018   4.132   9.862  0.8330  0.5878  0.2874
  945MOL0     C27501  11.062   3.988   9.832  0.4700  0.2153 -0.2278
  945MOL0     C27502  11.189   3.977   9.752 -0.2356 -0.3817  0.1091
  945MOL0     C27503  11.313   4.018   9.823 -0.0140 -0.3477 -0.2754
  945MOL0     C27504  11.421   4.029   9.725 -0.3086 -0.5683 -0.7111
  945MOL0     C27505  11.504   4.053   9.642  1.0906  0.6113 -0.0311
  945MOL0     C27506  10.791   4.056  10.034  0.4464  1.1293  0.2255
  945MOL0     C27507  10.675   4.015  10.105 -0.4120  0.3182 -0.7705
  945MOL0     H27508  10.293   4.058  10.366  0.7702 -0.7975 -2.4665
  945MOL0     H27509  10.098   4.136  10.484  3.1000 -2.0580  0.5713
  945MOL0     H27510   9.904   4.086  10.531 -1.7894 -1.5202  1.1824
  945MOL0     H27511   9.887   4.257  10.582 -1.1652  0.1776  0.2208
  945MOL0     H27512   9.653   4.087  10.483 -1.5123  0.8508 -0.2700
  945MOL0     H27513   9.696   4.109  10.657  1.1710  0.1423  0.9257
  945MOL0     H27514   9.626   4.315  10.460  1.0335  2.4969  1.6263
  945MOL0     H27515   9.505   4.238  10.565 -1.5405  1.1946 -4.4900
  945MOL0     H27516   9.641   4.329  10.769  0.1379  0.2622  0.3557
  945MOL0     H27517   9.741   4.418  10.645  0.3120 -3.1015  0.3726
  945MOL0     H27518   9.568   4.565  10.755 -1.4249  1.9643 -2.4074
  945MOL0     H27519   9.527   4.539  10.586 -1.9263 -2.2468 -0.2026
  945MOL0     H27520   9.364   4.369  10.663 -1.3819  2.4293 -1.0286
  945MOL0     H27521   9.417   4.384  10.839  1.4397  0.4587 -0.3219
  945MOL0     H27522   9.327   4.630  10.802  1.4911 -0.9735  0.0828
  945MOL0     H27523   9.266   4.562  10.649  1.5140 -1.4431 -0.5221
  945MOL0     H27524   9.219   4.442  10.925 -1.5088 -0.5901  0.9668
  945MOL0     H27525   9.155   4.384  10.773 -0.4217  1.9652 -2.6454
  945MOL0     H27526   8.962   4.590  10.645  2.0411 -2.3499  0.1393
  945MOL0     H27527   8.663   4.634  10.768  0.1830 -0.0292 -3.0458
  945MOL0     H27528   8.699   4.795  10.846 -2.4364  0.8730 -2.1601
  945MOL0     H27529   8.768   4.709  10.560  1.1445 -0.3464  0.1675
  945MOL0     H27530   8.839   4.853  10.638 -0.6869  0.5187 -0.8006
  945MOL0     H27531   8.595   4.953  10.675 -0.2420  0.7314 -0.9756
  945MOL0     H27532   8.526   4.802  10.608 -1.7785  2.5617  0.5323
  945MOL0     H27533   8.632   4.868  10.398  1.0820 -0.0260  0.7649
  945MOL0     H27534   8.710   4.992  10.472  0.0215 -2.0430 -2.8509
  945MOL0     H27535   8.653   5.078  10.250  0.1168  0.5687  1.2475
  945MOL0     H27536   8.613   5.130   9.955  3.6763 -1.1569  2.4106
  945MOL0     H27537   8.610   5.310   9.985 -1.3706  1.1824  1.2548
  945MOL0     H27538   8.720   5.217  10.065  1.0494  0.1763 -0.4884
  945MOL0     H27539   8.106   5.248   9.876  1.8086  0.8486  0.5218
  945MOL0     H27540   7.989   5.314   9.684  1.6567 -3.5266  2.2411
  945MOL0     H27541   7.884   5.576   9.429  0.2045  2.5383  1.0514
  945MOL0     H27542   7.965   5.429   9.475 -0.7783 -0.5639 -0.0931
  945MOL0     H27543   7.781   5.393   9.639  0.4068  2.0197  2.5860
  945MOL0     H27544   7.695   5.543   9.591 -0.8030 -1.0152 -0.3869
  945MOL0     H27545   7.760   5.319   9.401 -1.2907  0.1799 -0.0441
  945MOL0     H27546   7.663   5.471   9.362  0.8755 -0.3028 -1.3936
  945MOL0     H27547   7.586   5.250   9.560 -0.7616 -0.1540 -0.1889
  945MOL0     H27548   7.482   5.395   9.528  0.9822  0.0003  1.8115
  945MOL0     H27549   7.582   5.205   9.303 -0.8973 -1.8560 -1.0173
  945MOL0     H27550   7.466   5.349   9.302 -1.9437 -0.3328  3.1211
  945MOL0     H27551   7.408   5.119   9.489 -1.7328 -0.6572 -0.4136
  945MOL0     H27552   7.315   5.241   9.437  0.9452 -1.6641  3.8559
  945MOL0     H27553   7.390   4.984   9.316 -2.2334 -1.9262  0.4039
  945MOL0     H27554   7.360   5.116   9.196  3.8014 -1.2742  0.3966
  945MOL0     H27555   7.143   5.137   9.325  0.0113 -0.6931  0.4286
  945MOL0     H27556   7.185   4.974   9.406  4.7975  0.1976  1.2290
  945MOL0     H27557   8.051   5.729   9.803 -3.2963 -0.4905 -4.1450
  945MOL0     H27558   8.199   5.651   9.984  2.3775 -0.6356 -2.1858
  945MOL0     H27559   8.205   5.282  10.259 -1.2410 -1.4277 -1.7444
  945MOL0     H27560   8.305   5.179  10.468 -1.7935 -0.0876 -0.6477
  945MOL0     H27561   9.909   4.242  10.117  0.8243  1.2701 -1.5040
  945MOL0     H27562  10.114   4.174   9.997 -3.0863  1.6036 -0.0143
  945MOL0     H27563  10.448   4.123   9.874 -0.9795  0.9923  3.2301
  945MOL0     H27564  10.638   4.196   9.763 -0.5209  0.0854  0.4433
  945MOL0     H27565  11.085   4.196   9.803  1.7088 -0.1446  0.4753
  945MOL0     H27566  11.041   4.162   9.965 -1.6680 -0.7684  1.3355
  945MOL0     H27567  10.977   3.939   9.783  0.7143 -1.9043  1.3221
  945MOL0     H27568  11.081   3.944   9.930  0.9688 -0.6774 -0.7202
  945MOL0     H27569  11.189   4.028   9.656 -2.4861 -1.8372 -0.7582
  945MOL0     H27570  11.210   3.872   9.729 -3.2168 -0.5235 -2.6882
  945MOL0     H27571  11.334   3.950   9.906 -0.2043 -1.5768 -1.2053
  945MOL0     H27572  11.297   4.116   9.869  2.1338 -0.4195  0.7420
  945MOL0     H27573  11.585   4.051   9.573  1.2084  2.3801 -0.0064
  945MOL0     H27574  10.889   4.054  10.082  1.1446 -1.5305 -1.0990
  945MOL0     H27575  10.674   3.963  10.200 -2.7307 -1.7101 -1.7965
  946MOL0     O27576   4.750   5.172   0.214 -0.3236 -0.6369 -0.1667
  946MOL0     C27577   4.769   5.164   0.088 -0.4466  0.1969 -0.1623
  946MOL0     O27578   4.695   5.231  -0.005  0.2263  0.0771 -0.2631
  946MOL0     C27579   4.580   5.307   0.012 -0.0293  0.3271 -0.4881
  946MOL0     C27580   4.508   5.307   0.133 -0.7632  0.6157  0.1413
  946MOL0     C27581   4.408   5.404   0.145 -0.6413  0.4858 -0.8821
  946MOL0     C27582   4.361   5.474   0.033  0.7847  0.1614  0.1072
  946MOL0     O27583   4.272   5.581   0.041 -0.3343  0.6908 -0.1838
  946MOL0     C27584   4.134   5.545   0.038 -0.2282 -0.0957 -0.1336
  946MOL0     C27585   4.080   5.444   0.143  0.3494 -0.0648 -0.1877
  946MOL0     C27586   4.102   5.482   0.294  0.1483 -0.5252 -0.0960
  946MOL0     C27587   4.007   5.599   0.333  0.0781 -0.3117  0.8330
  946MOL0     C27588   4.012   5.622   0.484  0.1744  0.7003 -0.2771
  946MOL0     C27589   3.932   5.753   0.533  0.4969  0.3765  0.7771
  946MOL0     C27590   3.948   5.757   0.689  0.4375 -1.1704  0.1436
  946MOL0     C27591   3.865   5.655   0.760 -0.0680 -0.5677  0.1769
  946MOL0     N27592   3.882   5.661   0.904  1.2332  0.4835 -0.2849
  946MOL0     C27593   3.961   5.565   0.970  0.0693 -0.1604 -0.2441
  946MOL0     C27594   3.954   5.606   1.095 -0.2118 -0.3076 -0.5620
  946MOL0     C27595   4.034   5.545   1.200  0.1681 -0.6729 -0.1571
  946MOL0     C27596   4.169   5.626   1.233 -0.2182 -0.5674 -0.6739
  946MOL0     C27597   4.261   5.550   1.336  0.8871 -0.4046 -0.7949
  946MOL0     C27598   4.192   5.511   1.464 -0.7630 -0.3033  0.3842
  946MOL0     O27599   4.275   5.434   1.546  0.5932 -0.0942 -0.0077
  946MOL0     C27600   4.319   5.312   1.491  0.4780  0.2357 -0.1118
  946MOL0     C27601   4.220   5.206   1.479 -0.4692  0.0151  1.1351
  946MOL0     C27602   4.262   5.079   1.441 -0.4556  0.0561 -0.5753
  946MOL0     C27603   4.161   4.970   1.430  1.2824 -0.5522 -0.3345
  946MOL0     C27604   4.398   5.050   1.404 -0.2159  0.2841 -0.0291
  946MOL0     C27605   4.445   4.920   1.349  0.4149 -0.0817  0.4471
  946MOL0     O27606   4.580   4.927   1.319 -0.1068  0.1980 -0.6102
  946MOL0     C27607   4.640   4.807   1.291 -0.5402 -0.1821  0.6948
  946MOL0     C27608   4.650   4.770   1.163 -0.7589 -0.3571 -0.2221
  946MOL0     C27609   4.723   4.662   1.122 -0.8923  0.5698 -0.6600
  946MOL0     C27610   4.783   4.580   1.217 -0.2866 -0.7874 -0.2677
  946MOL0     O27611   4.850   4.468   1.179 -0.5086 -0.0313  0.2285
  946MOL0     C27612   4.784   4.343   1.217 -1.3144  0.2946 -0.1117
  946MOL0     C27613   4.827   4.275   1.345 -0.7316  0.6573 -0.1531
  946MOL0     C27614   4.719   4.185   1.401 -0.5933  0.3574 -0.5132
  946MOL0     C27615   4.769   4.075   1.486  0.2434  0.4703  0.2984
  946MOL0     C27616   4.645   3.977   1.528  0.0750 -0.2848 -0.0285
  946MOL0     C27617   4.681   3.864   1.600  0.0531 -0.3898 -0.8662
  946MOL0     C27618   4.572   3.757   1.597  0.6169 -0.3065  0.5655
  946MOL0     C27619   4.439   3.800   1.654  0.2500 -0.0743 -0.2313
  946MOL0    Cl27620   4.308   3.667   1.661 -0.0110 -0.1261 -0.1382
  946MOL0     C27621   4.776   4.616   1.357  0.1355 -1.0449  0.9099
  946MOL0     C27622   4.707   4.734   1.390  0.4245 -1.0926  1.0196
  946MOL0     O27623   4.375   4.820   1.344 -0.5256 -0.4738  0.4094
  946MOL0     C27624   4.486   5.164   1.408 -0.5025  0.1970 -0.7150
  946MOL0     C27625   4.455   5.291   1.459 -0.4429  0.6514 -0.2732
  946MOL0     N27626   3.861   5.706   1.107  0.0414  0.0784 -0.4002
  946MOL0     N27627   3.827   5.748   0.990  0.1181 -0.1330  0.4932
  946MOL0     C27628   4.436   5.471  -0.088  0.6723  0.7248 -0.3100
  946MOL0     C27629   4.543   5.382  -0.098 -0.5463 -0.3359  0.7269
  946MOL0     C27630   4.890   5.097   0.043  0.3896  1.1449  0.4694
  946MOL0     C27631   4.943   5.140  -0.085  0.1849 -1.1126  0.1867
  946MOL0     C27632   5.050   5.082  -0.140  0.3902 -0.2998 -0.1361
  946MOL0     C27633   5.109   4.976  -0.079 -0.2623  0.1687 -0.0960
  946MOL0     O27634   5.225   4.914  -0.117 -0.6846 -0.7622  0.5476
  946MOL0     C27635   5.292   4.965  -0.240 -0.3335 -0.3845  0.1110
  946MOL0     C27636   5.409   4.864  -0.256 -0.6974  0.2333 -0.0742
  946MOL0     C27637   5.507   4.863  -0.124  0.5841  0.8560 -0.3933
  946MOL0     C27638   5.637   4.786  -0.150  0.6385  0.0413  0.0201
  946MOL0     C27639   5.708   4.845  -0.265 -0.1157 -0.4635 -0.0077
  946MOL0     C27640   5.747   4.926  -0.353  1.2990  0.1331 -0.5459
  946MOL0     C27641   5.063   4.931   0.044  0.6638  0.0869  0.3257
  946MOL0     C27642   4.946   4.983   0.104 -0.0737  0.4172 -0.6193
  946MOL0     H27643   4.539   5.249   0.219  0.0639 -0.8576 -1.1026
  946MOL0     H27644   4.373   5.415   0.247  2.2577 -2.9264  0.6861
  946MOL0     H27645   4.075   5.637   0.043 -0.7678 -0.4642  0.3463
  946MOL0     H27646   4.118   5.504  -0.063 -0.0990 -4.0821  1.2884
  946MOL0     H27647   3.975   5.417   0.124 -0.4923  0.7732  2.8316
  946MOL0     H27648   4.139   5.352   0.131 -2.8442 -2.0341 -2.4762
  946MOL0     H27649   4.084   5.394   0.356 -0.8461 -1.7349 -1.9950
  946MOL0     H27650   4.202   5.519   0.320  0.8195 -0.1249 -2.8677
  946MOL0     H27651   4.042   5.691   0.286 -2.0076 -1.3523 -3.3025
  946MOL0     H27652   3.906   5.572   0.300  0.9311 -2.0503 -0.5824
  946MOL0     H27653   3.978   5.530   0.533  3.0569 -0.4602 -0.2298
  946MOL0     H27654   4.115   5.630   0.521 -0.3192 -0.1847  1.3446
  946MOL0     H27655   3.964   5.847   0.488 -1.8747  0.0312 -1.8634
  946MOL0     H27656   3.828   5.741   0.503  1.2323 -1.6539 -1.2447
  946MOL0     H27657   4.052   5.749   0.721  0.1158 -2.1020  1.0274
  946MOL0     H27658   3.912   5.856   0.718 -3.7838 -2.3622 -0.2827
  946MOL0     H27659   3.889   5.551   0.738  0.7018 -0.5836  1.0611
  946MOL0     H27660   3.761   5.677   0.733 -0.5527  0.3272  2.5005
  946MOL0     H27661   4.016   5.475   0.943 -1.2192 -3.2580  5.6162
  946MOL0     H27662   3.977   5.556   1.292  2.4524 -0.5150  1.3332
  946MOL0     H27663   4.055   5.441   1.173 -2.4511 -0.8330 -1.9314
  946MOL0     H27664   4.149   5.722   1.282  0.2505 -1.4456  1.3225
  946MOL0     H27665   4.239   5.657   1.154  1.9593  0.1430  1.4172
  946MOL0     H27666   4.344   5.617   1.361 -1.2233  1.9086  0.3667
  946MOL0     H27667   4.306   5.462   1.290  0.0764 -1.2048 -0.0929
  946MOL0     H27668   4.106   5.445   1.452  0.9359 -2.1762 -2.9976
  946MOL0     H27669   4.162   5.602   1.517 -0.1939 -0.4723  1.0118
  946MOL0     H27670   4.117   5.226   1.507 -0.6495 -1.1221  1.3150
  946MOL0     H27671   4.069   4.986   1.487  1.1552  0.4786 -0.8101
  946MOL0     H27672   4.124   4.967   1.327  0.5085 -0.9489 -0.0489
  946MOL0     H27673   4.192   4.869   1.458  0.5559 -0.6471  0.1552
  946MOL0     H27674   4.599   4.839   1.096  0.3197 -0.8131 -1.5616
  946MOL0     H27675   4.736   4.639   1.016  2.3240 -0.3088 -0.1679
  946MOL0     H27676   4.678   4.359   1.236 -1.3274 -2.2759  2.7493
  946MOL0     H27677   4.806   4.279   1.130  1.5881  2.9222 -1.5279
  946MOL0     H27678   4.921   4.223   1.322  0.1696  3.1739 -2.7964
  946MOL0     H27679   4.862   4.353   1.414  4.8269  1.6996 -3.4686
  946MOL0     H27680   4.655   4.152   1.319 -2.3552  0.6203  0.6886
  946MOL0     H27681   4.643   4.238   1.460 -2.5094 -2.4474 -0.2527
  946MOL0     H27682   4.836   4.014   1.425  0.1377 -2.5497  2.9570
  946MOL0     H27683   4.820   4.114   1.574 -0.7265 -2.2674  2.2385
  946MOL0     H27684   4.597   3.947   1.434  2.0976  0.2451 -1.3032
  946MOL0     H27685   4.565   4.032   1.579  0.2939  1.3392 -1.3232
  946MOL0     H27686   4.768   3.819   1.553  0.7360  1.3020 -1.2753
  946MOL0     H27687   4.718   3.885   1.701 -0.4489  0.3488 -0.8277
  946MOL0     H27688   4.611   3.666   1.642 -2.9516 -2.1506  0.3379
  946MOL0     H27689   4.549   3.727   1.494  3.6455  1.4596 -0.7321
  946MOL0     H27690   4.400   3.886   1.599 -1.5507 -0.4100  0.4610
  946MOL0     H27691   4.453   3.834   1.758 -0.9953  1.5108 -0.5452
  946MOL0     H27692   4.827   4.556   1.432  3.8578 -0.9587 -1.3322
  946MOL0     H27693   4.699   4.760   1.495  1.7791  0.3678  0.7912
  946MOL0     H27694   4.593   5.147   1.402 -0.8054 -4.6565  2.5716
  946MOL0     H27695   4.523   5.373   1.478  2.4299 -1.6593  0.0896
  946MOL0     H27696   4.424   5.533  -0.177  0.7737 -1.0645 -1.6203
  946MOL0     H27697   4.593   5.380  -0.194 -1.5587  2.2405  0.0409
  946MOL0     H27698   4.898   5.230  -0.125  0.4648 -1.2366 -0.4079
  946MOL0     H27699   5.084   5.121  -0.235 -1.3458  0.7310 -0.3745
  946MOL0     H27700   5.220   4.962  -0.322  0.4792  1.6194 -0.7466
  946MOL0     H27701   5.340   5.063  -0.231 -0.4913 -0.3474  0.6232
  946MOL0     H27702   5.461   4.889  -0.348 -1.0869 -1.9563 -0.9589
  946MOL0     H27703   5.374   4.761  -0.268 -1.7647  0.6986 -1.2158
  946MOL0     H27704   5.453   4.829  -0.035 -0.2719  1.6014 -0.6157
  946MOL0     H27705   5.543   4.964  -0.101 -1.4075  1.9584 -1.8370
  946MOL0     H27706   5.624   4.684  -0.189  0.0914  0.8439 -2.0037
  946MOL0     H27707   5.708   4.786  -0.067  1.0126 -1.1881 -0.2678
  946MOL0     H27708   5.798   4.998  -0.414  1.1955  0.1594 -0.6026
  946MOL0     H27709   5.125   4.872   0.111  1.3289  0.3434 -0.0513
  946MOL0     H27710   4.895   4.956   0.196  1.4188  0.8514  0.3615
  947MOL0     O27711   6.142   0.883   2.846 -0.1397  0.0470 -0.4909
  947MOL0     C27712   6.248   0.889   2.909  0.6915  1.0571  0.4888
  947MOL0     O27713   6.295   0.990   2.987 -0.6370  0.0136 -0.7454
  947MOL0     C27714   6.235   1.112   2.989  0.1503  0.3790  0.5022
  947MOL0     C27715   6.234   1.175   3.105  0.3080 -0.2230 -0.2585
  947MOL0     C27716   6.188   1.311   3.118  1.0521  0.1235  0.2195
  947MOL0     C27717   6.142   1.378   2.995 -0.3749  0.8428 -0.5404
  947MOL0     O27718   6.098   1.504   3.002 -0.4416  0.4385 -0.4207
  947MOL0     C27719   6.185   1.604   3.062  0.2173  0.8873  0.0023
  947MOL0     C27720   6.113   1.684   3.165  0.3180 -0.2340 -0.1578
  947MOL0     C27721   5.981   1.732   3.101  0.2114  0.3022 -0.7247
  947MOL0     C27722   5.915   1.815   3.211 -0.0797  0.5053 -0.4332
  947MOL0     C27723   5.772   1.851   3.170 -1.0065  0.8194 -0.7903
  947MOL0     C27724   5.774   1.965   3.064 -0.3364  0.3706 -0.0682
  947MOL0     C27725   5.632   2.021   3.037  0.0481 -0.6948 -0.4940
  947MOL0     C27726   5.633   2.113   2.920  0.6227 -0.1059 -0.1686
  947MOL0     N27727   5.502   2.170   2.894 -0.8433  0.4836 -0.5229
  947MOL0     C27728   5.385   2.104   2.846  0.4418 -0.4372 -0.4373
  947MOL0     C27729   5.286   2.198   2.864 -1.0772  0.3697 -0.2481
  947MOL0     C27730   5.151   2.183   2.796 -0.4383 -0.0456  0.1407
  947MOL0     C27731   5.063   2.096   2.877 -0.0799  0.6322 -0.6138
  947MOL0     C27732   5.036   2.121   3.034  0.3093 -0.1588  0.4817
  947MOL0     C27733   5.138   2.052   3.126 -0.2725  0.4527 -0.4166
  947MOL0     O27734   5.128   1.918   3.111 -0.0840 -0.2966  0.0050
  947MOL0     C27735   5.212   1.837   3.182  0.1657 -1.3429 -0.7391
  947MOL0     C27736   5.308   1.882   3.271 -0.6643 -0.0036 -0.0921
  947MOL0     C27737   5.401   1.792   3.331  0.3979  0.3408  0.6869
  947MOL0     C27738   5.488   1.838   3.434 -0.7165 -0.5543  0.5699
  947MOL0     C27739   5.395   1.655   3.293 -0.1081  0.8448 -1.4939
  947MOL0     C27740   5.483   1.551   3.356 -0.0204  0.4475 -0.1701
  947MOL0     O27741   5.538   1.458   3.274 -0.0009 -0.2327  0.5432
  947MOL0     C27742   5.635   1.367   3.331 -0.5599  0.9688 -0.7407
  947MOL0     C27743   5.761   1.343   3.256  0.9046  0.6148 -0.7209
  947MOL0     C27744   5.854   1.245   3.295  0.3291 -0.4855  0.7629
  947MOL0     C27745   5.839   1.171   3.410 -0.2811 -0.9016 -0.6062
  947MOL0     O27746   5.945   1.100   3.464  0.1857  0.3823  0.5612
  947MOL0     C27747   5.927   1.017   3.583 -0.4981 -0.4994  0.3356
  947MOL0     C27748   6.042   0.919   3.584 -0.1092  0.0364 -0.5880
  947MOL0     C27749   6.180   0.969   3.619 -0.3689 -0.0717 -0.4324
  947MOL0     C27750   6.261   1.020   3.506  0.3005 -0.2078 -0.4196
  947MOL0     C27751   6.403   1.059   3.551 -0.2392 -0.1737  0.0141
  947MOL0     C27752   6.398   1.176   3.656  0.1351  0.3072  0.5032
  947MOL0     C27753   6.540   1.248   3.673  0.2783 -0.1489  0.5654
  947MOL0     C27754   6.644   1.181   3.759  0.1087 -0.3312  0.2605
  947MOL0    Cl27755   6.580   1.174   3.923  0.1865  0.2404 -0.2215
  947MOL0     C27756   5.715   1.180   3.476 -0.1025 -0.2194 -0.5596
  947MOL0     C27757   5.621   1.282   3.447 -0.4788 -0.6265  0.0999
  947MOL0     O27758   5.515   1.561   3.471 -0.0053  0.4156 -0.5651
  947MOL0     C27759   5.301   1.605   3.208  0.9684 -0.6024  0.8061
  947MOL0     C27760   5.214   1.703   3.151  0.3360  0.5548 -0.4037
  947MOL0     N27761   5.344   2.311   2.913  0.5407 -0.4594  0.5304
  947MOL0     N27762   5.468   2.301   2.930 -0.2450  0.4822  0.1683
  947MOL0     C27763   6.140   1.313   2.875 -0.0113 -0.4140 -0.0066
  947MOL0     C27764   6.188   1.178   2.875  0.1380  0.7268  0.7032
  947MOL0     C27765   6.329   0.768   2.914 -0.2071  0.1548 -0.1347
  947MOL0     C27766   6.464   0.771   2.957 -0.2611 -0.3805  0.3350
  947MOL0     C27767   6.549   0.654   2.938 -0.3310  0.2743 -0.0290
  947MOL0     C27768   6.494   0.537   2.871  0.5851  0.3223  0.0335
  947MOL0     O27769   6.549   0.414   2.848 -0.2155  0.3892  0.2600
  947MOL0     C27770   6.667   0.392   2.914 -0.3507  0.2698  1.6862
  947MOL0     C27771   6.706   0.242   2.906 -1.1526  0.0195  0.2526
  947MOL0     C27772   6.693   0.180   2.764  0.9678  0.4122  0.1155
  947MOL0     C27773   6.783   0.242   2.653  0.0281  0.1469 -0.5504
  947MOL0     C27774   6.783   0.168   2.524  0.3128 -0.1423  0.2260
  947MOL0     C27775   6.786   0.117   2.419  0.3185 -0.1985  0.4878
  947MOL0     C27776   6.357   0.534   2.840 -0.1993  0.3626 -0.4249
  947MOL0     C27777   6.283   0.647   2.859 -0.4450 -0.3732  0.2259
  947MOL0     H27778   6.261   1.122   3.196 -2.9409 -0.1068  0.9063
  947MOL0     H27779   6.190   1.367   3.211 -0.6513 -1.4259  1.2461
  947MOL0     H27780   6.268   1.555   3.115 -0.4664  0.8494  1.0639
  947MOL0     H27781   6.240   1.659   2.985  1.3532 -0.1201  0.0488
  947MOL0     H27782   6.095   1.623   3.253  0.6414  0.7405  0.6023
  947MOL0     H27783   6.180   1.760   3.207  0.7572 -0.7144  0.0109
  947MOL0     H27784   5.981   1.775   3.000 -2.7161 -1.9531 -1.8569
  947MOL0     H27785   5.921   1.644   3.075 -0.7686  0.7722 -0.1391
  947MOL0     H27786   5.913   1.751   3.300  1.5022 -1.1599 -1.5105
  947MOL0     H27787   5.973   1.905   3.232  0.3080 -0.4408  3.1189
  947MOL0     H27788   5.723   1.756   3.146  1.2784 -1.4867  2.7819
  947MOL0     H27789   5.726   1.901   3.256  1.1778 -0.7163  1.4175
  947MOL0     H27790   5.831   2.055   3.087  0.3258  0.9053 -3.3399
  947MOL0     H27791   5.812   1.924   2.970 -2.5974 -0.4385 -0.6976
  947MOL0     H27792   5.558   1.945   3.012  0.9125 -0.9718 -2.3460
  947MOL0     H27793   5.591   2.072   3.125  0.4445  0.2909 -0.8636
  947MOL0     H27794   5.664   2.064   2.827  0.8684 -1.3660  0.5586
  947MOL0     H27795   5.696   2.201   2.935  0.4979  0.2090 -1.3944
  947MOL0     H27796   5.369   2.009   2.797  1.3674  0.1170 -1.8633
  947MOL0     H27797   5.102   2.280   2.786  0.5402  0.7422  2.3306
  947MOL0     H27798   5.175   2.141   2.698 -2.8057 -0.7085 -0.2103
  947MOL0     H27799   5.111   2.000   2.854  1.1657  0.4902  2.1653
  947MOL0     H27800   4.961   2.095   2.837 -0.5193  3.3721  0.2288
  947MOL0     H27801   4.943   2.070   3.060 -0.2444  0.6600  0.1365
  947MOL0     H27802   5.022   2.229   3.041 -0.5242  0.2181 -4.1294
  947MOL0     H27803   5.111   2.077   3.229 -0.1720 -2.4812  0.4081
  947MOL0     H27804   5.240   2.089   3.108 -0.4374  2.0106  1.4930
  947MOL0     H27805   5.313   1.989   3.292 -0.1775 -0.2513  1.1437
  947MOL0     H27806   5.591   1.809   3.411 -0.5084 -0.2055  1.0505
  947MOL0     H27807   5.489   1.947   3.431 -0.6366 -0.5652 -1.3565
  947MOL0     H27808   5.455   1.805   3.532 -2.3795 -3.0121 -0.7059
  947MOL0     H27809   5.775   1.396   3.162 -0.7554  1.3717 -0.5756
  947MOL0     H27810   5.942   1.228   3.234  0.1881  3.5523 -0.8469
  947MOL0     H27811   5.933   1.078   3.674 -0.1282 -0.6345  0.4051
  947MOL0     H27812   5.833   0.961   3.578  1.0743 -3.2771 -0.5364
  947MOL0     H27813   6.027   0.851   3.668  0.6170 -0.6529 -0.9986
  947MOL0     H27814   6.049   0.872   3.485  0.7149 -2.5518  0.5985
  947MOL0     H27815   6.234   0.886   3.667 -0.9187  1.1747  2.5491
  947MOL0     H27816   6.173   1.044   3.698  0.7052 -1.6904  1.2976
  947MOL0     H27817   6.271   0.955   3.419 -0.5892  2.2757 -2.5012
  947MOL0     H27818   6.214   1.105   3.456 -1.7602 -0.6226  0.7230
  947MOL0     H27819   6.459   1.095   3.465 -1.3729 -0.8936 -1.0600
  947MOL0     H27820   6.452   0.971   3.593 -0.1516 -0.6417 -1.0495
  947MOL0     H27821   6.329   1.254   3.622 -1.6536 -1.5353 -0.3446
  947MOL0     H27822   6.374   1.132   3.753  2.4353 -1.0586  0.5204
  947MOL0     H27823   6.515   1.345   3.716 -0.9162 -0.4826  0.6631
  947MOL0     H27824   6.583   1.273   3.576 -0.6280  1.1269  0.4541
  947MOL0     H27825   6.738   1.236   3.760 -0.0951  0.0379 -0.2253
  947MOL0     H27826   6.672   1.080   3.729  1.6462  0.0108  0.4548
  947MOL0     H27827   5.687   1.113   3.557 -0.2435  0.7218  0.1835
  947MOL0     H27828   5.533   1.298   3.508 -2.2331  0.4173 -2.5506
  947MOL0     H27829   5.286   1.501   3.182  1.7238 -1.4159  3.2760
  947MOL0     H27830   5.151   1.668   3.071 -3.0899  0.8264  1.9588
  947MOL0     H27831   6.105   1.364   2.786 -1.0727 -1.9070 -0.4866
  947MOL0     H27832   6.192   1.133   2.776 -0.2786 -1.2326  1.5252
  947MOL0     H27833   6.512   0.859   2.999  1.5824 -3.1784  4.7268
  947MOL0     H27834   6.653   0.657   2.971 -0.4030  2.2412  0.1200
  947MOL0     H27835   6.743   0.455   2.866 -3.7566  2.7067 -1.0183
  947MOL0     H27836   6.664   0.427   3.018 -1.8665  0.6961  1.5137
  947MOL0     H27837   6.636   0.197   2.978 -0.4645 -0.3082  0.7278
  947MOL0     H27838   6.805   0.238   2.953 -1.3287 -4.0991  0.6295
  947MOL0     H27839   6.589   0.187   2.730  1.1663  1.4806 -0.3083
  947MOL0     H27840   6.722   0.075   2.764 -0.1867  0.0513 -1.4693
  947MOL0     H27841   6.886   0.252   2.686 -1.3641 -1.0502  5.1155
  947MOL0     H27842   6.740   0.341   2.636  4.1135  2.2637  0.3138
  947MOL0     H27843   6.793   0.081   2.319  0.8429 -2.0319  1.1501
  947MOL0     H27844   6.314   0.446   2.795  0.1617  0.7933 -1.6551
  947MOL0     H27845   6.177   0.639   2.839 -0.5436 -0.8244  0.8911
  948MOL0     O27846   7.969   2.260   7.171 -0.3787 -0.9019 -0.2240
  948MOL0     C27847   7.870   2.246   7.244 -0.4296 -0.6879 -0.5814
  948MOL0     O27848   7.806   2.339   7.309  0.1264 -0.5452  0.1695
  948MOL0     C27849   7.847   2.465   7.283 -0.8982 -0.9937  0.2174
  948MOL0     C27850   7.816   2.540   7.167  0.0128 -0.2980  0.6629
  948MOL0     C27851   7.836   2.679   7.164  0.3884  0.9151 -0.7931
  948MOL0     C27852   7.905   2.737   7.272  0.0848  1.1751  0.1610
  948MOL0     O27853   7.952   2.870   7.284 -0.6118 -0.3106  1.2434
  948MOL0     C27854   8.006   2.934   7.165 -0.0799 -0.4676  0.2037
  948MOL0     C27855   8.125   2.862   7.107 -0.4641  0.1218  0.5913
  948MOL0     C27856   8.183   2.946   6.991 -0.1754 -0.3272  0.4859
  948MOL0     C27857   8.305   2.885   6.926  0.4184 -0.3361 -1.3444
  948MOL0     C27858   8.354   2.977   6.815  0.3424 -0.2251  0.6779
  948MOL0     C27859   8.275   2.990   6.693 -0.5501  0.1291  0.3315
  948MOL0     C27860   8.368   3.054   6.579  0.0722  0.3928  0.2755
  948MOL0     C27861   8.266   3.068   6.456 -0.8353  0.8191 -0.6201
  948MOL0     N27862   8.342   3.101   6.337  0.1501  0.7691 -0.5692
  948MOL0     C27863   8.359   3.225   6.282  0.2833 -0.7414  0.4341
  948MOL0     C27864   8.428   3.211   6.169  0.8479  0.0110 -0.5861
  948MOL0     C27865   8.458   3.327   6.078  0.5851 -0.0780 -0.9737
  948MOL0     C27866   8.337   3.359   5.991  0.1808 -0.7721 -0.0898
  948MOL0     C27867   8.335   3.287   5.852 -0.6250 -0.2620 -0.2818
  948MOL0     C27868   8.300   3.139   5.863 -0.4628  0.8718  0.4400
  948MOL0     O27869   8.177   3.123   5.919  0.1351 -0.3432 -0.8337
  948MOL0     C27870   8.134   2.993   5.917  0.4393  0.1379 -0.2711
  948MOL0     C27871   8.208   2.878   5.960  0.1486 -0.6114 -0.3240
  948MOL0     C27872   8.148   2.748   5.978  0.5430 -1.5292 -0.2241
  948MOL0     C27873   8.230   2.650   6.053 -0.7488  0.4546 -0.3245
  948MOL0     C27874   8.015   2.726   5.940  0.4112 -0.4715 -0.7469
  948MOL0     C27875   7.944   2.597   5.963 -0.0894  0.2566 -0.9636
  948MOL0     O27876   7.810   2.599   5.930 -0.3790  0.6558 -0.1251
  948MOL0     C27877   7.733   2.511   5.991  0.3977  0.6318  0.7557
  948MOL0     C27878   7.654   2.573   6.093 -0.7578  0.1865  0.8963
  948MOL0     C27879   7.573   2.483   6.163 -0.1224  0.2022 -0.6350
  948MOL0     C27880   7.578   2.342   6.147 -0.2055 -0.3259 -0.1074
  948MOL0     O27881   7.493   2.267   6.217  0.4604 -0.8452 -0.4814
  948MOL0     C27882   7.457   2.131   6.174 -0.0427  0.5842 -0.0709
  948MOL0     C27883   7.347   2.084   6.265  0.7563  0.1342  0.2910
  948MOL0     C27884   7.400   2.017   6.396 -0.0813  0.4937 -0.5518
  948MOL0     C27885   7.405   1.859   6.403 -0.1652 -0.2731 -0.0079
  948MOL0     C27886   7.456   1.805   6.535  0.5356  0.4271  0.1298
  948MOL0     C27887   7.580   1.870   6.586 -0.1135  0.5548  0.0905
  948MOL0     C27888   7.613   1.798   6.716 -0.0145  0.2601 -0.1706
  948MOL0     C27889   7.742   1.855   6.766 -0.2467 -0.6242  0.1647
  948MOL0    Cl27890   7.789   1.787   6.918  0.6699  0.3097 -0.3164
  948MOL0     C27891   7.662   2.288   6.047  0.3898 -0.4961 -0.2285
  948MOL0     C27892   7.749   2.374   5.967  0.1637 -0.7379  1.0346
  948MOL0     O27893   8.001   2.498   6.007  0.7163  0.5403  0.8507
  948MOL0     C27894   7.941   2.836   5.885 -0.8462  0.0906  0.2961
  948MOL0     C27895   8.002   2.966   5.873  1.3451 -0.3787  0.4698
  948MOL0     N27896   8.464   3.076   6.151  0.1601  0.1001 -0.4668
  948MOL0     N27897   8.401   3.010   6.249  0.2058 -0.0035 -0.7142
  948MOL0     C27898   7.944   2.666   7.383  0.2033  0.3739 -0.1495
  948MOL0     C27899   7.908   2.527   7.394  0.2323  0.3602  1.2255
  948MOL0     C27900   7.821   2.108   7.259 -0.7771 -0.5028 -0.7274
  948MOL0     C27901   7.890   2.006   7.191 -0.0807  0.0888 -0.9005
  948MOL0     C27902   7.864   1.869   7.229 -0.6858 -0.3594 -0.7710
  948MOL0     C27903   7.770   1.830   7.326 -1.0920 -0.9933 -0.2804
  948MOL0     O27904   7.746   1.702   7.366 -0.2253 -0.6210 -1.0216
  948MOL0     C27905   7.837   1.602   7.378 -0.9858 -0.0903  0.0175
  948MOL0     C27906   7.864   1.534   7.232  0.5365 -1.0354 -0.8735
  948MOL0     C27907   7.784   1.405   7.213  0.2107 -1.0171 -0.0921
  948MOL0     C27908   7.643   1.422   7.161  0.4309 -0.9823  0.0035
  948MOL0     C27909   7.562   1.308   7.217  0.0098 -0.2069 -0.5422
  948MOL0     C27910   7.506   1.209   7.256 -0.1100  1.0915 -0.1340
  948MOL0     C27911   7.683   1.934   7.375  0.1847  0.3809  0.0913
  948MOL0     C27912   7.715   2.070   7.338  0.1925  0.6630  0.2438
  948MOL0     H27913   7.785   2.490   7.076 -1.3424  0.7682  0.4954
  948MOL0     H27914   7.807   2.741   7.080  1.1838 -1.7017 -3.1078
  948MOL0     H27915   7.925   2.957   7.096 -1.1267  3.0912  2.3329
  948MOL0     H27916   8.038   3.033   7.200  1.4845 -0.1243 -1.9733
  948MOL0     H27917   8.194   2.850   7.191 -2.7580  1.1268  2.7709
  948MOL0     H27918   8.102   2.765   7.063  3.5023 -0.4729 -0.5690
  948MOL0     H27919   8.102   2.956   6.917  0.8493  0.3403 -0.5887
  948MOL0     H27920   8.199   3.052   7.012  1.1198  0.3308 -3.0016
  948MOL0     H27921   8.383   2.872   7.002 -0.7051  2.3889  0.4151
  948MOL0     H27922   8.274   2.788   6.884 -0.5632 -0.3134 -0.6981
  948MOL0     H27923   8.356   3.074   6.865 -2.2491 -0.1526  0.7685
  948MOL0     H27924   8.455   2.942   6.791  0.3326  0.8017 -1.0327
  948MOL0     H27925   8.241   2.892   6.660 -2.7267  1.2389 -0.8851
  948MOL0     H27926   8.185   3.046   6.719 -1.3964  0.7594 -3.4067
  948MOL0     H27927   8.406   3.151   6.615  2.2884 -1.0958  2.2914
  948MOL0     H27928   8.456   2.993   6.556  1.2788  1.2933  2.2428
  948MOL0     H27929   8.194   3.147   6.476 -0.9247  0.2919  1.3065
  948MOL0     H27930   8.210   2.974   6.447  0.9830 -0.4668  0.6608
  948MOL0     H27931   8.318   3.322   6.308  0.2366 -0.4919 -0.5529
  948MOL0     H27932   8.489   3.419   6.129  0.2178  1.0756 -2.7417
  948MOL0     H27933   8.547   3.313   6.015  1.2889  1.4342 -0.3857
  948MOL0     H27934   8.344   3.466   5.968 -0.4180 -1.0746 -1.8243
  948MOL0     H27935   8.250   3.345   6.055  0.7442 -2.9120  0.2959
  948MOL0     H27936   8.436   3.289   5.811 -0.1454 -3.7242  0.3676
  948MOL0     H27937   8.270   3.333   5.777 -0.8437 -2.4364 -1.5139
  948MOL0     H27938   8.382   3.081   5.904  0.8599  0.8839 -2.0136
  948MOL0     H27939   8.293   3.096   5.762 -3.4504 -1.2507  1.4102
  948MOL0     H27940   8.307   2.898   6.000  1.1164 -1.3204 -2.2469
  948MOL0     H27941   8.276   2.565   6.003 -0.2142  0.3272  0.3630
  948MOL0     H27942   8.320   2.701   6.090 -0.1603 -0.2522 -0.7671
  948MOL0     H27943   8.180   2.605   6.139  0.4121 -2.3874 -1.0371
  948MOL0     H27944   7.667   2.678   6.115 -0.0068  0.4926 -0.8625
  948MOL0     H27945   7.523   2.526   6.250  3.3205 -3.0588  3.4177
  948MOL0     H27946   7.414   2.133   6.074 -0.4213 -0.7596  0.0392
  948MOL0     H27947   7.527   2.047   6.183 -2.1412 -1.3280 -0.5332
  948MOL0     H27948   7.281   2.165   6.298  0.8057 -0.1214  1.0396
  948MOL0     H27949   7.285   2.003   6.227 -0.6167  1.6333 -0.7954
  948MOL0     H27950   7.349   2.051   6.486  1.6988 -1.8685  1.4857
  948MOL0     H27951   7.497   2.061   6.421  0.0027 -1.0243  2.1391
  948MOL0     H27952   7.308   1.813   6.386  0.0574 -0.7660  0.0371
  948MOL0     H27953   7.465   1.816   6.323  2.4565 -0.7392  2.0687
  948MOL0     H27954   7.477   1.700   6.517 -1.0181 -0.3914  2.5976
  948MOL0     H27955   7.375   1.823   6.607  0.3550 -0.2707  0.1012
  948MOL0     H27956   7.672   1.864   6.527  1.3829  2.6400  1.9859
  948MOL0     H27957   7.568   1.978   6.601 -0.5897  0.6733 -1.0892
  948MOL0     H27958   7.620   1.693   6.683 -3.5763 -0.2268  0.2534
  948MOL0     H27959   7.536   1.805   6.793 -2.1158  0.7112 -2.2108
  948MOL0     H27960   7.732   1.963   6.782 -7.7431 -1.0635  2.5975
  948MOL0     H27961   7.823   1.834   6.696 -0.5130  0.3615 -0.4530
  948MOL0     H27962   7.678   2.181   6.053 -2.1666 -1.1275 -2.5866
  948MOL0     H27963   7.816   2.326   5.896  0.1633 -1.7194  1.6734
  948MOL0     H27964   7.839   2.826   5.851 -0.7117  0.8083 -0.3671
  948MOL0     H27965   7.952   3.051   5.828  1.1125 -0.8836 -0.2565
  948MOL0     H27966   8.009   2.715   7.454 -0.9867  2.5013 -0.4309
  948MOL0     H27967   7.944   2.454   7.465  1.9746 -0.5035 -0.4590
  948MOL0     H27968   7.976   2.028   7.128  0.5020  1.2530  0.2491
  948MOL0     H27969   7.921   1.788   7.186 -1.4776 -1.7704  0.7202
  948MOL0     H27970   7.932   1.649   7.407 -0.2730 -1.0647 -0.6662
  948MOL0     H27971   7.805   1.522   7.445 -0.3742 -1.1453 -0.9145
  948MOL0     H27972   7.972   1.522   7.214  0.5304  0.7784 -2.5076
  948MOL0     H27973   7.845   1.603   7.149  0.2307  0.3472  0.3019
  948MOL0     H27974   7.766   1.350   7.305 -0.7278 -1.1489 -0.3421
  948MOL0     H27975   7.843   1.336   7.152 -0.3949 -0.6065 -1.1743
  948MOL0     H27976   7.634   1.422   7.052 -0.2481 -0.1883  0.0513
  948MOL0     H27977   7.605   1.518   7.198  1.1721 -1.2411  1.5018
  948MOL0     H27978   7.471   1.114   7.290  1.4914 -0.4516 -2.4449
  948MOL0     H27979   7.597   1.906   7.434 -1.0940  0.7786 -1.4964
  948MOL0     H27980   7.643   2.139   7.381  1.2342  0.4000  2.5902
  949MOL0     O27981   0.961   3.510   1.186  0.5972  0.4375  0.6587
  949MOL0     C27982   0.871   3.574   1.140  0.8923 -0.4914  0.8837
  949MOL0     O27983   0.806   3.554   1.027  0.4749 -0.5089  1.0012
  949MOL0     C27984   0.826   3.452   0.937  0.3413  0.4150  0.2583
  949MOL0     C27985   0.805   3.487   0.800  0.2928 -0.5444 -0.1438
  949MOL0     C27986   0.816   3.383   0.704  0.3266 -1.1002 -0.6114
  949MOL0     C27987   0.846   3.252   0.741  0.5307 -0.0534 -0.1865
  949MOL0     O27988   0.845   3.158   0.649  0.0597 -0.2436 -0.1297
  949MOL0     C27989   0.732   3.143   0.557  0.7702 -0.2578 -0.5859
  949MOL0     C27990   0.594   3.118   0.616  0.4654  0.4813  0.6079
  949MOL0     C27991   0.586   3.016   0.731 -0.1094  0.3499 -0.3914
  949MOL0     C27992   0.442   2.975   0.779 -0.9963 -0.0821 -0.4115
  949MOL0     C27993   0.354   3.098   0.831  1.5681 -0.9922 -0.2473
  949MOL0     C27994   0.209   3.050   0.866 -0.5520  0.6989 -0.1182
  949MOL0     C27995   0.107   3.164   0.886 -0.2525  0.8718  0.0400
  949MOL0     C27996   0.047   3.228   0.758 -0.1455 -0.1111  0.2095
  949MOL0     N27997  -0.055   3.330   0.783  0.4199 -0.4705 -0.2028
  949MOL0     C27998  -0.175   3.312   0.848  0.2654 -0.0282 -1.1756
  949MOL0     C27999  -0.237   3.437   0.849  0.6057 -0.2507 -0.5721
  949MOL0     C28000  -0.372   3.456   0.909  0.1525 -0.3370  0.5314
  949MOL0     C28001  -0.477   3.453   0.790  1.0117 -0.4822 -0.3571
  949MOL0     C28002  -0.515   3.589   0.742  0.5493 -0.2659  0.4980
  949MOL0     C28003  -0.636   3.664   0.809  0.3611 -0.6797  0.3534
  949MOL0     O28004  -0.626   3.802   0.775  0.1354 -0.3322  0.1602
  949MOL0     C28005  -0.709   3.892   0.843  0.1857  0.6830 -0.6119
  949MOL0     C28006  -0.667   4.027   0.821  0.5148  0.0477  0.2862
  949MOL0     C28007  -0.741   4.131   0.868 -0.2198  0.0785 -0.2464
  949MOL0     C28008  -0.671   4.264   0.859  0.2871 -0.3461 -0.4070
  949MOL0     C28009  -0.864   4.109   0.937  0.5463 -0.5207 -0.5556
  949MOL0     C28010  -0.959   4.222   0.978 -0.4563 -0.4019  0.4344
  949MOL0     O28011  -1.084   4.182   1.015 -0.6695  0.7640  0.1121
  949MOL0     C28012  -1.186   4.275   1.012  0.1057 -0.4238 -0.4559
  949MOL0     C28013  -1.284   4.253   1.113 -0.8458 -0.4378  0.2106
  949MOL0     C28014  -1.396   4.339   1.122 -0.2837 -0.5391 -0.3397
  949MOL0     C28015  -1.409   4.455   1.042 -0.4436  0.6634  0.1379
  949MOL0     O28016  -1.505   4.551   1.036 -0.3870 -0.2040 -0.4796
  949MOL0     C28017  -1.623   4.530   1.124  0.5881 -0.6852  0.1354
  949MOL0     C28018  -1.736   4.633   1.106  1.2079 -0.8051  0.1041
  949MOL0     C28019  -1.862   4.592   1.189 -0.0353  0.2100  0.6287
  949MOL0     C28020  -1.957   4.499   1.111 -0.1745 -0.6167 -0.6987
  949MOL0     C28021  -2.055   4.443   1.199 -0.6516 -0.2101 -0.0825
  949MOL0     C28022  -2.158   4.370   1.119  0.2337 -0.0460 -0.1051
  949MOL0     C28023  -2.261   4.311   1.215  0.1240  0.0852  0.1135
  949MOL0     C28024  -2.411   4.338   1.162 -0.5386  0.6399  0.4366
  949MOL0    Cl28025  -2.535   4.253   1.257 -0.2023 -0.5911 -0.2759
  949MOL0     C28026  -1.307   4.473   0.950  0.3061 -0.9922  0.0302
  949MOL0     C28027  -1.201   4.388   0.938 -0.2034  0.0119 -0.1964
  949MOL0     O28028  -0.916   4.335   0.985 -0.0975  0.5225 -0.6117
  949MOL0     C28029  -0.910   3.979   0.955  0.0763  0.1281  0.5569
  949MOL0     C28030  -0.830   3.874   0.917 -0.2781 -0.1309 -0.2793
  949MOL0     N28031  -0.162   3.520   0.766 -0.4006 -0.3875 -0.0579
  949MOL0     N28032  -0.046   3.461   0.735  0.0607  0.2419 -1.1712
  949MOL0     C28033   0.873   3.216   0.873  0.0967  0.3628  0.5926
  949MOL0     C28034   0.871   3.319   0.968  1.2297 -0.4475 -1.1626
  949MOL0     C28035   0.829   3.698   1.218  0.0354  0.1905  0.3370
  949MOL0     C28036   0.890   3.732   1.334 -0.5603 -0.1926  0.3880
  949MOL0     C28037   0.866   3.849   1.401 -0.0831  0.5946  0.0539
  949MOL0     C28038   0.771   3.944   1.353  0.0797  0.4947  0.1329
  949MOL0     O28039   0.726   4.056   1.422 -0.3734  0.1712  0.1570
  949MOL0     C28040   0.808   4.099   1.535  1.3889 -0.1088  0.3026
  949MOL0     C28041   0.770   4.242   1.562  0.6527 -0.7694  0.2690
  949MOL0     C28042   0.628   4.267   1.624  0.1189 -0.0460  0.3155
  949MOL0     C28043   0.630   4.383   1.733 -0.4299  0.8561  0.3094
  949MOL0     C28044   0.503   4.395   1.798  0.3325  0.5818  0.1749
  949MOL0     C28045   0.389   4.382   1.832 -0.3685  0.5546  0.3397
  949MOL0     C28046   0.702   3.906   1.239 -0.1236  0.3201  0.1002
  949MOL0     C28047   0.727   3.787   1.170  0.3191  1.0585  1.0635
  949MOL0     H28048   0.769   3.587   0.776  1.2656 -0.4900 -1.4971
  949MOL0     H28049   0.812   3.416   0.600 -2.0056  0.8784 -0.0003
  949MOL0     H28050   0.713   3.222   0.485 -3.3129 -1.5582 -1.1788
  949MOL0     H28051   0.749   3.046   0.509 -0.9437 -1.2268  0.6391
  949MOL0     H28052   0.556   3.211   0.659  0.7270  1.0719 -0.4001
  949MOL0     H28053   0.517   3.101   0.541  2.3281  1.5195 -1.6860
  949MOL0     H28054   0.639   2.922   0.709 -1.4601 -0.1633 -1.5786
  949MOL0     H28055   0.638   3.068   0.812  0.2622  1.3406 -1.2403
  949MOL0     H28056   0.397   2.935   0.688  1.0444  2.3507 -2.6737
  949MOL0     H28057   0.452   2.906   0.863 -1.2074  1.6689  1.1336
  949MOL0     H28058   0.391   3.149   0.920  2.5021 -0.4764 -0.9106
  949MOL0     H28059   0.343   3.173   0.752 -2.8408  0.0131  1.0263
  949MOL0     H28060   0.170   2.968   0.805 -2.3635 -0.8040  2.8153
  949MOL0     H28061   0.219   3.010   0.968 -1.2801 -1.1096 -0.7134
  949MOL0     H28062   0.032   3.122   0.954  1.1964 -1.8242  0.0965
  949MOL0     H28063   0.161   3.238   0.946  3.5966 -2.4596  1.1372
  949MOL0     H28064   0.011   3.144   0.698  1.3686  0.5987 -1.7765
  949MOL0     H28065   0.132   3.268   0.701  2.1946 -2.9361  1.3919
  949MOL0     H28066  -0.214   3.217   0.884  0.9312 -0.3767 -1.3686
  949MOL0     H28067  -0.392   3.366   0.968 -2.4438 -0.5697 -0.5332
  949MOL0     H28068  -0.377   3.544   0.974  2.6923 -0.5224  1.0491
  949MOL0     H28069  -0.568   3.406   0.826 -0.7298  1.1342 -2.3803
  949MOL0     H28070  -0.443   3.397   0.702 -1.7441  2.1524 -3.3809
  949MOL0     H28071  -0.523   3.587   0.633 -0.7131  0.6040  0.5522
  949MOL0     H28072  -0.436   3.662   0.757 -1.2381  1.9318 -0.1212
  949MOL0     H28073  -0.620   3.648   0.916  1.5449  0.8900  0.4447
  949MOL0     H28074  -0.738   3.631   0.788  0.2073 -1.6594  2.4548
  949MOL0     H28075  -0.574   4.054   0.772  0.9306  0.7715  1.4295
  949MOL0     H28076  -0.739   4.340   0.817  0.6274  0.8265  1.0806
  949MOL0     H28077  -0.665   4.299   0.962 -2.4105 -1.1668  0.1043
  949MOL0     H28078  -0.577   4.259   0.803  0.0036 -0.9918 -0.8361
  949MOL0     H28079  -1.276   4.176   1.189 -0.1895 -2.4332 -1.7591
  949MOL0     H28080  -1.478   4.330   1.192 -0.2434 -1.1377 -0.3611
  949MOL0     H28081  -1.665   4.430   1.107  0.5977 -0.4079 -1.7157
  949MOL0     H28082  -1.597   4.539   1.229 -1.7030  3.5251  0.5368
  949MOL0     H28083  -1.706   4.731   1.144  2.1451  0.1113 -2.7535
  949MOL0     H28084  -1.758   4.644   0.999  1.5914 -0.6139  0.0454
  949MOL0     H28085  -1.915   4.683   1.220  1.2277  0.5915  1.7464
  949MOL0     H28086  -1.827   4.553   1.285 -2.4633  0.2006  1.5732
  949MOL0     H28087  -2.011   4.552   1.032 -2.0430 -1.0126  0.2624
  949MOL0     H28088  -1.893   4.427   1.059 -0.1515  0.4124 -2.1558
  949MOL0     H28089  -2.089   4.531   1.255 -0.1433  0.4009 -0.7301
  949MOL0     H28090  -2.006   4.371   1.266  2.2251  0.9556 -0.8031
  949MOL0     H28091  -2.197   4.438   1.043  2.1466 -0.6631 -1.7332
  949MOL0     H28092  -2.113   4.287   1.063 -0.1787  1.6451 -3.1383
  949MOL0     H28093  -2.246   4.358   1.313  0.0656  0.1220  0.1046
  949MOL0     H28094  -2.243   4.203   1.223 -0.2713  0.1203  1.7923
  949MOL0     H28095  -2.430   4.309   1.059 -0.2953  0.4572  0.4420
  949MOL0     H28096  -2.417   4.447   1.172 -0.4838  0.7825 -0.9708
  949MOL0     H28097  -1.306   4.562   0.888  0.7603  1.5584  3.3811
  949MOL0     H28098  -1.113   4.411   0.878 -0.0476 -2.1464 -0.8796
  949MOL0     H28099  -1.008   3.944   0.986  1.3302 -1.3242  3.2004
  949MOL0     H28100  -0.852   3.770   0.939  2.9695 -1.2951 -1.8771
  949MOL0     H28101   0.906   3.116   0.899 -1.9645  0.1118  2.4649
  949MOL0     H28102   0.902   3.293   1.069  1.1325  1.1812 -0.6725
  949MOL0     H28103   0.976   3.679   1.374 -0.3421  0.7472  1.2011
  949MOL0     H28104   0.911   3.856   1.500  0.0355 -2.1995  0.2857
  949MOL0     H28105   0.789   4.021   1.609  0.9857 -2.2828 -1.9324
  949MOL0     H28106   0.916   4.096   1.520  1.9852  1.3504  3.5489
  949MOL0     H28107   0.778   4.288   1.463  3.4098 -0.3414  0.6207
  949MOL0     H28108   0.848   4.283   1.627 -1.0736  2.5032  0.4818
  949MOL0     H28109   0.581   4.180   1.671  0.9840  0.0809  1.4724
  949MOL0     H28110   0.561   4.294   1.543  0.6318 -0.5832 -0.3012
  949MOL0     H28111   0.659   4.474   1.679 -2.8459  1.1646 -0.6169
  949MOL0     H28112   0.708   4.358   1.805 -2.9310 -0.9962  2.5699
  949MOL0     H28113   0.293   4.381   1.880 -0.8996  1.0235 -0.6800
  949MOL0     H28114   0.621   3.972   1.211 -0.9433  1.7807  4.9322
  949MOL0     H28115   0.684   3.767   1.072  0.0978  1.4136  1.0889
  950MOL0     O28116   3.269  10.492   4.569 -0.6622 -0.0627 -0.0974
  950MOL0     C28117   3.153  10.456   4.604 -0.4008  0.9088 -0.1742
  950MOL0     O28118   3.039  10.497   4.550  0.4464  0.3760 -0.5973
  950MOL0     C28119   3.031  10.573   4.436  0.6050 -0.1723  0.2492
  950MOL0     C28120   3.120  10.672   4.392  1.0627  0.3053 -0.1588
  950MOL0     C28121   3.090  10.756   4.284 -0.8122  0.1397  0.2602
  950MOL0     C28122   2.971  10.737   4.208  0.9165  0.4314  0.3014
  950MOL0     O28123   2.938  10.815   4.098  0.1231  0.0506 -0.7022
  950MOL0     C28124   3.048  10.846   4.009 -0.7059  0.5577 -0.1348
  950MOL0     C28125   3.010  10.939   3.897  0.6172 -0.7527  0.7378
  950MOL0     C28126   3.134  10.959   3.809  0.3818 -0.6691 -0.1897
  950MOL0     C28127   3.103  11.091   3.735  0.1949  0.1332  0.0003
  950MOL0     C28128   3.215  11.109   3.632 -0.1070  0.2708  0.2806
  950MOL0     C28129   3.191  11.246   3.565  0.3867  0.1590 -0.5510
  950MOL0     C28130   3.307  11.303   3.477  0.4270  0.1735  0.5491
  950MOL0     C28131   3.281  11.454   3.434 -0.3482 -0.4143 -0.5596
  950MOL0     N28132   3.157  11.469   3.353 -0.4074  0.3267 -0.2747
  950MOL0     C28133   3.154  11.491   3.212  0.6787  0.3284 -0.0110
  950MOL0     C28134   3.024  11.492   3.168 -0.5356 -0.5899 -0.7562
  950MOL0     C28135   2.972  11.538   3.036 -0.3703  0.2616  0.1211
  950MOL0     C28136   2.955  11.415   2.954 -0.4964  0.1910  0.0922
  950MOL0     C28137   2.887  11.443   2.824  0.4796  0.5596 -0.3757
  950MOL0     C28138   2.860  11.325   2.742  0.7426  0.0608  0.0091
  950MOL0     O28139   2.773  11.225   2.796  0.1965  0.2441  0.2339
  950MOL0     C28140   2.635  11.236   2.788  0.4290 -0.4300  0.1082
  950MOL0     C28141   2.567  11.156   2.875  0.3358 -0.4281 -0.1074
  950MOL0     C28142   2.428  11.159   2.902  0.0629 -1.2411  0.8406
  950MOL0     C28143   2.374  11.059   2.995 -0.0037 -0.0976  0.4797
  950MOL0     C28144   2.351  11.253   2.814 -0.0914  0.3027 -0.3351
  950MOL0     C28145   2.203  11.275   2.819  0.0781  0.3030 -0.2273
  950MOL0     O28146   2.140  11.222   2.922  0.4759  0.0385 -0.2748
  950MOL0     C28147   2.009  11.237   2.936 -0.5764 -0.5499  0.5544
  950MOL0     C28148   1.915  11.182   2.850  0.4367 -0.4544 -0.2577
  950MOL0     C28149   1.781  11.217   2.855 -0.1987 -0.9009  0.3681
  950MOL0     C28150   1.743  11.323   2.933 -0.0605 -1.2167  0.0573
  950MOL0     O28151   1.611  11.346   2.921 -0.3628 -0.2933 -1.3355
  950MOL0     C28152   1.551  11.466   2.963  0.8658  0.0466 -0.4982
  950MOL0     C28153   1.409  11.463   2.897  0.2953  0.8256  1.0837
  950MOL0     C28154   1.392  11.568   2.792 -1.0111 -0.3368 -0.1787
  950MOL0     C28155   1.258  11.580   2.732  0.8713 -0.2564 -0.1074
  950MOL0     C28156   1.147  11.639   2.831  0.5578  0.4406  0.3875
  950MOL0     C28157   1.010  11.652   2.763 -0.2764 -0.0168 -0.2503
  950MOL0     C28158   1.004  11.776   2.676  0.1867 -0.3645 -1.0810
  950MOL0     C28159   0.885  11.870   2.703  0.1684  0.9715  0.1562
  950MOL0    Cl28160   0.897  12.001   2.586 -0.3507 -0.1111 -0.4595
  950MOL0     C28161   1.839  11.391   3.018  0.5950 -0.2535  0.5872
  950MOL0     C28162   1.968  11.338   3.014 -0.1952  0.0668  0.5607
  950MOL0     O28163   2.155  11.342   2.730  0.2897  0.4588  0.4229
  950MOL0     C28164   2.417  11.326   2.710 -0.3192 -0.0456 -0.3466
  950MOL0     C28165   2.556  11.312   2.703 -0.0984  0.3443  0.2575
  950MOL0     N28166   2.950  11.494   3.287 -0.0868  0.7661 -0.0847
  950MOL0     N28167   3.026  11.475   3.391 -0.4492  0.0239  0.2511
  950MOL0     C28168   2.874  10.648   4.256  0.4675  0.8596 -0.2426
  950MOL0     C28169   2.916  10.556   4.362 -0.1861  0.6252 -0.2589
  950MOL0     C28170   3.132  10.344   4.702 -0.5709 -0.1608 -0.3815
  950MOL0     C28171   3.244  10.288   4.768 -0.7190  0.0994 -0.3116
  950MOL0     C28172   3.225  10.184   4.862  0.9278 -0.4003 -0.1564
  950MOL0     C28173   3.099  10.145   4.900  0.4632 -0.2099 -1.0304
  950MOL0     O28174   3.089  10.042   4.997 -0.5561  0.1962  0.1499
  950MOL0     C28175   2.959   9.979   5.017 -0.8892  0.0042  0.0701
  950MOL0     C28176   2.970   9.851   5.102  0.5706  0.3803  0.0384
  950MOL0     C28177   3.020   9.881   5.255  0.1558  0.0942  0.6383
  950MOL0     C28178   2.943   9.775   5.343 -0.4663 -0.0923  0.6386
  950MOL0     C28179   2.969   9.797   5.482  0.2566  0.8069  0.0306
  950MOL0     C28180   2.976   9.840   5.591  0.3273  0.2999  1.0632
  950MOL0     C28181   2.986  10.194   4.831 -0.5748 -0.8440 -0.7996
  950MOL0     C28182   3.002  10.290   4.735 -0.4602 -0.0328  0.8346
  950MOL0     H28183   3.207  10.689   4.454 -0.4107  0.0464  2.0955
  950MOL0     H28184   3.176  10.813   4.250 -0.3652 -0.2797  0.6772
  950MOL0     H28185   3.125  10.899   4.065 -0.7241  0.7866 -0.3252
  950MOL0     H28186   3.084  10.755   3.961 -2.5822 -1.1137  1.4626
  950MOL0     H28187   2.926  10.888   3.849  0.6657 -0.6089  0.4993
  950MOL0     H28188   2.971  11.032   3.940 -1.4658 -1.4246  0.3940
  950MOL0     H28189   3.222  10.972   3.872  1.2106  0.0792 -1.4528
  950MOL0     H28190   3.154  10.871   3.747  2.7025  0.6031 -1.3854
  950MOL0     H28191   3.000  11.101   3.700  0.2495 -2.6874 -1.1909
  950MOL0     H28192   3.111  11.168   3.813  1.3367 -1.7211  1.8134
  950MOL0     H28193   3.317  11.099   3.671  0.3502 -0.3267 -1.0168
  950MOL0     H28194   3.209  11.042   3.546  3.8641 -0.8747  0.7228
  950MOL0     H28195   3.109  11.217   3.499  1.0088 -2.5235 -0.2800
  950MOL0     H28196   3.163  11.317   3.643 -0.0240 -0.8459  0.2404
  950MOL0     H28197   3.393  11.300   3.544 -0.8031  0.4000  2.1869
  950MOL0     H28198   3.325  11.248   3.384 -0.4867  1.8740 -0.7132
  950MOL0     H28199   3.367  11.503   3.387  0.0550 -1.6812 -1.1881
  950MOL0     H28200   3.263  11.513   3.524  0.8549  0.3335 -0.7830
  950MOL0     H28201   3.243  11.502   3.151  2.0340  0.5652  1.9182
  950MOL0     H28202   2.874  11.586   3.048 -0.6927 -0.4838  0.5557
  950MOL0     H28203   3.030  11.618   2.989 -0.1854  0.7526  1.1521
  950MOL0     H28204   2.905  11.337   3.012 -0.0036 -0.8089 -0.7945
  950MOL0     H28205   3.049  11.362   2.936 -0.6645 -0.5518  1.3214
  950MOL0     H28206   2.962  11.500   2.767  2.1184 -0.4702  0.6633
  950MOL0     H28207   2.794  11.498   2.837  0.7611  1.1861 -0.9264
  950MOL0     H28208   2.946  11.261   2.722 -0.6229 -0.7164 -4.3975
  950MOL0     H28209   2.824  11.357   2.644  1.6664 -2.3142 -1.1733
  950MOL0     H28210   2.629  11.103   2.946 -0.2436  0.7920  1.3565
  950MOL0     H28211   2.454  11.010   3.051  1.9438  0.6151 -1.5426
  950MOL0     H28212   2.296  11.092   3.065 -1.3432 -0.4024 -0.8250
  950MOL0     H28213   2.324  10.983   2.934 -0.8280  1.0102 -0.2529
  950MOL0     H28214   1.954  11.111   2.778  1.7228 -0.8702  0.8069
  950MOL0     H28215   1.721  11.160   2.785 -1.5579  2.7145 -1.6360
  950MOL0     H28216   1.542  11.468   3.072  0.2171  2.1671 -0.5356
  950MOL0     H28217   1.603  11.549   2.914  1.3123  0.4008  0.5486
  950MOL0     H28218   1.376  11.362   2.868  0.0241  1.6147 -1.6575
  950MOL0     H28219   1.339  11.479   2.979 -2.7525 -0.1138 -1.0991
  950MOL0     H28220   1.458  11.545   2.707 -2.7751  1.2418 -2.1080
  950MOL0     H28221   1.403  11.671   2.827 -0.1176 -0.3497 -0.3988
  950MOL0     H28222   1.271  11.646   2.646  1.6569 -0.6476 -0.2998
  950MOL0     H28223   1.223  11.481   2.701 -2.1388  0.7197 -0.1094
  950MOL0     H28224   1.189  11.733   2.869  0.0911  1.0596 -0.5734
  950MOL0     H28225   1.150  11.577   2.920  4.2134  2.1926  1.6467
  950MOL0     H28226   0.995  11.562   2.702  2.8774 -1.8287  1.4262
  950MOL0     H28227   0.937  11.653   2.844 -0.3534  1.4392 -0.3128
  950MOL0     H28228   0.983  11.737   2.576  0.6449  1.9999 -2.1734
  950MOL0     H28229   1.099  11.829   2.678  1.5866 -2.7693  0.5123
  950MOL0     H28230   0.887  11.896   2.809 -1.4722 -0.2372  0.5382
  950MOL0     H28231   0.793  11.811   2.703  0.6697  0.0787  2.7981
  950MOL0     H28232   1.807  11.475   3.079 -2.2246 -0.9079  0.1452
  950MOL0     H28233   2.033  11.394   3.081  0.2237 -2.9391  2.8502
  950MOL0     H28234   2.377  11.398   2.640 -0.1667  1.9993  1.5573
  950MOL0     H28235   2.593  11.389   2.636 -0.3932  0.6685  0.4661
  950MOL0     H28236   2.779  10.636   4.205 -0.3679  1.1520  1.1675
  950MOL0     H28237   2.836  10.488   4.390  0.8599 -0.3095  0.5489
  950MOL0     H28238   3.343  10.317   4.736  0.0831 -2.2053 -0.1416
  950MOL0     H28239   3.306  10.119   4.893  0.7841 -1.5220 -1.9607
  950MOL0     H28240   2.894  10.052   5.065  1.3602  0.6594  2.3318
  950MOL0     H28241   2.925   9.958   4.915  2.3521 -0.0892 -1.1086
  950MOL0     H28242   3.038   9.782   5.051  1.8079  1.4621  0.1820
  950MOL0     H28243   2.876   9.794   5.102  2.2034 -2.5524  0.7520
  950MOL0     H28244   2.986   9.983   5.276 -1.9092 -0.0083 -1.7408
  950MOL0     H28245   3.129   9.869   5.265 -0.0148 -1.5915  0.7776
  950MOL0     H28246   2.979   9.675   5.319 -0.6534  0.2016 -0.9706
  950MOL0     H28247   2.833   9.779   5.337 -0.6416  0.0568  2.9588
  950MOL0     H28248   2.974   9.891   5.685  0.5452 -1.6699  2.2012
  950MOL0     H28249   2.892  10.144   4.853 -0.5556  0.1220  1.8232
  950MOL0     H28250   2.908  10.329   4.697 -0.2415 -1.0123 -0.7981
  951MOL0     O28251   0.276   5.374   5.889 -0.5421 -0.5982  0.5164
  951MOL0     C28252   0.192   5.287   5.909 -0.5912 -0.3321 -0.6152
  951MOL0     O28253   0.218   5.157   5.958  0.1275  0.2362  0.0179
  951MOL0     C28254   0.344   5.106   5.968 -0.5718 -0.9703  0.0214
  951MOL0     C28255   0.349   4.966   5.964 -0.5528 -0.5656  0.2399
  951MOL0     C28256   0.475   4.894   5.969  1.0447 -0.8080 -0.3860
  951MOL0     C28257   0.596   4.963   6.003  0.4044  0.1093  0.8516
  951MOL0     O28258   0.720   4.901   6.025  0.6399  0.5161 -0.0769
  951MOL0     C28259   0.708   4.773   6.075 -0.0084  0.5483 -0.2844
  951MOL0     C28260   0.841   4.734   6.137 -1.0258 -0.4992 -0.7719
  951MOL0     C28261   0.864   4.807   6.265 -0.9289  0.4983 -0.6142
  951MOL0     C28262   0.808   4.738   6.388  0.1812 -0.3923 -0.3910
  951MOL0     C28263   0.804   4.821   6.512  0.3551 -0.0661  0.0297
  951MOL0     C28264   0.739   4.744   6.635  0.2728  0.1432  0.9360
  951MOL0     C28265   0.719   4.833   6.765 -0.5505 -0.9615  0.0528
  951MOL0     C28266   0.698   4.761   6.898 -0.9486 -0.1834  0.0107
  951MOL0     N28267   0.678   4.855   7.011 -0.8088 -0.2055 -0.1822
  951MOL0     C28268   0.738   4.982   7.033 -0.4429 -0.5149  0.0984
  951MOL0     C28269   0.677   5.025   7.143 -0.1570 -0.0416 -0.1801
  951MOL0     C28270   0.679   5.166   7.196 -0.0926 -1.1422  0.1931
  951MOL0     C28271   0.652   5.274   7.089 -0.5383 -0.1657 -0.1249
  951MOL0     C28272   0.509   5.276   7.029 -0.0964  0.0797  0.4813
  951MOL0     C28273   0.406   5.365   7.094  0.1439 -0.3609 -0.1256
  951MOL0     O28274   0.435   5.499   7.054 -0.1031 -0.2818 -0.3269
  951MOL0     C28275   0.512   5.583   7.133  1.0520  0.5169  0.2193
  951MOL0     C28276   0.527   5.580   7.270  0.7651 -0.0814 -0.3805
  951MOL0     C28277   0.600   5.685   7.335 -0.3207  0.8253 -1.2612
  951MOL0     C28278   0.597   5.673   7.485  0.0208  0.0688  0.5478
  951MOL0     C28279   0.655   5.802   7.269  1.2935  0.2832 -0.0047
  951MOL0     C28280   0.737   5.912   7.333  1.4480  1.2392 -0.6190
  951MOL0     O28281   0.775   5.891   7.469 -0.7514 -0.7843 -0.5423
  951MOL0     C28282   0.860   5.990   7.527 -0.7981  0.9378 -0.7961
  951MOL0     C28283   0.998   5.958   7.529  0.3895 -0.4056  0.2327
  951MOL0     C28284   1.088   6.043   7.577 -0.4751 -1.4048  0.3971
  951MOL0     C28285   1.055   6.165   7.643  0.3075 -0.5787  0.7898
  951MOL0     O28286   1.154   6.260   7.662 -0.4807  0.4776 -0.8318
  951MOL0     C28287   1.294   6.219   7.685 -1.0510 -0.2657  0.7903
  951MOL0     C28288   1.390   6.332   7.734  0.1442 -0.2059  0.2090
  951MOL0     C28289   1.364   6.405   7.867  0.5231  0.6703 -0.3878
  951MOL0     C28290   1.473   6.516   7.882 -1.0460  0.0371  0.6234
  951MOL0     C28291   1.448   6.594   8.011 -0.5878  0.2988 -0.2253
  951MOL0     C28292   1.531   6.550   8.137  0.0352 -0.3435 -0.0521
  951MOL0     C28293   1.672   6.579   8.115 -0.3457  0.2878  0.0167
  951MOL0     C28294   1.755   6.452   8.149 -0.8918 -0.6689  0.2896
  951MOL0    Cl28295   1.927   6.455   8.105 -0.1904 -0.6617  0.3686
  951MOL0     C28296   0.921   6.200   7.644  0.9523 -0.3895  0.1138
  951MOL0     C28297   0.824   6.116   7.588 -0.0452 -0.2802  1.0454
  951MOL0     O28298   0.752   6.016   7.274 -0.3564  0.4452  0.2576
  951MOL0     C28299   0.617   5.810   7.137  0.2627  0.2313 -0.0579
  951MOL0     C28300   0.549   5.703   7.074  1.1108 -0.8345 -0.5947
  951MOL0     N28301   0.599   4.927   7.191 -0.0222  1.1754  0.4492
  951MOL0     N28302   0.588   4.826   7.105 -0.3609  0.1440  0.4334
  951MOL0     C28303   0.590   5.104   6.004 -0.9679  0.2320 -1.1269
  951MOL0     C28304   0.472   5.170   5.977 -0.4032  0.4619 -1.1047
  951MOL0     C28305   0.057   5.338   5.901 -0.1251 -1.0393  0.9233
  951MOL0     C28306   0.016   5.461   5.837 -0.0578 -0.4363  0.1007
  951MOL0     C28307  -0.110   5.515   5.857  0.5446 -0.3885  0.3391
  951MOL0     C28308  -0.204   5.436   5.920 -0.1426 -0.9863  0.3394
  951MOL0     O28309  -0.323   5.511   5.939 -0.2356 -0.1260 -0.5106
  951MOL0     C28310  -0.443   5.444   5.990 -0.1161 -0.7228  0.5816
  951MOL0     C28311  -0.568   5.528   5.951 -0.1659  0.2729 -0.0840
  951MOL0     C28312  -0.578   5.657   6.027 -0.2176 -0.5166 -0.2153
  951MOL0     C28313  -0.689   5.752   5.969 -0.2054  0.5269 -0.2940
  951MOL0     C28314  -0.684   5.885   6.024 -0.1702  0.4243  0.4112
  951MOL0     C28315  -0.687   6.003   6.063 -1.1534  0.1505 -0.2105
  951MOL0     C28316  -0.183   5.302   5.965  0.0555 -0.3432  0.9994
  951MOL0     C28317  -0.051   5.262   5.955  1.0811  0.7420  0.4903
  951MOL0     H28318   0.261   4.904   5.951 -0.6708 -0.4051  0.2667
  951MOL0     H28319   0.486   4.788   5.949  0.1885 -0.9725 -0.0428
  951MOL0     H28320   0.632   4.762   6.153 -0.7381  0.2808 -1.0218
  951MOL0     H28321   0.700   4.708   5.987  2.8584  0.3457 -0.4836
  951MOL0     H28322   0.842   4.627   6.158  1.8648 -0.4753 -0.4168
  951MOL0     H28323   0.919   4.753   6.063  0.6881  0.9467  1.2944
  951MOL0     H28324   0.971   4.816   6.286 -0.7829 -0.6362 -0.8045
  951MOL0     H28325   0.818   4.906   6.260 -1.7067  0.2616  1.1325
  951MOL0     H28326   0.702   4.714   6.377  0.7458 -4.1063  0.7983
  951MOL0     H28327   0.863   4.647   6.413  3.5792  1.5829  0.0395
  951MOL0     H28328   0.907   4.853   6.532 -0.2714  1.3851  1.0543
  951MOL0     H28329   0.750   4.914   6.497  1.3513  0.0256 -3.8986
  951MOL0     H28330   0.644   4.695   6.611  0.8318 -1.0501  1.0800
  951MOL0     H28331   0.804   4.660   6.663 -0.7014  0.2897  3.9549
  951MOL0     H28332   0.811   4.889   6.782 -0.0860 -0.7539 -2.6636
  951MOL0     H28333   0.636   4.902   6.747  0.1633 -0.4533 -1.4404
  951MOL0     H28334   0.790   4.706   6.919  0.4797  2.8371  2.4159
  951MOL0     H28335   0.610   4.696   6.893 -0.8276 -0.7945  3.3730
  951MOL0     H28336   0.805   5.030   6.963  2.1094 -2.9635  0.7105
  951MOL0     H28337   0.605   5.167   7.277  0.1873 -2.7418  0.5062
  951MOL0     H28338   0.778   5.186   7.237 -0.4209  2.8191 -0.5632
  951MOL0     H28339   0.740   5.275   7.023 -0.5182  0.2793 -0.0949
  951MOL0     H28340   0.671   5.367   7.142  3.5607  0.0301 -1.5644
  951MOL0     H28341   0.467   5.176   7.037 -0.7320 -0.1170 -3.4399
  951MOL0     H28342   0.508   5.300   6.923  2.0282 -0.2836  0.3428
  951MOL0     H28343   0.383   5.340   7.198 -2.7516  0.7385 -0.4162
  951MOL0     H28344   0.310   5.341   7.048  0.2962 -1.1463 -0.0624
  951MOL0     H28345   0.477   5.505   7.331  2.0332 -0.0075  0.7996
  951MOL0     H28346   0.574   5.765   7.540 -2.1680 -0.4642  0.5833
  951MOL0     H28347   0.520   5.605   7.522 -1.7477  0.6957 -1.7458
  951MOL0     H28348   0.693   5.636   7.522 -0.6004  1.3492  3.7701
  951MOL0     H28349   1.045   5.870   7.485 -0.8569 -1.0540  0.1504
  951MOL0     H28350   1.190   6.009   7.559 -0.7336 -1.7951 -0.3581
  951MOL0     H28351   1.296   6.139   7.759  0.7999  0.2940  1.3887
  951MOL0     H28352   1.343   6.186   7.593  2.7887 -0.8116  2.8170
  951MOL0     H28353   1.483   6.274   7.731 -0.9526 -2.2794  2.7340
  951MOL0     H28354   1.400   6.410   7.658 -0.3748 -0.4275 -0.0921
  951MOL0     H28355   1.372   6.336   7.952  0.3935  2.4719  1.1670
  951MOL0     H28356   1.266   6.452   7.861  1.5726  2.8616 -1.7404
  951MOL0     H28357   1.575   6.477   7.876 -1.7092 -1.5593 -2.5240
  951MOL0     H28358   1.468   6.580   7.793  0.5272 -1.5230 -0.6753
  951MOL0     H28359   1.340   6.601   8.023 -1.0370  1.7301 -3.8389
  951MOL0     H28360   1.474   6.698   7.986 -1.8490  0.1792 -2.1972
  951MOL0     H28361   1.495   6.601   8.227 -0.5547  1.2249 -1.1338
  951MOL0     H28362   1.516   6.442   8.149  1.8643 -0.8278 -1.6884
  951MOL0     H28363   1.696   6.672   8.168 -0.9884  0.2288  0.4238
  951MOL0     H28364   1.695   6.595   8.009  1.3925 -0.0080  0.3113
  951MOL0     H28365   1.725   6.373   8.079  1.2874 -2.2741  1.0502
  951MOL0     H28366   1.748   6.423   8.254  0.3664  5.9426  2.6611
  951MOL0     H28367   0.890   6.296   7.683  2.1946 -0.7245  2.0698
  951MOL0     H28368   0.725   6.156   7.567  0.1104 -1.3651 -2.5822
  951MOL0     H28369   0.645   5.888   7.067  1.5383 -0.5057 -0.4011
  951MOL0     H28370   0.510   5.712   6.973  0.4022  0.5173 -0.2306
  951MOL0     H28371   0.682   5.158   6.024 -0.5424  0.5508 -3.6422
  951MOL0     H28372   0.479   5.277   5.993 -3.8043  0.4673  1.4035
  951MOL0     H28373   0.096   5.509   5.782 -2.4087  1.7110 -1.7001
  951MOL0     H28374  -0.145   5.610   5.816 -0.7477 -0.3379  1.4807
  951MOL0     H28375  -0.451   5.344   5.946  0.8111 -0.0113 -1.3465
  951MOL0     H28376  -0.429   5.450   6.098 -0.7398 -2.5936  0.8129
  951MOL0     H28377  -0.664   5.478   5.950 -0.0742 -0.0498 -3.2835
  951MOL0     H28378  -0.555   5.564   5.848  0.8440 -1.2623 -0.5257
  951MOL0     H28379  -0.482   5.709   6.014  0.4950 -0.9169  2.7906
  951MOL0     H28380  -0.604   5.640   6.132 -2.5349  1.6481 -0.3372
  951MOL0     H28381  -0.785   5.700   5.980  0.4398 -0.9619 -1.3277
  951MOL0     H28382  -0.669   5.769   5.863  1.0330  1.1101  0.0197
  951MOL0     H28383  -0.713   6.105   6.086  0.1151  0.3042  0.6879
  951MOL0     H28384  -0.257   5.240   6.014 -0.4723 -0.1629  0.4393
  951MOL0     H28385  -0.027   5.167   6.003 -1.0375 -1.4130 -2.3105
  952MOL0     O28386   8.742   8.624   2.980  0.8356 -0.3953 -0.4183
  952MOL0     C28387   8.641   8.577   2.920  1.5000  0.3924 -1.1187
  952MOL0     O28388   8.636   8.492   2.810  0.3860  0.9092 -0.0641
  952MOL0     C28389   8.757   8.457   2.747  0.5412 -0.5426  0.9761
  952MOL0     C28390   8.788   8.504   2.614  0.6101 -0.0755 -0.2577
  952MOL0     C28391   8.901   8.473   2.547  0.1235 -0.5787 -0.2392
  952MOL0     C28392   8.995   8.391   2.603  0.8122 -0.3479  0.8468
  952MOL0     O28393   9.101   8.360   2.521 -0.3073  0.1395  0.6092
  952MOL0     C28394   9.170   8.234   2.543 -0.1167 -0.5699 -0.0773
  952MOL0     C28395   9.251   8.196   2.415  1.3674  0.4950 -0.0963
  952MOL0     C28396   9.169   8.100   2.322  0.0820 -0.2289 -0.8756
  952MOL0     C28397   9.168   7.958   2.393 -0.1452  0.5964 -0.6959
  952MOL0     C28398   9.071   7.868   2.331 -0.0968  0.3403 -0.9406
  952MOL0     C28399   9.076   7.737   2.411 -0.9064  0.1362  0.1901
  952MOL0     C28400   8.986   7.634   2.347 -0.0275 -0.1883  0.1725
  952MOL0     C28401   8.989   7.512   2.431  0.0943 -0.1005  0.6793
  952MOL0     N28402   8.885   7.416   2.387  0.2380 -0.0322 -0.5284
  952MOL0     C28403   8.757   7.422   2.434  0.2182 -0.2592  0.7988
  952MOL0     C28404   8.705   7.302   2.401 -0.0059 -0.0926  0.1814
  952MOL0     C28405   8.559   7.263   2.414  0.0827 -0.1968 -1.0534
  952MOL0     C28406   8.459   7.374   2.363  0.5427 -1.2303  0.3100
  952MOL0     C28407   8.326   7.307   2.348 -0.8936 -0.1678 -0.2637
  952MOL0     C28408   8.210   7.375   2.276  0.0101  0.9372 -0.1180
  952MOL0     O28409   8.106   7.283   2.264  0.4826 -0.9169  0.0129
  952MOL0     C28410   7.989   7.330   2.222 -0.2862 -0.3246  0.6732
  952MOL0     C28411   7.965   7.435   2.136  0.0360  0.1449  0.5839
  952MOL0     C28412   7.836   7.472   2.099  1.1044  0.9353 -0.3868
  952MOL0     C28413   7.838   7.588   2.005 -0.4374 -0.1810  0.3019
  952MOL0     C28414   7.719   7.400   2.141  0.5749 -0.2412 -0.3752
  952MOL0     C28415   7.572   7.424   2.102 -0.6459 -0.0412 -0.2280
  952MOL0     O28416   7.472   7.402   2.186 -0.5176 -0.6057 -0.3545
  952MOL0     C28417   7.346   7.428   2.137 -0.0007  0.9405 -0.7841
  952MOL0     C28418   7.287   7.551   2.147 -0.0941  0.4313 -0.7049
  952MOL0     C28419   7.154   7.571   2.120  0.3236 -0.2252  1.2066
  952MOL0     C28420   7.079   7.458   2.074 -0.2638  0.7968 -0.0371
  952MOL0     O28421   6.957   7.485   2.036  0.1164  0.3819  0.3664
  952MOL0     C28422   6.876   7.389   1.965  0.0169  0.0958 -0.6974
  952MOL0     C28423   6.732   7.449   1.956  0.4972 -0.0201  0.2709
  952MOL0     C28424   6.624   7.361   1.886  0.8579 -0.0940 -0.8311
  952MOL0     C28425   6.503   7.457   1.865  0.1301 -0.0004 -0.8000
  952MOL0     C28426   6.387   7.371   1.791 -0.2639 -0.2945 -0.6936
  952MOL0     C28427   6.314   7.284   1.901  0.3551  0.3881 -0.4283
  952MOL0     C28428   6.201   7.196   1.840  0.4077 -0.3928 -0.9929
  952MOL0     C28429   6.113   7.144   1.951  0.2222 -0.0911  0.1572
  952MOL0    Cl28430   6.200   7.016   2.032 -0.2708  0.0603  0.0453
  952MOL0     C28431   7.135   7.328   2.056  0.1463 -1.0160 -0.4134
  952MOL0     C28432   7.272   7.317   2.082 -0.2113  0.2865  0.1516
  952MOL0     O28433   7.562   7.466   1.988 -0.2251  0.6631 -0.4206
  952MOL0     C28434   7.738   7.289   2.221 -0.3289  0.0350  1.1759
  952MOL0     C28435   7.869   7.267   2.265 -0.8920  0.4355 -0.4857
  952MOL0     N28436   8.802   7.224   2.354  0.1500 -0.2478 -0.4046
  952MOL0     N28437   8.915   7.290   2.350 -0.3731  0.3546  0.1308
  952MOL0     C28438   8.970   8.342   2.736 -0.6501  0.2979  0.2999
  952MOL0     C28439   8.847   8.377   2.802  0.0467 -0.2494 -0.1436
  952MOL0     C28440   8.517   8.594   2.993 -0.5314  0.7741 -0.2666
  952MOL0     C28441   8.406   8.506   2.973  0.2000 -0.6683  0.4390
  952MOL0     C28442   8.287   8.529   3.036 -0.1102 -0.5029  0.5921
  952MOL0     C28443   8.279   8.619   3.139  0.5442  0.3896 -0.4597
  952MOL0     O28444   8.171   8.615   3.228 -0.0598  0.2196 -0.0992
  952MOL0     C28445   8.094   8.739   3.228 -0.4117 -0.4322  0.5592
  952MOL0     C28446   8.073   8.797   3.368 -0.4540 -0.0501 -0.0772
  952MOL0     C28447   7.945   8.743   3.440  0.2687 -0.5349  0.2993
  952MOL0     C28448   7.919   8.818   3.573 -0.0640  0.1973  0.0748
  952MOL0     C28449   7.865   8.947   3.550  0.9500  0.1172 -0.0140
  952MOL0     C28450   7.814   9.049   3.500  1.3042  0.0305 -0.2476
  952MOL0     C28451   8.389   8.695   3.172  0.6450  0.0861  0.5277
  952MOL0     C28452   8.514   8.678   3.109 -0.0834  0.3507  0.0594
  952MOL0     H28453   8.714   8.559   2.556  1.1643 -0.2072 -1.1042
  952MOL0     H28454   8.908   8.487   2.440  1.3477  1.5836  0.0588
  952MOL0     H28455   9.222   8.238   2.639  0.6567  0.7815 -0.5145
  952MOL0     H28456   9.097   8.155   2.560  0.3373 -1.1607 -0.7953
  952MOL0     H28457   9.265   8.284   2.352  0.7118 -0.4745 -1.6671
  952MOL0     H28458   9.349   8.154   2.440 -0.0546 -2.2781  1.3020
  952MOL0     H28459   9.067   8.138   2.308  1.2846  3.8682  0.1327
  952MOL0     H28460   9.216   8.088   2.224  0.6011  4.2865 -1.3572
  952MOL0     H28461   9.268   7.917   2.374 -0.2601  0.4167 -0.9100
  952MOL0     H28462   9.143   7.968   2.498  0.5211  0.1806 -0.4879
  952MOL0     H28463   8.968   7.906   2.335 -0.1156  0.2146  1.0787
  952MOL0     H28464   9.090   7.860   2.224  0.6304  0.7366 -0.8497
  952MOL0     H28465   9.178   7.697   2.410 -1.6469 -1.8316 -0.3609
  952MOL0     H28466   9.065   7.749   2.519  2.6407  0.3213  0.6587
  952MOL0     H28467   8.880   7.659   2.333  0.2491  0.5018 -0.8497
  952MOL0     H28468   9.024   7.610   2.247 -0.3431 -0.1468  0.0405
  952MOL0     H28469   8.967   7.542   2.534 -2.5028  1.2539 -0.1808
  952MOL0     H28470   9.086   7.460   2.437  1.5065  2.3863  0.7833
  952MOL0     H28471   8.713   7.511   2.478  0.5782  2.0735 -3.0668
  952MOL0     H28472   8.547   7.159   2.383 -2.0156 -0.7977  1.3671
  952MOL0     H28473   8.543   7.272   2.522  1.9842  4.4073 -0.9120
  952MOL0     H28474   8.492   7.418   2.268 -0.1738 -0.5626  0.3561
  952MOL0     H28475   8.451   7.450   2.441 -1.2521 -0.2323 -0.7790
  952MOL0     H28476   8.289   7.295   2.450 -0.6009  0.8267 -0.0327
  952MOL0     H28477   8.348   7.210   2.302 -0.0058 -0.4860  0.7977
  952MOL0     H28478   8.239   7.406   2.175  0.2456  0.2933 -0.2507
  952MOL0     H28479   8.178   7.468   2.325  1.6336  1.4087  0.1277
  952MOL0     H28480   8.056   7.483   2.101  0.7764 -1.3752  0.2961
  952MOL0     H28481   7.935   7.638   2.011 -0.5208 -0.0016  0.1499
  952MOL0     H28482   7.811   7.556   1.905 -0.8481  0.1666  0.3027
  952MOL0     H28483   7.760   7.659   2.033 -2.8125 -2.0205 -1.2264
  952MOL0     H28484   7.349   7.625   2.198  0.5440 -1.5693  1.5973
  952MOL0     H28485   7.118   7.674   2.125 -0.3593 -0.2368 -1.7116
  952MOL0     H28486   6.916   7.359   1.868  0.7617 -1.2562 -0.0026
  952MOL0     H28487   6.861   7.291   2.011 -2.3786 -0.1342 -1.8591
  952MOL0     H28488   6.689   7.480   2.052 -0.1432  1.0970 -0.3490
  952MOL0     H28489   6.742   7.543   1.901 -0.5793  0.2034  0.4405
  952MOL0     H28490   6.603   7.278   1.953  0.0384  1.6934  1.2553
  952MOL0     H28491   6.654   7.313   1.793  2.1512 -1.6220  0.3310
  952MOL0     H28492   6.470   7.492   1.963  0.6188 -0.3288 -0.5173
  952MOL0     H28493   6.531   7.540   1.798  0.3572  1.3098  0.8545
  952MOL0     H28494   6.432   7.307   1.716  2.1648 -1.2320  1.4027
  952MOL0     H28495   6.308   7.436   1.752  0.5242  0.5712 -0.8713
  952MOL0     H28496   6.384   7.221   1.957  0.4323  0.9787  0.1485
  952MOL0     H28497   6.263   7.333   1.985 -0.8897 -3.3046  1.1868
  952MOL0     H28498   6.243   7.112   1.784 -0.6662  0.6867 -3.5888
  952MOL0     H28499   6.155   7.258   1.762 -0.9563 -1.2322 -0.8922
  952MOL0     H28500   6.022   7.104   1.905  1.0008 -0.3991 -1.1577
  952MOL0     H28501   6.082   7.222   2.021 -0.3159  0.8242 -1.0637
  952MOL0     H28502   7.088   7.250   1.996  0.3092  1.7979 -4.6241
  952MOL0     H28503   7.329   7.226   2.070  2.2484  1.8353 -0.7819
  952MOL0     H28504   7.656   7.225   2.253  1.1061 -3.0732 -0.8945
  952MOL0     H28505   7.882   7.186   2.336  0.8097 -1.7186 -3.0325
  952MOL0     H28506   9.045   8.291   2.796  2.7226  3.1798 -1.0956
  952MOL0     H28507   8.820   8.335   2.898 -2.5671 -1.2917 -1.2506
  952MOL0     H28508   8.406   8.429   2.897 -1.4721  0.9132 -1.2661
  952MOL0     H28509   8.199   8.469   3.016  0.5140 -0.1628 -4.1931
  952MOL0     H28510   8.135   8.819   3.166  1.1069 -0.9544  0.8632
  952MOL0     H28511   7.994   8.710   3.196  0.3736 -1.4658 -1.0636
  952MOL0     H28512   8.090   8.905   3.361  0.0085  0.0035  1.3946
  952MOL0     H28513   8.164   8.773   3.425  2.5862  0.5738 -4.1798
  952MOL0     H28514   7.952   8.634   3.438 -0.4437 -0.5994  1.1135
  952MOL0     H28515   7.855   8.743   3.378 -0.4597 -2.2349  1.2938
  952MOL0     H28516   8.016   8.828   3.623  0.3825  2.0049 -1.0644
  952MOL0     H28517   7.858   8.756   3.639  0.3661 -0.6816 -0.3254
  952MOL0     H28518   7.773   9.137   3.452  0.1654 -0.2203  0.2241
  952MOL0     H28519   8.387   8.755   3.262  0.3028 -0.9231  1.2090
  952MOL0     H28520   8.600   8.736   3.142  0.5141 -0.2477 -0.4200
  953MOL0     O28521   8.084   6.720   0.353 -0.3961  0.1487 -0.1477
  953MOL0     C28522   8.189   6.763   0.294  0.1028 -0.8475  1.3831
  953MOL0     O28523   8.186   6.866   0.197 -0.8180  0.8569 -0.2498
  953MOL0     C28524   8.064   6.886   0.151  0.1621 -0.4962  1.5277
  953MOL0     C28525   7.983   7.001   0.178 -0.4257  0.9055  0.0879
  953MOL0     C28526   7.847   7.015   0.138 -0.5277 -0.1406  0.5043
  953MOL0     C28527   7.796   6.928   0.051  0.1470  0.2205 -0.6619
  953MOL0     O28528   7.660   6.935   0.022 -0.1484 -0.2978 -0.7468
  953MOL0     C28529   7.625   6.882  -0.104  0.2398  0.1969  0.0652
  953MOL0     C28530   7.504   6.959  -0.159  0.1551  0.3373  0.6085
  953MOL0     C28531   7.362   6.908  -0.104  0.0973  0.4827  0.1312
  953MOL0     C28532   7.247   6.965  -0.187 -0.2661  0.2059  0.3786
  953MOL0     C28533   7.099   6.928  -0.134  0.3373  0.6324 -0.0151
  953MOL0     C28534   6.988   6.995  -0.220 -0.1242  0.7625  0.4993
  953MOL0     C28535   6.849   6.950  -0.186 -0.5847  0.9899 -0.5202
  953MOL0     C28536   6.748   7.020  -0.280 -0.0277  0.7151 -0.7628
  953MOL0     N28537   6.609   6.986  -0.234 -0.2227  0.2206  0.3813
  953MOL0     C28538   6.547   6.866  -0.271  0.6813 -0.1681  0.1403
  953MOL0     C28539   6.424   6.877  -0.211 -0.2194 -0.6028  0.0622
  953MOL0     C28540   6.307   6.783  -0.228  0.3505  0.0389 -0.0683
  953MOL0     C28541   6.177   6.819  -0.151  0.7615  1.1237 -0.8393
  953MOL0     C28542   6.119   6.939  -0.226 -0.1104 -1.1081 -0.1418
  953MOL0     C28543   5.976   6.967  -0.185 -0.2012 -0.1537 -0.2313
  953MOL0     O28544   5.883   6.862  -0.217  0.1510 -0.0427 -0.2710
  953MOL0     C28545   5.749   6.891  -0.200 -0.3268  0.0792  0.6014
  953MOL0     C28546   5.705   7.006  -0.134 -0.0526 -0.0161  0.6219
  953MOL0     C28547   5.568   7.038  -0.118  0.8135  0.7697 -0.2945
  953MOL0     C28548   5.546   7.157  -0.025  0.8681 -0.2667  0.5912
  953MOL0     C28549   5.457   6.954  -0.176 -1.0138  0.9182  0.5162
  953MOL0     C28550   5.309   6.992  -0.170 -0.7119  0.5836  0.0170
  953MOL0     O28551   5.225   6.890  -0.186 -1.1226 -0.0517  0.3888
  953MOL0     C28552   5.108   6.932  -0.241  1.0510  0.2120  0.7250
  953MOL0     C28553   5.072   6.915  -0.374  0.5847  0.1670  0.9787
  953MOL0     C28554   4.947   6.959  -0.425  0.5319 -0.7201 -0.2924
  953MOL0     C28555   4.864   7.026  -0.353  0.2903 -0.9167 -0.3366
  953MOL0     O28556   4.749   7.085  -0.399  0.3441 -0.8271 -0.0810
  953MOL0     C28557   4.727   7.109  -0.532  0.5330 -0.4147  0.0683
  953MOL0     C28558   4.589   7.175  -0.522 -0.0559 -0.3134 -0.0847
  953MOL0     C28559   4.472   7.064  -0.521 -0.2537  0.0288  0.5042
  953MOL0     C28560   4.441   7.010  -0.664  0.8170 -0.0045 -0.4101
  953MOL0     C28561   4.332   6.898  -0.656  0.0498 -0.5022 -0.3473
  953MOL0     C28562   4.279   6.854  -0.793  1.0032  0.7948 -0.4139
  953MOL0     C28563   4.196   6.723  -0.773  0.8532 -0.1194 -0.6010
  953MOL0     C28564   4.148   6.671  -0.905  1.0481  0.3763 -0.0763
  953MOL0    Cl28565   4.073   6.515  -0.882 -0.2015  0.0243 -0.4811
  953MOL0     C28566   4.890   7.049  -0.218 -0.2320  0.2375 -0.0609
  953MOL0     C28567   5.010   6.992  -0.164 -0.1697 -1.0678 -0.0379
  953MOL0     O28568   5.288   7.115  -0.189 -0.2185 -1.0047  0.2611
  953MOL0     C28569   5.502   6.828  -0.237  0.5915 -0.2303 -0.2993
  953MOL0     C28570   5.639   6.803  -0.249 -0.1989  0.2481 -0.3366
  953MOL0     N28571   6.419   6.990  -0.131 -0.0748  0.0008  0.3497
  953MOL0     N28572   6.525   7.055  -0.148  0.7522 -0.0227  0.4951
  953MOL0     C28573   7.876   6.810   0.012 -0.8615 -0.5863 -0.0160
  953MOL0     C28574   8.007   6.795   0.069  0.7400  0.6512 -0.0420
  953MOL0     C28575   8.310   6.712   0.349 -0.3977 -0.7104 -0.3295
  953MOL0     C28576   8.439   6.785   0.343  0.7466  0.1080  0.4958
  953MOL0     C28577   8.546   6.728   0.399 -1.1491 -0.8167 -0.4110
  953MOL0     C28578   8.540   6.620   0.480 -0.3495 -0.1852  0.6204
  953MOL0     O28579   8.659   6.605   0.548  0.3757  0.2838  0.8616
  953MOL0     C28580   8.684   6.477   0.609  0.2414  0.2044  1.2072
  953MOL0     C28581   8.814   6.472   0.686 -0.2504  0.7741 -0.1195
  953MOL0     C28582   8.854   6.329   0.720  0.0046 -0.0849 -0.5981
  953MOL0     C28583   8.970   6.310   0.815 -0.9913  0.1824 -0.0829
  953MOL0     C28584   8.982   6.171   0.860  0.1772  0.4975  0.4640
  953MOL0     C28585   9.006   6.056   0.894  0.3329  0.9321  0.1082
  953MOL0     C28586   8.422   6.551   0.489 -0.6061  1.0310 -0.2480
  953MOL0     C28587   8.299   6.593   0.431 -0.2132 -0.3165 -0.1392
  953MOL0     H28588   8.010   7.066   0.260 -1.8594  2.5163 -0.6518
  953MOL0     H28589   7.774   7.083   0.181  0.2929 -0.0069  1.7240
  953MOL0     H28590   7.711   6.890  -0.172 -1.6943  4.1645 -2.2875
  953MOL0     H28591   7.591   6.778  -0.097  1.7950 -0.2250  2.8125
  953MOL0     H28592   7.526   7.066  -0.147 -1.7645  0.5010  3.4063
  953MOL0     H28593   7.504   6.940  -0.267  1.3229  2.0456  0.2585
  953MOL0     H28594   7.373   6.800  -0.116  1.5100  0.3893  1.8493
  953MOL0     H28595   7.346   6.946  -0.003  0.7842  1.1581 -0.0063
  953MOL0     H28596   7.253   7.074  -0.195 -0.3883  0.2378  0.6859
  953MOL0     H28597   7.255   6.929  -0.289 -0.8289  2.1004 -0.3785
  953MOL0     H28598   7.091   6.819  -0.132 -3.1372  0.6404  4.6655
  953MOL0     H28599   7.097   6.969  -0.032  1.3077  2.5168 -0.7028
  953MOL0     H28600   7.001   7.103  -0.206  1.8168  0.3943  2.0338
  953MOL0     H28601   7.001   6.969  -0.325  0.2897  0.6499  0.5787
  953MOL0     H28602   6.841   6.841  -0.199 -2.3257  0.8774  0.9738
  953MOL0     H28603   6.828   6.979  -0.082  2.0352  2.0933 -0.2336
  953MOL0     H28604   6.775   6.994  -0.383  0.8751 -1.8065  0.0319
  953MOL0     H28605   6.756   7.129  -0.274  0.5728  0.6368  0.1345
  953MOL0     H28606   6.564   6.792  -0.348 -0.2636  1.3522 -1.6080
  953MOL0     H28607   6.285   6.753  -0.330  2.7224  1.0497 -0.9455
  953MOL0     H28608   6.336   6.699  -0.164 -2.8181  1.1197  3.1134
  953MOL0     H28609   6.200   6.833  -0.045 -0.3090 -1.2122 -0.2240
  953MOL0     H28610   6.115   6.729  -0.156 -1.0890  2.2827  0.2831
  953MOL0     H28611   6.114   6.907  -0.330 -3.1027 -0.0699 -0.4086
  953MOL0     H28612   6.175   7.031  -0.205 -0.8026 -0.7163  0.0063
  953MOL0     H28613   5.950   7.060  -0.237 -1.6499 -0.1615  0.4367
  953MOL0     H28614   5.969   6.999  -0.081 -2.8876  2.4223 -1.0724
  953MOL0     H28615   5.778   7.073  -0.090  0.1284  2.0300 -2.5167
  953MOL0     H28616   5.449   7.206  -0.013  1.4959  0.9489  0.8628
  953MOL0     H28617   5.577   7.120   0.073  0.5920 -0.6480  0.5388
  953MOL0     H28618   5.616   7.234  -0.061 -1.2780  1.9853  0.9921
  953MOL0     H28619   5.141   6.877  -0.449 -0.1026  2.0959 -0.7391
  953MOL0     H28620   4.922   6.937  -0.528 -2.1018  1.4080 -0.2385
  953MOL0     H28621   4.794   7.180  -0.581  0.3388  0.0066  0.4126
  953MOL0     H28622   4.723   7.016  -0.589 -0.4058  0.2958 -1.0526
  953MOL0     H28623   4.597   7.233  -0.430  2.6929  1.2356 -1.1884
  953MOL0     H28624   4.571   7.250  -0.600 -0.2113 -0.2570  0.0048
  953MOL0     H28625   4.380   7.109  -0.482 -1.1014 -0.7289 -0.5408
  953MOL0     H28626   4.497   6.968  -0.476  0.3054 -1.1606 -2.1412
  953MOL0     H28627   4.403   7.088  -0.730  0.8365  0.8990  0.6344
  953MOL0     H28628   4.528   6.963  -0.712  1.0081  0.8405 -0.9089
  953MOL0     H28629   4.248   6.922  -0.589  1.9672  1.7196  1.4270
  953MOL0     H28630   4.381   6.810  -0.615 -0.0010 -0.8897 -1.1000
  953MOL0     H28631   4.220   6.935  -0.836  1.2479  1.4455  0.4470
  953MOL0     H28632   4.367   6.834  -0.856 -0.0100 -0.0905 -1.6079
  953MOL0     H28633   4.111   6.734  -0.705  0.2140 -1.7657 -1.0914
  953MOL0     H28634   4.267   6.649  -0.734  1.5280  0.5631 -0.5070
  953MOL0     H28635   4.234   6.654  -0.971  0.2666  0.5713 -1.1827
  953MOL0     H28636   4.079   6.733  -0.963 -0.1771  0.2886  1.2269
  953MOL0     H28637   4.829   7.103  -0.146  0.7369  1.4793 -0.1210
  953MOL0     H28638   5.031   6.987  -0.057 -0.6599  1.4868  0.2587
  953MOL0     H28639   5.442   6.752  -0.287  1.5655 -0.5706 -0.9767
  953MOL0     H28640   5.676   6.709  -0.290 -0.9542 -0.2746  0.1474
  953MOL0     H28641   7.843   6.735  -0.059 -0.9315  1.5176 -2.3600
  953MOL0     H28642   8.061   6.703   0.048 -2.4583 -2.0926  2.5176
  953MOL0     H28643   8.447   6.880   0.291  0.6416 -1.1602 -2.0289
  953MOL0     H28644   8.638   6.784   0.386 -2.8603  2.9584  1.9665
  953MOL0     H28645   8.606   6.468   0.685 -0.1223  1.4272  1.0093
  953MOL0     H28646   8.678   6.389   0.545  0.0780 -0.2635  1.8544
  953MOL0     H28647   8.807   6.527   0.780 -0.4873 -2.0738  1.6455
  953MOL0     H28648   8.885   6.515   0.614 -0.6750 -3.1892 -3.2042
  953MOL0     H28649   8.871   6.263   0.634 -1.7071 -1.5352  0.0882
  953MOL0     H28650   8.767   6.295   0.778 -1.9433  1.7403 -2.2851
  953MOL0     H28651   8.956   6.371   0.905 -4.8205 -1.7640  0.8431
  953MOL0     H28652   9.064   6.335   0.765 -0.3930  1.0735  1.3895
  953MOL0     H28653   9.020   5.955   0.928 -0.6725  0.7411 -0.0166
  953MOL0     H28654   8.419   6.468   0.559  2.6985  0.2866 -0.8173
  953MOL0     H28655   8.207   6.541   0.455 -1.1308  1.9725  1.7513
  954MOL0     O28656   5.513   5.315   8.297  0.3142 -0.1644 -0.7039
  954MOL0     C28657   5.448   5.251   8.377  0.5000 -0.3048  0.1381
  954MOL0     O28658   5.494   5.142   8.446  0.3361  0.2416 -0.5036
  954MOL0     C28659   5.620   5.097   8.430 -0.6319 -0.3630  0.1768
  954MOL0     C28660   5.712   5.145   8.527  0.0265 -0.8939 -0.0886
  954MOL0     C28661   5.848   5.097   8.521 -0.2298  0.3940 -0.4581
  954MOL0     C28662   5.890   5.003   8.419 -0.4181 -1.3081  0.1196
  954MOL0     O28663   6.027   4.973   8.412 -0.0725  0.8410  0.1844
  954MOL0     C28664   6.058   4.877   8.309  0.0645  0.4279  0.4088
  954MOL0     C28665   6.214   4.862   8.319 -0.0362  0.4277 -0.3759
  954MOL0     C28666   6.280   4.988   8.280 -0.9151  0.3246 -0.4990
  954MOL0     C28667   6.436   4.983   8.292  0.8179  0.0454 -0.0558
  954MOL0     C28668   6.497   5.047   8.167  0.3994  0.1242 -0.0649
  954MOL0     C28669   6.652   5.017   8.166  0.0612 -0.1146 -0.2949
  954MOL0     C28670   6.735   5.099   8.267 -0.6603  0.4827 -0.1893
  954MOL0     C28671   6.739   5.249   8.234 -0.1942  0.0031  0.0105
  954MOL0     N28672   6.817   5.321   8.338 -0.1179 -0.1102 -0.9564
  954MOL0     C28673   6.772   5.326   8.468 -0.3636 -0.6001  0.0814
  954MOL0     C28674   6.853   5.403   8.534  0.5467 -0.0136 -0.5009
  954MOL0     C28675   6.849   5.446   8.675  0.1593 -0.3266 -0.1851
  954MOL0     C28676   6.715   5.482   8.732 -0.4338 -0.7354 -0.6471
  954MOL0     C28677   6.723   5.542   8.878 -0.3234  0.3200 -0.2519
  954MOL0     C28678   6.576   5.554   8.918 -0.1738 -0.4390 -0.6848
  954MOL0     O28679   6.560   5.592   9.052 -0.6697 -0.2067 -0.1730
  954MOL0     C28680   6.434   5.568   9.102 -0.2979  0.2665 -0.1035
  954MOL0     C28681   6.317   5.555   9.026 -0.4333 -0.8407  0.0901
  954MOL0     C28682   6.194   5.542   9.084  0.3215  1.3089  0.2207
  954MOL0     C28683   6.076   5.542   8.995 -0.0392  0.2370  0.3292
  954MOL0     C28684   6.181   5.542   9.224  0.1732 -0.8391 -0.3009
  954MOL0     C28685   6.047   5.526   9.286 -0.9724  0.9093 -1.4489
  954MOL0     O28686   6.030   5.596   9.396  0.7056  0.1108  0.5821
  954MOL0     C28687   5.900   5.604   9.446  0.7743 -0.6299 -0.1577
  954MOL0     C28688   5.889   5.603   9.579 -0.7245 -0.4301 -0.5987
  954MOL0     C28689   5.765   5.616   9.636  0.4855 -0.6646  0.2964
  954MOL0     C28690   5.652   5.624   9.563 -0.6863 -0.8482  0.2036
  954MOL0     O28691   5.542   5.614   9.637 -0.4270 -0.0780 -0.4035
  954MOL0     C28692   5.410   5.628   9.567 -0.3842  0.4200 -0.0395
  954MOL0     C28693   5.286   5.595   9.660 -0.4337  0.4189 -0.1673
  954MOL0     C28694   5.263   5.713   9.765  0.2980  0.0538  0.0079
  954MOL0     C28695   5.150   5.683   9.865  0.2277  0.0643  0.5684
  954MOL0     C28696   5.132   5.808   9.952  0.9570  0.7777  0.2487
  954MOL0     C28697   5.040   5.914   9.889 -0.0292 -0.1305  0.3250
  954MOL0     C28698   4.997   6.027   9.984 -0.3723  0.1843  0.2278
  954MOL0     C28699   4.937   6.155   9.917 -0.3322 -0.3009 -0.7203
  954MOL0    Cl28700   4.819   6.234  10.032  0.4578  0.0824 -0.4603
  954MOL0     C28701   5.669   5.631   9.418 -0.2825 -0.3115 -0.4318
  954MOL0     C28702   5.796   5.626   9.358  0.7937  0.2974  0.2463
  954MOL0     O28703   5.974   5.440   9.238  0.3705  0.4646  0.5225
  954MOL0     C28704   6.298   5.541   9.299 -0.0446 -0.4712  0.8022
  954MOL0     C28705   6.426   5.558   9.238  0.2494  0.6770 -1.0257
  954MOL0     N28706   6.948   5.446   8.442 -1.7908 -0.0319  0.3794
  954MOL0     N28707   6.925   5.398   8.321  0.6543 -0.0557 -1.2097
  954MOL0     C28708   5.800   4.965   8.326 -0.2304  0.6871  0.2596
  954MOL0     C28709   5.666   5.005   8.339  0.0830  0.7745  0.7788
  954MOL0     C28710   5.308   5.287   8.394 -0.0514 -0.3383  0.4455
  954MOL0     C28711   5.284   5.426   8.401 -0.0180 -1.1530 -0.4120
  954MOL0     C28712   5.150   5.471   8.404 -1.3373  0.9836  0.4311
  954MOL0     C28713   5.042   5.381   8.397 -0.1998 -0.5094 -0.2059
  954MOL0     O28714   4.907   5.424   8.398 -1.0014 -0.5887  0.2948
  954MOL0     C28715   4.797   5.338   8.367  0.3229  0.9408 -0.0125
  954MOL0     C28716   4.657   5.407   8.397 -0.5914 -0.3184  0.3758
  954MOL0     C28717   4.637   5.520   8.285  1.0496 -0.4697 -0.3738
  954MOL0     C28718   4.688   5.659   8.323  0.1419  1.0167 -0.3970
  954MOL0     C28719   4.683   5.753   8.201 -0.4253  0.0864 -0.7680
  954MOL0     C28720   4.695   5.825   8.104  0.6038  0.0762 -0.3012
  954MOL0     C28721   5.078   5.244   8.394 -0.6326 -0.1681  0.1542
  954MOL0     C28722   5.211   5.194   8.391  0.9466  0.2520  0.4714
  954MOL0     H28723   5.684   5.213   8.607  1.2632  0.0673 -0.4406
  954MOL0     H28724   5.925   5.133   8.589 -0.6430 -1.4145  1.0418
  954MOL0     H28725   6.009   4.780   8.321 -1.6293  0.8858 -2.0870
  954MOL0     H28726   6.035   4.915   8.209  4.8249  2.0375 -0.3282
  954MOL0     H28727   6.260   4.831   8.413  0.6731  0.2278 -0.7779
  954MOL0     H28728   6.251   4.782   8.254 -0.3736  1.0485 -1.3611
  954MOL0     H28729   6.255   4.990   8.174 -2.0711 -0.1349 -0.2455
  954MOL0     H28730   6.241   5.076   8.332 -2.1511 -0.4048 -0.1551
  954MOL0     H28731   6.476   5.035   8.379  0.6214  1.7404 -0.9390
  954MOL0     H28732   6.457   4.876   8.303 -3.8639 -0.9124  1.9428
  954MOL0     H28733   6.446   5.018   8.075 -2.6528  1.8896  0.9177
  954MOL0     H28734   6.484   5.155   8.177 -0.2518  0.0279  0.1836
  954MOL0     H28735   6.683   4.917   8.198  2.0121  0.6905  0.5177
  954MOL0     H28736   6.695   5.035   8.068 -0.4354  1.4003 -0.2621
  954MOL0     H28737   6.707   5.091   8.373 -0.9167  2.3613 -0.0830
  954MOL0     H28738   6.834   5.053   8.255 -1.5657 -1.3995 -0.7963
  954MOL0     H28739   6.636   5.285   8.222 -0.9394 -2.3188 -1.0312
  954MOL0     H28740   6.793   5.254   8.139 -0.0438  2.0070  0.1579
  954MOL0     H28741   6.681   5.278   8.503 -1.9403 -0.4282 -3.3505
  954MOL0     H28742   6.899   5.369   8.735  0.8195  0.7063  0.6457
  954MOL0     H28743   6.896   5.545   8.681  0.3320 -0.2382 -2.3219
  954MOL0     H28744   6.657   5.389   8.742  0.3158 -0.9970  2.4665
  954MOL0     H28745   6.677   5.559   8.665  1.0811  0.0861 -0.5856
  954MOL0     H28746   6.763   5.644   8.873 -0.5096  0.3143 -2.6152
  954MOL0     H28747   6.782   5.485   8.951  2.7538  0.4618 -2.4035
  954MOL0     H28748   6.535   5.454   8.900 -0.7081 -0.1608 -1.0473
  954MOL0     H28749   6.534   5.628   8.848  0.1439 -0.0807 -0.4987
  954MOL0     H28750   6.329   5.552   8.918  1.5410 -3.1436  0.2780
  954MOL0     H28751   6.034   5.441   8.985 -2.4150  0.9979  1.9046
  954MOL0     H28752   6.001   5.611   9.035 -2.4327 -1.5331 -0.8392
  954MOL0     H28753   6.106   5.580   8.897 -0.3925 -0.2131  0.0411
  954MOL0     H28754   5.984   5.596   9.630  0.2600  1.8174 -1.9372
  954MOL0     H28755   5.773   5.643   9.741  3.7059  1.6156 -0.3853
  954MOL0     H28756   5.420   5.729   9.526  1.3892 -0.3085 -1.5513
  954MOL0     H28757   5.409   5.555   9.485 -0.6551 -0.5307  0.7885
  954MOL0     H28758   5.193   5.585   9.603 -0.4295  1.6660 -0.4272
  954MOL0     H28759   5.298   5.501   9.713  1.3731 -0.2658 -1.6418
  954MOL0     H28760   5.230   5.799   9.707  0.1320  0.8231  1.2164
  954MOL0     H28761   5.357   5.742   9.813 -0.8765  0.9852  1.8303
  954MOL0     H28762   5.060   5.662   9.808  0.3553  1.1078 -0.0344
  954MOL0     H28763   5.175   5.602   9.935 -0.4587 -0.1781  0.5391
  954MOL0     H28764   5.231   5.850   9.970  1.7976 -0.2761 -1.6117
  954MOL0     H28765   5.086   5.782  10.048 -5.2036 -0.2148 -2.4296
  954MOL0     H28766   5.105   5.966   9.818  1.2812  1.3337  2.4781
  954MOL0     H28767   4.960   5.874   9.826  1.2270 -0.5004 -1.0849
  954MOL0     H28768   5.090   6.060  10.032 -0.2760  0.4576 -0.1373
  954MOL0     H28769   4.926   5.986  10.056 -0.3386  0.4634  0.4223
  954MOL0     H28770   4.875   6.140   9.829  1.4763  0.3935 -2.1782
  954MOL0     H28771   5.017   6.226   9.893  2.4499 -2.9920 -0.1642
  954MOL0     H28772   5.591   5.643   9.343  2.0161  2.8978 -2.5726
  954MOL0     H28773   5.800   5.635   9.250 -1.6689  1.7891  0.2068
  954MOL0     H28774   6.298   5.533   9.407  0.7687  1.1463  0.9399
  954MOL0     H28775   6.513   5.569   9.301 -0.2670  0.3438 -0.2435
  954MOL0     H28776   5.823   4.894   8.248  1.3286  0.9468  0.4571
  954MOL0     H28777   5.608   4.955   8.261  0.8117  2.5930 -1.0125
  954MOL0     H28778   5.366   5.497   8.399 -0.1517 -0.8278 -5.1216
  954MOL0     H28779   5.132   5.578   8.398 -0.2472  1.1653  0.1416
  954MOL0     H28780   4.788   5.292   8.268  0.5643 -4.7969  2.2722
  954MOL0     H28781   4.805   5.249   8.429 -3.5028 -1.4400 -2.5140
  954MOL0     H28782   4.664   5.450   8.497 -2.9706  0.4622  0.2589
  954MOL0     H28783   4.575   5.335   8.388  0.3381 -1.4233  0.3507
  954MOL0     H28784   4.529   5.518   8.270  0.8597  0.6099  0.6743
  954MOL0     H28785   4.680   5.500   8.186  3.2088  0.9384  0.2278
  954MOL0     H28786   4.791   5.625   8.341  1.0226  0.9686 -4.4171
  954MOL0     H28787   4.641   5.710   8.407  2.1211  1.7013  0.3734
  954MOL0     H28788   4.704   5.885   8.016  1.1003  0.4227 -0.0176
  954MOL0     H28789   4.998   5.171   8.394  0.0635 -0.9978 -1.1456
  954MOL0     H28790   5.234   5.088   8.390  1.3889  0.3284  1.5587
  955MOL0     O28791   9.508   2.244   9.337 -0.3039 -0.7340 -0.3461
  955MOL0     C28792   9.553   2.168   9.423  0.3466  0.3069 -0.6790
  955MOL0     O28793   9.675   2.180   9.491  0.7504 -0.7245  0.1374
  955MOL0     C28794   9.770   2.258   9.431 -0.6766  1.5057  0.0060
  955MOL0     C28795   9.898   2.197   9.408  0.2112  0.2067 -0.2646
  955MOL0     C28796  10.005   2.281   9.353 -0.1663 -0.9099 -0.5663
  955MOL0     C28797   9.986   2.413   9.338 -1.2705 -0.5426 -0.5486
  955MOL0     O28798  10.089   2.492   9.301 -0.3471  0.1692 -0.0437
  955MOL0     C28799  10.083   2.535   9.163  0.6157 -0.4695 -0.2732
  955MOL0     C28800  10.177   2.658   9.138  0.0842 -1.0487 -0.3329
  955MOL0     C28801  10.318   2.657   9.184 -0.3068  0.4764 -0.4061
  955MOL0     C28802  10.386   2.801   9.171  0.8019 -0.1574 -1.1310
  955MOL0     C28803  10.540   2.780   9.185 -0.4203 -0.5102 -0.2078
  955MOL0     C28804  10.620   2.876   9.097 -0.1200 -0.1596  0.0328
  955MOL0     C28805  10.774   2.834   9.087 -0.3957 -0.2214 -0.5248
  955MOL0     C28806  10.849   2.931   8.984 -0.0855  0.0958 -0.5279
  955MOL0     N28807  10.780   2.935   8.858 -0.0695  0.3219  0.6363
  955MOL0     C28808  10.771   2.828   8.769 -0.2631 -0.4177  1.0504
  955MOL0     C28809  10.695   2.870   8.663 -0.0862  0.6803  0.7430
  955MOL0     C28810  10.624   2.803   8.542  0.0708 -0.2773 -0.5258
  955MOL0     C28811  10.681   2.668   8.499 -0.2916  0.9396  0.2366
  955MOL0     C28812  10.565   2.573   8.460  0.0227  0.0392 -0.6735
  955MOL0     C28813  10.501   2.498   8.583  0.1409 -0.0206 -0.5286
  955MOL0     O28814  10.446   2.370   8.538 -0.6544  0.3645 -0.1670
  955MOL0     C28815  10.362   2.293   8.610  0.3389  0.2046  1.0304
  955MOL0     C28816  10.329   2.163   8.558  0.6715  0.1954 -0.7083
  955MOL0     C28817  10.269   2.067   8.639 -0.1087  0.0519  0.2184
  955MOL0     C28818  10.264   1.922   8.573 -0.2830 -0.1253 -0.0903
  955MOL0     C28819  10.233   2.098   8.769 -0.0134  0.5769 -0.6638
  955MOL0     C28820  10.178   2.005   8.867  0.1784 -0.1743 -1.1000
  955MOL0     O28821  10.160   2.046   8.993 -0.5750  0.2868 -0.2621
  955MOL0     C28822  10.068   1.990   9.085 -0.2731 -0.7521  1.2948
  955MOL0     C28823   9.941   2.036   9.085  0.4306 -0.5896 -0.8374
  955MOL0     C28824   9.838   1.989   9.166 -0.4967 -0.1225  0.8556
  955MOL0     C28825   9.868   1.883   9.249  0.0805 -0.1002  0.5022
  955MOL0     O28826   9.773   1.817   9.318 -0.1905 -0.7847  0.4228
  955MOL0     C28827   9.720   1.707   9.245 -0.2385  0.5326  0.9165
  955MOL0     C28828   9.579   1.655   9.297 -0.8685  0.2106  0.2132
  955MOL0     C28829   9.529   1.551   9.211 -0.5689  0.2804  0.0382
  955MOL0     C28830   9.397   1.493   9.239  0.9485 -0.2142 -1.0327
  955MOL0     C28831   9.396   1.426   9.382 -0.5320 -0.1178 -0.0559
  955MOL0     C28832   9.257   1.365   9.408  0.1643 -0.2148  0.7130
  955MOL0     C28833   9.234   1.299   9.545  0.0964 -0.1743  0.1571
  955MOL0     C28834   9.091   1.255   9.558 -0.4525 -0.2827  0.0668
  955MOL0    Cl28835   9.052   1.120   9.667 -0.1236  0.0597 -0.4350
  955MOL0     C28836  10.001   1.830   9.252 -1.0310  0.4423 -0.6471
  955MOL0     C28837  10.098   1.881   9.167  0.3176 -0.0017 -1.0891
  955MOL0     O28838  10.117   1.911   8.826 -0.1536 -0.3007  0.2507
  955MOL0     C28839  10.248   2.234   8.812 -1.0697  0.1617  0.3313
  955MOL0     C28840  10.319   2.329   8.735  1.0654 -0.1495 -0.6570
  955MOL0     N28841  10.656   3.002   8.695  0.1514  0.0345  0.4245
  955MOL0     N28842  10.706   3.040   8.810 -0.6826 -0.4621 -0.2182
  955MOL0     C28843   9.865   2.473   9.369  0.0475 -0.7896  1.1918
  955MOL0     C28844   9.758   2.399   9.420 -0.0477  0.3008  0.0900
  955MOL0     C28845   9.484   2.046   9.459  0.5923 -0.4309 -0.3366
  955MOL0     C28846   9.355   2.030   9.389 -0.5822 -0.2614  0.2055
  955MOL0     C28847   9.277   1.918   9.410  0.5196 -0.2922  0.4738
  955MOL0     C28848   9.322   1.825   9.500 -0.2705 -0.1028 -0.0374
  955MOL0     O28849   9.245   1.719   9.541  0.4087 -0.0906  0.1023
  955MOL0     C28850   9.230   1.700   9.681 -0.2945  0.1989  0.1570
  955MOL0     C28851   9.098   1.645   9.708 -0.1533 -0.5587 -0.4055
  955MOL0     C28852   8.983   1.734   9.661  0.0609  0.2934  0.5075
  955MOL0     C28853   8.851   1.702   9.728 -0.1783 -0.2401  0.0164
  955MOL0     C28854   8.805   1.557   9.711  0.9548 -0.0788 -0.0974
  955MOL0     C28855   8.763   1.446   9.696 -0.0615  0.1007 -0.2468
  955MOL0     C28856   9.450   1.835   9.555 -0.2625 -0.1962 -0.3066
  955MOL0     C28857   9.527   1.952   9.548  0.0107 -0.3608 -0.7346
  955MOL0     H28858   9.910   2.090   9.414 -2.2551 -0.2522 -2.2505
  955MOL0     H28859  10.098   2.236   9.322  0.3947  0.6640 -1.2406
  955MOL0     H28860  10.114   2.443   9.112 -1.0669 -1.4768  0.4614
  955MOL0     H28861   9.986   2.569   9.125  0.0465 -3.3224 -1.6142
  955MOL0     H28862  10.193   2.678   9.032  0.7209 -0.6176 -0.1661
  955MOL0     H28863  10.132   2.744   9.189 -0.6472 -1.3998 -0.3802
  955MOL0     H28864  10.332   2.613   9.282 -3.7708 -2.9782 -1.2037
  955MOL0     H28865  10.371   2.591   9.115 -0.2041 -0.7111  0.7741
  955MOL0     H28866  10.360   2.843   9.074 -2.6968  2.6059  0.7543
  955MOL0     H28867  10.330   2.871   9.233 -1.5553 -2.2107 -0.7472
  955MOL0     H28868  10.561   2.805   9.289  1.0836  2.2942 -1.0882
  955MOL0     H28869  10.571   2.677   9.163 -0.3891 -0.1823 -1.8394
  955MOL0     H28870  10.576   2.881   8.997 -0.2989  3.5389  0.1701
  955MOL0     H28871  10.611   2.971   9.150  0.5548 -1.0520  1.8148
  955MOL0     H28872  10.820   2.855   9.184 -1.1679  0.7511 -0.3525
  955MOL0     H28873  10.776   2.729   9.057  3.0915 -0.5045  0.2837
  955MOL0     H28874  10.946   2.885   8.962 -0.8546 -0.5602 -2.7895
  955MOL0     H28875  10.854   3.030   9.029 -2.6017 -0.9805  2.4954
  955MOL0     H28876  10.821   2.731   8.777 -0.2280 -0.7449 -2.1084
  955MOL0     H28877  10.519   2.784   8.568  0.4178 -2.8483 -0.7582
  955MOL0     H28878  10.623   2.876   8.460 -0.8524  1.4714  0.9599
  955MOL0     H28879  10.733   2.607   8.574  0.1960 -2.0985 -2.3539
  955MOL0     H28880  10.750   2.685   8.416 -0.1778  2.9814  0.7100
  955MOL0     H28881  10.600   2.496   8.391  1.6791  1.1456 -1.1323
  955MOL0     H28882  10.495   2.636   8.404  1.0826  1.2578 -0.6689
  955MOL0     H28883  10.428   2.557   8.640 -3.1821 -4.0292 -0.0692
  955MOL0     H28884  10.579   2.456   8.647 -1.5298 -3.8236 -0.7052
  955MOL0     H28885  10.377   2.129   8.467  2.2196 -0.8773  0.4598
  955MOL0     H28886  10.321   1.847   8.628 -1.3089 -1.6755 -1.0425
  955MOL0     H28887  10.160   1.890   8.570 -0.1070 -0.7417 -2.5272
  955MOL0     H28888  10.296   1.919   8.468  0.5049 -1.0802  0.1624
  955MOL0     H28889   9.901   2.113   9.019 -0.4550  0.2677  0.6329
  955MOL0     H28890   9.738   2.031   9.162 -0.1464  0.7373 -2.3722
  955MOL0     H28891   9.708   1.749   9.145  1.9766 -0.9097 -0.0247
  955MOL0     H28892   9.802   1.634   9.248 -0.1715  0.5928  3.8670
  955MOL0     H28893   9.591   1.627   9.402  2.1405  1.7229  0.4020
  955MOL0     H28894   9.512   1.741   9.294 -0.5562  0.4895  1.1283
  955MOL0     H28895   9.594   1.464   9.222 -2.2395 -0.9720  0.4162
  955MOL0     H28896   9.536   1.590   9.109  1.0744  0.5994  0.2410
  955MOL0     H28897   9.333   1.581   9.253  1.8211  0.0747  1.5455
  955MOL0     H28898   9.357   1.416   9.172 -0.2116 -0.5415 -0.0053
  955MOL0     H28899   9.422   1.499   9.458  0.7571  1.8369 -2.2561
  955MOL0     H28900   9.466   1.342   9.385  0.1992  0.5067  1.8489
  955MOL0     H28901   9.185   1.447   9.411  0.1420 -0.1994  4.0254
  955MOL0     H28902   9.224   1.304   9.324  1.8783  1.5300 -1.3235
  955MOL0     H28903   9.267   1.364   9.626 -1.7649 -1.1928  1.8172
  955MOL0     H28904   9.289   1.204   9.539 -0.1837 -0.2452 -2.9458
  955MOL0     H28905   9.057   1.217   9.461  3.3177 -1.0851 -1.0997
  955MOL0     H28906   9.024   1.337   9.586 -0.5583 -0.4548  0.3322
  955MOL0     H28907  10.015   1.737   9.307 -0.0124  1.2159  0.4418
  955MOL0     H28908  10.199   1.841   9.161  0.7311  1.1310 -2.0446
  955MOL0     H28909  10.219   2.267   8.911 -0.8002 -0.5228  0.6477
  955MOL0     H28910  10.345   2.426   8.775  1.8950 -0.2192 -1.0164
  955MOL0     H28911   9.863   2.582   9.373  1.7867 -0.7157  0.9856
  955MOL0     H28912   9.661   2.433   9.454  0.5208  0.6609  1.4097
  955MOL0     H28913   9.329   2.104   9.315  3.3614  2.0447  0.8275
  955MOL0     H28914   9.175   1.910   9.373  0.0202 -0.2649  1.8041
  955MOL0     H28915   9.308   1.632   9.714 -0.8229 -1.4023 -1.6988
  955MOL0     H28916   9.253   1.794   9.732  3.1654 -1.2243  1.5388
  955MOL0     H28917   9.090   1.635   9.817 -0.2820  2.5745 -0.0535
  955MOL0     H28918   9.080   1.542   9.673  1.0496 -1.6219  1.8788
  955MOL0     H28919   8.964   1.730   9.553  1.4703 -0.9534  0.2592
  955MOL0     H28920   9.013   1.834   9.694 -0.7586  0.3432  1.1291
  955MOL0     H28921   8.759   1.755   9.701 -0.8444 -0.8637  0.9824
  955MOL0     H28922   8.866   1.711   9.836  0.5994 -2.2458  0.1198
  955MOL0     H28923   8.724   1.346   9.698 -1.3898  0.5222  3.4258
  955MOL0     H28924   9.488   1.756   9.619 -2.2955  0.3054  1.6519
  955MOL0     H28925   9.620   1.973   9.600 -0.0385  0.9357 -1.1484
  956MOL0     O28926   4.798  10.961   8.983  0.6803 -0.0427  0.2958
  956MOL0     C28927   4.680  10.933   8.998 -0.2924  0.1631 -0.8551
  956MOL0     O28928   4.584  11.022   9.031 -0.2839 -0.0489 -0.1056
  956MOL0     C28929   4.603  11.166   9.029  0.2590  1.4344 -0.3756
  956MOL0     C28930   4.487  11.233   9.065 -0.2717 -0.6300  0.1812
  956MOL0     C28931   4.485  11.371   9.099 -0.3687 -0.1117 -0.3415
  956MOL0     C28932   4.603  11.447   9.082  0.5467 -0.1443  0.0394
  956MOL0     O28933   4.602  11.582   9.086 -0.2795 -1.0450 -0.4314
  956MOL0     C28934   4.485  11.656   9.137  0.6235  0.1282 -0.6350
  956MOL0     C28935   4.500  11.805   9.114 -0.2115 -0.0207 -0.2338
  956MOL0     C28936   4.450  11.874   9.243  1.0545 -0.1829 -0.3770
  956MOL0     C28937   4.456  12.024   9.215 -0.7991  0.9721  0.5555
  956MOL0     C28938   4.414  12.106   9.333  0.4147  0.4012  0.7237
  956MOL0     C28939   4.437  12.253   9.314 -0.7704 -0.1805  0.1979
  956MOL0     C28940   4.573  12.324   9.347  0.5819 -0.3248 -0.7483
  956MOL0     C28941   4.581  12.469   9.308  0.0250  0.7072 -0.4219
  956MOL0     N28942   4.503  12.565   9.387 -0.2084 -0.2738  0.2165
  956MOL0     C28943   4.395  12.627   9.339 -0.6050 -0.5497 -0.1508
  956MOL0     C28944   4.360  12.725   9.427 -0.6218 -0.6460 -1.0636
  956MOL0     C28945   4.239  12.807   9.432  0.0578  0.2364 -0.0025
  956MOL0     C28946   4.275  12.952   9.466 -0.4244  0.2439  0.4343
  956MOL0     C28947   4.148  13.037   9.484 -0.9198  0.3902 -0.6347
  956MOL0     C28948   4.064  12.997   9.601 -0.1504 -0.2958  0.7784
  956MOL0     O28949   3.985  13.112   9.622 -0.7447 -0.2327 -0.4445
  956MOL0     C28950   3.861  13.092   9.668  0.7281  0.4275  0.7372
  956MOL0     C28951   3.837  13.046   9.795  0.4018  0.4473 -0.0178
  956MOL0     C28952   3.705  13.027   9.829 -0.4793  0.0103  0.7095
  956MOL0     C28953   3.682  12.981   9.965 -0.9012 -0.2816  0.1193
  956MOL0     C28954   3.599  13.058   9.739 -0.9871 -0.0146  0.6638
  956MOL0     C28955   3.453  13.048   9.774 -1.5698  0.7188 -0.2461
  956MOL0     O28956   3.371  13.024   9.673  0.6045 -0.2130 -0.4048
  956MOL0     C28957   3.240  12.976   9.683 -0.0645 -1.3015 -0.6263
  956MOL0     C28958   3.194  12.861   9.637  0.2109  0.0583  0.5467
  956MOL0     C28959   3.056  12.833   9.642 -0.0165  0.6861 -0.2907
  956MOL0     C28960   2.965  12.934   9.681  0.5513 -0.9121 -0.9372
  956MOL0     O28961   2.828  12.921   9.682 -0.1569 -0.5284 -0.1662
  956MOL0     C28962   2.764  12.843   9.582 -0.7990 -0.9977 -0.0336
  956MOL0     C28963   2.614  12.900   9.571  0.3411  0.4642 -0.6896
  956MOL0     C28964   2.498  12.795   9.568 -0.0299  0.7561  0.4510
  956MOL0     C28965   2.504  12.679   9.672  0.1361  0.1466 -0.8852
  956MOL0     C28966   2.375  12.580   9.648  0.5717 -0.3774  1.1844
  956MOL0     C28967   2.414  12.434   9.620 -0.3371 -0.4798  0.0433
  956MOL0     C28968   2.271  12.366   9.587 -1.8111 -1.1137  0.0584
  956MOL0     C28969   2.297  12.228   9.534 -0.2569 -0.1018  1.2942
  956MOL0    Cl28970   2.371  12.127   9.653 -1.0132  0.2762 -0.2444
  956MOL0     C28971   3.011  13.057   9.728  0.0637  1.1302 -0.2663
  956MOL0     C28972   3.146  13.074   9.723 -0.3060  1.0055  0.8217
  956MOL0     O28973   3.426  13.073   9.894 -0.0852  0.0050  0.0103
  956MOL0     C28974   3.625  13.095   9.605  0.2312 -0.2740 -0.4838
  956MOL0     C28975   3.758  13.112   9.572  0.5339  0.5268  0.0819
  956MOL0     N28976   4.464  12.727   9.524 -0.5469  0.4425 -0.0624
  956MOL0     N28977   4.552  12.629   9.494 -0.5369 -1.0958 -0.2967
  956MOL0     C28978   4.714  11.384   9.029 -0.2441 -0.5744 -0.4153
  956MOL0     C28979   4.715  11.245   9.016  0.8612  0.2288  1.3705
  956MOL0     C28980   4.636  10.794   8.972 -1.6876 -0.2581  0.5583
  956MOL0     C28981   4.511  10.754   8.988 -0.5092 -0.7128 -0.9369
  956MOL0     C28982   4.462  10.631   8.950 -0.3285 -0.5799 -0.7609
  956MOL0     C28983   4.554  10.537   8.901  1.6884 -0.2886  0.5283
  956MOL0     O28984   4.498  10.422   8.858 -0.1054 -0.1773 -1.2542
  956MOL0     C28985   4.578  10.301   8.858 -0.2281  0.2986  0.1772
  956MOL0     C28986   4.497  10.175   8.807  0.2368 -0.6842 -0.7437
  956MOL0     C28987   4.563  10.046   8.847 -0.3975 -0.6762 -1.0605
  956MOL0     C28988   4.511   9.919   8.773 -0.4104 -0.4121  1.2840
  956MOL0     C28989   4.585   9.899   8.647  0.6543  0.4288  0.0041
  956MOL0     C28990   4.655   9.880   8.548 -0.2516  0.0427 -0.0589
  956MOL0     C28991   4.690  10.573   8.888 -0.0462  0.3657  0.3533
  956MOL0     C28992   4.732  10.699   8.916  0.5505 -0.2558 -0.4966
  956MOL0     H28993   4.392  11.181   9.071 -2.3902  2.6435 -1.7908
  956MOL0     H28994   4.390  11.412   9.131  0.3478  2.1129 -0.8943
  956MOL0     H28995   4.403  11.626   9.071  2.2579  3.0003 -4.2887
  956MOL0     H28996   4.465  11.628   9.241  0.2604 -1.4189 -1.0820
  956MOL0     H28997   4.606  11.819   9.088 -0.0262  3.2021  1.7443
  956MOL0     H28998   4.436  11.842   9.033  1.4743  2.4365 -0.5508
  956MOL0     H28999   4.345  11.846   9.252  1.5332 -3.0338 -2.2618
  956MOL0     H29000   4.509  11.840   9.329  0.1661  3.1141  1.7283
  956MOL0     H29001   4.556  12.062   9.191 -1.4006  2.2502  0.0038
  956MOL0     H29002   4.404  12.047   9.122  2.1630  0.7441 -1.2790
  956MOL0     H29003   4.310  12.073   9.338  0.0839  0.9391 -1.5777
  956MOL0     H29004   4.467  12.084   9.426  0.3623  1.7010  1.0737
  956MOL0     H29005   4.414  12.260   9.208 -2.9028 -1.8372  0.4878
  956MOL0     H29006   4.363  12.310   9.371 -0.6295 -0.1187  0.3208
  956MOL0     H29007   4.594  12.315   9.454 -0.2569 -3.2050 -0.7482
  956MOL0     H29008   4.650  12.272   9.290  2.0207 -0.2725  1.0899
  956MOL0     H29009   4.546  12.473   9.205 -1.8022 -0.9494  0.0670
  956MOL0     H29010   4.684  12.504   9.309  1.0787 -2.0364 -2.4098
  956MOL0     H29011   4.321  12.597   9.266 -1.7695  1.3537  0.1793
  956MOL0     H29012   4.207  12.809   9.328  2.5823  1.2236 -0.8301
  956MOL0     H29013   4.162  12.763   9.496 -2.1746  3.1115 -0.5327
  956MOL0     H29014   4.339  12.993   9.388 -0.2625  2.2092  1.5210
  956MOL0     H29015   4.329  12.959   9.561  0.7786  4.4654 -0.3435
  956MOL0     H29016   4.084  13.025   9.396 -0.8791  3.0058 -1.0956
  956MOL0     H29017   4.168  13.144   9.491 -0.9221  0.3089  0.7662
  956MOL0     H29018   4.121  12.975   9.691 -0.9213  1.3157  1.6926
  956MOL0     H29019   3.996  12.915   9.574 -1.1566  1.2805 -1.8806
  956MOL0     H29020   3.922  13.026   9.860  1.6693 -4.1242 -2.6420
  956MOL0     H29021   3.774  12.957  10.018 -2.0292 -1.4133  1.6597
  956MOL0     H29022   3.638  13.066  10.018  3.9405  1.7607  1.3265
  956MOL0     H29023   3.627  12.886   9.965 -0.9765 -0.2368  0.3300
  956MOL0     H29024   3.265  12.783   9.613 -1.5976 -0.8186 -2.3219
  956MOL0     H29025   3.015  12.743   9.598  0.3874  1.1540 -1.6923
  956MOL0     H29026   2.821  12.857   9.490  2.1412  1.4824  2.0078
  956MOL0     H29027   2.755  12.737   9.609 -0.8014 -0.5773  1.7072
  956MOL0     H29028   2.594  12.955   9.663  5.9139  1.7383  0.1494
  956MOL0     H29029   2.597  12.967   9.487  0.3657 -0.0501 -1.1105
  956MOL0     H29030   2.494  12.751   9.468 -3.1898 -1.4369  1.3753
  956MOL0     H29031   2.402  12.843   9.586 -1.8011 -1.1292 -2.9521
  956MOL0     H29032   2.600  12.625   9.668  0.1293  0.2003 -3.6830
  956MOL0     H29033   2.490  12.714   9.775 -2.0015  0.9507 -1.4127
  956MOL0     H29034   2.308  12.610   9.568  0.1264  0.3752  1.8215
  956MOL0     H29035   2.313  12.590   9.738  0.6455 -0.3196  1.2290
  956MOL0     H29036   2.463  12.427   9.522 -0.7278 -0.4100 -0.1559
  956MOL0     H29037   2.481  12.399   9.699 -1.0150 -0.3415  0.6799
  956MOL0     H29038   2.210  12.414   9.510  0.0445 -1.5561 -1.7568
  956MOL0     H29039   2.205  12.360   9.674 -0.5760 -2.0320  0.9656
  956MOL0     H29040   2.355  12.223   9.441  1.4283 -1.6130  2.3628
  956MOL0     H29041   2.198  12.193   9.502 -0.5065  2.5099 -1.2526
  956MOL0     H29042   2.940  13.136   9.749 -0.3780  0.3344  1.3751
  956MOL0     H29043   3.180  13.170   9.759  1.9534 -0.2618  2.3762
  956MOL0     H29044   3.548  13.128   9.535  0.1608 -5.2458 -3.1968
  956MOL0     H29045   3.791  13.130   9.470  0.8541  0.0089  0.0903
  956MOL0     H29046   4.796  11.453   9.010 -0.2902 -0.4708 -0.2523
  956MOL0     H29047   4.811  11.203   8.990 -0.0927 -0.8420 -0.6055
  956MOL0     H29048   4.440  10.823   9.032 -1.9320 -1.7747 -1.4912
  956MOL0     H29049   4.354  10.619   8.951 -0.5374  0.8295 -2.4208
  956MOL0     H29050   4.667  10.294   8.795  0.3256 -2.7760  1.1579
  956MOL0     H29051   4.620  10.279   8.957 -1.6137  0.3754  0.8051
  956MOL0     H29052   4.495  10.176   8.698  1.1653  1.1785 -0.7813
  956MOL0     H29053   4.400  10.186   8.857 -0.6470  1.8446 -2.8064
  956MOL0     H29054   4.540  10.030   8.952 -3.3194  2.6812 -1.0166
  956MOL0     H29055   4.672  10.052   8.833  0.0397  2.1266  2.2644
  956MOL0     H29056   4.403   9.920   8.761 -0.2193 -2.2997 -1.6212
  956MOL0     H29057   4.535   9.830   8.832  1.3944 -1.3392 -0.6913
  956MOL0     H29058   4.718   9.878   8.461  2.4219  4.6678  1.3888
  956MOL0     H29059   4.766  10.502   8.856  1.0853  2.3514 -1.5543
  956MOL0     H29060   4.835  10.727   8.899  0.3062 -0.0998 -1.8146
  957MOL0     O29061   5.647   2.428   2.097 -0.1258 -0.7462 -0.0907
  957MOL0     C29062   5.743   2.360   2.055 -0.7499  0.6320 -0.1058
  957MOL0     O29063   5.742   2.268   1.949  0.6863  0.6451  0.9793
  957MOL0     C29064   5.625   2.271   1.876  0.5952  0.7534 -0.6153
  957MOL0     C29065   5.610   2.337   1.766  0.5762 -0.1634  0.3328
  957MOL0     C29066   5.484   2.347   1.702  0.8476 -0.2530  0.8048
  957MOL0     C29067   5.381   2.273   1.740 -0.7085 -0.5645 -0.2230
  957MOL0     O29068   5.266   2.297   1.670 -0.1859  0.3822 -0.1662
  957MOL0     C29069   5.174   2.188   1.639 -0.1423  0.3831  0.4584
  957MOL0     C29070   5.044   2.199   1.715  0.0648  0.1444 -0.1167
  957MOL0     C29071   4.950   2.080   1.710  0.5278  0.2454 -0.4125
  957MOL0     C29072   4.937   2.002   1.584 -0.7640 -0.1024  0.1612
  957MOL0     C29073   4.849   1.880   1.597 -0.2888  0.4060  0.9858
  957MOL0     C29074   4.703   1.922   1.631  0.4203 -0.2139  0.3780
  957MOL0     C29075   4.603   1.815   1.595 -0.4311 -0.0984 -0.4643
  957MOL0     C29076   4.458   1.868   1.625 -0.4650  1.0160  0.0164
  957MOL0     N29077   4.358   1.754   1.592 -0.2992 -0.8745  0.3325
  957MOL0     C29078   4.336   1.647   1.682 -0.8258 -0.6326 -0.2978
  957MOL0     C29079   4.244   1.562   1.627 -0.3848 -1.7700  0.4248
  957MOL0     C29080   4.178   1.434   1.677 -0.6232 -0.1172 -0.0457
  957MOL0     C29081   4.281   1.358   1.753 -1.0678  0.3855 -0.2960
  957MOL0     C29082   4.232   1.207   1.764  0.7271 -0.2920  0.7787
  957MOL0     C29083   4.308   1.122   1.859  0.1966  0.2805 -0.1504
  957MOL0     O29084   4.219   1.019   1.907  0.5539 -0.1588 -0.6307
  957MOL0     C29085   4.268   0.945   2.012  1.0239  0.5715  0.1792
  957MOL0     C29086   4.176   0.880   2.084 -0.5185  0.0741 -0.1901
  957MOL0     C29087   4.211   0.798   2.191  0.4937  0.5278 -0.5898
  957MOL0     C29088   4.094   0.736   2.255  0.2818 -0.1505 -0.0093
  957MOL0     C29089   4.347   0.779   2.223  0.3283 -0.3183  0.3996
  957MOL0     C29090   4.390   0.676   2.321  0.2843  0.0722  0.7313
  957MOL0     O29091   4.516   0.634   2.314  0.0410  0.7535 -0.6136
  957MOL0     C29092   4.560   0.515   2.375  0.1927  0.4135  0.3845
  957MOL0     C29093   4.529   0.472   2.513 -0.3993  0.0414  0.2516
  957MOL0     C29094   4.583   0.350   2.555 -0.2953  0.5489  0.5697
  957MOL0     C29095   4.668   0.273   2.466  0.1535 -0.4386  0.2873
  957MOL0     O29096   4.724   0.165   2.515  0.1455 -0.0663  0.3435
  957MOL0     C29097   4.868   0.164   2.508 -0.0179  0.8483 -0.4111
  957MOL0     C29098   4.910   0.020   2.482 -0.4912 -0.3996  0.0217
  957MOL0     C29099   4.865  -0.010   2.341  0.1887 -0.0855  0.1997
  957MOL0     C29100   4.944  -0.125   2.259  0.0116 -0.2405  0.3635
  957MOL0     C29101   4.907  -0.119   2.114  0.9209 -0.8827 -0.3407
  957MOL0     C29102   5.006  -0.186   2.022  0.0465  0.2621 -0.6958
  957MOL0     C29103   4.959  -0.187   1.870  0.4649  0.7400 -0.2688
  957MOL0     C29104   4.851  -0.282   1.826  0.2128  0.4265  0.0285
  957MOL0    Cl29105   4.922  -0.447   1.851 -0.2615 -0.0840 -0.0898
  957MOL0     C29106   4.703   0.321   2.335 -0.1797 -0.1107  1.0525
  957MOL0     C29107   4.642   0.439   2.299  0.1337  0.3639 -0.3399
  957MOL0     O29108   4.303   0.633   2.391 -0.6067 -0.2190 -0.0390
  957MOL0     C29109   4.448   0.836   2.146  0.1990 -0.7672  0.0988
  957MOL0     C29110   4.405   0.922   2.049 -0.1249  0.0568 -0.7557
  957MOL0     N29111   4.226   1.605   1.498  0.9394 -0.2815  0.7024
  957MOL0     N29112   4.278   1.725   1.480 -0.3001  0.2342 -0.1977
  957MOL0     C29113   5.397   2.184   1.852 -0.0120 -0.3730 -0.1140
  957MOL0     C29114   5.523   2.187   1.923  1.3824 -0.3728  1.5487
  957MOL0     C29115   5.862   2.360   2.124 -0.4198 -0.4878  0.0620
  957MOL0     C29116   5.879   2.404   2.259  1.0729 -0.8174  0.4057
  957MOL0     C29117   6.003   2.399   2.325  0.4434  0.6870  0.3351
  957MOL0     C29118   6.111   2.339   2.266 -0.0054 -0.3784  0.2855
  957MOL0     O29119   6.230   2.318   2.345 -0.4515  0.1775 -0.1144
  957MOL0     C29120   6.350   2.270   2.281  0.7880 -0.3520 -1.2748
  957MOL0     C29121   6.458   2.256   2.393 -0.3358  0.2149 -0.3514
  957MOL0     C29122   6.596   2.225   2.339 -0.8515  0.2871 -0.0609
  957MOL0     C29123   6.679   2.132   2.427  0.1743  0.1431 -0.9903
  957MOL0     C29124   6.640   1.991   2.414 -0.0352  0.2389  0.0315
  957MOL0     C29125   6.602   1.871   2.384 -0.8490 -0.2936 -0.4727
  957MOL0     C29126   6.098   2.296   2.139 -0.0031 -0.0287 -0.4800
  957MOL0     C29127   5.980   2.305   2.062  0.1391  0.6569 -0.4773
  957MOL0     H29128   5.697   2.392   1.735  1.5995 -0.6735  2.1352
  957MOL0     H29129   5.473   2.408   1.613  2.1274 -1.4347 -0.2266
  957MOL0     H29130   5.145   2.204   1.534 -3.2824 -0.5191  1.0623
  957MOL0     H29131   5.206   2.084   1.635 -0.1521  0.1318  3.8566
  957MOL0     H29132   5.074   2.222   1.817  0.3795  0.0921 -0.1962
  957MOL0     H29133   4.976   2.276   1.679 -0.1540 -1.6576 -4.1808
  957MOL0     H29134   4.999   2.009   1.778 -2.0845 -1.1442  0.1410
  957MOL0     H29135   4.850   2.099   1.750 -0.0616 -2.6760 -0.2379
  957MOL0     H29136   4.894   2.082   1.523  1.7547  2.4244  1.4625
  957MOL0     H29137   5.037   1.979   1.544  0.4779  1.3956  2.2255
  957MOL0     H29138   4.844   1.838   1.497 -2.2563  2.9850 -0.1135
  957MOL0     H29139   4.885   1.804   1.667 -0.1221 -1.0398 -0.6323
  957MOL0     H29140   4.684   1.946   1.737 -1.3509  1.3539 -0.2218
  957MOL0     H29141   4.670   2.007   1.571  0.1284 -1.0253 -0.6318
  957MOL0     H29142   4.599   1.803   1.486 -0.9585 -1.2142 -0.3344
  957MOL0     H29143   4.616   1.716   1.638  0.7171 -0.4507 -1.5691
  957MOL0     H29144   4.430   1.954   1.563 -0.4589  0.9887 -0.0242
  957MOL0     H29145   4.448   1.899   1.729 -0.7625  0.6437  0.1003
  957MOL0     H29146   4.380   1.638   1.780  1.9223  1.9924 -1.1481
  957MOL0     H29147   4.090   1.452   1.739 -0.2511 -1.0693  0.7681
  957MOL0     H29148   4.140   1.370   1.596 -0.3210 -2.0445  1.2730
  957MOL0     H29149   4.290   1.407   1.850 -2.3851  1.5387 -0.7411
  957MOL0     H29150   4.382   1.350   1.711 -0.1335 -1.4000  2.0287
  957MOL0     H29151   4.246   1.174   1.660  0.8695  2.2668 -0.0803
  957MOL0     H29152   4.124   1.211   1.780  0.5656 -0.1901 -0.2595
  957MOL0     H29153   4.345   1.175   1.947  0.9222  0.6327 -0.6535
  957MOL0     H29154   4.390   1.069   1.808 -0.8005 -0.8421 -0.6337
  957MOL0     H29155   4.071   0.889   2.056 -0.9293  1.6734  1.6251
  957MOL0     H29156   4.088   0.627   2.248 -1.2799  0.0211 -3.7817
  957MOL0     H29157   4.086   0.764   2.360 -2.0481 -1.6689  0.2991
  957MOL0     H29158   3.995   0.770   2.223 -0.2041  0.0697  1.6121
  957MOL0     H29159   4.465   0.529   2.579 -2.5499  2.2079 -3.4189
  957MOL0     H29160   4.564   0.302   2.651 -1.3971  0.0536  0.1272
  957MOL0     H29161   4.914   0.231   2.435  1.2525 -1.1073 -1.4920
  957MOL0     H29162   4.904   0.183   2.610  0.9569 -1.1086 -0.3374
  957MOL0     H29163   5.019   0.027   2.491 -0.6113  0.9928  0.8071
  957MOL0     H29164   4.865  -0.044   2.559  0.1865 -0.4773  0.3614
  957MOL0     H29165   4.873   0.081   2.281 -0.5263 -0.0461  0.1483
  957MOL0     H29166   4.758  -0.030   2.351  0.0326  0.5714 -0.0953
  957MOL0     H29167   5.051  -0.107   2.274 -0.8185  4.4975  2.6125
  957MOL0     H29168   4.916  -0.225   2.296  2.2694 -1.0834 -0.0544
  957MOL0     H29169   4.883  -0.017   2.082 -0.3145 -1.0704 -0.0527
  957MOL0     H29170   4.812  -0.171   2.100  0.4374  0.2796 -1.5903
  957MOL0     H29171   5.102  -0.135   2.032  0.3974 -0.2423 -1.4119
  957MOL0     H29172   5.023  -0.290   2.054 -2.7015 -0.2604 -0.6582
  957MOL0     H29173   5.052  -0.195   1.812  0.2449  1.9531 -0.8128
  957MOL0     H29174   4.912  -0.089   1.868 -1.7634 -0.2646 -0.2791
  957MOL0     H29175   4.819  -0.273   1.722  0.4623 -0.0212 -0.0878
  957MOL0     H29176   4.761  -0.271   1.886 -1.0866  2.7631 -2.1732
  957MOL0     H29177   4.771   0.271   2.267  0.5482  2.0309  0.1194
  957MOL0     H29178   4.666   0.479   2.201 -3.9178  1.6180 -1.0196
  957MOL0     H29179   4.555   0.827   2.157  0.4623  0.8237 -0.8303
  957MOL0     H29180   4.481   0.962   1.983  1.6366 -3.4997 -1.1074
  957MOL0     H29181   5.312   2.135   1.898  1.3713 -0.4934  2.4519
  957MOL0     H29182   5.551   2.124   2.007  0.7796  1.8154  3.4508
  957MOL0     H29183   5.792   2.448   2.307  1.5640  0.3931  0.2343
  957MOL0     H29184   6.019   2.439   2.425 -3.6178  0.4456  1.2657
  957MOL0     H29185   6.331   2.168   2.245 -4.6663  0.2080 -0.8322
  957MOL0     H29186   6.381   2.341   2.204 -0.1842  0.4301 -0.9604
  957MOL0     H29187   6.424   2.169   2.450 -0.7354  0.7731  0.2743
  957MOL0     H29188   6.468   2.343   2.459  2.7133 -1.5973  1.8552
  957MOL0     H29189   6.643   2.317   2.302 -1.1200 -0.7496 -3.3454
  957MOL0     H29190   6.579   2.172   2.245 -1.2442  2.1039 -1.0670
  957MOL0     H29191   6.672   2.164   2.531  0.9604  0.0798 -0.9137
  957MOL0     H29192   6.785   2.147   2.405  0.5141 -0.3491  0.2551
  957MOL0     H29193   6.572   1.770   2.364 -0.2362 -0.7161  0.6879
  957MOL0     H29194   6.183   2.259   2.083  0.2548 -1.0787  0.5827
  957MOL0     H29195   5.975   2.268   1.960  1.1664 -0.1536 -0.2562
  958MOL0     O29196   3.464   4.152   2.012  0.7846 -0.5987 -0.6236
  958MOL0     C29197   3.475   4.270   1.973 -0.8706  0.8699  0.5161
  958MOL0     O29198   3.381   4.369   1.975 -0.1319 -0.7588  0.0518
  958MOL0     C29199   3.253   4.332   2.007  0.2599 -0.0328 -0.2400
  958MOL0     C29200   3.185   4.214   1.974  0.1670  0.0690  0.3206
  958MOL0     C29201   3.045   4.203   2.009  0.1264  0.7224  0.5199
  958MOL0     C29202   2.976   4.300   2.083 -0.4388 -0.2198 -0.2814
  958MOL0     O29203   2.839   4.265   2.101  0.0462  0.5688 -0.1403
  958MOL0     C29204   2.759   4.316   2.208 -0.5218  0.0056 -0.4955
  958MOL0     C29205   2.754   4.217   2.328 -0.0291  0.8220  1.2989
  958MOL0     C29206   2.627   4.231   2.410 -0.0486 -0.2663 -0.8517
  958MOL0     C29207   2.609   4.371   2.482  0.7135  0.5840  0.4382
  958MOL0     C29208   2.474   4.368   2.552 -0.0081  0.4765  0.7686
  958MOL0     C29209   2.431   4.506   2.591  0.0153 -0.1503 -0.2854
  958MOL0     C29210   2.303   4.512   2.668  0.3455 -0.1600  0.1570
  958MOL0     C29211   2.317   4.446   2.810  0.5453 -0.2013  0.5126
  958MOL0     N29212   2.196   4.475   2.899 -0.7573  0.2835 -0.3482
  958MOL0     C29213   2.068   4.452   2.871 -0.9026 -0.4213 -0.1587
  958MOL0     C29214   1.997   4.452   2.991 -0.3319  0.6134 -0.2730
  958MOL0     C29215   1.852   4.423   3.007  1.2987  0.2556  0.2221
  958MOL0     C29216   1.763   4.539   3.042  0.9308 -1.0119 -0.2885
  958MOL0     C29217   1.785   4.592   3.181 -0.7429  0.4722  0.7848
  958MOL0     C29218   1.671   4.683   3.230 -0.6430 -0.7384  0.7485
  958MOL0     O29219   1.551   4.608   3.241  0.8005 -0.2636  0.0226
  958MOL0     C29220   1.508   4.571   3.361 -0.6092 -1.1586 -0.5578
  958MOL0     C29221   1.571   4.580   3.486  0.3508 -0.0435 -0.0714
  958MOL0     C29222   1.506   4.545   3.608  0.3762  0.1146  0.3305
  958MOL0     C29223   1.568   4.585   3.738  0.1148 -0.7304 -0.2696
  958MOL0     C29224   1.385   4.475   3.610  1.0654  0.1197  0.1328
  958MOL0     C29225   1.298   4.421   3.723  0.3919  0.6351  0.0101
  958MOL0     O29226   1.170   4.396   3.698 -0.7072 -0.8672 -0.4651
  958MOL0     C29227   1.074   4.394   3.799  0.3064  0.8174  0.5708
  958MOL0     C29228   0.987   4.284   3.790 -0.3323  0.2255  0.4211
  958MOL0     C29229   0.879   4.276   3.883 -0.3246 -0.0778 -0.8495
  958MOL0     C29230   0.861   4.376   3.986 -0.6557  0.0301  0.0287
  958MOL0     O29231   0.759   4.357   4.086 -0.6432  0.4754  0.7099
  958MOL0     C29232   0.670   4.460   4.126 -0.2994  0.1240  1.2324
  958MOL0     C29233   0.598   4.402   4.241 -0.1048  0.0705 -0.6589
  958MOL0     C29234   0.503   4.288   4.207  0.4231 -0.4168 -0.2784
  958MOL0     C29235   0.376   4.349   4.148 -0.0453 -0.2196 -0.2436
  958MOL0     C29236   0.295   4.242   4.070 -0.1047  0.0871 -0.1277
  958MOL0     C29237   0.231   4.136   4.158  0.0914 -0.0062 -0.6411
  958MOL0     C29238   0.185   4.015   4.070 -0.5458  0.2014 -1.1712
  958MOL0     C29239   0.288   3.915   4.036  0.4844  0.1151 -0.5835
  958MOL0    Cl29240   0.343   3.818   4.181 -0.6476 -0.3772 -0.0478
  958MOL0     C29241   0.957   4.479   4.002 -0.8105 -0.2942 -0.3167
  958MOL0     C29242   1.062   4.484   3.910 -0.8226  0.1169 -0.2223
  958MOL0     O29243   1.350   4.404   3.831  0.2278  0.0222  1.0671
  958MOL0     C29244   1.330   4.447   3.485  0.8686 -0.6455 -0.0090
  958MOL0     C29245   1.393   4.492   3.362 -0.1585 -0.1435 -0.0085
  958MOL0     N29246   2.091   4.453   3.091  0.4356 -0.0643 -0.5124
  958MOL0     N29247   2.208   4.471   3.039 -0.4737 -0.1754 -0.3103
  958MOL0     C29248   3.049   4.411   2.129 -0.9468 -0.1068 -0.2288
  958MOL0     C29249   3.183   4.428   2.085  0.1630 -0.6075 -1.4946
  958MOL0     C29250   3.601   4.330   1.947 -0.0890  0.0697 -0.3517
  958MOL0     C29251   3.640   4.449   2.010  0.1190  0.1198  0.8816
  958MOL0     C29252   3.767   4.504   1.988  0.4013 -1.6251  1.0669
  958MOL0     C29253   3.858   4.438   1.900 -0.2264  0.7908 -0.0718
  958MOL0     O29254   3.957   4.508   1.847  0.4632  0.3111 -0.1663
  958MOL0     C29255   4.095   4.462   1.878  0.1695 -0.4018  0.5186
  958MOL0     C29256   4.134   4.502   2.011 -0.8025  0.8835  0.4750
  958MOL0     C29257   4.282   4.472   2.030 -0.0498 -0.5368 -1.8253
  958MOL0     C29258   4.323   4.516   2.169 -0.0580 -0.2756 -0.0245
  958MOL0     C29259   4.344   4.661   2.192 -0.0886 -0.6423 -0.1863
  958MOL0     C29260   4.352   4.781   2.225 -0.5994 -0.3846  0.2694
  958MOL0     C29261   3.815   4.316   1.841 -0.8304  0.6742 -0.6428
  958MOL0     C29262   3.689   4.257   1.858 -0.0452  0.3161 -0.1816
  958MOL0     H29263   3.221   4.134   1.911 -2.7843 -1.1436 -0.0328
  958MOL0     H29264   2.984   4.117   1.980 -3.5005  1.4208  4.9878
  958MOL0     H29265   2.803   4.413   2.234 -3.3131  0.8666  1.5904
  958MOL0     H29266   2.658   4.342   2.175 -0.2794  1.5272 -0.1138
  958MOL0     H29267   2.763   4.111   2.300 -0.1148  1.0679  0.2841
  958MOL0     H29268   2.833   4.239   2.400 -0.2431  4.5277  0.5973
  958MOL0     H29269   2.536   4.199   2.359  0.7697 -1.3313 -1.6896
  958MOL0     H29270   2.639   4.163   2.496 -1.4289  2.5229  1.7280
  958MOL0     H29271   2.693   4.388   2.551  3.5668 -0.6673 -2.4440
  958MOL0     H29272   2.606   4.454   2.411  0.6577  0.0421 -0.2030
  958MOL0     H29273   2.396   4.330   2.486 -0.3165  0.1776  1.3016
  958MOL0     H29274   2.477   4.304   2.640 -1.6190  1.5824  1.6789
  958MOL0     H29275   2.512   4.555   2.645 -1.9956  1.2327  1.6689
  958MOL0     H29276   2.433   4.566   2.499  1.9899  0.2971  0.0052
  958MOL0     H29277   2.270   4.616   2.665  0.4968 -0.1086  0.2556
  958MOL0     H29278   2.230   4.451   2.614  1.5621 -1.5508  0.0128
  958MOL0     H29279   2.414   4.482   2.845  0.4617  2.3642 -1.5767
  958MOL0     H29280   2.334   4.338   2.802  0.1221 -0.2595  0.3423
  958MOL0     H29281   2.040   4.442   2.766 -1.4571  0.8000 -0.1418
  958MOL0     H29282   1.815   4.371   2.919  2.0073  3.9128 -2.4890
  958MOL0     H29283   1.847   4.357   3.094  2.9746  0.8975  0.8526
  958MOL0     H29284   1.665   4.491   3.035  0.1244  0.5616 -0.2476
  958MOL0     H29285   1.774   4.618   2.966 -1.5841 -1.9065 -1.7070
  958MOL0     H29286   1.882   4.644   3.184 -0.2912 -0.2923 -0.0128
  958MOL0     H29287   1.780   4.510   3.254 -2.5132  0.8124  1.0897
  958MOL0     H29288   1.646   4.760   3.157  1.9273  0.5553  1.1299
  958MOL0     H29289   1.712   4.730   3.320 -1.5051  4.2202 -1.1429
  958MOL0     H29290   1.672   4.620   3.483  0.5684 -0.5468  0.2962
  958MOL0     H29291   1.494   4.619   3.812 -1.3794 -0.7284 -1.6955
  958MOL0     H29292   1.628   4.499   3.770 -0.5834 -0.8087  0.8851
  958MOL0     H29293   1.637   4.669   3.730  2.3854 -2.2754  1.8417
  958MOL0     H29294   0.996   4.231   3.696  0.0749  1.2834 -0.1433
  958MOL0     H29295   0.806   4.196   3.879  1.0568 -1.3717 -1.3286
  958MOL0     H29296   0.729   4.544   4.162 -0.0003 -0.3271  1.8116
  958MOL0     H29297   0.594   4.494   4.055 -0.3389 -1.8193  0.2660
  958MOL0     H29298   0.673   4.381   4.318  0.4338  0.9880 -0.9173
  958MOL0     H29299   0.531   4.472   4.292 -0.9130  0.4944 -2.2519
  958MOL0     H29300   0.475   4.230   4.296 -2.9978 -1.2383 -1.7333
  958MOL0     H29301   0.552   4.220   4.137  1.7751  0.3771 -0.1388
  958MOL0     H29302   0.326   4.390   4.236  1.8059  1.5387  0.0591
  958MOL0     H29303   0.396   4.435   4.083 -0.8605  1.5775  1.7558
  958MOL0     H29304   0.373   4.202   4.005 -0.2866  0.4685 -0.5798
  958MOL0     H29305   0.227   4.296   4.005  2.7471  1.5474 -2.1055
  958MOL0     H29306   0.284   4.113   4.251 -2.1711  1.6581  1.1844
  958MOL0     H29307   0.137   4.183   4.190  0.0394 -1.0154  0.8024
  958MOL0     H29308   0.128   4.049   3.983 -1.4755 -1.1996 -1.1445
  958MOL0     H29309   0.106   3.971   4.132 -2.0003  3.1629 -0.7549
  958MOL0     H29310   0.367   3.962   3.977 -0.9414  2.8714 -0.4540
  958MOL0     H29311   0.244   3.838   3.972 -0.2041  0.2041 -0.2330
  958MOL0     H29312   0.934   4.554   4.076  0.5657 -1.2067  1.0952
  958MOL0     H29313   1.138   4.559   3.929 -1.0705 -0.2423  2.4599
  958MOL0     H29314   1.250   4.374   3.479  1.8962 -1.7611 -0.2866
  958MOL0     H29315   1.336   4.478   3.271 -0.0021  1.7386 -0.4408
  958MOL0     H29316   3.006   4.488   2.192 -0.6500 -2.5408  3.1771
  958MOL0     H29317   3.248   4.511   2.111 -2.4373  1.5776 -1.5734
  958MOL0     H29318   3.573   4.504   2.076 -1.3822  0.6911 -1.0366
  958MOL0     H29319   3.803   4.597   2.033 -0.2292 -0.7694 -0.1410
  958MOL0     H29320   4.096   4.353   1.870  0.1029 -0.2567 -3.6219
  958MOL0     H29321   4.158   4.501   1.798  0.4960  0.5633  1.2414
  958MOL0     H29322   4.081   4.436   2.081  0.7790  0.0581  0.9430
  958MOL0     H29323   4.103   4.605   2.030 -1.4946  0.9818 -1.0570
  958MOL0     H29324   4.337   4.524   1.952 -2.8317  1.2436 -2.7497
  958MOL0     H29325   4.290   4.363   2.032 -1.2856 -0.8651  3.8734
  958MOL0     H29326   4.416   4.460   2.185 -0.5903 -1.3731 -0.6310
  958MOL0     H29327   4.245   4.479   2.238  0.4589 -2.1414 -0.3671
  958MOL0     H29328   4.377   4.883   2.244  2.1339 -1.0076  0.5340
  958MOL0     H29329   3.874   4.277   1.758  0.9573  3.7522 -0.9635
  958MOL0     H29330   3.651   4.174   1.800 -1.7544  2.4544 -2.3160
  959MOL0     O29331   8.311   9.838  11.307  0.1343  0.3079  0.3733
  959MOL0     C29332   8.282   9.831  11.188  0.1580 -0.4503 -0.8920
  959MOL0     O29333   8.158   9.828  11.127 -0.7401  0.4759 -0.1738
  959MOL0     C29334   8.045   9.826  11.211 -0.2677 -0.4962  0.0117
  959MOL0     C29335   8.030   9.774  11.331  0.0933 -0.0424 -0.4211
  959MOL0     C29336   7.907   9.784  11.405  0.6050 -0.5100  0.5961
  959MOL0     C29337   7.805   9.870  11.350  0.3900 -0.2108  0.4611
  959MOL0     O29338   7.697   9.911  11.436 -0.2270 -0.4045  0.8157
  959MOL0     C29339   7.703   9.902  11.574  0.0132 -0.0422 -0.8644
  959MOL0     C29340   7.635   9.773  11.609  0.2865 -1.2109  0.2296
  959MOL0     C29341   7.639   9.740  11.771 -0.0261 -0.4565 -0.5860
  959MOL0     C29342   7.698   9.601  11.810 -0.6225  1.2202  0.5655
  959MOL0     C29343   7.811   9.605  11.911 -0.2774 -0.9271  0.8132
  959MOL0     C29344   7.916   9.492  11.909 -1.8088  0.5721 -0.4608
  959MOL0     C29345   7.850   9.360  11.940  0.5342  0.4603  0.5559
  959MOL0     C29346   7.942   9.245  11.898 -0.4516 -0.0163  0.4178
  959MOL0     N29347   7.907   9.105  11.923 -0.0301 -0.7766  0.0420
  959MOL0     C29348   7.819   9.030  11.856 -0.3367 -0.1614 -0.6181
  959MOL0     C29349   7.832   8.909  11.905 -0.7917  0.3932 -0.4469
  959MOL0     C29350   7.767   8.785  11.841  0.4728  0.8554  0.4097
  959MOL0     C29351   7.773   8.646  11.912 -0.2728 -0.2114 -0.0087
  959MOL0     C29352   7.715   8.644  12.055 -0.1794  0.4811 -0.5976
  959MOL0     C29353   7.718   8.499  12.115 -0.3561 -0.3702 -0.2370
  959MOL0     O29354   7.644   8.499  12.241  0.1921 -0.5966 -0.0115
  959MOL0     C29355   7.609   8.378  12.307  0.2451 -0.1114 -0.3015
  959MOL0     C29356   7.521   8.377  12.415 -0.4446  0.5490 -0.5743
  959MOL0     C29357   7.485   8.253  12.488  0.0457  0.0629 -0.6751
  959MOL0     C29358   7.390   8.263  12.603 -0.8390 -0.3001  0.9577
  959MOL0     C29359   7.553   8.132  12.444  0.1434  0.5829  0.4648
  959MOL0     C29360   7.545   7.997  12.509 -0.1025 -0.4895 -0.3510
  959MOL0     O29361   7.585   7.895  12.428 -0.1149  0.1925 -0.5311
  959MOL0     C29362   7.557   7.775  12.492 -1.0031  0.5938  0.0701
  959MOL0     C29363   7.640   7.734  12.594 -0.4348 -0.3100  0.4037
  959MOL0     C29364   7.627   7.597  12.637  0.1166  0.3015 -0.8217
  959MOL0     C29365   7.517   7.526  12.614 -0.4062  0.0681 -0.2550
  959MOL0     O29366   7.505   7.389  12.654  1.0661 -0.4423  0.0825
  959MOL0     C29367   7.380   7.313  12.650  0.1344 -0.4492  0.1644
  959MOL0     C29368   7.387   7.197  12.550  0.1402 -0.0632 -0.1675
  959MOL0     C29369   7.502   7.102  12.579  0.8193  0.2323  0.5180
  959MOL0     C29370   7.532   7.006  12.466 -0.0580  0.2971  0.5614
  959MOL0     C29371   7.417   6.910  12.426  0.7878  0.0104 -0.8195
  959MOL0     C29372   7.362   6.835  12.545 -0.4336 -0.3678 -0.6130
  959MOL0     C29373   7.450   6.721  12.592 -0.0754  0.1030  1.6945
  959MOL0     C29374   7.420   6.682  12.727  0.3964  0.7717  0.4337
  959MOL0    Cl29375   7.468   6.812  12.847 -0.4644 -0.1512  0.5254
  959MOL0     C29376   7.425   7.580  12.524  0.2656  0.2030  0.1748
  959MOL0     C29377   7.447   7.699  12.462 -0.4697 -0.1927  0.7856
  959MOL0     O29378   7.493   7.989  12.623 -0.4709  0.0234  0.6103
  959MOL0     C29379   7.635   8.138  12.328  0.1216 -0.3652 -0.4333
  959MOL0     C29380   7.650   8.255  12.253  0.6020 -0.0160 -0.6604
  959MOL0     N29381   7.926   8.917  12.002 -0.0648 -0.0494  0.4318
  959MOL0     N29382   7.970   9.037  12.015  0.0350 -0.2618  0.4205
  959MOL0     C29383   7.818   9.923  11.225 -0.5019  0.4931  0.1979
  959MOL0     C29384   7.937   9.900  11.158  0.2451 -0.5765  0.2463
  959MOL0     C29385   8.404   9.824  11.108 -0.5930  0.7874 -0.1479
  959MOL0     C29386   8.403   9.843  10.966  0.6632  0.3504  0.0096
  959MOL0     C29387   8.518   9.846  10.885 -0.3187  1.0390  0.4146
  959MOL0     C29388   8.649   9.809  10.945  0.5405 -0.3748  1.2547
  959MOL0     O29389   8.776   9.792  10.884  0.0206  0.1234  0.1832
  959MOL0     C29390   8.794   9.826  10.747 -0.5458  0.3669 -0.2412
  959MOL0     C29391   8.908   9.740  10.691 -0.0068  0.5021  0.0861
  959MOL0     C29392   9.054   9.771  10.736  0.9565  0.9571  1.0387
  959MOL0     C29393   9.111   9.659  10.834  0.5957 -1.0488  0.3465
  959MOL0     C29394   9.254   9.684  10.854 -0.2617 -0.3927  0.0563
  959MOL0     C29395   9.373   9.706  10.880  0.0962  0.2519 -0.1172
  959MOL0     C29396   8.653   9.795  11.084  0.6226 -0.7564 -0.7403
  959MOL0     C29397   8.533   9.792  11.163  0.5050  0.1030  0.0005
  959MOL0     H29398   8.106   9.718  11.385  0.3457  1.1885  0.5581
  959MOL0     H29399   7.895   9.753  11.509 -0.0462  2.0201  1.3416
  959MOL0     H29400   7.803   9.911  11.619  0.0635 -2.2619 -0.4318
  959MOL0     H29401   7.630   9.976  11.609  0.8899  1.3009 -1.7903
  959MOL0     H29402   7.539   9.784  11.558 -0.5046  3.7977  2.2370
  959MOL0     H29403   7.671   9.681  11.562  1.4369  0.1452 -1.7354
  959MOL0     H29404   7.695   9.820  11.820 -0.6273 -0.1288 -0.4154
  959MOL0     H29405   7.539   9.745  11.816  1.3844 -1.0917  2.8570
  959MOL0     H29406   7.622   9.528  11.837  2.9257 -1.9742  3.0171
  959MOL0     H29407   7.743   9.552  11.723  0.2326 -2.3956  2.8087
  959MOL0     H29408   7.868   9.696  11.890 -1.6893  0.0164  0.9195
  959MOL0     H29409   7.786   9.631  12.014  2.1185  1.0069  1.0047
  959MOL0     H29410   7.968   9.486  11.813 -1.8000  0.5182 -0.4528
  959MOL0     H29411   7.997   9.518  11.977  0.8961 -1.8138 -2.5243
  959MOL0     H29412   7.815   9.350  12.043 -0.2528 -1.9080  0.1183
  959MOL0     H29413   7.760   9.347  11.879  1.3437 -0.5215 -0.4705
  959MOL0     H29414   8.035   9.264  11.953 -1.9510 -0.7442  3.4391
  959MOL0     H29415   7.955   9.263  11.791  1.1101  0.4226  0.6520
  959MOL0     H29416   7.755   9.057  11.772 -1.8691  1.0170  0.8460
  959MOL0     H29417   7.667   8.824  11.818  1.2119  3.6920  1.4943
  959MOL0     H29418   7.811   8.768  11.742 -4.1177 -1.7367 -1.4721
  959MOL0     H29419   7.877   8.617  11.929 -0.5570 -1.2364  0.0285
  959MOL0     H29420   7.715   8.577  11.850 -3.2039  2.4753 -0.5530
  959MOL0     H29421   7.613   8.683  12.054  1.4203  5.3276  0.2018
  959MOL0     H29422   7.770   8.708  12.125  2.0262 -0.8513 -1.0200
  959MOL0     H29423   7.821   8.473  12.139 -0.4375 -1.1592 -0.6805
  959MOL0     H29424   7.672   8.431  12.042 -0.1826  0.4763 -1.1524
  959MOL0     H29425   7.476   8.472  12.443  2.1843  1.8836 -0.6290
  959MOL0     H29426   7.356   8.366  12.615  1.9722  0.7256  0.8585
  959MOL0     H29427   7.306   8.199  12.574  1.0289 -1.4981 -2.3443
  959MOL0     H29428   7.433   8.229  12.697 -1.3194  3.4669  2.7057
  959MOL0     H29429   7.726   7.794  12.622 -0.1820 -1.2012  1.6018
  959MOL0     H29430   7.700   7.562  12.710  0.3301  3.6886  0.7527
  959MOL0     H29431   7.377   7.263  12.747  4.0494 -1.7274 -0.1660
  959MOL0     H29432   7.298   7.384  12.640  0.0983 -0.5379 -0.1739
  959MOL0     H29433   7.299   7.132  12.541  1.5445 -1.7612 -3.8154
  959MOL0     H29434   7.413   7.238  12.452  1.4761  1.7426  0.8882
  959MOL0     H29435   7.485   7.046  12.671  0.6167  1.6847  1.3952
  959MOL0     H29436   7.599   7.146  12.605  1.3853 -1.3486  1.2063
  959MOL0     H29437   7.560   7.071  12.383 -0.8207  2.0180  1.5990
  959MOL0     H29438   7.610   6.942  12.508 -0.8985 -0.5341  0.9143
  959MOL0     H29439   7.453   6.839  12.351  2.3831 -0.2443  0.1488
  959MOL0     H29440   7.334   6.974  12.394 -0.3250 -1.0658 -0.2008
  959MOL0     H29441   7.342   6.901  12.630 -2.1720 -0.6583 -0.7783
  959MOL0     H29442   7.270   6.783  12.519 -0.7610  0.1321 -0.4650
  959MOL0     H29443   7.553   6.755  12.587  0.7392 -2.2706 -2.2378
  959MOL0     H29444   7.439   6.640  12.520  1.2659  2.2776 -1.1327
  959MOL0     H29445   7.465   6.584  12.745 -3.0486 -1.4171 -1.6352
  959MOL0     H29446   7.318   6.647  12.743  0.9939 -2.0633 -1.2745
  959MOL0     H29447   7.336   7.523  12.497  1.2018 -1.6720  0.8381
  959MOL0     H29448   7.370   7.755  12.411  0.4003 -1.0081 -1.5486
  959MOL0     H29449   7.671   8.043  12.289  0.5380 -0.3038 -0.1975
  959MOL0     H29450   7.715   8.258  12.166  0.3508 -0.5021 -0.8673
  959MOL0     H29451   7.744   9.985  11.175  2.6149  1.9360 -3.0322
  959MOL0     H29452   7.949   9.939  11.058 -1.2839 -1.0563 -0.1564
  959MOL0     H29453   8.305   9.862  10.923  0.1689 -1.1372  0.4138
  959MOL0     H29454   8.503   9.867  10.779  2.6996  1.1433 -0.0829
  959MOL0     H29455   8.702   9.803  10.693 -0.3024 -1.0005 -0.1026
  959MOL0     H29456   8.800   9.934  10.731 -1.8272  0.8826  2.2203
  959MOL0     H29457   8.893   9.747  10.582 -0.2399 -2.2466 -0.1390
  959MOL0     H29458   8.889   9.632  10.698 -1.1794  0.1957 -4.5017
  959MOL0     H29459   9.051   9.865  10.793  3.4266  1.5744  0.2751
  959MOL0     H29460   9.116   9.778  10.647  0.0996 -1.5102  0.1797
  959MOL0     H29461   9.099   9.563  10.785 -0.5862 -0.4242 -0.6401
  959MOL0     H29462   9.062   9.663  10.932  0.2932  1.8913  0.1789
  959MOL0     H29463   9.480   9.707  10.884  0.1273 -1.2677  0.0505
  959MOL0     H29464   8.739   9.767  11.145 -0.6508 -0.9234  1.0629
  959MOL0     H29465   8.547   9.773  11.269  0.7566 -0.9024 -0.1987
  960MOL0     O29466   5.794  10.540   3.502 -0.2347  1.2454 -0.2848
  960MOL0     C29467   5.898  10.566   3.557 -0.8838 -0.0831 -0.5818
  960MOL0     O29468   5.910  10.680   3.651  0.2837 -0.0768  0.5898
  960MOL0     C29469   5.796  10.756   3.690 -0.4237 -0.0249  0.3254
  960MOL0     C29470   5.725  10.840   3.608 -0.2531 -0.6052  0.9371
  960MOL0     C29471   5.621  10.918   3.667  0.3781  0.0730  0.5955
  960MOL0     C29472   5.571  10.902   3.793  0.0368 -0.3210 -0.1192
  960MOL0     O29473   5.452  10.965   3.850 -0.3367  0.1641  0.7251
  960MOL0     C29474   5.339  10.983   3.756 -0.2955  0.2693  0.4348
  960MOL0     C29475   5.261  11.095   3.817 -0.7107 -0.5551 -1.3456
  960MOL0     C29476   5.192  11.071   3.957  0.6685 -0.3068 -0.3050
  960MOL0     C29477   5.054  11.012   3.931  0.6576 -0.0410  0.1011
  960MOL0     C29478   5.003  10.927   4.056  0.6854  0.6463  0.1172
  960MOL0     C29479   4.914  10.805   4.011 -0.0077 -0.2026  0.4040
  960MOL0     C29480   4.783  10.855   3.952  0.6721 -0.4240  0.4280
  960MOL0     C29481   4.690  10.742   3.901  0.5215  0.4361  0.8188
  960MOL0     N29482   4.636  10.653   4.008  0.4370 -0.2650  0.1575
  960MOL0     C29483   4.616  10.692   4.137 -0.2153  0.3393 -0.8917
  960MOL0     C29484   4.554  10.586   4.201  0.2764  0.0595  0.2666
  960MOL0     C29485   4.520  10.579   4.348  0.1282 -0.0760  0.4312
  960MOL0     C29486   4.448  10.719   4.381 -0.5660 -0.5055  0.5950
  960MOL0     C29487   4.387  10.733   4.527  0.4225  0.1607 -0.9371
  960MOL0     C29488   4.497  10.711   4.636  0.2830 -0.1538 -0.8177
  960MOL0     O29489   4.461  10.763   4.768 -1.2640  0.1451  0.4244
  960MOL0     C29490   4.438  10.896   4.779  0.0283 -1.1965  0.6439
  960MOL0     C29491   4.339  10.943   4.873  0.1432  0.9628  0.0895
  960MOL0     C29492   4.328  11.081   4.891 -0.1271  0.0338 -0.0949
  960MOL0     C29493   4.242  11.110   5.013  0.2350 -0.1333 -0.6603
  960MOL0     C29494   4.397  11.172   4.813 -1.0160  0.7664  0.3557
  960MOL0     C29495   4.378  11.319   4.837 -0.2360  0.3495  0.1225
  960MOL0     O29496   4.279  11.368   4.914  0.4380 -0.0804  0.2540
  960MOL0     C29497   4.284  11.497   4.964  0.5102  1.7234 -1.2862
  960MOL0     C29498   4.361  11.605   4.920 -0.6500  0.5592 -0.6734
  960MOL0     C29499   4.338  11.737   4.969  0.3639  0.5232  0.5583
  960MOL0     C29500   4.241  11.753   5.070 -0.2052 -0.6601  0.3922
  960MOL0     O29501   4.211  11.876   5.116 -0.5873 -0.3783  0.4209
  960MOL0     C29502   4.309  11.977   5.110 -0.3179  0.0193 -1.2429
  960MOL0     C29503   4.288  12.094   5.216 -1.1396 -0.7185  0.2879
  960MOL0     C29504   4.423  12.158   5.263  0.1450  0.3811  0.1158
  960MOL0     C29505   4.400  12.272   5.355 -0.1078 -0.2491 -0.6796
  960MOL0     C29506   4.528  12.352   5.386  0.1979 -0.7345 -0.0430
  960MOL0     C29507   4.630  12.275   5.463  0.1382 -0.3704  0.3898
  960MOL0     C29508   4.586  12.179   5.573  0.2329 -0.0807 -0.2048
  960MOL0     C29509   4.576  12.249   5.703  0.6988  0.9331 -0.3319
  960MOL0    Cl29510   4.526  12.130   5.825 -0.1160  0.8516 -0.6684
  960MOL0     C29511   4.166  11.647   5.124  0.0493  0.3700  0.0143
  960MOL0     C29512   4.193  11.523   5.069 -0.5763  0.7088 -0.1514
  960MOL0     O29513   4.473  11.384   4.791  0.3590  0.0842  0.3870
  960MOL0     C29514   4.487  11.127   4.720  0.1207  0.1393  0.0221
  960MOL0     C29515   4.512  10.990   4.703 -0.0217  0.7800  0.8460
  960MOL0     N29516   4.537  10.498   4.106  0.5417  0.9976  0.6919
  960MOL0     N29517   4.591  10.526   3.985 -0.1831 -0.7599 -0.9071
  960MOL0     C29518   5.646  10.811   3.869  0.6720  0.4803  0.1191
  960MOL0     C29519   5.753  10.741   3.822 -0.0654  0.3650 -1.1452
  960MOL0     C29520   6.015  10.497   3.511 -0.3047  0.2967 -0.5943
  960MOL0     C29521   6.141  10.538   3.551 -1.3501 -0.4238 -0.3543
  960MOL0     C29522   6.257  10.461   3.519 -0.3859 -1.1293  0.6808
  960MOL0     C29523   6.252  10.347   3.447 -0.6031  0.3172 -0.2750
  960MOL0     O29524   6.376  10.281   3.428  0.0640  0.6060 -0.2248
  960MOL0     C29525   6.379  10.172   3.337 -0.8273  0.3439  0.2897
  960MOL0     C29526   6.516  10.118   3.316 -0.6378  0.7502 -1.5248
  960MOL0     C29527   6.616  10.228   3.285 -0.8031  0.0092  0.4502
  960MOL0     C29528   6.647  10.219   3.139 -0.1078  0.0382 -0.0180
  960MOL0     C29529   6.533  10.259   3.055 -0.1297 -0.3099 -0.5075
  960MOL0     C29530   6.453  10.298   2.972 -0.0232  0.6808 -0.5449
  960MOL0     C29531   6.126  10.313   3.390 -0.4174 -0.3132  0.2328
  960MOL0     C29532   6.007  10.384   3.423  0.5537 -0.2254 -0.0570
  960MOL0     H29533   5.741  10.851   3.501 -1.0418  3.3181  1.0471
  960MOL0     H29534   5.563  10.984   3.603 -0.8562 -1.7235 -0.2267
  960MOL0     H29535   5.370  11.018   3.657  0.5559 -1.5124  0.0203
  960MOL0     H29536   5.266  10.902   3.750 -1.0640  0.8615  1.5631
  960MOL0     H29537   5.329  11.179   3.827 -2.9538  1.1171  1.8187
  960MOL0     H29538   5.184  11.133   3.749 -1.5647  0.7949  0.2886
  960MOL0     H29539   5.253  11.002   4.016 -3.3918 -1.0901  3.4789
  960MOL0     H29540   5.171  11.168   4.001 -3.1769  0.1832 -2.7428
  960MOL0     H29541   4.980  11.084   3.895  1.3052  0.6846  0.1794
  960MOL0     H29542   5.071  10.938   3.853 -0.8060  0.2133 -0.4832
  960MOL0     H29543   5.080  10.895   4.128 -0.8500  3.3838  3.2623
  960MOL0     H29544   4.942  10.993   4.119  2.8452  0.8780  2.1360
  960MOL0     H29545   4.956  10.742   3.932 -1.4930  0.2581 -0.7986
  960MOL0     H29546   4.902  10.743   4.100  0.7475 -1.2312 -0.1944
  960MOL0     H29547   4.732  10.910   4.032 -1.1841 -1.8674  0.3134
  960MOL0     H29548   4.799  10.926   3.870  0.3828 -1.2494 -0.3589
  960MOL0     H29549   4.741  10.678   3.829 -1.2856  2.6380 -2.7429
  960MOL0     H29550   4.603  10.770   3.841 -0.4460 -3.7387  0.0229
  960MOL0     H29551   4.647  10.789   4.174  3.1761 -1.0048  0.0705
  960MOL0     H29552   4.444  10.507   4.378  0.4947  0.6531  3.5209
  960MOL0     H29553   4.616  10.564   4.399  0.8262  0.4442 -0.6726
  960MOL0     H29554   4.364  10.735   4.312 -1.6389  0.1557  1.9959
  960MOL0     H29555   4.519  10.802   4.376 -0.4238 -0.5909  1.1164
  960MOL0     H29556   4.311  10.656   4.545 -1.1829  0.8532 -3.9543
  960MOL0     H29557   4.339  10.831   4.533  0.8084  0.3277 -0.5992
  960MOL0     H29558   4.592  10.759   4.608  0.5059 -1.9565 -3.5368
  960MOL0     H29559   4.520  10.604   4.638  1.7105  0.0613 -2.6150
  960MOL0     H29560   4.301  10.859   4.931 -1.8690  2.4842  1.0951
  960MOL0     H29561   4.153  11.172   5.000 -2.4884 -3.3693  0.9452
  960MOL0     H29562   4.221  11.020   5.071  1.9752 -0.5857 -0.6754
  960MOL0     H29563   4.312  11.160   5.081  1.7716 -1.8577 -0.9070
  960MOL0     H29564   4.423  11.603   4.830 -0.8371  2.8561 -0.9124
  960MOL0     H29565   4.397  11.819   4.930  1.0645 -0.4576 -0.4822
  960MOL0     H29566   4.402  11.928   5.139 -0.1803 -1.9836 -4.5567
  960MOL0     H29567   4.316  12.034   5.016  0.2023  1.2540 -0.4831
  960MOL0     H29568   4.223  12.170   5.171  1.8854  0.6762 -2.1401
  960MOL0     H29569   4.236  12.053   5.302  1.2139 -1.1426  1.5899
  960MOL0     H29570   4.475  12.195   5.174 -1.6691  2.0496 -0.3165
  960MOL0     H29571   4.484  12.076   5.302 -1.4838 -1.8945 -1.7712
  960MOL0     H29572   4.324  12.334   5.307  0.6821  0.4878 -1.0054
  960MOL0     H29573   4.351  12.242   5.449  2.2804 -2.2391  0.0445
  960MOL0     H29574   4.494  12.443   5.435 -0.5643 -1.3228  0.5519
  960MOL0     H29575   4.571  12.382   5.290  1.7092 -2.4605  0.0210
  960MOL0     H29576   4.661  12.210   5.381  0.2589 -1.0177  0.9396
  960MOL0     H29577   4.715  12.339   5.486  0.1213  1.3804 -3.5553
  960MOL0     H29578   4.656  12.095   5.571 -1.1253 -1.2348 -1.1101
  960MOL0     H29579   4.486  12.136   5.563 -0.2395  0.8482  0.3320
  960MOL0     H29580   4.498  12.326   5.694 -1.1669 -0.8795 -0.3610
  960MOL0     H29581   4.668  12.305   5.724 -0.0944  2.9770 -1.9794
  960MOL0     H29582   4.089  11.651   5.201 -1.0541 -0.9575 -0.9833
  960MOL0     H29583   4.145  11.439   5.119  3.1820 -0.3137  2.1574
  960MOL0     H29584   4.547  11.199   4.666  1.2305 -0.4695  0.4074
  960MOL0     H29585   4.587  10.951   4.635 -0.0776  1.0514  0.6271
  960MOL0     H29586   5.619  10.803   3.974 -0.3826  0.6524 -0.1302
  960MOL0     H29587   5.796  10.667   3.889  1.3440  2.5969  0.5455
  960MOL0     H29588   6.158  10.616   3.624 -1.4484 -0.7058 -0.0245
  960MOL0     H29589   6.354  10.500   3.547  0.5982 -0.2777 -3.2457
  960MOL0     H29590   6.322  10.086   3.374  0.6229 -0.1669  1.4176
  960MOL0     H29591   6.343  10.214   3.243 -1.9843  0.6105  0.8381
  960MOL0     H29592   6.516  10.047   3.233  1.0289 -4.5788  2.4706
  960MOL0     H29593   6.548  10.062   3.404 -0.1633 -0.9325 -2.7272
  960MOL0     H29594   6.715  10.214   3.330 -0.6515  0.6907  0.3376
  960MOL0     H29595   6.572  10.324   3.311 -2.6334 -0.9104  0.9408
  960MOL0     H29596   6.678  10.116   3.124  2.3261  0.3868  1.9981
  960MOL0     H29597   6.728  10.286   3.110 -1.4803  0.9669 -1.9566
  960MOL0     H29598   6.378  10.344   2.910 -1.0837 -2.4582 -1.7909
  960MOL0     H29599   6.110  10.221   3.335 -0.9360  0.7196 -1.3998
  960MOL0     H29600   5.913  10.344   3.387 -0.7527  1.4594  1.2870
  961MOL0     O29601   6.339   3.754   7.390  1.0108 -0.3867  0.0371
  961MOL0     C29602   6.336   3.734   7.514  0.0304  0.0597 -0.4547
  961MOL0     O29603   6.442   3.758   7.600  0.4274  0.4316 -0.4820
  961MOL0     C29604   6.562   3.789   7.535 -0.0010  0.6376  0.4090
  961MOL0     C29605   6.622   3.703   7.435  0.1752  0.1954 -0.6129
  961MOL0     C29606   6.743   3.737   7.381  0.5962 -0.9745  0.9783
  961MOL0     C29607   6.823   3.849   7.422 -0.0199 -0.2067  0.0451
  961MOL0     O29608   6.945   3.880   7.360 -0.0838  0.3507  0.1569
  961MOL0     C29609   6.977   3.819   7.236 -0.0581  0.3210 -0.2285
  961MOL0     C29610   7.089   3.898   7.171 -0.0518  0.0289 -0.2262
  961MOL0     C29611   7.181   3.935   7.277  0.4708  0.7389  0.0503
  961MOL0     C29612   7.317   3.958   7.211 -0.5422 -0.7828  0.3178
  961MOL0     C29613   7.424   4.015   7.306 -0.0642  0.0626  0.3551
  961MOL0     C29614   7.557   4.042   7.229 -0.0596  0.5673  0.5437
  961MOL0     C29615   7.620   4.178   7.268 -0.7025 -0.3645 -0.6331
  961MOL0     C29616   7.719   4.214   7.166 -0.0615 -0.5421  0.6594
  961MOL0     N29617   7.792   4.334   7.202  0.2655 -0.1790 -0.1090
  961MOL0     C29618   7.802   4.448   7.118 -0.9763  0.1797  0.0533
  961MOL0     C29619   7.907   4.512   7.179 -0.1948  0.8205  0.4609
  961MOL0     C29620   7.959   4.647   7.141  0.6190  0.2505 -0.2385
  961MOL0     C29621   8.115   4.658   7.149  0.3497 -0.1472  0.5382
  961MOL0     C29622   8.191   4.572   7.048  0.2024 -1.0698  0.2784
  961MOL0     C29623   8.343   4.609   7.047 -0.0022 -0.9891  0.1968
  961MOL0     O29624   8.425   4.491   7.028  0.1451 -0.9021 -0.9464
  961MOL0     C29625   8.543   4.470   7.095 -0.1753  0.1330  0.0832
  961MOL0     C29626   8.616   4.576   7.156 -0.7322  0.3701 -0.1293
  961MOL0     C29627   8.749   4.554   7.208  0.9687  0.7192 -0.5952
  961MOL0     C29628   8.821   4.681   7.255  0.4064  0.0214 -0.2057
  961MOL0     C29629   8.800   4.423   7.209 -0.5118  0.5917 -0.2444
  961MOL0     C29630   8.932   4.395   7.264  0.6415 -0.8476 -0.3525
  961MOL0     O29631   8.973   4.267   7.247  0.6228  0.5184 -0.3472
  961MOL0     C29632   9.099   4.238   7.281  0.3788  0.0958  0.4764
  961MOL0     C29633   9.143   4.245   7.419 -0.0210  0.2661 -0.1080
  961MOL0     C29634   9.279   4.227   7.458  0.4472 -0.2561  0.5441
  961MOL0     C29635   9.368   4.181   7.360  0.1465  0.3350  0.2277
  961MOL0     O29636   9.497   4.137   7.404  0.7540 -0.6340  0.2011
  961MOL0     C29637   9.579   4.073   7.309  0.4943  0.2066 -0.4572
  961MOL0     C29638   9.696   4.025   7.399 -0.3679  0.0531  1.0364
  961MOL0     C29639   9.797   3.967   7.307 -0.8926 -0.0028  0.6673
  961MOL0     C29640   9.910   3.904   7.394 -0.2670 -0.2035 -0.3404
  961MOL0     C29641  10.043   3.893   7.320  0.6884 -0.0323  0.5552
  961MOL0     C29642  10.164   3.862   7.412  0.7833  1.1107  0.9192
  961MOL0     C29643  10.302   3.889   7.349  0.7965  1.1697 -0.1822
  961MOL0     C29644  10.413   3.853   7.445  0.4862  0.6833  0.5731
  961MOL0    Cl29645  10.581   3.900   7.367 -0.0617 -0.0888 -0.2140
  961MOL0     C29646   9.323   4.172   7.223 -0.3124 -0.0053 -0.5547
  961MOL0     C29647   9.193   4.203   7.187  0.1727  0.8906  0.1827
  961MOL0     O29648   9.000   4.482   7.316  0.3317 -0.7139  0.9327
  961MOL0     C29649   8.725   4.318   7.155 -0.7000  0.4656  0.9542
  961MOL0     C29650   8.604   4.339   7.101  0.3429  0.0781  0.4850
  961MOL0     N29651   7.947   4.449   7.288 -0.3961  0.0676 -0.4157
  961MOL0     N29652   7.881   4.342   7.304 -0.7686  0.3463 -0.2801
  961MOL0     C29653   6.775   3.924   7.529 -0.0731 -0.1353  0.1166
  961MOL0     C29654   6.642   3.897   7.580  0.8734 -0.0097  0.4261
  961MOL0     C29655   6.203   3.690   7.577 -0.3776  0.3743  0.3214
  961MOL0     C29656   6.084   3.703   7.503  0.8166 -0.1567  0.2344
  961MOL0     C29657   5.960   3.681   7.557  0.4549 -0.1749 -0.6694
  961MOL0     C29658   5.941   3.643   7.693  0.2531 -0.2765  0.2553
  961MOL0     O29659   5.822   3.628   7.764 -0.6911  0.2628 -0.2345
  961MOL0     C29660   5.739   3.518   7.719 -0.2955  0.0672 -0.5042
  961MOL0     C29661   5.637   3.477   7.819  0.5049 -0.4207  0.3592
  961MOL0     C29662   5.559   3.603   7.874 -0.2132 -0.0334 -0.4688
  961MOL0     C29663   5.469   3.658   7.772 -0.6271  0.0465 -0.0194
  961MOL0     C29664   5.364   3.737   7.829  0.1152 -0.2131 -0.4928
  961MOL0     C29665   5.265   3.792   7.860 -0.1386 -0.5315 -0.0433
  961MOL0     C29666   6.062   3.633   7.763  0.0532 -0.1272  0.5933
  961MOL0     C29667   6.195   3.664   7.716  0.2954  0.1723  0.0608
  961MOL0     H29668   6.577   3.609   7.404 -0.8836  0.8791 -1.2118
  961MOL0     H29669   6.782   3.679   7.299 -1.4075  1.4407 -1.9132
  961MOL0     H29670   7.014   3.720   7.264  2.2045  1.1704 -0.0089
  961MOL0     H29671   6.900   3.809   7.159 -0.1428 -2.5163  0.1247
  961MOL0     H29672   7.138   3.832   7.099 -1.0324 -1.3262  0.3163
  961MOL0     H29673   7.038   3.989   7.137  0.1709  2.0663  4.1845
  961MOL0     H29674   7.153   4.027   7.329 -0.1299  1.3462 -1.2967
  961MOL0     H29675   7.191   3.849   7.343 -3.3998 -1.2638 -1.5974
  961MOL0     H29676   7.353   3.878   7.145  1.4051  1.9404 -2.1831
  961MOL0     H29677   7.298   4.044   7.146  4.5428  1.5777  1.5003
  961MOL0     H29678   7.394   4.105   7.359  1.9478  1.2647 -0.4359
  961MOL0     H29679   7.433   3.942   7.387  1.2726 -0.0091  0.1721
  961MOL0     H29680   7.623   3.956   7.241  0.7311  1.2562  1.1976
  961MOL0     H29681   7.530   4.040   7.122 -3.4766 -0.1075  1.2902
  961MOL0     H29682   7.539   4.250   7.280 -0.6162 -0.4474  0.5698
  961MOL0     H29683   7.674   4.153   7.360 -1.2220 -3.6448 -1.0923
  961MOL0     H29684   7.667   4.217   7.069 -1.0228  0.1716  1.1787
  961MOL0     H29685   7.790   4.133   7.145  0.1648  0.2394 -2.0482
  961MOL0     H29686   7.731   4.471   7.039 -3.0308 -0.2787  1.6940
  961MOL0     H29687   7.934   4.665   7.035  0.2019 -1.9555 -0.5614
  961MOL0     H29688   7.916   4.721   7.209  2.4585 -0.4796  1.8307
  961MOL0     H29689   8.148   4.625   7.248  0.3625  0.3510  0.7003
  961MOL0     H29690   8.138   4.765   7.150 -3.9910  1.0122  2.5506
  961MOL0     H29691   8.166   4.588   6.943  2.2099 -1.0139 -0.2297
  961MOL0     H29692   8.171   4.469   7.082  2.5704 -1.2804  1.2497
  961MOL0     H29693   8.357   4.662   7.141  0.2305 -0.9549  0.1446
  961MOL0     H29694   8.355   4.689   6.973  0.0333  0.1387  1.3943
  961MOL0     H29695   8.569   4.673   7.149 -1.0815  0.1579 -0.8543
  961MOL0     H29696   8.916   4.698   7.204 -0.0733  3.6792 -0.1336
  961MOL0     H29697   8.767   4.775   7.241  0.1902 -0.4016 -2.5182
  961MOL0     H29698   8.842   4.672   7.362 -1.1188  2.1686  0.3221
  961MOL0     H29699   9.084   4.257   7.509 -0.0971  0.2399 -0.1540
  961MOL0     H29700   9.310   4.203   7.560  0.2817 -1.4662  0.3214
  961MOL0     H29701   9.528   3.986   7.267 -0.3436  0.0618  0.8095
  961MOL0     H29702   9.611   4.134   7.224  1.1438 -2.4996 -2.2653
  961MOL0     H29703   9.735   4.102   7.466 -0.6098  0.2870  0.9129
  961MOL0     H29704   9.665   3.945   7.467 -1.1863  0.0889  0.7222
  961MOL0     H29705   9.832   4.040   7.234  0.2348 -2.1007 -1.0015
  961MOL0     H29706   9.752   3.887   7.247 -1.3019  0.3732  0.4684
  961MOL0     H29707   9.929   3.960   7.487  0.5856 -4.6916  2.5008
  961MOL0     H29708   9.882   3.806   7.434 -1.6597  0.0698 -0.5952
  961MOL0     H29709  10.059   3.983   7.259 -0.3342 -0.7302 -0.7955
  961MOL0     H29710  10.023   3.815   7.247  0.6151 -0.1417  0.6917
  961MOL0     H29711  10.167   3.935   7.494  1.4974  2.0703  0.0703
  961MOL0     H29712  10.159   3.761   7.453  0.5204 -0.0870 -1.8667
  961MOL0     H29713  10.323   3.987   7.305 -0.2857  1.7595  0.5610
  961MOL0     H29714  10.315   3.820   7.265 -0.7493  0.9614 -0.2752
  961MOL0     H29715  10.405   3.747   7.472 -1.9991  0.9779  1.2360
  961MOL0     H29716  10.403   3.918   7.532 -1.3217  0.1775  0.7968
  961MOL0     H29717   9.396   4.137   7.150  0.5276  1.8194 -0.6672
  961MOL0     H29718   9.170   4.196   7.081 -0.3920  0.1741  0.3460
  961MOL0     H29719   8.758   4.215   7.164  2.2151  1.2968  0.6612
  961MOL0     H29720   8.558   4.257   7.047  0.8990 -0.4617  0.8111
  961MOL0     H29721   6.834   4.009   7.562  0.3432  0.1687 -1.3549
  961MOL0     H29722   6.588   3.952   7.656  0.8036  2.7337 -1.4839
  961MOL0     H29723   6.084   3.751   7.406  0.0895  0.4064  0.5057
  961MOL0     H29724   5.877   3.694   7.489  0.3250 -1.1303 -0.7050
  961MOL0     H29725   5.698   3.534   7.619 -0.3281 -3.2510 -1.1205
  961MOL0     H29726   5.802   3.431   7.698  1.4295  1.6501 -2.3694
  961MOL0     H29727   5.683   3.425   7.903 -1.9704  0.3274  2.3053
  961MOL0     H29728   5.571   3.405   7.770 -0.9274  1.8366 -1.2409
  961MOL0     H29729   5.635   3.677   7.902  2.3698 -1.5627 -2.8905
  961MOL0     H29730   5.495   3.586   7.961 -0.5212  1.4137 -0.3816
  961MOL0     H29731   5.427   3.572   7.719  1.7054 -0.4533 -1.1833
  961MOL0     H29732   5.515   3.714   7.689 -2.3706 -0.2055 -1.2008
  961MOL0     H29733   5.186   3.844   7.911 -0.3742 -2.4155  1.6097
  961MOL0     H29734   6.056   3.621   7.871 -0.0384  2.4381  0.9302
  961MOL0     H29735   6.284   3.661   7.778  3.0817  1.1451 -3.5440
  962MOL0     O29736   7.552   7.021  10.872  0.3107 -0.7382 -0.0610
  962MOL0     C29737   7.632   6.974  10.796 -0.2095  0.0270 -0.0589
  962MOL0     O29738   7.603   6.891  10.691  0.6581 -0.0012  0.6770
  962MOL0     C29739   7.477   6.851  10.647 -0.4889  0.5193  1.0179
  962MOL0     C29740   7.358   6.912  10.692 -0.7907  0.2607 -0.3472
  962MOL0     C29741   7.238   6.866  10.654  0.6525  0.9665 -0.7233
  962MOL0     C29742   7.216   6.747  10.571  0.3682 -0.0124 -0.6154
  962MOL0     O29743   7.093   6.684  10.564 -0.0538  0.7122 -0.9040
  962MOL0     C29744   7.065   6.631  10.432 -0.5016 -0.8397 -0.1917
  962MOL0     C29745   7.015   6.486  10.425 -0.7292  0.0801  0.3274
  962MOL0     C29746   7.122   6.376  10.426 -0.1256  0.3082 -0.2388
  962MOL0     C29747   7.061   6.241  10.393 -0.3637  0.5556 -0.0185
  962MOL0     C29748   7.007   6.225  10.253 -0.3001  0.5113 -0.0555
  962MOL0     C29749   7.111   6.244  10.143  0.5459  0.1348  0.8444
  962MOL0     C29750   7.052   6.212  10.006  0.2323 -0.1487 -0.0146
  962MOL0     C29751   7.154   6.256   9.895 -0.0278 -0.1662  0.2640
  962MOL0     N29752   7.287   6.210   9.909 -0.1621 -1.5286 -0.1360
  962MOL0     C29753   7.325   6.095   9.963 -0.2917 -1.4578  0.2329
  962MOL0     C29754   7.462   6.092   9.951  0.7713  0.4038  0.0169
  962MOL0     C29755   7.549   5.982  10.017 -0.6905 -0.8139 -0.1596
  962MOL0     C29756   7.602   5.888   9.911 -0.7160 -0.3992  0.4332
  962MOL0     C29757   7.679   5.961   9.803  0.1725 -0.3340  0.4379
  962MOL0     C29758   7.806   6.025   9.844 -0.2047  0.3911 -0.6124
  962MOL0     O29759   7.873   5.938   9.936 -0.6620  0.0664  0.1712
  962MOL0     C29760   7.975   6.007  10.000 -0.2895 -0.3678  0.8142
  962MOL0     C29761   8.081   6.065   9.927  0.0403  0.1894  0.4585
  962MOL0     C29762   8.192   6.125   9.985 -0.0897 -0.2020 -0.2682
  962MOL0     C29763   8.289   6.194   9.895  0.2127 -0.4450  0.3574
  962MOL0     C29764   8.203   6.139  10.128  1.4283  0.1206 -0.7598
  962MOL0     C29765   8.303   6.215  10.195 -0.1301  0.4363 -1.3476
  962MOL0     O29766   8.425   6.160  10.200  0.7089 -0.0475  0.5688
  962MOL0     C29767   8.534   6.201  10.261 -0.1515  0.0145 -0.3921
  962MOL0     C29768   8.553   6.332  10.319 -0.5733  0.0506 -0.2327
  962MOL0     C29769   8.673   6.378  10.365 -0.8293  0.1834  0.9526
  962MOL0     C29770   8.793   6.289  10.371  0.7144 -0.3940 -0.0575
  962MOL0     O29771   8.912   6.336  10.436 -0.0776  0.4220  1.3007
  962MOL0     C29772   9.002   6.238  10.497  0.0034 -0.7415  0.2020
  962MOL0     C29773   9.098   6.311  10.601  0.0027  0.6011 -0.0752
  962MOL0     C29774   9.208   6.399  10.536 -0.1222 -0.7464 -0.2414
  962MOL0     C29775   9.329   6.314  10.499 -0.0013  0.4032 -0.4976
  962MOL0     C29776   9.437   6.407  10.446  0.1800  0.4781 -0.0807
  962MOL0     C29777   9.506   6.469  10.566  0.3437 -0.5445 -0.1647
  962MOL0     C29778   9.540   6.621  10.553 -0.1854  0.2430  0.4253
  962MOL0     C29779   9.421   6.725  10.565 -0.2545 -0.0551  0.1394
  962MOL0    Cl29780   9.338   6.746  10.415  0.1230 -0.0688  0.4022
  962MOL0     C29781   8.779   6.161  10.314 -0.4669  0.2330 -0.3665
  962MOL0     C29782   8.648   6.119  10.271  0.0498 -0.5108  0.8929
  962MOL0     O29783   8.262   6.303  10.268  0.5333 -0.0268  0.1010
  962MOL0     C29784   8.093   6.079  10.201  0.0129 -0.9366 -0.2093
  962MOL0     C29785   7.989   6.012  10.133  0.1157 -0.5157 -0.2207
  962MOL0     N29786   7.499   6.221   9.911  0.3232  0.1675  0.7793
  962MOL0     N29787   7.399   6.283   9.881 -0.2348  0.2338  0.4818
  962MOL0     C29788   7.338   6.675  10.537 -0.1625 -0.6185 -0.4947
  962MOL0     C29789   7.463   6.732  10.564 -0.0008  0.2456  0.7290
  962MOL0     C29790   7.769   7.012  10.826 -0.0213  0.6384  0.1303
  962MOL0     C29791   7.802   7.050  10.944  0.5481 -0.5613 -1.2085
  962MOL0     C29792   7.930   7.101  10.972 -0.0450  0.0700 -1.2463
  962MOL0     C29793   8.034   7.077  10.887 -0.0322  1.1993 -0.1684
  962MOL0     O29794   8.166   7.128  10.898 -0.6314 -0.0714 -0.5637
  962MOL0     C29795   8.207   7.180  11.022 -0.1460 -0.7485 -0.7246
  962MOL0     C29796   8.360   7.181  11.015  0.1174 -0.8516  0.2583
  962MOL0     C29797   8.426   7.231  11.143  0.2315 -0.3973  0.0006
  962MOL0     C29798   8.578   7.213  11.138  0.2785 -0.1741  0.6614
  962MOL0     C29799   8.639   7.247  11.271 -0.8207  0.6299  0.4442
  962MOL0     C29800   8.702   7.268  11.376 -0.1062  0.6127 -0.5635
  962MOL0     C29801   8.011   7.032  10.754 -0.3302 -0.2570 -0.6400
  962MOL0     C29802   7.875   7.001  10.731 -0.2400  0.7140  0.5340
  962MOL0     H29803   7.362   6.997  10.759  0.3038 -0.3874  0.4345
  962MOL0     H29804   7.167   6.935  10.698  0.1533 -0.2488  0.4440
  962MOL0     H29805   6.984   6.692  10.391  0.4314 -1.5011 -3.2233
  962MOL0     H29806   7.160   6.640  10.378  1.3914  0.8020  3.0595
  962MOL0     H29807   6.956   6.471  10.516  1.0091  1.5260  1.7572
  962MOL0     H29808   6.954   6.476  10.335 -3.3289 -1.8758  2.1657
  962MOL0     H29809   7.195   6.398  10.347  0.9006 -1.1278  0.2602
  962MOL0     H29810   7.163   6.371  10.527 -3.1205 -2.9788  1.0300
  962MOL0     H29811   7.128   6.157  10.415 -0.0281  0.7101 -0.4405
  962MOL0     H29812   6.979   6.234  10.465 -0.5526  1.3013 -0.1493
  962MOL0     H29813   6.983   6.121  10.230 -0.6323  0.6681 -0.4271
  962MOL0     H29814   6.918   6.287  10.236  1.0307  1.8036 -3.2060
  962MOL0     H29815   7.138   6.349  10.133 -1.6950  0.6983  0.1926
  962MOL0     H29816   7.192   6.173  10.164  0.5591  0.0540  0.5227
  962MOL0     H29817   7.027   6.106   9.995 -2.4065  0.4467 -0.3909
  962MOL0     H29818   6.958   6.267  10.000 -0.5382 -1.3145  0.9578
  962MOL0     H29819   7.159   6.363   9.874  1.7523 -0.2119  0.3079
  962MOL0     H29820   7.120   6.204   9.805 -0.5172  0.3923  0.1166
  962MOL0     H29821   7.264   6.013   9.999 -0.5936 -1.4345 -0.2195
  962MOL0     H29822   7.625   6.034  10.076 -4.8987  3.9113  1.8689
  962MOL0     H29823   7.488   5.918  10.081 -0.9730 -0.7524 -0.3653
  962MOL0     H29824   7.511   5.842   9.871 -1.4490 -1.9259  3.5226
  962MOL0     H29825   7.642   5.795   9.952 -1.2750 -1.2198 -0.8384
  962MOL0     H29826   7.616   6.045   9.770  0.7863  0.5205  1.4182
  962MOL0     H29827   7.709   5.892   9.724 -0.0880  0.3405 -0.2683
  962MOL0     H29828   7.792   6.124   9.889 -1.4612  0.9698 -2.1592
  962MOL0     H29829   7.868   6.039   9.755  0.5104 -1.2772 -0.4055
  962MOL0     H29830   8.091   6.065   9.819  4.0118  1.7418  0.6498
  962MOL0     H29831   8.368   6.131   9.853  0.2006  1.3386 -2.6979
  962MOL0     H29832   8.233   6.240   9.812  0.6928  3.0408  1.7839
  962MOL0     H29833   8.327   6.284   9.945  0.6339  1.0290 -2.4144
  962MOL0     H29834   8.475   6.408  10.325  0.3576  0.9123  2.2877
  962MOL0     H29835   8.673   6.481  10.400 -1.5696  0.8994 -1.0352
  962MOL0     H29836   8.954   6.151  10.544 -1.0828 -1.3684 -1.9100
  962MOL0     H29837   9.071   6.213  10.416  0.6839  1.4484  0.0643
  962MOL0     H29838   9.033   6.371  10.665 -1.5580 -1.8637  0.8027
  962MOL0     H29839   9.136   6.228  10.661 -1.4838  0.0445  0.1509
  962MOL0     H29840   9.220   6.473  10.615 -1.8151 -3.1025  2.3774
  962MOL0     H29841   9.177   6.446  10.441  0.6521 -1.7969 -1.0370
  962MOL0     H29842   9.367   6.254  10.583  2.1081 -0.0810 -1.7244
  962MOL0     H29843   9.288   6.256  10.416 -2.7922  0.3364  0.8136
  962MOL0     H29844   9.403   6.497  10.393 -1.5444  1.0942  1.9133
  962MOL0     H29845   9.505   6.348  10.386  0.8793 -0.3892  1.4986
  962MOL0     H29846   9.441   6.451  10.652 -2.0893 -1.1452 -2.0017
  962MOL0     H29847   9.596   6.408  10.579 -0.0998 -1.4785 -1.2725
  962MOL0     H29848   9.598   6.634  10.461 -2.6085 -0.7364 -1.3375
  962MOL0     H29849   9.605   6.645  10.639 -1.5890 -0.2458  1.6671
  962MOL0     H29850   9.453   6.826  10.594  0.3391 -0.6359  1.5821
  962MOL0     H29851   9.352   6.687  10.641  1.9752 -1.9871  1.3344
  962MOL0     H29852   8.861   6.090  10.324 -0.6671  0.3373  3.0396
  962MOL0     H29853   8.641   6.011  10.261  0.0292 -0.4257 -0.1424
  962MOL0     H29854   8.102   6.084  10.309 -1.7978 -0.2482 -0.0620
  962MOL0     H29855   7.920   5.960  10.199 -1.6845 -0.3603 -1.9119
  962MOL0     H29856   7.344   6.579  10.486  0.2189  0.3846 -2.4404
  962MOL0     H29857   7.558   6.688  10.536  0.8230  1.6358  1.2183
  962MOL0     H29858   7.735   7.064  11.028 -0.4630 -0.5915 -1.9832
  962MOL0     H29859   7.954   7.158  11.061 -2.1565  0.0394 -0.6077
  962MOL0     H29860   8.176   7.283  11.042 -1.4867 -1.2562 -0.0809
  962MOL0     H29861   8.174   7.120  11.107 -1.7530  0.4866 -0.4146
  962MOL0     H29862   8.387   7.251  10.936 -1.7470 -1.1979 -0.7542
  962MOL0     H29863   8.401   7.080  11.003 -1.4541 -1.4189 -0.6375
  962MOL0     H29864   8.397   7.177  11.233  4.0689  3.1186  3.8326
  962MOL0     H29865   8.402   7.336  11.160 -3.5252 -1.0441 -0.5427
  962MOL0     H29866   8.622   7.275  11.060 -1.1350 -0.6943 -0.5777
  962MOL0     H29867   8.598   7.109  11.110  0.5443  0.2312 -0.6985
  962MOL0     H29868   8.759   7.282  11.466 -0.4995  1.6436 -0.4612
  962MOL0     H29869   8.090   7.006  10.684  0.7662 -1.3375  0.9323
  962MOL0     H29870   7.857   6.965  10.630  1.6880 -1.2958  0.8250
  963MOL0     O29871   5.319  11.178   0.028 -0.2920  0.2708 -0.6287
  963MOL0     C29872   5.422  11.183   0.095  0.7616  0.1138  0.3656
  963MOL0     O29873   5.452  11.285   0.188 -0.1781  0.0993 -0.1847
  963MOL0     C29874   5.360  11.383   0.230 -0.2200  0.2757 -0.1093
  963MOL0     C29875   5.270  11.445   0.144 -1.2747  0.0680 -0.0942
  963MOL0     C29876   5.183  11.545   0.194  0.1250 -0.6935  0.3030
  963MOL0     C29877   5.188  11.588   0.327 -0.2108 -1.0890 -0.0041
  963MOL0     O29878   5.084  11.675   0.372 -0.1011 -1.0914 -0.4133
  963MOL0     C29879   5.041  11.624   0.495  0.0737 -0.4661 -0.1186
  963MOL0     C29880   4.904  11.687   0.508 -0.5937 -0.8248  0.8516
  963MOL0     C29881   4.900  11.844   0.522 -0.0403  0.7672  0.1641
  963MOL0     C29882   4.757  11.887   0.554 -0.2828  0.3205  1.0472
  963MOL0     C29883   4.751  12.037   0.545 -0.3834 -0.4076 -0.0682
  963MOL0     C29884   4.608  12.086   0.578  0.5236  0.0109  0.5935
  963MOL0     C29885   4.599  12.244   0.571  0.2707 -0.5231  0.4226
  963MOL0     C29886   4.472  12.295   0.642 -0.1053 -0.2550  0.8894
  963MOL0     N29887   4.347  12.226   0.608 -0.5166 -1.0030 -0.7605
  963MOL0     C29888   4.284  12.213   0.479  0.6715  0.6405 -0.6733
  963MOL0     C29889   4.198  12.102   0.501 -0.0147 -0.9958  0.9460
  963MOL0     C29890   4.105  12.027   0.405 -1.0141  0.2353  0.0175
  963MOL0     C29891   3.986  12.120   0.379  0.4309  1.0801 -0.1647
  963MOL0     C29892   3.878  12.107   0.474 -0.0720  0.0896 -0.2848
  963MOL0     C29893   3.753  12.216   0.469 -0.0203  1.4370  0.3881
  963MOL0     O29894   3.711  12.239   0.601 -0.4081 -0.0798  0.6443
  963MOL0     C29895   3.649  12.355   0.632 -0.7432 -0.3106 -0.9740
  963MOL0     C29896   3.707  12.434   0.731  0.1824 -0.5563  0.9632
  963MOL0     C29897   3.639  12.548   0.770  0.7865  0.8408 -0.2241
  963MOL0     C29898   3.717  12.630   0.869 -0.3859  0.0033  0.5502
  963MOL0     C29899   3.506  12.575   0.726 -0.0097 -0.6183 -0.1077
  963MOL0     C29900   3.434  12.694   0.773 -0.6743 -0.4595 -0.1017
  963MOL0     O29901   3.458  12.735   0.900 -0.2908 -0.8675 -0.5760
  963MOL0     C29902   3.367  12.813   0.973 -0.2741  0.3930 -0.3505
  963MOL0     C29903   3.420  12.914   1.061 -0.1967  0.8342  0.0029
  963MOL0     C29904   3.333  12.998   1.137  1.3519  0.7411  1.2014
  963MOL0     C29905   3.191  12.990   1.118 -0.4393  0.2460 -0.0319
  963MOL0     O29906   3.100  13.064   1.193 -0.0940 -0.5206 -0.4943
  963MOL0     C29907   3.140  13.199   1.225  0.3563 -0.6575  0.0152
  963MOL0     C29908   3.015  13.278   1.235 -1.0433 -0.6080  0.0254
  963MOL0     C29909   3.037  13.424   1.271 -0.1100 -0.2707  0.2061
  963MOL0     C29910   2.903  13.483   1.317 -0.5777 -0.1131 -0.3897
  963MOL0     C29911   2.939  13.609   1.404 -0.5985  0.3502  0.5169
  963MOL0     C29912   2.826  13.706   1.410  0.3651  0.0427 -0.3637
  963MOL0     C29913   2.858  13.817   1.506 -0.6105 -0.0409 -0.5935
  963MOL0     C29914   2.746  13.910   1.533 -0.3381 -0.6021  0.3213
  963MOL0    Cl29915   2.788  14.000   1.686 -0.1140  0.1540 -0.0461
  963MOL0     C29916   3.141  12.895   1.036 -0.4387  0.6225  0.3914
  963MOL0     C29917   3.222  12.808   0.961 -0.1285  0.8140 -0.3944
  963MOL0     O29918   3.364  12.747   0.689  0.7865 -0.6295  0.3147
  963MOL0     C29919   3.458  12.495   0.626  0.2130  0.4592 -0.5375
  963MOL0     C29920   3.533  12.386   0.574 -0.4607 -0.4026 -0.2959
  963MOL0     N29921   4.196  12.068   0.640 -0.3655  0.0526  0.7262
  963MOL0     N29922   4.285  12.137   0.694 -0.6329 -0.5931  0.8329
  963MOL0     C29923   5.289  11.531   0.412 -0.1447  0.4012  0.2591
  963MOL0     C29924   5.367  11.428   0.364  0.2554  0.6512 -0.1367
  963MOL0     C29925   5.536  11.106   0.044 -0.9045  0.3966  0.6470
  963MOL0     C29926   5.522  10.999  -0.051 -0.2736  0.6170 -0.5965
  963MOL0     C29927   5.635  10.929  -0.090 -0.0164 -0.5904  0.6869
  963MOL0     C29928   5.765  10.965  -0.051 -0.0584  0.0706  0.3564
  963MOL0     O29929   5.868  10.895  -0.112 -0.3787  0.6005 -0.6182
  963MOL0     C29930   5.997  10.965  -0.098 -0.4526  0.1622  0.0210
  963MOL0     C29931   6.095  10.900  -0.202  0.4137 -0.2573  0.1100
  963MOL0     C29932   6.229  10.964  -0.173  0.8254  0.5011 -0.4466
  963MOL0     C29933   6.327  10.943  -0.290  0.1475  1.0083 -0.0467
  963MOL0     C29934   6.457  10.885  -0.243 -0.1597 -0.2848 -0.6473
  963MOL0     C29935   6.558  10.822  -0.210 -0.1460 -0.3612 -0.9296
  963MOL0     C29936   5.777  11.068   0.042  0.5845  0.1720  0.8182
  963MOL0     C29937   5.662  11.128   0.096  0.5209  0.4550  0.0587
  963MOL0     H29938   5.260  11.419   0.039 -2.2799  2.5115 -0.6631
  963MOL0     H29939   5.123  11.598   0.120  1.8057 -0.5577 -1.0128
  963MOL0     H29940   5.032  11.515   0.496  4.2582 -0.9441  1.4046
  963MOL0     H29941   5.097  11.654   0.583  0.9862 -0.0425 -0.8300
  963MOL0     H29942   4.851  11.664   0.415 -0.6833  1.8481  0.1630
  963MOL0     H29943   4.857  11.646   0.598 -1.4676  0.3118  0.9391
  963MOL0     H29944   4.970  11.876   0.600 -1.6084  0.6679  1.6845
  963MOL0     H29945   4.945  11.885   0.432 -0.1304  0.4021 -0.0459
  963MOL0     H29946   4.705  11.837   0.472 -0.0507  0.6699  0.6834
  963MOL0     H29947   4.733  11.848   0.653  3.5135 -0.4168  1.8577
  963MOL0     H29948   4.832  12.081   0.604  1.3094 -1.9606 -1.1363
  963MOL0     H29949   4.768  12.074   0.444 -0.2590  1.8699  0.7308
  963MOL0     H29950   4.534  12.037   0.513  1.8399 -2.0958  0.5703
  963MOL0     H29951   4.570  12.049   0.674 -2.0811 -1.4632 -0.8915
  963MOL0     H29952   4.684  12.292   0.620 -0.5263  2.3332 -0.7657
  963MOL0     H29953   4.592  12.286   0.470 -0.2976  0.6777  0.9478
  963MOL0     H29954   4.454  12.400   0.620  0.5238 -0.5008 -0.9867
  963MOL0     H29955   4.482  12.280   0.750  0.1868 -1.2260  0.7419
  963MOL0     H29956   4.310  12.271   0.391  0.2174  0.1381 -1.1416
  963MOL0     H29957   4.161  11.995   0.316  0.2291 -1.8892  1.4569
  963MOL0     H29958   4.055  11.941   0.450 -1.2432  1.2580  1.7803
  963MOL0     H29959   3.941  12.084   0.286 -0.9825  1.0897  0.4792
  963MOL0     H29960   4.025  12.222   0.371 -0.6730  1.7900  2.3519
  963MOL0     H29961   3.910  12.123   0.577 -1.0873 -0.1522  0.0781
  963MOL0     H29962   3.841  12.004   0.465  1.8372 -0.7953  1.1781
  963MOL0     H29963   3.676  12.178   0.400  1.0825  0.0563 -0.1321
  963MOL0     H29964   3.793  12.311   0.434  0.2110  1.3196  0.3296
  963MOL0     H29965   3.801  12.392   0.765  2.0146  1.9511 -0.6349
  963MOL0     H29966   3.718  12.738   0.854  1.6523  0.2944  2.3928
  963MOL0     H29967   3.691  12.600   0.970 -0.6490 -1.2931  0.1204
  963MOL0     H29968   3.825  12.615   0.861 -0.4491  0.1192 -0.7641
  963MOL0     H29969   3.526  12.934   1.071  0.2595 -1.5243  0.4332
  963MOL0     H29970   3.379  13.052   1.219  1.4460 -1.8982  3.0325
  963MOL0     H29971   3.202  13.199   1.314 -0.1760  0.8094  0.4186
  963MOL0     H29972   3.203  13.246   1.149 -0.2493 -0.0999 -0.1545
  963MOL0     H29973   2.965  13.275   1.137 -0.1875  1.6909 -0.5583
  963MOL0     H29974   2.953  13.247   1.320  0.2600  3.3623  2.6968
  963MOL0     H29975   3.063  13.482   1.182 -3.8080  0.4650 -0.5866
  963MOL0     H29976   3.118  13.436   1.344  1.1941 -5.1835 -0.0985
  963MOL0     H29977   2.842  13.509   1.229 -1.1092 -0.4657 -0.1309
  963MOL0     H29978   2.856  13.412   1.385 -0.9793 -0.0573 -0.6048
  963MOL0     H29979   3.023  13.663   1.359 -0.1038  2.3983  3.6398
  963MOL0     H29980   2.974  13.585   1.504  3.5858 -2.9774 -1.4077
  963MOL0     H29981   2.796  13.746   1.313 -2.6976  0.5147  0.6468
  963MOL0     H29982   2.739  13.650   1.446  1.5120 -0.7295  1.3386
  963MOL0     H29983   2.947  13.863   1.462  0.8635 -2.2635 -0.1140
  963MOL0     H29984   2.891  13.768   1.599 -1.4431 -0.7262 -0.6559
  963MOL0     H29985   2.642  13.876   1.535 -0.2111 -1.2976 -2.1277
  963MOL0     H29986   2.749  13.982   1.451  5.2833 -2.7325 -1.7719
  963MOL0     H29987   3.033  12.890   1.037 -0.7123  2.7549 -2.6990
  963MOL0     H29988   3.176  12.733   0.897  1.5329  0.5031 -1.2984
  963MOL0     H29989   3.364  12.525   0.582 -0.1681 -3.5431 -2.9099
  963MOL0     H29990   3.477  12.339   0.494 -1.4044  1.0648 -0.5491
  963MOL0     H29991   5.290  11.554   0.518  0.9821 -2.3275  0.9315
  963MOL0     H29992   5.435  11.370   0.426 -0.6470 -0.6012 -0.2900
  963MOL0     H29993   5.424  10.981  -0.092 -1.0501  0.9192  1.0228
  963MOL0     H29994   5.634  10.865  -0.178  1.8180  2.5859 -1.8751
  963MOL0     H29995   5.991  11.072  -0.118 -1.4959 -0.0976 -1.1903
  963MOL0     H29996   6.037  10.940   0.001 -0.4868 -1.8326 -0.4252
  963MOL0     H29997   6.067  10.914  -0.306 -1.2797  5.3186  0.9847
  963MOL0     H29998   6.095  10.791  -0.193 -0.0365 -0.8854 -4.9287
  963MOL0     H29999   6.255  10.909  -0.082 -1.5608  0.9742  0.6040
  963MOL0     H30000   6.214  11.071  -0.157  1.6170  0.5197  0.1936
  963MOL0     H30001   6.357  11.032  -0.346 -0.0367  0.1452 -1.5639
  963MOL0     H30002   6.289  10.871  -0.363 -0.9315  0.4962  0.9928
  963MOL0     H30003   6.646  10.774  -0.175 -1.3001 -1.7791  0.1363
  963MOL0     H30004   5.874  11.095   0.083 -0.3961  0.8923  2.7779
  963MOL0     H30005   5.674  11.200   0.176  2.8457  0.0249  0.1535
  964MOL0     O30006   0.772   3.115   1.262  1.6113  0.0851 -0.2175
  964MOL0     C30007   0.743   3.052   1.162  1.1391 -0.0054 -0.0013
  964MOL0     O30008   0.624   3.056   1.102 -0.6113 -0.3475 -0.0214
  964MOL0     C30009   0.521   3.124   1.159 -0.6254 -0.8857  0.7158
  964MOL0     C30010   0.400   3.068   1.194  0.4620 -0.3100 -0.0612
  964MOL0     C30011   0.304   3.146   1.265 -0.3613 -0.2426 -0.0941
  964MOL0     C30012   0.334   3.282   1.296  0.6886  0.6891 -0.3803
  964MOL0     O30013   0.239   3.359   1.360  0.3312  0.2265  0.0507
  964MOL0     C30014   0.103   3.355   1.313  0.2581 -1.0484  0.4026
  964MOL0     C30015   0.013   3.445   1.398 -0.7032  0.1189 -0.1665
  964MOL0     C30016  -0.118   3.476   1.334  0.4368  1.0364 -0.0616
  964MOL0     C30017  -0.213   3.351   1.313 -0.3158 -1.0060  0.3624
  964MOL0     C30018  -0.347   3.405   1.265 -0.2602 -0.3323 -0.1275
  964MOL0     C30019  -0.457   3.307   1.275  0.1835  0.5634  0.1651
  964MOL0     C30020  -0.586   3.386   1.237 -0.1209 -0.5652  0.3102
  964MOL0     C30021  -0.719   3.310   1.240 -0.3103 -0.0461 -0.0146
  964MOL0     N30022  -0.826   3.416   1.240 -0.4827  0.5105 -0.1238
  964MOL0     C30023  -0.942   3.389   1.313  0.3460  0.1283 -0.0898
  964MOL0     C30024  -1.019   3.488   1.278  0.5475  0.0499 -0.6275
  964MOL0     C30025  -1.160   3.514   1.326 -0.2985  0.2025 -0.6193
  964MOL0     C30026  -1.271   3.472   1.243 -0.2876  0.5857  0.8721
  964MOL0     C30027  -1.408   3.531   1.296 -0.0679  0.1530 -0.1208
  964MOL0     C30028  -1.463   3.471   1.427  0.0094  0.0688  0.4070
  964MOL0     O30029  -1.611   3.480   1.402 -0.4043  0.8250 -1.0890
  964MOL0     C30030  -1.665   3.596   1.443 -0.0829 -0.6094  0.2824
  964MOL0     C30031  -1.600   3.707   1.504  0.6458 -0.1699  0.7288
  964MOL0     C30032  -1.677   3.818   1.536  0.3795 -1.1783 -0.7347
  964MOL0     C30033  -1.600   3.916   1.622 -0.3157  0.6149 -0.7372
  964MOL0     C30034  -1.814   3.825   1.501  0.4490  0.9475  0.1484
  964MOL0     C30035  -1.916   3.925   1.556 -0.0974 -0.4705  0.0474
  964MOL0     O30036  -2.034   3.934   1.497  0.1995  0.5124  0.8809
  964MOL0     C30037  -2.130   4.014   1.548  0.3676  0.1688  0.3533
  964MOL0     C30038  -2.133   4.154   1.536  0.5325  0.3111  0.1733
  964MOL0     C30039  -2.240   4.225   1.592 -0.5899 -0.3191  0.3427
  964MOL0     C30040  -2.347   4.159   1.665 -0.7897  1.3758 -1.4765
  964MOL0     O30041  -2.443   4.219   1.737  0.0915 -0.7574 -0.4185
  964MOL0     C30042  -2.500   4.347   1.695  0.7598  0.1148  0.0094
  964MOL0     C30043  -2.640   4.372   1.757 -0.4475  0.3472 -0.6234
  964MOL0     C30044  -2.624   4.397   1.903 -0.4823  0.4904  0.0109
  964MOL0     C30045  -2.751   4.386   1.998 -0.5660 -0.0280 -0.5108
  964MOL0     C30046  -2.839   4.508   1.994  0.4224  0.2003 -0.7475
  964MOL0     C30047  -2.954   4.500   2.099  0.2846  0.7600  0.2400
  964MOL0     C30048  -3.059   4.619   2.088 -0.6535 -0.3048  0.6644
  964MOL0     C30049  -3.171   4.588   2.189 -0.0299 -0.1323 -0.1915
  964MOL0    Cl30050  -3.131   4.674   2.341 -0.0528  0.1957  0.1474
  964MOL0     C30051  -2.352   4.024   1.662  0.4353  0.2051  0.0344
  964MOL0     C30052  -2.242   3.950   1.607  0.3643  0.2492  0.0759
  964MOL0     O30053  -1.882   3.999   1.652  0.1219  0.6652 -0.5546
  964MOL0     C30054  -1.872   3.718   1.421 -0.5573 -0.6335 -1.0132
  964MOL0     C30055  -1.793   3.603   1.397  0.0720  0.1370 -0.3409
  964MOL0     N30056  -0.949   3.558   1.182 -0.3315 -0.9980 -0.2440
  964MOL0     N30057  -0.832   3.513   1.141 -0.5122 -0.4804  0.0574
  964MOL0     C30058   0.451   3.328   1.258  0.1288 -0.8613  0.9206
  964MOL0     C30059   0.545   3.259   1.186  0.6474  0.1573 -0.1741
  964MOL0     C30060   0.844   2.955   1.112 -0.0797 -0.8895 -1.6065
  964MOL0     C30061   0.809   2.870   1.004 -0.6391 -1.3196  0.4553
  964MOL0     C30062   0.899   2.781   0.946  0.0926 -0.3627 -0.0986
  964MOL0     C30063   1.033   2.774   0.997  0.2360  0.1103 -1.0134
  964MOL0     O30064   1.118   2.674   0.956 -0.6032  0.1308 -0.0861
  964MOL0     C30065   1.057   2.563   0.883  0.0486  0.0363 -0.1061
  964MOL0     C30066   1.150   2.444   0.866 -0.0919 -0.2416 -0.4094
  964MOL0     C30067   1.271   2.471   0.778  0.0015  0.6028  0.4988
  964MOL0     C30068   1.350   2.338   0.737 -1.0571 -0.4514  0.0780
  964MOL0     C30069   1.416   2.278   0.863 -0.2748 -0.8922  0.7175
  964MOL0     C30070   1.452   2.236   0.972  0.4215 -0.1673 -0.0364
  964MOL0     C30071   1.054   2.849   1.113  0.3792  0.8887 -0.0386
  964MOL0     C30072   0.965   2.934   1.166 -0.6843  0.3915  0.1307
  964MOL0     H30073   0.376   2.969   1.159 -1.6972 -0.5829  1.9879
  964MOL0     H30074   0.218   3.088   1.297  1.4084 -3.1061 -0.1504
  964MOL0     H30075   0.096   3.386   1.208 -0.5655  3.3703  1.5801
  964MOL0     H30076   0.066   3.252   1.311  1.7035 -1.9475 -6.1718
  964MOL0     H30077   0.003   3.390   1.492 -0.2468 -1.3766 -0.9593
  964MOL0     H30078   0.069   3.535   1.427  0.0331 -0.6287  0.8170
  964MOL0     H30079  -0.165   3.553   1.396  1.9318  2.2772 -0.4102
  964MOL0     H30080  -0.099   3.519   1.236 -0.7224  1.6377 -0.0451
  964MOL0     H30081  -0.169   3.288   1.234 -0.7631 -1.5543  0.5453
  964MOL0     H30082  -0.220   3.295   1.407 -2.6346  0.5776  1.2322
  964MOL0     H30083  -0.372   3.482   1.339  1.0775 -0.5029  0.5304
  964MOL0     H30084  -0.327   3.432   1.161  2.2364 -3.9289 -0.7714
  964MOL0     H30085  -0.443   3.226   1.203  0.4337 -1.3970  2.3448
  964MOL0     H30086  -0.449   3.249   1.367 -1.4959  0.5291  0.3249
  964MOL0     H30087  -0.608   3.473   1.299  0.4228 -0.2633  0.0924
  964MOL0     H30088  -0.571   3.430   1.137  3.3884 -2.1025  0.0125
  964MOL0     H30089  -0.721   3.249   1.331  1.2184  1.8947  1.4065
  964MOL0     H30090  -0.723   3.240   1.156  2.9334 -0.4222  0.0197
  964MOL0     H30091  -0.981   3.317   1.384  0.8557  0.8093  0.9107
  964MOL0     H30092  -1.182   3.469   1.423 -0.5945 -1.5518 -1.4713
  964MOL0     H30093  -1.166   3.623   1.341 -3.5149  0.2607 -1.6171
  964MOL0     H30094  -1.276   3.363   1.243  1.4674  0.4582  1.9133
  964MOL0     H30095  -1.242   3.509   1.144  0.2718 -1.3710  0.2665
  964MOL0     H30096  -1.488   3.522   1.222  2.4691  0.9250 -3.1783
  964MOL0     H30097  -1.397   3.638   1.313  2.6495  0.1004 -1.1437
  964MOL0     H30098  -1.434   3.522   1.520 -0.4700  0.9002  0.1120
  964MOL0     H30099  -1.432   3.366   1.437  1.7191  0.5199  0.1951
  964MOL0     H30100  -1.495   3.705   1.531  1.6458  0.5106 -2.6334
  964MOL0     H30101  -1.495   3.886   1.633 -0.4272  0.1541 -0.9312
  964MOL0     H30102  -1.597   4.013   1.572  3.6926  2.1393  1.9387
  964MOL0     H30103  -1.647   3.933   1.720 -1.2364 -2.3427 -0.5594
  964MOL0     H30104  -2.043   4.208   1.510  0.9047 -0.0360  0.7266
  964MOL0     H30105  -2.253   4.332   1.603  1.4207 -0.2422  3.1677
  964MOL0     H30106  -2.443   4.434   1.729  1.2709 -0.1600 -0.1273
  964MOL0     H30107  -2.532   4.343   1.590 -3.4567  1.3908  1.0431
  964MOL0     H30108  -2.686   4.457   1.705 -1.8210  0.3205  0.4939
  964MOL0     H30109  -2.706   4.286   1.749 -0.7281  0.3859  1.0495
  964MOL0     H30110  -2.583   4.498   1.906 -0.8111  0.6529 -0.6956
  964MOL0     H30111  -2.542   4.335   1.938 -1.4929 -0.7969  0.1941
  964MOL0     H30112  -2.818   4.300   1.991  0.6559 -1.4862  3.2687
  964MOL0     H30113  -2.707   4.386   2.098 -0.7328  4.2053 -0.2837
  964MOL0     H30114  -2.873   4.532   1.893  1.2645 -2.0383 -1.6256
  964MOL0     H30115  -2.776   4.593   2.022  0.0790 -0.1500  1.2208
  964MOL0     H30116  -3.009   4.408   2.077 -0.6790  1.2300  0.6336
  964MOL0     H30117  -2.907   4.498   2.198  2.2698  3.2556 -0.5687
  964MOL0     H30118  -3.103   4.628   1.988 -2.1100  1.4078  1.4068
  964MOL0     H30119  -3.017   4.714   2.121  1.2566 -0.7503 -0.3702
  964MOL0     H30120  -3.185   4.480   2.195 -0.7997 -0.3240 -3.3500
  964MOL0     H30121  -3.250   4.648   2.142  0.8075  2.0292  1.0037
  964MOL0     H30122  -2.444   3.977   1.697 -0.1752  1.1405 -0.2810
  964MOL0     H30123  -2.247   3.842   1.617 -2.6088  0.4416  1.7104
  964MOL0     H30124  -1.976   3.725   1.390 -1.1847  1.8179  1.2850
  964MOL0     H30125  -1.840   3.518   1.348  1.9276 -1.7937  1.0484
  964MOL0     H30126   0.485   3.425   1.292 -0.3338  1.0302 -3.4199
  964MOL0     H30127   0.632   3.319   1.159  1.1188  0.6549  2.2707
  964MOL0     H30128   0.710   2.870   0.960  0.3609 -0.9492 -1.9471
  964MOL0     H30129   0.864   2.711   0.871 -1.0991  1.1946 -1.0508
  964MOL0     H30130   0.964   2.528   0.927  0.8008  0.2363  1.7163
  964MOL0     H30131   1.023   2.602   0.786 -0.7676  0.0879  0.1950
  964MOL0     H30132   1.086   2.360   0.837 -0.5280 -1.1553  2.8717
  964MOL0     H30133   1.178   2.414   0.967 -1.3511 -2.8202 -0.7485
  964MOL0     H30134   1.341   2.536   0.831  0.1693  1.5512 -0.8348
  964MOL0     H30135   1.250   2.524   0.685 -0.2529 -0.7679 -0.2509
  964MOL0     H30136   1.426   2.366   0.664 -0.6681 -1.7509 -0.0471
  964MOL0     H30137   1.274   2.274   0.691 -2.1011  1.4473 -0.9700
  964MOL0     H30138   1.498   2.202   1.062 -0.3656 -2.1091 -0.3218
  964MOL0     H30139   1.147   2.833   1.166  1.6622 -0.7482 -2.5785
  964MOL0     H30140   1.000   2.961   1.265  2.0674  1.1710 -0.9507
  965MOL0     O30141  10.298   1.734   5.318 -0.2663  0.3838  0.6798
  965MOL0     C30142  10.298   1.736   5.196 -0.0439 -1.0644 -0.4201
  965MOL0     O30143  10.391   1.686   5.113 -0.1759  0.2324 -0.3991
  965MOL0     C30144  10.507   1.646   5.163 -0.2285  0.4576 -0.1857
  965MOL0     C30145  10.527   1.524   5.224 -0.0396  0.0442  0.0040
  965MOL0     C30146  10.653   1.485   5.272 -0.0905 -0.0983  0.9691
  965MOL0     C30147  10.769   1.561   5.251  1.2188 -0.5960  0.0591
  965MOL0     O30148  10.893   1.529   5.298  0.2446  0.6912  0.4883
  965MOL0     C30149  10.920   1.389   5.297 -0.2033  0.4613  0.0213
  965MOL0     C30150  11.065   1.374   5.347  1.2551 -0.1844 -0.7337
  965MOL0     C30151  11.168   1.415   5.251 -0.4464  0.2520  0.4538
  965MOL0     C30152  11.214   1.294   5.163  0.0737  0.1426 -0.4667
  965MOL0     C30153  11.312   1.342   5.054 -0.3353 -0.1709 -0.0279
  965MOL0     C30154  11.446   1.358   5.119 -0.6113  0.1349 -0.2836
  965MOL0     C30155  11.561   1.394   5.025 -0.3817 -0.4496 -0.4086
  965MOL0     C30156  11.685   1.444   5.101  0.3146  0.4463 -0.0461
  965MOL0     N30157  11.797   1.463   5.016  0.3038  0.0706  0.0947
  965MOL0     C30158  11.892   1.373   4.987  0.1239  0.1366  0.8617
  965MOL0     C30159  11.956   1.427   4.876 -0.0078  1.0083  0.2306
  965MOL0     C30160  12.075   1.380   4.791  0.1322  0.8134 -0.2815
  965MOL0     C30161  12.093   1.220   4.779  0.9689 -0.2646  0.0195
  965MOL0     C30162  12.160   1.197   4.645 -0.3548 -0.2293  0.1467
  965MOL0     C30163  12.061   1.209   4.532  0.7367 -0.4746  0.3089
  965MOL0     O30164  11.973   1.090   4.538 -0.2901  0.5830 -0.1625
  965MOL0     C30165  11.838   1.109   4.558 -0.1535  0.1498 -0.0484
  965MOL0     C30166  11.772   1.226   4.606 -0.2624  0.0098  0.6657
  965MOL0     C30167  11.641   1.242   4.612  0.8438 -0.4737 -0.4525
  965MOL0     C30168  11.581   1.378   4.660 -0.0198  0.1664  0.1045
  965MOL0     C30169  11.559   1.127   4.598  0.2554  0.1131 -0.2970
  965MOL0     C30170  11.413   1.123   4.606  0.5627 -0.3244  0.1655
  965MOL0     O30171  11.350   1.238   4.617  0.3068 -0.3519 -0.2044
  965MOL0     C30172  11.216   1.245   4.571  0.7433  0.5273 -0.5823
  965MOL0     C30173  11.169   1.193   4.446 -0.4086  0.2174 -0.0660
  965MOL0     C30174  11.035   1.219   4.406  0.1017  0.0588 -0.2465
  965MOL0     C30175  10.947   1.293   4.487  0.1266 -0.5680  0.1377
  965MOL0     O30176  10.816   1.321   4.456 -0.7123 -0.2856  0.4702
  965MOL0     C30177  10.706   1.292   4.539 -0.2312  0.1036  0.1462
  965MOL0     C30178  10.624   1.178   4.480 -0.4395  0.4660 -0.4524
  965MOL0     C30179  10.692   1.037   4.456  0.4242  0.0545 -0.5178
  965MOL0     C30180  10.746   0.976   4.594  0.0887  0.4002 -0.2189
  965MOL0     C30181  10.814   0.844   4.575 -0.7559 -0.0275  0.1765
  965MOL0     C30182  10.879   0.798   4.715 -0.0196 -1.1188 -0.2577
  965MOL0     C30183  11.000   0.712   4.704 -1.1839  0.1194  1.7379
  965MOL0     C30184  11.129   0.807   4.700 -0.3847  1.5173 -0.6857
  965MOL0    Cl30185  11.279   0.694   4.693 -0.4557  0.1606 -0.2878
  965MOL0     C30186  10.989   1.338   4.608 -0.2501 -0.7326  0.0653
  965MOL0     C30187  11.120   1.314   4.655  0.3104  1.2418  0.5260
  965MOL0     O30188  11.359   1.018   4.603 -0.1243  0.3574 -0.9759
  965MOL0     C30189  11.621   1.005   4.555 -0.7941  0.4162  0.5476
  965MOL0     C30190  11.758   0.995   4.536 -0.3060 -0.0404 -0.3899
  965MOL0     N30191  11.900   1.550   4.848  0.3054  0.6236  0.2484
  965MOL0     N30192  11.802   1.570   4.930  0.2769 -0.1522  0.3049
  965MOL0     C30193  10.752   1.682   5.185 -0.4220  0.2920  0.6898
  965MOL0     C30194  10.622   1.727   5.144  0.0400 -0.2974 -0.0575
  965MOL0     C30195  10.179   1.795   5.138 -0.4827  0.0132 -0.2242
  965MOL0     C30196  10.092   1.873   5.205  0.5602  0.8543 -0.7101
  965MOL0     C30197   9.965   1.909   5.154 -0.1430  0.6763  0.3968
  965MOL0     C30198   9.917   1.866   5.035  0.1698  0.1816  1.0493
  965MOL0     O30199   9.804   1.910   4.966  0.2691 -1.1616  0.3151
  965MOL0     C30200   9.762   2.048   4.997  0.6799 -0.5224 -0.2811
  965MOL0     C30201   9.628   2.086   4.925 -0.2564 -0.4404  0.4038
  965MOL0     C30202   9.519   1.984   4.930  0.0508  0.0339 -0.3648
  965MOL0     C30203   9.395   2.030   4.857  0.1580  0.3691 -0.2201
  965MOL0     C30204   9.315   2.137   4.918 -0.2155  0.2221 -0.8733
  965MOL0     C30205   9.250   2.225   4.981 -0.4535 -0.6040 -0.3776
  965MOL0     C30206  10.003   1.791   4.958  0.1557  0.7938 -0.0005
  965MOL0     C30207  10.135   1.761   5.003 -0.1156 -0.4131 -0.5530
  965MOL0     H30208  10.453   1.446   5.236 -0.4254  0.5194  0.8019
  965MOL0     H30209  10.648   1.383   5.309 -0.7225  0.5195  2.6875
  965MOL0     H30210  10.851   1.334   5.362  0.6618 -0.3012  0.3158
  965MOL0     H30211  10.902   1.335   5.203  0.1945 -2.4073  1.4797
  965MOL0     H30212  11.084   1.441   5.431  4.9271 -0.0372 -1.5351
  965MOL0     H30213  11.085   1.270   5.372  0.0209 -0.8843 -2.5154
  965MOL0     H30214  11.130   1.502   5.197  2.3885  0.5150 -1.3152
  965MOL0     H30215  11.245   1.464   5.312 -2.5407  3.1874  1.0010
  965MOL0     H30216  11.277   1.235   5.231 -0.3151  3.3609  2.9966
  965MOL0     H30217  11.118   1.252   5.131 -0.9573  2.6463 -0.8924
  965MOL0     H30218  11.323   1.284   4.963  3.0920  2.2780 -1.3721
  965MOL0     H30219  11.276   1.443   5.029  0.1247  0.1320  0.5043
  965MOL0     H30220  11.433   1.434   5.196 -2.4504 -1.5781  1.2135
  965MOL0     H30221  11.471   1.263   5.167 -0.1202 -0.0852 -0.9509
  965MOL0     H30222  11.585   1.309   4.961 -1.0546 -4.1909  3.7733
  965MOL0     H30223  11.523   1.467   4.953  1.4636 -0.6296 -1.6144
  965MOL0     H30224  11.713   1.373   5.179 -0.2100  2.1076  1.7470
  965MOL0     H30225  11.664   1.537   5.155  0.0404  1.2790 -1.5410
  965MOL0     H30226  11.906   1.279   5.040  2.0415 -0.8673 -1.2427
  965MOL0     H30227  12.059   1.430   4.695 -1.3765  0.6407 -0.1467
  965MOL0     H30228  12.175   1.418   4.812 -0.5902  2.6727 -0.0237
  965MOL0     H30229  11.993   1.177   4.779  1.9416 -2.7192 -0.8563
  965MOL0     H30230  12.150   1.184   4.865  0.0433 -1.0346  0.3364
  965MOL0     H30231  12.202   1.096   4.645  3.6113  1.1722 -1.7110
  965MOL0     H30232  12.240   1.269   4.622  1.0594 -1.7758  0.0164
  965MOL0     H30233  12.109   1.211   4.434  4.2079  3.2433  1.7940
  965MOL0     H30234  12.004   1.302   4.537  2.3164  0.4587  2.1322
  965MOL0     H30235  11.829   1.315   4.628  0.0427 -0.1427  0.4999
  965MOL0     H30236  11.537   1.368   4.760  0.5761 -4.6324  0.1256
  965MOL0     H30237  11.660   1.454   4.655  1.0432 -0.9126  0.0975
  965MOL0     H30238  11.503   1.407   4.589 -0.7668 -0.9614  0.4398
  965MOL0     H30239  11.234   1.131   4.385 -1.9560 -1.0615 -0.5092
  965MOL0     H30240  11.006   1.171   4.313  1.8108 -0.9469 -0.2927
  965MOL0     H30241  10.740   1.274   4.642 -0.5602  1.2760  0.4742
  965MOL0     H30242  10.643   1.380   4.550 -0.7355 -0.4627  2.3854
  965MOL0     H30243  10.541   1.163   4.551  0.5499 -1.3218  0.4017
  965MOL0     H30244  10.573   1.202   4.387 -0.7923 -2.6283 -1.1591
  965MOL0     H30245  10.772   1.068   4.388 -0.5870 -0.2581 -1.8998
  965MOL0     H30246  10.624   0.966   4.408  0.6847 -0.0322 -0.7610
  965MOL0     H30247  10.808   1.047   4.649 -1.8709  1.2079  1.0990
  965MOL0     H30248  10.660   0.962   4.661  0.6992  0.6394  0.6378
  965MOL0     H30249  10.893   0.851   4.500 -0.5289 -0.2370  0.3912
  965MOL0     H30250  10.741   0.774   4.535  0.4823 -3.0987  2.8159
  965MOL0     H30251  10.906   0.884   4.777  4.7481 -0.8328 -2.2893
  965MOL0     H30252  10.799   0.741   4.763 -0.4523 -1.4513 -1.3288
  965MOL0     H30253  11.008   0.649   4.614  1.1060  0.7536  1.4123
  965MOL0     H30254  10.987   0.645   4.789 -3.4967 -1.2350  0.3907
  965MOL0     H30255  11.112   0.868   4.788 -1.8375  0.8737 -0.4913
  965MOL0     H30256  11.120   0.859   4.604 -2.3223 -1.7864 -2.5192
  965MOL0     H30257  10.932   1.413   4.662  5.1758  1.3093  3.7402
  965MOL0     H30258  11.139   1.360   4.751 -0.3026  3.4133 -0.3190
  965MOL0     H30259  11.560   0.917   4.536 -0.8505  0.2101  1.6137
  965MOL0     H30260  11.813   0.911   4.495  2.6613  1.6189 -0.1539
  965MOL0     H30261  10.839   1.745   5.171  0.0245 -0.3881  0.3650
  965MOL0     H30262  10.607   1.825   5.100 -0.0998 -0.7126 -0.9567
  965MOL0     H30263  10.132   1.896   5.303  1.4249  1.6143 -1.2274
  965MOL0     H30264   9.906   1.976   5.216  2.3344  3.2014  0.2271
  965MOL0     H30265   9.739   2.051   5.104 -1.2554 -1.3204 -0.6436
  965MOL0     H30266   9.842   2.119   4.972 -1.0484  1.4532 -0.4565
  965MOL0     H30267   9.646   2.108   4.820 -0.9321 -0.1143  0.3535
  965MOL0     H30268   9.586   2.180   4.963 -0.2789 -0.2658 -0.0554
  965MOL0     H30269   9.489   1.979   5.035  1.5623  3.8241  0.4149
  965MOL0     H30270   9.557   1.899   4.873 -0.0672  0.4549 -1.0791
  965MOL0     H30271   9.336   1.940   4.842  2.5499 -1.0294 -1.9837
  965MOL0     H30272   9.430   2.060   4.757  0.4886 -0.8174 -0.4778
  965MOL0     H30273   9.190   2.303   5.023  1.1205  0.9551 -0.9482
  965MOL0     H30274   9.966   1.773   4.857  1.6674  1.7300 -0.7731
  965MOL0     H30275  10.208   1.698   4.952  0.4020 -0.8631  0.7050
  966MOL0     O30276   5.289  10.590   0.867 -0.8218 -0.1586  0.1924
  966MOL0     C30277   5.245  10.694   0.812 -0.3542  0.7041  0.0575
  966MOL0     O30278   5.312  10.798   0.767 -0.9198 -0.1599  0.4288
  966MOL0     C30279   5.439  10.784   0.718 -0.2689  0.6317 -0.6503
  966MOL0     C30280   5.483  10.674   0.645  0.0612  0.6029  0.1036
  966MOL0     C30281   5.602  10.672   0.582 -0.4750 -0.2639  0.2133
  966MOL0     C30282   5.686  10.785   0.594  0.4053 -0.0580 -0.6911
  966MOL0     O30283   5.816  10.784   0.539 -0.3015  0.5352 -0.0133
  966MOL0     C30284   5.814  10.877   0.427  0.0552 -0.9544 -0.5473
  966MOL0     C30285   5.950  10.865   0.354  0.1749  0.7109  1.0634
  966MOL0     C30286   5.980  10.721   0.298  0.0489 -0.3056 -0.9338
  966MOL0     C30287   5.872  10.668   0.195 -0.8191 -0.1765  0.1045
  966MOL0     C30288   5.906  10.521   0.155  0.1634 -0.4429  0.2500
  966MOL0     C30289   5.774  10.454   0.105 -1.0011  0.3812 -0.5779
  966MOL0     C30290   5.783  10.327   0.028  0.1585  0.9317 -0.1258
  966MOL0     C30291   5.862  10.349  -0.106 -0.4247 -0.1324 -0.5551
  966MOL0     N30292   5.797  10.441  -0.199 -0.4429  0.0924 -0.1906
  966MOL0     C30293   5.848  10.567  -0.227  0.2173 -0.2758  0.2943
  966MOL0     C30294   5.774  10.600  -0.333 -0.3925 -0.0456  0.0888
  966MOL0     C30295   5.803  10.723  -0.418  0.6753 -0.1071  0.8505
  966MOL0     C30296   5.860  10.680  -0.555  0.6652 -0.0209 -0.0464
  966MOL0     C30297   5.943  10.811  -0.627  0.5567  0.4806  0.8795
  966MOL0     C30298   6.016  10.763  -0.749 -1.0243 -0.6395  0.4133
  966MOL0     O30299   6.064  10.875  -0.813 -0.2765 -0.0339 -0.2538
  966MOL0     C30300   6.196  10.911  -0.776 -0.2177  0.1273  0.0555
  966MOL0     C30301   6.313  10.832  -0.799  0.3126 -0.5616 -0.3813
  966MOL0     C30302   6.443  10.885  -0.766 -0.3183  0.2829  0.0137
  966MOL0     C30303   6.566  10.804  -0.819 -0.8123 -0.0058 -0.6932
  966MOL0     C30304   6.452  11.006  -0.700  0.6655  0.1313  0.1923
  966MOL0     C30305   6.572  11.080  -0.673  0.1661 -0.3144  0.2432
  966MOL0     O30306   6.689  11.021  -0.691  0.3792  0.0941 -0.4802
  966MOL0     C30307   6.816  11.074  -0.677 -0.2504  0.0179 -0.1684
  966MOL0     C30308   6.838  11.211  -0.682  0.7740  1.3529  0.0724
  966MOL0     C30309   6.967  11.272  -0.676 -0.3871 -0.5441 -0.2018
  966MOL0     C30310   7.079  11.196  -0.672  0.2319 -0.1256  0.7603
  966MOL0     O30311   7.204  11.256  -0.656  0.5307  1.0824  0.1918
  966MOL0     C30312   7.215  11.346  -0.549 -0.1943 -0.7300  0.1604
  966MOL0     C30313   7.359  11.352  -0.496 -0.2377  0.6388 -0.6548
  966MOL0     C30314   7.355  11.385  -0.350 -0.1059  0.4846  0.2247
  966MOL0     C30315   7.494  11.447  -0.306  0.2289 -0.5245 -0.8019
  966MOL0     C30316   7.486  11.594  -0.278 -0.3655 -0.3414 -0.8204
  966MOL0     C30317   7.621  11.639  -0.223  0.2570 -0.1441  0.2116
  966MOL0     C30318   7.658  11.775  -0.293  0.0966 -0.1009  0.1358
  966MOL0     C30319   7.784  11.832  -0.228  0.0331  0.6089  0.1281
  966MOL0    Cl30320   7.823  11.990  -0.296 -0.2762  0.2798  0.1620
  966MOL0     C30321   7.058  11.059  -0.662  0.3530 -0.0819 -0.4984
  966MOL0     C30322   6.933  11.000  -0.664  0.3002  0.5190 -0.6378
  966MOL0     O30323   6.557  11.189  -0.615 -0.2868  0.0072 -0.0809
  966MOL0     C30324   6.329  11.081  -0.678  0.5162  0.4117 -0.9205
  966MOL0     C30325   6.203  11.034  -0.713  0.5731  0.9198  0.7364
  966MOL0     N30326   5.687  10.502  -0.365 -0.5306 -0.8572  0.7863
  966MOL0     N30327   5.701  10.404  -0.284  0.5647 -0.1574  0.1116
  966MOL0     C30328   5.650  10.888   0.665  0.0942 -0.3618 -0.0248
  966MOL0     C30329   5.522  10.895   0.727 -0.5525 -0.0456  0.5849
  966MOL0     C30330   5.092  10.721   0.823  0.3246 -0.2662 -0.0308
  966MOL0     C30331   5.046  10.858   0.809 -0.4866 -0.6956  0.4516
  966MOL0     C30332   4.912  10.887   0.837 -0.0741  0.4079  0.6988
  966MOL0     C30333   4.823  10.792   0.881  0.1287  0.0694  0.0233
  966MOL0     O30334   4.695  10.823   0.904  0.4743 -0.1163  0.1774
  966MOL0     C30335   4.598  10.721   0.937 -0.0769 -0.4225  0.5779
  966MOL0     C30336   4.471  10.789   0.977  0.2029 -0.5422 -0.0221
  966MOL0     C30337   4.482  10.859   1.108  0.1071 -0.3523  0.6106
  966MOL0     C30338   4.341  10.890   1.162  0.4757  0.0450  1.0081
  966MOL0     C30339   4.338  10.990   1.259 -0.1527 -0.4293  0.7168
  966MOL0     C30340   4.328  11.082   1.343 -0.2691 -0.6265  0.1492
  966MOL0     C30341   4.870  10.658   0.898  0.0384  0.1180  0.8340
  966MOL0     C30342   5.000  10.623   0.872 -0.7360 -0.4672  0.1615
  966MOL0     H30343   5.426  10.583   0.630  2.0865 -0.5094 -1.3483
  966MOL0     H30344   5.625  10.594   0.510 -3.6923  0.6815 -2.0899
  966MOL0     H30345   5.732  10.876   0.355  0.3068  3.0425 -1.1065
  966MOL0     H30346   5.810  10.979   0.467 -2.2540 -0.3235 -2.2178
  966MOL0     H30347   5.943  10.924   0.262 -3.9527 -3.3822 -1.7061
  966MOL0     H30348   6.031  10.891   0.422 -0.4570 -0.7215  2.4279
  966MOL0     H30349   6.077  10.715   0.249  0.7187  1.8375 -0.0202
  966MOL0     H30350   5.985  10.653   0.383 -1.7222  0.9605  0.2839
  966MOL0     H30351   5.773  10.665   0.240 -0.5824 -2.0224  0.6245
  966MOL0     H30352   5.870  10.727   0.104 -1.1761  1.8233  1.3515
  966MOL0     H30353   5.968  10.532   0.066 -0.4258  1.7237  0.0445
  966MOL0     H30354   5.961  10.465   0.232  0.0662 -0.0008  0.6451
  966MOL0     H30355   5.726  10.423   0.198 -0.4970  1.1599 -0.0498
  966MOL0     H30356   5.711  10.523   0.048 -0.1654  1.2310 -0.4817
  966MOL0     H30357   5.830  10.244   0.082  0.9050  0.2859 -1.6811
  966MOL0     H30358   5.681  10.302  -0.002  0.2053 -1.2440  1.3169
  966MOL0     H30359   5.862  10.265  -0.176 -0.5911  1.6217 -2.7619
  966MOL0     H30360   5.965  10.367  -0.074 -0.3809 -2.2283  0.7057
  966MOL0     H30361   5.937  10.607  -0.181  0.3087 -0.7858  0.5659
  966MOL0     H30362   5.704  10.769  -0.420 -0.5503 -2.5589  1.2742
  966MOL0     H30363   5.864  10.802  -0.373 -2.2305  3.5624 -1.1056
  966MOL0     H30364   5.780  10.648  -0.622  2.4453 -1.3433 -1.6098
  966MOL0     H30365   5.941  10.607  -0.558 -1.6504 -2.7244 -2.4261
  966MOL0     H30366   6.015  10.855  -0.558  1.6991 -0.9730  0.6591
  966MOL0     H30367   5.867  10.884  -0.658  0.6729  1.4081  2.6343
  966MOL0     H30368   5.952  10.708  -0.819 -0.5081  0.1087 -0.6593
  966MOL0     H30369   6.093  10.693  -0.716 -1.2218  0.0444  2.4230
  966MOL0     H30370   6.303  10.737  -0.851 -3.2547  0.7544 -2.4678
  966MOL0     H30371   6.608  10.756  -0.730 -2.2238  0.8800  0.4954
  966MOL0     H30372   6.538  10.731  -0.896 -2.3431  0.4877 -0.6511
  966MOL0     H30373   6.639  10.870  -0.867 -0.6824  1.0924  0.9523
  966MOL0     H30374   6.756  11.281  -0.700 -0.8261  0.1507  2.1841
  966MOL0     H30375   6.984  11.379  -0.670  2.4912 -0.7152 -2.6867
  966MOL0     H30376   7.190  11.448  -0.580  0.4144 -0.6328 -0.0255
  966MOL0     H30377   7.150  11.317  -0.465 -0.4910  1.2455  0.6647
  966MOL0     H30378   7.408  11.256  -0.515 -1.2085  0.0757 -0.4077
  966MOL0     H30379   7.425  11.421  -0.549 -0.0307  0.4971 -0.5772
  966MOL0     H30380   7.350  11.292  -0.292  0.4989  0.6902  0.6092
  966MOL0     H30381   7.292  11.471  -0.329  3.8789  3.2936  1.9212
  966MOL0     H30382   7.525  11.393  -0.216 -2.8276  1.2814  1.4950
  966MOL0     H30383   7.571  11.429  -0.382 -0.1013 -3.7610 -0.5267
  966MOL0     H30384   7.424  11.611  -0.189  1.2990  1.7730  0.0108
  966MOL0     H30385   7.438  11.647  -0.361 -2.2079 -1.5330 -0.5888
  966MOL0     H30386   7.632  11.637  -0.114  1.8257  2.9158  0.2225
  966MOL0     H30387   7.697  11.574  -0.267 -0.3803  1.3736 -3.4967
  966MOL0     H30388   7.588  11.858  -0.277  1.8359  1.1340  1.7800
  966MOL0     H30389   7.673  11.759  -0.400 -0.5943 -1.1663  0.1853
  966MOL0     H30390   7.866  11.760  -0.235  0.5852  1.3147 -1.0170
  966MOL0     H30391   7.759  11.838  -0.122  1.1329 -3.8068  0.8019
  966MOL0     H30392   7.146  10.995  -0.672  1.5803  1.5853 -0.7059
  966MOL0     H30393   6.936  10.892  -0.668  1.3146  0.5264 -0.2514
  966MOL0     H30394   6.330  11.180  -0.633  0.8056 -0.3819  0.8719
  966MOL0     H30395   6.109  11.082  -0.688 -2.6249 -3.2958 -1.8756
  966MOL0     H30396   5.708  10.979   0.656 -1.8055  0.6898 -5.9936
  966MOL0     H30397   5.489  10.987   0.773  0.9869  0.0611  1.5393
  966MOL0     H30398   5.118  10.937   0.788 -1.5846  0.8800  2.2482
  966MOL0     H30399   4.880  10.988   0.815 -0.6080  0.0315 -0.3753
  966MOL0     H30400   4.600  10.657   0.849  1.5209  1.0276 -0.5095
  966MOL0     H30401   4.645  10.666   1.019  2.4753 -1.7206 -1.6083
  966MOL0     H30402   4.397  10.709   0.981 -2.0225  1.4797  1.1117
  966MOL0     H30403   4.434  10.855   0.898 -1.2571  0.3538  1.3711
  966MOL0     H30404   4.532  10.955   1.092  1.0237 -0.4256  2.6619
  966MOL0     H30405   4.537  10.797   1.179 -0.5788 -2.0647 -0.2904
  966MOL0     H30406   4.292  10.799   1.198 -0.7529  1.9785  4.8230
  966MOL0     H30407   4.281  10.931   1.081  1.3839  1.8405  1.1846
  966MOL0     H30408   4.331  11.169   1.406  3.0571 -0.5723  0.0760
  966MOL0     H30409   4.809  10.573   0.928 -1.5944  1.0413  0.2830
  966MOL0     H30410   5.027  10.518   0.878 -1.2229 -0.5280  2.1092
  967MOL0     O30411   9.818   9.046   7.662 -0.0587 -0.0744 -0.6778
  967MOL0     C30412   9.872   9.066   7.767  0.9811  0.0537  0.2133
  967MOL0     O30413   9.836   9.012   7.890 -0.0603  0.7915  0.4546
  967MOL0     C30414   9.749   8.908   7.889  0.5245  0.7044  0.6410
  967MOL0     C30415   9.798   8.780   7.879  0.0468 -0.7031 -0.1310
  967MOL0     C30416   9.712   8.671   7.894  0.9382 -0.3615 -0.3438
  967MOL0     C30417   9.576   8.691   7.900  0.5070  0.4864  0.3794
  967MOL0     O30418   9.480   8.592   7.910  0.5314  0.4574  0.1165
  967MOL0     C30419   9.519   8.449   7.915  0.6695 -0.9275 -0.0130
  967MOL0     C30420   9.428   8.352   7.970  0.0173 -0.3088  1.3920
  967MOL0     C30421   9.315   8.322   7.872 -0.6034 -0.0730 -0.3315
  967MOL0     C30422   9.239   8.447   7.816  0.1151 -0.1688  0.0870
  967MOL0     C30423   9.124   8.383   7.738  0.8080 -0.8680 -0.1879
  967MOL0     C30424   9.004   8.331   7.822  0.1503 -0.5653  0.0014
  967MOL0     C30425   8.877   8.351   7.742  0.5850  0.1292  0.3120
  967MOL0     C30426   8.764   8.287   7.830 -0.7400 -0.2673 -0.9623
  967MOL0     N30427   8.634   8.280   7.775  0.6117 -0.5669  0.8170
  967MOL0     C30428   8.577   8.395   7.711 -0.0766  0.5567 -1.0397
  967MOL0     C30429   8.458   8.354   7.661 -0.7667 -0.3752  0.0556
  967MOL0     C30430   8.363   8.448   7.583 -0.4366  0.8146 -1.0733
  967MOL0     C30431   8.360   8.425   7.436 -0.9473  0.5552 -0.2075
  967MOL0     C30432   8.256   8.512   7.359  0.2227  0.3934 -0.3081
  967MOL0     C30433   8.242   8.476   7.220 -0.3852  0.2323  0.0488
  967MOL0     O30434   8.180   8.586   7.157 -0.2470  0.0279 -0.2719
  967MOL0     C30435   8.143   8.572   7.026  0.2844  1.1097 -0.4699
  967MOL0     C30436   8.090   8.681   6.959 -0.7950 -0.1520  0.1175
  967MOL0     C30437   8.055   8.672   6.821  0.5038  0.2984  1.1818
  967MOL0     C30438   8.032   8.806   6.749 -0.0240  0.0212 -0.0517
  967MOL0     C30439   8.032   8.546   6.751  0.0988  0.3559 -0.6095
  967MOL0     C30440   7.961   8.522   6.621  0.8544  0.0220  0.8112
  967MOL0     O30441   7.951   8.392   6.582  0.4825 -0.4257  0.9756
  967MOL0     C30442   7.891   8.358   6.466 -0.2823  0.2707  0.7069
  967MOL0     C30443   7.912   8.423   6.344 -0.0943 -0.5513  0.1177
  967MOL0     C30444   7.849   8.396   6.227  0.6024 -1.3270 -0.1772
  967MOL0     C30445   7.760   8.289   6.220  0.3417 -0.2409 -0.3225
  967MOL0     O30446   7.687   8.258   6.111 -0.1167 -0.0737 -0.1696
  967MOL0     C30447   7.746   8.138   6.062  0.3563  0.1534  0.2808
  967MOL0     C30448   7.642   8.054   5.987  0.4242 -0.0583 -0.5999
  967MOL0     C30449   7.520   8.025   6.086 -0.0042 -0.4033 -0.7204
  967MOL0     C30450   7.406   7.974   6.005 -0.0200 -0.4599 -0.0677
  967MOL0     C30451   7.307   7.919   6.097  0.3076  0.6295  1.1498
  967MOL0     C30452   7.203   7.845   6.010 -0.1247  0.3984 -0.2272
  967MOL0     C30453   7.105   7.762   6.101 -0.3371  0.0440 -0.1385
  967MOL0     C30454   7.013   7.670   6.006  0.1973 -0.9942  0.1142
  967MOL0    Cl30455   6.913   7.553   6.090 -0.4501  0.4992  0.1029
  967MOL0     C30456   7.739   8.216   6.342  0.3461  0.2079 -0.1599
  967MOL0     C30457   7.800   8.253   6.468  0.2349 -0.1314  0.0495
  967MOL0     O30458   7.891   8.619   6.576  0.2240 -0.3299  0.0168
  967MOL0     C30459   8.072   8.429   6.828  0.5582  0.0610 -0.2661
  967MOL0     C30460   8.122   8.441   6.967  0.3900  0.6354  0.7530
  967MOL0     N30461   8.446   8.218   7.686  0.7717  0.3264  0.3016
  967MOL0     N30462   8.550   8.175   7.751  0.3856  1.3338 -0.6661
  967MOL0     C30463   9.526   8.824   7.904 -0.1826  0.2833  0.2186
  967MOL0     C30464   9.607   8.938   7.904 -0.7714  0.9210  0.1665
  967MOL0     C30465   9.994   9.137   7.764 -0.9558 -0.0909  0.6291
  967MOL0     C30466  10.077   9.163   7.881 -0.4222  0.6275  0.1782
  967MOL0     C30467  10.201   9.221   7.878  0.1250  0.7046 -0.5228
  967MOL0     C30468  10.253   9.266   7.759  0.6508 -0.1747 -1.0424
  967MOL0     O30469  10.371   9.323   7.763  0.6132 -0.0652  0.0952
  967MOL0     C30470  10.415   9.408   7.656  0.7916 -0.6850  0.3722
  967MOL0     C30471  10.557   9.446   7.692 -0.3997 -0.3941  0.1772
  967MOL0     C30472  10.668   9.484   7.582  1.0882 -0.4607 -0.1409
  967MOL0     C30473  10.670   9.390   7.465 -1.0764 -0.0241  1.0446
  967MOL0     C30474  10.672   9.454   7.331  0.7125  1.0312  0.2899
  967MOL0     C30475  10.666   9.494   7.216 -1.7311  0.4110  0.4743
  967MOL0     C30476  10.179   9.247   7.643  0.7720 -0.1380 -0.7289
  967MOL0     C30477  10.053   9.186   7.645  1.4536 -0.0580 -0.9218
  967MOL0     H30478   9.904   8.768   7.857  0.3677  0.8140  0.4987
  967MOL0     H30479   9.761   8.576   7.912 -1.4640 -1.3959  1.2799
  967MOL0     H30480   9.551   8.402   7.822  0.9610 -2.1145  0.6610
  967MOL0     H30481   9.599   8.463   7.988  2.0473  1.1292 -1.8004
  967MOL0     H30482   9.476   8.257   7.998  0.1545 -1.2750 -1.6926
  967MOL0     H30483   9.376   8.390   8.059  0.2048 -0.4642  1.5684
  967MOL0     H30484   9.360   8.258   7.795  4.3106 -1.6866  3.4290
  967MOL0     H30485   9.244   8.259   7.926  0.3875 -0.1443  0.9180
  967MOL0     H30486   9.208   8.522   7.890 -2.9141 -0.7157 -0.4986
  967MOL0     H30487   9.300   8.502   7.744 -1.2979  0.4749 -0.6760
  967MOL0     H30488   9.088   8.459   7.668  0.5878  0.1402  0.9909
  967MOL0     H30489   9.146   8.299   7.671 -1.3842  1.2927 -3.9418
  967MOL0     H30490   9.016   8.225   7.847  0.2328 -0.1057  2.0675
  967MOL0     H30491   9.004   8.388   7.916 -1.6661  1.8582 -1.3644
  967MOL0     H30492   8.859   8.451   7.704 -1.8534 -0.3110  0.1318
  967MOL0     H30493   8.880   8.292   7.650 -1.8237  0.7942 -0.2693
  967MOL0     H30494   8.774   8.326   7.932  0.5195  0.4653 -1.3473
  967MOL0     H30495   8.788   8.182   7.851 -2.9096 -0.0490  4.0918
  967MOL0     H30496   8.606   8.499   7.710 -2.4354  1.3234  0.8378
  967MOL0     H30497   8.262   8.437   7.623  0.3909 -0.6273  0.7578
  967MOL0     H30498   8.405   8.548   7.591  1.9919 -0.0268 -2.2435
  967MOL0     H30499   8.344   8.319   7.415 -1.7204  0.5771  0.2249
  967MOL0     H30500   8.457   8.453   7.393 -0.1175 -2.1006 -0.2441
  967MOL0     H30501   8.287   8.617   7.354  0.9922  0.1876  0.0369
  967MOL0     H30502   8.157   8.501   7.405 -1.0224 -2.4146 -3.2665
  967MOL0     H30503   8.181   8.388   7.201 -0.4679  0.1904  0.4913
  967MOL0     H30504   8.346   8.465   7.189 -0.6058 -0.2545 -0.5301
  967MOL0     H30505   8.081   8.776   7.011 -0.4689 -0.6406  1.1051
  967MOL0     H30506   8.085   8.829   6.656 -1.7101  1.4571 -0.7067
  967MOL0     H30507   7.926   8.818   6.726  0.8698  4.6388 -2.8856
  967MOL0     H30508   8.048   8.891   6.816 -0.5146  0.9623 -1.1044
  967MOL0     H30509   7.987   8.500   6.341  0.8809 -1.4901 -2.6898
  967MOL0     H30510   7.870   8.454   6.138 -2.5604  0.0550 -0.1671
  967MOL0     H30511   7.829   8.171   5.998  0.4389  2.5319  1.5278
  967MOL0     H30512   7.795   8.079   6.140  0.5690  1.2862  1.0164
  967MOL0     H30513   7.606   8.107   5.898 -0.0290  1.4590  0.4429
  967MOL0     H30514   7.680   7.956   5.957 -1.4710 -1.4005  1.0533
  967MOL0     H30515   7.487   8.121   6.127 -1.3385 -0.1185 -2.3220
  967MOL0     H30516   7.562   7.959   6.163 -0.7982  1.7867  1.7148
  967MOL0     H30517   7.372   8.057   5.942  1.3704  0.0979 -0.1243
  967MOL0     H30518   7.444   7.897   5.937 -1.8538 -1.3229 -0.1715
  967MOL0     H30519   7.263   7.995   6.163  1.0865  2.1185  0.0277
  967MOL0     H30520   7.350   7.836   6.154  2.5155  0.8621 -0.0411
  967MOL0     H30521   7.137   7.922   5.969  0.1403  0.8059  0.1057
  967MOL0     H30522   7.245   7.775   5.937 -2.2733 -3.6186  2.0081
  967MOL0     H30523   7.049   7.827   6.168  1.4646  0.2730  1.2106
  967MOL0     H30524   7.161   7.690   6.161 -2.4976 -0.1395  1.8039
  967MOL0     H30525   7.089   7.616   5.948  1.3376 -1.6038  2.0835
  967MOL0     H30526   6.943   7.729   5.945 -0.1271 -0.5502  0.9096
  967MOL0     H30527   7.668   8.134   6.339  1.0000 -0.3523 -2.7691
  967MOL0     H30528   7.784   8.208   6.565  1.6105 -0.0950  0.3223
  967MOL0     H30529   8.075   8.332   6.779 -0.6613  0.2514 -0.7553
  967MOL0     H30530   8.155   8.346   7.007 -0.4121  0.3410  0.7202
  967MOL0     H30531   9.419   8.821   7.916 -0.0422  0.7620  1.7948
  967MOL0     H30532   9.572   9.040   7.911 -1.5351  1.4001 -5.5160
  967MOL0     H30533  10.034   9.127   7.973 -2.2022  1.3581 -0.3326
  967MOL0     H30534  10.241   9.241   7.977 -1.2288  0.2108  0.1551
  967MOL0     H30535  10.419   9.359   7.558 -2.1812  1.6391 -1.0660
  967MOL0     H30536  10.356   9.498   7.638 -0.1423 -1.1910  0.8497
  967MOL0     H30537  10.604   9.367   7.751  2.4342  1.4347  0.5412
  967MOL0     H30538  10.552   9.536   7.755 -2.6837 -0.5976  0.3800
  967MOL0     H30539  10.768   9.496   7.625  2.1339  1.9598 -2.9030
  967MOL0     H30540  10.653   9.583   7.539  1.5615 -0.0311  0.6476
  967MOL0     H30541  10.588   9.318   7.467 -0.8193 -0.3388  0.4168
  967MOL0     H30542  10.768   9.346   7.482 -1.6985 -0.7651  3.0233
  967MOL0     H30543  10.643   9.514   7.113 -5.5791  0.8616  1.2478
  967MOL0     H30544  10.208   9.277   7.543  1.0297  0.5299 -0.4587
  967MOL0     H30545   9.989   9.183   7.557 -0.9892 -1.4950  0.7737
  968MOL0     O30546   3.449   5.766   0.777 -0.5112 -0.1651 -0.3096
  968MOL0     C30547   3.359   5.785   0.858 -0.4492 -0.0719  0.5511
  968MOL0     O30548   3.243   5.716   0.860  0.2059  0.4808 -0.2800
  968MOL0     C30549   3.214   5.643   0.752  0.0412  1.0082  0.5808
  968MOL0     C30550   3.201   5.687   0.620  0.7228  0.0452 -0.5023
  968MOL0     C30551   3.173   5.596   0.525 -0.5844 -0.6934  0.5430
  968MOL0     C30552   3.177   5.454   0.554 -0.4952 -0.5224  0.2440
  968MOL0     O30553   3.184   5.377   0.441  0.3791  0.7227 -0.3210
  968MOL0     C30554   3.236   5.240   0.452  0.3265 -0.6647  1.0763
  968MOL0     C30555   3.228   5.171   0.319 -0.3155 -1.2752  1.0538
  968MOL0     C30556   3.351   5.221   0.234 -0.4578 -0.3740 -0.3341
  968MOL0     C30557   3.330   5.171   0.087  0.0646 -0.3891 -0.3133
  968MOL0     C30558   3.421   5.237  -0.018 -0.3712 -0.2901  0.5760
  968MOL0     C30559   3.567   5.206   0.010 -0.4298  0.2861  0.1911
  968MOL0     C30560   3.654   5.246  -0.110  0.6882  0.0412 -0.0072
  968MOL0     C30561   3.639   5.395  -0.151  0.2410  0.0307  0.9330
  968MOL0     N30562   3.753   5.427  -0.236  0.1577  0.3896 -0.4976
  968MOL0     C30563   3.764   5.412  -0.369 -0.1385  1.6301 -0.0149
  968MOL0     C30564   3.879   5.480  -0.404  0.0038  0.3792  0.5915
  968MOL0     C30565   3.925   5.487  -0.548  0.2195  0.1869  0.4198
  968MOL0     C30566   3.834   5.542  -0.646  0.2852 -0.0619 -0.3842
  968MOL0     C30567   3.849   5.490  -0.788 -1.3736 -0.0615  0.3132
  968MOL0     C30568   3.772   5.356  -0.813 -0.5084 -0.0878  0.0397
  968MOL0     O30569   3.632   5.354  -0.833  0.1815 -0.0310 -0.5718
  968MOL0     C30570   3.579   5.351  -0.959 -0.0543  0.1154 -0.2085
  968MOL0     C30571   3.648   5.388  -1.077 -0.6697  0.1094  0.1993
  968MOL0     C30572   3.596   5.383  -1.198  0.6678 -0.0594  0.6673
  968MOL0     C30573   3.682   5.418  -1.311 -0.0960 -0.4703  0.0666
  968MOL0     C30574   3.456   5.350  -1.210  0.3550 -0.6685  0.5729
  968MOL0     C30575   3.381   5.377  -1.337 -0.0737  0.5053  0.8277
  968MOL0     O30576   3.287   5.277  -1.352 -0.6621  0.0838  0.1993
  968MOL0     C30577   3.182   5.288  -1.429  0.6361  0.5473  1.0288
  968MOL0     C30578   3.137   5.168  -1.493 -0.1830  0.2374 -0.9056
  968MOL0     C30579   3.013   5.177  -1.560 -0.0054  0.6006 -0.9898
  968MOL0     C30580   2.926   5.288  -1.547 -0.0694 -0.3867 -0.6428
  968MOL0     O30581   2.802   5.269  -1.609  0.4550 -0.0807  0.1777
  968MOL0     C30582   2.692   5.366  -1.585 -0.2771 -0.6491  0.0689
  968MOL0     C30583   2.567   5.326  -1.661 -0.5269 -0.3693  0.1858
  968MOL0     C30584   2.507   5.195  -1.620 -0.5905  0.2499 -0.1764
  968MOL0     C30585   2.349   5.191  -1.622 -0.9775  0.3974  0.3547
  968MOL0     C30586   2.291   5.063  -1.666  0.0791  0.7176  0.0919
  968MOL0     C30587   2.140   5.055  -1.646  1.1130 -0.2866 -0.1444
  968MOL0     C30588   2.083   5.046  -1.498  0.3830  0.2150  0.2111
  968MOL0     C30589   1.935   5.019  -1.499 -0.1540 -0.4633 -0.2705
  968MOL0    Cl30590   1.859   5.021  -1.337 -0.2414 -0.1373 -0.1918
  968MOL0     C30591   2.972   5.410  -1.487  0.4895  0.1962  0.1267
  968MOL0     C30592   3.105   5.408  -1.431 -0.7876  1.0840 -0.9550
  968MOL0     O30593   3.391   5.479  -1.406 -0.9832 -0.0174  0.1654
  968MOL0     C30594   3.395   5.306  -1.091  0.7594  0.2591  0.3069
  968MOL0     C30595   3.449   5.312  -0.962  0.7093 -0.6026  0.5548
  968MOL0     N30596   3.936   5.522  -0.284 -0.2579  0.9453 -0.6650
  968MOL0     N30597   3.864   5.496  -0.187  1.3001 -0.6538 -0.0539
  968MOL0     C30598   3.202   5.415   0.679 -0.0684  0.6524  0.5758
  968MOL0     C30599   3.208   5.507   0.776 -0.4983  0.1762 -1.0412
  968MOL0     C30600   3.383   5.889   0.965  0.7697  0.4876  0.4032
  968MOL0     C30601   3.271   5.945   1.035 -0.4300  0.8226 -0.4672
  968MOL0     C30602   3.287   6.041   1.134 -0.5336 -0.4224  0.2796
  968MOL0     C30603   3.418   6.087   1.162 -0.0725  0.3106 -0.0087
  968MOL0     O30604   3.454   6.181   1.253  0.7046 -0.5574 -0.5119
  968MOL0     C30605   3.358   6.228   1.351  1.2160  0.0915  1.2105
  968MOL0     C30606   3.422   6.272   1.476  0.3789  1.0884 -0.4870
  968MOL0     C30607   3.328   6.348   1.569 -0.3075  0.3095  0.3552
  968MOL0     C30608   3.401   6.407   1.693 -0.4198  0.5000  0.6030
  968MOL0     C30609   3.431   6.325   1.806  0.3000 -0.3161  0.3465
  968MOL0     C30610   3.456   6.256   1.897  0.7147 -0.1802 -1.1642
  968MOL0     C30611   3.529   6.035   1.098  0.2299 -0.2440  0.6880
  968MOL0     C30612   3.508   5.941   0.998 -0.4191 -0.1056  0.4503
  968MOL0     H30613   3.215   5.795   0.610  1.9872 -0.1016 -0.4409
  968MOL0     H30614   3.177   5.632   0.423  2.0966  0.4987  0.9946
  968MOL0     H30615   3.339   5.260   0.483 -0.9251  0.7700  4.8458
  968MOL0     H30616   3.173   5.185   0.522 -0.2582  1.0273  1.9242
  968MOL0     H30617   3.238   5.063   0.333  0.0573 -1.4820 -0.5657
  968MOL0     H30618   3.135   5.200   0.269  0.7407 -1.8841 -1.4279
  968MOL0     H30619   3.355   5.331   0.235 -0.9383 -0.3402  1.5364
  968MOL0     H30620   3.437   5.181   0.288 -0.5776 -1.8790 -1.2078
  968MOL0     H30621   3.343   5.063   0.096 -1.7845 -0.5652  0.9136
  968MOL0     H30622   3.224   5.179   0.059 -0.3823  1.5794  1.5678
  968MOL0     H30623   3.408   5.197  -0.119  1.2579 -2.5315  1.2002
  968MOL0     H30624   3.409   5.346  -0.022  1.4963  0.0696  2.7394
  968MOL0     H30625   3.597   5.269   0.094  1.4891 -0.4957  0.1478
  968MOL0     H30626   3.578   5.100   0.036  0.6970  0.5910  1.0390
  968MOL0     H30627   3.758   5.217  -0.093  0.8490  1.6099  2.0383
  968MOL0     H30628   3.614   5.181  -0.188 -0.7776 -2.2629  2.4692
  968MOL0     H30629   3.644   5.465  -0.066 -0.2992  0.6148  0.4875
  968MOL0     H30630   3.539   5.407  -0.193 -0.2923 -1.7218  1.6186
  968MOL0     H30631   3.695   5.356  -0.431  3.0373 -1.4361 -1.0828
  968MOL0     H30632   4.000   5.564  -0.532 -0.8476  0.6202  4.4912
  968MOL0     H30633   3.971   5.391  -0.576  1.1214  0.6509  0.2689
  968MOL0     H30634   3.861   5.648  -0.653 -1.0901  0.2299 -2.0481
  968MOL0     H30635   3.728   5.531  -0.621  0.9504 -1.1392  2.2998
  968MOL0     H30636   3.954   5.471  -0.812 -0.2148  1.1684  3.7856
  968MOL0     H30637   3.799   5.571  -0.843 -0.4478 -0.1132 -0.6290
  968MOL0     H30638   3.787   5.295  -0.724 -1.7916 -1.4803 -0.6452
  968MOL0     H30639   3.817   5.316  -0.904 -1.3121 -1.8177  0.3547
  968MOL0     H30640   3.756   5.405  -1.073 -0.3744 -0.3206 -3.2756
  968MOL0     H30641   3.636   5.465  -1.399 -0.0253  0.0669  0.3126
  968MOL0     H30642   3.759   5.490  -1.285  0.6151 -1.1795 -0.0465
  968MOL0     H30643   3.730   5.328  -1.351  0.3517 -0.5102  0.6945
  968MOL0     H30644   3.195   5.079  -1.513  0.2511  0.4487 -0.5850
  968MOL0     H30645   2.977   5.086  -1.607 -0.3980  0.0884  0.2616
  968MOL0     H30646   2.658   5.353  -1.482  0.4971  0.7802  0.5279
  968MOL0     H30647   2.716   5.471  -1.602 -3.8661  0.8747  2.9112
  968MOL0     H30648   2.500   5.412  -1.647  0.9949  0.8455  0.2921
  968MOL0     H30649   2.585   5.324  -1.769  0.4493 -1.3014  0.3563
  968MOL0     H30650   2.541   5.177  -1.517  0.9935 -0.4669 -0.7902
  968MOL0     H30651   2.551   5.112  -1.677  2.5430  0.8189  1.1867
  968MOL0     H30652   2.309   5.230  -1.528  0.0027  1.9813  0.1475
  968MOL0     H30653   2.331   5.266  -1.699  1.4875  1.5464  0.8055
  968MOL0     H30654   2.333   4.975  -1.616 -5.0793 -0.9654  2.1731
  968MOL0     H30655   2.320   5.052  -1.770 -1.0949 -1.4352 -0.0615
  968MOL0     H30656   2.098   5.144  -1.693  2.2904 -1.2795 -3.3110
  968MOL0     H30657   2.091   4.972  -1.699  0.3057 -0.6159  1.0591
  968MOL0     H30658   2.113   5.135  -1.441  1.5063  0.9787 -1.4843
  968MOL0     H30659   2.125   4.952  -1.464  0.0677 -2.2457 -5.1527
  968MOL0     H30660   1.917   4.931  -1.562 -0.4118 -0.5652 -0.0586
  968MOL0     H30661   1.890   5.101  -1.556  0.1827 -0.4130 -0.4680
  968MOL0     H30662   2.922   5.506  -1.480 -0.6101 -0.3249 -0.3283
  968MOL0     H30663   3.135   5.497  -1.377 -1.3586  1.6811 -1.6097
  968MOL0     H30664   3.291   5.278  -1.082  0.3877  2.2005  4.0609
  968MOL0     H30665   3.394   5.299  -0.870  1.0695 -0.4047  0.7982
  968MOL0     H30666   3.227   5.314   0.708  2.3649  1.1009  0.2828
  968MOL0     H30667   3.223   5.473   0.878 -4.8998  1.5375  0.2938
  968MOL0     H30668   3.169   5.916   1.012  0.5877 -1.5568 -2.3126
  968MOL0     H30669   3.209   6.093   1.188  0.5647  1.0797  0.4931
  968MOL0     H30670   3.299   6.312   1.313  1.0194 -0.2020  0.8642
  968MOL0     H30671   3.276   6.161   1.377  1.0522  1.1816  3.7782
  968MOL0     H30672   3.507   6.335   1.449  2.4716 -0.4623  2.0256
  968MOL0     H30673   3.478   6.188   1.518  1.8617  1.5861 -1.3907
  968MOL0     H30674   3.242   6.291   1.607 -0.6269  1.8543  2.0697
  968MOL0     H30675   3.272   6.422   1.511 -2.3754 -0.3264  1.4105
  968MOL0     H30676   3.336   6.484   1.736  0.2229  0.9707  0.7374
  968MOL0     H30677   3.495   6.452   1.663 -0.1369 -0.8919 -0.7983
  968MOL0     H30678   3.481   6.197   1.983  0.6075  0.5209 -0.6378
  968MOL0     H30679   3.628   6.064   1.132 -0.6054  0.6508  2.4976
  968MOL0     H30680   3.600   5.900   0.958 -0.5758 -2.8465  2.5877
  969MOL0     O30681   9.775   7.222   9.025  0.3522 -0.0517  0.0761
  969MOL0     C30682   9.770   7.332   8.975  0.9898 -0.3488 -0.6776
  969MOL0     O30683   9.763   7.360   8.840  0.8145  0.1572 -0.5045
  969MOL0     C30684   9.731   7.255   8.766 -1.0298  0.0516  0.3238
  969MOL0     C30685   9.607   7.223   8.750  1.0570  0.6896  0.2584
  969MOL0     C30686   9.569   7.103   8.693  0.6901  0.0938 -0.2023
  969MOL0     C30687   9.665   7.026   8.625 -0.0935 -0.1945  0.5649
  969MOL0     O30688   9.638   6.906   8.555 -0.1133  0.3974  0.5889
  969MOL0     C30689   9.531   6.900   8.459  0.6698  0.7016  0.3087
  969MOL0     C30690   9.515   6.750   8.421 -0.2441  0.2082  0.3368
  969MOL0     C30691   9.414   6.746   8.307 -0.2749  0.4071  0.2061
  969MOL0     C30692   9.411   6.605   8.250  0.8636 -1.2598 -0.0677
  969MOL0     C30693   9.293   6.584   8.145 -0.1854 -1.1242  0.2161
  969MOL0     C30694   9.294   6.440   8.105  0.6698 -0.1693  0.2543
  969MOL0     C30695   9.158   6.411   8.041 -0.9716  0.0610 -0.1505
  969MOL0     C30696   9.174   6.260   8.000 -0.0169 -0.1949 -0.1557
  969MOL0     N30697   9.049   6.200   7.942 -0.3643 -0.6111  0.6314
  969MOL0     C30698   8.953   6.128   8.013  0.0621  1.0664  0.7877
  969MOL0     C30699   8.878   6.066   7.912 -0.0141  0.2398 -0.3684
  969MOL0     C30700   8.761   5.988   7.930  0.4969 -0.5251 -0.5092
  969MOL0     C30701   8.627   6.069   7.949 -0.2248  0.1242  0.3370
  969MOL0     C30702   8.510   5.985   8.006  0.3064  0.1321  0.6238
  969MOL0     C30703   8.376   6.053   8.013  0.0523  0.9629  0.0647
  969MOL0     O30704   8.316   6.049   7.880 -0.1950  0.4598  0.1103
  969MOL0     C30705   8.181   6.046   7.883 -1.0401  0.3835 -0.4601
  969MOL0     C30706   8.113   5.923   7.860  0.4801 -0.5523 -0.8045
  969MOL0     C30707   7.976   5.923   7.841 -0.6107  0.4273 -0.9195
  969MOL0     C30708   7.906   5.795   7.798 -0.0959 -0.6158 -0.3230
  969MOL0     C30709   7.907   6.039   7.867  1.1878 -0.3926  0.5702
  969MOL0     C30710   7.750   6.051   7.856  0.0533  0.2594  0.2277
  969MOL0     O30711   7.699   6.142   7.943 -0.3434  0.8102 -0.9573
  969MOL0     C30712   7.563   6.157   7.959  0.5510  0.5577  0.0186
  969MOL0     C30713   7.488   6.045   7.960  0.0299  0.3138  0.8084
  969MOL0     C30714   7.349   6.047   7.979 -0.0190 -0.1418  0.0738
  969MOL0     C30715   7.288   6.176   8.013 -0.3132  1.2744  0.5437
  969MOL0     O30716   7.154   6.191   8.041  0.0522 -0.2253 -0.3535
  969MOL0     C30717   7.067   6.081   8.029 -0.4093  0.7818 -0.4881
  969MOL0     C30718   6.917   6.120   8.059 -0.2227  0.4526  0.0767
  969MOL0     C30719   6.893   6.197   8.182  0.4169  1.0607 -0.7826
  969MOL0     C30720   6.739   6.193   8.229 -0.1319  0.5164  0.5147
  969MOL0     C30721   6.723   6.274   8.358 -0.2136 -0.1215 -0.2926
  969MOL0     C30722   6.579   6.266   8.410 -0.0831 -0.3459  0.4254
  969MOL0     C30723   6.559   6.330   8.536  0.3455 -0.3023  0.0721
  969MOL0     C30724   6.436   6.267   8.614 -1.7921  0.0640 -0.2131
  969MOL0    Cl30725   6.281   6.336   8.573  0.1207  0.1627  0.6078
  969MOL0     C30726   7.365   6.285   8.001 -0.3908  0.7819 -0.1522
  969MOL0     C30727   7.510   6.279   7.981  0.8351 -0.2893 -0.0623
  969MOL0     O30728   7.686   5.995   7.760 -0.0491  0.0154 -0.5022
  969MOL0     C30729   7.972   6.158   7.902  0.2448  1.3991 -0.7212
  969MOL0     C30730   8.104   6.160   7.910 -0.0273  0.4761 -0.6388
  969MOL0     N30731   8.938   6.112   7.793 -0.1489 -0.1079  0.0878
  969MOL0     N30732   9.034   6.191   7.808 -0.5349 -0.4715  0.4298
  969MOL0     C30733   9.801   7.053   8.645  0.1113 -0.3278  0.8214
  969MOL0     C30734   9.832   7.167   8.716  0.4736 -0.4688 -0.8392
  969MOL0     C30735   9.800   7.450   9.079  0.1592  0.1834  0.3544
  969MOL0     C30736   9.851   7.567   9.029 -0.2993 -0.2338 -0.3509
  969MOL0     C30737   9.878   7.667   9.115  0.5441  0.3498  1.0600
  969MOL0     C30738   9.848   7.665   9.248  0.8743  0.1953 -0.6602
  969MOL0     O30739   9.862   7.774   9.335 -1.2093  0.2693  0.2238
  969MOL0     C30740   9.926   7.900   9.284  1.1212 -0.0804 -0.2726
  969MOL0     C30741   9.933   8.002   9.396 -0.1955  0.2460  0.2025
  969MOL0     C30742  10.036   7.974   9.506  0.3826 -0.4324 -0.2022
  969MOL0     C30743  10.174   7.995   9.475 -0.3765 -0.8759  0.0010
  969MOL0     C30744  10.247   8.074   9.586 -0.1442  0.0015  0.1418
  969MOL0     C30745  10.308   8.128   9.673  0.0039 -0.6300 -0.0412
  969MOL0     C30746   9.791   7.549   9.299  0.1928 -0.2962  0.0078
  969MOL0     C30747   9.775   7.436   9.214 -0.6296  0.0335 -0.3107
  969MOL0     H30748   9.534   7.292   8.791 -0.9590 -1.2480  0.1236
  969MOL0     H30749   9.466   7.072   8.682  0.3947  0.6951  0.7142
  969MOL0     H30750   9.436   6.939   8.498  1.2757 -0.0195  2.6433
  969MOL0     H30751   9.552   6.958   8.369  2.4899  2.7290  1.9234
  969MOL0     H30752   9.614   6.718   8.387 -0.4138 -0.7691  0.7325
  969MOL0     H30753   9.475   6.695   8.507 -1.7531 -3.2593 -2.3540
  969MOL0     H30754   9.317   6.780   8.344  0.1577 -0.4477  2.2780
  969MOL0     H30755   9.433   6.814   8.223  1.9900  1.7723  1.7148
  969MOL0     H30756   9.505   6.593   8.195  0.7614 -1.4617 -0.1945
  969MOL0     H30757   9.414   6.527   8.327 -1.3084  0.1832  1.6195
  969MOL0     H30758   9.206   6.621   8.200  0.7697  0.4598  0.7332
  969MOL0     H30759   9.304   6.652   8.061  0.8622  0.1988  1.3719
  969MOL0     H30760   9.371   6.412   8.033  0.0773  0.9275 -0.8360
  969MOL0     H30761   9.298   6.376   8.194  2.7396  1.1686  1.2178
  969MOL0     H30762   9.082   6.441   8.114  0.9774 -0.8515  2.4378
  969MOL0     H30763   9.139   6.472   7.953 -1.7414  0.9864  0.6380
  969MOL0     H30764   9.192   6.200   8.090 -1.7735 -0.7411 -0.1420
  969MOL0     H30765   9.256   6.252   7.927  0.8676  0.5490  0.7254
  969MOL0     H30766   8.939   6.123   8.120 -3.8865 -2.1618  0.3563
  969MOL0     H30767   8.749   5.921   7.845  1.8738  1.4533 -2.3595
  969MOL0     H30768   8.770   5.928   8.021  1.5131  1.6080  0.8855
  969MOL0     H30769   8.584   6.110   7.857 -0.9582  0.4427  0.8115
  969MOL0     H30770   8.641   6.161   8.007 -4.1530 -0.7030  3.0190
  969MOL0     H30771   8.533   5.964   8.111  0.3910  2.3911  1.1143
  969MOL0     H30772   8.489   5.905   7.934  2.3401  2.2913 -2.6172
  969MOL0     H30773   8.398   6.151   8.056  0.0904  0.2430  1.7403
  969MOL0     H30774   8.320   5.987   8.078  1.1225 -1.3712 -1.2654
  969MOL0     H30775   8.166   5.832   7.835 -3.3040 -2.3638 -3.0615
  969MOL0     H30776   7.988   5.722   7.789  0.7842  0.5321 -2.5205
  969MOL0     H30777   7.839   5.760   7.877  1.0082 -1.4313  0.2862
  969MOL0     H30778   7.848   5.808   7.706  0.6331 -0.9027 -0.8404
  969MOL0     H30779   7.524   5.943   7.953 -0.3662  0.1223  1.4805
  969MOL0     H30780   7.292   5.956   7.966 -0.1304 -0.1224  0.4164
  969MOL0     H30781   7.081   6.035   7.931 -4.5439 -1.9921 -0.0238
  969MOL0     H30782   7.092   5.999   8.097 -0.2960 -1.9919 -3.6226
  969MOL0     H30783   6.898   6.185   7.973 -2.0048  1.3789  1.1120
  969MOL0     H30784   6.858   6.028   8.069 -0.9250  1.0183  1.5597
  969MOL0     H30785   6.920   6.301   8.162 -1.2663  1.9472  1.1670
  969MOL0     H30786   6.955   6.159   8.263  0.2352 -1.2731 -1.6478
  969MOL0     H30787   6.672   6.234   8.153 -3.5675  0.7761  3.4564
  969MOL0     H30788   6.713   6.089   8.248 -0.4873  0.3369 -0.8328
  969MOL0     H30789   6.732   6.379   8.329 -0.4601  0.3711  1.3215
  969MOL0     H30790   6.792   6.241   8.437 -1.2349 -2.1420 -0.1681
  969MOL0     H30791   6.517   6.309   8.331  0.0484  1.0093  1.0417
  969MOL0     H30792   6.545   6.162   8.413 -0.6877 -0.3481 -2.9564
  969MOL0     H30793   6.560   6.439   8.537 -1.7332 -0.1979  3.1418
  969MOL0     H30794   6.641   6.302   8.602 -1.3682  0.1391  2.5169
  969MOL0     H30795   6.461   6.298   8.716  0.2781  0.5305 -0.8079
  969MOL0     H30796   6.432   6.157   8.621  0.4384 -0.0041  1.3351
  969MOL0     H30797   7.319   6.380   8.026  1.3586  1.1028  2.2115
  969MOL0     H30798   7.575   6.366   7.985  0.4691  0.1501 -2.4380
  969MOL0     H30799   7.906   6.242   7.921 -3.0666 -0.8522 -1.4106
  969MOL0     H30800   8.145   6.259   7.921  1.0672 -0.1683  1.5140
  969MOL0     H30801   9.872   6.985   8.598  1.2012  2.8872 -2.6753
  969MOL0     H30802   9.931   7.209   8.723  0.6003 -1.0001  1.1118
  969MOL0     H30803   9.848   7.586   8.922  1.0254  2.1097 -0.0447
  969MOL0     H30804   9.927   7.754   9.073  1.2703 -0.6574 -0.2682
  969MOL0     H30805  10.022   7.883   9.234  0.9549  3.8977 -2.3302
  969MOL0     H30806   9.860   7.943   9.209  2.1686 -0.1136 -1.2417
  969MOL0     H30807   9.834   8.012   9.441 -1.9162  0.7206 -3.3264
  969MOL0     H30808   9.949   8.100   9.349 -4.7577  0.5535 -1.2335
  969MOL0     H30809  10.027   7.874   9.550  0.7790 -0.2412  0.3208
  969MOL0     H30810  10.003   8.039   9.588 -2.0629 -2.2754  0.4235
  969MOL0     H30811  10.171   8.044   9.377 -3.6160 -1.3546 -0.2470
  969MOL0     H30812  10.229   7.904   9.452  2.9481  0.5235  1.6868
  969MOL0     H30813  10.363   8.154   9.761 -0.6138 -0.5652  0.3296
  969MOL0     H30814   9.778   7.539   9.406 -0.5147 -0.9804 -0.1337
  969MOL0     H30815   9.747   7.338   9.253 -1.0344  0.1681 -0.2615
  970MOL0     O30816   0.806  10.190   7.667  0.0446  0.2244 -0.4176
  970MOL0     C30817   0.720  10.170   7.583  0.0640 -0.2474 -0.2148
  970MOL0     O30818   0.583  10.178   7.591 -0.4419 -0.2320 -0.5213
  970MOL0     C30819   0.505  10.170   7.701 -0.9448  0.3812 -0.1116
  970MOL0     C30820   0.378  10.111   7.702 -0.4188 -0.0770 -0.3752
  970MOL0     C30821   0.295  10.109   7.819 -1.1294  0.1248 -1.1866
  970MOL0     C30822   0.345  10.179   7.939  0.1965  0.1334  1.1971
  970MOL0     O30823   0.273  10.202   8.049  0.3534  0.0315 -0.6303
  970MOL0     C30824   0.147  10.149   8.064  0.4655  0.6693  0.0693
  970MOL0     C30825   0.135   9.997   8.068  0.2073 -0.1775  0.0273
  970MOL0     C30826  -0.012   9.956   8.081 -1.0328  0.3806  0.6223
  970MOL0     C30827  -0.015   9.808   8.098 -0.3979  0.7283 -0.1165
  970MOL0     C30828  -0.134   9.758   8.168  1.1419 -0.3436  0.2903
  970MOL0     C30829  -0.261   9.807   8.095  0.0844 -0.0999 -0.0721
  970MOL0     C30830  -0.384   9.736   8.161  0.0518 -0.8804  0.4211
  970MOL0     C30831  -0.505   9.785   8.089 -0.6725 -0.5646  0.0233
  970MOL0     N30832  -0.625   9.710   8.129  0.3214 -0.5197  0.2537
  970MOL0     C30833  -0.715   9.654   8.040  0.5806  1.2710  0.1068
  970MOL0     C30834  -0.819   9.617   8.119 -0.4290  0.8804  0.5712
  970MOL0     C30835  -0.940   9.558   8.084  0.0756 -0.2551 -0.0118
  970MOL0     C30836  -1.058   9.569   8.178 -0.1926 -0.3494 -0.8324
  970MOL0     C30837  -1.177   9.480   8.128  0.2619 -0.0402  0.1960
  970MOL0     C30838  -1.304   9.512   8.205  0.9291 -0.5321  0.1001
  970MOL0     O30839  -1.405   9.405   8.195 -0.8185  0.2068  0.3246
  970MOL0     C30840  -1.383   9.292   8.275 -0.4599 -0.2300 -0.7419
  970MOL0     C30841  -1.470   9.194   8.250 -0.0654  0.2088  0.5266
  970MOL0     C30842  -1.467   9.075   8.312 -0.5150 -0.5815  0.0921
  970MOL0     C30843  -1.575   8.978   8.277  0.5177 -0.4210  0.1058
  970MOL0     C30844  -1.371   9.051   8.415  0.4251  0.7659 -0.5089
  970MOL0     C30845  -1.368   8.940   8.520 -0.3175  0.5727 -0.4780
  970MOL0     O30846  -1.329   8.962   8.645  0.2985  0.6058 -0.2117
  970MOL0     C30847  -1.316   8.863   8.744  0.3694  0.1838  0.5938
  970MOL0     C30848  -1.245   8.897   8.855 -0.1042  0.7356  0.9193
  970MOL0     C30849  -1.243   8.814   8.962  0.0679  0.2065 -1.1869
  970MOL0     C30850  -1.319   8.699   8.969  0.3993  0.4377  0.0053
  970MOL0     O30851  -1.319   8.628   9.085  0.6495 -0.2769 -0.2261
  970MOL0     C30852  -1.379   8.497   9.085 -0.0678  0.0451  0.2203
  970MOL0     C30853  -1.334   8.422   9.220 -0.2855  0.2358  0.3208
  970MOL0     C30854  -1.401   8.481   9.346  0.0607 -0.5771 -0.6041
  970MOL0     C30855  -1.324   8.425   9.459 -0.8220 -0.2052 -0.7689
  970MOL0     C30856  -1.367   8.473   9.599  0.8743 -0.3940 -0.1309
  970MOL0     C30857  -1.487   8.414   9.669  0.4953  0.2230  1.2969
  970MOL0     C30858  -1.617   8.457   9.615 -0.3099 -0.0698 -0.4536
  970MOL0     C30859  -1.747   8.439   9.695  0.8535  0.7211  0.1177
  970MOL0    Cl30860  -1.741   8.286   9.778 -0.1112  0.6737  0.0892
  970MOL0     C30861  -1.395   8.666   8.853 -0.5994 -0.4572  0.3622
  970MOL0     C30862  -1.396   8.740   8.741 -0.5231 -0.7005  0.0908
  970MOL0     O30863  -1.375   8.828   8.474  0.8839  0.7891  0.6747
  970MOL0     C30864  -1.286   9.154   8.442  0.1942  0.6056 -0.4276
  970MOL0     C30865  -1.284   9.273   8.373 -0.4126  0.3464 -0.6455
  970MOL0     N30866  -0.797   9.678   8.244 -0.2109  0.6862 -0.4392
  970MOL0     N30867  -0.691   9.742   8.248 -0.5208  0.2527 -0.6118
  970MOL0     C30868   0.466  10.242   7.933  0.9263 -0.3555 -0.2246
  970MOL0     C30869   0.547  10.238   7.824 -0.8387  0.1915  1.5949
  970MOL0     C30870   0.771  10.138   7.457  0.1058 -0.3362 -0.2279
  970MOL0     C30871   0.899  10.179   7.419 -0.9709 -0.4648 -0.0973
  970MOL0     C30872   0.948  10.155   7.291 -0.9325  0.3115 -0.2282
  970MOL0     C30873   0.861  10.092   7.196  0.1565 -0.3033 -0.1591
  970MOL0     O30874   0.893  10.037   7.065 -0.1996 -0.1153  0.0575
  970MOL0     C30875   1.008  10.105   7.003  0.1694 -0.8421  0.1800
  970MOL0     C30876   1.034  10.062   6.856  0.4015  0.4247  0.9885
  970MOL0     C30877   1.152  10.116   6.784 -0.7531  1.0654  0.1219
  970MOL0     C30878   1.183  10.018   6.677  0.4892 -0.1778  0.0775
  970MOL0     C30879   1.275  10.070   6.577  0.9500  0.6097 -0.5475
  970MOL0     C30880   1.354  10.106   6.495  0.0022  0.5440 -0.6755
  970MOL0     C30881   0.735  10.057   7.236 -0.7687  1.1019 -0.0464
  970MOL0     C30882   0.697  10.067   7.368  1.5647 -0.7070 -0.4713
  970MOL0     H30883   0.354  10.059   7.610 -0.2728 -0.6923 -0.0747
  970MOL0     H30884   0.200  10.057   7.813  0.3171 -2.6924 -1.1743
  970MOL0     H30885   0.118  10.176   8.166  3.3731  1.3142  0.8200
  970MOL0     H30886   0.077  10.199   7.997 -2.1109 -0.3069  1.8772
  970MOL0     H30887   0.176   9.950   7.978  1.7793  2.3698 -0.6760
  970MOL0     H30888   0.200   9.971   8.152  2.3225  0.0637 -1.4583
  970MOL0     H30889  -0.051  10.006   8.171  0.9941 -0.0885  1.8210
  970MOL0     H30890  -0.083   9.976   8.000 -0.9341 -2.1711 -0.1680
  970MOL0     H30891   0.003   9.769   7.997  1.0451  0.9757  0.0327
  970MOL0     H30892   0.065   9.770   8.161 -0.9975  0.2174  0.3397
  970MOL0     H30893  -0.144   9.649   8.161 -0.2252 -0.1562 -1.4919
  970MOL0     H30894  -0.126   9.791   8.271  2.4876 -0.2603  0.1729
  970MOL0     H30895  -0.259   9.911   8.126 -0.7646 -1.0917  3.7900
  970MOL0     H30896  -0.262   9.784   7.988 -2.8478 -0.2532 -0.0929
  970MOL0     H30897  -0.373   9.627   8.160 -0.4650 -1.0693  3.7358
  970MOL0     H30898  -0.397   9.764   8.266  1.5092 -1.8044  0.8703
  970MOL0     H30899  -0.480   9.779   7.983 -0.3705  0.1104  0.0512
  970MOL0     H30900  -0.530   9.889   8.113 -0.0344 -0.2938 -0.4434
  970MOL0     H30901  -0.701   9.644   7.933  1.9146 -2.0379  0.4777
  970MOL0     H30902  -0.977   9.580   7.983 -2.2176 -0.1979  0.7972
  970MOL0     H30903  -0.929   9.450   8.080 -1.5714 -0.4889  1.0191
  970MOL0     H30904  -1.096   9.671   8.190 -1.4627 -1.0456  2.0358
  970MOL0     H30905  -1.031   9.542   8.281 -1.9610  0.2357 -0.1910
  970MOL0     H30906  -1.135   9.379   8.135 -0.9503 -0.6093 -0.4340
  970MOL0     H30907  -1.193   9.502   8.022 -0.6294  0.8559  0.5006
  970MOL0     H30908  -1.359   9.600   8.170 -3.7400 -2.9103  0.6244
  970MOL0     H30909  -1.275   9.531   8.309  0.6008 -0.4822  0.1851
  970MOL0     H30910  -1.541   9.219   8.172 -0.2529 -1.3992  0.1570
  970MOL0     H30911  -1.557   8.872   8.297 -0.7513 -1.5266 -3.6991
  970MOL0     H30912  -1.664   9.015   8.329 -0.0301  0.2407 -1.2434
  970MOL0     H30913  -1.594   8.980   8.169 -3.2969 -0.6964  0.6320
  970MOL0     H30914  -1.191   8.990   8.859  2.9866 -0.8030 -0.9252
  970MOL0     H30915  -1.197   8.850   9.053  0.1250 -1.1557 -0.6531
  970MOL0     H30916  -1.488   8.501   9.097 -0.1250 -2.5314  1.1502
  970MOL0     H30917  -1.341   8.443   8.998 -0.0833 -3.5793  2.2517
  970MOL0     H30918  -1.375   8.322   9.208 -1.6288  0.9664 -1.7119
  970MOL0     H30919  -1.225   8.424   9.226 -0.2904  0.4586  0.3624
  970MOL0     H30920  -1.509   8.469   9.350 -0.1003  0.8684 -0.2802
  970MOL0     H30921  -1.386   8.588   9.355 -5.2153  0.3485  0.2224
  970MOL0     H30922  -1.308   8.318   9.472 -1.7581 -0.1140  1.5241
  970MOL0     H30923  -1.227   8.474   9.450 -1.6386  2.1360  1.8574
  970MOL0     H30924  -1.385   8.581   9.598 -5.2460 -1.0385  1.1107
  970MOL0     H30925  -1.295   8.457   9.680  0.3388 -2.8371 -0.0575
  970MOL0     H30926  -1.475   8.306   9.655 -3.5429 -0.7152  3.4352
  970MOL0     H30927  -1.478   8.442   9.775  1.4155 -0.3017  1.3712
  970MOL0     H30928  -1.627   8.406   9.518  0.8014 -0.9640 -0.1156
  970MOL0     H30929  -1.606   8.565   9.601  1.2424 -0.2950 -1.2125
  970MOL0     H30930  -1.833   8.436   9.629 -0.9786  1.9360  2.2913
  970MOL0     H30931  -1.765   8.527   9.758 -1.3245  3.1409 -3.5252
  970MOL0     H30932  -1.452   8.574   8.851  2.0672 -2.2625 -3.3574
  970MOL0     H30933  -1.456   8.714   8.655 -2.8711  1.1674  1.0705
  970MOL0     H30934  -1.213   9.151   8.522  1.3181 -1.6133 -1.4619
  970MOL0     H30935  -1.218   9.348   8.414  1.2159 -1.6552  0.5527
  970MOL0     H30936   0.502  10.293   8.022  1.0631 -0.0721 -0.4417
  970MOL0     H30937   0.636  10.299   7.838 -2.5696  3.0135  1.2241
  970MOL0     H30938   0.959  10.237   7.488  0.2551 -0.8677 -0.7887
  970MOL0     H30939   1.047  10.196   7.272 -0.8284 -0.0165 -0.4093
  970MOL0     H30940   0.985  10.212   6.992  0.9129 -0.8157 -1.2638
  970MOL0     H30941   1.101  10.095   7.059  1.1864 -0.9032 -1.4781
  970MOL0     H30942   0.943  10.097   6.807 -0.5678 -1.2327  1.5154
  970MOL0     H30943   1.033   9.953   6.850 -0.6431  0.4803 -0.5156
  970MOL0     H30944   1.234  10.123   6.856 -0.7431  2.1194  0.0218
  970MOL0     H30945   1.143  10.220   6.751  1.6334  0.3313 -3.4906
  970MOL0     H30946   1.094   9.994   6.618 -3.2591  1.0587  4.5976
  970MOL0     H30947   1.217   9.923   6.717 -0.4230 -0.5527  0.0009
  970MOL0     H30948   1.429  10.147   6.430 -0.2843  2.6588  0.2324
  970MOL0     H30949   0.671   9.992   7.176 -1.2195  1.3219  0.1928
  970MOL0     H30950   0.603  10.021   7.398  1.1961 -0.8548 -1.8060
  971MOL0     O30951   3.923   1.676   6.960  0.2399  0.5256  0.4772
  971MOL0     C30952   3.926   1.770   6.882 -0.3242  0.0241  1.2353
  971MOL0     O30953   4.041   1.814   6.815 -0.3061  0.6777  0.3752
  971MOL0     C30954   4.164   1.743   6.823 -0.3147  0.5637  0.1167
  971MOL0     C30955   4.193   1.605   6.815 -0.0260  0.6364  0.4223
  971MOL0     C30956   4.317   1.548   6.835  0.0308  0.4587 -0.0195
  971MOL0     C30957   4.424   1.631   6.873  0.7074  0.2264  0.0560
  971MOL0     O30958   4.549   1.590   6.903 -0.4580  0.6825  0.0905
  971MOL0     C30959   4.566   1.469   6.985 -0.3202  0.2544 -0.1114
  971MOL0     C30960   4.496   1.489   7.124 -0.6473 -0.3659  0.6054
  971MOL0     C30961   4.510   1.364   7.205 -0.4890 -0.2753 -0.2551
  971MOL0     C30962   4.520   1.395   7.351 -0.0225 -0.1851  0.6147
  971MOL0     C30963   4.539   1.274   7.432 -0.8746 -0.3575  0.8121
  971MOL0     C30964   4.498   1.293   7.579 -0.9531  0.3834  0.0656
  971MOL0     C30965   4.509   1.163   7.670 -0.6189  0.0337  0.6007
  971MOL0     C30966   4.383   1.086   7.704 -0.2962  0.1945  0.3085
  971MOL0     N30967   4.309   1.072   7.579  0.3173 -0.3352  0.1677
  971MOL0     C30968   4.201   1.162   7.543  0.5201  0.4983 -0.2746
  971MOL0     C30969   4.183   1.124   7.414  0.4070 -0.4249 -0.3625
  971MOL0     C30970   4.105   1.193   7.302  0.3976  0.1007  0.5622
  971MOL0     C30971   4.166   1.331   7.266  0.0497 -0.3600 -0.4752
  971MOL0     C30972   4.086   1.453   7.317 -0.3770  0.3555 -0.1107
  971MOL0     C30973   4.035   1.543   7.201 -1.0385 -0.6786 -0.7748
  971MOL0     O30974   3.970   1.651   7.271 -0.6573 -0.0024 -0.1999
  971MOL0     C30975   3.837   1.693   7.269  1.1847 -0.2799 -0.4166
  971MOL0     C30976   3.735   1.618   7.207  0.1064  0.0140  0.2019
  971MOL0     C30977   3.601   1.644   7.234  0.8980 -0.1514 -0.2058
  971MOL0     C30978   3.497   1.573   7.161 -0.3787  0.2197 -0.3729
  971MOL0     C30979   3.562   1.769   7.303 -0.9665  0.2254  0.2624
  971MOL0     C30980   3.415   1.811   7.337  0.0809  0.0181  1.2100
  971MOL0     O30981   3.401   1.914   7.429  0.6767 -0.3654 -0.3022
  971MOL0     C30982   3.280   1.937   7.480  0.5393 -0.0779 -1.4640
  971MOL0     C30983   3.257   1.912   7.616  0.3802  0.5337 -0.1304
  971MOL0     C30984   3.128   1.933   7.670  0.2648 -0.3929  0.2691
  971MOL0     C30985   3.034   1.996   7.588  0.2219  0.3424 -1.0371
  971MOL0     O30986   2.923   2.036   7.654  0.5772 -0.2660  0.2594
  971MOL0     C30987   2.803   2.002   7.594  0.9543 -0.7841 -0.0391
  971MOL0     C30988   2.700   2.029   7.709 -0.6827 -0.6361 -0.7459
  971MOL0     C30989   2.566   2.051   7.642 -0.2592 -0.1892  0.2069
  971MOL0     C30990   2.453   2.023   7.737  0.4640  0.2224 -1.0275
  971MOL0     C30991   2.322   2.067   7.666 -0.0328 -0.7079  0.1490
  971MOL0     C30992   2.205   2.029   7.761 -0.2000 -0.0102 -0.4575
  971MOL0     C30993   2.060   2.057   7.710 -0.2493 -0.2646  0.4899
  971MOL0     C30994   2.010   2.197   7.745 -0.4129 -0.2187 -0.4747
  971MOL0    Cl30995   1.922   2.182   7.902  0.3861 -0.0319  0.0103
  971MOL0     C30996   3.068   2.033   7.455  0.6825  0.3129 -0.1289
  971MOL0     C30997   3.182   1.996   7.400 -0.3071  0.6348 -0.1827
  971MOL0     O30998   3.320   1.737   7.308  0.4635  0.5446 -0.3040
  971MOL0     C30999   3.670   1.848   7.347 -0.3519 -1.1321  0.1274
  971MOL0     C31000   3.804   1.800   7.341 -0.0114 -0.3976  0.4186
  971MOL0     N31001   4.269   1.017   7.389 -0.1257 -0.6625  0.6395
  971MOL0     N31002   4.346   0.995   7.486  0.6379  0.5413  0.3169
  971MOL0     C31003   4.400   1.772   6.874  0.1813  0.2755  0.1682
  971MOL0     C31004   4.274   1.825   6.858 -0.0391  0.7742  0.4732
  971MOL0     C31005   3.804   1.858   6.862 -0.4211  0.8767  0.0171
  971MOL0     C31006   3.680   1.832   6.914  0.5812 -0.5413 -0.8860
  971MOL0     C31007   3.571   1.923   6.919 -1.2863  0.1483  0.3150
  971MOL0     C31008   3.592   2.045   6.858 -0.3497 -0.7406  0.1909
  971MOL0     O31009   3.483   2.127   6.865  0.1628 -0.1410 -0.3658
  971MOL0     C31010   3.474   2.262   6.815  0.5944  0.2507  0.3397
  971MOL0     C31011   3.454   2.245   6.660 -0.3019  0.6120  0.0697
  971MOL0     C31012   3.345   2.141   6.621 -0.4022 -0.4635  0.5753
  971MOL0     C31013   3.326   2.135   6.464  0.7798  0.1331  0.2892
  971MOL0     C31014   3.201   2.059   6.432  0.0480 -0.7104 -0.1043
  971MOL0     C31015   3.103   1.995   6.399 -0.1728  0.5795  0.2033
  971MOL0     C31016   3.711   2.071   6.793 -0.2745 -0.6087  0.1078
  971MOL0     C31017   3.823   1.983   6.803  0.3448  0.1564  0.4477
  971MOL0     H31018   4.114   1.539   6.779 -2.1403  1.2842  3.4698
  971MOL0     H31019   4.322   1.441   6.824  0.0973  0.3145  1.2405
  971MOL0     H31020   4.521   1.379   6.942 -0.5801  1.5445 -2.7248
  971MOL0     H31021   4.673   1.457   7.006 -0.8523 -0.4839  2.6805
  971MOL0     H31022   4.554   1.565   7.179 -3.8927  0.4024  3.2510
  971MOL0     H31023   4.392   1.519   7.110 -0.4665 -0.3214 -0.7853
  971MOL0     H31024   4.429   1.294   7.184  0.9607 -1.4948 -2.1849
  971MOL0     H31025   4.609   1.322   7.184 -0.8008 -1.5585  0.7660
  971MOL0     H31026   4.607   1.458   7.366 -1.0906  1.7793 -0.9671
  971MOL0     H31027   4.437   1.457   7.386  0.7705  0.3800  1.5136
  971MOL0     H31028   4.475   1.195   7.391 -0.7832  0.6441 -1.3508
  971MOL0     H31029   4.646   1.257   7.424 -0.7511  1.0354 -0.9811
  971MOL0     H31030   4.559   1.374   7.621 -0.4781  1.4536 -2.5128
  971MOL0     H31031   4.400   1.340   7.592 -0.0306  2.9398 -1.5399
  971MOL0     H31032   4.575   1.091   7.621 -1.6193  1.1487 -2.6588
  971MOL0     H31033   4.563   1.190   7.761  3.5261  1.5428 -2.0615
  971MOL0     H31034   4.326   1.146   7.775 -0.0500  1.2445 -0.3593
  971MOL0     H31035   4.404   0.997   7.763 -0.5643  0.4362  0.7725
  971MOL0     H31036   4.164   1.250   7.593 -2.5396  0.4602 -2.2427
  971MOL0     H31037   4.092   1.112   7.230  0.8936  1.0118 -0.5828
  971MOL0     H31038   4.004   1.212   7.340  0.4403 -0.5771  1.0309
  971MOL0     H31039   4.192   1.334   7.160  4.5921 -0.9424  0.4400
  971MOL0     H31040   4.263   1.342   7.314  0.0361 -1.9148 -0.0472
  971MOL0     H31041   4.157   1.512   7.376 -1.3034  0.2289  1.1706
  971MOL0     H31042   4.000   1.423   7.378  1.4593  1.0673  3.0729
  971MOL0     H31043   3.965   1.482   7.142 -3.0419 -0.1107  0.8833
  971MOL0     H31044   4.119   1.555   7.133  0.5743 -3.9445  0.3918
  971MOL0     H31045   3.764   1.530   7.151 -0.5191  0.9254 -1.5969
  971MOL0     H31046   3.413   1.548   7.227  0.3244  2.2891  1.4384
  971MOL0     H31047   3.463   1.644   7.085  2.6400  0.2394 -1.8334
  971MOL0     H31048   3.544   1.483   7.122 -0.6083 -0.7110  1.3729
  971MOL0     H31049   3.342   1.873   7.671  0.4162 -2.5340 -2.1245
  971MOL0     H31050   3.100   1.921   7.774  1.5000 -1.1500  0.5333
  971MOL0     H31051   2.796   2.069   7.507 -0.9782  3.3569  2.9400
  971MOL0     H31052   2.784   1.901   7.557 -0.5359 -0.8470  0.8157
  971MOL0     H31053   2.692   1.944   7.777  2.3448 -0.4373  0.0207
  971MOL0     H31054   2.718   2.120   7.768 -3.4992 -0.6149  0.2217
  971MOL0     H31055   2.561   1.986   7.554 -1.2586  0.0039  0.1177
  971MOL0     H31056   2.564   2.152   7.602 -0.1619 -0.7946 -1.3932
  971MOL0     H31057   2.468   1.919   7.767  0.2702 -0.0911 -1.9859
  971MOL0     H31058   2.451   2.081   7.830 -2.2891 -1.5112  0.1152
  971MOL0     H31059   2.304   2.011   7.574  1.3126  0.9962 -1.2398
  971MOL0     H31060   2.310   2.174   7.647 -0.9674 -1.2391 -2.6778
  971MOL0     H31061   2.216   1.924   7.790  0.6275 -0.4242 -2.1582
  971MOL0     H31062   2.213   2.086   7.854  2.1295 -2.3061  0.8864
  971MOL0     H31063   1.987   1.993   7.759  1.8720 -2.2147  1.2609
  971MOL0     H31064   2.049   2.031   7.604  0.7170 -1.2487  0.6124
  971MOL0     H31065   1.934   2.227   7.673 -2.8322  1.7773  2.6030
  971MOL0     H31066   2.087   2.275   7.743  0.1636 -0.7484 -3.4495
  971MOL0     H31067   2.988   2.083   7.402 -1.0622 -2.6707 -0.5662
  971MOL0     H31068   3.206   2.016   7.296  1.7146  1.6931  0.4397
  971MOL0     H31069   3.643   1.942   7.395  2.0501 -0.8582  1.0876
  971MOL0     H31070   3.878   1.857   7.397 -1.7558  1.0459  1.3851
  971MOL0     H31071   4.491   1.829   6.889  0.7901 -0.7234  0.3629
  971MOL0     H31072   4.247   1.929   6.867  2.0637  1.5781 -1.6303
  971MOL0     H31073   3.668   1.738   6.968  0.3141 -0.9839 -1.6994
  971MOL0     H31074   3.481   1.899   6.975 -0.3574  0.2111  1.8919
  971MOL0     H31075   3.389   2.317   6.857  2.0700  2.3971  0.7045
  971MOL0     H31076   3.567   2.317   6.835  2.1932 -2.8117  2.1474
  971MOL0     H31077   3.543   2.201   6.615  0.6062  0.6464  1.7514
  971MOL0     H31078   3.419   2.344   6.628  1.9857  0.1810 -4.4776
  971MOL0     H31079   3.247   2.162   6.663 -1.7461  1.8354 -3.1739
  971MOL0     H31080   3.378   2.040   6.648 -2.9244 -2.5541 -3.1033
  971MOL0     H31081   3.411   2.094   6.409 -1.0755 -1.8281 -1.3009
  971MOL0     H31082   3.307   2.236   6.425 -0.9199 -1.1951 -2.6412
  971MOL0     H31083   3.012   1.943   6.378  1.6173 -2.9141  0.2617
  971MOL0     H31084   3.720   2.161   6.733 -3.4511  0.0604  0.4518
  971MOL0     H31085   3.920   2.013   6.765 -0.2550  3.1212  1.0287
  972MOL0     O31086   0.828   8.384   1.965 -0.2651 -0.4865  0.4875
  972MOL0     C31087   0.786   8.267   1.945  0.0255 -0.7072  0.2761
  972MOL0     O31088   0.655   8.239   1.910 -0.3421 -0.0413 -0.3096
  972MOL0     C31089   0.570   8.347   1.876 -0.0897  1.0470  0.5896
  972MOL0     C31090   0.517   8.421   1.980  1.7976  0.2469 -0.9625
  972MOL0     C31091   0.412   8.510   1.946 -0.2567  0.3859 -1.1034
  972MOL0     C31092   0.374   8.538   1.813  0.6544 -0.2303 -0.2124
  972MOL0     O31093   0.276   8.630   1.791  0.7523  0.5170 -0.2799
  972MOL0     C31094   0.217   8.641   1.659  0.2524  0.1785 -0.6020
  972MOL0     C31095   0.108   8.540   1.634  1.0453 -0.4740 -0.0036
  972MOL0     C31096  -0.006   8.530   1.744  0.4383  0.2727 -0.1281
  972MOL0     C31097  -0.136   8.514   1.666  0.2911 -0.4631  1.5274
  972MOL0     C31098  -0.247   8.529   1.778  0.6789  0.3134  0.2695
  972MOL0     C31099  -0.396   8.525   1.733 -0.0455 -0.8799 -0.1185
  972MOL0     C31100  -0.426   8.643   1.640  0.8879 -0.4591 -0.4005
  972MOL0     C31101  -0.561   8.616   1.574  0.0117 -0.4320 -0.0569
  972MOL0     N31102  -0.583   8.712   1.455  0.5199  0.6791 -0.1467
  972MOL0     C31103  -0.586   8.679   1.323 -1.3782 -0.1983  0.4068
  972MOL0     C31104  -0.579   8.804   1.262 -0.3861 -0.1186  0.0848
  972MOL0     C31105  -0.562   8.830   1.116 -0.2015  0.1231 -0.1469
  972MOL0     C31106  -0.691   8.839   1.039  0.4690  0.5513  0.1197
  972MOL0     C31107  -0.677   8.884   0.894 -0.5044  0.9097  1.1046
  972MOL0     C31108  -0.804   8.873   0.809 -0.3168  0.0359  0.1897
  972MOL0     O31109  -0.925   8.877   0.889 -0.2800 -0.5273 -0.1195
  972MOL0     C31110  -1.024   8.779   0.863  0.3207 -0.7186 -0.0333
  972MOL0     C31111  -1.125   8.760   0.963  0.1760  0.1946 -0.7528
  972MOL0     C31112  -1.235   8.676   0.948  0.0365  0.4234 -0.7148
  972MOL0     C31113  -1.332   8.672   1.062 -0.4409  0.0597 -0.5194
  972MOL0     C31114  -1.244   8.592   0.826 -1.0986 -0.1775  0.1335
  972MOL0     C31115  -1.349   8.489   0.808  0.5828 -0.9098 -0.4031
  972MOL0     O31116  -1.379   8.447   0.681  0.7146 -0.1390 -0.3033
  972MOL0     C31117  -1.478   8.350   0.668 -0.5225 -0.7948  0.2807
  972MOL0     C31118  -1.602   8.362   0.731  0.5688  0.1168 -0.8441
  972MOL0     C31119  -1.683   8.245   0.741  1.6084 -0.7651 -0.2287
  972MOL0     C31120  -1.641   8.131   0.667  0.4619 -0.7496  0.0037
  972MOL0     O31121  -1.716   8.014   0.681  0.2367  0.1638 -0.0905
  972MOL0     C31122  -1.783   7.959   0.560  1.0283 -0.3960 -0.1066
  972MOL0     C31123  -1.929   7.929   0.574  0.2090 -0.1184  0.2160
  972MOL0     C31124  -1.950   7.817   0.679  0.2218 -1.7503 -0.0328
  972MOL0     C31125  -2.093   7.773   0.695  0.6117 -0.0467  0.0847
  972MOL0     C31126  -2.102   7.644   0.782  0.1039 -0.2447 -0.2392
  972MOL0     C31127  -2.234   7.633   0.849  0.6920  0.3158 -0.3918
  972MOL0     C31128  -2.256   7.519   0.953  0.5632  0.2543 -0.6784
  972MOL0     C31129  -2.360   7.563   1.048  1.1427  0.2449 -0.4983
  972MOL0    Cl31130  -2.503   7.635   0.972  0.0269 -0.0153  0.2460
  972MOL0     C31131  -1.533   8.128   0.587 -0.0361 -0.4097 -0.1583
  972MOL0     C31132  -1.450   8.245   0.581 -0.2148 -0.0870 -0.7352
  972MOL0     O31133  -1.376   8.427   0.908  0.1686  0.5094 -0.5044
  972MOL0     C31134  -1.149   8.616   0.726 -0.7453  0.1975 -0.3190
  972MOL0     C31135  -1.045   8.710   0.740  0.6466 -0.4187  0.1685
  972MOL0     N31136  -0.592   8.904   1.360 -0.5406 -0.4336 -0.5660
  972MOL0     N31137  -0.598   8.844   1.474  0.1476 -0.9811  0.4455
  972MOL0     C31138   0.443   8.469   1.715 -0.6889 -1.2986 -1.1017
  972MOL0     C31139   0.543   8.378   1.744  0.9072 -0.7515 -0.0804
  972MOL0     C31140   0.876   8.153   1.973  0.4241 -0.4851 -0.3643
  972MOL0     C31141   1.016   8.162   1.962  0.7920 -0.0670 -0.6548
  972MOL0     C31142   1.092   8.049   1.989 -0.1452 -0.2616  0.9281
  972MOL0     C31143   1.032   7.928   2.023 -0.0164  0.0978  0.2385
  972MOL0     O31144   1.113   7.827   2.042  0.3291 -0.0140 -0.1669
  972MOL0     C31145   1.060   7.696   2.092 -0.2667  0.7330  0.9086
  972MOL0     C31146   1.063   7.714   2.250  0.1083  0.5400  1.2214
  972MOL0     C31147   1.040   7.574   2.315 -0.9524 -0.3356  0.1362
  972MOL0     C31148   1.179   7.503   2.354 -0.3439 -0.1856 -0.0103
  972MOL0     C31149   1.254   7.557   2.463  0.2671 -0.4624 -0.1664
  972MOL0     C31150   1.290   7.606   2.569 -0.1128 -0.0889  0.1166
  972MOL0     C31151   0.893   7.924   2.038 -0.2144  0.1054 -0.2939
  972MOL0     C31152   0.818   8.035   2.009  0.2082  0.9078  0.2796
  972MOL0     H31153   0.550   8.423   2.083 -2.2059  1.7902  0.4810
  972MOL0     H31154   0.369   8.565   2.030  0.8128 -0.5916  0.1431
  972MOL0     H31155   0.178   8.741   1.637 -0.1880  0.1565  0.0628
  972MOL0     H31156   0.279   8.629   1.570  3.9540 -1.1809  1.9275
  972MOL0     H31157   0.064   8.568   1.537  0.7686  1.0025  0.5275
  972MOL0     H31158   0.141   8.435   1.634 -3.6614 -2.2609  2.5657
  972MOL0     H31159   0.015   8.443   1.808 -1.8385 -1.3125 -1.3868
  972MOL0     H31160  -0.000   8.618   1.808 -0.7406  0.6674 -0.5453
  972MOL0     H31161  -0.145   8.599   1.598 -2.0189  0.0338  2.3632
  972MOL0     H31162  -0.139   8.415   1.619  2.1089  1.4985 -3.3575
  972MOL0     H31163  -0.238   8.457   1.860  0.1997 -1.5534 -1.2385
  972MOL0     H31164  -0.238   8.623   1.832 -0.7476  0.1895  0.7743
  972MOL0     H31165  -0.399   8.434   1.671 -1.2688 -0.8916 -0.0605
  972MOL0     H31166  -0.470   8.500   1.809 -1.0272 -0.7088 -1.0033
  972MOL0     H31167  -0.439   8.735   1.698 -0.9631 -0.4585 -0.7460
  972MOL0     H31168  -0.348   8.646   1.564  1.1490 -0.6635 -0.1378
  972MOL0     H31169  -0.645   8.619   1.644 -0.2773 -1.5653 -0.3400
  972MOL0     H31170  -0.577   8.522   1.520 -2.7062  0.8123 -1.6700
  972MOL0     H31171  -0.581   8.581   1.276 -0.3440  1.0315 -2.2268
  972MOL0     H31172  -0.510   8.921   1.083 -1.4114  0.8148 -0.2147
  972MOL0     H31173  -0.509   8.742   1.081  1.3668  0.7593  0.5362
  972MOL0     H31174  -0.748   8.912   1.097  2.5041  0.1554  2.7719
  972MOL0     H31175  -0.752   8.748   1.046  0.3584  0.7134  1.6593
  972MOL0     H31176  -0.600   8.814   0.861  0.3025  1.2343  2.2253
  972MOL0     H31177  -0.631   8.983   0.899  2.3747 -0.2672  0.1497
  972MOL0     H31178  -0.799   8.780   0.750 -4.8152 -0.7295  0.6124
  972MOL0     H31179  -0.800   8.947   0.729 -0.3982 -0.2225 -0.0562
  972MOL0     H31180  -1.125   8.824   1.050  1.7902  0.4803 -0.9246
  972MOL0     H31181  -1.329   8.576   1.114  0.6590  0.8429  0.9410
  972MOL0     H31182  -1.304   8.741   1.141  0.6559  0.5696 -1.3320
  972MOL0     H31183  -1.437   8.682   1.031 -0.9530 -0.5699  0.9213
  972MOL0     H31184  -1.625   8.444   0.798  1.1315 -1.4617  1.4002
  972MOL0     H31185  -1.763   8.240   0.814  0.5845 -1.2743 -1.3522
  972MOL0     H31186  -1.792   8.033   0.481 -0.4730  1.2678  1.5481
  972MOL0     H31187  -1.745   7.863   0.521 -0.7223 -0.3048 -2.1783
  972MOL0     H31188  -1.987   8.019   0.591  0.3518  0.6722 -2.8443
  972MOL0     H31189  -1.960   7.900   0.473 -0.7522  2.4543 -0.2980
  972MOL0     H31190  -1.906   7.842   0.776 -0.5778  0.2179 -0.1396
  972MOL0     H31191  -1.899   7.726   0.646  0.7626 -1.6953  0.6220
  972MOL0     H31192  -2.155   7.854   0.734  1.3742  0.7206 -0.2466
  972MOL0     H31193  -2.120   7.751   0.592  2.4076 -2.2436  0.0124
  972MOL0     H31194  -2.027   7.639   0.861 -0.2036 -1.3120  0.0035
  972MOL0     H31195  -2.086   7.551   0.727  1.3091 -2.3082  3.2981
  972MOL0     H31196  -2.258   7.729   0.894  1.6623  0.1436  0.5520
  972MOL0     H31197  -2.309   7.614   0.771 -0.7121 -3.7505  1.6270
  972MOL0     H31198  -2.173   7.477   1.011  1.4770  1.6489 -0.9214
  972MOL0     H31199  -2.304   7.434   0.905 -1.1920 -0.9308  2.8210
  972MOL0     H31200  -2.325   7.637   1.120 -0.9175 -0.4540  1.3186
  972MOL0     H31201  -2.396   7.473   1.099 -2.0816  0.4799 -2.0963
  972MOL0     H31202  -1.502   8.037   0.536  0.9919 -0.6452  0.8291
  972MOL0     H31203  -1.358   8.247   0.523 -0.6999  0.6668 -1.4929
  972MOL0     H31204  -1.156   8.564   0.631  2.0633 -1.8271  0.4740
  972MOL0     H31205  -0.982   8.720   0.652 -0.7645 -0.7133 -0.9093
  972MOL0     H31206   0.435   8.496   1.610  0.9643 -0.6437 -1.0850
  972MOL0     H31207   0.601   8.334   1.664  0.7209 -2.0682  0.4822
  972MOL0     H31208   1.063   8.255   1.931 -0.3989  0.2653 -1.5434
  972MOL0     H31209   1.200   8.042   1.978 -0.2155  0.4046 -0.4238
  972MOL0     H31210   0.961   7.663   2.059  1.1130 -1.8561 -1.0791
  972MOL0     H31211   1.130   7.612   2.083 -4.3054 -2.7408 -2.9794
  972MOL0     H31212   0.975   7.777   2.264 -0.0153  1.5840 -2.9749
  972MOL0     H31213   1.149   7.772   2.285 -0.2365  0.9424  1.4063
  972MOL0     H31214   0.978   7.513   2.249 -1.7192 -1.2558  1.6529
  972MOL0     H31215   0.980   7.583   2.406 -1.1655 -1.2972  0.0975
  972MOL0     H31216   1.240   7.516   2.265 -1.1683  1.1828 -0.4031
  972MOL0     H31217   1.161   7.396   2.365  1.2690 -0.4878 -0.0753
  972MOL0     H31218   1.324   7.649   2.661 -0.0900  0.7897 -0.2929
  972MOL0     H31219   0.853   7.828   2.070  1.8496  0.2234  3.1188
  972MOL0     H31220   0.711   8.034   2.031  0.1358  2.1973  0.0412
  973MOL0     O31221   2.237   1.229   1.297  0.2496  0.3431  0.2132
  973MOL0     C31222   2.310   1.199   1.210  0.5438 -0.0970  0.1229
  973MOL0     O31223   2.403   1.098   1.201  0.4357 -0.7016  0.1981
  973MOL0     C31224   2.412   1.010   1.299  0.3216  0.1092  0.3710
  973MOL0     C31225   2.536   0.947   1.313 -0.4305 -0.1328 -0.5780
  973MOL0     C31226   2.551   0.838   1.410  0.3745  1.1491 -0.1718
  973MOL0     C31227   2.444   0.792   1.478 -0.0027  0.3897  0.2495
  973MOL0     O31228   2.451   0.697   1.582  0.1680  0.1691  0.1950
  973MOL0     C31229   2.579   0.666   1.644  0.2006 -0.2075  0.4827
  973MOL0     C31230   2.552   0.578   1.766 -0.5353 -0.1838 -0.9590
  973MOL0     C31231   2.440   0.640   1.852 -0.7291  1.1602  0.3852
  973MOL0     C31232   2.465   0.765   1.931  0.4943  0.0139 -0.0600
  973MOL0     C31233   2.412   0.885   1.857 -0.5571 -0.1302  0.1432
  973MOL0     C31234   2.481   1.017   1.880 -0.4512 -0.3173 -0.2683
  973MOL0     C31235   2.400   1.142   1.826  0.0766 -0.5128 -0.2955
  973MOL0     C31236   2.366   1.148   1.677 -0.0962 -0.7243 -0.5269
  973MOL0     N31237   2.493   1.188   1.607  0.2876  0.1355 -0.2380
  973MOL0     C31238   2.540   1.320   1.597 -0.1745 -0.7201  0.1161
  973MOL0     C31239   2.663   1.309   1.557 -0.3874 -0.1080 -0.5285
  973MOL0     C31240   2.766   1.420   1.525 -0.3304 -0.0225  0.5161
  973MOL0     C31241   2.895   1.374   1.476  0.2714 -0.0527  0.3959
  973MOL0     C31242   3.004   1.489   1.466  0.4542  0.1949  0.0382
  973MOL0     C31243   3.137   1.431   1.413 -0.7925  0.0963 -0.0209
  973MOL0     O31244   3.181   1.320   1.497  0.2009  0.3102  0.4699
  973MOL0     C31245   3.271   1.235   1.443  0.1748  0.5568  0.4380
  973MOL0     C31246   3.296   1.118   1.524  0.1635 -0.7212 -0.2816
  973MOL0     C31247   3.403   1.030   1.484 -0.3813  0.8256  0.0878
  973MOL0     C31248   3.439   0.919   1.585 -1.5704  0.9010  0.5008
  973MOL0     C31249   3.480   1.050   1.364 -1.0390 -0.9409  0.4395
  973MOL0     C31250   3.609   0.980   1.323  1.1061  0.3427 -0.5207
  973MOL0     O31251   3.702   1.053   1.253  0.0887 -0.5796 -0.0447
  973MOL0     C31252   3.823   0.993   1.215  0.7044 -1.1777 -0.8349
  973MOL0     C31253   3.929   0.977   1.303  0.1258  0.1213 -1.0012
  973MOL0     C31254   4.055   0.934   1.267 -1.2779  0.5723  0.0964
  973MOL0     C31255   4.069   0.883   1.137  1.2115 -0.8494  0.3553
  973MOL0     O31256   4.182   0.818   1.094  0.2840 -0.2976 -0.7730
  973MOL0     C31257   4.301   0.835   1.171 -0.3659  0.0982  0.3200
  973MOL0     C31258   4.416   0.755   1.096  0.6280  0.5096 -0.4010
  973MOL0     C31259   4.422   0.607   1.114  0.6519 -0.9348 -0.1464
  973MOL0     C31260   4.467   0.551   1.252 -0.5043 -0.3155 -1.1325
  973MOL0     C31261   4.476   0.402   1.253 -0.4423 -0.3799  0.8550
  973MOL0     C31262   4.544   0.378   1.380 -1.0412  0.3461  0.4618
  973MOL0     C31263   4.570   0.223   1.411  0.2481  0.4458 -0.8133
  973MOL0     C31264   4.449   0.153   1.468  0.2880  0.1451 -0.2426
  973MOL0    Cl31265   4.440   0.176   1.651  0.4393 -0.0058 -0.1458
  973MOL0     C31266   3.956   0.895   1.045  0.1552 -0.2014  0.1097
  973MOL0     C31267   3.838   0.949   1.084 -0.4168  0.0236  0.3522
  973MOL0     O31268   3.622   0.859   1.366 -0.2768  0.0810  0.7694
  973MOL0     C31269   3.429   1.155   1.276  0.5609 -0.0211  0.1072
  973MOL0     C31270   3.336   1.249   1.320  0.5161  0.0665  0.2119
  973MOL0     N31271   2.694   1.173   1.539  0.7322 -0.1669 -0.2725
  973MOL0     N31272   2.586   1.101   1.572 -0.1120  0.9780 -0.5470
  973MOL0     C31273   2.322   0.850   1.458  0.7497  1.0736 -0.0579
  973MOL0     C31274   2.295   0.956   1.369  0.0584 -0.9592  0.1715
  973MOL0     C31275   2.312   1.284   1.078 -0.1228 -0.3768 -1.3055
  973MOL0     C31276   2.264   1.411   1.081 -0.4135  0.2137  0.0212
  973MOL0     C31277   2.264   1.494   0.963  0.1518  0.2115 -0.2596
  973MOL0     C31278   2.341   1.449   0.852 -0.6969 -0.1568  0.0108
  973MOL0     O31279   2.369   1.550   0.763  0.1797 -0.3911 -0.0514
  973MOL0     C31280   2.471   1.536   0.657 -0.0187  0.1948  0.1887
  973MOL0     C31281   2.435   1.457   0.539  0.2107  1.0139  0.4714
  973MOL0     C31282   2.299   1.496   0.490 -0.5662  0.7140 -0.0024
  973MOL0     C31283   2.307   1.643   0.442 -0.5634 -0.1251  0.1799
  973MOL0     C31284   2.234   1.661   0.317 -0.2559  0.4952  0.8263
  973MOL0     C31285   2.174   1.691   0.218 -0.2334 -1.4078  0.7823
  973MOL0     C31286   2.384   1.318   0.849 -0.2515  1.0093 -1.1735
  973MOL0     C31287   2.367   1.235   0.960  0.2074  0.7031 -0.0310
  973MOL0     H31288   2.625   0.973   1.256  0.6944 -1.4100  0.5146
  973MOL0     H31289   2.650   0.800   1.430 -0.5304 -2.2219 -1.5301
  973MOL0     H31290   2.652   0.626   1.574 -2.1904 -0.8516 -1.8186
  973MOL0     H31291   2.621   0.758   1.686  2.2150 -0.7501 -0.2628
  973MOL0     H31292   2.534   0.475   1.732  2.5286 -1.3992  0.6741
  973MOL0     H31293   2.641   0.555   1.826  2.0800  0.4324 -4.3189
  973MOL0     H31294   2.349   0.664   1.797  0.2651  3.7120 -0.3028
  973MOL0     H31295   2.416   0.553   1.914 -0.4893  0.2445 -0.7841
  973MOL0     H31296   2.401   0.770   2.019  0.5709  2.8979 -0.0692
  973MOL0     H31297   2.570   0.782   1.956  0.2115  0.7504  0.7023
  973MOL0     H31298   2.421   0.860   1.751 -0.1111 -3.0990  0.7628
  973MOL0     H31299   2.309   0.907   1.885 -0.1018 -0.6607  2.4661
  973MOL0     H31300   2.500   1.038   1.986 -1.3225  0.2670 -0.2204
  973MOL0     H31301   2.581   1.007   1.836  0.2847  0.6643  1.1013
  973MOL0     H31302   2.308   1.158   1.885 -1.0406 -0.6165 -1.9507
  973MOL0     H31303   2.466   1.228   1.838 -0.3605  0.1136 -2.0518
  973MOL0     H31304   2.287   1.223   1.664 -2.9354 -3.6530 -1.4622
  973MOL0     H31305   2.326   1.050   1.651 -1.5856 -0.4122  0.4123
  973MOL0     H31306   2.479   1.408   1.617  0.5329 -0.2279  0.1055
  973MOL0     H31307   2.711   1.495   1.466 -0.9922  0.0636  1.2080
  973MOL0     H31308   2.783   1.478   1.616 -1.0730  1.0221  0.0226
  973MOL0     H31309   2.877   1.330   1.377  0.5231  0.1179  0.2736
  973MOL0     H31310   2.926   1.299   1.549 -1.8179 -2.4039 -0.9882
  973MOL0     H31311   3.031   1.526   1.565  2.6000  0.9284 -0.7547
  973MOL0     H31312   2.971   1.570   1.400 -2.2931 -2.0585 -1.5576
  973MOL0     H31313   3.221   1.499   1.402 -1.8911  1.6731  1.0438
  973MOL0     H31314   3.114   1.398   1.311  0.7390  0.3086 -0.4579
  973MOL0     H31315   3.239   1.095   1.614 -0.6547 -0.8413 -0.8158
  973MOL0     H31316   3.365   0.901   1.664 -0.2062 -1.5569  1.3210
  973MOL0     H31317   3.455   0.825   1.533  0.0314  0.1808  2.1791
  973MOL0     H31318   3.533   0.942   1.637 -0.1611  2.2564 -2.4184
  973MOL0     H31319   3.920   0.993   1.410  2.2627  0.1168 -0.7834
  973MOL0     H31320   4.135   0.944   1.340 -1.7900 -0.7153  0.8928
  973MOL0     H31321   4.320   0.943   1.177  2.1830 -0.1980 -0.8991
  973MOL0     H31322   4.298   0.808   1.276 -0.0377  1.3916  0.6846
  973MOL0     H31323   4.392   0.757   0.990 -0.7199 -1.0925 -0.1682
  973MOL0     H31324   4.515   0.800   1.107  0.7066  0.0754  0.7983
  973MOL0     H31325   4.499   0.576   1.043 -0.3495 -0.3591 -1.5086
  973MOL0     H31326   4.325   0.565   1.085  0.7388 -1.0712 -0.2391
  973MOL0     H31327   4.566   0.597   1.266 -0.2278 -1.5176  1.4897
  973MOL0     H31328   4.412   0.595   1.336  1.1026 -1.5197  0.6461
  973MOL0     H31329   4.532   0.373   1.163 -0.8140  2.5647 -0.4569
  973MOL0     H31330   4.376   0.358   1.254 -0.6494  0.0589  0.3235
  973MOL0     H31331   4.642   0.425   1.391 -0.7699  0.9925 -3.3909
  973MOL0     H31332   4.485   0.424   1.460  0.5767 -1.2072  2.6586
  973MOL0     H31333   4.648   0.211   1.487  1.1195 -2.2346 -2.0007
  973MOL0     H31334   4.607   0.163   1.328  0.4387 -1.0303  0.2934
  973MOL0     H31335   4.457   0.047   1.443  2.8755 -0.1056  1.2303
  973MOL0     H31336   4.361   0.199   1.422  0.2356 -2.9762 -3.6783
  973MOL0     H31337   3.975   0.849   0.949 -2.9835  2.9297 -2.2384
  973MOL0     H31338   3.750   0.956   1.020 -0.6665 -0.8225  0.5917
  973MOL0     H31339   3.473   1.184   1.181 -0.3418  0.9689 -0.0317
  973MOL0     H31340   3.320   1.331   1.251 -2.2387 -0.1189  0.4942
  973MOL0     H31341   2.247   0.802   1.520  2.4644  0.5484  1.6844
  973MOL0     H31342   2.193   0.975   1.337 -0.5688 -4.4465 -0.3028
  973MOL0     H31343   2.228   1.456   1.173 -0.7806  0.0176 -0.0244
  973MOL0     H31344   2.240   1.600   0.971  1.0501  0.4412 -0.4350
  973MOL0     H31345   2.502   1.633   0.616  0.1060  0.2250  0.3548
  973MOL0     H31346   2.559   1.487   0.702  1.4255 -0.2505 -2.8237
  973MOL0     H31347   2.439   1.353   0.572  0.5459  0.2918 -1.6435
  973MOL0     H31348   2.499   1.458   0.450 -4.2086 -0.8650 -3.1513
  973MOL0     H31349   2.233   1.501   0.578  1.5862 -2.5335  2.0129
  973MOL0     H31350   2.259   1.430   0.413  1.0597 -0.4768  0.1311
  973MOL0     H31351   2.405   1.682   0.412 -2.0675  3.7959 -0.2656
  973MOL0     H31352   2.269   1.711   0.519 -0.2719 -1.7342  1.8102
  973MOL0     H31353   2.125   1.719   0.127  0.3546 -1.9919  0.2753
  973MOL0     H31354   2.444   1.282   0.766 -1.6547  1.3468 -2.3738
  973MOL0     H31355   2.415   1.138   0.958 -0.1387  0.5082  0.7755
  974MOL0     O31356  10.812   2.383   9.982 -0.2366 -0.4154 -0.1468
  974MOL0     C31357  10.918   2.370  10.051 -0.3864  0.9050  0.1620
  974MOL0     O31358  10.923   2.322  10.177 -0.4346  0.2060  0.2081
  974MOL0     C31359  10.807   2.259  10.207  0.9847 -1.1021 -0.1662
  974MOL0     C31360  10.768   2.133  10.159 -0.1455  0.5248 -0.1215
  974MOL0     C31361  10.656   2.075  10.209 -0.5345 -0.4622  0.1921
  974MOL0     C31362  10.570   2.150  10.290  0.1762  0.0244 -0.3731
  974MOL0     O31363  10.458   2.097  10.349  0.2159 -0.9417  0.6016
  974MOL0     C31364  10.422   1.961  10.336  0.2782  0.3056 -0.2713
  974MOL0     C31365  10.290   1.935  10.410 -0.0537 -0.4204 -0.0841
  974MOL0     C31366  10.314   1.988  10.554  0.3909 -0.2150 -0.2279
  974MOL0     C31367  10.236   1.894  10.649  0.3418 -0.8110 -0.5536
  974MOL0     C31368  10.301   1.903  10.794  0.2538 -0.3127  0.0313
  974MOL0     C31369  10.241   1.813  10.895 -0.2854  0.7238  0.0360
  974MOL0     C31370  10.307   1.822  11.033  0.2710 -0.5560  0.3994
  974MOL0     C31371  10.237   1.918  11.126 -0.4610 -0.1816  0.0835
  974MOL0     N31372  10.212   2.054  11.072  0.2548  0.1771  0.3820
  974MOL0     C31373  10.118   2.085  10.988  0.1554 -0.1472  0.5754
  974MOL0     C31374  10.140   2.216  10.957 -1.1014  0.0455  0.0553
  974MOL0     C31375  10.056   2.284  10.857  0.1256  1.3845  1.1207
  974MOL0     C31376   9.916   2.276  10.888  0.4382 -0.4132 -0.1797
  974MOL0     C31377   9.822   2.352  10.795 -0.5534  0.5426  0.4129
  974MOL0     C31378   9.858   2.363  10.643 -0.5760  0.3281 -0.3190
  974MOL0     O31379   9.915   2.237  10.581  0.0173  0.3926 -0.7866
  974MOL0     C31380   9.828   2.142  10.541  0.1396 -1.2895  0.0908
  974MOL0     C31381   9.879   2.023  10.492  0.9317 -0.6159  0.6034
  974MOL0     C31382   9.808   1.924  10.430  0.2087  1.0048  0.1415
  974MOL0     C31383   9.893   1.805  10.374  0.4202  0.1300 -0.6327
  974MOL0     C31384   9.673   1.940  10.414  0.1434  0.7631 -0.3879
  974MOL0     C31385   9.591   1.839  10.354 -0.4363 -0.2591 -0.1998
  974MOL0     O31386   9.488   1.806  10.428 -0.0860  0.3798 -0.5999
  974MOL0     C31387   9.395   1.716  10.390 -1.2656  0.1702  1.0115
  974MOL0     C31388   9.350   1.637  10.486  0.0435  0.5862  0.0873
  974MOL0     C31389   9.235   1.556  10.465 -0.0428 -0.0121  0.3655
  974MOL0     C31390   9.182   1.540  10.341  0.6901  0.2807  0.1426
  974MOL0     O31391   9.081   1.447  10.332 -0.3982 -0.1744  0.5277
  974MOL0     C31392   8.969   1.504  10.265 -0.4984 -0.7253  1.0675
  974MOL0     C31393   8.858   1.396  10.246  0.9029  0.4523 -0.5997
  974MOL0     C31394   8.895   1.314  10.126 -0.5579 -1.0018  0.3979
  974MOL0     C31395   8.837   1.172  10.140 -0.1568  0.6003  0.5610
  974MOL0     C31396   8.873   1.098  10.009 -0.5236 -0.4288 -1.4539
  974MOL0     C31397   8.810   0.953  10.002  0.6394 -0.6470  1.0797
  974MOL0     C31398   8.789   0.919   9.851 -0.0401  0.1218 -0.2592
  974MOL0     C31399   8.896   0.825   9.789  0.0062 -0.1412  0.0389
  974MOL0    Cl31400   8.885   0.662   9.856 -0.0904 -0.0690 -0.3027
  974MOL0     C31401   9.231   1.618  10.230  0.2206 -0.5852  0.3583
  974MOL0     C31402   9.334   1.704  10.258  0.0547  0.1309  1.0878
  974MOL0     O31403   9.622   1.792  10.249  0.4400  0.3531  0.1641
  974MOL0     C31404   9.613   2.052  10.473  1.0112 -0.5472 -0.3236
  974MOL0     C31405   9.688   2.145  10.538 -0.4622 -0.5570  0.3235
  974MOL0     N31406  10.253   2.269  11.030  1.2674 -1.0383 -0.1012
  974MOL0     N31407  10.295   2.160  11.090  0.4968  0.2354 -0.2844
  974MOL0     C31408  10.600   2.275  10.340  0.3092  0.0812 -0.0096
  974MOL0     C31409  10.715   2.328  10.296 -0.6182  0.9061  0.0972
  974MOL0     C31410  11.048   2.423   9.986  0.1030 -0.8324  0.3292
  974MOL0     C31411  11.166   2.433  10.053 -0.8166  0.0089 -0.1514
  974MOL0     C31412  11.287   2.470   9.992  0.0982 -0.5631  0.6627
  974MOL0     C31413  11.283   2.483   9.849 -0.5402  1.0773 -0.5327
  974MOL0     O31414  11.393   2.518   9.772  0.2145 -0.3575  0.1428
  974MOL0     C31415  11.521   2.558   9.834  0.1838 -0.5907  0.3978
  974MOL0     C31416  11.623   2.435   9.831 -0.6817 -0.0441  0.3305
  974MOL0     C31417  11.762   2.485   9.881  0.2992  0.2306 -0.7405
  974MOL0     C31418  11.863   2.381   9.832 -0.6363  0.9293 -0.0713
  974MOL0     C31419  11.996   2.391   9.896  0.3051  0.3328  0.9898
  974MOL0     C31420  12.104   2.399   9.937  0.4627 -0.4525 -0.6353
  974MOL0     C31421  11.164   2.475   9.779 -0.1592  0.2283 -0.2964
  974MOL0     C31422  11.052   2.438   9.845  0.0866 -0.3984  0.3167
  974MOL0     H31423  10.822   2.072  10.088  1.4369  1.7879 -0.0660
  974MOL0     H31424  10.621   1.976  10.180  0.5664 -0.9037  0.3076
  974MOL0     H31425  10.405   1.937  10.231 -0.4487  2.3128 -0.6644
  974MOL0     H31426  10.510   1.909  10.374  2.6674  3.2593 -1.3157
  974MOL0     H31427  10.204   1.981  10.361 -0.5195 -3.0012 -1.9380
  974MOL0     H31428  10.266   1.828  10.405  0.7867 -0.6324  0.2158
  974MOL0     H31429  10.417   1.992  10.588  0.9012  1.3292 -1.7891
  974MOL0     H31430  10.278   2.092  10.548 -0.0884 -0.3339  0.5222
  974MOL0     H31431  10.135   1.937  10.644  0.5930 -0.3613 -2.8170
  974MOL0     H31432  10.233   1.787  10.626 -0.1689 -0.8812 -0.1880
  974MOL0     H31433  10.408   1.884  10.782 -0.2319 -2.3233 -1.8451
  974MOL0     H31434  10.283   2.004  10.832  1.2870 -0.6967  1.6490
  974MOL0     H31435  10.133   1.828  10.907 -1.1652 -4.0450  0.3004
  974MOL0     H31436  10.239   1.709  10.862 -3.1279  0.0000  2.0364
  974MOL0     H31437  10.296   1.723  11.078 -1.4967 -1.0776 -1.0706
  974MOL0     H31438  10.410   1.861  11.033 -0.0060  0.2919  2.6342
  974MOL0     H31439  10.297   1.916  11.217  1.0698  0.7468 -0.8682
  974MOL0     H31440  10.136   1.881  11.149 -0.2122  0.8399  3.3626
  974MOL0     H31441  10.041   2.021  10.948  1.9512 -2.8335  1.1910
  974MOL0     H31442  10.089   2.388  10.849  1.8195  0.9167  1.6574
  974MOL0     H31443  10.069   2.236  10.760 -0.9203  0.7020  1.3020
  974MOL0     H31444   9.909   2.314  10.990  0.3234  2.2217 -1.1061
  974MOL0     H31445   9.881   2.172  10.890 -3.9804  0.8751 -0.7952
  974MOL0     H31446   9.805   2.454  10.832 -0.5751  2.3263 -3.9573
  974MOL0     H31447   9.734   2.287  10.799  0.1392 -0.8126 -3.1131
  974MOL0     H31448   9.927   2.447  10.632  0.2573 -0.3537 -0.4514
  974MOL0     H31449   9.763   2.385  10.594 -1.3179 -0.2537  0.8089
  974MOL0     H31450   9.986   2.005  10.495  1.2466  1.1805  1.6465
  974MOL0     H31451   9.944   1.851  10.288 -0.7621  2.4847 -0.1601
  974MOL0     H31452   9.966   1.770  10.448 -1.8594 -1.7076  0.8844
  974MOL0     H31453   9.833   1.718  10.346  1.6723 -1.4230  1.2349
  974MOL0     H31454   9.385   1.647  10.589 -3.0361  0.9808  1.2207
  974MOL0     H31455   9.204   1.494  10.549  0.6921 -0.1721  0.5239
  974MOL0     H31456   8.923   1.584  10.323  1.3583  1.4448 -0.3193
  974MOL0     H31457   8.989   1.547  10.167 -3.0290  2.0662  1.6449
  974MOL0     H31458   8.864   1.334  10.336  3.3347  1.8891  0.3137
  974MOL0     H31459   8.759   1.443  10.243  0.5321 -0.2715 -3.8068
  974MOL0     H31460   9.000   1.314  10.094 -0.7781 -1.8710 -0.3417
  974MOL0     H31461   8.833   1.361  10.049 -0.2756  1.6298  1.6389
  974MOL0     H31462   8.895   1.123  10.219  1.1391 -1.3251 -1.4778
  974MOL0     H31463   8.728   1.168  10.152 -0.4619 -3.2987 -1.6004
  974MOL0     H31464   8.979   1.073  10.011 -0.8057 -2.0561 -3.7060
  974MOL0     H31465   8.856   1.156   9.918  0.7405  0.7653 -0.9748
  974MOL0     H31466   8.867   0.871  10.047  1.9080 -0.1008  0.5112
  974MOL0     H31467   8.708   0.965  10.040 -0.2342  4.1532 -1.9146
  974MOL0     H31468   8.788   1.012   9.794 -0.3043  2.4425  3.2259
  974MOL0     H31469   8.690   0.874   9.842 -0.5624  1.3172 -0.6964
  974MOL0     H31470   8.993   0.875   9.793  0.1377 -0.4539  3.2441
  974MOL0     H31471   8.876   0.814   9.682  2.6944 -1.1293 -0.4522
  974MOL0     H31472   9.209   1.621  10.124  0.4326  2.1369  0.3193
  974MOL0     H31473   9.376   1.769  10.182 -1.5152 -0.2387 -0.1332
  974MOL0     H31474   9.505   2.052  10.477  1.0117  0.2161 -0.2742
  974MOL0     H31475   9.631   2.231  10.571 -0.0064  0.2093 -0.8298
  974MOL0     H31476  10.533   2.304  10.420  2.1043  1.2800  1.1361
  974MOL0     H31477  10.748   2.423  10.338  1.8642  0.3355 -0.3801
  974MOL0     H31478  11.175   2.394  10.154  3.0017  0.5622 -0.1525
  974MOL0     H31479  11.372   2.455  10.057 -1.2729  0.2780  2.7575
  974MOL0     H31480  11.562   2.639   9.773 -0.7956  0.3037  0.9023
  974MOL0     H31481  11.518   2.594   9.937  4.6362 -2.6024  1.4760
  974MOL0     H31482  11.633   2.402   9.728 -0.0240 -1.9969  0.9675
  974MOL0     H31483  11.586   2.351   9.890 -2.3710 -1.0824 -2.0824
  974MOL0     H31484  11.779   2.495   9.988  1.0891 -0.7321 -0.7629
  974MOL0     H31485  11.783   2.581   9.834  0.9263  0.5797  0.2361
  974MOL0     H31486  11.872   2.398   9.724  1.0466 -2.2461 -0.5590
  974MOL0     H31487  11.830   2.279   9.856  2.1109  0.3666  1.7386
  974MOL0     H31488  12.210   2.407   9.951  0.7013 -2.1640 -1.2903
  974MOL0     H31489  11.163   2.490   9.672 -1.2884  0.3962 -0.2700
  974MOL0     H31490  10.959   2.427   9.791 -0.4150 -0.3665  1.1580
  975MOL0     O31491   9.714   2.778   9.359  0.3628 -0.5124  0.1166
  975MOL0     C31492   9.673   2.837   9.260  0.7431  0.3055  0.9430
  975MOL0     O31493   9.549   2.825   9.201  1.1826  0.5424  0.0252
  975MOL0     C31494   9.442   2.757   9.256  1.7092 -0.4930  0.0261
  975MOL0     C31495   9.455   2.639   9.315  1.4188  0.2050 -0.5934
  975MOL0     C31496   9.330   2.578   9.356 -0.0130  1.1109  0.0195
  975MOL0     C31497   9.202   2.633   9.338 -0.2221 -0.1724  0.0329
  975MOL0     O31498   9.087   2.564   9.366  0.4322 -0.1691 -0.3125
  975MOL0     C31499   9.036   2.591   9.490 -0.2075 -0.0654 -0.4113
  975MOL0     C31500   8.894   2.541   9.496 -0.4882 -1.4528 -0.9007
  975MOL0     C31501   8.799   2.629   9.408  0.0622 -0.5422  0.5555
  975MOL0     C31502   8.654   2.604   9.441  0.0473  0.5194 -0.1520
  975MOL0     C31503   8.554   2.683   9.359  0.3150 -0.3036  1.1095
  975MOL0     C31504   8.411   2.709   9.415 -0.2319 -0.2207 -0.3871
  975MOL0     C31505   8.342   2.813   9.338 -0.1383  0.0594  0.6497
  975MOL0     C31506   8.413   2.954   9.321  0.3112  0.4208  0.7843
  975MOL0     N31507   8.330   3.045   9.262  0.1421  0.4743 -0.6858
  975MOL0     C31508   8.238   3.117   9.331  0.1233 -0.5598  0.1279
  975MOL0     C31509   8.225   3.234   9.262  0.0815 -0.3235 -0.9153
  975MOL0     C31510   8.139   3.349   9.297  0.0541 -0.5087  0.5051
  975MOL0     C31511   8.229   3.469   9.327  0.3465  0.4474 -0.3714
  975MOL0     C31512   8.161   3.589   9.395  0.7615 -0.1398 -1.0360
  975MOL0     C31513   8.027   3.626   9.327  0.7142  0.3926  0.2888
  975MOL0     O31514   7.915   3.541   9.355  0.0280  0.8775  0.1554
  975MOL0     C31515   7.786   3.572   9.325  0.0970 -0.1228  0.7268
  975MOL0     C31516   7.685   3.482   9.332  0.1878  0.5032  0.3627
  975MOL0     C31517   7.549   3.507   9.308  0.0230  0.2019  0.1066
  975MOL0     C31518   7.472   3.385   9.314  0.6721  0.5218  0.4750
  975MOL0     C31519   7.504   3.641   9.285  0.7515 -0.4506 -0.2656
  975MOL0     C31520   7.363   3.677   9.272 -0.0262 -0.6877 -0.1500
  975MOL0     O31521   7.335   3.810   9.283 -0.4399  0.3085 -0.2011
  975MOL0     C31522   7.206   3.855   9.280 -0.5103 -0.0159  0.6670
  975MOL0     C31523   7.115   3.796   9.370  0.0925  0.0248 -0.4215
  975MOL0     C31524   6.982   3.828   9.375 -0.9731  0.5097 -0.0215
  975MOL0     C31525   6.934   3.933   9.299  0.1006  0.0330 -0.3052
  975MOL0     O31526   6.813   3.977   9.342  0.3029  0.5424 -0.1473
  975MOL0     C31527   6.733   4.080   9.278 -0.1956  0.7011 -0.2377
  975MOL0     C31528   6.767   4.215   9.346 -0.1291  0.0882 -0.6324
  975MOL0     C31529   6.721   4.223   9.494  0.3538  0.4857  1.1047
  975MOL0     C31530   6.756   4.358   9.550 -0.2011  0.0448  0.7447
  975MOL0     C31531   6.692   4.361   9.690 -0.3302  0.5352 -1.0624
  975MOL0     C31532   6.770   4.286   9.806 -0.3764  0.5174  0.4994
  975MOL0     C31533   6.754   4.357   9.936  0.3491 -0.5575 -0.9484
  975MOL0     C31534   6.806   4.283  10.052  0.8794 -0.3051  0.1606
  975MOL0    Cl31535   6.766   4.389  10.194  0.0905  0.0550  0.0894
  975MOL0     C31536   7.024   4.000   9.208  0.3396 -0.0967 -0.8338
  975MOL0     C31537   7.158   3.966   9.205  0.1493  0.2183  0.1718
  975MOL0     O31538   7.277   3.588   9.262 -0.6385  0.0056 -0.5496
  975MOL0     C31539   7.613   3.728   9.261 -0.5195 -0.2481 -0.8205
  975MOL0     C31540   7.751   3.700   9.282 -0.1930 -0.4013  0.3634
  975MOL0     N31541   8.310   3.234   9.155  0.3532  0.0211  0.6487
  975MOL0     N31542   8.359   3.109   9.143  0.1113 -0.1450 -0.6715
  975MOL0     C31543   9.196   2.755   9.275  0.2289  0.2259 -0.3653
  975MOL0     C31544   9.317   2.819   9.237  0.3388 -0.1813  0.0903
  975MOL0     C31545   9.770   2.934   9.195 -0.0762 -0.1068 -0.2190
  975MOL0     C31546   9.728   3.041   9.108  1.0509  0.0390  0.5376
  975MOL0     C31547   9.819   3.129   9.043 -0.0220 -0.0279 -0.1731
  975MOL0     C31548   9.959   3.112   9.066 -0.3265 -0.7200 -1.0285
  975MOL0     O31549  10.032   3.205   8.999 -0.9186 -0.1586  0.4059
  975MOL0     C31550  10.176   3.207   9.022 -0.1185 -0.0382  0.2611
  975MOL0     C31551  10.266   3.143   8.915 -0.1861 -0.4581 -0.5177
  975MOL0     C31552  10.210   2.998   8.854 -0.3457 -0.2432 -1.0616
  975MOL0     C31553  10.323   2.933   8.766  0.5163 -0.5349 -0.2224
  975MOL0     C31554  10.267   2.805   8.711  0.2958 -0.0863 -0.3788
  975MOL0     C31555  10.201   2.713   8.665 -0.4431  0.3578  0.0743
  975MOL0     C31556  10.003   3.012   9.161  0.3328 -0.3593 -0.2125
  975MOL0     C31557   9.906   2.925   9.214 -0.4681 -0.4466  0.5419
  975MOL0     H31558   9.553   2.594   9.327  2.1240  2.0895  1.3463
  975MOL0     H31559   9.346   2.483   9.406  0.2999  0.3451 -1.5049
  975MOL0     H31560   9.084   2.538   9.573 -0.6724  1.1747  0.6753
  975MOL0     H31561   9.025   2.697   9.510 -0.0751  0.0057 -0.7079
  975MOL0     H31562   8.876   2.435   9.478 -0.1222 -1.4476 -1.3089
  975MOL0     H31563   8.860   2.550   9.600 -0.4118 -1.6085 -0.8608
  975MOL0     H31564   8.831   2.733   9.413  2.8282 -1.1917 -1.2496
  975MOL0     H31565   8.819   2.595   9.306 -1.0604 -2.7337  1.0116
  975MOL0     H31566   8.634   2.497   9.451  1.0553  0.2646 -0.7719
  975MOL0     H31567   8.643   2.639   9.545 -2.2124  1.3348 -0.6087
  975MOL0     H31568   8.603   2.779   9.345  1.9826 -1.4817 -2.2255
  975MOL0     H31569   8.539   2.636   9.261 -1.3921  1.8052  0.2845
  975MOL0     H31570   8.346   2.621   9.423  0.8211 -1.0711 -0.9076
  975MOL0     H31571   8.429   2.736   9.519 -1.8500 -1.5061  0.2725
  975MOL0     H31572   8.321   2.780   9.236  0.9199 -0.9439  0.7406
  975MOL0     H31573   8.253   2.837   9.397  0.3097 -1.9473  2.2649
  975MOL0     H31574   8.509   2.946   9.269  0.9155 -0.7982  2.0014
  975MOL0     H31575   8.436   2.984   9.424 -0.1765 -0.2613  1.1002
  975MOL0     H31576   8.206   3.092   9.431  0.4221 -0.0008  0.3702
  975MOL0     H31577   8.087   3.368   9.202  1.3289 -0.4871 -0.2099
  975MOL0     H31578   8.068   3.324   9.376  0.3229 -1.1686  0.5427
  975MOL0     H31579   8.277   3.494   9.232 -1.2347 -1.3200 -1.7105
  975MOL0     H31580   8.309   3.447   9.398 -1.4626 -1.4749  1.2152
  975MOL0     H31581   8.228   3.675   9.384  0.0306  0.4284 -1.1342
  975MOL0     H31582   8.145   3.563   9.500 -3.0743  1.2604 -1.0912
  975MOL0     H31583   8.048   3.626   9.220 -0.2795 -1.0740  0.0615
  975MOL0     H31584   8.004   3.730   9.353 -1.7095  0.0643 -0.3228
  975MOL0     H31585   7.725   3.382   9.341  2.8491  1.4255 -0.2897
  975MOL0     H31586   7.425   3.361   9.218  1.4116 -1.6731  0.5861
  975MOL0     H31587   7.537   3.297   9.323 -2.4430 -1.9799  0.2284
  975MOL0     H31588   7.407   3.382   9.402  1.4679 -0.4754  1.0540
  975MOL0     H31589   7.167   3.738   9.445  2.7751  1.3754 -1.1087
  975MOL0     H31590   6.911   3.780   9.442  1.3970 -1.8563  0.9614
  975MOL0     H31591   6.772   4.078   9.175  1.2973 -2.7747  0.2441
  975MOL0     H31592   6.626   4.058   9.282  0.0192 -0.5067 -0.5560
  975MOL0     H31593   6.875   4.230   9.341 -0.2259  0.5101 -1.8083
  975MOL0     H31594   6.713   4.300   9.301  1.1218  1.9642  1.2303
  975MOL0     H31595   6.764   4.144   9.556 -0.3144 -0.7929 -0.0187
  975MOL0     H31596   6.612   4.210   9.493  0.4831 -1.3281 -1.9703
  975MOL0     H31597   6.866   4.360   9.555  0.0811  0.4126 -2.7153
  975MOL0     H31598   6.717   4.438   9.486  2.2151 -0.2953 -1.3228
  975MOL0     H31599   6.593   4.315   9.688  0.0040 -0.3374  0.7383
  975MOL0     H31600   6.687   4.466   9.720  3.7392  0.1081  1.9400
  975MOL0     H31601   6.730   4.185   9.814  0.3606  0.1143 -0.6865
  975MOL0     H31602   6.876   4.299   9.781 -0.3063 -0.3680  0.3033
  975MOL0     H31603   6.645   4.357   9.937  0.3401 -1.0662 -1.3537
  975MOL0     H31604   6.783   4.462   9.935 -1.4410  0.1010  2.6419
  975MOL0     H31605   6.915   4.272  10.050  0.9252  0.1763 -0.2544
  975MOL0     H31606   6.749   4.190  10.058  1.9389 -1.1305 -1.5505
  975MOL0     H31607   6.995   4.093   9.160 -0.6410 -0.4368 -0.9232
  975MOL0     H31608   7.226   4.023   9.142  0.8843  1.0517  1.6674
  975MOL0     H31609   7.595   3.832   9.233 -2.2342 -0.1496  0.4963
  975MOL0     H31610   7.817   3.786   9.273  0.7904 -1.3098 -1.6744
  975MOL0     H31611   9.098   2.797   9.251  1.6000  3.3233 -0.9806
  975MOL0     H31612   9.306   2.912   9.182 -1.6331 -0.5115 -0.1613
  975MOL0     H31613   9.622   3.046   9.087  1.0872 -2.1439 -0.4858
  975MOL0     H31614   9.776   3.197   8.971  2.7109  0.3222 -1.6433
  975MOL0     H31615  10.201   3.313   9.022 -1.5941  0.3381 -1.3104
  975MOL0     H31616  10.192   3.162   9.121 -1.9055 -0.2859  0.4613
  975MOL0     H31617  10.364   3.126   8.961 -0.4719  1.7741  1.0662
  975MOL0     H31618  10.288   3.209   8.831  1.5291 -1.0281 -0.5593
  975MOL0     H31619  10.120   3.014   8.795 -0.1187 -1.1922 -1.6805
  975MOL0     H31620  10.179   2.936   8.939  0.6279  0.1267 -0.4186
  975MOL0     H31621  10.412   2.912   8.825  0.2109  1.2073  0.9533
  975MOL0     H31622  10.341   3.000   8.681 -0.8362  0.2204  0.0471
  975MOL0     H31623  10.147   2.634   8.616 -1.1608  0.3300  0.8853
  975MOL0     H31624  10.105   2.990   9.187  0.2999  1.1356  1.3053
  975MOL0     H31625   9.938   2.837   9.268  0.4622  0.2071  1.0963
  976MOL0     O31626   3.330   2.382  10.491  0.4292  0.0585  0.2207
  976MOL0     C31627   3.316   2.257  10.522 -0.0475 -0.2756 -0.1877
  976MOL0     O31628   3.207   2.200  10.578 -0.6811  0.1927  0.3864
  976MOL0     C31629   3.099   2.284  10.595  0.3637 -0.2625 -0.5276
  976MOL0     C31630   3.045   2.300  10.722 -0.5826 -0.2580  0.0881
  976MOL0     C31631   2.922   2.373  10.746 -0.5311  0.2730 -0.3151
  976MOL0     C31632   2.875   2.429  10.624  0.1716  0.3448 -0.4533
  976MOL0     O31633   2.771   2.519  10.639  0.5898 -0.0445 -0.4120
  976MOL0     C31634   2.657   2.471  10.721  0.2421 -0.0815  0.1498
  976MOL0     C31635   2.525   2.548  10.677 -0.5593 -0.1319 -0.1175
  976MOL0     C31636   2.393   2.497  10.721  0.1880  0.6692 -0.0231
  976MOL0     C31637   2.277   2.549  10.635 -1.0045  0.2391  0.2542
  976MOL0     C31638   2.150   2.475  10.658  0.4365 -0.5981  0.2147
  976MOL0     C31639   2.055   2.552  10.555 -0.0263  0.1205  0.5013
  976MOL0     C31640   1.909   2.514  10.585  0.2563 -0.0796  0.3982
  976MOL0     C31641   1.874   2.384  10.506  0.2305 -0.7136  0.1203
  976MOL0     N31642   1.732   2.361  10.504 -0.3321 -0.3050  0.0287
  976MOL0     C31643   1.649   2.417  10.409  0.4399 -0.2310  0.0143
  976MOL0     C31644   1.523   2.391  10.447 -0.5578  0.7348 -0.1761
  976MOL0     C31645   1.400   2.444  10.382 -0.4114  0.4736  0.4954
  976MOL0     C31646   1.272   2.361  10.410 -0.6320 -0.5261  0.1538
  976MOL0     C31647   1.294   2.219  10.351 -0.6395 -0.2437 -0.5832
  976MOL0     C31648   1.163   2.145  10.339 -0.4374  0.3394 -0.1432
  976MOL0     O31649   1.103   2.129  10.471  0.1816 -0.8848  0.7320
  976MOL0     C31650   0.970   2.143  10.493  0.1127 -0.5025 -0.5145
  976MOL0     C31651   0.894   2.237  10.421 -0.3427  0.5626  0.3909
  976MOL0     C31652   0.755   2.248  10.449  0.8310 -0.1736 -0.7855
  976MOL0     C31653   0.691   2.369  10.361 -0.1848  0.3412 -0.2714
  976MOL0     C31654   0.678   2.157  10.528 -0.7423 -0.4315 -0.1212
  976MOL0     C31655   0.528   2.159  10.544  0.6066 -0.1276  0.7673
  976MOL0     O31656   0.457   2.243  10.465  0.1076  0.4790  0.8316
  976MOL0     C31657   0.331   2.274  10.501 -0.3967  0.4020  0.3464
  976MOL0     C31658   0.224   2.237  10.409  0.5138  0.5132 -0.4688
  976MOL0     C31659   0.089   2.270  10.435 -0.7734 -0.1966  0.9507
  976MOL0     C31660   0.054   2.330  10.556  0.0250 -0.1402 -0.0169
  976MOL0     O31661  -0.072   2.377  10.593 -0.7885 -0.4318  0.7695
  976MOL0     C31662  -0.181   2.306  10.541 -0.2100  0.1180 -0.0895
  976MOL0     C31663  -0.317   2.355  10.607  0.6211  0.9813 -0.7693
  976MOL0     C31664  -0.353   2.291  10.742 -0.4819  1.0777  0.1255
  976MOL0     C31665  -0.395   2.142  10.725 -0.5518  0.3484  0.3789
  976MOL0     C31666  -0.431   2.081  10.857  0.0357  0.9014  0.3539
  976MOL0     C31667  -0.580   2.109  10.885  0.1253  0.6424 -0.6557
  976MOL0     C31668  -0.631   2.037  11.019  0.2445 -0.8485  0.7967
  976MOL0     C31669  -0.773   2.076  11.056 -1.3506 -1.2987  0.6814
  976MOL0    Cl31670  -0.816   1.980  11.198  0.1839  0.4711  0.0994
  976MOL0     C31671   0.157   2.373  10.640  0.5242 -0.1058 -0.0982
  976MOL0     C31672   0.291   2.340  10.614  0.2980  0.1268 -0.5672
  976MOL0     O31673   0.485   2.078  10.620  0.1994 -0.8100 -0.8515
  976MOL0     C31674   0.753   2.062  10.593 -0.6532  0.6288  0.5414
  976MOL0     C31675   0.894   2.057  10.579  0.3782  0.0842  0.0034
  976MOL0     N31676   1.529   2.333  10.568 -0.7920  0.3273 -0.3432
  976MOL0     N31677   1.648   2.319  10.611 -0.1061 -0.6351  0.1342
  976MOL0     C31678   2.929   2.422  10.504 -0.0284 -0.3075 -0.0647
  976MOL0     C31679   3.044   2.346  10.483 -0.0817 -0.8076 -0.7145
  976MOL0     C31680   3.439   2.177  10.521 -0.9093  0.0541  0.4507
  976MOL0     C31681   3.557   2.239  10.483  0.2871  0.4123  0.1323
  976MOL0     C31682   3.671   2.165  10.465  0.7391  0.6929 -0.0397
  976MOL0     C31683   3.674   2.029  10.490  0.0428  0.8484  0.1402
  976MOL0     O31684   3.779   1.952  10.473 -0.2893  0.2718  0.6419
  976MOL0     C31685   3.901   2.013  10.444 -1.3244  0.6375  1.0008
  976MOL0     C31686   4.019   1.912  10.436 -0.2942  0.1473  0.3690
  976MOL0     C31687   4.154   1.979  10.422  0.2714 -0.4697 -0.4629
  976MOL0     C31688   4.275   1.875  10.439  0.3570 -0.4673  0.8735
  976MOL0     C31689   4.402   1.942  10.410  1.1106 -0.6099  1.1522
  976MOL0     C31690   4.501   2.003  10.375 -0.3352  0.9908 -0.3908
  976MOL0     C31691   3.563   1.968  10.532 -0.3333  0.9663 -0.4894
  976MOL0     C31692   3.451   2.042  10.558  0.8996  0.5226  0.1511
  976MOL0     H31693   3.079   2.243  10.808 -0.0997  0.7579  0.5824
  976MOL0     H31694   2.867   2.397  10.836 -2.4906  0.7871 -1.5850
  976MOL0     H31695   2.648   2.362  10.715 -1.9194  0.1233 -1.4163
  976MOL0     H31696   2.670   2.480  10.830  0.0304 -3.9331  0.6300
  976MOL0     H31697   2.544   2.642  10.730 -2.7372  0.8180 -0.9365
  976MOL0     H31698   2.528   2.566  10.570  0.5065  3.5375  0.4094
  976MOL0     H31699   2.402   2.388  10.722 -1.2535  0.4987 -1.4488
  976MOL0     H31700   2.370   2.527  10.823  1.7288  1.4767  0.1141
  976MOL0     H31701   2.260   2.657  10.641 -1.9184  0.0849  0.6328
  976MOL0     H31702   2.306   2.534  10.531  1.7140  2.0306  0.6661
  976MOL0     H31703   2.160   2.373  10.622  1.7192 -0.9533  1.5217
  976MOL0     H31704   2.112   2.476  10.761  0.9833  0.2593  0.4251
  976MOL0     H31705   2.074   2.659  10.572  3.5766 -0.4510  1.0115
  976MOL0     H31706   2.091   2.521  10.456 -1.5680 -0.8627  0.2204
  976MOL0     H31707   1.886   2.499  10.690  0.0630  1.1701  0.5446
  976MOL0     H31708   1.842   2.598  10.562 -1.2125 -1.3558 -0.2010
  976MOL0     H31709   1.920   2.294  10.547 -1.8312 -2.0099 -0.2789
  976MOL0     H31710   1.908   2.381  10.402 -1.0612 -0.4033 -0.3285
  976MOL0     H31711   1.676   2.476  10.322 -0.7187 -0.9299 -0.8369
  976MOL0     H31712   1.383   2.548  10.409  0.3145  0.8163 -0.3214
  976MOL0     H31713   1.424   2.450  10.275  1.1324  2.4009  0.8908
  976MOL0     H31714   1.184   2.413  10.373 -1.1529  0.0261  2.0911
  976MOL0     H31715   1.248   2.345  10.515 -1.8187 -3.0583 -0.4172
  976MOL0     H31716   1.364   2.163  10.413  0.6075  0.1128 -1.6455
  976MOL0     H31717   1.343   2.224  10.254 -0.6624 -3.4794 -0.8665
  976MOL0     H31718   1.179   2.041  10.308 -1.7356 -0.3397  1.2868
  976MOL0     H31719   1.101   2.193  10.263 -0.9086  0.0648  0.0617
  976MOL0     H31720   0.948   2.310  10.361  3.0473  0.6512  3.2342
  976MOL0     H31721   0.612   2.420  10.417 -0.8380 -1.5252  0.6012
  976MOL0     H31722   0.767   2.439  10.326  0.2334 -1.1246 -2.4831
  976MOL0     H31723   0.652   2.322  10.270  1.3037 -1.4907 -0.0244
  976MOL0     H31724   0.245   2.190  10.314  0.8496  1.1332 -0.7085
  976MOL0     H31725   0.022   2.239  10.356  1.0514 -4.5367  0.8233
  976MOL0     H31726  -0.180   2.328  10.433 -1.0852 -1.7221 -0.5077
  976MOL0     H31727  -0.163   2.202  10.567 -2.0901 -0.0560  0.6315
  976MOL0     H31728  -0.306   2.462  10.626  0.0236  0.9352 -0.1181
  976MOL0     H31729  -0.398   2.322  10.541 -1.0746  3.9806 -0.3764
  976MOL0     H31730  -0.427   2.349  10.798  0.5777 -0.2716  3.0918
  976MOL0     H31731  -0.264   2.316  10.800 -0.1588  1.6978 -0.6196
  976MOL0     H31732  -0.478   2.122  10.656  0.1568 -0.8187 -0.1763
  976MOL0     H31733  -0.318   2.078  10.681 -1.7467 -1.2050  0.4351
  976MOL0     H31734  -0.374   2.138  10.931 -0.2729 -1.0147  2.1662
  976MOL0     H31735  -0.414   1.972  10.858 -0.4428  0.8188 -0.1170
  976MOL0     H31736  -0.580   2.218  10.889  2.7167  0.6836  3.6037
  976MOL0     H31737  -0.642   2.071  10.803  4.0336 -3.7935 -2.0300
  976MOL0     H31738  -0.585   2.081  11.108 -3.4391  2.2482  1.4302
  976MOL0     H31739  -0.629   1.927  11.023 -2.3201 -1.0424 -1.1004
  976MOL0     H31740  -0.839   2.065  10.969 -0.6007 -3.0424  0.2768
  976MOL0     H31741  -0.769   2.178  11.095  2.8768 -2.5483  4.3654
  976MOL0     H31742   0.126   2.424  10.731  1.1656 -1.5340  0.9527
  976MOL0     H31743   0.366   2.391  10.674 -1.6603  2.7553 -0.1704
  976MOL0     H31744   0.698   1.986  10.648 -0.1536  0.6977  1.1637
  976MOL0     H31745   0.944   1.972  10.625  0.4564 -0.5507 -1.2297
  976MOL0     H31746   2.875   2.486  10.434 -0.7361 -2.5826 -1.7134
  976MOL0     H31747   3.101   2.343  10.391  1.9711  0.0935  0.4652
  976MOL0     H31748   3.565   2.348  10.482  1.7031  0.3992  2.5073
  976MOL0     H31749   3.759   2.213  10.425  3.1173 -2.9940  0.3144
  976MOL0     H31750   3.901   2.077  10.356 -1.1904 -0.1638  0.4052
  976MOL0     H31751   3.916   2.073  10.534 -1.1108  0.4213  1.1126
  976MOL0     H31752   4.000   1.833  10.362  1.1597 -0.8033  0.9760
  976MOL0     H31753   4.021   1.852  10.528  0.7700 -0.6108 -0.1224
  976MOL0     H31754   4.165   2.064  10.489  1.7101  0.5161 -1.8813
  976MOL0     H31755   4.160   2.008  10.317 -0.3762  0.9481 -0.1313
  976MOL0     H31756   4.255   1.796  10.366 -2.0499 -0.4976  1.4552
  976MOL0     H31757   4.279   1.837  10.542  0.4318  1.2845  1.5437
  976MOL0     H31758   4.587   2.055  10.338  0.8308 -0.5592  0.0257
  976MOL0     H31759   3.562   1.860  10.541  4.7663  0.2969 -3.6262
  976MOL0     H31760   3.357   2.003  10.595  0.1715  3.2300  1.4735
  977MOL0     O31761   8.707   1.490   8.929 -0.2617  0.0285 -0.0712
  977MOL0     C31762   8.643   1.594   8.906 -0.8387 -0.4131  0.9054
  977MOL0     O31763   8.515   1.618   8.935  0.2698 -0.5621 -0.2258
  977MOL0     C31764   8.447   1.548   9.031  0.2326  0.4792  0.0993
  977MOL0     C31765   8.446   1.408   9.022  0.0783  0.8934 -0.1525
  977MOL0     C31766   8.387   1.320   9.120  0.0829  0.1600 -0.1509
  977MOL0     C31767   8.315   1.378   9.218 -0.6560 -0.6975 -0.1706
  977MOL0     O31768   8.255   1.295   9.306  0.2609  0.2243  0.7917
  977MOL0     C31769   8.137   1.346   9.371  0.6569  0.0471  0.3387
  977MOL0     C31770   8.080   1.239   9.463 -0.4299  0.5999 -0.5410
  977MOL0     C31771   7.963   1.159   9.404 -0.2694  0.1354 -0.4668
  977MOL0     C31772   7.910   1.071   9.517  0.1376 -0.4509  0.9538
  977MOL0     C31773   7.822   0.958   9.464  0.7306 -0.0103 -0.3461
  977MOL0     C31774   7.808   0.848   9.573  0.2725 -0.2389 -0.4450
  977MOL0     C31775   7.680   0.773   9.548  0.4888 -0.7175  0.4676
  977MOL0     C31776   7.663   0.702   9.411  0.3366 -0.3812  0.4584
  977MOL0     N31777   7.521   0.706   9.370 -0.0310 -0.2792 -0.0729
  977MOL0     C31778   7.413   0.652   9.434  0.5304 -0.0454  0.1449
  977MOL0     C31779   7.307   0.663   9.357 -0.0498  0.6178 -0.1056
  977MOL0     C31780   7.174   0.616   9.408  0.6281  0.4840 -0.5641
  977MOL0     C31781   7.071   0.617   9.288 -0.4277 -0.3342  0.5485
  977MOL0     C31782   6.954   0.515   9.298 -0.6100 -0.2092 -0.1046
  977MOL0     C31783   6.887   0.508   9.438  0.5240  0.1384 -0.4099
  977MOL0     O31784   6.790   0.615   9.466 -0.4484  0.0628 -0.1037
  977MOL0     C31785   6.660   0.597   9.406 -0.7853  0.3880 -0.5950
  977MOL0     C31786   6.613   0.491   9.328  0.8827  0.2067 -0.1727
  977MOL0     C31787   6.479   0.486   9.287 -0.3372  0.5181 -0.4752
  977MOL0     C31788   6.454   0.370   9.204 -0.0977  1.4718 -0.4065
  977MOL0     C31789   6.395   0.597   9.309  0.2484 -0.1890 -0.2350
  977MOL0     C31790   6.246   0.613   9.274 -0.2661  0.3159 -0.0846
  977MOL0     O31791   6.196   0.743   9.274  0.4366  0.5030 -0.1426
  977MOL0     C31792   6.061   0.753   9.239  0.4250  0.1227  0.7456
  977MOL0     C31793   5.959   0.746   9.329  0.9059 -0.3089 -0.2867
  977MOL0     C31794   5.824   0.739   9.291  0.2067  0.1716 -0.4162
  977MOL0     C31795   5.793   0.729   9.152  0.6410 -1.2319  0.6293
  977MOL0     O31796   5.657   0.721   9.125 -0.1780 -0.6562  0.2577
  977MOL0     C31797   5.622   0.674   8.992 -1.4088  0.3434 -0.7395
  977MOL0     C31798   5.592   0.785   8.906 -1.5768 -0.4734  0.2660
  977MOL0     C31799   5.465   0.862   8.950  0.5445 -0.5408 -0.1049
  977MOL0     C31800   5.390   0.921   8.829  0.8349  0.0198 -0.1233
  977MOL0     C31801   5.286   1.036   8.856 -0.1431  0.9475  0.0970
  977MOL0     C31802   5.158   0.980   8.926  0.3851 -0.2453  1.1948
  977MOL0     C31803   5.173   0.990   9.070 -1.2166 -0.9979 -0.0300
  977MOL0     C31804   5.035   0.985   9.141 -0.1321 -0.7233  1.1812
  977MOL0    Cl31805   4.931   1.133   9.109 -0.2947 -0.2856  0.0174
  977MOL0     C31806   5.894   0.744   9.058 -0.4515  0.2484  0.3331
  977MOL0     C31807   6.026   0.749   9.098  0.2870 -0.0776  0.5671
  977MOL0     O31808   6.182   0.507   9.258 -0.8108  0.0766 -0.4921
  977MOL0     C31809   6.449   0.708   9.384 -0.3009  0.7086 -0.0033
  977MOL0     C31810   6.573   0.703   9.434 -0.1239 -0.4279  0.1128
  977MOL0     N31811   7.347   0.719   9.238  0.6319 -0.5443 -0.4769
  977MOL0     N31812   7.472   0.750   9.246 -0.4993 -0.5601 -0.4710
  977MOL0     C31813   8.312   1.518   9.226 -0.6522  0.6409 -0.4377
  977MOL0     C31814   8.377   1.601   9.136 -0.2314 -0.2517  0.5940
  977MOL0     C31815   8.706   1.698   8.820  0.5352 -0.1194 -0.7584
  977MOL0     C31816   8.687   1.830   8.860  0.0939 -0.3986  0.5968
  977MOL0     C31817   8.746   1.927   8.773  0.3477  0.7952 -0.2274
  977MOL0     C31818   8.835   1.898   8.680 -0.7862 -1.2253 -1.3147
  977MOL0     O31819   8.897   2.000   8.616  0.6286 -0.3817  0.2377
  977MOL0     C31820   9.025   2.042   8.665 -0.6166  0.0196 -0.3786
  977MOL0     C31821   9.136   1.971   8.595  0.4329 -0.5734  0.6433
  977MOL0     C31822   9.272   2.043   8.614 -0.3932  0.1699  0.4029
  977MOL0     C31823   9.285   2.163   8.518  0.6507  1.0719  0.1813
  977MOL0     C31824   9.393   2.257   8.558  0.4971 -0.2457  0.0024
  977MOL0     C31825   9.477   2.334   8.599 -0.4731  0.6565  0.3133
  977MOL0     C31826   8.853   1.757   8.655 -0.5567  0.4178  0.2963
  977MOL0     C31827   8.791   1.658   8.722  0.1538 -0.1527 -0.4866
  977MOL0     H31828   8.502   1.355   8.946  2.1847  0.3737  1.6350
  977MOL0     H31829   8.403   1.213   9.119  2.3601  0.3841  2.1515
  977MOL0     H31830   8.150   1.438   9.429 -1.4262 -0.9879  2.6669
  977MOL0     H31831   8.053   1.362   9.304  0.3967 -3.3437 -0.3157
  977MOL0     H31832   8.167   1.181   9.495 -0.9263  1.2448  2.2335
  977MOL0     H31833   8.045   1.293   9.552  0.7790  0.0514  0.2857
  977MOL0     H31834   7.886   1.233   9.376 -2.0205 -0.6191  2.0579
  977MOL0     H31835   8.000   1.107   9.315 -1.3606 -0.9879 -0.2898
  977MOL0     H31836   8.005   1.041   9.562  0.9336  1.7101  0.8592
  977MOL0     H31837   7.855   1.135   9.587  1.3172  1.7018  0.0149
  977MOL0     H31838   7.729   1.005   9.433  0.6600  1.2881  1.6598
  977MOL0     H31839   7.875   0.913   9.379 -1.7646  1.9082 -3.0962
  977MOL0     H31840   7.889   0.776   9.572 -0.2672 -0.8444 -1.1627
  977MOL0     H31841   7.802   0.884   9.677 -1.1244 -1.2872 -0.1309
  977MOL0     H31842   7.659   0.696   9.623  0.4708 -0.5227  0.6626
  977MOL0     H31843   7.602   0.849   9.553  0.6571 -0.3221 -1.7011
  977MOL0     H31844   7.709   0.603   9.414  1.1842 -0.0815 -1.2781
  977MOL0     H31845   7.724   0.750   9.334  0.6859 -2.0502 -0.3461
  977MOL0     H31846   7.418   0.613   9.535  0.4248  0.9062  0.5361
  977MOL0     H31847   7.179   0.510   9.436 -2.3195  0.3078 -0.3666
  977MOL0     H31848   7.144   0.670   9.499 -0.1468 -3.3173  1.6660
  977MOL0     H31849   7.130   0.587   9.201 -1.6238  1.0178 -0.7646
  977MOL0     H31850   7.032   0.717   9.271 -0.4193 -0.7930 -3.0571
  977MOL0     H31851   7.002   0.420   9.273  1.9374  0.7299  0.8547
  977MOL0     H31852   6.886   0.548   9.218 -0.0882  0.4589 -0.2825
  977MOL0     H31853   6.964   0.516   9.515 -0.7005  2.5720  0.6704
  977MOL0     H31854   6.842   0.408   9.443  0.8066  0.0640  2.8259
  977MOL0     H31855   6.668   0.397   9.322  2.0021  0.9239 -2.1991
  977MOL0     H31856   6.548   0.323   9.175 -1.2628 -1.8018  0.7302
  977MOL0     H31857   6.392   0.300   9.260  1.8297  0.8552  1.0839
  977MOL0     H31858   6.395   0.413   9.122  0.4665 -0.8813 -2.1677
  977MOL0     H31859   5.986   0.739   9.434 -0.9166 -3.3874  0.0868
  977MOL0     H31860   5.743   0.744   9.363 -1.0581  1.0560 -1.8157
  977MOL0     H31861   5.702   0.611   8.952 -1.5055  1.3634 -2.6330
  977MOL0     H31862   5.535   0.607   8.999  0.1123 -1.7634 -0.9226
  977MOL0     H31863   5.672   0.858   8.917  0.1712 -2.1891 -0.6193
  977MOL0     H31864   5.592   0.757   8.800  0.2495  1.7865 -0.4095
  977MOL0     H31865   5.510   0.941   9.011  0.1911 -1.6596  1.6845
  977MOL0     H31866   5.394   0.798   9.004  1.7106 -3.3618 -1.7261
  977MOL0     H31867   5.461   0.961   8.755 -0.1578 -1.3948 -1.9154
  977MOL0     H31868   5.332   0.841   8.783  0.5348 -0.3679  0.9084
  977MOL0     H31869   5.259   1.070   8.756  2.1169 -1.3192 -1.4053
  977MOL0     H31870   5.327   1.119   8.914  0.5345  0.1843  0.7450
  977MOL0     H31871   5.068   1.029   8.887 -1.0282 -2.1002  1.9697
  977MOL0     H31872   5.130   0.875   8.914 -2.7449  0.7296 -1.2961
  977MOL0     H31873   5.216   1.087   9.100 -0.3803 -1.0499 -0.9994
  977MOL0     H31874   5.239   0.915   9.115  0.3004  1.5989  2.4734
  977MOL0     H31875   5.055   0.976   9.248  3.0019 -1.6042  0.6544
  977MOL0     H31876   4.975   0.898   9.113 -0.6484  0.2722 -1.0891
  977MOL0     H31877   5.868   0.752   8.953 -2.8424  0.7708  0.9101
  977MOL0     H31878   6.105   0.761   9.024 -3.2612 -0.9415 -3.7683
  977MOL0     H31879   6.388   0.794   9.410 -3.1079 -1.3395  0.6581
  977MOL0     H31880   6.593   0.774   9.514 -2.1035  0.5493 -0.2012
  977MOL0     H31881   8.264   1.573   9.306  0.8693  1.1914  0.1261
  977MOL0     H31882   8.369   1.709   9.141 -0.6261 -0.1058 -1.8818
  977MOL0     H31883   8.618   1.872   8.932  1.4154  2.8116  0.1654
  977MOL0     H31884   8.717   2.031   8.784 -2.0308 -0.0267  2.2928
  977MOL0     H31885   9.047   2.148   8.651  0.2034 -0.2496 -1.2718
  977MOL0     H31886   9.028   2.026   8.773 -2.1201  0.9025 -0.1699
  977MOL0     H31887   9.112   1.956   8.489 -3.3595 -0.0024  1.2565
  977MOL0     H31888   9.135   1.879   8.652 -4.2679  1.2178  4.0781
  977MOL0     H31889   9.360   1.978   8.606  1.0066  2.1430 -1.0965
  977MOL0     H31890   9.276   2.083   8.716 -1.8951  0.1557  0.4858
  977MOL0     H31891   9.186   2.206   8.502  0.7908  0.1295 -4.6328
  977MOL0     H31892   9.308   2.118   8.421  0.9780 -1.2337  1.2598
  977MOL0     H31893   9.557   2.394   8.639 -0.5965  1.2746 -0.3379
  977MOL0     H31894   8.917   1.737   8.570 -1.4705 -0.9575 -0.1035
  977MOL0     H31895   8.785   1.550   8.710 -1.4122 -0.2562  0.8331
  978MOL0     O31896   3.386  10.909   4.346 -0.0716  0.2405 -0.1433
  978MOL0     C31897   3.325  11.013   4.353 -0.9738  0.6174  0.1539
  978MOL0     O31898   3.246  11.054   4.459  0.0159  0.3035 -0.4692
  978MOL0     C31899   3.237  10.976   4.572  0.1217 -0.0764  0.3928
  978MOL0     C31900   3.117  10.932   4.616  0.0626  0.6299  0.9465
  978MOL0     C31901   3.113  10.840   4.718 -0.4581 -0.1233 -0.1588
  978MOL0     C31902   3.231  10.786   4.776  0.1445 -0.4407  0.5738
  978MOL0     O31903   3.218  10.697   4.885 -0.2639 -0.0719  0.7822
  978MOL0     C31904   3.341  10.622   4.920 -0.6984  0.7217  0.0184
  978MOL0     C31905   3.306  10.516   5.010 -1.1154  0.1995 -0.3601
  978MOL0     C31906   3.413  10.420   5.067 -0.6153 -0.3691  0.3042
  978MOL0     C31907   3.358  10.334   5.183  0.4245  0.6417 -0.1326
  978MOL0     C31908   3.472  10.237   5.231 -0.0726  0.3114  0.2587
  978MOL0     C31909   3.437  10.129   5.334 -1.5953 -0.6812 -0.3302
  978MOL0     C31910   3.413   9.991   5.274 -0.0016 -0.0706  0.2380
  978MOL0     C31911   3.357   9.888   5.375  0.3984  0.0444 -0.8069
  978MOL0     N31912   3.445   9.860   5.494  0.3971 -0.1616 -0.2250
  978MOL0     C31913   3.437   9.899   5.630 -0.2544  0.7852  0.0122
  978MOL0     C31914   3.527   9.821   5.697  0.3094  0.1081 -0.4973
  978MOL0     C31915   3.550   9.831   5.851  0.1266  0.5126  0.6536
  978MOL0     C31916   3.665   9.748   5.903 -0.1217  0.9740 -0.2902
  978MOL0     C31917   3.788   9.824   5.869 -0.0071  1.0850 -0.2126
  978MOL0     C31918   3.915   9.748   5.914  0.5463 -0.2094  1.0136
  978MOL0     O31919   4.028   9.836   5.905 -0.2353  0.4148 -0.5241
  978MOL0     C31920   4.158   9.779   5.916  0.1505 -0.8216  0.0742
  978MOL0     C31921   4.253   9.878   5.872  0.0473 -0.4721 -0.5841
  978MOL0     C31922   4.388   9.850   5.885 -0.9397  0.3560  0.2739
  978MOL0     C31923   4.490   9.967   5.865 -0.0736  0.2930 -0.2994
  978MOL0     C31924   4.429   9.718   5.930 -0.8540 -0.3191 -0.8282
  978MOL0     C31925   4.570   9.679   5.958  0.6850  0.7003 -1.5393
  978MOL0     O31926   4.591   9.617   6.081 -1.2060 -0.1332  0.0759
  978MOL0     C31927   4.720   9.585   6.117 -0.5377  0.0655  0.2798
  978MOL0     C31928   4.754   9.455   6.137  0.0068 -0.2231  0.0819
  978MOL0     C31929   4.877   9.418   6.181 -0.2039  0.8443  0.0202
  978MOL0     C31930   4.976   9.510   6.202 -0.1031  0.3692 -0.6660
  978MOL0     O31931   5.103   9.465   6.241 -0.2416  0.1317 -0.4480
  978MOL0     C31932   5.160   9.543   6.350 -0.3454  1.1096  0.0396
  978MOL0     C31933   5.284   9.463   6.403 -0.6754  0.6221 -1.2573
  978MOL0     C31934   5.363   9.544   6.510 -0.1065 -0.1354 -0.3640
  978MOL0     C31935   5.485   9.467   6.575  0.3838 -0.3384  0.9068
  978MOL0     C31936   5.565   9.565   6.657  0.0265 -0.7195 -0.8674
  978MOL0     C31937   5.690   9.495   6.723  1.2771  0.3127 -0.1584
  978MOL0     C31938   5.799   9.523   6.635 -0.6037 -0.4470 -0.3031
  978MOL0     C31939   5.932   9.455   6.688  0.5872  0.2455  0.1318
  978MOL0    Cl31940   6.059   9.473   6.560 -0.1410  0.0940  0.5527
  978MOL0     C31941   4.949   9.648   6.182  0.3206 -0.5598  0.7217
  978MOL0     C31942   4.817   9.687   6.140  0.3557  0.3346  0.2146
  978MOL0     O31943   4.648   9.699   5.873 -0.1451  0.2522 -0.1302
  978MOL0     C31944   4.331   9.625   5.960 -1.4908  0.1582  0.3382
  978MOL0     C31945   4.196   9.646   5.956  0.8284  0.3736 -0.0055
  978MOL0     N31946   3.589   9.742   5.603 -0.1441  0.1169 -0.1888
  978MOL0     N31947   3.537   9.760   5.485 -0.4784 -0.1041 -0.6974
  978MOL0     C31948   3.355  10.833   4.726 -0.3463  0.3839 -0.5240
  978MOL0     C31949   3.357  10.935   4.632 -0.2561 -0.0282  0.1978
  978MOL0     C31950   3.339  11.111   4.242  0.0280  0.0212  0.2070
  978MOL0     C31951   3.441  11.089   4.138 -0.2467  0.1606 -0.1442
  978MOL0     C31952   3.445  11.173   4.025 -0.1002 -0.1766  0.2302
  978MOL0     C31953   3.373  11.292   4.024 -0.1228  0.5614 -0.2067
  978MOL0     O31954   3.390  11.400   3.938  0.6974  0.0359 -0.3462
  978MOL0     C31955   3.470  11.363   3.822 -0.0868 -1.0766 -0.1080
  978MOL0     C31956   3.493  11.493   3.741 -0.1164 -0.9872  0.2226
  978MOL0     C31957   3.599  11.594   3.805 -0.4996  0.1293 -0.2336
  978MOL0     C31958   3.530  11.723   3.841  0.0502 -0.2443  0.5242
  978MOL0     C31959   3.618  11.824   3.903 -1.1474  0.7404  1.1662
  978MOL0     C31960   3.697  11.910   3.943  0.5138 -0.0838  0.9717
  978MOL0     C31961   3.274  11.317   4.121 -0.1253  0.1821  0.1207
  978MOL0     C31962   3.256  11.223   4.228 -0.4277 -0.2674  0.6664
  978MOL0     H31963   3.032  10.980   4.569  0.0599 -1.6553 -1.6638
  978MOL0     H31964   3.014  10.809   4.750  0.2595 -4.5200 -1.5603
  978MOL0     H31965   3.379  10.582   4.826 -5.0223 -4.4457 -0.0342
  978MOL0     H31966   3.403  10.698   4.968 -0.4579  0.1490  0.6277
  978MOL0     H31967   3.255  10.566   5.093  0.8291 -0.1189  1.0909
  978MOL0     H31968   3.227  10.460   4.959 -1.2643  0.7174 -0.7091
  978MOL0     H31969   3.439  10.343   4.993  0.7591  1.8793 -1.7121
  978MOL0     H31970   3.492  10.490   5.097 -1.1884  1.2208 -1.6677
  978MOL0     H31971   3.327  10.401   5.264 -1.1701 -0.9532  0.6474
  978MOL0     H31972   3.267  10.280   5.154  0.7686  0.4208 -0.8200
  978MOL0     H31973   3.513  10.190   5.141 -0.3168 -1.9183  1.2566
  978MOL0     H31974   3.552  10.290   5.284 -1.4580 -0.3228  3.1357
  978MOL0     H31975   3.512  10.117   5.413 -4.2459  0.6708  2.6306
  978MOL0     H31976   3.353  10.157   5.398 -0.1891  0.1552  1.2486
  978MOL0     H31977   3.345   9.998   5.190  2.3845  2.2969 -1.6405
  978MOL0     H31978   3.509   9.943   5.248  2.8403  3.0529  3.7475
  978MOL0     H31979   3.333   9.789   5.335 -0.8430 -0.5526  1.2677
  978MOL0     H31980   3.271   9.939   5.419  0.7821  0.9680 -1.1008
  978MOL0     H31981   3.378   9.980   5.671 -1.4307 -0.8340  1.6952
  978MOL0     H31982   3.561   9.935   5.885  1.4951  0.3553  0.7555
  978MOL0     H31983   3.454   9.798   5.891 -0.4154 -1.5474 -2.1256
  978MOL0     H31984   3.674   9.647   5.862 -0.0494  0.9771 -0.2821
  978MOL0     H31985   3.658   9.738   6.012 -0.2301  1.9164 -0.2102
  978MOL0     H31986   3.779   9.919   5.923 -0.7256  1.5634 -1.1493
  978MOL0     H31987   3.795   9.843   5.762 -1.1579  0.9629 -0.3240
  978MOL0     H31988   3.931   9.663   5.847  2.1404 -0.8786  2.1862
  978MOL0     H31989   3.901   9.706   6.014 -0.1268 -0.3912  0.8534
  978MOL0     H31990   4.217   9.979   5.855  2.0616  0.0092 -2.3155
  978MOL0     H31991   4.439  10.061   5.843 -3.2455 -0.3931  3.1528
  978MOL0     H31992   4.544   9.979   5.959 -0.1874 -0.6332 -0.1058
  978MOL0     H31993   4.563   9.945   5.786 -1.1790  0.9411 -1.5495
  978MOL0     H31994   4.684   9.382   6.097 -4.3026  2.3131  2.1734
  978MOL0     H31995   4.893   9.311   6.196 -4.7338  0.3735  3.6636
  978MOL0     H31996   5.203   9.632   6.303 -0.4279  1.4950  0.6902
  978MOL0     H31997   5.089   9.556   6.432 -1.3156  1.4968 -0.8476
  978MOL0     H31998   5.256   9.364   6.440  3.9487  0.5621  3.1751
  978MOL0     H31999   5.358   9.443   6.325 -1.5983 -2.9921 -1.3848
  978MOL0     H32000   5.308   9.554   6.604  0.4821 -1.4088  0.1334
  978MOL0     H32001   5.369   9.644   6.467  0.2241 -0.0713 -0.1650
  978MOL0     H32002   5.468   9.376   6.632  3.1799  0.1986  2.7724
  978MOL0     H32003   5.552   9.435   6.494  0.2055  0.5194  0.3988
  978MOL0     H32004   5.492   9.594   6.733  2.6644 -0.0337  1.5393
  978MOL0     H32005   5.582   9.666   6.620  2.1055 -0.2374  1.1611
  978MOL0     H32006   5.697   9.534   6.824 -1.5536  1.9659 -0.5150
  978MOL0     H32007   5.677   9.386   6.714 -0.7385  0.5489 -0.6549
  978MOL0     H32008   5.813   9.632   6.638 -2.3998 -0.2044  0.8324
  978MOL0     H32009   5.787   9.500   6.529 -2.0335  1.4838 -0.6222
  978MOL0     H32010   5.927   9.350   6.720  1.1356 -0.3304 -1.5521
  978MOL0     H32011   5.968   9.511   6.775 -1.0479 -1.3879  1.9607
  978MOL0     H32012   5.015   9.733   6.194 -0.3219 -0.0854  0.9607
  978MOL0     H32013   4.773   9.786   6.130 -2.3313 -0.7139  0.9232
  978MOL0     H32014   4.360   9.530   6.003 -0.5294  1.1771  2.0725
  978MOL0     H32015   4.120   9.573   5.982  1.9938 -0.6538  0.6390
  978MOL0     H32016   3.444  10.800   4.780 -0.8086 -1.5381 -0.8641
  978MOL0     H32017   3.453  10.972   4.598 -0.1124  0.0685  0.7025
  978MOL0     H32018   3.501  10.999   4.131 -1.9953 -1.1017  0.1179
  978MOL0     H32019   3.527  11.152   3.956  2.4415 -1.3040  3.3393
  978MOL0     H32020   3.572  11.334   3.848  0.9031  0.6999 -1.8010
  978MOL0     H32021   3.409  11.293   3.764 -1.6559  1.1280 -1.2616
  978MOL0     H32022   3.397  11.540   3.719  0.2270 -1.4833 -2.6527
  978MOL0     H32023   3.534  11.457   3.647  1.3889 -1.1463  0.9058
  978MOL0     H32024   3.686  11.622   3.746 -0.5898 -0.5801 -0.7093
  978MOL0     H32025   3.627  11.533   3.891 -1.7883  0.4525  0.4489
  978MOL0     H32026   3.451  11.703   3.913  1.0914  2.0441  2.4356
  978MOL0     H32027   3.487  11.761   3.748  1.0622 -3.8358 -1.6568
  978MOL0     H32028   3.779  11.974   3.968  1.9420 -1.3988 -0.1184
  978MOL0     H32029   3.220  11.411   4.131  0.0190  0.1982  0.7454
  978MOL0     H32030   3.188  11.250   4.308 -0.4094  0.2968  0.5015
  979MOL0     O32031   9.790   5.645   0.845 -0.7555  0.6280  0.7259
  979MOL0     C32032   9.841   5.604   0.738 -0.0152  0.6102  0.2593
  979MOL0     O32033   9.775   5.513   0.652  0.5825 -0.3472  0.1557
  979MOL0     C32034   9.642   5.480   0.649  0.5553 -0.1973  0.8642
  979MOL0     C32035   9.539   5.568   0.675 -0.7685  0.0258 -0.3644
  979MOL0     C32036   9.410   5.513   0.681  0.8265  0.0656 -0.6199
  979MOL0     C32037   9.385   5.382   0.644  0.5509 -0.1221  0.1510
  979MOL0     O32038   9.263   5.315   0.653  0.7784 -0.3241 -0.5345
  979MOL0     C32039   9.221   5.272   0.781 -0.1532 -0.1305 -0.2921
  979MOL0     C32040   9.097   5.177   0.776  0.2130  0.3189  0.5641
  979MOL0     C32041   8.964   5.223   0.709 -0.3113  0.1956 -0.1450
  979MOL0     C32042   8.933   5.371   0.713  0.4242 -1.0152 -0.3606
  979MOL0     C32043   8.789   5.398   0.664  0.0386  0.3486 -1.2848
  979MOL0     C32044   8.760   5.341   0.525 -0.4876 -0.1015 -0.0396
  979MOL0     C32045   8.605   5.362   0.495  0.0594  0.4109 -0.9063
  979MOL0     C32046   8.596   5.325   0.349  0.9516  0.7535  0.0791
  979MOL0     N32047   8.476   5.376   0.285 -0.1920  0.3302 -0.3061
  979MOL0     C32048   8.358   5.332   0.330 -0.2457  0.2099  0.3339
  979MOL0     C32049   8.272   5.394   0.248 -0.0187 -0.2734  0.4298
  979MOL0     C32050   8.127   5.407   0.276  0.2445 -0.3825 -0.6045
  979MOL0     C32051   8.026   5.362   0.170 -0.3079  0.1958 -0.5226
  979MOL0     C32052   7.879   5.350   0.222  0.1116  0.0805 -0.7485
  979MOL0     C32053   7.784   5.287   0.115  0.2436 -0.0884  0.9967
  979MOL0     O32054   7.641   5.304   0.156  0.0678  0.6933 -0.0046
  979MOL0     C32055   7.542   5.243   0.078 -1.2044 -0.1285  0.0143
  979MOL0     C32056   7.422   5.214   0.138  0.7492  0.5402 -0.2759
  979MOL0     C32057   7.329   5.136   0.076  0.7444  0.3659  0.4158
  979MOL0     C32058   7.204   5.106   0.161  0.0463  0.1224  0.4706
  979MOL0     C32059   7.349   5.083  -0.052  0.7146 -0.7777 -0.3880
  979MOL0     C32060   7.252   4.992  -0.128 -0.5185  0.2442 -0.1282
  979MOL0     O32061   7.296   4.947  -0.257 -0.1596 -0.0120  0.3615
  979MOL0     C32062   7.224   4.841  -0.323  0.3173 -0.5678  0.2572
  979MOL0     C32063   7.265   4.701  -0.322  0.2957 -0.4165  0.4454
  979MOL0     C32064   7.181   4.597  -0.363  0.2345  0.1788  0.1738
  979MOL0     C32065   7.053   4.632  -0.416 -0.8857  0.7770 -0.2523
  979MOL0     O32066   6.957   4.536  -0.444  0.5234  0.3879 -0.0882
  979MOL0     C32067   7.002   4.393  -0.461 -0.2394 -0.1752 -0.5150
  979MOL0     C32068   6.889   4.292  -0.487 -0.7167 -0.6442 -0.0686
  979MOL0     C32069   6.852   4.282  -0.637 -0.8707 -0.2089 -1.0975
  979MOL0     C32070   6.940   4.177  -0.709 -0.1483 -0.4625  0.3076
  979MOL0     C32071   6.862   4.136  -0.841  0.3109 -0.0992  0.0097
  979MOL0     C32072   6.924   4.024  -0.929  1.0055  0.3475  0.2560
  979MOL0     C32073   6.823   3.998  -1.043 -0.5551 -0.0263  0.3352
  979MOL0     C32074   6.859   3.864  -1.113 -0.1657  0.2916  0.2226
  979MOL0    Cl32075   7.024   3.883  -1.170  0.4136 -0.0029  0.3526
  979MOL0     C32076   7.018   4.771  -0.414  0.8332 -0.0054 -0.2609
  979MOL0     C32077   7.101   4.874  -0.376  0.1837  0.5434  0.9258
  979MOL0     O32078   7.151   4.949  -0.074  0.4238 -0.2166  0.0289
  979MOL0     C32079   7.464   5.126  -0.120  0.3666  0.1104 -0.6487
  979MOL0     C32080   7.566   5.190  -0.051  0.1070 -0.6590 -1.1152
  979MOL0     N32081   8.336   5.467   0.159 -0.2352 -0.2211  0.3058
  979MOL0     N32082   8.461   5.467   0.185 -0.4036  0.5724 -0.0085
  979MOL0     C32083   9.493   5.307   0.608 -1.6522 -0.0265  0.9675
  979MOL0     C32084   9.626   5.351   0.615  0.1450 -0.2973  0.4235
  979MOL0     C32085   9.985   5.642   0.727 -0.5657 -0.3285 -0.1279
  979MOL0     C32086  10.041   5.735   0.811  0.3249 -0.5954  0.0703
  979MOL0     C32087  10.172   5.770   0.801  0.0008 -0.0511 -0.6073
  979MOL0     C32088  10.254   5.722   0.696  0.6509  0.4226 -0.5534
  979MOL0     O32089  10.369   5.768   0.654  0.2644  0.0281 -0.0443
  979MOL0     C32090  10.436   5.868   0.728 -0.9848 -0.7398  0.2643
  979MOL0     C32091  10.502   5.805   0.852 -0.5955  0.0357 -0.4548
  979MOL0     C32092  10.601   5.696   0.811 -0.0425  0.5813  0.2888
  979MOL0     C32093  10.689   5.640   0.920  0.9906  0.6512  0.5860
  979MOL0     C32094  10.819   5.710   0.917 -1.5001 -0.3258 -0.3329
  979MOL0     C32095  10.932   5.767   0.922 -0.5062 -0.7723  0.3210
  979MOL0     C32096  10.199   5.618   0.615 -0.0492 -0.4113 -0.2023
  979MOL0     C32097  10.064   5.580   0.632 -0.5471 -0.2087 -0.2085
  979MOL0     H32098   9.556   5.672   0.700  0.5615 -0.3931  0.5764
  979MOL0     H32099   9.324   5.573   0.710 -0.0196 -1.9621  1.3606
  979MOL0     H32100   9.309   5.226   0.826  0.7186  0.4717 -1.3219
  979MOL0     H32101   9.179   5.355   0.839 -0.4299 -1.0200  0.8049
  979MOL0     H32102   9.130   5.087   0.724  1.1442  0.5725  0.6989
  979MOL0     H32103   9.068   5.149   0.877 -0.2111  1.2076  0.6979
  979MOL0     H32104   8.961   5.181   0.609  2.4912 -0.4142 -0.0586
  979MOL0     H32105   8.890   5.174   0.773 -1.4926 -0.9276 -2.2630
  979MOL0     H32106   8.947   5.417   0.811  1.4452 -0.6780 -0.6487
  979MOL0     H32107   9.001   5.430   0.650  0.3774  2.0068  2.1901
  979MOL0     H32108   8.712   5.378   0.739  3.0773 -3.2181  1.3025
  979MOL0     H32109   8.788   5.503   0.636 -1.9933  0.1691 -2.0377
  979MOL0     H32110   8.829   5.385   0.453  1.1745 -0.1766  1.4545
  979MOL0     H32111   8.787   5.236   0.515 -1.8695 -0.2761 -2.9716
  979MOL0     H32112   8.540   5.302   0.559 -1.6824  3.3906  0.2805
  979MOL0     H32113   8.585   5.469   0.501  1.5108  0.8273 -2.6806
  979MOL0     H32114   8.606   5.217   0.332  1.6800  0.8502 -0.1564
  979MOL0     H32115   8.682   5.370   0.299  1.6504  0.8912  1.3440
  979MOL0     H32116   8.358   5.286   0.429  1.5991 -0.0334  0.2645
  979MOL0     H32117   8.110   5.347   0.366 -1.1270  2.3615  1.1190
  979MOL0     H32118   8.106   5.510   0.308  0.4463 -0.7265  0.6949
  979MOL0     H32119   8.068   5.263   0.149  0.6731 -0.0110  2.0665
  979MOL0     H32120   8.033   5.431   0.085  2.6737 -0.8356 -1.2624
  979MOL0     H32121   7.835   5.445   0.252 -0.9397 -0.7283  0.3414
  979MOL0     H32122   7.881   5.282   0.307  2.5461  0.2236 -0.5964
  979MOL0     H32123   7.796   5.179   0.101 -2.4575 -0.1512 -2.0288
  979MOL0     H32124   7.785   5.331   0.015 -0.6224  0.2787  1.1385
  979MOL0     H32125   7.401   5.246   0.240 -3.7889  3.0283 -1.7048
  979MOL0     H32126   7.178   5.180   0.237  0.2231  0.6564  0.0140
  979MOL0     H32127   7.108   5.095   0.108  0.1153  0.8973  0.1795
  979MOL0     H32128   7.208   5.013   0.219 -1.3182  0.0152  0.4295
  979MOL0     H32129   7.363   4.693  -0.276  0.0410  1.9819  1.6040
  979MOL0     H32130   7.219   4.496  -0.355  2.5665  0.9878 -0.0015
  979MOL0     H32131   7.076   4.389  -0.542  2.0310  4.5794  0.9924
  979MOL0     H32132   7.060   4.364  -0.372  3.4590 -0.7572 -2.8650
  979MOL0     H32133   6.930   4.197  -0.451 -1.2426 -0.9557 -0.2972
  979MOL0     H32134   6.805   4.318  -0.423 -2.2033 -0.8641 -1.8568
  979MOL0     H32135   6.875   4.379  -0.684  0.1032 -0.5603 -1.3763
  979MOL0     H32136   6.747   4.249  -0.636 -1.2012  0.8229 -0.8287
  979MOL0     H32137   7.041   4.208  -0.737 -0.7398  0.5871 -0.7496
  979MOL0     H32138   6.950   4.085  -0.650 -0.1478 -0.6801 -0.0257
  979MOL0     H32139   6.844   4.228  -0.897  3.0135 -0.2177 -1.2443
  979MOL0     H32140   6.764   4.106  -0.803  0.1629 -2.8683 -2.2385
  979MOL0     H32141   7.014   4.069  -0.972  0.5951  2.5198  1.5387
  979MOL0     H32142   6.948   3.933  -0.873  1.3798  0.4662  0.2919
  979MOL0     H32143   6.824   4.080  -1.114  2.1277  2.0764  2.5803
  979MOL0     H32144   6.717   3.988  -1.017 -0.9105  2.9775  0.3099
  979MOL0     H32145   6.790   3.850  -1.197 -0.7343 -0.2393  0.7728
  979MOL0     H32146   6.842   3.788  -1.037  0.3498  1.3369  1.4136
  979MOL0     H32147   6.914   4.792  -0.435  0.8189 -1.0460 -1.3366
  979MOL0     H32148   7.061   4.974  -0.359  0.8364  0.6934  1.6843
  979MOL0     H32149   7.485   5.086  -0.219  0.8678  0.2031 -0.5844
  979MOL0     H32150   7.662   5.205  -0.100  0.8760  3.0941  1.1563
  979MOL0     H32151   9.480   5.200   0.598  2.6990 -0.8812  2.5281
  979MOL0     H32152   9.710   5.283   0.609 -0.2833 -1.0128  2.0797
  979MOL0     H32153   9.978   5.776   0.889  0.8625 -0.7865  0.6149
  979MOL0     H32154  10.202   5.839   0.879  0.6029 -1.1608  0.1813
  979MOL0     H32155  10.517   5.897   0.661 -1.5901 -0.3276 -0.3053
  979MOL0     H32156  10.369   5.952   0.750 -0.0154 -0.3673  1.9166
  979MOL0     H32157  10.428   5.770   0.924  1.6215 -0.7378  1.6218
  979MOL0     H32158  10.556   5.892   0.890 -2.0203  0.9408 -0.4659
  979MOL0     H32159  10.664   5.723   0.725  0.6178  0.2411  0.6583
  979MOL0     H32160  10.528   5.619   0.784  2.1379 -1.6997  0.5002
  979MOL0     H32161  10.708   5.533   0.913 -0.7293  0.3134  0.5328
  979MOL0     H32162  10.650   5.662   1.020 -0.8825 -1.1283  0.3276
  979MOL0     H32163  11.035   5.797   0.931  0.8204 -5.0173  1.3959
  979MOL0     H32164  10.255   5.569   0.536 -2.4315 -2.6912 -0.5980
  979MOL0     H32165  10.030   5.505   0.561  0.7331 -0.7714 -0.2491
  980MOL0     O32166  10.070   8.902   3.691 -0.9440 -0.4692 -0.5500
  980MOL0     C32167  10.132   8.793   3.692  0.1076 -0.3400  0.7232
  980MOL0     O32168  10.260   8.776   3.705  0.7531 -0.0106  0.1796
  980MOL0     C32169  10.336   8.892   3.700  0.1938 -0.4570  0.2777
  980MOL0     C32170  10.433   8.912   3.801 -0.6203  1.6155 -0.2807
  980MOL0     C32171  10.505   9.034   3.808 -0.7175  0.2891  0.2389
  980MOL0     C32172  10.487   9.127   3.707  0.6509 -0.3515 -0.4299
  980MOL0     O32173  10.553   9.248   3.702 -0.3935 -0.1074 -1.0555
  980MOL0     C32174  10.641   9.285   3.821 -0.4923 -1.5182  0.1317
  980MOL0     C32175  10.793   9.243   3.802  0.1962 -1.3086 -0.2124
  980MOL0     C32176  10.827   9.107   3.869 -0.7934  0.2289 -0.2952
  980MOL0     C32177  10.978   9.084   3.864 -0.4217 -0.3642  0.8565
  980MOL0     C32178  11.024   8.967   3.950  0.1396 -0.2464  0.5079
  980MOL0     C32179  11.178   8.947   3.961  0.9858 -1.0128  0.9030
  980MOL0     C32180  11.222   8.845   4.070  0.0677 -0.2929  0.2826
  980MOL0     C32181  11.262   8.713   4.017 -0.1465  0.3997  0.5149
  980MOL0     N32182  11.159   8.651   3.936 -1.1395  0.6163  0.5373
  980MOL0     C32183  11.167   8.625   3.800  0.1127  0.4414 -0.1339
  980MOL0     C32184  11.047   8.581   3.769  0.0436 -0.4046  0.3266
  980MOL0     C32185  11.006   8.522   3.640  0.6536 -0.2109 -0.1243
  980MOL0     C32186  10.917   8.397   3.660  0.2152 -0.3525  0.3530
  980MOL0     C32187  11.004   8.276   3.696 -0.0554 -0.2798 -0.0803
  980MOL0     C32188  10.931   8.155   3.740 -0.2083  0.8210  0.3508
  980MOL0     O32189  10.867   8.098   3.622  0.2730  0.2982 -0.6295
  980MOL0     C32190  10.769   7.999   3.653  0.4849  0.7633  1.5127
  980MOL0     C32191  10.771   7.912   3.756 -0.2419 -0.4594 -0.8234
  980MOL0     C32192  10.663   7.834   3.795 -0.2439  0.1211  0.7963
  980MOL0     C32193  10.696   7.742   3.918 -0.5494  0.3660  0.6507
  980MOL0     C32194  10.553   7.830   3.703  0.1929  0.8018 -0.5742
  980MOL0     C32195  10.437   7.745   3.737 -0.1043 -0.1273  0.1253
  980MOL0     O32196  10.346   7.738   3.637  0.4603  0.5507 -0.7130
  980MOL0     C32197  10.273   7.620   3.622 -0.3353  0.2163  0.0849
  980MOL0     C32198  10.151   7.642   3.559  0.5129 -1.1886 -0.4163
  980MOL0     C32199  10.065   7.530   3.526 -0.1877 -0.0373 -0.7740
  980MOL0     C32200  10.106   7.400   3.554 -0.1577  0.5833  0.7470
  980MOL0     O32201  10.055   7.287   3.503  0.0395  0.0068  0.2119
  980MOL0     C32202   9.979   7.296   3.383  0.1639  0.4298 -0.0996
  980MOL0     C32203   9.914   7.164   3.340  0.1942 -0.0659  0.5688
  980MOL0     C32204   9.998   7.046   3.388  1.0691  0.9951  0.2676
  980MOL0     C32205   9.931   6.901   3.378  0.7412 -0.4158 -0.0424
  980MOL0     C32206   9.884   6.862   3.238  1.0196 -1.4566  0.6280
  980MOL0     C32207  10.006   6.876   3.149 -0.1109  0.1422  0.7160
  980MOL0     C32208   9.956   6.825   3.008  0.3069 -0.1233 -0.4066
  980MOL0     C32209  10.065   6.836   2.911  0.3288  0.1293  0.9762
  980MOL0    Cl32210  10.119   6.999   2.893 -0.0762  0.4340 -0.0852
  980MOL0     C32211  10.231   7.379   3.621 -0.3129 -0.2332 -0.0596
  980MOL0     C32212  10.310   7.492   3.654 -0.7191 -0.9892 -0.1531
  980MOL0     O32213  10.422   7.697   3.845 -0.1597 -0.2316  0.1111
  980MOL0     C32214  10.554   7.914   3.583 -0.0451 -0.3409 -0.0765
  980MOL0     C32215  10.663   8.004   3.560  0.1411  0.0820  0.4493
  980MOL0     N32216  10.964   8.600   3.880  0.2234  0.3933 -0.1408
  980MOL0     N32217  11.041   8.616   3.977  0.0566  0.2370 -0.2926
  980MOL0     C32218  10.400   9.104   3.603 -0.9779  1.1089  0.3590
  980MOL0     C32219  10.321   8.987   3.597 -0.2481 -0.5527  0.5101
  980MOL0     C32220  10.062   8.668   3.670  0.1374  1.2815  0.7623
  980MOL0     C32221   9.938   8.675   3.594 -0.1043 -0.8722 -0.5015
  980MOL0     C32222   9.857   8.562   3.585  0.2178  0.6610 -0.6000
  980MOL0     C32223   9.907   8.445   3.646  0.4052  0.2978 -0.4027
  980MOL0     O32224   9.833   8.331   3.658 -0.2376  0.2888  0.0861
  980MOL0     C32225   9.709   8.339   3.736 -0.8698 -0.6840 -0.4873
  980MOL0     C32226   9.725   8.244   3.856 -0.8512 -0.3241 -0.0901
  980MOL0     C32227   9.760   8.317   3.987 -0.4816  0.6193  0.3105
  980MOL0     C32228   9.827   8.220   4.086  0.1969 -0.0944 -0.0008
  980MOL0     C32229   9.728   8.115   4.121 -0.0252 -0.7231 -0.0799
  980MOL0     C32230   9.656   8.027   4.147  0.0920  0.6169 -0.2533
  980MOL0     C32231  10.036   8.434   3.701  0.3779  0.0028 -0.3460
  980MOL0     C32232  10.111   8.547   3.715  0.1256 -0.5240  0.2270
  980MOL0     H32233  10.445   8.835   3.877 -0.6519 -1.1078 -2.8513
  980MOL0     H32234  10.576   9.035   3.890 -0.6376  3.4406  0.2589
  980MOL0     H32235  10.638   9.394   3.832 -1.6513 -1.6183  0.9800
  980MOL0     H32236  10.607   9.249   3.919 -0.0038  0.3212  1.0242
  980MOL0     H32237  10.822   9.238   3.697  2.6589 -0.3334  0.3579
  980MOL0     H32238  10.850   9.325   3.845 -2.5292  1.9305 -2.2529
  980MOL0     H32239  10.797   9.118   3.973  2.0365  2.2050  0.4149
  980MOL0     H32240  10.766   9.028   3.824 -0.9471  0.2255 -0.0842
  980MOL0     H32241  10.989   9.065   3.756 -1.1531  3.7626 -0.1143
  980MOL0     H32242  11.030   9.177   3.890 -0.7903 -0.6918  2.8877
  980MOL0     H32243  10.970   8.977   4.045 -1.2482 -0.8286 -0.1921
  980MOL0     H32244  10.979   8.887   3.891 -0.0431  1.3703 -1.6384
  980MOL0     H32245  11.231   8.928   3.868 -2.1148 -0.6148 -1.0865
  980MOL0     H32246  11.215   9.045   3.994  2.1580 -0.3659 -2.0181
  980MOL0     H32247  11.298   8.895   4.130  0.4215  1.6590 -1.6586
  980MOL0     H32248  11.133   8.831   4.133 -0.7954 -0.0668 -0.8459
  980MOL0     H32249  11.301   8.643   4.092  2.7788  1.1644 -0.1539
  980MOL0     H32250  11.359   8.725   3.967  0.7271 -1.2291  1.7204
  980MOL0     H32251  11.247   8.632   3.726  1.7182 -1.5455  1.3113
  980MOL0     H32252  10.947   8.597   3.587  0.6565 -0.9109 -1.1406
  980MOL0     H32253  11.096   8.489   3.588  2.7474 -0.3153  3.2178
  980MOL0     H32254  10.875   8.382   3.561  0.9475  2.7798 -0.5462
  980MOL0     H32255  10.847   8.419   3.741  1.4578 -0.0401  1.3968
  980MOL0     H32256  11.059   8.307   3.786  0.0607  2.4229 -0.9922
  980MOL0     H32257  11.075   8.257   3.614  0.4108  0.9392  0.0154
  980MOL0     H32258  10.865   8.198   3.817 -2.8848 -1.6646 -0.3668
  980MOL0     H32259  10.997   8.074   3.772 -0.6584  0.2013 -0.2739
  980MOL0     H32260  10.855   7.914   3.824  0.8476  1.9298 -2.1068
  980MOL0     H32261  10.742   7.650   3.881 -0.2411  1.0932 -0.8654
  980MOL0     H32262  10.771   7.797   3.976 -0.7359 -0.6200  1.8588
  980MOL0     H32263  10.616   7.714   3.987  1.4254 -1.2535  2.4151
  980MOL0     H32264  10.109   7.739   3.536 -4.3078 -2.9733 -0.2251
  980MOL0     H32265   9.975   7.550   3.469 -0.0114  1.5338 -0.5423
  980MOL0     H32266   9.885   7.352   3.392 -0.7984 -1.1884  0.3446
  980MOL0     H32267  10.036   7.347   3.305 -1.4834 -0.2677 -1.8612
  980MOL0     H32268   9.815   7.158   3.386 -0.1951 -0.3311 -0.2925
  980MOL0     H32269   9.911   7.166   3.231  0.5294  0.7323  0.5694
  980MOL0     H32270  10.017   7.057   3.496  0.6099  1.3836  0.3068
  980MOL0     H32271  10.096   7.051   3.340  0.7341  0.7668 -0.4421
  980MOL0     H32272   9.998   6.823   3.416  0.5063  0.5789  2.6058
  980MOL0     H32273   9.850   6.891   3.451 -1.6133 -0.6324 -2.5249
  980MOL0     H32274   9.810   6.933   3.200  4.3215  1.0662 -1.6878
  980MOL0     H32275   9.845   6.760   3.243  1.4155 -1.9258 -3.3059
  980MOL0     H32276  10.026   6.983   3.138 -0.1690 -0.0472 -1.8176
  980MOL0     H32277  10.096   6.821   3.176 -0.1754  0.5897  1.9283
  980MOL0     H32278   9.862   6.875   2.982 -0.7107 -2.2342 -1.0282
  980MOL0     H32279   9.930   6.720   3.025  1.9236 -0.1913  2.2711
  980MOL0     H32280  10.035   6.801   2.812 -1.9374  0.9816  1.3196
  980MOL0     H32281  10.152   6.781   2.949  1.2892  0.2702 -0.8844
  980MOL0     H32282  10.269   7.280   3.646 -0.8336 -0.3838  0.1479
  980MOL0     H32283  10.401   7.478   3.711 -0.5104 -0.3179 -0.3087
  980MOL0     H32284  10.473   7.911   3.510  0.5654 -2.9177 -0.7637
  980MOL0     H32285  10.665   8.068   3.472  0.6233 -0.9957 -0.3446
  980MOL0     H32286  10.408   9.166   3.514  1.6404  0.1605 -0.1730
  980MOL0     H32287  10.239   8.976   3.527 -0.1876 -2.1624  0.6635
  980MOL0     H32288   9.916   8.769   3.546 -0.5200 -0.6227  0.1636
  980MOL0     H32289   9.767   8.572   3.527 -0.3683  2.6215  0.5656
  980MOL0     H32290   9.688   8.443   3.764 -2.1098 -1.5756  2.2645
  980MOL0     H32291   9.631   8.297   3.670  0.1860  0.7451 -2.7649
  980MOL0     H32292   9.809   8.176   3.840 -1.4799 -1.7405  2.1992
  980MOL0     H32293   9.633   8.185   3.856 -0.0717 -1.6225 -2.0268
  980MOL0     H32294   9.665   8.353   4.029 -1.4772 -2.3807  0.8237
  980MOL0     H32295   9.834   8.395   3.969  0.6062 -0.6685 -1.0464
  980MOL0     H32296   9.858   8.270   4.178  4.1076 -0.1227 -1.1311
  980MOL0     H32297   9.909   8.169   4.034 -0.7355 -2.6288  0.8656
  980MOL0     H32298   9.604   7.940   4.181  1.4311 -0.3701 -0.6534
  980MOL0     H32299  10.067   8.335   3.729  0.7463 -1.0854 -4.0334
  980MOL0     H32300  10.210   8.532   3.754  0.7009  1.0273 -0.5452
  981MOL0     O32301   8.730   6.696   1.881  0.2217  0.1998 -0.9410
  981MOL0     C32302   8.671   6.714   1.992  0.1064  1.0291 -0.4318
  981MOL0     O32303   8.726   6.757   2.111 -0.0864 -0.4293  0.0489
  981MOL0     C32304   8.855   6.815   2.125  1.4178  0.3090 -0.0208
  981MOL0     C32305   8.863   6.918   2.221  0.2839 -0.0864  0.4158
  981MOL0     C32306   8.985   6.970   2.247 -0.4392 -0.2358  0.4083
  981MOL0     C32307   9.104   6.939   2.182  0.2278 -0.1310  1.2471
  981MOL0     O32308   9.220   7.002   2.209 -0.4972  0.0393  0.3755
  981MOL0     C32309   9.215   7.144   2.243  0.2011 -0.5717 -0.0080
  981MOL0     C32310   9.348   7.210   2.251  1.0597  0.8124 -0.7174
  981MOL0     C32311   9.337   7.337   2.332 -0.0093 -0.5027  0.0491
  981MOL0     C32312   9.464   7.425   2.301  0.2716 -0.3948 -0.1316
  981MOL0     C32313   9.520   7.510   2.418 -1.0912  0.3186 -0.0025
  981MOL0     C32314   9.568   7.430   2.535 -0.6465 -0.4929  0.3384
  981MOL0     C32315   9.598   7.502   2.665  0.1378  0.8125  0.1354
  981MOL0     C32316   9.464   7.541   2.729  0.2874  1.0390 -0.5772
  981MOL0     N32317   9.369   7.441   2.770 -0.7455  0.1174 -0.3910
  981MOL0     C32318   9.242   7.414   2.719  0.6007  0.4661  0.0448
  981MOL0     C32319   9.207   7.309   2.793  0.0994  1.0141  0.0159
  981MOL0     C32320   9.076   7.230   2.799 -0.4643 -0.9748  0.1227
  981MOL0     C32321   9.046   7.157   2.659 -0.4664  0.0204  0.6395
  981MOL0     C32322   8.929   7.065   2.662 -0.7784  0.6068 -1.0795
  981MOL0     C32323   8.790   7.133   2.706  0.0578  0.3505  0.3743
  981MOL0     O32324   8.709   7.021   2.739 -0.0848 -0.8197  1.2338
  981MOL0     C32325   8.596   7.037   2.814  0.7874  0.2440  0.3241
  981MOL0     C32326   8.558   6.924   2.879 -0.0412  0.5123  0.2702
  981MOL0     C32327   8.434   6.915   2.938 -0.5975 -0.1287  0.7441
  981MOL0     C32328   8.392   6.783   2.994  0.2348 -1.0061  0.7881
  981MOL0     C32329   8.355   7.034   2.948  1.2832 -0.2467  0.6402
  981MOL0     C32330   8.227   7.034   3.017 -0.9347 -0.1952 -0.0308
  981MOL0     O32331   8.211   7.116   3.124  0.1049  0.8780 -0.2155
  981MOL0     C32332   8.083   7.123   3.176 -0.3540 -0.6899 -0.1099
  981MOL0     C32333   8.048   7.055   3.291  0.0254 -0.2347 -0.5099
  981MOL0     C32334   7.927   7.052   3.355 -0.1413 -0.1031 -0.0259
  981MOL0     C32335   7.824   7.125   3.307  0.6301  0.1927 -0.1644
  981MOL0     O32336   7.696   7.137   3.359 -1.8074 -0.1652  0.6780
  981MOL0     C32337   7.664   7.074   3.480 -0.4281  0.0059  0.0044
  981MOL0     C32338   7.724   7.134   3.604 -0.6913 -0.6792 -0.0511
  981MOL0     C32339   7.693   7.066   3.742 -0.1580 -0.5913  1.0932
  981MOL0     C32340   7.539   7.044   3.764  0.3726 -0.5550 -0.0575
  981MOL0     C32341   7.510   6.960   3.887  0.6876 -0.2517 -0.5078
  981MOL0     C32342   7.357   6.955   3.928 -0.2909 -1.4807  0.3094
  981MOL0     C32343   7.321   6.821   3.989 -0.2649  1.1207 -0.6724
  981MOL0     C32344   7.324   6.697   3.897 -0.5345 -0.0043 -0.0996
  981MOL0    Cl32345   7.178   6.690   3.783 -0.1979  0.6989 -0.5994
  981MOL0     C32346   7.846   7.196   3.185  0.0674  0.3218 -0.0998
  981MOL0     C32347   7.974   7.207   3.125  0.5381 -0.3882 -0.5810
  981MOL0     O32348   8.138   6.962   2.966  0.5096 -1.0770  0.0539
  981MOL0     C32349   8.397   7.151   2.882 -0.0901 -0.2906 -0.1200
  981MOL0     C32350   8.513   7.146   2.808  0.5510 -0.4043  0.0245
  981MOL0     N32351   9.302   7.281   2.887  0.0030  0.1820  0.0096
  981MOL0     N32352   9.407   7.355   2.865  0.0328  0.4270 -0.2697
  981MOL0     C32353   9.090   6.848   2.073 -0.3276 -0.1803  0.0131
  981MOL0     C32354   8.970   6.777   2.048 -0.4233 -0.1140  0.1584
  981MOL0     C32355   8.525   6.684   2.003 -0.4937  0.1034 -0.0229
  981MOL0     C32356   8.434   6.682   1.899 -0.5043 -0.2797 -0.1473
  981MOL0     C32357   8.297   6.659   1.927  0.6617 -0.1775  0.1159
  981MOL0     C32358   8.249   6.635   2.053 -0.0233 -0.3667  0.5186
  981MOL0     O32359   8.118   6.599   2.068  0.4696 -0.1931 -0.2072
  981MOL0     C32360   8.051   6.635   2.186 -0.2542  0.3468  0.7437
  981MOL0     C32361   7.990   6.772   2.160  0.2461  0.0269 -0.1850
  981MOL0     C32362   7.871   6.817   2.238  0.6500 -0.0697 -0.0005
  981MOL0     C32363   7.751   6.722   2.231 -0.4354  0.3693  0.9346
  981MOL0     C32364   7.633   6.796   2.265  0.3753  0.8350  0.5815
  981MOL0     C32365   7.539   6.876   2.262 -0.8434 -0.0316 -0.0785
  981MOL0     C32366   8.336   6.632   2.157  0.6258 -0.4329 -0.4298
  981MOL0     C32367   8.472   6.651   2.130 -0.4049  0.3221  0.3685
  981MOL0     H32368   8.785   6.955   2.285  0.2735 -0.1629  0.4476
  981MOL0     H32369   8.984   7.049   2.322 -3.0441 -1.2215  1.5553
  981MOL0     H32370   9.150   7.202   2.176 -1.4188 -3.2712 -0.9029
  981MOL0     H32371   9.171   7.157   2.342 -1.6160 -3.5437 -0.3148
  981MOL0     H32372   9.423   7.142   2.292  1.1347  1.7193  0.6973
  981MOL0     H32373   9.384   7.233   2.150  2.1220  2.7061  0.0542
  981MOL0     H32374   9.258   7.405   2.297  1.6644  0.6334 -1.7839
  981MOL0     H32375   9.331   7.305   2.436 -3.6534  2.7270  1.0689
  981MOL0     H32376   9.550   7.368   2.263 -0.6683 -0.8834 -1.6111
  981MOL0     H32377   9.433   7.495   2.223 -2.2930 -0.2688  0.9098
  981MOL0     H32378   9.598   7.564   2.364 -1.4246 -0.1773 -1.0149
  981MOL0     H32379   9.442   7.583   2.442 -0.0891  1.0989  0.9447
  981MOL0     H32380   9.497   7.351   2.561 -1.9090  0.3010 -0.6080
  981MOL0     H32381   9.662   7.393   2.494  1.0323  5.1275 -1.7433
  981MOL0     H32382   9.660   7.444   2.734 -2.1305 -1.0414  0.7666
  981MOL0     H32383   9.656   7.586   2.628  1.0371  0.4291  0.6637
  981MOL0     H32384   9.405   7.609   2.668 -3.8321 -0.0547  1.8026
  981MOL0     H32385   9.494   7.597   2.818  0.8572 -0.3550  0.1504
  981MOL0     H32386   9.191   7.476   2.647  2.6611  2.5638  0.2514
  981MOL0     H32387   9.092   7.159   2.881  0.5517  2.6029  3.3112
  981MOL0     H32388   8.992   7.296   2.823 -0.1181 -0.2674 -0.5894
  981MOL0     H32389   9.130   7.100   2.619  0.4416  2.8126 -1.8574
  981MOL0     H32390   9.033   7.232   2.580  0.2797 -1.3054 -0.8106
  981MOL0     H32391   8.964   6.991   2.734 -0.4499  0.1479 -1.6999
  981MOL0     H32392   8.912   7.015   2.566 -1.1478  1.7305 -1.6181
  981MOL0     H32393   8.744   7.183   2.620 -0.3043 -0.0143  0.3530
  981MOL0     H32394   8.805   7.210   2.782 -2.5289 -1.2850  2.7120
  981MOL0     H32395   8.620   6.835   2.887 -0.9451 -0.1228  0.4712
  981MOL0     H32396   8.466   6.703   2.986 -0.8998 -2.4895  3.5142
  981MOL0     H32397   8.379   6.801   3.101  0.8883  1.1038  0.5512
  981MOL0     H32398   8.303   6.750   2.940  0.5302 -1.8080  0.7788
  981MOL0     H32399   8.132   7.001   3.334  2.2817  2.6051 -1.0873
  981MOL0     H32400   7.898   6.990   3.439 -1.6219 -0.7269 -0.9564
  981MOL0     H32401   7.555   7.063   3.489 -0.5573 -1.3224 -2.4453
  981MOL0     H32402   7.689   6.968   3.465  1.1758  0.4340 -0.5531
  981MOL0     H32403   7.833   7.133   3.594 -0.4541  0.0363  1.9840
  981MOL0     H32404   7.711   7.241   3.620  3.9215 -0.1787  1.8872
  981MOL0     H32405   7.721   7.129   3.828 -2.3255  0.6762  0.9619
  981MOL0     H32406   7.759   6.979   3.747  1.0905  0.1547 -1.1248
  981MOL0     H32407   7.494   7.143   3.772  2.1005  0.1972  0.7244
  981MOL0     H32408   7.490   6.992   3.681 -0.0088 -0.7723  0.2961
  981MOL0     H32409   7.558   7.009   3.973  1.0844  3.5725 -2.6844
  981MOL0     H32410   7.553   6.862   3.866  0.9485  0.1847 -2.1394
  981MOL0     H32411   7.335   7.039   3.995 -0.9279  0.9128 -2.6983
  981MOL0     H32412   7.289   6.963   3.843  1.4920  3.0581 -0.9721
  981MOL0     H32413   7.228   6.835   4.044 -1.5903 -0.3328 -2.4101
  981MOL0     H32414   7.395   6.799   4.066  3.0705  0.1267 -3.8573
  981MOL0     H32415   7.332   6.608   3.960 -0.2885  1.8624  2.6788
  981MOL0     H32416   7.417   6.709   3.840 -1.1494  4.6652 -0.5360
  981MOL0     H32417   7.772   7.260   3.139  1.1504  2.3007  0.7385
  981MOL0     H32418   7.989   7.254   3.028  2.0615  3.5204  1.3335
  981MOL0     H32419   8.337   7.241   2.877 -2.3974 -1.8351 -2.2919
  981MOL0     H32420   8.544   7.232   2.751 -0.6005  0.9271  1.3193
  981MOL0     H32421   9.178   6.827   2.013 -0.0916  0.0235  0.2880
  981MOL0     H32422   8.983   6.695   1.978  0.6043  1.7111 -1.9379
  981MOL0     H32423   8.473   6.705   1.800  0.9905 -0.6433  0.3398
  981MOL0     H32424   8.228   6.670   1.843  0.6776  0.2492  0.1523
  981MOL0     H32425   7.970   6.565   2.208  0.7368 -0.9108  0.5041
  981MOL0     H32426   8.119   6.663   2.267 -0.3364 -2.3868  1.8555
  981MOL0     H32427   7.965   6.782   2.054 -1.2835 -2.0449 -0.0793
  981MOL0     H32428   8.067   6.844   2.187 -0.7688  0.0337  3.2089
  981MOL0     H32429   7.843   6.915   2.201  0.9776 -1.4689 -4.4784
  981MOL0     H32430   7.908   6.820   2.341 -0.4254 -2.5728  0.5495
  981MOL0     H32431   7.760   6.630   2.289 -1.2528  1.8934  3.6194
  981MOL0     H32432   7.726   6.699   2.126  0.9508  0.4306  0.5660
  981MOL0     H32433   7.451   6.936   2.268 -0.1358  1.4758 -2.9738
  981MOL0     H32434   8.313   6.598   2.257  0.3682  0.6114 -0.1269
  981MOL0     H32435   8.536   6.643   2.217 -0.7132  0.7975  0.6470
  982MOL0     O32436  11.322   6.777   9.675 -0.5059 -0.0861  0.0938
  982MOL0     C32437  11.419   6.739   9.747  0.3036  0.4063  0.3001
  982MOL0     O32438  11.402   6.655   9.853 -0.7891 -0.2257  0.0879
  982MOL0     C32439  11.274   6.624   9.889 -0.3259  0.2073  0.2051
  982MOL0     C32440  11.212   6.507   9.835 -0.3697 -0.1395 -0.7492
  982MOL0     C32441  11.091   6.469   9.891 -0.9474  0.4072  0.3133
  982MOL0     C32442  11.023   6.549   9.984  0.0537  0.8150 -1.1394
  982MOL0     O32443  10.902   6.500  10.033  0.0665  0.4746 -0.1228
  982MOL0     C32444  10.813   6.580  10.111 -0.3568 -0.3992  0.3446
  982MOL0     C32445  10.726   6.474  10.175 -1.2022  1.2264  0.0757
  982MOL0     C32446  10.665   6.545  10.298  1.1677 -0.0371  0.8218
  982MOL0     C32447  10.610   6.445  10.405 -0.9233  0.3971 -0.0464
  982MOL0     C32448  10.509   6.339  10.361  0.1284  0.0384  0.0784
  982MOL0     C32449  10.409   6.301  10.467  0.4192  0.1409 -0.1954
  982MOL0     C32450  10.466   6.224  10.584  0.2508 -0.1845  0.4798
  982MOL0     C32451  10.349   6.196  10.674  0.1183  0.1655 -0.4611
  982MOL0     N32452  10.406   6.105  10.771  0.5475 -0.0856 -0.4506
  982MOL0     C32453  10.466   6.137  10.896  0.1872  0.5439  0.3563
  982MOL0     C32454  10.481   6.017  10.954  0.4450  1.6778 -0.3383
  982MOL0     C32455  10.538   5.994  11.081 -0.1894 -0.9175  0.3910
  982MOL0     C32456  10.678   5.942  11.059  1.2539  1.0142  0.1072
  982MOL0     C32457  10.776   5.944  11.180  1.0967  1.0973 -1.3921
  982MOL0     C32458  10.908   5.881  11.138  0.3163  0.1545  0.5392
  982MOL0     O32459  10.997   5.866  11.250 -0.1683 -0.4866  0.2636
  982MOL0     C32460  11.054   5.976  11.310  0.7613  0.4710  0.1454
  982MOL0     C32461  10.987   6.028  11.427 -0.5895  0.3279  0.4802
  982MOL0     C32462  11.058   6.119  11.509  0.5791 -0.0598  0.2372
  982MOL0     C32463  10.986   6.157  11.639 -0.1104 -0.0447  0.4309
  982MOL0     C32464  11.183   6.169  11.470 -1.1079  0.3585 -0.0527
  982MOL0     C32465  11.267   6.271  11.536 -1.0720 -1.3488  1.1780
  982MOL0     O32466  11.394   6.302  11.487  0.5927 -0.3317 -0.5423
  982MOL0     C32467  11.468   6.413  11.521  0.4993 -0.2203  0.1128
  982MOL0     C32468  11.594   6.422  11.465  0.8101  0.2876  0.3268
  982MOL0     C32469  11.671   6.541  11.479 -0.2741  0.0083 -0.5707
  982MOL0     C32470  11.627   6.642  11.564  0.5825 -0.9038  0.0383
  982MOL0     O32471  11.694   6.758  11.605 -0.6864  0.2721 -0.1270
  982MOL0     C32472  11.800   6.817  11.529  0.0648  0.8475 -0.0174
  982MOL0     C32473  11.842   6.960  11.583 -0.0105  0.4236 -0.5812
  982MOL0     C32474  11.860   6.970  11.729  0.7433 -0.0850 -0.9800
  982MOL0     C32475  11.908   7.097  11.787  0.5874  0.5501 -0.2659
  982MOL0     C32476  11.798   7.201  11.785  0.5223  0.4871 -1.1842
  982MOL0     C32477  11.844   7.338  11.737 -0.0017  0.3399 -0.1848
  982MOL0     C32478  11.930   7.405  11.850  0.1762 -0.3659  0.2677
  982MOL0     C32479  12.046   7.474  11.785  0.2373  0.7118  0.6527
  982MOL0    Cl32480  12.188   7.450  11.901  0.1249 -0.0696  0.0309
  982MOL0     C32481  11.497   6.637  11.623  0.7200 -0.2850 -0.4900
  982MOL0     C32482  11.419   6.521  11.600  0.8541  1.1551  0.3902
  982MOL0     O32483  11.220   6.329  11.633  0.1313  0.0140 -0.2336
  982MOL0     C32484  11.232   6.129  11.337 -0.3201  0.4734  0.2740
  982MOL0     C32485  11.169   6.027  11.262  0.1865  0.3499 -0.3369
  982MOL0     N32486  10.427   5.915  10.879  0.6084  0.3468  0.3126
  982MOL0     N32487  10.383   5.967  10.771  0.2975  0.1369  0.3829
  982MOL0     C32488  11.085   6.663  10.031 -0.0877 -0.6698 -0.5800
  982MOL0     C32489  11.212   6.704   9.981  0.4601 -0.3359  0.0357
  982MOL0     C32490  11.547   6.772   9.690 -0.8235  1.0285  0.2105
  982MOL0     C32491  11.565   6.793   9.556  0.0412 -0.2518 -0.2976
  982MOL0     C32492  11.685   6.828   9.500 -0.2499  0.4893  0.2227
  982MOL0     C32493  11.800   6.822   9.580  0.3975  0.1646 -0.3755
  982MOL0     O32494  11.926   6.852   9.543 -0.1916  0.3898  0.5081
  982MOL0     C32495  11.956   6.898   9.413 -0.4744  0.2860  0.3101
  982MOL0     C32496  12.006   6.783   9.320  0.5649  0.2055 -0.2136
  982MOL0     C32497  12.028   6.841   9.176  0.8343  0.2586  0.9673
  982MOL0     C32498  12.107   6.760   9.072  0.2981 -0.3784  0.5398
  982MOL0     C32499  12.251   6.750   9.107  0.3742  0.0691 -1.0201
  982MOL0     C32500  12.358   6.737   9.170 -0.7767  0.5840  0.5262
  982MOL0     C32501  11.779   6.795   9.718 -0.2905 -0.0729 -0.7621
  982MOL0     C32502  11.658   6.770   9.776  0.1853 -0.0018 -0.2392
  982MOL0     H32503  11.281   6.447   9.777  1.6776  0.6914  0.6822
  982MOL0     H32504  11.043   6.374   9.874 -1.4104  0.7790 -0.4682
  982MOL0     H32505  10.863   6.648  10.181  0.7462 -1.2377  0.3878
  982MOL0     H32506  10.752   6.640  10.043 -0.7059 -0.4997  0.5668
  982MOL0     H32507  10.656   6.444  10.096  1.2421 -2.7252 -0.8427
  982MOL0     H32508  10.792   6.389  10.195  0.2646  2.5753  1.1989
  982MOL0     H32509  10.742   6.605  10.347  1.2115 -1.0387  2.0191
  982MOL0     H32510  10.577   6.602  10.266  2.4672  1.6713  0.1514
  982MOL0     H32511  10.694   6.388  10.443 -1.8560 -1.7867 -1.1102
  982MOL0     H32512  10.570   6.503  10.489  0.1434  0.0682  0.6928
  982MOL0     H32513  10.451   6.381  10.278 -2.3501  0.5569  1.9159
  982MOL0     H32514  10.554   6.247  10.325 -2.5402 -1.6458  0.7133
  982MOL0     H32515  10.358   6.389  10.506 -1.5575 -0.7841 -0.6004
  982MOL0     H32516  10.327   6.248  10.419  1.2504  1.1746 -2.9504
  982MOL0     H32517  10.522   6.137  10.547 -2.1440 -1.2637 -0.8560
  982MOL0     H32518  10.530   6.294  10.639 -0.3129 -1.2118  2.5162
  982MOL0     H32519  10.265   6.137  10.636  0.7899 -0.9879 -0.2395
  982MOL0     H32520  10.315   6.289  10.720 -0.4586 -0.2511 -0.0346
  982MOL0     H32521  10.488   6.234  10.938  1.8698  0.2602  0.2004
  982MOL0     H32522  10.542   6.089  11.134 -0.2151 -1.1269  0.7743
  982MOL0     H32523  10.480   5.919  11.136 -1.8728 -1.0919 -1.4802
  982MOL0     H32524  10.713   6.013  10.984  0.1401 -0.0665 -1.5036
  982MOL0     H32525  10.664   5.849  11.003 -0.1254  1.2821 -0.0262
  982MOL0     H32526  10.740   5.879  11.260 -1.9542  6.1360  1.8878
  982MOL0     H32527  10.786   6.044  11.224  1.6336 -0.1330  1.5003
  982MOL0     H32528  10.955   5.950  11.067 -0.2106 -2.5359 -2.6496
  982MOL0     H32529  10.873   5.786  11.098 -0.9472  0.9494 -0.3221
  982MOL0     H32530  10.886   5.994  11.447 -0.3814 -0.5589  0.0793
  982MOL0     H32531  11.042   6.128  11.727 -1.7841 -0.4615  1.4081
  982MOL0     H32532  10.982   6.267  11.638  3.3883  0.1769  0.5782
  982MOL0     H32533  10.886   6.114  11.645  1.1596 -2.9436  4.0447
  982MOL0     H32534  11.623   6.336  11.405 -2.7187 -0.6190 -0.3114
  982MOL0     H32535  11.771   6.546  11.439 -0.7172 -1.4941 -1.9755
  982MOL0     H32536  11.885   6.750  11.522 -0.4993  0.2313 -1.2650
  982MOL0     H32537  11.761   6.827  11.427  1.8475  2.8038 -0.5622
  982MOL0     H32538  11.931   6.980  11.522  0.1201  0.4266 -0.3921
  982MOL0     H32539  11.753   7.017  11.558 -1.6535 -1.7116  0.0494
  982MOL0     H32540  11.939   6.898  11.753 -0.5642 -1.5176 -0.8653
  982MOL0     H32541  11.777   6.929  11.787  0.7507  1.5262  0.2369
  982MOL0     H32542  11.946   7.079  11.888  0.1258 -2.7500 -0.5619
  982MOL0     H32543  12.002   7.136  11.748  2.1270 -1.6247  1.0587
  982MOL0     H32544  11.754   7.217  11.884 -0.0096 -0.9792 -1.1540
  982MOL0     H32545  11.714   7.174  11.720 -0.4545 -2.0563  0.9552
  982MOL0     H32546  11.892   7.316  11.641 -1.2881  0.8180 -0.9705
  982MOL0     H32547  11.753   7.397  11.717 -0.2760 -0.3267 -0.9589
  982MOL0     H32548  11.964   7.318  11.906 -4.5468 -2.6662  0.0978
  982MOL0     H32549  11.862   7.461  11.915  0.8967 -0.0533  0.7599
  982MOL0     H32550  12.019   7.580  11.780 -1.7542  0.1948 -0.5399
  982MOL0     H32551  12.066   7.425  11.689 -2.2624  0.7242  0.0569
  982MOL0     H32552  11.465   6.715  11.691  0.1574  0.4297 -1.5437
  982MOL0     H32553  11.318   6.515  11.638 -0.9958 -0.0700 -4.0619
  982MOL0     H32554  11.332   6.161  11.308  1.6736 -4.5736  0.3375
  982MOL0     H32555  11.204   5.992  11.166  1.7325  2.0707 -0.4630
  982MOL0     H32556  11.030   6.730  10.097  0.8869  0.0282 -0.4608
  982MOL0     H32557  11.266   6.795  10.008 -0.2187  0.4984 -1.3006
  982MOL0     H32558  11.475   6.785   9.496  1.4688 -1.0212 -2.4641
  982MOL0     H32559  11.696   6.829   9.392  0.4025 -1.4618  0.2462
  982MOL0     H32560  11.872   6.954   9.370 -0.0341  0.1414 -0.7614
  982MOL0     H32561  12.043   6.962   9.429  1.0080 -1.9413  1.6079
  982MOL0     H32562  11.947   6.691   9.308  1.4626 -0.2924 -1.0009
  982MOL0     H32563  12.098   6.737   9.359  0.9891  0.9878 -0.2787
  982MOL0     H32564  12.080   6.936   9.186 -2.0352  2.3050 -1.6604
  982MOL0     H32565  11.929   6.859   9.134  0.6183  1.6921  2.0387
  982MOL0     H32566  12.095   6.816   8.980 -1.1229  1.0149  1.5306
  982MOL0     H32567  12.059   6.662   9.062 -0.0305 -0.0909 -0.8118
  982MOL0     H32568  12.461   6.732   9.196  0.7268  2.7391 -4.0221
  982MOL0     H32569  11.863   6.783   9.785 -2.6498  0.6507  2.5532
  982MOL0     H32570  11.658   6.762   9.884  5.0291  1.6819  0.1273
  983MOL0     O32571   0.127   4.520   3.562  0.2468 -0.3915  0.1748
  983MOL0     C32572   0.193   4.551   3.661  1.0955  0.4230 -0.4007
  983MOL0     O32573   0.153   4.541   3.789 -0.1144  0.0492 -0.5615
  983MOL0     C32574   0.030   4.505   3.838 -0.3512  0.1572 -0.5224
  983MOL0     C32575   0.025   4.475   3.976  0.3747 -0.8168  0.4293
  983MOL0     C32576  -0.095   4.443   4.038 -0.4478 -0.9007 -0.1564
  983MOL0     C32577  -0.215   4.422   3.964 -0.0270 -0.4873  0.0056
  983MOL0     O32578  -0.328   4.382   4.042  0.0052 -0.7238 -0.3348
  983MOL0     C32579  -0.436   4.326   3.970 -0.1372  1.9809 -0.5476
  983MOL0     C32580  -0.547   4.272   4.064 -0.4950  0.1415 -0.3820
  983MOL0     C32581  -0.611   4.409   4.125  0.0385  0.5933 -0.0149
  983MOL0     C32582  -0.702   4.378   4.240  1.2237  0.1560  0.5189
  983MOL0     C32583  -0.815   4.482   4.278 -0.1026  0.1521 -0.7913
  983MOL0     C32584  -0.911   4.499   4.162 -0.1891 -0.4543  0.3858
  983MOL0     C32585  -1.028   4.585   4.201  0.1575 -0.1979  0.5725
  983MOL0     C32586  -0.977   4.728   4.247 -0.2899  0.3651  0.2344
  983MOL0     N32587  -1.091   4.814   4.255 -0.5805 -0.1216  0.5344
  983MOL0     C32588  -1.122   4.905   4.154  0.2880  1.2463  0.3931
  983MOL0     C32589  -1.196   5.004   4.228  0.2715 -0.3312  0.1164
  983MOL0     C32590  -1.237   5.140   4.193  1.0613 -0.0558 -0.6612
  983MOL0     C32591  -1.114   5.238   4.206  0.6131  0.7722 -0.0864
  983MOL0     C32592  -1.024   5.221   4.082 -0.1885  0.3742  0.2748
  983MOL0     C32593  -1.002   5.360   4.009 -0.1131  0.0735 -0.5164
  983MOL0     O32594  -0.983   5.338   3.872  0.0258  0.8019 -0.0704
  983MOL0     C32595  -0.863   5.283   3.831 -0.0203 -0.1874  0.6704
  983MOL0     C32596  -0.853   5.148   3.795 -0.9901  0.2047 -0.8482
  983MOL0     C32597  -0.730   5.098   3.746 -0.2400  0.2556  0.3890
  983MOL0     C32598  -0.739   4.958   3.718  0.1892  1.3414  1.4519
  983MOL0     C32599  -0.614   5.184   3.747  0.4474  0.2698  0.0943
  983MOL0     C32600  -0.479   5.147   3.691 -0.2248  0.4066 -0.2078
  983MOL0     O32601  -0.375   5.206   3.739  0.0239 -0.4538 -0.0626
  983MOL0     C32602  -0.257   5.175   3.691 -0.1912 -0.6944 -0.1563
  983MOL0     C32603  -0.172   5.280   3.647 -0.4877  0.2092  1.1637
  983MOL0     C32604  -0.041   5.255   3.604  0.8077 -1.3742  0.3510
  983MOL0     C32605   0.011   5.130   3.606  0.9400  0.7105  0.8021
  983MOL0     O32606   0.139   5.114   3.571  0.0632  0.3044 -0.1881
  983MOL0     C32607   0.190   4.981   3.559 -0.5482 -0.5366  0.3028
  983MOL0     C32608   0.283   4.995   3.445  0.4167  0.0014 -0.3175
  983MOL0     C32609   0.398   5.091   3.463  0.1113  0.5454 -0.0034
  983MOL0     C32610   0.523   5.039   3.392  0.1633  0.4076  0.6520
  983MOL0     C32611   0.639   5.140   3.377 -0.7566  0.4175 -0.0746
  983MOL0     C32612   0.617   5.272   3.295 -0.1845 -0.1433  0.6826
  983MOL0     C32613   0.584   5.248   3.144 -0.3259  0.3930 -0.2147
  983MOL0     C32614   0.590   5.374   3.055 -0.0014 -0.2590  0.3538
  983MOL0    Cl32615   0.515   5.514   3.131 -0.1072 -0.0407  0.2389
  983MOL0     C32616  -0.076   5.026   3.648 -0.1057  0.3780 -0.8306
  983MOL0     C32617  -0.203   5.049   3.692 -0.3570  0.1990 -0.5415
  983MOL0     O32618  -0.485   5.053   3.614 -0.3733 -1.0285  0.4234
  983MOL0     C32619  -0.628   5.312   3.806  0.5973 -0.2449  0.6290
  983MOL0     C32620  -0.745   5.363   3.840 -0.1283  0.5825  0.2219
  983MOL0     N32621  -1.214   4.947   4.353 -0.4140  0.1444  0.5016
  983MOL0     N32622  -1.142   4.839   4.377  0.4289  0.0658  0.0152
  983MOL0     C32623  -0.203   4.441   3.824  0.6390 -0.0296 -0.4614
  983MOL0     C32624  -0.075   4.464   3.760  0.3034 -0.6259 -0.4358
  983MOL0     C32625   0.324   4.603   3.648 -0.5220 -0.8266  0.4240
  983MOL0     C32626   0.406   4.622   3.761 -0.1159  0.6841 -0.0590
  983MOL0     C32627   0.537   4.660   3.734  0.5430 -0.1769  0.0743
  983MOL0     C32628   0.587   4.690   3.608  0.1554  0.1715  0.2989
  983MOL0     O32629   0.711   4.747   3.588 -0.0115 -0.6752  0.0831
  983MOL0     C32630   0.777   4.823   3.697  0.0907  0.6187 -0.1947
  983MOL0     C32631   0.914   4.833   3.641 -0.1569 -0.1603  0.9690
  983MOL0     C32632   1.021   4.909   3.724  0.3453  0.0396  0.9473
  983MOL0     C32633   1.154   4.923   3.643  0.7583  0.2155  0.2363
  983MOL0     C32634   1.249   4.988   3.733  0.5265 -0.5959  0.7592
  983MOL0     C32635   1.322   5.047   3.805  0.0965 -0.1352 -1.1538
  983MOL0     C32636   0.502   4.672   3.494 -0.9748 -0.0976  0.5195
  983MOL0     C32637   0.375   4.624   3.522  0.1334  0.3762 -0.9910
  983MOL0     H32638   0.116   4.477   4.035  1.7416 -3.5488 -1.4066
  983MOL0     H32639  -0.082   4.443   4.145 -1.3750  1.1473  0.0005
  983MOL0     H32640  -0.482   4.402   3.907 -2.0612  0.8219 -0.6102
  983MOL0     H32641  -0.387   4.241   3.921 -0.8927  0.6846  0.8722
  983MOL0     H32642  -0.616   4.211   4.006 -0.5307 -0.8917  0.7287
  983MOL0     H32643  -0.503   4.222   4.151 -1.8269  1.5362  1.1729
  983MOL0     H32644  -0.530   4.471   4.164  0.9946 -1.1443  0.8977
  983MOL0     H32645  -0.667   4.464   4.049 -2.6966 -0.0562  1.3873
  983MOL0     H32646  -0.753   4.284   4.221 -0.0416  0.5973  1.6087
  983MOL0     H32647  -0.622   4.372   4.315  1.0320  2.4444  0.9756
  983MOL0     H32648  -0.872   4.442   4.362 -2.1453  0.7399 -1.8241
  983MOL0     H32649  -0.775   4.578   4.313  0.4722 -0.0825 -0.8001
  983MOL0     H32650  -0.867   4.555   4.080 -0.5081  0.2297  0.6744
  983MOL0     H32651  -0.936   4.399   4.125  0.4582  0.2457 -2.1015
  983MOL0     H32652  -1.097   4.604   4.119  0.8026  1.2564  0.3318
  983MOL0     H32653  -1.092   4.542   4.279 -2.4214 -2.9145 -2.7188
  983MOL0     H32654  -0.899   4.763   4.179  1.2249 -3.4508 -0.2309
  983MOL0     H32655  -0.933   4.719   4.347 -1.4894 -1.6638  0.6365
  983MOL0     H32656  -1.100   4.903   4.048 -1.4231 -1.9858 -0.0338
  983MOL0     H32657  -1.271   5.132   4.089  2.1520  1.2146 -1.1369
  983MOL0     H32658  -1.311   5.189   4.257  0.3698 -0.6835 -0.9574
  983MOL0     H32659  -1.071   5.207   4.302  0.5219 -1.4255 -0.7049
  983MOL0     H32660  -1.150   5.339   4.226  0.6262  0.3879  2.1696
  983MOL0     H32661  -1.065   5.150   4.010  4.8994 -0.6420 -2.0698
  983MOL0     H32662  -0.927   5.178   4.110  0.1363 -2.4097 -4.1286
  983MOL0     H32663  -0.918   5.414   4.054 -0.2029  1.5956 -2.0740
  983MOL0     H32664  -1.093   5.421   4.010 -0.2390 -0.0981 -1.1578
  983MOL0     H32665  -0.945   5.092   3.809 -0.4638  0.1224  4.1547
  983MOL0     H32666  -0.783   4.942   3.619  0.8933  1.9588  1.0323
  983MOL0     H32667  -0.642   4.909   3.714 -1.0891 -1.3133  0.2812
  983MOL0     H32668  -0.800   4.896   3.784  0.9670 -0.6010  0.4259
  983MOL0     H32669  -0.222   5.376   3.653  2.5065  1.8600  1.6272
  983MOL0     H32670   0.018   5.343   3.583  0.1671 -0.4970  1.9887
  983MOL0     H32671   0.238   4.955   3.654 -0.1266 -2.0344 -0.2960
  983MOL0     H32672   0.105   4.916   3.535 -1.3355  0.3297  0.6517
  983MOL0     H32673   0.318   4.892   3.437 -4.2709 -1.8308 -0.0838
  983MOL0     H32674   0.227   5.023   3.355 -0.7746 -0.1684  0.3445
  983MOL0     H32675   0.418   5.102   3.570 -0.2086  1.0523  0.0125
  983MOL0     H32676   0.358   5.187   3.428 -0.2436  0.6497  0.6769
  983MOL0     H32677   0.564   4.955   3.449  0.1813  0.0740  0.1592
  983MOL0     H32678   0.505   5.013   3.287  0.9206  1.1385  0.3393
  983MOL0     H32679   0.716   5.081   3.325 -0.7287 -0.7192  1.2007
  983MOL0     H32680   0.679   5.156   3.478 -0.5740 -0.4844  0.0099
  983MOL0     H32681   0.531   5.319   3.344 -0.7933 -1.0726  0.5137
  983MOL0     H32682   0.700   5.344   3.293 -0.9531  0.7629 -0.7445
  983MOL0     H32683   0.481   5.211   3.150 -0.2829  0.4893  2.8211
  983MOL0     H32684   0.639   5.164   3.099 -0.7913  0.0729 -0.1953
  983MOL0     H32685   0.556   5.354   2.953 -0.6564 -0.5677  0.6251
  983MOL0     H32686   0.695   5.402   3.046 -0.4249  0.9583 -1.2232
  983MOL0     H32687  -0.043   4.923   3.650  0.0656  0.4426  0.4781
  983MOL0     H32688  -0.257   4.970   3.744 -1.1033  0.8276 -0.3367
  983MOL0     H32689  -0.543   5.379   3.798  0.7257 -0.4870 -0.1266
  983MOL0     H32690  -0.757   5.464   3.877  1.8496  0.5014  1.1940
  983MOL0     H32691  -0.294   4.426   3.768  0.7950 -2.8165 -0.0985
  983MOL0     H32692  -0.073   4.463   3.651  0.1597  0.8200 -0.4683
  983MOL0     H32693   0.364   4.602   3.859 -1.7753 -0.7865 -1.0171
  983MOL0     H32694   0.603   4.675   3.819  0.0044  1.8640  0.1791
  983MOL0     H32695   0.722   4.914   3.721  2.2289  1.7741  0.5765
  983MOL0     H32696   0.790   4.763   3.788  0.5570  0.3422 -0.4352
  983MOL0     H32697   0.896   4.886   3.547 -1.2258 -0.1874  1.1418
  983MOL0     H32698   0.950   4.735   3.609 -2.0716  0.5188 -4.4692
  983MOL0     H32699   1.031   4.858   3.820  0.8031  3.3042  2.7508
  983MOL0     H32700   0.988   5.010   3.750 -1.1536  0.2241 -1.3304
  983MOL0     H32701   1.133   4.986   3.555  6.1765  0.5640 -1.1469
  983MOL0     H32702   1.187   4.824   3.611 -1.7229 -1.0511  1.3087
  983MOL0     H32703   1.383   5.099   3.876 -0.7280  0.1341 -0.6320
  983MOL0     H32704   0.533   4.676   3.390  3.2911 -2.3964  1.4597
  983MOL0     H32705   0.314   4.605   3.434  1.2398 -0.3694 -1.6189
  984MOL0     O32706   0.460   4.775   3.149  0.6597 -0.2606  0.6148
  984MOL0     C32707   0.426   4.841   3.053  0.6137  0.2079 -0.1940
  984MOL0     O32708   0.300   4.852   3.004  0.7133 -0.2313  0.4173
  984MOL0     C32709   0.206   4.808   3.097  0.2266  0.1189 -0.1380
  984MOL0     C32710   0.174   4.668   3.120  0.1994 -0.1150 -0.3973
  984MOL0     C32711   0.085   4.639   3.218  0.3418 -0.3790  0.0428
  984MOL0     C32712   0.022   4.737   3.294  0.5046 -0.1747 -0.0067
  984MOL0     O32713  -0.060   4.719   3.400 -0.0331 -0.0854 -0.4127
  984MOL0     C32714  -0.175   4.634   3.385  0.6122 -0.0772 -0.5962
  984MOL0     C32715  -0.285   4.663   3.485 -0.5168  0.3096  0.1157
  984MOL0     C32716  -0.420   4.643   3.419 -0.4257 -0.4036  0.0608
  984MOL0     C32717  -0.545   4.652   3.514 -0.4467 -0.8132 -0.6890
  984MOL0     C32718  -0.531   4.575   3.640 -1.2009 -0.0723  0.1749
  984MOL0     C32719  -0.657   4.564   3.719 -0.1201 -0.4074  0.3148
  984MOL0     C32720  -0.761   4.480   3.646 -0.5536 -0.1095 -0.5843
  984MOL0     C32721  -0.890   4.457   3.713  0.0106  0.6040  0.5425
  984MOL0     N32722  -0.952   4.589   3.731 -0.1282 -0.6882 -0.8611
  984MOL0     C32723  -1.049   4.640   3.645 -0.4088  0.2031 -0.5000
  984MOL0     C32724  -1.080   4.762   3.700  0.5349  0.8116 -0.8021
  984MOL0     C32725  -1.177   4.871   3.642 -1.1113  0.3527  0.3685
  984MOL0     C32726  -1.286   4.887   3.747  0.4283 -0.7161 -0.4328
  984MOL0     C32727  -1.404   4.969   3.696  0.3545 -0.4165  0.0817
  984MOL0     C32728  -1.405   5.115   3.744  0.2050 -0.0331 -0.4835
  984MOL0     O32729  -1.417   5.123   3.889 -0.1349 -0.1340  0.0856
  984MOL0     C32730  -1.525   5.088   3.959 -0.3184 -0.9728 -0.9368
  984MOL0     C32731  -1.587   5.187   4.030  0.6741  0.3593 -0.1636
  984MOL0     C32732  -1.685   5.166   4.122  0.1621 -0.1715 -0.4136
  984MOL0     C32733  -1.752   5.296   4.172  0.3880  0.6909 -0.1891
  984MOL0     C32734  -1.721   5.028   4.153 -0.3375  0.4167  0.0636
  984MOL0     C32735  -1.826   4.996   4.259  0.2957 -1.0182  0.3905
  984MOL0     O32736  -1.846   4.867   4.284  0.3670  0.3787  0.0227
  984MOL0     C32737  -1.965   4.816   4.324  0.7850 -0.1093 -0.8726
  984MOL0     C32738  -2.085   4.864   4.283 -0.1429  0.8413 -0.5624
  984MOL0     C32739  -2.198   4.794   4.324  0.9596 -0.4646 -0.1904
  984MOL0     C32740  -2.191   4.677   4.408  0.7894 -0.1186  1.1209
  984MOL0     O32741  -2.306   4.616   4.451 -0.1324 -0.6314 -0.5103
  984MOL0     C32742  -2.419   4.595   4.365  0.3333 -0.1963  0.1551
  984MOL0     C32743  -2.551   4.644   4.429 -0.7907 -0.5809 -1.2799
  984MOL0     C32744  -2.558   4.590   4.572  0.0334 -0.5123 -0.5337
  984MOL0     C32745  -2.685   4.651   4.638  0.1367 -0.1707 -0.5378
  984MOL0     C32746  -2.675   4.653   4.796  0.1360 -0.0742 -0.5031
  984MOL0     C32747  -2.797   4.728   4.858  0.4810 -0.3294  0.1335
  984MOL0     C32748  -2.771   4.764   5.012  0.5077  0.0732  0.3006
  984MOL0     C32749  -2.855   4.880   5.060 -0.9604  0.4472 -0.1305
  984MOL0    Cl32750  -3.026   4.832   5.062  0.1304  0.2454  0.1474
  984MOL0     C32751  -2.067   4.646   4.456 -0.4828  0.2036 -0.0091
  984MOL0     C32752  -1.955   4.715   4.417  0.0454 -0.7924 -0.1631
  984MOL0     O32753  -1.893   5.090   4.295  0.7811  0.1838 -0.1940
  984MOL0     C32754  -1.651   4.922   4.089  0.0293  0.0058  0.6049
  984MOL0     C32755  -1.562   4.954   3.989 -0.0870  0.6316 -0.9936
  984MOL0     N32756  -1.011   4.771   3.819 -0.2672 -0.1297  0.1852
  984MOL0     N32757  -0.944   4.668   3.843 -0.5772  0.9109 -0.5086
  984MOL0     C32758   0.038   4.874   3.260  0.6248 -0.7583 -0.6152
  984MOL0     C32759   0.135   4.908   3.159  0.4857  0.9134 -0.0545
  984MOL0     C32760   0.525   4.916   2.969  0.1152  0.7465  0.4536
  984MOL0     C32761   0.491   5.025   2.893 -0.1370 -0.4140 -0.1210
  984MOL0     C32762   0.595   5.091   2.815 -0.1790 -0.0387  0.3050
  984MOL0     C32763   0.726   5.042   2.827  0.4221  0.0302  0.8942
  984MOL0     O32764   0.829   5.082   2.747 -0.4062  0.1710 -0.8452
  984MOL0     C32765   0.799   5.178   2.647 -0.1734  0.6593 -0.6400
  984MOL0     C32766   0.937   5.207   2.600  0.2201  0.9080  0.5237
  984MOL0     C32767   1.044   5.238   2.713  0.7838 -0.7427  0.0866
  984MOL0     C32768   0.987   5.340   2.817 -0.1473 -0.3014  0.2840
  984MOL0     C32769   1.054   5.350   2.946 -0.7676  0.3481  0.1963
  984MOL0     C32770   1.105   5.361   3.059  0.2847 -0.1966  0.3965
  984MOL0     C32771   0.757   4.940   2.920  0.5808  0.3000 -0.0344
  984MOL0     C32772   0.658   4.870   2.984  0.1201 -0.8835  1.0525
  984MOL0     H32773   0.210   4.583   3.062 -1.6382 -1.5831  0.4761
  984MOL0     H32774   0.072   4.533   3.241 -2.1249 -1.0274 -3.5247
  984MOL0     H32775  -0.207   4.629   3.280  2.4521 -0.5937 -1.1692
  984MOL0     H32776  -0.147   4.528   3.395 -0.8443 -0.4546 -0.2983
  984MOL0     H32777  -0.271   4.608   3.578  0.2456  1.2175  0.5498
  984MOL0     H32778  -0.277   4.767   3.518 -1.8110  0.0363  1.3998
  984MOL0     H32779  -0.437   4.707   3.331  0.5305 -1.1342 -0.6768
  984MOL0     H32780  -0.424   4.549   3.364 -0.4733  0.4164 -1.3971
  984MOL0     H32781  -0.565   4.756   3.543 -1.8329 -1.7801  2.1670
  984MOL0     H32782  -0.622   4.610   3.449 -4.3686 -0.7975  3.4408
  984MOL0     H32783  -0.501   4.471   3.621 -0.0006  0.5422 -1.5026
  984MOL0     H32784  -0.455   4.628   3.698 -1.5065  0.0868  0.4289
  984MOL0     H32785  -0.627   4.520   3.814  1.5515 -0.9012 -0.3988
  984MOL0     H32786  -0.690   4.668   3.728  1.6096  0.3582 -1.4496
  984MOL0     H32787  -0.784   4.529   3.551 -3.5522 -0.6951 -0.2510
  984MOL0     H32788  -0.726   4.380   3.618 -1.5581 -0.6936  0.1789
  984MOL0     H32789  -0.872   4.402   3.806  0.8370 -0.1846 -0.0674
  984MOL0     H32790  -0.950   4.395   3.646  2.9735 -1.0435 -0.7803
  984MOL0     H32791  -1.094   4.609   3.551 -0.8497 -2.4992  0.5355
  984MOL0     H32792  -1.139   4.973   3.630 -2.3465  0.6730 -1.1721
  984MOL0     H32793  -1.215   4.840   3.544 -1.0452  1.5208 -0.0404
  984MOL0     H32794  -1.244   4.937   3.835  3.9698 -2.8626 -0.6938
  984MOL0     H32795  -1.324   4.786   3.768 -1.0730 -0.1626 -0.3477
  984MOL0     H32796  -1.497   4.921   3.725  0.1448 -1.1386 -1.6801
  984MOL0     H32797  -1.408   4.954   3.588 -2.1649  1.6865 -0.2176
  984MOL0     H32798  -1.483   5.178   3.701  0.4892  0.7454  0.1118
  984MOL0     H32799  -1.307   5.153   3.711  1.5248 -5.1655 -3.8031
  984MOL0     H32800  -1.547   5.285   4.005 -0.2681  0.6602 -0.5435
  984MOL0     H32801  -1.853   5.300   4.129 -0.1501 -0.3408  0.9139
  984MOL0     H32802  -1.736   5.301   4.280  0.1120 -0.5514 -0.0760
  984MOL0     H32803  -1.703   5.383   4.127  3.1888 -0.0944  1.1464
  984MOL0     H32804  -2.096   4.957   4.227  1.8472  2.4300  1.4887
  984MOL0     H32805  -2.290   4.839   4.286  1.2002  1.2804  1.1532
  984MOL0     H32806  -2.404   4.646   4.269 -1.5529 -0.6697 -0.4413
  984MOL0     H32807  -2.436   4.488   4.353 -5.3610  0.5400 -1.3231
  984MOL0     H32808  -2.535   4.752   4.439  1.2550 -0.6523 -3.1484
  984MOL0     H32809  -2.641   4.624   4.371 -0.9367  0.6681 -1.5147
  984MOL0     H32810  -2.476   4.611   4.641  0.3783  1.4052 -1.4753
  984MOL0     H32811  -2.555   4.481   4.584 -2.7124 -0.5488  0.5327
  984MOL0     H32812  -2.709   4.754   4.611 -1.6684  0.4795  2.9178
  984MOL0     H32813  -2.770   4.591   4.603  0.2985 -1.1717  0.6946
  984MOL0     H32814  -2.584   4.708   4.824  1.5383 -2.7675  0.6352
  984MOL0     H32815  -2.674   4.552   4.837  1.9080 -0.1517 -0.6496
  984MOL0     H32816  -2.830   4.815   4.800  1.0948  0.9656  1.6312
  984MOL0     H32817  -2.883   4.662   4.843  0.2014  0.0648 -0.0328
  984MOL0     H32818  -2.666   4.792   5.027  0.0070  2.1199  0.2612
  984MOL0     H32819  -2.783   4.680   5.082  3.3601 -0.3696  0.3990
  984MOL0     H32820  -2.848   4.963   4.989 -1.5786  0.2477 -0.4416
  984MOL0     H32821  -2.844   4.910   5.164 -0.4440 -1.5166  0.4252
  984MOL0     H32822  -2.055   4.559   4.520  0.3503 -0.8755 -1.5683
  984MOL0     H32823  -1.860   4.688   4.463  1.3798 -1.5018 -3.0945
  984MOL0     H32824  -1.675   4.819   4.112  0.1243  0.4239  2.8415
  984MOL0     H32825  -1.512   4.868   3.947 -0.5451 -0.1380  0.0030
  984MOL0     H32826  -0.017   4.947   3.318 -0.5528 -0.5640 -1.9090
  984MOL0     H32827   0.143   5.014   3.139  1.2606  0.7915 -0.4398
  984MOL0     H32828   0.388   5.060   2.895 -0.7960 -2.2375  0.4337
  984MOL0     H32829   0.555   5.169   2.752  0.9661  0.1839 -0.1573
  984MOL0     H32830   0.735   5.139   2.568 -1.5625  1.5228  0.0082
  984MOL0     H32831   0.753   5.265   2.696 -1.7264 -0.5096  0.0502
  984MOL0     H32832   0.929   5.286   2.524 -1.8573 -0.6228 -0.9795
  984MOL0     H32833   0.975   5.126   2.537 -3.0603  0.8112 -1.5795
  984MOL0     H32834   1.143   5.273   2.683  0.3274  2.2147  1.6521
  984MOL0     H32835   1.079   5.146   2.762 -0.7739 -2.8045 -2.4124
  984MOL0     H32836   0.881   5.331   2.843  0.6422 -2.9742  3.1070
  984MOL0     H32837   0.986   5.442   2.778 -2.0272 -0.2338  0.3929
  984MOL0     H32838   1.151   5.375   3.155 -0.7502 -0.7106  0.9710
  984MOL0     H32839   0.855   4.894   2.930  0.3071 -0.1727  0.4868
  984MOL0     H32840   0.673   4.780   3.043  1.3279 -2.3253 -1.2971
  985MOL0     O32841   9.259   1.570   7.080 -0.4448 -0.1944  0.1240
  985MOL0     C32842   9.148   1.624   7.083 -1.2654 -0.0318  0.3693
  985MOL0     O32843   9.078   1.657   6.969  0.1532 -0.0192  0.6607
  985MOL0     C32844   9.141   1.671   6.852 -0.3305  0.8402  0.3207
  985MOL0     C32845   9.084   1.610   6.743  1.1806  0.4460 -1.2696
  985MOL0     C32846   9.132   1.615   6.612  0.4564 -0.5178 -0.2328
  985MOL0     C32847   9.251   1.684   6.591 -0.8279 -0.0495  0.3453
  985MOL0     O32848   9.316   1.703   6.478 -0.5071 -0.0417  0.4990
  985MOL0     C32849   9.249   1.680   6.351  0.0502  1.4957 -0.3735
  985MOL0     C32850   9.165   1.798   6.313  0.3623 -0.2416  0.3239
  985MOL0     C32851   9.229   1.937   6.291 -0.3351  0.0771 -0.7288
  985MOL0     C32852   9.134   2.023   6.218  0.2962  0.4771 -0.6172
  985MOL0     C32853   9.201   2.165   6.181  0.0112  0.8421  0.6692
  985MOL0     C32854   9.099   2.228   6.088  0.4184 -0.4485  0.4898
  985MOL0     C32855   9.117   2.373   6.060  0.1347 -0.1015 -0.5998
  985MOL0     C32856   9.255   2.430   6.032 -0.1529  0.2804  0.5979
  985MOL0     N32857   9.337   2.435   6.152  0.1000  0.2180 -0.4011
  985MOL0     C32858   9.314   2.508   6.261  0.0550 -0.3297 -0.4641
  985MOL0     C32859   9.402   2.460   6.350  0.4568 -0.2016 -0.0706
  985MOL0     C32860   9.425   2.492   6.496  1.3995  0.6989  0.7325
  985MOL0     C32861   9.321   2.413   6.577 -0.0635 -0.1139 -0.5192
  985MOL0     C32862   9.391   2.302   6.664  0.2298  0.1411  0.3582
  985MOL0     C32863   9.286   2.208   6.732 -0.5512  0.4430  0.1779
  985MOL0     O32864   9.207   2.293   6.811  0.2800 -0.4553  0.4881
  985MOL0     C32865   9.093   2.232   6.872 -1.8215  0.1527 -0.0328
  985MOL0     C32866   9.024   2.323   6.955  0.3555 -0.8206  0.4260
  985MOL0     C32867   8.923   2.287   7.037 -0.0167 -0.5927 -0.3121
  985MOL0     C32868   8.876   2.402   7.122 -0.0147 -0.6608 -0.4733
  985MOL0     C32869   8.869   2.153   7.026 -0.4351 -0.0602 -0.3084
  985MOL0     C32870   8.764   2.096   7.113  0.8238  0.0165 -0.4169
  985MOL0     O32871   8.678   2.186   7.172 -0.4558  0.4885  0.1335
  985MOL0     C32872   8.582   2.137   7.250  0.6514  0.4474  0.8757
  985MOL0     C32873   8.593   2.072   7.372 -0.9461 -0.3555 -0.3773
  985MOL0     C32874   8.485   2.046   7.453 -0.6123 -0.0102  0.1477
  985MOL0     C32875   8.359   2.070   7.416 -0.3958 -0.9685  0.7545
  985MOL0     O32876   8.268   2.040   7.505  0.2261  0.4331 -0.0620
  985MOL0     C32877   8.141   2.008   7.451  0.5697  0.1895 -0.8272
  985MOL0     C32878   8.066   1.927   7.557 -0.1945  0.4375 -0.0178
  985MOL0     C32879   8.030   1.995   7.695  0.1514  1.4135  0.8280
  985MOL0     C32880   7.959   1.894   7.783  0.2671  0.0872 -0.2579
  985MOL0     C32881   7.901   1.955   7.917 -0.0382  0.5462  0.7595
  985MOL0     C32882   7.778   2.041   7.886 -0.0795  0.1158 -0.2103
  985MOL0     C32883   7.710   2.080   8.024 -0.6824  1.3432  0.3429
  985MOL0     C32884   7.584   2.155   8.025 -1.0439  0.2079 -0.1232
  985MOL0    Cl32885   7.617   2.321   7.975  0.5470  0.0212 -0.6203
  985MOL0     C32886   8.342   2.130   7.290  0.7250 -0.4762 -0.1079
  985MOL0     C32887   8.456   2.164   7.210  0.4466  0.3153  0.1009
  985MOL0     O32888   8.758   1.970   7.123 -0.0948 -0.4235 -0.7741
  985MOL0     C32889   8.929   2.067   6.932 -0.4342 -0.1124 -0.2542
  985MOL0     C32890   9.040   2.105   6.863  0.7818  0.1157 -0.4293
  985MOL0     N32891   9.485   2.367   6.295  0.5493  0.0276 -0.4961
  985MOL0     N32892   9.448   2.360   6.170  0.1874 -0.7120  0.7586
  985MOL0     C32893   9.308   1.751   6.702 -0.1145  0.4774 -0.1784
  985MOL0     C32894   9.257   1.743   6.829  0.1990 -0.9580 -0.4301
  985MOL0     C32895   9.097   1.668   7.220  0.2077  0.4384 -0.7779
  985MOL0     C32896   8.969   1.726   7.239 -0.9390 -0.2690 -0.0035
  985MOL0     C32897   8.930   1.767   7.371 -0.2020 -0.0484 -0.3852
  985MOL0     C32898   9.002   1.741   7.483  0.3000  0.2418  1.0794
  985MOL0     O32899   8.952   1.791   7.599  0.0044  0.1201 -0.6336
  985MOL0     C32900   8.952   1.699   7.711  0.3475  0.6237  0.3914
  985MOL0     C32901   8.855   1.582   7.687  0.5025  0.0050  0.1593
  985MOL0     C32902   8.713   1.636   7.670 -0.3985  0.3346 -0.7806
  985MOL0     C32903   8.652   1.710   7.796 -0.8895  0.1940 -0.0767
  985MOL0     C32904   8.506   1.715   7.773  0.4272  0.3945 -1.3677
  985MOL0     C32905   8.388   1.717   7.756  0.1669 -1.4897  0.4919
  985MOL0     C32906   9.120   1.669   7.466 -0.4817  0.3193 -0.4062
  985MOL0     C32907   9.173   1.634   7.335  0.4089  0.7748 -0.6870
  985MOL0     H32908   8.990   1.556   6.754 -0.0453  2.4240 -1.4103
  985MOL0     H32909   9.072   1.576   6.530 -0.2640  2.4874 -1.2622
  985MOL0     H32910   9.332   1.659   6.282 -1.2607 -2.1821 -1.0977
  985MOL0     H32911   9.191   1.587   6.341 -1.8024  2.4876  0.6588
  985MOL0     H32912   9.103   1.781   6.224 -1.3705  0.6846  1.2877
  985MOL0     H32913   9.094   1.806   6.396  2.6562  0.2987  2.3369
  985MOL0     H32914   9.260   1.997   6.377 -2.1310  1.3998 -0.9477
  985MOL0     H32915   9.322   1.928   6.234  0.4880 -0.6375  0.6881
  985MOL0     H32916   9.108   1.968   6.127 -2.7617 -0.6529  0.8032
  985MOL0     H32917   9.041   2.040   6.273  1.4619  1.8430  1.0643
  985MOL0     H32918   9.217   2.205   6.282  2.9143 -1.5993  1.3263
  985MOL0     H32919   9.299   2.161   6.133 -0.1147  2.2218  0.2476
  985MOL0     H32920   9.098   2.185   5.987  1.9279  2.7540 -1.0497
  985MOL0     H32921   8.999   2.207   6.127 -1.3153  5.1179 -0.0239
  985MOL0     H32922   9.053   2.382   5.971  3.0405  0.2110 -2.8175
  985MOL0     H32923   9.066   2.426   6.140  1.1384 -2.5906  1.8604
  985MOL0     H32924   9.233   2.527   5.987 -3.4147  0.1044  1.5518
  985MOL0     H32925   9.311   2.368   5.962  0.5909  0.1095  1.3266
  985MOL0     H32926   9.242   2.588   6.273  3.1180  2.7809 -1.2273
  985MOL0     H32927   9.529   2.482   6.527  2.0764  2.6837 -0.6998
  985MOL0     H32928   9.418   2.600   6.513 -0.8828  0.6346  0.5368
  985MOL0     H32929   9.237   2.372   6.521 -0.6269 -0.1680  0.3457
  985MOL0     H32930   9.278   2.491   6.639  0.8980  1.0761 -1.3043
  985MOL0     H32931   9.446   2.344   6.748  0.0402  0.9895  0.0691
  985MOL0     H32932   9.462   2.248   6.601  0.7195  1.5294 -0.3068
  985MOL0     H32933   9.326   2.130   6.797 -3.1279 -3.0049 -2.0077
  985MOL0     H32934   9.238   2.167   6.643  3.2194 -2.6812 -0.7187
  985MOL0     H32935   9.056   2.425   6.975  2.5293 -1.7757  2.3645
  985MOL0     H32936   8.846   2.361   7.219  1.6154 -0.2732  0.2194
  985MOL0     H32937   8.953   2.475   7.149 -0.3294 -0.4405 -0.1533
  985MOL0     H32938   8.798   2.459   7.070  1.2365  1.6093 -0.0093
  985MOL0     H32939   8.693   2.053   7.409 -0.0741  0.8931 -1.9776
  985MOL0     H32940   8.505   2.004   7.551  0.0991  3.3073  1.5909
  985MOL0     H32941   8.082   2.094   7.418 -0.2155 -0.3209 -0.7841
  985MOL0     H32942   8.140   1.945   7.362 -2.1472  0.3808 -1.0086
  985MOL0     H32943   7.972   1.890   7.515 -1.5196  2.2128  1.2495
  985MOL0     H32944   8.138   1.846   7.576 -0.8126  0.0145  0.5573
  985MOL0     H32945   7.971   2.087   7.682  0.3853  1.6784  1.5577
  985MOL0     H32946   8.124   2.008   7.749  1.0122 -5.4107  1.8420
  985MOL0     H32947   7.886   1.847   7.716  1.7716  0.4393 -2.2460
  985MOL0     H32948   8.023   1.807   7.799  1.2674  0.3599 -2.4045
  985MOL0     H32949   7.980   2.020   7.957 -2.7292  3.9753  1.0100
  985MOL0     H32950   7.872   1.877   7.987  1.3064 -1.0741 -0.3920
  985MOL0     H32951   7.816   2.128   7.831 -1.6320 -0.6946 -2.7784
  985MOL0     H32952   7.709   1.990   7.818 -1.4234  1.4600  0.0636
  985MOL0     H32953   7.784   2.112   8.098  0.9530  0.1541 -0.7060
  985MOL0     H32954   7.683   1.983   8.068 -0.4896  2.3110  2.7410
  985MOL0     H32955   7.535   2.150   8.123  0.2908 -0.5478  0.5337
  985MOL0     H32956   7.519   2.101   7.955  0.7542  1.2989 -2.7997
  985MOL0     H32957   8.242   2.161   7.261  1.0909  0.0114 -0.9051
  985MOL0     H32958   8.442   2.216   7.116  0.4958 -1.0515 -0.6929
  985MOL0     H32959   8.892   1.966   6.920 -1.5659  0.0493  1.5404
  985MOL0     H32960   9.088   2.034   6.797  0.5053  1.7537 -2.4957
  985MOL0     H32961   9.391   1.818   6.684  0.2043  0.4657  1.1375
  985MOL0     H32962   9.292   1.806   6.911 -1.2452  0.9728 -1.2085
  985MOL0     H32963   8.908   1.759   7.155  1.9088  0.4554 -1.9519
  985MOL0     H32964   8.832   1.810   7.389 -0.6864 -1.8275  1.6289
  985MOL0     H32965   9.049   1.657   7.740 -0.1084 -0.2020  0.7761
  985MOL0     H32966   8.921   1.755   7.799 -0.7605 -0.9253  1.0410
  985MOL0     H32967   8.860   1.504   7.764  1.9161 -2.1315 -1.9532
  985MOL0     H32968   8.880   1.531   7.594  1.1029  0.3495  0.1277
  985MOL0     H32969   8.652   1.547   7.654  0.5866 -1.1957  2.8110
  985MOL0     H32970   8.713   1.703   7.584  2.7307  1.5603 -0.0063
  985MOL0     H32971   8.687   1.813   7.795 -2.0609  0.6237  1.0951
  985MOL0     H32972   8.673   1.649   7.885  2.2150 -3.0309 -2.6668
  985MOL0     H32973   8.283   1.715   7.735  0.4055  0.4080 -1.2212
  985MOL0     H32974   9.169   1.624   7.552 -3.9807 -3.5721 -0.1095
  985MOL0     H32975   9.269   1.583   7.329  0.0787 -0.0432  0.5726
  986MOL0     O32976   4.379   7.431   5.800 -0.3786 -0.5496  0.2201
  986MOL0     C32977   4.494   7.425   5.832  0.1430 -0.5446 -0.5988
  986MOL0     O32978   4.544   7.338   5.924  0.0645 -0.4760  0.6949
  986MOL0     C32979   4.467   7.250   5.976 -0.0457 -0.1571 -0.6316
  986MOL0     C32980   4.433   7.134   5.901  0.1335 -0.8364  0.1311
  986MOL0     C32981   4.336   7.054   5.943  0.3653 -0.5939 -0.3637
  986MOL0     C32982   4.270   7.078   6.064  0.8428  0.3370  0.1985
  986MOL0     O32983   4.160   7.006   6.103 -0.6628  0.0470  0.5201
  986MOL0     C32984   4.048   7.072   6.036 -0.3172  0.7044  0.3129
  986MOL0     C32985   3.929   6.987   6.057  0.6402 -0.5920 -0.8130
  986MOL0     C32986   3.941   6.833   6.018 -0.1929  0.1189 -0.2100
  986MOL0     C32987   3.820   6.756   5.980  0.4959 -1.0038 -0.3332
  986MOL0     C32988   3.839   6.627   5.899  0.2430  0.3485 -0.1576
  986MOL0     C32989   3.699   6.590   5.837  0.4589  1.0316 -0.3051
  986MOL0     C32990   3.701   6.484   5.731 -0.8786  0.2326  0.1782
  986MOL0     C32991   3.636   6.530   5.608 -0.2639  0.4780  1.1017
  986MOL0     N32992   3.494   6.565   5.621  0.7172  0.3634  0.2578
  986MOL0     C32993   3.406   6.500   5.701  0.1035 -0.1401  0.9211
  986MOL0     C32994   3.284   6.569   5.714  0.3625  0.4725 -0.1277
  986MOL0     C32995   3.164   6.530   5.792 -0.4983  0.3095 -0.6926
  986MOL0     C32996   3.039   6.583   5.712 -0.1707  0.2381 -0.6095
  986MOL0     C32997   2.906   6.538   5.769  0.2725 -0.6768 -0.0823
  986MOL0     C32998   2.891   6.591   5.917  0.0150 -0.7328 -0.6940
  986MOL0     O32999   2.759   6.561   5.948 -0.2807  0.4438  0.1185
  986MOL0     C33000   2.706   6.610   6.066  0.3905 -1.3567 -0.3732
  986MOL0     C33001   2.770   6.694   6.160  0.8615 -0.0003  0.2695
  986MOL0     C33002   2.688   6.760   6.253 -0.1187 -0.8302  0.0149
  986MOL0     C33003   2.759   6.848   6.352  0.3115 -0.3000 -0.4404
  986MOL0     C33004   2.548   6.734   6.255  0.2516  0.6315  0.7909
  986MOL0     C33005   2.467   6.784   6.364  0.1845 -1.2855  1.0168
  986MOL0     O33006   2.404   6.702   6.448 -0.7377  0.0526 -0.3721
  986MOL0     C33007   2.358   6.753   6.560 -0.1258  0.3213  1.3384
  986MOL0     C33008   2.442   6.784   6.661  0.2447 -0.5141 -0.4996
  986MOL0     C33009   2.384   6.850   6.782  0.4378 -0.2571  0.2459
  986MOL0     C33010   2.248   6.891   6.790 -0.3379 -0.0512  0.6622
  986MOL0     O33011   2.202   6.931   6.913 -0.1228  0.0245  0.0137
  986MOL0     C33012   2.127   7.052   6.908 -0.2069 -0.6176 -0.2836
  986MOL0     C33013   2.052   7.065   7.045 -0.2752  0.3639  0.6043
  986MOL0     C33014   1.941   7.167   7.037  0.1018 -0.6251 -0.3214
  986MOL0     C33015   1.967   7.314   6.988 -0.7166 -0.3354 -0.7212
  986MOL0     C33016   1.841   7.401   6.983  0.5140  0.0947 -0.8094
  986MOL0     C33017   1.786   7.446   7.117 -0.5869 -0.3069 -0.1732
  986MOL0     C33018   1.643   7.509   7.103  0.6160  0.9603  0.5419
  986MOL0     C33019   1.642   7.654   7.063 -0.1834 -0.3493 -0.8939
  986MOL0    Cl33020   1.715   7.773   7.173 -0.0627  0.0936  0.1163
  986MOL0     C33021   2.175   6.865   6.662 -0.6278 -0.3176 -0.5194
  986MOL0     C33022   2.232   6.799   6.557  0.0998 -0.5672 -0.7203
  986MOL0     O33023   2.445   6.909   6.357  0.7627  0.3872 -0.1781
  986MOL0     C33024   2.492   6.648   6.165  0.4400  0.1813 -0.7933
  986MOL0     C33025   2.571   6.586   6.081 -0.8266 -0.0968  0.7196
  986MOL0     N33026   3.318   6.686   5.653 -0.1090 -0.5722  0.0442
  986MOL0     N33027   3.438   6.684   5.599  0.7912  0.6084  0.2131
  986MOL0     C33028   4.306   7.193   6.146  0.0707 -0.3802 -0.5280
  986MOL0     C33029   4.413   7.278   6.102  0.2522  0.8230 -0.6688
  986MOL0     C33030   4.595   7.521   5.771  0.0205  0.5422  0.6273
  986MOL0     C33031   4.533   7.629   5.697  0.6616  0.0065  0.6767
  986MOL0     C33032   4.617   7.709   5.614 -0.3022  0.2026  0.2100
  986MOL0     C33033   4.757   7.684   5.625 -0.6966 -0.5127  0.7640
  986MOL0     O33034   4.852   7.753   5.548 -0.4909  0.4149  0.8980
  986MOL0     C33035   4.813   7.822   5.434  0.2695 -0.3214 -0.3897
  986MOL0     C33036   4.772   7.717   5.324  0.2175 -0.5170 -1.2291
  986MOL0     C33037   4.829   7.759   5.198  0.2853 -0.0560  0.6269
  986MOL0     C33038   4.717   7.761   5.097 -0.1510 -0.3717  0.2438
  986MOL0     C33039   4.775   7.787   4.954  0.7295  0.2775  0.3422
  986MOL0     C33040   4.820   7.804   4.842  0.1109 -0.0317 -0.1486
  986MOL0     C33041   4.813   7.592   5.707  0.0865 -0.4180  0.4027
  986MOL0     C33042   4.732   7.503   5.780  0.7290 -0.4650  0.0339
  986MOL0     H33043   4.478   7.128   5.803 -0.5384 -0.4982 -0.2013
  986MOL0     H33044   4.286   6.993   5.868 -0.5829  1.3130 -1.3581
  986MOL0     H33045   4.030   7.174   6.073  0.9195  1.0729 -0.0345
  986MOL0     H33046   4.067   7.077   5.929  2.3040 -2.4920  0.4838
  986MOL0     H33047   3.898   6.994   6.162 -0.1400 -0.5657 -1.0375
  986MOL0     H33048   3.845   7.030   6.003 -0.2852 -0.7534  0.4530
  986MOL0     H33049   4.004   6.831   5.928  0.0798  2.0265 -0.0878
  986MOL0     H33050   4.002   6.770   6.083  4.2464  1.3770 -2.7280
  986MOL0     H33051   3.761   6.748   6.072 -0.7109  1.0799 -0.8612
  986MOL0     H33052   3.757   6.824   5.923 -0.5591  1.5700  3.4472
  986MOL0     H33053   3.896   6.639   5.806  1.9460 -2.5967  0.3794
  986MOL0     H33054   3.883   6.547   5.960 -0.4907 -1.1552 -1.5187
  986MOL0     H33055   3.620   6.565   5.908 -0.3940  2.9826 -0.4834
  986MOL0     H33056   3.663   6.683   5.792 -2.1092  1.3286  2.0826
  986MOL0     H33057   3.807   6.475   5.705 -0.5739  2.9984  0.1246
  986MOL0     H33058   3.657   6.390   5.763  0.9516 -0.2995  1.2675
  986MOL0     H33059   3.640   6.447   5.536 -1.5184 -0.5336  2.1398
  986MOL0     H33060   3.687   6.615   5.561 -2.9945 -0.2836 -4.0371
  986MOL0     H33061   3.438   6.404   5.740  4.5284  0.9075  0.3862
  986MOL0     H33062   3.150   6.425   5.817  1.1339  0.5050  1.2880
  986MOL0     H33063   3.177   6.584   5.886 -2.1182 -1.2311  0.4833
  986MOL0     H33064   3.037   6.538   5.612  1.2483 -1.4053  0.0417
  986MOL0     H33065   3.033   6.692   5.709  3.0734  0.5249 -0.6114
  986MOL0     H33066   2.918   6.429   5.776 -1.2940 -0.8047  0.9627
  986MOL0     H33067   2.827   6.571   5.701  0.5734  1.5109  0.5771
  986MOL0     H33068   2.923   6.695   5.924 -0.3639 -0.6830  0.5164
  986MOL0     H33069   2.949   6.534   5.991  2.1072  3.1188  0.8920
  986MOL0     H33070   2.877   6.711   6.158  0.6518  1.3086 -1.2880
  986MOL0     H33071   2.798   6.940   6.308  1.9550 -0.0362  1.3920
  986MOL0     H33072   2.702   6.867   6.444 -1.4455 -1.3927 -1.2621
  986MOL0     H33073   2.851   6.802   6.389  1.3381  2.8532  1.3829
  986MOL0     H33074   2.544   6.748   6.665  0.6342  0.6507  0.7373
  986MOL0     H33075   2.443   6.869   6.872  4.0083  1.3393 -2.2100
  986MOL0     H33076   2.191   7.137   6.884 -2.4259  1.3665  0.3787
  986MOL0     H33077   2.056   7.049   6.825 -1.1718 -0.8510  0.5225
  986MOL0     H33078   2.020   6.965   7.076  0.2831  0.3031  1.0098
  986MOL0     H33079   2.127   7.102   7.115  2.2781 -0.9077 -1.2747
  986MOL0     H33080   1.877   7.167   7.126  0.7280  1.9129  0.2146
  986MOL0     H33081   1.876   7.117   6.964 -0.5755 -0.3656  0.0947
  986MOL0     H33082   2.048   7.360   7.045 -0.6240  1.3533 -2.1038
  986MOL0     H33083   2.004   7.314   6.885 -1.8195 -0.1546 -1.1374
  986MOL0     H33084   1.764   7.336   6.940  0.7486 -1.2355  0.6793
  986MOL0     H33085   1.862   7.492   6.926 -0.6447  0.0792 -1.2885
  986MOL0     H33086   1.793   7.356   7.180  1.1915 -0.8226 -1.0392
  986MOL0     H33087   1.856   7.521   7.155  0.8416 -0.5238 -2.1937
  986MOL0     H33088   1.600   7.509   7.204 -1.2764  1.7392 -0.2311
  986MOL0     H33089   1.581   7.451   7.034 -0.4448  1.4957  1.0216
  986MOL0     H33090   1.538   7.683   7.049 -0.0187  0.6997 -0.0429
  986MOL0     H33091   1.703   7.668   6.973  0.3186 -1.0831 -0.6836
  986MOL0     H33092   2.073   6.894   6.638 -0.3263  0.3928 -0.9946
  986MOL0     H33093   2.172   6.773   6.470  2.7437 -1.0902 -2.5177
  986MOL0     H33094   2.386   6.624   6.179  0.9168 -1.4976  0.2835
  986MOL0     H33095   2.519   6.532   6.002 -1.3072  0.1529  0.8593
  986MOL0     H33096   4.245   7.201   6.235  3.4761 -0.2914  2.0091
  986MOL0     H33097   4.434   7.369   6.157  1.3318  1.5710 -2.2785
  986MOL0     H33098   4.426   7.634   5.684  0.6467  0.4485  0.9643
  986MOL0     H33099   4.571   7.785   5.551 -0.3589  0.3090  0.3778
  986MOL0     H33100   4.729   7.886   5.461 -1.1485 -1.9255 -0.8625
  986MOL0     H33101   4.891   7.894   5.408 -0.5181  1.0251  0.8459
  986MOL0     H33102   4.663   7.708   5.324  0.2934 -2.2413  0.6001
  986MOL0     H33103   4.811   7.617   5.345 -0.5577 -0.8757 -1.4557
  986MOL0     H33104   4.902   7.684   5.165 -0.1784  0.1537 -0.9642
  986MOL0     H33105   4.872   7.858   5.211  1.3195 -0.5001  0.7035
  986MOL0     H33106   4.635   7.833   5.110  0.7053  1.2285 -2.4815
  986MOL0     H33107   4.664   7.666   5.100 -1.4252  0.3375  1.4816
  986MOL0     H33108   4.871   7.821   4.749  2.2638 -2.0367  0.5590
  986MOL0     H33109   4.918   7.573   5.729 -0.6371 -3.3049  1.8968
  986MOL0     H33110   4.780   7.430   5.845  0.8412 -0.4796 -0.0670
  987MOL0     O33111   4.771  11.099   5.321  0.0811 -0.2185  0.4935
  987MOL0     C33112   4.670  11.144   5.262 -0.1987 -0.4373 -2.1545
  987MOL0     O33113   4.594  11.080   5.177 -0.1628 -0.6826  0.3721
  987MOL0     C33114   4.654  10.985   5.105 -0.1805  0.5622  0.4106
  987MOL0     C33115   4.686  11.005   4.969  0.2584  0.0782  0.3703
  987MOL0     C33116   4.730  10.898   4.899  0.5025  0.6589  0.0266
  987MOL0     C33117   4.750  10.775   4.960  0.0560  0.5360  0.7845
  987MOL0     O33118   4.792  10.670   4.882 -0.3815 -0.5745 -0.4136
  987MOL0     C33119   4.709  10.558   4.887  0.1867 -0.3007  0.4328
  987MOL0     C33120   4.774  10.468   4.781  0.4867  0.7862  0.2805
  987MOL0     C33121   4.681  10.343   4.763 -0.6157 -0.7401  1.0518
  987MOL0     C33122   4.746  10.237   4.667  0.6762 -0.3373 -0.3005
  987MOL0     C33123   4.676  10.104   4.635 -0.4631 -0.4030 -0.4257
  987MOL0     C33124   4.592  10.104   4.505  0.4783  0.5584 -0.8676
  987MOL0     C33125   4.483  10.203   4.504  0.8630 -0.3889 -0.4103
  987MOL0     C33126   4.367  10.148   4.406  0.4850  0.7404  0.2048
  987MOL0     N33127   4.282  10.268   4.371  1.2203  0.0611  0.7821
  987MOL0     C33128   4.295  10.326   4.247  0.1252 -1.1243  0.4493
  987MOL0     C33129   4.183  10.408   4.244  0.1163  0.4871 -1.1353
  987MOL0     C33130   4.152  10.513   4.140 -0.2595 -0.5571  0.3840
  987MOL0     C33131   4.172  10.474   3.992 -0.5414  0.1141  0.1429
  987MOL0     C33132   4.094  10.358   3.937  0.2833 -0.0411 -0.4106
  987MOL0     C33133   3.957  10.406   3.890 -0.4680  0.3433  0.0598
  987MOL0     O33134   3.891  10.302   3.825 -0.0883  0.3228 -0.9330
  987MOL0     C33135   3.952  10.254   3.710  0.0626 -0.3454 -0.4952
  987MOL0     C33136   3.961  10.112   3.697  1.0544  0.3215  0.6985
  987MOL0     C33137   3.986  10.066   3.567  0.6175  0.2322 -0.3254
  987MOL0     C33138   3.987   9.922   3.550  0.1140  0.0303  0.5419
  987MOL0     C33139   4.027  10.153   3.462 -0.5100 -0.3044 -0.0596
  987MOL0     C33140   4.069  10.115   3.319  0.5497  0.1346 -0.5545
  987MOL0     O33141   4.140  10.211   3.250 -0.5334 -0.0795  0.2091
  987MOL0     C33142   4.224  10.172   3.158  0.2397  0.0741  0.7379
  987MOL0     C33143   4.185  10.162   3.023  0.1093  0.4174 -0.2459
  987MOL0     C33144   4.277  10.119   2.927 -0.2745  0.1564 -0.4795
  987MOL0     C33145   4.414  10.098   2.964 -0.1816  0.1058 -0.2685
  987MOL0     O33146   4.500  10.058   2.869  0.2858 -0.6321  0.0300
  987MOL0     C33147   4.579   9.949   2.893 -0.0859 -0.3311 -0.7692
  987MOL0     C33148   4.695   9.943   2.786  0.0396  0.3513  0.3740
  987MOL0     C33149   4.709   9.814   2.706  0.5695  0.3387  0.2062
  987MOL0     C33150   4.587   9.754   2.642 -0.3256  0.6900 -0.0087
  987MOL0     C33151   4.630   9.672   2.501  0.1824 -0.5220  0.1456
  987MOL0     C33152   4.526   9.565   2.468 -0.3611 -0.3771  0.5026
  987MOL0     C33153   4.537   9.518   2.324  0.7508 -0.8490  0.6894
  987MOL0     C33154   4.615   9.393   2.313  0.5405  0.1943  0.9295
  987MOL0    Cl33155   4.620   9.345   2.146 -0.3398  0.2672 -0.2229
  987MOL0     C33156   4.455  10.128   3.095 -0.2459 -0.3610 -1.1232
  987MOL0     C33157   4.357  10.158   3.191 -0.0773  0.4331 -1.0258
  987MOL0     O33158   4.038  10.003   3.283 -0.2148  0.0113 -0.5564
  987MOL0     C33159   4.024  10.288   3.491  0.0516 -0.6112  0.8869
  987MOL0     C33160   4.000  10.338   3.614 -0.0631  0.4995  0.4152
  987MOL0     N33161   4.113  10.399   4.367 -0.0511  0.0015 -0.4728
  987MOL0     N33162   4.178  10.314   4.440 -0.3143 -0.6380 -0.0140
  987MOL0     C33163   4.722  10.762   5.094  0.5414 -0.3740  0.1686
  987MOL0     C33164   4.663  10.865   5.167 -0.0976  0.9989  0.7093
  987MOL0     C33165   4.650  11.292   5.284  0.0353 -0.4944 -0.3967
  987MOL0     C33166   4.719  11.365   5.383  1.0428  1.0768 -0.0431
  987MOL0     C33167   4.679  11.487   5.417 -0.5005  1.1154 -1.1316
  987MOL0     C33168   4.575  11.546   5.352 -0.1941  0.0572  0.7977
  987MOL0     O33169   4.540  11.678   5.391 -0.2649  0.1716  0.2222
  987MOL0     C33170   4.538  11.694   5.535  0.3115  0.6154 -0.0076
  987MOL0     C33171   4.428  11.792   5.558  0.0075  0.6354 -0.0815
  987MOL0     C33172   4.291  11.724   5.607  0.1011  0.4084  0.8248
  987MOL0     C33173   4.170  11.816   5.614 -0.9963  0.4415  0.8099
  987MOL0     C33174   4.053  11.758   5.681 -0.2201 -0.4573  0.6673
  987MOL0     C33175   3.953  11.712   5.739  0.4900  0.1589  0.3370
  987MOL0     C33176   4.512  11.479   5.249  0.4114  0.6568  0.2054
  987MOL0     C33177   4.548  11.352   5.211  0.3644  0.3611 -0.0125
  987MOL0     H33178   4.675  11.101   4.920 -2.0109  0.0623  0.7350
  987MOL0     H33179   4.759  10.919   4.796  3.2935 -1.9618  0.1325
  987MOL0     H33180   4.701  10.527   4.992 -2.4566  1.1967  0.7629
  987MOL0     H33181   4.607  10.591   4.865  0.1205  1.1464  2.5799
  987MOL0     H33182   4.773  10.514   4.682  0.4110  1.8829  0.7770
  987MOL0     H33183   4.876  10.443   4.810  0.6332  3.2832  2.2725
  987MOL0     H33184   4.658  10.299   4.860 -2.7844 -0.0152  0.9151
  987MOL0     H33185   4.593  10.381   4.710 -0.0346 -1.6476 -0.6583
  987MOL0     H33186   4.780  10.284   4.574 -2.0182  2.0542 -0.2066
  987MOL0     H33187   4.833  10.201   4.722  0.3006 -0.3781  0.2759
  987MOL0     H33188   4.745  10.020   4.627 -1.1078 -1.4127  2.8442
  987MOL0     H33189   4.621  10.083   4.728  1.1471  1.6382  1.0902
  987MOL0     H33190   4.661  10.118   4.421  0.6409 -0.2315 -0.8741
  987MOL0     H33191   4.548  10.005   4.513  0.9583  0.4553  1.0721
  987MOL0     H33192   4.445  10.220   4.605 -0.0838  0.0608 -0.8260
  987MOL0     H33193   4.522  10.292   4.455  0.9950 -1.7987 -3.0514
  987MOL0     H33194   4.300  10.079   4.457 -0.4290  1.4726  0.0257
  987MOL0     H33195   4.419  10.098   4.324  0.3391 -1.5819  1.4656
  987MOL0     H33196   4.367  10.313   4.168 -1.1772 -2.8706 -0.5359
  987MOL0     H33197   4.048  10.545   4.141 -0.6082 -1.6438  1.5211
  987MOL0     H33198   4.207  10.600   4.177 -0.6128 -0.6386  1.1090
  987MOL0     H33199   4.266  10.418   3.997 -0.9590 -0.6043 -0.0025
  987MOL0     H33200   4.174  10.561   3.926  0.9824 -0.6909 -0.9416
  987MOL0     H33201   4.072  10.294   4.023 -1.1628  0.1520 -0.6128
  987MOL0     H33202   4.152  10.319   3.853  0.6219  0.4296 -0.3991
  987MOL0     H33203   3.959  10.495   3.826  0.4349 -0.5026 -1.1345
  987MOL0     H33204   3.901  10.423   3.983 -0.0872  1.0753  0.1657
  987MOL0     H33205   3.931  10.054   3.784  1.5159 -4.2820 -1.8979
  987MOL0     H33206   3.886   9.892   3.519 -0.1795  0.9032  0.6252
  987MOL0     H33207   4.063   9.882   3.482  1.0953  2.1339  0.3285
  987MOL0     H33208   3.996   9.878   3.650 -1.3313  1.7315  1.4711
  987MOL0     H33209   4.080  10.173   3.002  0.1996 -0.6252 -1.3157
  987MOL0     H33210   4.252  10.098   2.824 -2.1775  0.7554 -0.1688
  987MOL0     H33211   4.616   9.944   2.996 -1.6125 -3.1063 -0.2475
  987MOL0     H33212   4.521   9.857   2.881 -1.3399  0.6990 -3.3451
  987MOL0     H33213   4.668  10.023   2.716 -1.1300  0.4129  0.8576
  987MOL0     H33214   4.789   9.969   2.835  0.5565 -2.0717  0.8000
  987MOL0     H33215   4.755   9.741   2.772  0.8748  1.7288  1.5992
  987MOL0     H33216   4.784   9.830   2.628  2.8821 -2.3314  1.7045
  987MOL0     H33217   4.541   9.680   2.707  0.1394  0.6091  0.2270
  987MOL0     H33218   4.504   9.825   2.631 -0.8371  0.4929  2.1611
  987MOL0     H33219   4.730   9.630   2.514  0.3760 -0.5348 -1.1907
  987MOL0     H33220   4.630   9.754   2.428  1.1886  3.0750  3.7905
  987MOL0     H33221   4.542   9.483   2.539 -4.8478 -1.3375  0.7099
  987MOL0     H33222   4.424   9.599   2.484 -1.7610 -3.0178 -1.9435
  987MOL0     H33223   4.574   9.599   2.260 -1.3106 -1.7597 -1.8399
  987MOL0     H33224   4.438   9.492   2.286 -1.0115  1.2709  3.4529
  987MOL0     H33225   4.570   9.315   2.374  0.1505 -0.3543 -0.0394
  987MOL0     H33226   4.713   9.423   2.349  0.0380  3.0565  0.1957
  987MOL0     H33227   4.556  10.116   3.133  0.3167  0.9621 -2.1219
  987MOL0     H33228   4.384  10.167   3.295 -2.6431 -0.2631 -0.2339
  987MOL0     H33229   4.044  10.367   3.419 -0.7384 -2.3530 -1.3363
  987MOL0     H33230   4.015  10.445   3.628 -1.3330  0.8265 -0.5323
  987MOL0     H33231   4.738  10.668   5.146  0.2531 -0.0546  0.8474
  987MOL0     H33232   4.638  10.837   5.268  0.5264  0.1354  0.6244
  987MOL0     H33233   4.793  11.314   5.444  0.3051  0.6330  0.4788
  987MOL0     H33234   4.726  11.523   5.507 -0.6717  0.6388 -0.8477
  987MOL0     H33235   4.527  11.604   5.597  0.5557  1.6571  1.5916
  987MOL0     H33236   4.635  11.735   5.564  0.7188  0.9305 -1.7259
  987MOL0     H33237   4.419  11.850   5.466  0.1582 -0.6372 -0.9202
  987MOL0     H33238   4.451  11.871   5.631 -0.3506 -0.4159  1.2143
  987MOL0     H33239   4.308  11.664   5.697  0.8979 -0.5832  0.0428
  987MOL0     H33240   4.271  11.639   5.540 -0.6346  1.6347 -0.5723
  987MOL0     H33241   4.149  11.848   5.512 -1.0949 -1.9208  0.0159
  987MOL0     H33242   4.201  11.899   5.678  0.2787  0.1504  0.5862
  987MOL0     H33243   3.867  11.677   5.793  2.3515 -0.0485  3.4193
  987MOL0     H33244   4.437  11.538   5.198 -0.2962  1.2445  1.8712
  987MOL0     H33245   4.491  11.290   5.141 -2.5902  3.5387 -0.6754
  988MOL0     O33246   0.297   4.389   4.751 -0.0127  0.0391 -0.1072
  988MOL0     C33247   0.425   4.389   4.761  0.2031 -0.0866  0.8071
  988MOL0     O33248   0.507   4.492   4.808  0.2813  0.5024  0.0172
  988MOL0     C33249   0.438   4.586   4.878 -0.1792 -0.4584 -0.4436
  988MOL0     C33250   0.455   4.579   5.019 -0.2261 -0.2302  0.6544
  988MOL0     C33251   0.382   4.662   5.102  0.2184 -0.2923 -0.2298
  988MOL0     C33252   0.298   4.760   5.046 -1.5739 -0.8838  0.0874
  988MOL0     O33253   0.210   4.843   5.118 -0.4234  0.0137  0.5766
  988MOL0     C33254   0.234   4.864   5.255  0.1401  0.1317  0.5102
  988MOL0     C33255   0.170   4.769   5.342 -0.1542  0.6986 -0.8451
  988MOL0     C33256   0.014   4.801   5.352  0.4999 -0.5209 -0.9797
  988MOL0     C33257  -0.067   4.689   5.408  0.0328  0.5539  0.3650
  988MOL0     C33258  -0.213   4.714   5.417  0.0231  0.3640 -1.1607
  988MOL0     C33259  -0.303   4.599   5.454  1.4350  0.8125 -0.6625
  988MOL0     C33260  -0.447   4.661   5.447 -0.0559 -0.1660 -0.1368
  988MOL0     C33261  -0.563   4.564   5.470  0.7202  0.0679 -0.2030
  988MOL0     N33262  -0.687   4.635   5.508  0.1111  0.4897  0.5071
  988MOL0     C33263  -0.758   4.709   5.420 -0.8106  0.3678  0.1802
  988MOL0     C33264  -0.842   4.783   5.495  0.1974  0.0908 -0.3488
  988MOL0     C33265  -0.948   4.870   5.440  0.7033  0.3534 -0.3388
  988MOL0     C33266  -1.080   4.851   5.518  0.4371 -0.3194  0.0622
  988MOL0     C33267  -1.078   4.927   5.650 -0.2000 -0.3110  0.0157
  988MOL0     C33268  -1.216   4.992   5.666 -0.2714 -0.5162  0.1745
  988MOL0     O33269  -1.330   4.917   5.614  0.0926 -0.3827 -0.6162
  988MOL0     C33270  -1.410   4.838   5.691 -0.0986 -0.1319 -0.9128
  988MOL0     C33271  -1.415   4.835   5.830  0.6646  0.0302  0.2219
  988MOL0     C33272  -1.503   4.742   5.892 -0.9685 -0.4222 -0.5585
  988MOL0     C33273  -1.500   4.747   6.038  0.7540  0.0246  0.1929
  988MOL0     C33274  -1.594   4.671   5.827 -0.3612  0.3511  0.2795
  988MOL0     C33275  -1.714   4.601   5.876 -1.5518 -0.7124  0.2425
  988MOL0     O33276  -1.731   4.571   6.010  0.5911  0.4570  0.9170
  988MOL0     C33277  -1.854   4.527   6.055  0.4478 -0.2896  1.2053
  988MOL0     C33278  -1.905   4.392   6.045 -0.3501 -1.5560  0.2861
  988MOL0     C33279  -2.027   4.356   6.097  0.1666  0.8612  0.7883
  988MOL0     C33280  -2.106   4.451   6.167  0.2279 -0.3611 -0.7209
  988MOL0     O33281  -2.236   4.423   6.209 -0.4067 -0.4308 -0.2269
  988MOL0     C33282  -2.305   4.467   6.327 -0.2253 -0.1714  0.6072
  988MOL0     C33283  -2.416   4.367   6.356 -0.4362 -0.2100  0.6729
  988MOL0     C33284  -2.360   4.238   6.404  0.0841  0.6808  0.1876
  988MOL0     C33285  -2.475   4.140   6.434  0.0606  0.2366  0.2482
  988MOL0     C33286  -2.415   3.998   6.420  0.1887 -0.3564 -0.3096
  988MOL0     C33287  -2.488   3.889   6.484 -0.2365 -0.5304  0.0902
  988MOL0     C33288  -2.614   3.838   6.406 -0.5229  0.2387  0.5017
  988MOL0     C33289  -2.690   3.719   6.463  0.5209 -0.4363 -0.7911
  988MOL0    Cl33290  -2.841   3.723   6.365  0.3557 -0.2217 -0.2468
  988MOL0     C33291  -2.051   4.577   6.199 -0.4277  0.0201 -0.3877
  988MOL0     C33292  -1.924   4.613   6.140 -0.3184  0.2878 -0.1262
  988MOL0     O33293  -1.803   4.575   5.790 -0.3533  0.0243 -0.4537
  988MOL0     C33294  -1.577   4.665   5.684  0.0498 -0.4614 -0.7257
  988MOL0     C33295  -1.484   4.744   5.617  0.0239  1.3623 -0.2183
  988MOL0     N33296  -0.811   4.761   5.628 -0.3312  0.0857 -0.7848
  988MOL0     N33297  -0.719   4.670   5.636 -0.4056  0.7348 -0.3157
  988MOL0     C33298   0.292   4.770   4.900  0.1804 -0.7635 -1.0059
  988MOL0     C33299   0.364   4.685   4.818  0.0310  0.0710  0.3312
  988MOL0     C33300   0.491   4.280   4.674  0.4389 -0.1024  0.4001
  988MOL0     C33301   0.628   4.286   4.651 -0.0306  0.3422 -0.2264
  988MOL0     C33302   0.693   4.189   4.572  0.4444 -0.3126  0.9813
  988MOL0     C33303   0.623   4.086   4.510  0.2710  0.2072  0.4394
  988MOL0     O33304   0.690   3.984   4.453  0.3960  0.0184 -0.2371
  988MOL0     C33305   0.714   4.013   4.312  1.1223 -0.6649 -0.7703
  988MOL0     C33306   0.790   3.907   4.242  0.6814 -0.7650 -0.1028
  988MOL0     C33307   0.940   3.922   4.284 -1.0531 -0.0127 -0.5054
  988MOL0     C33308   1.010   4.050   4.238  0.3459  0.8007  0.3646
  988MOL0     C33309   1.151   4.034   4.288 -0.3865  0.0486  0.0102
  988MOL0     C33310   1.248   4.001   4.353 -0.6983 -0.9896 -1.1812
  988MOL0     C33311   0.493   4.077   4.537  0.0739  0.2959 -0.3522
  988MOL0     C33312   0.430   4.169   4.612 -0.3139 -0.1877 -0.3932
  988MOL0     H33313   0.519   4.497   5.047  0.1250  0.2274  1.2168
  988MOL0     H33314   0.394   4.649   5.209 -0.1648 -3.0872 -0.4459
  988MOL0     H33315   0.342   4.852   5.271  0.0157  0.0500  1.3190
  988MOL0     H33316   0.190   4.963   5.272 -4.8453 -1.5375 -0.9643
  988MOL0     H33317   0.175   4.665   5.310  1.7354 -1.0329  4.0891
  988MOL0     H33318   0.206   4.773   5.445 -1.4958  2.3123 -0.3883
  988MOL0     H33319  -0.002   4.886   5.419 -0.0247 -2.5723  1.6435
  988MOL0     H33320  -0.017   4.834   5.253 -0.8757 -2.6427 -1.3176
  988MOL0     H33321  -0.055   4.591   5.360 -2.0980 -0.9575  2.7107
  988MOL0     H33322  -0.025   4.673   5.508  2.4369 -1.0576 -0.7956
  988MOL0     H33323  -0.233   4.802   5.479  0.7677  3.3735 -4.8376
  988MOL0     H33324  -0.239   4.747   5.316  1.0450 -2.2219 -2.3812
  988MOL0     H33325  -0.304   4.522   5.376  0.3398  0.5027 -0.3634
  988MOL0     H33326  -0.280   4.552   5.550  3.1388 -0.4067 -1.6091
  988MOL0     H33327  -0.449   4.732   5.530  1.4381 -0.1304 -0.1192
  988MOL0     H33328  -0.460   4.706   5.348  0.1166  0.8994  0.3144
  988MOL0     H33329  -0.555   4.483   5.543 -1.5848 -0.8860 -0.9202
  988MOL0     H33330  -0.592   4.517   5.376 -0.4480 -0.5776  0.4555
  988MOL0     H33331  -0.757   4.724   5.313 -1.9885  3.3018  0.4726
  988MOL0     H33332  -0.927   4.977   5.443 -1.2262  0.7653  1.6994
  988MOL0     H33333  -0.972   4.832   5.340 -2.4308 -0.1369  0.4722
  988MOL0     H33334  -1.099   4.746   5.543 -0.7818 -0.4351 -1.2474
  988MOL0     H33335  -1.160   4.886   5.452 -0.5620 -0.1918  1.2813
  988MOL0     H33336  -0.996   4.999   5.644  0.0619 -0.4480  1.5255
  988MOL0     H33337  -1.066   4.857   5.734  2.8306 -3.0176 -2.4143
  988MOL0     H33338  -1.209   5.082   5.604  0.1000 -0.4770  0.2688
  988MOL0     H33339  -1.230   5.023   5.770  2.4010  0.2459  0.3912
  988MOL0     H33340  -1.339   4.891   5.884  2.2602 -2.2709  0.5328
  988MOL0     H33341  -1.557   4.832   6.077  0.0702 -0.7991  1.0456
  988MOL0     H33342  -1.529   4.654   6.088 -2.8087 -0.0489 -1.6843
  988MOL0     H33343  -1.400   4.770   6.077  0.7046  2.2416 -0.8170
  988MOL0     H33344  -1.851   4.327   5.977 -0.0550 -0.7753 -0.2394
  988MOL0     H33345  -2.063   4.253   6.091  3.4595 -0.3884  0.0934
  988MOL0     H33346  -2.235   4.472   6.411  1.4421  0.6029 -0.7393
  988MOL0     H33347  -2.349   4.563   6.299 -0.2378 -0.5874 -0.9210
  988MOL0     H33348  -2.478   4.420   6.429  0.6643  2.0619  0.0501
  988MOL0     H33349  -2.472   4.360   6.263  2.0655  0.0389 -0.9513
  988MOL0     H33350  -2.289   4.249   6.486  0.2201 -2.1464  0.5602
  988MOL0     H33351  -2.314   4.191   6.317  1.6910 -0.1639  1.4397
  988MOL0     H33352  -2.500   4.154   6.539 -1.5484  0.6606 -0.1584
  988MOL0     H33353  -2.558   4.158   6.365  0.4520 -2.5939 -1.0963
  988MOL0     H33354  -2.314   3.999   6.462  0.9774  0.9252 -2.1109
  988MOL0     H33355  -2.414   3.986   6.311  2.6547 -2.1952 -0.1644
  988MOL0     H33356  -2.424   3.800   6.484  0.0667 -0.3194 -0.5130
  988MOL0     H33357  -2.510   3.914   6.589 -0.2760 -0.5175  0.0788
  988MOL0     H33358  -2.573   3.803   6.311 -3.4429 -0.5163 -0.5652
  988MOL0     H33359  -2.680   3.921   6.379 -0.5661 -0.1373 -0.6027
  988MOL0     H33360  -2.702   3.736   6.571 -0.9120 -2.8118 -0.5002
  988MOL0     H33361  -2.635   3.625   6.463  1.2529 -0.2998  4.2629
  988MOL0     H33362  -2.103   4.655   6.253  1.4967 -0.8919  3.0813
  988MOL0     H33363  -1.874   4.705   6.165 -1.6045  0.9109  0.2286
  988MOL0     H33364  -1.638   4.592   5.631  0.4985 -2.3156  1.1534
  988MOL0     H33365  -1.475   4.743   5.509  2.9038 -2.6912 -0.1872
  988MOL0     H33366   0.224   4.840   4.854  1.6350  1.7053  0.4179
  988MOL0     H33367   0.340   4.686   4.712 -0.0575 -2.2838  0.2657
  988MOL0     H33368   0.684   4.367   4.698  0.7246  2.1167 -3.8488
  988MOL0     H33369   0.794   4.208   4.535 -0.3477  1.9133 -0.2365
  988MOL0     H33370   0.613   4.003   4.270  0.3657  2.6050 -0.0407
  988MOL0     H33371   0.753   4.114   4.295  1.1825 -0.5086  0.2470
  988MOL0     H33372   0.784   3.922   4.134  0.6385 -0.6631 -0.0868
  988MOL0     H33373   0.755   3.806   4.266 -3.0276  0.4008 -0.0276
  988MOL0     H33374   0.991   3.836   4.242 -1.3598  1.4480 -4.2874
  988MOL0     H33375   0.933   3.922   4.393  0.3420 -1.2404 -0.3876
  988MOL0     H33376   0.968   4.135   4.293  3.8386  1.4375  2.3309
  988MOL0     H33377   1.019   4.066   4.130  1.4432 -0.1927  0.2844
  988MOL0     H33378   1.324   3.951   4.410 -2.6794 -2.9047 -0.0340
  988MOL0     H33379   0.443   3.983   4.516  2.3364 -1.6732  2.2208
  988MOL0     H33380   0.322   4.162   4.616 -0.4820  1.5784 -1.1554
  989MOL0     O33381   7.197   5.923   0.912  0.4967  0.4882  0.1504
  989MOL0     C33382   7.137   5.934   1.019 -0.1692 -0.9389 -0.1669
  989MOL0     O33383   7.175   6.015   1.118 -0.2068  0.4820  0.1530
  989MOL0     C33384   7.307   6.060   1.119  0.0615 -0.1070  0.3370
  989MOL0     C33385   7.415   5.988   1.079 -1.4946  0.1070  0.6142
  989MOL0     C33386   7.553   6.039   1.103  0.3332  0.3959  0.8147
  989MOL0     C33387   7.576   6.169   1.146 -0.6943 -0.7755  0.7568
  989MOL0     O33388   7.691   6.240   1.162  0.4164  0.5582  0.5026
  989MOL0     C33389   7.819   6.177   1.170  0.0899 -0.6045  0.0018
  989MOL0     C33390   7.929   6.260   1.236  0.1097  1.0862  0.3984
  989MOL0     C33391   7.951   6.403   1.181 -0.0422  0.3216 -0.4316
  989MOL0     C33392   8.007   6.392   1.036 -0.0895 -0.7467 -0.0634
  989MOL0     C33393   8.058   6.524   0.964  0.2319 -0.0129  0.5743
  989MOL0     C33394   7.936   6.615   0.945 -0.4327  0.4487 -0.4729
  989MOL0     C33395   7.992   6.745   0.885  0.1105 -0.6153 -0.8078
  989MOL0     C33396   7.888   6.840   0.824  0.1067 -0.2908 -0.7177
  989MOL0     N33397   7.812   6.763   0.724 -0.1291 -0.0456  0.4668
  989MOL0     C33398   7.857   6.742   0.590 -0.0791 -0.2411  1.4774
  989MOL0     C33399   7.739   6.703   0.524  0.1010 -0.5956  0.2592
  989MOL0     C33400   7.733   6.670   0.381  0.7127  0.2140  0.0877
  989MOL0     C33401   7.779   6.525   0.348  0.0771 -0.3679  0.8367
  989MOL0     C33402   7.760   6.472   0.200  0.3754  0.3646 -0.0440
  989MOL0     C33403   7.774   6.317   0.206  0.3269 -0.4361  0.2866
  989MOL0     O33404   7.743   6.274   0.068  0.0039 -0.5205  0.0547
  989MOL0     C33405   7.614   6.233   0.038  0.3043  0.5951  0.2078
  989MOL0     C33406   7.606   6.159  -0.083  0.0309 -0.6107 -0.5068
  989MOL0     C33407   7.487   6.104  -0.129  0.4920  0.2244  0.8691
  989MOL0     C33408   7.477   6.022  -0.259  0.3653 -1.0278 -0.2489
  989MOL0     C33409   7.369   6.128  -0.046  0.2846 -0.2679  0.6357
  989MOL0     C33410   7.221   6.083  -0.082  0.0578  0.6035  0.5753
  989MOL0     O33411   7.211   5.975  -0.162 -0.2980 -0.0032  0.2209
  989MOL0     C33412   7.092   5.942  -0.229 -0.0693  0.6606 -0.8534
  989MOL0     C33413   6.984   5.916  -0.157  0.7553  0.0449 -0.8615
  989MOL0     C33414   6.870   5.878  -0.226 -0.1230  0.4642 -0.1172
  989MOL0     C33415   6.871   5.860  -0.370  0.0844  0.0038  0.1101
  989MOL0     O33416   6.757   5.812  -0.436  0.0023  0.0201 -0.7956
  989MOL0     C33417   6.691   5.703  -0.378  0.2391 -0.6549 -0.7064
  989MOL0     C33418   6.576   5.682  -0.467  0.6214  0.5165 -0.4903
  989MOL0     C33419   6.459   5.606  -0.401  0.7617  0.4885  0.4668
  989MOL0     C33420   6.389   5.651  -0.271 -0.2705  1.7052  0.1288
  989MOL0     C33421   6.295   5.538  -0.221  0.7020  0.4254 -0.5851
  989MOL0     C33422   6.154   5.538  -0.284  0.5328 -0.2500  0.0270
  989MOL0     C33423   6.048   5.462  -0.198 -0.0955  0.1861 -0.2341
  989MOL0     C33424   6.065   5.313  -0.212  0.1305  0.2431 -0.2915
  989MOL0    Cl33425   5.902   5.246  -0.208 -0.2411  0.3002  0.3504
  989MOL0     C33426   6.984   5.894  -0.441  0.4221 -0.3543 -0.4915
  989MOL0     C33427   7.092   5.937  -0.372 -0.6336  0.5350 -1.0303
  989MOL0     O33428   7.120   6.147  -0.050 -0.1656  0.7594  0.7031
  989MOL0     C33429   7.380   6.205   0.070  0.1556 -0.2498  0.2510
  989MOL0     C33430   7.501   6.259   0.105 -0.1223 -0.4206 -0.3808
  989MOL0     N33431   7.629   6.727   0.614 -0.1401 -0.2271  0.7451
  989MOL0     N33432   7.682   6.740   0.734  0.2689 -0.5325 -0.8097
  989MOL0     C33433   7.459   6.253   1.169  0.1781 -0.2761  0.5246
  989MOL0     C33434   7.331   6.194   1.154 -0.6001  0.1111  0.8944
  989MOL0     C33435   7.004   5.868   1.030 -0.0586 -0.0669  0.0011
  989MOL0     C33436   6.962   5.834   1.158  0.5211  0.1341 -0.1028
  989MOL0     C33437   6.837   5.786   1.180 -0.0525 -0.4345  0.3831
  989MOL0     C33438   6.751   5.763   1.068 -0.4801 -0.4004  0.2934
  989MOL0     O33439   6.625   5.713   1.089 -0.2580 -0.0353  0.2102
  989MOL0     C33440   6.515   5.802   1.057  0.1420  0.1904  0.5035
  989MOL0     C33441   6.482   5.898   1.182  0.2080  0.4395  0.4379
  989MOL0     C33442   6.343   5.860   1.240 -1.0679 -0.1428  0.2405
  989MOL0     C33443   6.330   5.707   1.285  0.5716  0.0589 -0.2552
  989MOL0     C33444   6.426   5.669   1.389 -0.1928 -0.2422 -0.2740
  989MOL0     C33445   6.508   5.643   1.472 -0.3415 -0.4281  0.8268
  989MOL0     C33446   6.796   5.789   0.944  0.9185 -0.4417 -0.1102
  989MOL0     C33447   6.925   5.842   0.919 -0.3090 -0.2552 -0.1874
  989MOL0     H33448   7.401   5.884   1.053  1.7426 -0.7848  1.9523
  989MOL0     H33449   7.640   5.977   1.084  0.0094  0.3067 -0.5144
  989MOL0     H33450   7.809   6.087   1.233  2.5076 -0.3368  0.9048
  989MOL0     H33451   7.860   6.145   1.074  1.8990 -1.5161  1.0105
  989MOL0     H33452   7.908   6.276   1.343 -1.4900 -1.9417  0.6612
  989MOL0     H33453   8.017   6.195   1.235 -0.5422  0.1482  1.3886
  989MOL0     H33454   7.855   6.457   1.183  0.7928  2.0019  3.0110
  989MOL0     H33455   8.020   6.453   1.249 -0.5323  1.2024 -0.5622
  989MOL0     H33456   8.089   6.320   1.037  0.4000 -0.2270  1.7860
  989MOL0     H33457   7.927   6.342   0.981 -1.0583 -0.9713  1.4953
  989MOL0     H33458   8.129   6.573   1.030 -1.1442 -1.3387  3.2034
  989MOL0     H33459   8.116   6.496   0.876  1.2543  0.2080  1.1728
  989MOL0     H33460   7.857   6.567   0.887 -0.6375 -3.9908  2.9585
  989MOL0     H33461   7.891   6.630   1.043  0.2963  0.5885 -0.1510
  989MOL0     H33462   8.037   6.811   0.960 -0.3994 -0.2356 -0.8245
  989MOL0     H33463   8.062   6.723   0.804  0.3368  3.3236 -1.8941
  989MOL0     H33464   7.928   6.936   0.790 -1.3523  0.7734  0.4173
  989MOL0     H33465   7.820   6.866   0.906  2.1074 -0.5697  1.1218
  989MOL0     H33466   7.960   6.748   0.559  0.7628  1.2130  4.1835
  989MOL0     H33467   7.628   6.683   0.354  1.0383  4.1398  0.1064
  989MOL0     H33468   7.791   6.740   0.320  1.7961 -1.6462 -1.1004
  989MOL0     H33469   7.728   6.457   0.417 -0.0728 -0.6968  0.4085
  989MOL0     H33470   7.885   6.507   0.363  0.4747  0.9042 -0.1832
  989MOL0     H33471   7.850   6.514   0.154  2.4182  0.5952  3.7474
  989MOL0     H33472   7.680   6.511   0.137  0.9007  2.0155  0.2570
  989MOL0     H33473   7.704   6.270   0.276 -4.2596 -0.9080 -3.9835
  989MOL0     H33474   7.880   6.298   0.225  0.5197  0.2989 -0.0294
  989MOL0     H33475   7.696   6.162  -0.144  1.7398  1.6337  1.8997
  989MOL0     H33476   7.577   6.034  -0.304  0.9135  3.9887  1.6690
  989MOL0     H33477   7.445   5.918  -0.247  1.6037 -1.5523 -1.1617
  989MOL0     H33478   7.411   6.074  -0.329 -0.8559  2.4058  3.1209
  989MOL0     H33479   6.983   5.927  -0.049  0.4825 -1.2839 -0.7046
  989MOL0     H33480   6.795   5.846  -0.154  1.9106 -1.2357  1.3475
  989MOL0     H33481   6.753   5.612  -0.381  0.2033 -0.6645 -1.1878
  989MOL0     H33482   6.663   5.721  -0.274 -0.1656 -3.7385 -0.1799
  989MOL0     H33483   6.529   5.774  -0.502 -0.7497  0.1377  0.2835
  989MOL0     H33484   6.600   5.633  -0.561  0.9930  3.8034 -2.2579
  989MOL0     H33485   6.475   5.499  -0.384 -1.3613  0.0922  0.2853
  989MOL0     H33486   6.380   5.604  -0.476  0.1342 -1.8956  1.0734
  989MOL0     H33487   6.461   5.681  -0.194 -0.2081  2.3994 -0.2004
  989MOL0     H33488   6.344   5.747  -0.298 -1.0239  2.0728  2.4615
  989MOL0     H33489   6.266   5.563  -0.118 -1.8689  2.3118 -1.6585
  989MOL0     H33490   6.335   5.437  -0.229  3.7257  1.3715  1.1517
  989MOL0     H33491   6.133   5.645  -0.294  3.5978  0.4649  0.4384
  989MOL0     H33492   6.148   5.490  -0.382 -3.5187  2.4862 -1.3281
  989MOL0     H33493   5.946   5.484  -0.230  0.5835  1.3366 -1.7419
  989MOL0     H33494   6.051   5.484  -0.091 -0.6467 -2.5895  0.4207
  989MOL0     H33495   6.123   5.267  -0.132  0.0691 -1.4957 -1.1923
  989MOL0     H33496   6.118   5.298  -0.307  0.5434 -2.6568  0.3090
  989MOL0     H33497   6.982   5.886  -0.549 -1.9649 -0.1147 -0.5296
  989MOL0     H33498   7.186   5.949  -0.424 -0.0181  0.2516 -0.0151
  989MOL0     H33499   7.294   6.217   0.135  0.5727  3.7592  0.3222
  989MOL0     H33500   7.512   6.318   0.196  1.1076 -0.7400 -0.3059
  989MOL0     H33501   7.464   6.348   1.220 -0.0080  0.9131 -1.5359
  989MOL0     H33502   7.242   6.254   1.169 -1.6195 -1.4446  1.3144
  989MOL0     H33503   7.037   5.851   1.235 -1.1665 -0.7306  1.8053
  989MOL0     H33504   6.814   5.761   1.283 -2.3910  0.1529  0.0531
  989MOL0     H33505   6.534   5.866   0.971 -0.2535  0.2984  0.4927
  989MOL0     H33506   6.428   5.751   1.013 -1.0346  1.5093  1.2153
  989MOL0     H33507   6.493   6.000   1.143  0.7041 -0.2848 -1.4135
  989MOL0     H33508   6.564   5.889   1.254  1.2711 -0.0436 -0.8035
  989MOL0     H33509   6.270   5.895   1.166  1.5188  1.6520 -1.6633
  989MOL0     H33510   6.339   5.923   1.330 -0.0532  0.7018 -0.2864
  989MOL0     H33511   6.341   5.638   1.201 -3.0905 -0.6007 -0.3457
  989MOL0     H33512   6.227   5.690   1.319  0.4254 -0.8102 -1.1141
  989MOL0     H33513   6.587   5.618   1.541  0.8769 -1.3757 -0.8284
  989MOL0     H33514   6.739   5.747   0.862 -0.0763 -2.2531  1.4394
  989MOL0     H33515   6.952   5.862   0.816 -0.8109  2.6476  0.1645
  990MOL0     O33516   2.065   1.374  11.117 -0.1744 -0.0878  0.2567
  990MOL0     C33517   2.117   1.442  11.206  0.1200  0.5007  0.0041
  990MOL0     O33518   2.052   1.538  11.288 -0.2736  0.2700 -0.8674
  990MOL0     C33519   1.919   1.565  11.277  0.4273  0.5948 -0.7392
  990MOL0     C33520   1.863   1.583  11.158  0.4721 -0.2818  0.0219
  990MOL0     C33521   1.723   1.608  11.143 -0.2459 -0.5691  0.2804
  990MOL0     C33522   1.640   1.614  11.257  0.0961  0.5985 -0.1562
  990MOL0     O33523   1.512   1.651  11.241 -0.5190 -0.7157  0.4822
  990MOL0     C33524   1.408   1.554  11.249  0.4482  0.1266  0.2961
  990MOL0     C33525   1.284   1.594  11.161  0.0790 -0.7258  0.2900
  990MOL0     C33526   1.208   1.719  11.196  0.3174  0.2379  1.0269
  990MOL0     C33527   1.089   1.688  11.285 -0.5310 -0.4742  0.1837
  990MOL0     C33528   1.026   1.804  11.356 -0.0499  0.4245 -0.4262
  990MOL0     C33529   0.896   1.757  11.424  0.0981 -0.2597 -0.4246
  990MOL0     C33530   0.837   1.860  11.517 -0.8515 -0.3544  0.6907
  990MOL0     C33531   0.775   1.980  11.446 -0.8869 -0.0440  0.0461
  990MOL0     N33532   0.760   2.082  11.549 -0.2473  0.1356  0.5508
  990MOL0     C33533   0.672   2.074  11.655 -0.1999 -0.8098 -0.9263
  990MOL0     C33534   0.662   2.202  11.686  0.1504 -0.6850  0.2142
  990MOL0     C33535   0.564   2.271  11.779  0.1438  0.2558 -0.0131
  990MOL0     C33536   0.422   2.282  11.714  0.4619 -0.7508 -0.7184
  990MOL0     C33537   0.321   2.341  11.812 -0.5658  0.6749  0.1765
  990MOL0     C33538   0.219   2.421  11.747  0.4974  0.7191 -0.2124
  990MOL0     O33539   0.127   2.447  11.855  0.0956  0.1924  0.2496
  990MOL0     C33540  -0.005   2.467  11.820 -0.6967  0.1868  0.6881
  990MOL0     C33541  -0.089   2.462  11.929  0.8443  0.2811 -0.3402
  990MOL0     C33542  -0.223   2.506  11.915  0.3491 -0.3069 -0.5245
  990MOL0     C33543  -0.304   2.519  12.044 -0.6468 -0.1162 -0.0972
  990MOL0     C33544  -0.279   2.554  11.793 -0.7840  0.0753 -0.3339
  990MOL0     C33545  -0.416   2.606  11.778  0.4306 -0.2158  0.3469
  990MOL0     O33546  -0.520   2.574  11.857  0.2871  0.4900 -0.6947
  990MOL0     C33547  -0.639   2.632  11.866 -0.0312  0.0069 -0.3056
  990MOL0     C33548  -0.735   2.549  11.926 -1.0043  0.2251  0.5839
  990MOL0     C33549  -0.854   2.606  11.963  1.0843  0.5386 -0.0359
  990MOL0     C33550  -0.903   2.723  11.899 -0.2842  0.4264 -0.3672
  990MOL0     O33551  -1.030   2.767  11.932  0.2609  0.9618 -0.2450
  990MOL0     C33552  -1.061   2.901  11.914 -0.2019 -0.5959 -0.1223
  990MOL0     C33553  -1.212   2.934  11.946  0.1458 -0.3388  0.4099
  990MOL0     C33554  -1.253   2.884  12.075  0.2911 -0.1201  0.0891
  990MOL0     C33555  -1.388   2.929  12.110  0.1687  0.2974  0.3177
  990MOL0     C33556  -1.429   2.858  12.236 -0.3669 -0.7135 -0.2025
  990MOL0     C33557  -1.578   2.871  12.261 -0.4349  0.6583  0.5977
  990MOL0     C33558  -1.625   2.783  12.371 -0.5040  0.5564  0.0013
  990MOL0     C33559  -1.774   2.759  12.379  0.0656  0.0114  0.6057
  990MOL0    Cl33560  -1.852   2.685  12.240  0.5712  0.0864 -0.3458
  990MOL0     C33561  -0.807   2.798  11.822  0.1998  0.3646  0.2411
  990MOL0     C33562  -0.676   2.761  11.824 -1.2568  0.6344  0.4779
  990MOL0     O33563  -0.427   2.679  11.682  0.5941 -0.2261  0.4754
  990MOL0     C33564  -0.191   2.545  11.680 -0.1897  0.2070  0.8283
  990MOL0     C33565  -0.056   2.499  11.691  0.5066  0.6264 -0.2046
  990MOL0     N33566   0.748   2.285  11.620 -0.1373 -0.8535  0.1915
  990MOL0     N33567   0.817   2.206  11.537 -0.1321  0.8766  0.0377
  990MOL0     C33568   1.698   1.606  11.383 -0.0681  0.5732  0.1056
  990MOL0     C33569   1.842   1.589  11.388  0.0157 -0.5507  0.3937
  990MOL0     C33570   2.256   1.417  11.251 -0.0868  0.1110  1.1083
  990MOL0     C33571   2.348   1.327  11.180 -0.9496 -0.0773  0.2409
  990MOL0     C33572   2.485   1.309  11.228  0.5969  0.8650 -0.1187
  990MOL0     C33573   2.529   1.387  11.331  0.5809  0.3601  0.1493
  990MOL0     O33574   2.663   1.374  11.375  0.7546  0.0542 -0.6499
  990MOL0     C33575   2.744   1.270  11.323  0.2444 -0.3222  1.7151
  990MOL0     C33576   2.809   1.313  11.186  0.6230  0.3371 -0.9636
  990MOL0     C33577   2.905   1.425  11.209 -0.3834 -0.2587 -0.4663
  990MOL0     C33578   2.856   1.555  11.264  0.1906  0.1246  0.3763
  990MOL0     C33579   2.964   1.658  11.256  0.3505 -1.1780  0.6391
  990MOL0     C33580   3.051   1.738  11.257 -0.1797 -0.0695 -0.6000
  990MOL0     C33581   2.440   1.465  11.401 -1.1070  0.4272  0.2759
  990MOL0     C33582   2.305   1.478  11.366 -0.4494  0.4867 -0.3283
  990MOL0     H33583   1.923   1.575  11.067  1.2564 -2.4009  0.6457
  990MOL0     H33584   1.685   1.618  11.042 -0.6610  1.9405  0.6216
  990MOL0     H33585   1.450   1.456  11.229  1.2898  0.3671  0.8090
  990MOL0     H33586   1.372   1.536  11.351  0.7453  2.5582  0.9112
  990MOL0     H33587   1.309   1.606  11.055 -1.9177 -1.9382 -0.3717
  990MOL0     H33588   1.213   1.511  11.153 -2.9585  1.6961 -0.1584
  990MOL0     H33589   1.277   1.779  11.256  0.3655  1.0673  0.1611
  990MOL0     H33590   1.175   1.778  11.111  1.2138  0.7494  1.0198
  990MOL0     H33591   1.014   1.637  11.224 -0.3863 -0.6041  0.1107
  990MOL0     H33592   1.098   1.615  11.367 -1.6494 -0.1410  0.6168
  990MOL0     H33593   1.094   1.835  11.437  0.2984 -0.1671 -0.4850
  990MOL0     H33594   1.021   1.878  11.276  0.7050 -0.5090 -1.3647
  990MOL0     H33595   0.831   1.735  11.339 -0.2102  0.4746 -0.3846
  990MOL0     H33596   0.910   1.667  11.485  0.7946 -1.2558 -1.9688
  990MOL0     H33597   0.771   1.811  11.589 -0.6208 -1.4228  0.1977
  990MOL0     H33598   0.918   1.903  11.576 -0.5555  2.7143 -1.6948
  990MOL0     H33599   0.680   1.955  11.398 -2.6863 -0.5828  3.5744
  990MOL0     H33600   0.832   2.020  11.361  2.5100 -0.2349  2.0686
  990MOL0     H33601   0.609   1.989  11.680 -1.0131 -0.5926 -2.1567
  990MOL0     H33602   0.562   2.213  11.871  1.3151  0.3627  0.0964
  990MOL0     H33603   0.608   2.368  11.805 -2.8947  0.7565  4.1481
  990MOL0     H33604   0.375   2.184  11.699  0.1215 -1.8127  5.0828
  990MOL0     H33605   0.437   2.339  11.621 -1.1165  0.3185 -0.3558
  990MOL0     H33606   0.379   2.396  11.887 -1.9423 -0.1378  1.9242
  990MOL0     H33607   0.272   2.264  11.872  2.3618 -0.6878  1.0360
  990MOL0     H33608   0.168   2.368  11.666 -0.2953  3.3147 -1.5096
  990MOL0     H33609   0.260   2.519  11.723 -1.0343  1.8510  1.4807
  990MOL0     H33610  -0.038   2.434  12.021  0.1063 -0.6738 -0.2109
  990MOL0     H33611  -0.259   2.487  12.138  1.8730 -1.3511 -1.6107
  990MOL0     H33612  -0.326   2.623  12.068  2.5562  0.3002  1.6298
  990MOL0     H33613  -0.390   2.452  12.039 -0.2001 -0.7064 -0.0132
  990MOL0     H33614  -0.710   2.454  11.973  3.8571  1.4087  1.0047
  990MOL0     H33615  -0.910   2.552  12.040  1.1799  1.3632  0.6316
  990MOL0     H33616  -0.997   2.974  11.965 -2.2217  0.2865  1.3222
  990MOL0     H33617  -1.052   2.917  11.806 -2.1203  2.2671  0.0067
  990MOL0     H33618  -1.228   3.042  11.936  1.3380 -0.3343 -2.3974
  990MOL0     H33619  -1.274   2.895  11.865 -1.7654  1.3533  0.9938
  990MOL0     H33620  -1.182   2.911  12.153  1.8094 -0.2191 -1.1988
  990MOL0     H33621  -1.247   2.775  12.065  1.5294 -0.3861  2.7602
  990MOL0     H33622  -1.390   3.036  12.129 -1.0858 -0.0083  2.1681
  990MOL0     H33623  -1.451   2.912  12.022  0.1835 -2.6300  0.7668
  990MOL0     H33624  -1.378   2.911  12.317 -0.2692 -1.4046  0.2034
  990MOL0     H33625  -1.397   2.753  12.233  0.9663 -0.3053 -1.1164
  990MOL0     H33626  -1.596   2.974  12.293  1.9409  0.6493  2.2296
  990MOL0     H33627  -1.640   2.839  12.177  1.8899 -3.3970  0.1323
  990MOL0     H33628  -1.591   2.825  12.466 -0.3005  1.1136 -0.3175
  990MOL0     H33629  -1.575   2.686  12.361  0.2857  0.7328  1.8168
  990MOL0     H33630  -1.822   2.857  12.389 -0.7504 -0.5626  2.9828
  990MOL0     H33631  -1.798   2.702  12.469  0.0384 -1.0108 -0.0370
  990MOL0     H33632  -0.838   2.887  11.768 -1.6243  0.4844  1.4068
  990MOL0     H33633  -0.611   2.833  11.776 -1.6550 -0.2094 -1.4213
  990MOL0     H33634  -0.224   2.577  11.582  1.8874  0.7942  0.2843
  990MOL0     H33635   0.012   2.523  11.610  1.0909  0.2130  0.1582
  990MOL0     H33636   1.629   1.612  11.467  0.1156  0.2536  0.2786
  990MOL0     H33637   1.890   1.585  11.485  0.2975  0.3402  0.2981
  990MOL0     H33638   2.323   1.287  11.082 -0.5936  2.2224 -0.8632
  990MOL0     H33639   2.550   1.251  11.164 -0.4372  0.2488 -0.6342
  990MOL0     H33640   2.823   1.250  11.397  2.4990  1.3270 -0.1102
  990MOL0     H33641   2.689   1.175  11.313 -0.2506  0.2011 -1.2364
  990MOL0     H33642   2.733   1.344  11.113  1.1194 -1.7069 -2.4460
  990MOL0     H33643   2.870   1.233  11.144  0.3315 -0.0445 -0.6661
  990MOL0     H33644   2.957   1.454  11.116  1.1084 -2.2786 -0.3245
  990MOL0     H33645   2.983   1.379  11.271  1.1996  0.4954 -1.7918
  990MOL0     H33646   2.831   1.537  11.369 -3.2429  0.5110 -0.2660
  990MOL0     H33647   2.771   1.595  11.209  0.4802  1.6922  1.0173
  990MOL0     H33648   3.129   1.810  11.273  1.4338 -1.4182 -1.9213
  990MOL0     H33649   2.479   1.527  11.482 -0.7118  1.6578 -0.8143
  990MOL0     H33650   2.245   1.544  11.428 -1.3714 -1.4663  0.9545
  991MOL0     O33651   2.720   4.112   5.949  0.0076  0.0069 -0.5494
  991MOL0     C33652   2.767   4.201   5.878  0.5788  0.1728 -0.7018
  991MOL0     O33653   2.701   4.284   5.791  0.8466 -0.3401 -0.0608
  991MOL0     C33654   2.565   4.283   5.785  0.3458  0.2539 -0.3312
  991MOL0     C33655   2.480   4.263   5.889 -0.9627 -0.7604  0.3914
  991MOL0     C33656   2.344   4.267   5.870 -0.1677  0.4493  0.0485
  991MOL0     C33657   2.285   4.308   5.742 -0.2385  0.6344  0.8536
  991MOL0     O33658   2.157   4.293   5.702  0.5777 -0.2136  0.4524
  991MOL0     C33659   2.071   4.207   5.776 -0.4894  0.3884 -0.3364
  991MOL0     C33660   1.931   4.222   5.720  1.0312  0.3452  0.6344
  991MOL0     C33661   1.827   4.179   5.819  0.0019  0.7093  0.2245
  991MOL0     C33662   1.839   4.046   5.892 -0.2484 -0.8834  0.8202
  991MOL0     C33663   1.700   3.992   5.933 -0.6003  1.1066  0.0231
  991MOL0     C33664   1.624   3.931   5.811  0.9861 -0.2401 -0.3349
  991MOL0     C33665   1.488   3.987   5.829  0.1347 -0.5839 -0.6442
  991MOL0     C33666   1.394   3.896   5.749  0.1823  0.4608  0.2321
  991MOL0     N33667   1.248   3.905   5.775  0.6248 -0.2010 -0.8588
  991MOL0     C33668   1.155   3.996   5.735  0.4203 -0.2336 -0.5242
  991MOL0     C33669   1.041   3.969   5.807 -0.7351 -0.0220  1.2078
  991MOL0     C33670   0.910   4.029   5.806  0.8651 -0.4720  0.3096
  991MOL0     C33671   0.926   4.162   5.875  0.1824  0.3718 -0.6497
  991MOL0     C33672   0.811   4.214   5.959  0.4004 -0.2791 -0.5498
  991MOL0     C33673   0.706   4.270   5.870 -0.2574  0.1371  0.7943
  991MOL0     O33674   0.593   4.299   5.946  0.3105 -0.3228 -0.4688
  991MOL0     C33675   0.510   4.401   5.903 -0.3928  0.4749  0.9116
  991MOL0     C33676   0.494   4.425   5.766  0.6111 -0.5996  0.9877
  991MOL0     C33677   0.392   4.513   5.727 -0.3392  0.3548  0.2202
  991MOL0     C33678   0.375   4.527   5.576 -0.8798  0.6863 -1.0313
  991MOL0     C33679   0.313   4.578   5.826 -0.1342 -0.5491  0.1828
  991MOL0     C33680   0.204   4.670   5.786  0.3194  0.8286 -0.3330
  991MOL0     O33681   0.122   4.690   5.893  0.0462 -0.5887  0.0963
  991MOL0     C33682   0.004   4.744   5.866  0.2837  0.3142 -0.4424
  991MOL0     C33683  -0.105   4.662   5.844  0.3430  0.2784  0.4407
  991MOL0     C33684  -0.226   4.713   5.797 -0.2789 -0.8206 -0.8028
  991MOL0     C33685  -0.252   4.853   5.803  0.4908 -0.0809 -0.7393
  991MOL0     O33686  -0.367   4.917   5.787 -0.0526 -0.4103 -0.6408
  991MOL0     C33687  -0.486   4.848   5.827 -0.0154  0.5095  0.0281
  991MOL0     C33688  -0.599   4.952   5.823 -0.0414 -0.1271 -0.4189
  991MOL0     C33689  -0.576   5.071   5.925 -0.2920  0.1077 -0.2255
  991MOL0     C33690  -0.643   5.035   6.060  0.1030  0.0488  0.3315
  991MOL0     C33691  -0.699   5.158   6.123  0.1442  0.0744  0.3900
  991MOL0     C33692  -0.780   5.137   6.247 -0.7538  0.4355 -0.1403
  991MOL0     C33693  -0.833   5.269   6.311 -0.2707  0.2398 -0.1608
  991MOL0     C33694  -0.909   5.244   6.435 -0.1843 -0.2151 -0.0745
  991MOL0    Cl33695  -1.049   5.149   6.398 -0.3209 -0.1330 -0.0890
  991MOL0     C33696  -0.149   4.935   5.847 -0.3657  0.4095  0.1862
  991MOL0     C33697  -0.021   4.882   5.867  0.3082  0.3731 -0.0378
  991MOL0     O33698   0.196   4.713   5.673  0.3540  0.7619  0.3547
  991MOL0     C33699   0.341   4.554   5.968 -0.5405  0.6234  0.1625
  991MOL0     C33700   0.439   4.463   6.001  0.2939  0.6676 -0.3111
  991MOL0     N33701   1.065   3.858   5.883  0.1768 -0.0471  0.0616
  991MOL0     N33702   1.187   3.830   5.869  0.1883  0.3184  0.0370
  991MOL0     C33703   2.372   4.351   5.644 -0.4796 -0.6087  0.3712
  991MOL0     C33704   2.508   4.341   5.669  0.3685  0.3167 -0.1509
  991MOL0     C33705   2.914   4.205   5.904 -0.2806 -0.5576 -0.2342
  991MOL0     C33706   2.982   4.325   5.878  0.6106 -0.7402  1.5430
  991MOL0     C33707   3.116   4.353   5.910  0.2876 -0.1505  0.0143
  991MOL0     C33708   3.190   4.244   5.965  0.7960 -0.2820 -0.3456
  991MOL0     O33709   3.321   4.273   5.998  0.7432  0.1696  0.9968
  991MOL0     C33710   3.410   4.213   5.905 -0.3188  0.7935 -0.1871
  991MOL0     C33711   3.477   4.311   5.813 -0.6083 -0.8820  0.3881
  991MOL0     C33712   3.528   4.240   5.688  0.0528  0.3504 -0.1055
  991MOL0     C33713   3.629   4.324   5.601 -0.5418 -0.0894  0.1524
  991MOL0     C33714   3.770   4.322   5.649 -0.3547 -0.3691  0.2073
  991MOL0     C33715   3.885   4.347   5.694 -0.2138 -0.2731  1.0021
  991MOL0     C33716   3.126   4.126   5.995  0.0263  0.1272  0.3056
  991MOL0     C33717   2.989   4.103   5.976 -0.0854  0.5113  0.0388
  991MOL0     H33718   2.522   4.246   5.987 -1.4171 -1.3890  0.4893
  991MOL0     H33719   2.278   4.239   5.952 -0.3787 -0.6566 -0.4826
  991MOL0     H33720   2.102   4.102   5.775 -1.3980  0.0949 -2.3239
  991MOL0     H33721   2.068   4.225   5.884  0.1854 -0.5202 -0.1568
  991MOL0     H33722   1.911   4.324   5.686 -1.5716 -0.1346  0.4869
  991MOL0     H33723   1.916   4.152   5.637 -0.2331  0.5733  0.6425
  991MOL0     H33724   1.817   4.253   5.898 -0.4880  0.9655 -0.0716
  991MOL0     H33725   1.727   4.184   5.776 -0.1553  2.0265  0.6918
  991MOL0     H33726   1.891   3.969   5.835  2.3309  0.9853  0.4597
  991MOL0     H33727   1.903   4.069   5.978  2.6394  0.2816 -1.4597
  991MOL0     H33728   1.713   3.912   6.006  1.3255  1.0877 -0.2845
  991MOL0     H33729   1.648   4.072   5.987  3.3498  3.9791 -0.0202
  991MOL0     H33730   1.673   3.945   5.714  0.7071 -1.8344 -0.7324
  991MOL0     H33731   1.628   3.824   5.829  1.1089 -0.5774 -2.2087
  991MOL0     H33732   1.459   3.984   5.934 -1.0278  1.9348 -0.8342
  991MOL0     H33733   1.483   4.091   5.795 -3.6719 -0.3637  0.1679
  991MOL0     H33734   1.416   3.792   5.778  1.1660  0.5603 -0.1118
  991MOL0     H33735   1.427   3.903   5.645 -0.2554  4.3206  0.2013
  991MOL0     H33736   1.160   4.078   5.664 -0.1180 -1.8894 -2.5963
  991MOL0     H33737   0.875   4.048   5.705  2.2317 -0.7755 -0.2414
  991MOL0     H33738   0.837   3.968   5.861  1.7281 -0.1296  1.9187
  991MOL0     H33739   0.972   4.236   5.809  2.0439 -0.8458 -0.7852
  991MOL0     H33740   0.993   4.153   5.961 -0.7588  1.0503  0.1774
  991MOL0     H33741   0.840   4.297   6.024 -4.8239  1.1700  0.4529
  991MOL0     H33742   0.773   4.134   6.024 -1.2234  2.3987  2.0826
  991MOL0     H33743   0.666   4.192   5.805  0.2701  1.4856 -1.2725
  991MOL0     H33744   0.752   4.355   5.819 -0.2485 -0.6100 -0.4874
  991MOL0     H33745   0.552   4.374   5.690  0.8633  1.6662 -0.4245
  991MOL0     H33746   0.283   4.478   5.544 -1.8888  0.7988  1.4708
  991MOL0     H33747   0.372   4.629   5.538  1.0971  0.1884 -2.7270
  991MOL0     H33748   0.462   4.484   5.524  0.8465  1.8185  0.7691
  991MOL0     H33749  -0.103   4.553   5.849  1.2547  0.2375 -0.3468
  991MOL0     H33750  -0.299   4.646   5.752 -1.1484  0.9190 -2.1386
  991MOL0     H33751  -0.508   4.771   5.753  0.3118  2.1554 -1.8547
  991MOL0     H33752  -0.477   4.803   5.927 -2.0819  1.4272  0.6654
  991MOL0     H33753  -0.594   4.986   5.719 -0.7506  0.6408 -0.2153
  991MOL0     H33754  -0.697   4.906   5.833  1.2952 -3.5125 -1.5977
  991MOL0     H33755  -0.614   5.163   5.882 -2.0874 -0.5439 -0.1244
  991MOL0     H33756  -0.471   5.093   5.944 -0.4906  2.5172 -1.5311
  991MOL0     H33757  -0.733   4.978   6.034  0.6134  0.4538 -2.7796
  991MOL0     H33758  -0.571   4.985   6.125  0.0615 -1.0499 -0.4473
  991MOL0     H33759  -0.760   5.201   6.043 -2.0583  1.0901  2.4877
  991MOL0     H33760  -0.618   5.225   6.153 -1.0258  2.9635 -2.4290
  991MOL0     H33761  -0.865   5.078   6.214 -0.8112 -1.6421  3.1931
  991MOL0     H33762  -0.720   5.075   6.315 -1.9973  1.0597  1.6203
  991MOL0     H33763  -0.903   5.322   6.246  1.7560  3.3112 -0.0657
  991MOL0     H33764  -0.747   5.338   6.304  2.4347 -3.0128 -2.4804
  991MOL0     H33765  -0.944   5.339   6.476  0.0446  0.5242 -1.5556
  991MOL0     H33766  -0.849   5.196   6.513 -0.3401 -1.0154 -0.4412
  991MOL0     H33767  -0.165   5.042   5.840  1.3371  0.6668 -0.1009
  991MOL0     H33768   0.064   4.946   5.889  0.8782  0.5469 -2.5212
  991MOL0     H33769   0.295   4.605   6.053  0.6517  3.2436 -0.6473
  991MOL0     H33770   0.444   4.434   6.105 -1.5185 -1.0021 -0.6414
  991MOL0     H33771   2.337   4.389   5.549 -1.1312 -3.6424 -0.7143
  991MOL0     H33772   2.572   4.364   5.584 -2.2262  0.6052 -2.1533
  991MOL0     H33773   2.926   4.399   5.822 -0.4033 -3.6104 -1.6106
  991MOL0     H33774   3.164   4.448   5.887  1.2236  0.0212  2.4043
  991MOL0     H33775   3.491   4.173   5.966 -1.8838 -3.2046 -0.3947
  991MOL0     H33776   3.362   4.132   5.849 -1.7336  0.3222  1.5809
  991MOL0     H33777   3.554   4.369   5.863  1.1633 -2.3869 -0.4555
  991MOL0     H33778   3.401   4.385   5.787 -0.8121 -0.4243  2.1790
  991MOL0     H33779   3.443   4.224   5.621 -1.5059 -0.2244  1.8944
  991MOL0     H33780   3.564   4.140   5.713 -2.0447 -0.5256 -0.3296
  991MOL0     H33781   3.602   4.430   5.595  1.1199  0.3063 -1.4620
  991MOL0     H33782   3.625   4.272   5.504 -4.2187 -2.6295  1.4551
  991MOL0     H33783   3.982   4.377   5.726 -0.8094  1.4279  1.3468
  991MOL0     H33784   3.187   4.052   6.045 -1.3980 -0.4742  1.2172
  991MOL0     H33785   2.954   4.007   6.010  3.1534 -0.6413  0.4580
  992MOL0     O33786   6.302   6.483   4.064  0.9554  0.0379  0.1873
  992MOL0     C33787   6.332   6.538   3.959  0.8004 -0.2810 -0.0537
  992MOL0     O33788   6.380   6.664   3.953  0.2650  0.0348 -0.2564
  992MOL0     C33789   6.364   6.752   4.064  0.5129 -0.3012  1.0516
  992MOL0     C33790   6.277   6.750   4.170 -0.2505 -0.3419 -0.8307
  992MOL0     C33791   6.277   6.865   4.249  1.0258  0.3345 -0.1997
  992MOL0     C33792   6.360   6.974   4.230  0.0962 -0.1461 -0.4570
  992MOL0     O33793   6.357   7.086   4.302  0.0751 -0.1371  0.4151
  992MOL0     C33794   6.257   7.106   4.393  0.6923  0.6638  0.5936
  992MOL0     C33795   6.131   7.160   4.330 -0.7256  0.4614  0.2394
  992MOL0     C33796   6.018   7.173   4.439  0.5204  0.0650  0.4572
  992MOL0     C33797   5.899   7.237   4.383  0.1017  0.0470 -0.3343
  992MOL0     C33798   5.794   7.289   4.479 -0.1117  0.2777 -0.1630
  992MOL0     C33799   5.684   7.361   4.395 -0.6125  0.3328  0.3336
  992MOL0     C33800   5.551   7.383   4.458 -0.7298  0.3558 -0.4389
  992MOL0     C33801   5.558   7.517   4.530 -0.3426  0.3832 -0.3021
  992MOL0     N33802   5.459   7.535   4.638 -0.4334 -0.1673 -0.4794
  992MOL0     C33803   5.323   7.550   4.611  0.3447 -0.7987 -0.4827
  992MOL0     C33804   5.270   7.572   4.730 -0.3539  0.5327  0.6390
  992MOL0     C33805   5.128   7.612   4.755 -0.1072 -0.3614 -1.0294
  992MOL0     C33806   5.066   7.504   4.852  0.4954 -0.1112  0.4124
  992MOL0     C33807   5.016   7.385   4.775  0.2223  0.7100  0.6247
  992MOL0     C33808   4.870   7.342   4.825 -0.2079  0.4980  0.4220
  992MOL0     O33809   4.761   7.433   4.803 -0.7265 -0.0520  0.4360
  992MOL0     C33810   4.647   7.420   4.881  0.1909 -0.6158 -0.1312
  992MOL0     C33811   4.546   7.511   4.879  0.1728 -0.4263  0.6777
  992MOL0     C33812   4.430   7.497   4.968 -0.8343  0.3933  0.4538
  992MOL0     C33813   4.333   7.617   4.965 -0.3895  0.3068 -0.7545
  992MOL0     C33814   4.425   7.396   5.067  0.1591  0.2690 -0.2020
  992MOL0     C33815   4.320   7.372   5.168 -0.9655 -0.2339  0.3570
  992MOL0     O33816   4.333   7.258   5.249  0.5481  0.2339  0.6155
  992MOL0     C33817   4.241   7.237   5.346  1.0921  0.7964  0.5852
  992MOL0     C33818   4.267   7.280   5.473 -0.0913  0.6126  0.1682
  992MOL0     C33819   4.189   7.234   5.580  0.1215 -0.7001 -0.0421
  992MOL0     C33820   4.077   7.144   5.555  0.0703  0.0539  0.4455
  992MOL0     O33821   4.010   7.099   5.665  0.2814  0.5628  0.6474
  992MOL0     C33822   3.870   7.091   5.656  0.7593  0.0418  0.0778
  992MOL0     C33823   3.789   7.221   5.689 -0.0204 -0.2103  0.5023
  992MOL0     C33824   3.644   7.214   5.695  0.3075 -1.0179  0.4744
  992MOL0     C33825   3.576   7.153   5.573 -0.7284 -0.2600 -0.2733
  992MOL0     C33826   3.430   7.166   5.575  0.2372  0.4204  0.7873
  992MOL0     C33827   3.369   7.064   5.471 -0.8021 -0.7082 -0.2261
  992MOL0     C33828   3.215   7.052   5.468 -0.4354  0.9430 -0.1767
  992MOL0     C33829   3.167   6.971   5.585  0.4059 -0.4639 -0.5636
  992MOL0    Cl33830   2.982   6.968   5.581 -0.4182 -0.0985 -0.3595
  992MOL0     C33831   4.051   7.110   5.425 -0.4749  0.6599  0.3888
  992MOL0     C33832   4.125   7.157   5.317 -0.3777  0.2695  0.2146
  992MOL0     O33833   4.236   7.459   5.184  0.4401  0.9008 -0.1532
  992MOL0     C33834   4.532   7.311   5.071  0.3691  0.4711  0.3922
  992MOL0     C33835   4.637   7.318   4.972  0.3612 -0.3647 -0.6598
  992MOL0     N33836   5.373   7.583   4.821 -0.1793  0.1097  0.1686
  992MOL0     N33837   5.489   7.572   4.763  0.6534 -0.1936 -0.0094
  992MOL0     C33838   6.450   6.967   4.130  0.4740  0.3567 -0.7157
  992MOL0     C33839   6.456   6.863   4.042  0.2327  1.5254  0.9669
  992MOL0     C33840   6.324   6.463   3.832 -0.7191  0.6495  0.3802
  992MOL0     C33841   6.378   6.504   3.713  0.4756 -0.4865  0.4396
  992MOL0     C33842   6.373   6.428   3.601 -0.6415  0.2050  0.2513
  992MOL0     C33843   6.304   6.303   3.602  0.3884  0.4607 -0.3187
  992MOL0     O33844   6.306   6.228   3.488  0.3462  0.5434  0.9046
  992MOL0     C33845   6.327   6.081   3.499 -0.1542  0.2507  0.9337
  992MOL0     C33846   6.460   6.034   3.426 -0.3323 -0.6911  0.4974
  992MOL0     C33847   6.581   6.102   3.504 -0.6093 -0.3507  0.4306
  992MOL0     C33848   6.715   6.036   3.459  1.0118 -0.4028 -0.1282
  992MOL0     C33849   6.724   5.898   3.516 -0.5653 -0.1023 -0.9748
  992MOL0     C33850   6.743   5.785   3.551  0.2469 -0.1937 -0.5167
  992MOL0     C33851   6.231   6.277   3.709  0.5047  0.6866 -0.1222
  992MOL0     C33852   6.252   6.348   3.828  0.3871  0.5764  0.0131
  992MOL0     H33853   6.222   6.663   4.203 -0.1218 -0.3275 -0.5768
  992MOL0     H33854   6.215   6.869   4.338 -0.2836 -2.0312 -0.9476
  992MOL0     H33855   6.243   7.019   4.459 -0.4342 -0.2193 -0.7372
  992MOL0     H33856   6.287   7.187   4.460  1.6464  1.3467 -0.6228
  992MOL0     H33857   6.156   7.261   4.296  0.7433  0.6962  1.8619
  992MOL0     H33858   6.089   7.096   4.252 -1.1416 -1.1179  1.7162
  992MOL0     H33859   5.990   7.077   4.484 -0.0172 -0.5243 -1.0622
  992MOL0     H33860   6.053   7.231   4.525  0.8544 -0.0512  0.4022
  992MOL0     H33861   5.926   7.321   4.318 -2.2057 -1.1278 -3.0046
  992MOL0     H33862   5.847   7.170   4.314 -0.5987  0.2450 -0.0049
  992MOL0     H33863   5.754   7.204   4.535 -2.9495  0.2303 -2.0679
  992MOL0     H33864   5.834   7.360   4.553 -0.8552  0.3683  0.1592
  992MOL0     H33865   5.720   7.450   4.344  0.8092 -0.8018 -0.7524
  992MOL0     H33866   5.656   7.294   4.313  0.2455  1.2520 -0.7355
  992MOL0     H33867   5.476   7.380   4.378 -2.1709 -0.8732  0.9037
  992MOL0     H33868   5.517   7.309   4.531  0.0433  0.3744 -0.0486
  992MOL0     H33869   5.556   7.599   4.457 -1.3080  0.9061  0.2921
  992MOL0     H33870   5.653   7.519   4.584 -1.2155 -1.5745  1.4737
  992MOL0     H33871   5.252   7.554   4.530 -2.4721 -1.8342  1.7493
  992MOL0     H33872   5.137   7.708   4.806  0.7514 -0.9539 -0.0353
  992MOL0     H33873   5.070   7.625   4.663  0.4884 -1.1906 -1.5336
  992MOL0     H33874   4.982   7.547   4.908 -0.5515  1.6142 -2.3018
  992MOL0     H33875   5.143   7.478   4.926  3.8743  2.0341 -2.0657
  992MOL0     H33876   5.072   7.297   4.808  1.5092  0.8181 -1.1185
  992MOL0     H33877   5.013   7.396   4.666 -0.0233 -0.0972  0.5434
  992MOL0     H33878   4.886   7.322   4.932  1.6162 -0.6674 -0.0158
  992MOL0     H33879   4.849   7.248   4.773  1.5402 -0.2522  0.9952
  992MOL0     H33880   4.553   7.602   4.820 -1.0109 -0.7261  0.0329
  992MOL0     H33881   4.234   7.583   4.936  0.5611 -6.2347  1.9422
  992MOL0     H33882   4.330   7.645   5.071  1.3814 -0.3454 -0.4824
  992MOL0     H33883   4.366   7.692   4.893  3.2406 -2.3494 -2.1813
  992MOL0     H33884   4.358   7.331   5.501  1.1624 -1.9159  1.0009
  992MOL0     H33885   4.218   7.261   5.681 -0.3836  1.6653 -0.4745
  992MOL0     H33886   3.832   7.058   5.558  2.0887 -3.0815  0.4717
  992MOL0     H33887   3.849   7.012   5.729  1.3132 -0.0377  0.1554
  992MOL0     H33888   3.819   7.257   5.788  3.1099 -4.8668  1.5542
  992MOL0     H33889   3.812   7.299   5.616  0.5281 -1.0424 -0.2383
  992MOL0     H33890   3.612   7.318   5.699  0.0988 -0.9820 -1.2427
  992MOL0     H33891   3.609   7.170   5.789 -0.1194  0.0708  0.8465
  992MOL0     H33892   3.613   7.198   5.481 -2.6002  2.0451  0.0147
  992MOL0     H33893   3.609   7.049   5.575 -1.9809 -0.7395 -2.2753
  992MOL0     H33894   3.390   7.262   5.540 -3.3002 -0.9211  0.7620
  992MOL0     H33895   3.391   7.155   5.677 -2.1476  0.2531 -0.0790
  992MOL0     H33896   3.399   7.119   5.381  0.6802  2.6852  2.1315
  992MOL0     H33897   3.405   6.962   5.482  3.1035  0.2864 -1.9398
  992MOL0     H33898   3.204   6.993   5.377  1.0182 -1.6244  1.2174
  992MOL0     H33899   3.166   7.149   5.456  0.8467  1.9465  2.0447
  992MOL0     H33900   3.195   6.998   5.687 -0.1746  1.4720 -0.8768
  992MOL0     H33901   3.216   6.875   5.566  2.6658  0.8805 -1.9734
  992MOL0     H33902   3.964   7.047   5.405  0.2060 -0.5638  1.1560
  992MOL0     H33903   4.103   7.128   5.215  0.1806 -2.0970  0.6971
  992MOL0     H33904   4.532   7.226   5.138 -0.6210 -0.5346 -0.8105
  992MOL0     H33905   4.701   7.231   4.978  1.5028  0.4770 -0.2459
  992MOL0     H33906   6.519   7.048   4.111  1.2110 -0.7363 -2.9865
  992MOL0     H33907   6.525   6.870   3.959  0.5056  1.8033  1.2180
  992MOL0     H33908   6.439   6.594   3.707  1.0961 -0.9239  0.1267
  992MOL0     H33909   6.434   6.458   3.516  0.1886  0.6641  0.9960
  992MOL0     H33910   6.329   6.058   3.606 -0.4614 -2.4731  0.4428
  992MOL0     H33911   6.246   6.018   3.462  0.7825 -0.3159 -0.2236
  992MOL0     H33912   6.467   6.066   3.322  0.1204 -4.6878 -0.8630
  992MOL0     H33913   6.473   5.926   3.429 -2.0300 -0.9152  0.7321
  992MOL0     H33914   6.572   6.099   3.613 -2.1134  0.0073  0.3366
  992MOL0     H33915   6.586   6.208   3.480  2.4176 -1.0455 -2.8308
  992MOL0     H33916   6.804   6.093   3.489  1.8043 -2.5150  1.8090
  992MOL0     H33917   6.716   6.019   3.351  0.1109 -1.2098 -0.0186
  992MOL0     H33918   6.747   5.681   3.579 -2.7399  0.1604  1.6475
  992MOL0     H33919   6.190   6.177   3.711  1.6184  0.2228  0.5088
  992MOL0     H33920   6.213   6.302   3.918  2.0843 -0.3549  0.3168
  993MOL0     O33921   2.845   6.278  11.317  0.5885 -0.0333 -0.8802
  993MOL0     C33922   2.822   6.362  11.222  0.6305 -0.0553  0.2914
  993MOL0     O33923   2.705   6.404  11.176 -0.2347  0.4696  0.1445
  993MOL0     C33924   2.586   6.369  11.230  0.8500  0.3900  0.0136
  993MOL0     C33925   2.471   6.420  11.168  0.5527 -0.4397 -0.2560
  993MOL0     C33926   2.337   6.395  11.214 -0.6427  0.5662 -1.0420
  993MOL0     C33927   2.316   6.309  11.322  0.0785 -0.2920  0.4765
  993MOL0     O33928   2.199   6.269  11.378 -0.8098  0.0727  0.0589
  993MOL0     C33929   2.084   6.344  11.385  0.0562 -0.5601  0.1476
  993MOL0     C33930   1.958   6.268  11.433  0.4813 -0.5851 -0.1330
  993MOL0     C33931   1.969   6.251  11.582 -0.6382 -0.0889 -0.2041
  993MOL0     C33932   1.873   6.143  11.643 -0.7475  0.9419 -0.6457
  993MOL0     C33933   1.900   6.113  11.792 -0.7567  0.0028 -0.6611
  993MOL0     C33934   1.796   6.013  11.839 -0.1719  0.2839 -0.4200
  993MOL0     C33935   1.806   5.978  11.989  0.0240 -0.4165  0.3248
  993MOL0     C33936   1.753   6.091  12.074 -0.2586  0.8857 -0.5463
  993MOL0     N33937   1.767   6.072  12.218  0.5411 -0.1208 -0.2561
  993MOL0     C33938   1.796   5.959  12.281 -0.3115  0.1174 -0.0567
  993MOL0     C33939   1.777   5.981  12.412  0.6637 -0.2200 -0.6119
  993MOL0     C33940   1.795   5.875  12.518 -0.9667 -0.8037 -1.2095
  993MOL0     C33941   1.839   5.923  12.656 -0.0318 -0.5286  0.5442
  993MOL0     C33942   1.982   5.982  12.654  0.1496 -0.5551  0.4512
  993MOL0     C33943   2.027   6.025  12.796 -0.1894  0.6081 -1.0958
  993MOL0     O33944   2.026   5.924  12.901  0.1561 -0.1661 -0.1846
  993MOL0     C33945   2.034   5.965  13.036 -0.2888  0.6968  0.3958
  993MOL0     C33946   2.070   6.094  13.082 -0.4198  0.8466 -0.5405
  993MOL0     C33947   2.072   6.121  13.226 -0.9815  0.7556  0.5365
  993MOL0     C33948   2.098   6.264  13.264  0.0093  0.2282 -0.1563
  993MOL0     C33949   2.061   6.016  13.318  0.5523  0.9240  0.5951
  993MOL0     C33950   2.095   6.023  13.469 -0.3038  0.0412  0.9951
  993MOL0     O33951   2.118   6.146  13.532  0.1738 -0.0371 -0.9504
  993MOL0     C33952   2.133   6.148  13.664 -0.4255 -0.5701  0.6493
  993MOL0     C33953   2.059   6.072  13.752 -0.5241  0.9102  0.4111
  993MOL0     C33954   2.084   6.087  13.885 -0.5477  0.2147 -1.0486
  993MOL0     C33955   2.171   6.181  13.942  0.0451 -0.3358 -0.8485
  993MOL0     O33956   2.173   6.195  14.082  0.8856 -0.7271 -0.2759
  993MOL0     C33957   2.234   6.309  14.149  0.3329  0.5300 -0.1008
  993MOL0     C33958   2.371   6.274  14.183  0.0782 -0.1724 -0.5188
  993MOL0     C33959   2.423   6.373  14.285 -0.3827  0.2597 -0.6237
  993MOL0     C33960   2.578   6.386  14.284 -0.9166  0.5528  0.3818
  993MOL0     C33961   2.636   6.479  14.395 -0.0196 -0.1971 -0.4109
  993MOL0     C33962   2.653   6.388  14.516  0.2638 -0.1088 -0.1067
  993MOL0     C33963   2.726   6.474  14.623 -0.2468  0.1139  1.5422
  993MOL0     C33964   2.624   6.556  14.704 -0.1247  0.3505  0.2221
  993MOL0    Cl33965   2.730   6.651  14.819  0.0294 -0.5370 -0.4240
  993MOL0     C33966   2.243   6.262  13.856 -0.9711 -0.1964  0.8314
  993MOL0     C33967   2.221   6.248  13.716  0.1069  0.6385  0.4868
  993MOL0     O33968   2.098   5.910  13.523  0.6044 -0.5463  0.1947
  993MOL0     C33969   2.024   5.887  13.268 -0.7360  0.4634 -0.7308
  993MOL0     C33970   2.018   5.872  13.131  0.0667  0.1388 -0.8809
  993MOL0     N33971   1.736   6.116  12.427  0.4572 -0.1722  0.1702
  993MOL0     N33972   1.728   6.171  12.306  0.4876 -0.6398 -0.5491
  993MOL0     C33973   2.434   6.258  11.381 -0.1816 -0.3370 -0.7303
  993MOL0     C33974   2.564   6.283  11.342 -0.0130  0.0383  0.5849
  993MOL0     C33975   2.938   6.427  11.158 -0.0837 -0.4987 -0.1078
  993MOL0     C33976   3.067   6.409  11.218 -0.0878 -0.2841  0.3804
  993MOL0     C33977   3.174   6.476  11.156  0.2015 -0.6478  0.3278
  993MOL0     C33978   3.156   6.567  11.050  0.0084 -0.2183 -0.7161
  993MOL0     O33979   3.265   6.626  10.987  0.3026  0.1943  0.2750
  993MOL0     C33980   3.256   6.749  10.916 -0.8846 -0.0600 -0.1979
  993MOL0     C33981   3.186   6.867  10.983  0.9500  0.7916 -0.3147
  993MOL0     C33982   3.271   6.937  11.082 -0.0951  0.2627  0.2151
  993MOL0     C33983   3.200   7.057  11.144 -0.2195 -0.1679 -0.7214
  993MOL0     C33984   3.261   7.102  11.270 -0.8318  0.7183  0.4705
  993MOL0     C33985   3.310   7.117  11.379 -0.0113  0.1166  0.0679
  993MOL0     C33986   3.024   6.596  10.996  0.5029  1.0697 -1.1099
  993MOL0     C33987   2.920   6.518  11.048  0.8637 -0.2347 -0.7673
  993MOL0     H33988   2.472   6.488  11.084 -1.6287  0.3090  0.2530
  993MOL0     H33989   2.245   6.440  11.177  0.6819  0.6149 -4.6809
  993MOL0     H33990   2.100   6.421  11.462  0.7593 -1.8458  1.3297
  993MOL0     H33991   2.073   6.394  11.288  2.0635 -0.1604  0.0633
  993MOL0     H33992   1.865   6.325  11.422 -0.5040 -1.9893  0.5112
  993MOL0     H33993   1.930   6.179  11.375  1.7864  0.0791 -1.8649
  993MOL0     H33994   2.069   6.219  11.612 -0.4774  0.5482 -0.0642
  993MOL0     H33995   1.939   6.340  11.638 -1.8635 -0.2918 -0.5086
  993MOL0     H33996   1.767   6.158  11.619 -0.5231  1.3036 -1.4289
  993MOL0     H33997   1.906   6.052  11.594 -0.8902  1.2385 -1.3079
  993MOL0     H33998   2.000   6.077  11.819  0.6481  2.5520 -2.0354
  993MOL0     H33999   1.888   6.197  11.861  0.0186 -1.9189  1.9841
  993MOL0     H34000   1.697   6.042  11.801 -0.0049  0.2157 -0.9099
  993MOL0     H34001   1.819   5.926  11.777  0.9790  0.4829 -0.2893
  993MOL0     H34002   1.749   5.889  12.018 -2.3905  0.8092 -0.3461
  993MOL0     H34003   1.911   5.954  12.008  0.0940 -0.2617  0.1389
  993MOL0     H34004   1.648   6.110  12.052 -0.1422 -0.0704 -2.0492
  993MOL0     H34005   1.816   6.179  12.056  0.1042  0.5333 -1.0031
  993MOL0     H34006   1.843   5.870  12.240  0.9299 -0.7643  2.9722
  993MOL0     H34007   1.698   5.825  12.528 -1.1842 -0.0202  1.2693
  993MOL0     H34008   1.879   5.815  12.479  2.1330  3.0237 -1.0996
  993MOL0     H34009   1.824   5.853  12.739  1.3051  0.4216  1.6336
  993MOL0     H34010   1.777   6.011  12.668 -1.3013 -1.0454 -1.6642
  993MOL0     H34011   1.975   6.079  12.602  3.6221 -0.4045  0.0510
  993MOL0     H34012   2.061   5.928  12.601 -0.5470  0.7844 -2.1324
  993MOL0     H34013   1.965   6.111  12.825  1.8560  1.3475  1.5411
  993MOL0     H34014   2.128   6.062  12.782 -0.7683  1.0750 -4.9124
  993MOL0     H34015   2.084   6.175  13.010  0.1983 -0.3480 -1.8046
  993MOL0     H34016   2.201   6.269  13.300  0.2258  1.4941 -0.8980
  993MOL0     H34017   2.100   6.331  13.178  0.9585 -1.3604 -1.4318
  993MOL0     H34018   2.029   6.302  13.340 -0.9598  0.1623 -0.9810
  993MOL0     H34019   1.980   6.009  13.712 -0.5417 -0.2030  2.1182
  993MOL0     H34020   2.020   6.026  13.948 -3.1142 -0.2525 -3.8658
  993MOL0     H34021   2.225   6.410  14.109  0.2723  0.6043  0.1016
  993MOL0     H34022   2.175   6.319  14.241 -1.5748 -0.9132 -1.0973
  993MOL0     H34023   2.375   6.175  14.230 -0.0216 -0.4688 -1.1305
  993MOL0     H34024   2.443   6.279  14.101  3.5190  0.4445  2.2762
  993MOL0     H34025   2.392   6.344  14.386 -1.9185 -0.4080 -1.2666
  993MOL0     H34026   2.387   6.472  14.255  1.5460  1.1148 -0.3220
  993MOL0     H34027   2.617   6.287  14.309  0.2634  0.5552 -1.2752
  993MOL0     H34028   2.618   6.421  14.188 -1.0275 -1.9089 -0.6334
  993MOL0     H34029   2.567   6.562  14.413  1.2618  0.6211  1.0076
  993MOL0     H34030   2.735   6.515  14.367 -0.0427  0.3857  0.2191
  993MOL0     H34031   2.555   6.359  14.556 -0.1682  1.8534  0.4040
  993MOL0     H34032   2.715   6.301  14.497 -1.3018 -1.8097  2.1116
  993MOL0     H34033   2.800   6.534  14.570  0.1128 -1.0007  0.7368
  993MOL0     H34034   2.777   6.405  14.691  0.4988 -1.7161 -0.7368
  993MOL0     H34035   2.558   6.484  14.753 -0.0897  1.3228  1.7830
  993MOL0     H34036   2.564   6.624  14.643  2.8189 -0.3647 -3.8321
  993MOL0     H34037   2.310   6.344  13.878  1.1480 -1.5557 -0.2274
  993MOL0     H34038   2.282   6.303  13.644 -1.8851 -1.2643 -2.9074
  993MOL0     H34039   2.018   5.801  13.333  2.4173  0.2609 -0.5452
  993MOL0     H34040   2.000   5.765  13.120 -2.0877  0.2768  0.7289
  993MOL0     H34041   2.437   6.202  11.474  3.6624  0.8776  0.0524
  993MOL0     H34042   2.640   6.229  11.397 -0.3082  1.9533  3.0729
  993MOL0     H34043   3.087   6.331  11.291  1.7018 -1.5499 -1.3664
  993MOL0     H34044   3.280   6.459  11.173  0.4350  0.4481  0.0504
  993MOL0     H34045   3.355   6.775  10.877 -0.0136 -0.3581  1.6812
  993MOL0     H34046   3.198   6.736  10.825 -2.3191 -1.7893  0.8863
  993MOL0     H34047   3.092   6.841  11.033 -0.6688  0.6660 -3.2039
  993MOL0     H34048   3.152   6.941  10.910  1.0013  1.4000  0.2656
  993MOL0     H34049   3.368   6.964  11.040 -0.4010 -1.2629 -1.5952
  993MOL0     H34050   3.297   6.870  11.165 -0.5211 -1.5879 -1.0932
  993MOL0     H34051   3.093   7.037  11.155 -0.5874  1.9313  0.0721
  993MOL0     H34052   3.204   7.151  11.088  0.8394  1.8054  2.3885
  993MOL0     H34053   3.369   7.145  11.464  0.7268 -0.5551 -0.2112
  993MOL0     H34054   2.999   6.668  10.920  0.4664  1.9021 -0.3260
  993MOL0     H34055   2.833   6.516  10.983  0.8516  2.9423 -0.9868
  994MOL0     O34056   2.610   5.081   5.427  0.4619  0.4400 -0.5584
  994MOL0     C34057   2.540   5.147   5.350  0.1337  0.8269 -0.1035
  994MOL0     O34058   2.585   5.238   5.258  0.4638  0.0389 -0.1780
  994MOL0     C34059   2.719   5.261   5.255 -0.1928  0.1408 -0.4922
  994MOL0     C34060   2.776   5.377   5.293 -1.1297 -0.3699  0.0355
  994MOL0     C34061   2.910   5.406   5.290 -0.3362 -0.4785 -0.1551
  994MOL0     C34062   3.000   5.307   5.247  0.2076 -0.3518 -0.6524
  994MOL0     O34063   3.138   5.321   5.248 -0.2906  0.5588  0.4531
  994MOL0     C34064   3.196   5.401   5.354  0.0704 -0.3140  0.6772
  994MOL0     C34065   3.351   5.385   5.343  0.3565 -0.4236 -0.2706
  994MOL0     C34066   3.423   5.360   5.475  0.2351 -0.1286 -0.2315
  994MOL0     C34067   3.572   5.326   5.473  0.0893 -0.9677  0.2624
  994MOL0     C34068   3.603   5.225   5.592 -0.1624  0.0696 -0.0389
  994MOL0     C34069   3.749   5.188   5.592 -0.2562  0.3838  0.4837
  994MOL0     C34070   3.799   5.103   5.713 -0.7125  1.1798 -0.2950
  994MOL0     C34071   3.796   5.192   5.843 -0.6193  0.5847 -0.7180
  994MOL0     N34072   3.841   5.118   5.956  0.7857  1.0071 -0.3532
  994MOL0     C34073   3.965   5.121   6.004 -1.0546  0.2147  0.8180
  994MOL0     C34074   3.961   5.035   6.111  0.3899  0.6323 -0.5033
  994MOL0     C34075   4.087   4.996   6.177 -0.4677  1.2098 -0.1950
  994MOL0     C34076   4.100   5.060   6.320  0.3175  0.4643 -0.0396
  994MOL0     C34077   4.008   5.020   6.435  0.3956  0.6893 -0.7168
  994MOL0     C34078   3.971   4.871   6.437 -0.0508 -0.2665 -0.4786
  994MOL0     O34079   3.902   4.842   6.564 -0.3473 -0.0880 -0.3000
  994MOL0     C34080   3.759   4.848   6.574 -0.8516 -1.5790  1.1879
  994MOL0     C34081   3.699   4.777   6.679  0.3030  1.3914 -0.6389
  994MOL0     C34082   3.560   4.771   6.689 -0.0048  0.0637 -0.3556
  994MOL0     C34083   3.504   4.681   6.800 -0.7391  0.2809 -0.2050
  994MOL0     C34084   3.477   4.847   6.604  1.0542  1.4322 -0.6289
  994MOL0     C34085   3.334   4.861   6.610  0.3266  0.6198 -0.5012
  994MOL0     O34086   3.268   4.745   6.674  0.6247 -0.4751 -0.4999
  994MOL0     C34087   3.127   4.756   6.694  0.1235  0.1887 -0.2512
  994MOL0     C34088   3.048   4.662   6.626 -0.3158  0.4114 -0.1984
  994MOL0     C34089   2.906   4.653   6.654  0.2219  0.0370 -0.9996
  994MOL0     C34090   2.856   4.754   6.738  0.0034  0.0415  2.0238
  994MOL0     O34091   2.718   4.777   6.752 -0.9788  0.5127  0.1137
  994MOL0     C34092   2.651   4.803   6.628 -0.2560 -0.6240  0.7565
  994MOL0     C34093   2.511   4.739   6.646  0.5164 -0.0876  0.0150
  994MOL0     C34094   2.423   4.739   6.515  0.0132  0.3615 -0.0367
  994MOL0     C34095   2.384   4.876   6.480 -0.2480  0.0882  0.7895
  994MOL0     C34096   2.237   4.889   6.435  0.5951 -0.1497 -0.2951
  994MOL0     C34097   2.152   4.923   6.551  0.9581 -0.6279 -0.7730
  994MOL0     C34098   2.004   4.914   6.505 -0.9351 -0.0472  0.5874
  994MOL0     C34099   1.900   4.929   6.624  0.0653  0.6335 -0.0739
  994MOL0    Cl34100   1.744   4.962   6.564  0.1236 -0.1860  0.4177
  994MOL0     C34101   2.939   4.841   6.810  0.8855 -0.1399 -0.6476
  994MOL0     C34102   3.074   4.841   6.790 -0.9108 -0.0806  0.4257
  994MOL0     O34103   3.287   4.968   6.577 -0.8228 -0.2758  0.5447
  994MOL0     C34104   3.540   4.928   6.511 -0.0130 -0.8457  1.4373
  994MOL0     C34105   3.680   4.924   6.480  0.1555  1.3337 -0.4418
  994MOL0     N34106   3.841   4.974   6.123 -0.6680 -0.1123  0.2547
  994MOL0     N34107   3.777   5.020   6.023  0.7707  0.2352  0.2532
  994MOL0     C34108   2.950   5.190   5.200  0.0819 -0.5307 -0.5896
  994MOL0     C34109   2.808   5.166   5.210 -0.1482  0.4135  0.2843
  994MOL0     C34110   2.395   5.116   5.356  0.4421 -0.2181 -0.5149
  994MOL0     C34111   2.334   5.079   5.478  0.0331  0.4529  0.1601
  994MOL0     C34112   2.203   5.036   5.489 -0.0243  0.7514  0.5812
  994MOL0     C34113   2.115   5.074   5.387  0.4610 -0.8479 -0.6101
  994MOL0     O34114   1.975   5.097   5.394  0.3610  0.1692 -0.7441
  994MOL0     C34115   1.921   5.103   5.528 -0.0822  0.5385  0.0410
  994MOL0     C34116   1.770   5.119   5.508  0.4470  0.6963 -0.2820
  994MOL0     C34117   1.691   5.110   5.635  0.6496 -0.4045  0.2947
  994MOL0     C34118   1.727   5.228   5.722  0.7617 -0.7442 -0.3690
  994MOL0     C34119   1.627   5.221   5.835 -0.4198  0.6290  1.0433
  994MOL0     C34120   1.533   5.215   5.921  0.0720 -0.2559  0.3000
  994MOL0     C34121   2.176   5.108   5.266  0.0553  0.8017  0.4370
  994MOL0     C34122   2.312   5.115   5.244 -0.1527 -0.1977  0.3509
  994MOL0     H34123   2.713   5.463   5.315  0.6327  0.8960  0.3699
  994MOL0     H34124   2.946   5.502   5.326 -0.5277 -0.3243 -0.3761
  994MOL0     H34125   3.158   5.503   5.349 -0.9605 -0.7438 -1.3139
  994MOL0     H34126   3.162   5.363   5.451  0.1436  2.2011  1.7740
  994MOL0     H34127   3.385   5.298   5.285  2.8666 -0.4966  1.1650
  994MOL0     H34128   3.388   5.477   5.297  0.0256 -1.1667 -2.1318
  994MOL0     H34129   3.405   5.450   5.534 -1.4272 -0.4927 -0.1218
  994MOL0     H34130   3.393   5.260   5.507  1.3753 -0.6640 -0.7639
  994MOL0     H34131   3.599   5.281   5.377 -2.2053 -0.9369 -0.4563
  994MOL0     H34132   3.625   5.418   5.499 -3.4284  0.7093  2.1571
  994MOL0     H34133   3.570   5.271   5.686  3.2622  1.2765  0.6794
  994MOL0     H34134   3.548   5.133   5.566 -1.4090  1.5791 -3.3069
  994MOL0     H34135   3.762   5.149   5.491 -0.5884  1.7556 -0.1108
  994MOL0     H34136   3.813   5.277   5.600  1.4566 -0.7279 -0.3501
  994MOL0     H34137   3.738   5.015   5.735 -0.1607 -0.4523 -4.3180
  994MOL0     H34138   3.904   5.077   5.698 -1.0054 -0.9513  0.9536
  994MOL0     H34139   3.693   5.220   5.868 -0.0329  2.1201  0.0934
  994MOL0     H34140   3.859   5.279   5.823 -2.2375  2.0987  0.4743
  994MOL0     H34141   4.044   5.186   5.968 -1.3767  0.7995  1.1606
  994MOL0     H34142   4.097   4.889   6.193 -0.3837  1.1081 -0.8824
  994MOL0     H34143   4.168   5.035   6.114 -0.5386  3.1811  0.8362
  994MOL0     H34144   4.079   5.166   6.304  2.9274  1.3814  1.9662
  994MOL0     H34145   4.201   5.056   6.361  0.1037 -0.8683  0.4010
  994MOL0     H34146   3.913   5.073   6.433  0.0365  0.0994 -0.0329
  994MOL0     H34147   4.046   5.043   6.535 -1.9419 -0.8102  0.6192
  994MOL0     H34148   4.061   4.809   6.434 -0.7142 -1.3685  0.9856
  994MOL0     H34149   3.895   4.855   6.359  0.4348  0.0443 -1.0239
  994MOL0     H34150   3.764   4.731   6.753 -1.0950  1.1746  0.5126
  994MOL0     H34151   3.456   4.592   6.759 -0.6049 -0.6139  1.4792
  994MOL0     H34152   3.587   4.656   6.867  2.5767  5.4774 -1.7654
  994MOL0     H34153   3.432   4.728   6.867 -0.9200 -0.3595  0.0533
  994MOL0     H34154   3.100   4.617   6.542  0.3091  0.7531  0.0013
  994MOL0     H34155   2.840   4.587   6.599  0.6229 -2.2192  1.0383
  994MOL0     H34156   2.630   4.909   6.616  1.4813 -0.0025  2.5731
  994MOL0     H34157   2.703   4.757   6.543  0.7921 -2.3612  2.2514
  994MOL0     H34158   2.528   4.637   6.682  0.7184  0.9874  3.2809
  994MOL0     H34159   2.457   4.785   6.728  2.2556  1.8000  0.1801
  994MOL0     H34160   2.333   4.680   6.534  0.0821  0.6576  1.3100
  994MOL0     H34161   2.484   4.696   6.434  2.5268  2.3326  0.6631
  994MOL0     H34162   2.382   4.940   6.569 -3.8708  0.8128  0.3073
  994MOL0     H34163   2.449   4.921   6.404  2.5394 -3.1567  0.9552
  994MOL0     H34164   2.206   4.791   6.397 -0.5483 -0.5331  1.5349
  994MOL0     H34165   2.225   4.974   6.368  2.9249  0.9342  0.5310
  994MOL0     H34166   2.156   4.850   6.633 -0.3412  0.5568  0.3958
  994MOL0     H34167   2.173   5.021   6.595  0.4971 -0.5970 -0.6119
  994MOL0     H34168   1.989   4.817   6.456  1.9081  0.3750 -1.3349
  994MOL0     H34169   1.981   4.986   6.425  1.6287 -0.3909 -0.5451
  994MOL0     H34170   1.947   5.010   6.679  4.1475 -0.9699 -0.8439
  994MOL0     H34171   1.906   4.841   6.690  2.5969  0.0201 -1.0271
  994MOL0     H34172   2.886   4.902   6.883 -0.5393 -1.7583 -0.2485
  994MOL0     H34173   3.141   4.907   6.844  1.0227 -2.4878  1.1743
  994MOL0     H34174   3.473   4.981   6.443 -1.2014 -3.4628  0.4312
  994MOL0     H34175   3.719   4.971   6.391  1.0351 -1.2745 -1.5418
  994MOL0     H34176   3.008   5.111   5.152 -0.7359 -1.6208  0.1545
  994MOL0     H34177   2.783   5.065   5.181  2.1868  0.0527 -0.7400
  994MOL0     H34178   2.399   5.074   5.565 -0.7227  0.1379  0.7205
  994MOL0     H34179   2.152   4.994   5.575  2.0728 -0.8980  1.0958
  994MOL0     H34180   1.943   5.011   5.584  2.1364  0.8713 -0.1956
  994MOL0     H34181   1.957   5.197   5.572 -0.6848 -0.3087  2.5487
  994MOL0     H34182   1.726   5.036   5.453 -1.2861  0.2113  1.7113
  994MOL0     H34183   1.746   5.200   5.438 -0.0367  0.7721 -0.0301
  994MOL0     H34184   1.708   5.016   5.687 -0.0824 -0.1313  1.0453
  994MOL0     H34185   1.587   5.123   5.605  0.3984  0.7045  1.5563
  994MOL0     H34186   1.712   5.322   5.667 -1.6930  0.4383  2.0876
  994MOL0     H34187   1.833   5.229   5.745  1.0797  1.6290 -1.5786
  994MOL0     H34188   1.449   5.239   5.983 -0.3139  1.1050 -0.7018
  994MOL0     H34189   2.113   5.123   5.179 -0.9782 -1.3638  0.7378
  994MOL0     H34190   2.359   5.140   5.149  1.0439  0.7414  1.1584
  995MOL0     O34191  11.245   2.814   3.973  0.5557 -0.1714 -0.2194
  995MOL0     C34192  11.226   2.934   3.941  0.2513  0.1783 -0.4476
  995MOL0     O34193  11.315   3.032   3.973 -0.6655  0.1904  0.1886
  995MOL0     C34194  11.432   3.007   4.032 -0.2474  0.6909  0.3270
  995MOL0     C34195  11.550   3.061   3.969  0.1886  0.6637  0.0360
  995MOL0     C34196  11.684   3.031   4.015  0.6722  0.0948 -0.6516
  995MOL0     C34197  11.703   2.954   4.131 -0.2877  0.3306 -0.5069
  995MOL0     O34198  11.827   2.933   4.167  0.4524  0.3473 -0.2972
  995MOL0     C34199  11.842   2.856   4.286 -0.0137 -0.2668 -0.4657
  995MOL0     C34200  11.988   2.836   4.313 -0.7179  0.6943 -0.7314
  995MOL0     C34201  12.001   2.734   4.417  0.2234  0.0073  0.3207
  995MOL0     C34202  12.138   2.675   4.418 -0.2975 -0.7370 -0.1572
  995MOL0     C34203  12.167   2.631   4.558  0.0631 -0.0459 -0.6871
  995MOL0     C34204  12.064   2.509   4.598 -0.2673 -0.2896  0.9376
  995MOL0     C34205  12.088   2.454   4.738  0.1122  0.7847  0.2401
  995MOL0     C34206  12.014   2.325   4.762 -0.8257 -0.5690  0.2226
  995MOL0     N34207  11.878   2.351   4.808  0.2767 -0.5303 -0.0966
  995MOL0     C34208  11.825   2.298   4.921  0.4424 -0.0251  0.4778
  995MOL0     C34209  11.698   2.335   4.920  1.3358  0.1697  0.3931
  995MOL0     C34210  11.590   2.307   5.031  0.1045 -0.8808 -0.0746
  995MOL0     C34211  11.445   2.308   4.973 -0.2711 -0.7375 -0.1052
  995MOL0     C34212  11.420   2.216   4.856 -0.4194 -0.0327 -0.4950
  995MOL0     C34213  11.282   2.194   4.817  0.0872  0.4257 -0.1145
  995MOL0     O34214  11.267   2.100   4.712 -0.0130 -0.1161 -0.4185
  995MOL0     C34215  11.143   2.098   4.654 -0.5942 -0.4324  0.2004
  995MOL0     C34216  11.020   2.159   4.699 -0.5006 -0.1528 -0.4375
  995MOL0     C34217  10.904   2.155   4.612 -0.6603 -0.3638  0.1405
  995MOL0     C34218  10.780   2.210   4.678  0.2608  0.1843  0.4747
  995MOL0     C34219  10.902   2.083   4.487 -0.8057  0.5567 -0.1598
  995MOL0     C34220  10.784   2.065   4.405 -0.0607 -0.4464  0.9003
  995MOL0     O34221  10.705   2.170   4.388  0.5374 -0.1082 -0.1602
  995MOL0     C34222  10.593   2.145   4.313  0.4410 -0.1316  0.5259
  995MOL0     C34223  10.588   2.091   4.181 -0.6995 -0.3938 -0.6561
  995MOL0     C34224  10.464   2.051   4.123  0.1626  0.0921  0.4567
  995MOL0     C34225  10.345   2.075   4.186 -0.2679 -0.9605  0.3313
  995MOL0     O34226  10.223   2.031   4.150 -0.1137 -0.2690  0.5005
  995MOL0     C34227  10.192   2.013   4.011 -0.0199  0.2159  0.9978
  995MOL0     C34228  10.041   2.035   3.990 -0.0101  0.2346  0.3204
  995MOL0     C34229   9.952   1.920   4.028 -0.0169 -0.6860 -0.1914
  995MOL0     C34230   9.798   1.952   4.011  0.2349  0.2363  0.6110
  995MOL0     C34231   9.713   1.820   4.009 -0.5236 -0.0753  1.0736
  995MOL0     C34232   9.562   1.853   3.974 -0.3263 -0.3333  0.4867
  995MOL0     C34233   9.490   1.817   4.101 -0.2836 -0.1169 -0.6156
  995MOL0     C34234   9.329   1.849   4.093 -0.0477  1.1048 -0.4311
  995MOL0    Cl34235   9.276   1.812   4.261  0.4330 -0.0657 -0.5531
  995MOL0     C34236  10.351   2.136   4.313 -0.3025 -0.8205 -0.7348
  995MOL0     C34237  10.470   2.169   4.377  1.5965  0.1953 -0.5072
  995MOL0     O34238  10.756   1.951   4.368  0.1742 -1.1674  0.5359
  995MOL0     C34239  11.025   2.024   4.450 -0.1885 -0.1571  0.7742
  995MOL0     C34240  11.142   2.039   4.527  0.1710  0.6044  0.3635
  995MOL0     N34241  11.673   2.400   4.808 -0.0666 -0.1201 -0.2312
  995MOL0     N34242  11.779   2.406   4.732  0.0801  0.3043 -0.5100
  995MOL0     C34243  11.579   2.917   4.201  0.1255  0.4122 -0.1216
  995MOL0     C34244  11.452   2.934   4.155 -0.5939 -0.0020  1.1784
  995MOL0     C34245  11.091   2.978   3.899  0.0912 -0.2747  0.3038
  995MOL0     C34246  10.996   2.888   3.858 -0.4911  0.1607 -0.2509
  995MOL0     C34247  10.874   2.936   3.805  1.2130  0.2134 -0.1971
  995MOL0     C34248  10.839   3.072   3.801  0.2413  0.8199  0.0889
  995MOL0     O34249  10.719   3.110   3.747  0.5693 -0.5392 -1.0515
  995MOL0     C34250  10.653   3.220   3.803 -0.2995 -1.3142  0.0953
  995MOL0     C34251  10.641   3.328   3.693  0.2894  0.8791  2.1510
  995MOL0     C34252  10.536   3.295   3.578 -0.4493 -0.1144 -0.4008
  995MOL0     C34253  10.396   3.312   3.637 -0.3673  0.0963 -0.4055
  995MOL0     C34254  10.370   3.433   3.711 -0.6559  0.4979 -0.0242
  995MOL0     C34255  10.352   3.530   3.780 -0.6466  0.4070  0.7411
  995MOL0     C34256  10.939   3.156   3.850 -0.1938 -0.1488 -0.2521
  995MOL0     C34257  11.059   3.113   3.903  0.3154  0.9773  0.3475
  995MOL0     H34258  11.520   3.112   3.878  0.8351  0.4050 -0.3325
  995MOL0     H34259  11.770   3.051   3.952  1.1731 -1.5005 -0.5142
  995MOL0     H34260  11.797   2.897   4.377  0.3591  0.5360 -0.6311
  995MOL0     H34261  11.803   2.756   4.265  0.8997 -0.2744 -2.3899
  995MOL0     H34262  12.047   2.812   4.224  2.5866  1.2891  1.1321
  995MOL0     H34263  12.031   2.932   4.340  3.2684 -0.3523 -2.6609
  995MOL0     H34264  11.988   2.777   4.517  1.0730  1.3171 -0.1050
  995MOL0     H34265  11.926   2.655   4.418  1.8763 -1.6167  0.8603
  995MOL0     H34266  12.129   2.594   4.346 -1.6987 -0.9922  0.2853
  995MOL0     H34267  12.219   2.742   4.388 -0.6555 -0.8842 -1.5039
  995MOL0     H34268  12.267   2.587   4.570  0.9369  2.1008  0.5566
  995MOL0     H34269  12.169   2.717   4.626  2.0363 -2.2421  2.3375
  995MOL0     H34270  11.958   2.535   4.605 -0.3137 -0.8093  3.2542
  995MOL0     H34271  12.079   2.432   4.523  0.2788  3.1296 -2.8189
  995MOL0     H34272  12.192   2.422   4.750 -0.4997 -1.8757 -0.8386
  995MOL0     H34273  12.069   2.531   4.813  2.0308  0.5389  1.0398
  995MOL0     H34274  12.063   2.269   4.843  2.1492  1.2176 -0.2025
  995MOL0     H34275  12.003   2.254   4.680 -5.1787 -0.1041  0.1714
  995MOL0     H34276  11.869   2.256   5.011 -2.3046 -1.5466  1.2244
  995MOL0     H34277  11.619   2.210   5.074  2.8307 -2.0843 -4.0233
  995MOL0     H34278  11.604   2.381   5.110  1.6950 -0.1444 -0.9962
  995MOL0     H34279  11.409   2.407   4.943 -1.4403 -1.4232 -1.0697
  995MOL0     H34280  11.372   2.277   5.049  1.3225 -2.5568  0.7634
  995MOL0     H34281  11.479   2.125   4.872 -0.4789 -0.2035 -1.1997
  995MOL0     H34282  11.453   2.268   4.765 -2.6239  0.2945 -1.1729
  995MOL0     H34283  11.238   2.288   4.780  0.6976  1.1084  0.8439
  995MOL0     H34284  11.219   2.159   4.899  0.5677 -0.5936 -0.1750
  995MOL0     H34285  11.013   2.206   4.797  0.0110 -1.0946  0.0582
  995MOL0     H34286  10.745   2.305   4.636 -1.6575  0.5513  2.6619
  995MOL0     H34287  10.708   2.130   4.659 -0.7652  1.0960  0.3903
  995MOL0     H34288  10.791   2.236   4.783 -0.7170 -1.5862  1.0552
  995MOL0     H34289  10.676   2.070   4.120 -0.0114  0.5998 -0.0317
  995MOL0     H34290  10.471   1.994   4.031  2.6211  0.5850  0.2783
  995MOL0     H34291  10.254   2.079   3.950  1.0951 -2.2359 -0.7328
  995MOL0     H34292  10.211   1.911   3.975 -0.5096  1.0433 -1.9153
  995MOL0     H34293  10.021   2.127   4.046 -1.7209  0.2138 -0.2045
  995MOL0     H34294  10.033   2.056   3.883 -0.9886  1.1981  0.5647
  995MOL0     H34295   9.963   1.893   4.133  0.7770  1.3577  0.3063
  995MOL0     H34296   9.993   1.847   3.957 -0.0673  0.5876 -1.5960
  995MOL0     H34297   9.753   2.030   4.073 -3.9570 -0.0996 -1.6459
  995MOL0     H34298   9.792   1.990   3.909 -1.4708 -2.3508 -0.3590
  995MOL0     H34299   9.730   1.755   4.095  3.4058 -1.7854 -0.7633
  995MOL0     H34300   9.753   1.752   3.933 -0.1921 -0.0897  1.2594
  995MOL0     H34301   9.549   1.959   3.952  0.6074 -0.3898 -0.3934
  995MOL0     H34302   9.525   1.794   3.890  2.1055 -0.0638 -0.8636
  995MOL0     H34303   9.533   1.881   4.178  0.5687 -1.2141 -0.1657
  995MOL0     H34304   9.506   1.712   4.125  1.9521  0.4699  0.7314
  995MOL0     H34305   9.290   1.787   4.011  1.0356  2.9425 -2.4682
  995MOL0     H34306   9.307   1.950   4.057  0.9257  0.8893 -1.7601
  995MOL0     H34307  10.260   2.157   4.369 -0.2341  1.4467 -1.3616
  995MOL0     H34308  10.465   2.196   4.482 -1.4532 -1.7944 -0.0161
  995MOL0     H34309  11.039   1.961   4.363  1.3519 -3.7908  3.3599
  995MOL0     H34310  11.225   1.977   4.495 -0.5705  0.7897 -2.1471
  995MOL0     H34311  11.589   2.870   4.299 -3.4205  1.5006  0.9147
  995MOL0     H34312  11.357   2.907   4.201 -1.1317  0.0052  0.1034
  995MOL0     H34313  11.025   2.784   3.860 -0.2957  0.2187 -0.0878
  995MOL0     H34314  10.789   2.879   3.769 -0.5112  1.6934  1.3382
  995MOL0     H34315  10.557   3.204   3.852 -0.5021 -0.8218 -0.1290
  995MOL0     H34316  10.719   3.266   3.877  0.5765 -2.3152 -0.0514
  995MOL0     H34317  10.735   3.330   3.637 -1.1230 -0.1218 -0.4480
  995MOL0     H34318  10.617   3.424   3.741 -0.8663  0.8836  1.6040
  995MOL0     H34319  10.552   3.196   3.536  1.3331 -0.6024  1.2974
  995MOL0     H34320  10.558   3.365   3.497  3.1374 -3.2324 -2.4638
  995MOL0     H34321  10.379   3.225   3.700  2.0130  0.1962  0.4788
  995MOL0     H34322  10.322   3.303   3.557  2.3839 -1.6328 -3.0219
  995MOL0     H34323  10.349   3.617   3.842 -0.9062  1.9573 -1.3537
  995MOL0     H34324  10.921   3.263   3.853  0.7165  0.0858 -1.7236
  995MOL0     H34325  11.135   3.186   3.929 -1.9466  2.3132  3.8406
  996MOL0     O34326   7.703  10.548   3.878 -0.5812 -0.1470  0.0519
  996MOL0     C34327   7.746  10.523   3.985  0.9308 -0.4754  0.2566
  996MOL0     O34328   7.708  10.576   4.105 -0.2003 -0.2924 -0.0552
  996MOL0     C34329   7.601  10.658   4.115 -0.3068  0.0189 -0.3340
  996MOL0     C34330   7.517  10.615   4.228  0.7982  0.1816  0.5970
  996MOL0     C34331   7.442  10.720   4.289 -0.7725  1.2372  0.5941
  996MOL0     C34332   7.441  10.853   4.236  0.1545 -1.2283  0.0782
  996MOL0     O34333   7.376  10.952   4.306  0.0599  0.6478  0.4784
  996MOL0     C34334   7.262  11.004   4.235 -0.0603  0.0500 -0.6271
  996MOL0     C34335   7.223  11.123   4.328 -1.0179  0.1108 -0.3176
  996MOL0     C34336   7.142  11.070   4.445 -0.6157 -0.3299  0.2174
  996MOL0     C34337   7.075  11.181   4.524  0.0994  0.1853  0.2404
  996MOL0     C34338   6.979  11.119   4.630  0.0329 -0.6665 -0.1735
  996MOL0     C34339   6.945  11.235   4.732 -0.1517 -0.2995 -0.9708
  996MOL0     C34340   6.849  11.186   4.853 -0.3582  0.4231  0.4500
  996MOL0     C34341   6.862  11.282   4.973  0.3418  0.2177  0.6625
  996MOL0     N34342   6.814  11.414   4.943  0.3065  0.3861  0.6225
  996MOL0     C34343   6.682  11.459   4.947  0.2038 -1.1221  0.2935
  996MOL0     C34344   6.691  11.592   4.916  0.3481 -0.3539  0.0883
  996MOL0     C34345   6.568  11.680   4.912  0.5259  0.5789  0.4920
  996MOL0     C34346   6.495  11.681   5.049  0.1273 -0.2050  0.1110
  996MOL0     C34347   6.368  11.769   5.026 -0.6425  0.3684  0.4524
  996MOL0     C34348   6.276  11.789   5.144 -0.7352 -0.2066  0.2649
  996MOL0     O34349   6.239  11.660   5.201  0.1398 -0.3925 -0.2309
  996MOL0     C34350   6.136  11.656   5.291  0.1850 -0.1138 -0.5386
  996MOL0     C34351   6.083  11.765   5.361  0.3199 -1.5617  0.5503
  996MOL0     C34352   5.975  11.757   5.449 -0.5408  0.0272 -0.8508
  996MOL0     C34353   5.933  11.888   5.498 -0.3753  0.1027 -0.1390
  996MOL0     C34354   5.919  11.631   5.470  0.0401 -0.1797 -0.2877
  996MOL0     C34355   5.793  11.616   5.555  0.0963 -0.9606 -0.1887
  996MOL0     O34356   5.738  11.730   5.614 -0.1885 -0.3993 -0.1070
  996MOL0     C34357   5.632  11.701   5.689 -0.5106 -0.4250 -0.1115
  996MOL0     C34358   5.501  11.667   5.637 -0.0144 -0.8636 -0.4271
  996MOL0     C34359   5.383  11.667   5.723  0.3596 -0.0601 -1.1020
  996MOL0     C34360   5.400  11.699   5.860  0.3318 -0.4079  0.6866
  996MOL0     O34361   5.284  11.710   5.933  0.7528 -0.3026  0.4491
  996MOL0     C34362   5.288  11.765   6.069  0.8168  0.0993  0.3924
  996MOL0     C34363   5.148  11.802   6.111  0.8149 -0.0209 -0.2781
  996MOL0     C34364   5.140  11.856   6.257 -0.1954  0.3035 -0.3374
  996MOL0     C34365   5.024  11.948   6.269  0.1467 -0.6258 -0.3513
  996MOL0     C34366   4.888  11.894   6.224 -0.4103 -0.0717  0.1677
  996MOL0     C34367   4.783  12.001   6.237  0.7743  0.3614  0.0167
  996MOL0     C34368   4.641  11.964   6.173 -0.3405 -0.6245 -0.8775
  996MOL0     C34369   4.529  12.063   6.232  0.5604 -0.2917 -0.1718
  996MOL0    Cl34370   4.562  12.241   6.221  0.4687 -0.6843  0.4079
  996MOL0     C34371   5.524  11.730   5.910 -0.5352 -0.9089  0.1837
  996MOL0     C34372   5.634  11.733   5.820 -0.2025 -0.1726  0.4716
  996MOL0     O34373   5.737  11.504   5.544 -0.2548 -0.4932 -0.6019
  996MOL0     C34374   5.979  11.511   5.409 -0.1220 -0.5390 -0.8215
  996MOL0     C34375   6.083  11.527   5.325  0.0079  0.6427  0.6537
  996MOL0     N34376   6.821  11.618   4.882  0.7361  0.0121 -0.3569
  996MOL0     N34377   6.892  11.514   4.903  0.0144  0.2925  0.1047
  996MOL0     C34378   7.504  10.885   4.110  1.1113 -0.3111 -0.7479
  996MOL0     C34379   7.586  10.786   4.057  0.4579  1.0490 -0.3677
  996MOL0     C34380   7.868  10.442   3.988  0.2116 -0.2603  0.1927
  996MOL0     C34381   7.906  10.361   3.883 -0.5460  0.4282 -0.5143
  996MOL0     C34382   8.020  10.282   3.881  0.2381 -0.8505  0.5472
  996MOL0     C34383   8.102  10.271   3.983 -0.6428  0.0880  0.3556
  996MOL0     O34384   8.202  10.173   3.972 -0.4989 -0.4462  0.1906
  996MOL0     C34385   8.301  10.188   4.073 -0.0189  0.3744  0.2530
  996MOL0     C34386   8.421  10.108   4.038 -0.5634 -0.2437 -0.1803
  996MOL0     C34387   8.383   9.967   4.000  0.6280 -0.4838  1.6247
  996MOL0     C34388   8.501   9.895   3.950 -0.2372 -0.0357 -0.4676
  996MOL0     C34389   8.464   9.758   3.912 -0.5380 -0.4600 -0.0765
  996MOL0     C34390   8.430   9.644   3.881 -0.0166  0.2772  0.4989
  996MOL0     C34391   8.067  10.360   4.093 -0.4476 -0.5753 -0.1076
  996MOL0     C34392   7.953  10.445   4.097  0.1763  0.1842  0.8623
  996MOL0     H34393   7.536  10.520   4.275  2.1165  0.2239  0.1953
  996MOL0     H34394   7.408  10.712   4.392  4.3849  0.3230  2.5160
  996MOL0     H34395   7.279  11.045   4.135 -0.7157  0.6772 -0.4995
  996MOL0     H34396   7.174  10.939   4.243 -3.7263  4.5744  1.9736
  996MOL0     H34397   7.308  11.179   4.367 -0.5672 -1.5864  1.3225
  996MOL0     H34398   7.166  11.200   4.276 -1.3396 -0.2781 -0.5505
  996MOL0     H34399   7.057  11.007   4.420 -1.8253  1.3816 -0.2236
  996MOL0     H34400   7.217  11.022   4.508  1.6257 -2.6706 -3.8627
  996MOL0     H34401   7.152  11.246   4.565 -1.4168  3.4146 -1.5993
  996MOL0     H34402   7.014  11.234   4.450 -1.1340 -0.8916  0.4505
  996MOL0     H34403   6.882  11.083   4.594 -1.0047 -0.9162  2.5819
  996MOL0     H34404   7.026  11.043   4.692 -1.2317  0.0432  1.7545
  996MOL0     H34405   7.040  11.282   4.760  0.3116 -0.0550 -2.8439
  996MOL0     H34406   6.880  11.313   4.691 -0.2728 -0.6344 -1.4155
  996MOL0     H34407   6.755  11.193   4.797 -0.0552  2.3165  0.0889
  996MOL0     H34408   6.873  11.088   4.894 -1.3811  0.2045  0.5461
  996MOL0     H34409   6.967  11.296   5.004  1.8152 -0.7339 -3.3605
  996MOL0     H34410   6.794  11.248   5.051 -0.9847  0.6150 -0.2954
  996MOL0     H34411   6.600  11.390   4.965 -1.0330  0.2105 -0.0317
  996MOL0     H34412   6.594  11.780   4.877 -1.2112  0.5984 -0.8892
  996MOL0     H34413   6.497  11.644   4.837  0.9440 -1.4336  1.0185
  996MOL0     H34414   6.566  11.727   5.118  1.7246 -0.4341 -1.3057
  996MOL0     H34415   6.460  11.587   5.093  1.2144 -1.0955 -0.8488
  996MOL0     H34416   6.303  11.731   4.947  1.9424 -2.5778 -0.4847
  996MOL0     H34417   6.409  11.861   4.984  1.3591 -2.0586 -3.5688
  996MOL0     H34418   6.185  11.841   5.113 -0.7135  1.5628  2.8655
  996MOL0     H34419   6.320  11.861   5.212 -0.3059  0.5520 -0.7908
  996MOL0     H34420   6.139  11.855   5.341  2.1528 -3.3173 -3.0612
  996MOL0     H34421   5.849  11.928   5.441 -0.9109 -2.0393 -0.9352
  996MOL0     H34422   5.904  11.892   5.604 -0.8613  4.1110 -0.2821
  996MOL0     H34423   6.013  11.961   5.484 -0.4057  0.2691  0.5368
  996MOL0     H34424   5.486  11.645   5.532 -1.4927 -0.1136 -0.4011
  996MOL0     H34425   5.282  11.651   5.687 -0.2688  0.6910  0.2687
  996MOL0     H34426   5.324  11.679   6.127  2.0742  0.0279 -0.4743
  996MOL0     H34427   5.349  11.855   6.067  0.6438  0.2518  1.4277
  996MOL0     H34428   5.123  11.884   6.042  0.5389  0.9823  0.9742
  996MOL0     H34429   5.087  11.711   6.110  2.9723 -1.6420  2.7636
  996MOL0     H34430   5.236  11.898   6.288 -0.5596  1.1568 -0.3414
  996MOL0     H34431   5.135  11.772   6.328  2.4513  1.0523  0.8615
  996MOL0     H34432   5.013  11.971   6.375 -1.3185 -0.0911 -0.6041
  996MOL0     H34433   5.064  12.045   6.236  1.3865 -1.2452 -0.7456
  996MOL0     H34434   4.863  11.814   6.295  1.2292  0.7408  1.7217
  996MOL0     H34435   4.879  11.867   6.119 -0.9205  1.6817 -0.2623
  996MOL0     H34436   4.756  12.014   6.342 -1.0438 -3.4766  0.2342
  996MOL0     H34437   4.812  12.098   6.197 -0.2864  1.0570  0.8901
  996MOL0     H34438   4.623  11.857   6.188  1.2044 -0.9826 -1.3370
  996MOL0     H34439   4.647  11.988   6.067 -3.7783  1.7580 -0.6925
  996MOL0     H34440   4.512  12.053   6.340 -3.0231  3.7819 -0.0612
  996MOL0     H34441   4.434  12.035   6.185 -0.2685 -1.7399  2.1945
  996MOL0     H34442   5.538  11.766   6.012 -0.2137 -0.7496  0.0826
  996MOL0     H34443   5.735  11.751   5.855 -1.0460  1.0187  2.4343
  996MOL0     H34444   5.941  11.411   5.425  0.8438 -0.9030 -0.7382
  996MOL0     H34445   6.122  11.444   5.267 -0.7591  2.4919 -2.7852
  996MOL0     H34446   7.504  10.986   4.072  3.3548 -0.1869 -0.5082
  996MOL0     H34447   7.648  10.788   3.968  0.4762 -2.1966 -0.5400
  996MOL0     H34448   7.848  10.370   3.791 -2.8020 -1.5388  0.6071
  996MOL0     H34449   8.045  10.221   3.794  2.1279  1.2503 -0.4852
  996MOL0     H34450   8.326  10.295   4.069  0.7282  0.2011  0.1568
  996MOL0     H34451   8.251  10.161   4.167 -1.1696 -1.6130 -0.8744
  996MOL0     H34452   8.493  10.112   4.120  0.3346  2.4185 -0.9973
  996MOL0     H34453   8.481  10.155   3.959  1.4406  0.4197  1.6423
  996MOL0     H34454   8.310   9.975   3.918 -3.2215 -0.7505  4.7003
  996MOL0     H34455   8.339   9.923   4.090 -2.8590  0.9380  0.7861
  996MOL0     H34456   8.562   9.887   4.040  2.3406 -0.6984 -2.1681
  996MOL0     H34457   8.557   9.951   3.875  1.8469 -1.4402 -0.0353
  996MOL0     H34458   8.403   9.544   3.852 -1.8310  0.9453 -0.2500
  996MOL0     H34459   8.135  10.366   4.177  0.3606  0.7207 -0.8193
  996MOL0     H34460   7.925  10.500   4.186  0.9898 -0.6578  1.6590
  997MOL0     O34461   1.796   0.877   7.213 -0.1695 -0.0413 -0.0517
  997MOL0     C34462   1.822   0.904   7.099 -0.4883  0.4956 -0.4293
  997MOL0     O34463   1.749   0.978   7.010  0.9584  0.7553  0.3574
  997MOL0     C34464   1.637   1.027   7.059 -0.0885 -0.2502  0.0403
  997MOL0     C34465   1.514   1.018   6.994  0.4286 -0.3220  0.3284
  997MOL0     C34466   1.394   1.065   7.038  0.1568 -0.5183 -0.3539
  997MOL0     C34467   1.383   1.130   7.161  0.2111  0.0825  0.4594
  997MOL0     O34468   1.276   1.186   7.224  0.0689  0.9294 -0.0310
  997MOL0     C34469   1.140   1.170   7.172 -0.4863 -0.5671 -0.3827
  997MOL0     C34470   1.063   1.262   7.255 -0.2446 -1.0642  0.7046
  997MOL0     C34471   0.919   1.216   7.268 -0.1492  0.7851  0.9662
  997MOL0     C34472   0.899   1.095   7.367  0.3349 -1.2191  0.8545
  997MOL0     C34473   0.900   1.134   7.508 -0.8217  0.0931 -0.4696
  997MOL0     C34474   1.036   1.120   7.584 -0.7901 -0.7976 -0.4825
  997MOL0     C34475   1.023   1.178   7.731 -0.7495 -0.0477  0.1329
  997MOL0     C34476   0.983   1.326   7.739 -0.7442 -0.3911  0.4968
  997MOL0     N34477   0.965   1.364   7.881 -0.0647  0.2513 -0.8159
  997MOL0     C34478   1.069   1.367   7.973  0.6123  0.1913  0.1019
  997MOL0     C34479   1.026   1.424   8.085  0.3499 -0.2128  0.5449
  997MOL0     C34480   1.104   1.473   8.199 -0.4575 -0.6137  0.2415
  997MOL0     C34481   1.163   1.354   8.278 -0.1054  1.0505  0.6674
  997MOL0     C34482   1.272   1.409   8.377 -0.4015  0.1803 -0.9821
  997MOL0     C34483   1.356   1.302   8.440  0.6758  0.2716  0.1057
  997MOL0     O34484   1.477   1.285   8.355  0.3633  0.2893 -0.2506
  997MOL0     C34485   1.572   1.195   8.404 -0.4683  0.3346  0.6021
  997MOL0     C34486   1.573   1.132   8.531  0.5933 -0.0879  0.0524
  997MOL0     C34487   1.680   1.052   8.573 -0.5615  0.7882  0.1882
  997MOL0     C34488   1.668   0.963   8.699 -0.0808 -0.7316  0.1091
  997MOL0     C34489   1.792   1.030   8.484 -0.2674 -0.8183  0.2515
  997MOL0     C34490   1.910   0.943   8.511  0.7493 -0.1314 -1.0921
  997MOL0     O34491   1.972   0.880   8.408  0.7540  0.1361  0.1940
  997MOL0     C34492   2.088   0.821   8.425 -0.2652  0.9354 -0.1760
  997MOL0     C34493   2.213   0.886   8.396  0.3891 -0.2435 -0.0960
  997MOL0     C34494   2.334   0.822   8.429  0.0805 -0.7192  0.2562
  997MOL0     C34495   2.331   0.686   8.463 -0.1571 -0.3089  0.1161
  997MOL0     O34496   2.443   0.607   8.476 -0.9897 -0.1092  0.4814
  997MOL0     C34497   2.564   0.652   8.548  0.8431  0.0241 -0.8947
  997MOL0     C34498   2.683   0.721   8.479 -0.1825 -0.2265 -0.9607
  997MOL0     C34499   2.751   0.637   8.373 -0.9548  0.0346  0.2050
  997MOL0     C34500   2.869   0.702   8.296  0.6167 -0.7792 -0.9199
  997MOL0     C34501   2.928   0.594   8.211 -0.1785 -0.4702  0.2507
  997MOL0     C34502   3.031   0.658   8.116  1.0230  0.1020  0.1980
  997MOL0     C34503   3.136   0.567   8.060 -0.1564  0.4628 -0.3397
  997MOL0     C34504   3.237   0.641   7.969 -0.0247 -0.0666  0.5695
  997MOL0    Cl34505   3.167   0.727   7.832  0.4447 -0.3136  0.0965
  997MOL0     C34506   2.210   0.619   8.492  0.2139  0.2914  0.6760
  997MOL0     C34507   2.089   0.690   8.472  0.0771 -0.0201  0.3397
  997MOL0     O34508   1.953   0.942   8.627  0.7718  0.4666  0.5625
  997MOL0     C34509   1.788   1.092   8.362  0.0455  0.2101  0.4623
  997MOL0     C34510   1.681   1.166   8.312  0.0920 -0.2318  0.2170
  997MOL0     N34511   0.891   1.460   8.050 -0.0607  0.4968 -0.2457
  997MOL0     N34512   0.859   1.426   7.934  0.2932  0.0240 -0.5959
  997MOL0     C34513   1.500   1.139   7.241 -0.2508 -0.1617  0.4437
  997MOL0     C34514   1.624   1.098   7.185  0.7347  0.5293 -0.5677
  997MOL0     C34515   1.952   0.847   7.048  0.2519  0.5863 -0.4216
  997MOL0     C34516   1.994   0.889   6.916  0.1712 -0.9008  0.0889
  997MOL0     C34517   2.123   0.877   6.866 -0.0826 -0.7125  0.0492
  997MOL0     C34518   2.217   0.810   6.937 -0.5111 -0.9268 -0.1530
  997MOL0     O34519   2.341   0.788   6.889 -0.6020  0.3424 -0.5255
  997MOL0     C34520   2.386   0.867   6.776 -0.0842  0.0549 -0.4770
  997MOL0     C34521   2.543   0.838   6.744  0.6088 -0.6416 -0.0914
  997MOL0     C34522   2.578   0.866   6.598 -0.1619 -1.0040  0.3011
  997MOL0     C34523   2.719   0.831   6.560 -1.1666 -0.0145  0.2546
  997MOL0     C34524   2.814   0.930   6.611 -0.5077  0.7989 -0.5752
  997MOL0     C34525   2.899   1.000   6.668 -0.0424 -0.4317 -0.0855
  997MOL0     C34526   2.185   0.762   7.063 -0.4610  0.8765 -0.6565
  997MOL0     C34527   2.054   0.775   7.119  0.7386  0.3481 -0.5276
  997MOL0     H34528   1.523   0.942   6.917  0.7616  0.2600 -0.2197
  997MOL0     H34529   1.305   1.033   6.985  1.3943 -4.5859 -0.3343
  997MOL0     H34530   1.138   1.195   7.065 -1.7692 -0.9077 -0.4444
  997MOL0     H34531   1.103   1.069   7.192  0.9449 -0.5575  2.8726
  997MOL0     H34532   1.108   1.266   7.354 -1.8748  0.5858  1.4238
  997MOL0     H34533   1.070   1.361   7.208  1.9985 -0.8011  1.4638
  997MOL0     H34534   0.849   1.294   7.300 -2.7717 -0.4831 -1.2683
  997MOL0     H34535   0.890   1.173   7.171  3.9625  1.9220 -1.0473
  997MOL0     H34536   0.810   1.043   7.332  0.3259 -0.0453 -1.0087
  997MOL0     H34537   0.983   1.025   7.360  1.6888  0.1437  2.4138
  997MOL0     H34538   0.867   1.238   7.513 -0.3683  0.3058 -1.5559
  997MOL0     H34539   0.834   1.064   7.560 -0.7401 -3.6724 -4.8332
  997MOL0     H34540   1.060   1.014   7.588 -2.8545 -1.2887  0.1264
  997MOL0     H34541   1.122   1.175   7.545 -1.5932  0.9592  0.0886
  997MOL0     H34542   0.959   1.116   7.793  0.1133  0.3432  1.4405
  997MOL0     H34543   1.124   1.171   7.771  0.5198 -1.8392 -2.9764
  997MOL0     H34544   0.889   1.349   7.689 -0.0745  1.9237  0.1946
  997MOL0     H34545   1.060   1.392   7.697 -1.4053 -1.0380 -1.8876
  997MOL0     H34546   1.169   1.340   7.940  0.2657 -0.3236 -0.5403
  997MOL0     H34547   1.181   1.537   8.155 -0.7909 -1.2360 -1.3345
  997MOL0     H34548   1.036   1.537   8.256  0.9059  1.0689  0.0707
  997MOL0     H34549   1.209   1.277   8.216 -0.5082  1.6791 -0.4477
  997MOL0     H34550   1.085   1.315   8.344  0.0710  0.0434  0.2908
  997MOL0     H34551   1.208   1.459   8.449  1.2586 -1.7106  2.0204
  997MOL0     H34552   1.351   1.476   8.341  1.3381 -0.4508  1.4206
  997MOL0     H34553   1.311   1.202   8.444  1.2688 -0.2683 -3.4067
  997MOL0     H34554   1.380   1.326   8.543 -1.9535  0.7011  0.6982
  997MOL0     H34555   1.492   1.134   8.603 -0.1984  2.2886 -0.8023
  997MOL0     H34556   1.755   0.971   8.765  0.1851  0.6269 -0.3580
  997MOL0     H34557   1.585   0.988   8.766  0.1222  0.3580 -0.0278
  997MOL0     H34558   1.662   0.863   8.657  1.2825 -0.2526 -1.2810
  997MOL0     H34559   2.204   0.990   8.366  1.6209 -0.0381  0.1719
  997MOL0     H34560   2.427   0.877   8.415  0.1535 -1.1606 -1.0983
  997MOL0     H34561   2.522   0.710   8.630  0.7332  0.6223 -1.3669
  997MOL0     H34562   2.605   0.559   8.589 -0.7239 -1.0152 -1.5945
  997MOL0     H34563   2.643   0.810   8.430 -2.4933 -1.4961 -1.5637
  997MOL0     H34564   2.755   0.757   8.553 -2.7221  2.1235  0.5686
  997MOL0     H34565   2.677   0.599   8.302  1.7479 -2.1941 -1.6087
  997MOL0     H34566   2.791   0.542   8.410  2.4853  0.7146 -1.3955
  997MOL0     H34567   2.823   0.778   8.232  0.5823  0.9665  1.0871
  997MOL0     H34568   2.945   0.742   8.363 -1.6539  1.6920  0.3501
  997MOL0     H34569   2.848   0.545   8.153 -0.8698 -1.6816  2.1587
  997MOL0     H34570   2.975   0.514   8.268 -2.7426 -1.7402  0.7455
  997MOL0     H34571   2.979   0.718   8.042  2.2981  0.3135 -0.5641
  997MOL0     H34572   3.091   0.732   8.171  1.6203  0.1554 -0.5137
  997MOL0     H34573   3.091   0.492   7.995 -1.2209 -1.1578  2.1511
  997MOL0     H34574   3.181   0.501   8.134 -0.2032 -0.0187 -0.7331
  997MOL0     H34575   3.310   0.567   7.934 -1.9181 -1.9111  0.3065
  997MOL0     H34576   3.297   0.714   8.023  0.3876  0.4596 -0.5680
  997MOL0     H34577   2.214   0.514   8.517 -0.7198 -1.3584 -4.8148
  997MOL0     H34578   1.994   0.645   8.500  0.4288  1.0473  3.6495
  997MOL0     H34579   1.864   1.060   8.290 -0.8566  1.4389 -1.1064
  997MOL0     H34580   1.689   1.215   8.215 -0.7783  3.6847  1.9529
  997MOL0     H34581   1.496   1.199   7.331  0.6062 -0.8626  0.9766
  997MOL0     H34582   1.717   1.104   7.239  0.4538 -0.2196  0.0117
  997MOL0     H34583   1.935   0.950   6.849  0.0500  0.1049  1.0798
  997MOL0     H34584   2.146   0.906   6.764  1.8237  0.0481  0.6492
  997MOL0     H34585   2.329   0.838   6.687 -0.3290 -2.5751  0.4320
  997MOL0     H34586   2.365   0.973   6.792 -0.5664  0.2131 -1.9956
  997MOL0     H34587   2.556   0.730   6.756 -0.0767 -0.9952 -2.1370
  997MOL0     H34588   2.607   0.889   6.816  0.5472 -2.7312  1.5626
  997MOL0     H34589   2.567   0.973   6.582  0.1851 -1.0483 -0.2352
  997MOL0     H34590   2.511   0.808   6.534  3.7985 -4.1389 -1.4669
  997MOL0     H34591   2.729   0.820   6.451  0.3838  1.4882  0.2057
  997MOL0     H34592   2.753   0.739   6.609  4.2558  1.3729 -0.2850
  997MOL0     H34593   2.975   1.048   6.728  0.5854 -0.7726 -0.5965
  997MOL0     H34594   2.257   0.703   7.118  0.4175  1.5248 -1.0938
  997MOL0     H34595   2.043   0.721   7.212  1.9550 -3.6080 -2.4530
  998MOL0     O34596   6.633   4.488   0.422  0.2040 -0.2562 -0.2711
  998MOL0     C34597   6.532   4.418   0.462 -0.3741 -0.6158 -0.0305
  998MOL0     O34598   6.539   4.312   0.552  0.5507 -0.0250  0.2653
  998MOL0     C34599   6.664   4.287   0.601 -0.1866 -0.1129 -1.0843
  998MOL0     C34600   6.783   4.255   0.529 -0.2162 -0.0664  0.2273
  998MOL0     C34601   6.903   4.234   0.589 -0.3949  0.2734  0.1260
  998MOL0     C34602   6.918   4.243   0.729  0.7990  0.6498  0.5559
  998MOL0     O34603   7.036   4.224   0.797 -0.8518  0.7080  0.4365
  998MOL0     C34604   7.114   4.113   0.748  0.2801 -0.1307 -0.3271
  998MOL0     C34605   7.247   4.098   0.825  0.0869  0.4205 -0.7863
  998MOL0     C34606   7.325   4.222   0.819 -0.2542 -0.3938 -0.1181
  998MOL0     C34607   7.477   4.179   0.804  0.2279 -0.8493  0.5669
  998MOL0     C34608   7.577   4.291   0.805  0.2506 -0.4294  1.0978
  998MOL0     C34609   7.544   4.402   0.700 -0.0020 -0.7128 -0.2487
  998MOL0     C34610   7.660   4.503   0.690 -0.1858 -0.6817  0.8766
  998MOL0     C34611   7.701   4.564   0.826 -0.5124  0.4805 -0.5181
  998MOL0     N34612   7.593   4.637   0.900  0.0011 -0.1180 -0.9813
  998MOL0     C34613   7.522   4.602   1.015 -0.4917  0.3502 -0.8018
  998MOL0     C34614   7.436   4.706   1.046 -0.5940  0.8029  0.2108
  998MOL0     C34615   7.333   4.710   1.162  0.0181 -0.7435  0.8390
  998MOL0     C34616   7.221   4.620   1.154 -0.4334  0.3254  0.4910
  998MOL0     C34617   7.263   4.473   1.185  0.0940 -0.4311 -0.0614
  998MOL0     C34618   7.153   4.367   1.172  0.5474  0.1071  0.0731
  998MOL0     O34619   7.038   4.409   1.253  0.1268  0.9581  0.3460
  998MOL0     C34620   6.925   4.331   1.233 -0.4493  0.3491 -1.3081
  998MOL0     C34621   6.924   4.203   1.185  0.0540 -0.5603 -0.9327
  998MOL0     C34622   6.807   4.128   1.146 -0.3757 -0.2282  0.1879
  998MOL0     C34623   6.815   3.989   1.083  0.2102  0.2267  0.0670
  998MOL0     C34624   6.686   4.197   1.159  0.0714  0.9059  0.4378
  998MOL0     C34625   6.556   4.130   1.135  1.3008  1.0017 -0.6101
  998MOL0     O34626   6.474   4.216   1.079 -0.6769 -0.5877  0.4411
  998MOL0     C34627   6.346   4.189   1.055  0.5930 -0.1025 -0.8106
  998MOL0     C34628   6.287   4.242   0.934  0.1424 -0.1763  0.0420
  998MOL0     C34629   6.154   4.226   0.909  0.2318 -1.1900  0.5983
  998MOL0     C34630   6.066   4.162   0.996 -0.1120 -0.6114  0.4236
  998MOL0     O34631   5.935   4.161   0.962  0.2462 -1.0136  0.1026
  998MOL0     C34632   5.845   4.078   1.030 -0.2787 -0.4706 -0.6343
  998MOL0     C34633   5.705   4.125   0.991 -0.7399 -0.2345  0.4900
  998MOL0     C34634   5.588   4.057   1.061  0.6184  1.3370 -0.1986
  998MOL0     C34635   5.460   4.098   0.991  0.5815 -0.3747  0.3406
  998MOL0     C34636   5.343   4.066   1.079  0.3354  0.3505  1.0297
  998MOL0     C34637   5.216   4.077   1.000 -0.4499  0.8470  0.0982
  998MOL0     C34638   5.097   4.078   1.084 -0.0614 -0.2625 -0.2079
  998MOL0     C34639   4.967   4.044   0.997  0.1677  0.2220 -0.2427
  998MOL0    Cl34640   4.957   3.887   0.909 -0.4011  0.1115  0.2142
  998MOL0     C34641   6.121   4.128   1.125  0.4209  0.1821 -0.2997
  998MOL0     C34642   6.257   4.138   1.150 -0.6261 -0.0471  0.4520
  998MOL0     O34643   6.541   4.016   1.172 -0.3207  1.2737  0.4911
  998MOL0     C34644   6.684   4.326   1.214  0.3469 -0.7796  0.3417
  998MOL0     C34645   6.803   4.388   1.250  0.4184 -0.4599  0.7829
  998MOL0     N34646   7.461   4.804   0.948  1.1222  0.7060 -0.7512
  998MOL0     N34647   7.548   4.760   0.861 -0.0958 -0.3226  0.4773
  998MOL0     C34648   6.800   4.275   0.797 -0.6100  0.0103 -0.6955
  998MOL0     C34649   6.675   4.300   0.739  1.7646  1.3028  0.9588
  998MOL0     C34650   6.403   4.433   0.393 -0.9727  0.7980  0.0265
  998MOL0     C34651   6.288   4.377   0.446  0.2160  0.4710 -0.4578
  998MOL0     C34652   6.163   4.405   0.388  0.0740 -0.2934  0.2106
  998MOL0     C34653   6.154   4.488   0.281  0.0878  0.5887 -0.8675
  998MOL0     O34654   6.030   4.514   0.234  0.2940  0.0369 -0.5587
  998MOL0     C34655   5.969   4.628   0.301 -0.1598  0.2143  0.4189
  998MOL0     C34656   5.827   4.630   0.249 -0.4653  0.4671 -0.8218
  998MOL0     C34657   5.727   4.525   0.314  0.5662  0.1247  0.3389
  998MOL0     C34658   5.597   4.526   0.236 -0.8718 -0.0219 -0.0653
  998MOL0     C34659   5.547   4.659   0.251 -0.1073 -0.4453  0.2746
  998MOL0     C34660   5.496   4.768   0.267 -0.9272 -0.5295 -0.1828
  998MOL0     C34661   6.267   4.551   0.234  0.2489 -1.0730  0.0286
  998MOL0     C34662   6.396   4.527   0.293  1.0156 -0.0044  0.3164
  998MOL0     H34663   6.766   4.232   0.424 -0.6649 -0.3266  0.3534
  998MOL0     H34664   6.990   4.201   0.532 -0.3747  0.0892  0.2638
  998MOL0     H34665   7.066   4.016   0.762 -4.7687  2.0544 -0.0476
  998MOL0     H34666   7.139   4.141   0.645 -0.5252 -1.4767 -0.9209
  998MOL0     H34667   7.222   4.066   0.927  1.2460 -0.3938 -0.7387
  998MOL0     H34668   7.306   4.017   0.780 -1.1131  0.3573 -2.3198
  998MOL0     H34669   7.291   4.277   0.731  1.6057  2.0989  0.5900
  998MOL0     H34670   7.305   4.285   0.906  1.8210  1.4097 -0.8333
  998MOL0     H34671   7.490   4.107   0.885 -1.6739  0.5518  2.2303
  998MOL0     H34672   7.475   4.134   0.704  0.0060  0.2776  0.0461
  998MOL0     H34673   7.590   4.335   0.905  0.4274  1.3367  0.3285
  998MOL0     H34674   7.671   4.244   0.775 -0.6649 -0.4692 -1.9561
  998MOL0     H34675   7.523   4.349   0.606  0.3048  0.0510 -0.7528
  998MOL0     H34676   7.454   4.457   0.730 -0.0259 -0.0413 -1.4989
  998MOL0     H34677   7.745   4.460   0.637 -0.0117  2.1558 -1.4030
  998MOL0     H34678   7.622   4.586   0.629  2.3386  0.7054  1.0913
  998MOL0     H34679   7.782   4.635   0.805 -0.1584 -0.3457 -2.0679
  998MOL0     H34680   7.733   4.489   0.899 -0.1748 -0.4846 -1.6418
  998MOL0     H34681   7.532   4.522   1.087 -3.8438  0.0533 -0.5115
  998MOL0     H34682   7.380   4.686   1.258 -0.1224  3.5372  2.2245
  998MOL0     H34683   7.295   4.813   1.173 -3.5575 -1.4617 -2.5635
  998MOL0     H34684   7.158   4.632   1.065 -0.0177  1.6197  0.3521
  998MOL0     H34685   7.161   4.649   1.241  2.1447  1.3676  2.0238
  998MOL0     H34686   7.288   4.469   1.291  1.5302  1.9515 -0.2265
  998MOL0     H34687   7.347   4.442   1.122 -1.4822 -3.1075 -1.0108
  998MOL0     H34688   7.183   4.266   1.202 -0.8205  0.3999  2.7439
  998MOL0     H34689   7.122   4.365   1.067  1.5808 -1.0706 -0.2287
  998MOL0     H34690   7.023   4.161   1.164  0.6973 -0.4343  1.5779
  998MOL0     H34691   6.780   3.904   1.143 -2.8718  0.6252 -0.9571
  998MOL0     H34692   6.735   3.994   1.008 -0.4552 -0.7906  0.6718
  998MOL0     H34693   6.910   3.981   1.030 -0.6888  1.3365 -1.8414
  998MOL0     H34694   6.340   4.293   0.854  0.2023  0.9170  0.7614
  998MOL0     H34695   6.113   4.262   0.816 -0.8061  1.3455  1.9488
  998MOL0     H34696   5.866   3.973   1.008  0.2585 -0.6944  0.8776
  998MOL0     H34697   5.840   4.096   1.137 -1.8527 -2.1822 -0.3795
  998MOL0     H34698   5.700   4.234   0.997  0.3045 -0.2235  1.3414
  998MOL0     H34699   5.692   4.098   0.886 -2.7009 -1.0151  0.8740
  998MOL0     H34700   5.580   4.087   1.166 -0.2700  0.7183 -0.0796
  998MOL0     H34701   5.592   3.949   1.046  0.7842  1.4932 -1.3822
  998MOL0     H34702   5.467   4.207   0.978  2.8319 -0.5204 -0.1484
  998MOL0     H34703   5.435   4.051   0.896 -0.1763 -0.8279  0.7527
  998MOL0     H34704   5.351   4.131   1.167  5.6164 -1.5863  2.3606
  998MOL0     H34705   5.358   3.963   1.112  2.0761  0.4710  0.7213
  998MOL0     H34706   5.209   4.168   0.939  2.2070 -0.5182 -2.5024
  998MOL0     H34707   5.208   3.987   0.939 -2.0787 -0.4481  2.1050
  998MOL0     H34708   5.079   4.164   1.150 -2.2264 -1.1168  0.4023
  998MOL0     H34709   5.110   3.996   1.155  0.1829 -0.7857 -0.8399
  998MOL0     H34710   4.939   4.119   0.922 -1.7178 -2.6007 -2.5578
  998MOL0     H34711   4.894   4.047   1.078  0.2791  1.1666 -0.1623
  998MOL0     H34712   6.049   4.093   1.199  0.4950 -0.7724 -0.6724
  998MOL0     H34713   6.300   4.117   1.247  0.5402  0.7278  0.1263
  998MOL0     H34714   6.592   4.383   1.221  2.3844  3.1262 -1.3106
  998MOL0     H34715   6.816   4.492   1.280  3.2627 -0.2991 -0.6351
  998MOL0     H34716   6.817   4.275   0.904  2.8905  2.1852 -1.0803
  998MOL0     H34717   6.586   4.310   0.801 -1.9179 -2.7635 -2.9584
  998MOL0     H34718   6.302   4.301   0.522 -0.7323  2.8993  2.3164
  998MOL0     H34719   6.071   4.364   0.429 -1.2086  1.2050 -1.0461
  998MOL0     H34720   5.967   4.617   0.410 -1.0247 -1.8536  0.2266
  998MOL0     H34721   6.023   4.718   0.269  2.4281 -1.1226  0.7680
  998MOL0     H34722   5.829   4.606   0.143  1.7022 -1.6723 -0.3943
  998MOL0     H34723   5.789   4.732   0.258 -1.1800  0.1956 -0.7456
  998MOL0     H34724   5.714   4.560   0.417  1.5052 -1.6245  1.0977
  998MOL0     H34725   5.777   4.428   0.322 -2.2553 -1.2890  2.9067
  998MOL0     H34726   5.531   4.448   0.274 -1.4812 -0.0017 -1.0484
  998MOL0     H34727   5.616   4.493   0.134 -0.4369 -2.8383  0.8468
  998MOL0     H34728   5.459   4.864   0.298  2.2830  1.4538 -2.0239
  998MOL0     H34729   6.256   4.631   0.161 -1.2853  0.1126  1.4753
  998MOL0     H34730   6.482   4.568   0.240 -0.2358  1.2424 -0.8445
  999MOL0     O34731  11.164   6.908   6.303 -0.0440  0.2564  0.1425
  999MOL0     C34732  11.204   6.963   6.199 -0.0173  0.4492 -0.1494
  999MOL0     O34733  11.154   7.087   6.154  0.7989 -0.3320 -0.1169
  999MOL0     C34734  11.059   7.140   6.225  0.0409 -0.7822  0.6453
  999MOL0     C34735  10.931   7.151   6.173  0.3113  0.4215  0.4476
  999MOL0     C34736  10.831   7.213   6.238 -0.6878  0.2983  0.7116
  999MOL0     C34737  10.855   7.297   6.347 -0.2469  0.2356  0.0297
  999MOL0     O34738  10.775   7.390   6.407 -0.5812 -0.5609  0.6097
  999MOL0     C34739  10.624   7.389   6.380  0.8205  0.0908  0.2453
  999MOL0     C34740  10.561   7.499   6.464  0.2095  0.7217  0.9328
  999MOL0     C34741  10.452   7.573   6.391  0.1120  0.2259 -0.1102
  999MOL0     C34742  10.505   7.652   6.276  0.2695 -0.2251 -0.5296
  999MOL0     C34743  10.408   7.758   6.227  0.1713 -0.6168 -0.2780
  999MOL0     C34744  10.469   7.863   6.142  0.6477 -0.4038 -0.3306
  999MOL0     C34745  10.354   7.955   6.111  0.9508 -0.0324 -1.4492
  999MOL0     C34746  10.408   8.060   6.028 -0.2877 -0.2766  0.7005
  999MOL0     N34747  10.300   8.129   5.969  0.2991  0.0234  0.9242
  999MOL0     C34748  10.232   8.223   6.037  0.2982  0.4106 -0.1069
  999MOL0     C34749  10.150   8.280   5.953 -0.0754 -0.8532  0.6675
  999MOL0     C34750  10.043   8.376   5.990  0.0323 -0.0731 -0.0326
  999MOL0     C34751   9.943   8.396   5.876 -0.7421 -0.9582 -0.3862
  999MOL0     C34752   9.811   8.469   5.919  0.2351 -0.0418 -0.4823
  999MOL0     C34753   9.706   8.493   5.811  0.1013 -0.0878  0.3723
  999MOL0     O34754   9.661   8.375   5.746 -0.4802  0.1699 -0.3973
  999MOL0     C34755   9.600   8.397   5.625  0.0664  0.2745 -0.3935
  999MOL0     C34756   9.595   8.278   5.540  0.6365  0.9491  0.4621
  999MOL0     C34757   9.530   8.269   5.412  0.8591  0.0302 -0.3194
  999MOL0     C34758   9.521   8.139   5.343  0.0252  0.7637 -0.0918
  999MOL0     C34759   9.463   8.384   5.370 -1.0275 -0.7089  0.2769
  999MOL0     C34760   9.384   8.394   5.245  0.4779 -0.2177  0.0200
  999MOL0     O34761   9.269   8.451   5.241  0.5487 -0.3245  0.3494
  999MOL0     C34762   9.192   8.431   5.131  0.2602 -0.3065  0.6210
  999MOL0     C34763   9.132   8.545   5.068 -0.4737  0.2973 -0.0559
  999MOL0     C34764   9.063   8.533   4.940 -0.9708  0.2200 -0.0514
  999MOL0     C34765   9.059   8.405   4.871  1.4450 -0.0312 -0.6095
  999MOL0     O34766   8.995   8.409   4.752 -0.4681 -0.3387  0.1660
  999MOL0     C34767   9.075   8.361   4.647 -0.2440  0.0789 -0.3059
  999MOL0     C34768   8.983   8.363   4.527  0.7172  0.4805  0.9851
  999MOL0     C34769   8.865   8.257   4.540 -0.3849  0.1659 -0.5202
  999MOL0     C34770   8.823   8.225   4.393  0.2143  0.0966  0.5026
  999MOL0     C34771   8.713   8.328   4.350  0.2308 -0.0863  0.1129
  999MOL0     C34772   8.645   8.277   4.214  0.3895  0.4980  0.2334
  999MOL0     C34773   8.562   8.151   4.228  0.0097  0.1503  0.5696
  999MOL0     C34774   8.488   8.130   4.092 -0.7142 -0.1207 -0.8731
  999MOL0    Cl34775   8.602   8.076   3.954 -0.2590  0.3071 -0.3498
  999MOL0     C34776   9.107   8.290   4.939  0.1952 -0.5961  0.6337
  999MOL0     C34777   9.171   8.301   5.066  0.2952  1.1407  0.3852
  999MOL0     O34778   9.443   8.339   5.151 -0.7542  0.3526 -0.2156
  999MOL0     C34779   9.477   8.507   5.449  0.2675  0.8412  0.6364
  999MOL0     C34780   9.533   8.513   5.580  0.0059 -0.0141 -1.1144
  999MOL0     N34781  10.171   8.212   5.826  0.5279 -0.9881 -0.5097
  999MOL0     N34782  10.265   8.128   5.837 -0.0053  0.4383 -0.9213
  999MOL0     C34783  10.976   7.273   6.414  0.4752 -0.3374  0.7165
  999MOL0     C34784  11.077   7.206   6.350 -0.2435  0.1423  0.9068
  999MOL0     C34785  11.304   6.895   6.114 -0.3970 -0.2676  0.5932
  999MOL0     C34786  11.366   6.971   6.011 -0.2763 -0.0038  0.0994
  999MOL0     C34787  11.477   6.910   5.949 -0.1133 -0.0637 -0.1699
  999MOL0     C34788  11.525   6.786   5.970  0.6525  0.2104 -0.5466
  999MOL0     O34789  11.642   6.727   5.921 -0.2063 -0.8394  0.3220
  999MOL0     C34790  11.734   6.813   5.851 -0.3118  0.4913  0.3177
  999MOL0     C34791  11.704   6.850   5.700  0.2998 -0.0106 -1.0275
  999MOL0     C34792  11.653   6.727   5.626 -0.3013 -0.2704 -0.1158
  999MOL0     C34793  11.632   6.733   5.475 -0.2729 -0.2973  0.1948
  999MOL0     C34794  11.747   6.768   5.398 -0.2404  0.1816 -0.2645
  999MOL0     C34795  11.838   6.818   5.336  0.3216 -0.6215 -0.3937
  999MOL0     C34796  11.456   6.711   6.065 -0.1285 -0.0099 -0.7403
  999MOL0     C34797  11.348   6.763   6.139 -0.7802 -0.5635  0.4779
  999MOL0     H34798  10.909   7.119   6.072  3.7736 -1.5929  0.1828
  999MOL0     H34799  10.736   7.216   6.185 -0.2284 -3.5489 -0.6334
  999MOL0     H34800  10.612   7.412   6.274  1.2362  3.6475  0.8308
  999MOL0     H34801  10.578   7.292   6.400 -4.6831  2.1400 -0.5243
  999MOL0     H34802  10.506   7.458   6.548  0.4700 -0.5814  0.4904
  999MOL0     H34803  10.638   7.574   6.486  1.9052 -1.2824  2.2574
  999MOL0     H34804  10.368   7.512   6.355  0.9074 -0.4768 -0.8030
  999MOL0     H34805  10.394   7.642   6.453 -2.8870  0.8213 -3.1886
  999MOL0     H34806  10.600   7.698   6.301 -1.0521  2.2801  0.1773
  999MOL0     H34807  10.519   7.588   6.188 -1.6447  1.5823 -2.2603
  999MOL0     H34808  10.330   7.701   6.175 -0.9808  0.3005  0.4038
  999MOL0     H34809  10.370   7.812   6.313 -1.5869  1.6147 -2.3200
  999MOL0     H34810  10.545   7.919   6.197  2.0580  1.7273 -4.0677
  999MOL0     H34811  10.516   7.825   6.050 -0.3381  3.4622 -2.6882
  999MOL0     H34812  10.279   7.892   6.063  0.2866 -3.4364  3.3096
  999MOL0     H34813  10.312   7.993   6.205  0.0632  0.0440 -1.8689
  999MOL0     H34814  10.474   8.029   5.946  1.4911 -0.8829  2.2972
  999MOL0     H34815  10.452   8.133   6.095 -2.6673  0.2885  1.7448
  999MOL0     H34816  10.249   8.237   6.144 -0.3082 -0.9089  0.1834
  999MOL0     H34817   9.984   8.344   6.077 -1.2217  1.3794 -0.3045
  999MOL0     H34818  10.098   8.466   6.019  0.8361 -0.2172 -1.0492
  999MOL0     H34819   9.912   8.303   5.829 -0.9521 -0.1303 -1.9589
  999MOL0     H34820   9.983   8.457   5.794  0.0027  1.1721  1.4494
  999MOL0     H34821   9.827   8.561   5.976 -1.4922 -1.0552  1.8040
  999MOL0     H34822   9.773   8.399   5.994 -1.0521  1.2449  0.1206
  999MOL0     H34823   9.749   8.559   5.735  2.3928 -2.1772 -0.2623
  999MOL0     H34824   9.623   8.547   5.857  1.5084  1.1156  1.6379
  999MOL0     H34825   9.643   8.186   5.571 -1.0321 -0.0592  0.1587
  999MOL0     H34826   9.426   8.099   5.380  0.9239  1.5226  3.4252
  999MOL0     H34827   9.501   8.148   5.236  0.3524  0.3932 -0.1854
  999MOL0     H34828   9.607   8.074   5.361  0.8142  2.6507  3.8888
  999MOL0     H34829   9.146   8.640   5.119 -0.6100  0.9583 -1.2063
  999MOL0     H34830   9.014   8.618   4.894 -0.2153  0.7699  0.1376
  999MOL0     H34831   9.157   8.431   4.629  0.3523 -0.5913 -0.2098
  999MOL0     H34832   9.105   8.258   4.667  0.9845 -0.4271 -3.9273
  999MOL0     H34833   8.934   8.460   4.514  3.7579  1.9657 -0.1699
  999MOL0     H34834   9.036   8.347   4.433 -2.0351  1.8534 -0.9568
  999MOL0     H34835   8.776   8.293   4.593 -0.0872  0.9086 -0.5210
  999MOL0     H34836   8.893   8.163   4.587  1.3184  0.9635  0.1265
  999MOL0     H34837   8.906   8.234   4.323 -1.3644 -1.0819 -1.6549
  999MOL0     H34838   8.795   8.120   4.385  3.0461 -0.6470 -0.9759
  999MOL0     H34839   8.749   8.431   4.342  3.4363 -1.1765 -1.3612
  999MOL0     H34840   8.634   8.331   4.425 -1.4320  0.6359 -1.5604
  999MOL0     H34841   8.593   8.364   4.176  0.1434  0.5578  0.6957
  999MOL0     H34842   8.719   8.257   4.136 -0.1662  2.0138 -0.7172
  999MOL0     H34843   8.494   8.164   4.312 -1.2565 -1.1666 -0.2040
  999MOL0     H34844   8.618   8.061   4.255 -0.2886  0.3172  1.7683
  999MOL0     H34845   8.443   8.226   4.062  1.8537  0.9276 -1.6783
  999MOL0     H34846   8.418   8.047   4.104 -0.4751 -0.0876  1.1691
  999MOL0     H34847   9.078   8.197   4.892 -2.5572  1.5156 -2.3407
  999MOL0     H34848   9.202   8.213   5.122 -2.0905 -1.0225 -1.4450
  999MOL0     H34849   9.441   8.604   5.415  2.6956  1.7127  0.3543
  999MOL0     H34850   9.529   8.601   5.643 -2.3355 -0.5511 -0.4392
  999MOL0     H34851  10.997   7.316   6.511  0.5114  1.3634 -0.0046
  999MOL0     H34852  11.170   7.190   6.404  0.1057  2.4401  1.0832
  999MOL0     H34853  11.334   7.073   5.992  3.9180  1.6731  0.9516
  999MOL0     H34854  11.529   6.970   5.875  1.1001 -1.6551 -0.6640
  999MOL0     H34855  11.747   6.902   5.912 -4.5532  0.4625  1.6374
  999MOL0     H34856  11.825   6.755   5.870 -1.8606 -2.2000  0.1180
  999MOL0     H34857  11.795   6.884   5.650 -1.3285  1.4337 -3.1767
  999MOL0     H34858  11.624   6.924   5.710  0.9973  0.5728  0.5172
  999MOL0     H34859  11.554   6.698   5.663 -0.3776 -0.5854 -0.5649
  999MOL0     H34860  11.723   6.645   5.640  0.9808  0.9436  0.8432
  999MOL0     H34861  11.552   6.800   5.441  0.5275  0.1558 -0.8456
  999MOL0     H34862  11.604   6.631   5.445  0.8892  0.1010 -2.6234
  999MOL0     H34863  11.910   6.863   5.270  1.8699 -2.3638  0.0413
  999MOL0     H34864  11.468   6.603   6.074  2.7623  0.4151  2.7814
  999MOL0     H34865  11.283   6.699   6.198 -0.8670 -1.3855 -0.4750
 1000MOL0     O34866   5.183   1.211   2.509 -1.0515  0.1482 -0.2933
 1000MOL0     C34867   5.212   1.087   2.519  0.2768  0.0755 -0.2342
 1000MOL0     O34868   5.269   1.014   2.422 -0.5852 -0.0643  0.6084
 1000MOL0     C34869   5.295   1.071   2.301 -0.1718 -0.2784 -0.0879
 1000MOL0     C34870   5.239   1.014   2.184 -0.1626  0.3455  0.1146
 1000MOL0     C34871   5.266   1.063   2.056  0.0565 -0.0905 -0.0109
 1000MOL0     C34872   5.341   1.178   2.041 -0.7175 -1.0517  0.5613
 1000MOL0     O34873   5.367   1.235   1.921 -0.3431  1.0047 -0.3072
 1000MOL0     C34874   5.288   1.216   1.801  0.4328  0.9978 -0.0833
 1000MOL0     C34875   5.387   1.175   1.697  0.4643 -0.3224 -0.0025
 1000MOL0     C34876   5.312   1.145   1.561  0.2965  0.1845 -0.1994
 1000MOL0     C34877   5.277   1.273   1.494 -0.0508 -1.8026  0.2556
 1000MOL0     C34878   5.189   1.251   1.369  0.4813 -0.7436  0.5831
 1000MOL0     C34879   5.262   1.203   1.242 -0.0478  0.6974  0.2731
 1000MOL0     C34880   5.173   1.220   1.117 -0.0577  0.6098  0.1319
 1000MOL0     C34881   5.162   1.360   1.067 -0.2822 -0.1525 -1.0498
 1000MOL0     N34882   5.138   1.356   0.926  0.5748 -0.0900 -0.3227
 1000MOL0     C34883   5.019   1.388   0.868  0.7219  0.0896  0.8131
 1000MOL0     C34884   5.042   1.391   0.734 -0.0974 -0.6926 -0.1586
 1000MOL0     C34885   4.957   1.408   0.614  0.1892  0.5935  0.3875
 1000MOL0     C34886   4.845   1.514   0.641  0.0454  0.2283 -0.3811
 1000MOL0     C34887   4.809   1.543   0.492  0.3928 -0.3915  0.0350
 1000MOL0     C34888   4.678   1.617   0.478 -0.0094 -0.1951  0.6089
 1000MOL0     O34889   4.556   1.537   0.495 -0.6464 -0.1368  0.1513
 1000MOL0     C34890   4.437   1.602   0.511  0.1907  0.1097  0.1111
 1000MOL0     C34891   4.415   1.734   0.484 -0.0430 -0.3999 -0.4003
 1000MOL0     C34892   4.288   1.792   0.521 -0.3092  0.1030  0.9538
 1000MOL0     C34893   4.271   1.939   0.491  0.4459 -0.8950 -0.0040
 1000MOL0     C34894   4.181   1.712   0.560  0.4114 -0.1840  0.2981
 1000MOL0     C34895   4.047   1.771   0.581  1.2290  0.7684  0.6838
 1000MOL0     O34896   3.985   1.725   0.682 -0.0489  0.3250 -0.5174
 1000MOL0     C34897   3.877   1.783   0.754  0.6343 -0.2789  0.1419
 1000MOL0     C34898   3.843   1.719   0.873 -0.0379 -0.0248 -0.0380
 1000MOL0     C34899   3.739   1.768   0.959  0.3424 -0.8432  0.5302
 1000MOL0     C34900   3.664   1.883   0.922 -0.1533 -0.9038  0.4274
 1000MOL0     O34901   3.557   1.922   0.999 -0.2747 -0.2456 -0.1238
 1000MOL0     C34902   3.578   2.031   1.093  0.6870 -0.0736  1.6946
 1000MOL0     C34903   3.444   2.100   1.104  0.1217  0.2712 -0.3511
 1000MOL0     C34904   3.443   2.220   1.197  0.6509 -0.7200  0.8711
 1000MOL0     C34905   3.312   2.308   1.175 -0.0186 -0.8434 -1.0063
 1000MOL0     C34906   3.337   2.454   1.243  0.4884  0.8829 -0.1536
 1000MOL0     C34907   3.219   2.538   1.282  0.1962 -0.2979 -0.0614
 1000MOL0     C34908   3.254   2.679   1.314 -0.1598 -0.9912 -0.2221
 1000MOL0     C34909   3.130   2.761   1.341  0.3292 -0.0707 -0.0235
 1000MOL0    Cl34910   3.041   2.716   1.487 -0.2844  0.3785  0.5084
 1000MOL0     C34911   3.708   1.955   0.807  0.1263  0.0109 -0.3949
 1000MOL0     C34912   3.812   1.906   0.730  0.5760 -0.0864 -0.3423
 1000MOL0     O34913   4.004   1.836   0.492  0.9040 -0.7222 -0.3179
 1000MOL0     C34914   4.201   1.575   0.579  0.2756 -0.0112  0.3991
 1000MOL0     C34915   4.332   1.522   0.558  0.1486 -0.1916  0.5226
 1000MOL0     N34916   5.180   1.362   0.718  0.4474 -0.0759  0.2856
 1000MOL0     N34917   5.232   1.340   0.829  0.4777 -0.3264 -0.4936
 1000MOL0     C34918   5.397   1.241   2.154  0.5572 -0.0904  0.5429
 1000MOL0     C34919   5.373   1.185   2.282  0.0956 -0.7800  0.4093
 1000MOL0     C34920   5.176   1.012   2.645 -0.0834 -0.7775 -0.0699
 1000MOL0     C34921   5.086   1.067   2.748 -0.5529 -0.1780  0.0264
 1000MOL0     C34922   5.048   0.991   2.866 -0.8053 -0.3073  0.3477
 1000MOL0     C34923   5.092   0.859   2.884 -0.0409  0.2020  0.7213
 1000MOL0     O34924   5.063   0.780   2.996  0.5725 -0.1634  0.0096
 1000MOL0     C34925   4.996   0.836   3.116  0.0072  0.5954 -0.3766
 1000MOL0     C34926   4.838   0.830   3.108  0.1588 -0.0520 -0.5964
 1000MOL0     C34927   4.765   0.880   3.230  0.5323 -0.0345 -0.2140
 1000MOL0     C34928   4.731   1.034   3.215  0.2327 -0.5060 -0.8563
 1000MOL0     C34929   4.653   1.083   3.332 -0.3803 -0.7590 -1.0565
 1000MOL0     C34930   4.580   1.142   3.418 -0.2999 -0.5321  0.2425
 1000MOL0     C34931   5.174   0.815   2.779 -0.1142 -0.2341 -0.4546
 1000MOL0     C34932   5.218   0.884   2.661 -0.6714 -0.5241 -0.4223
 1000MOL0     H34933   5.184   0.921   2.194  1.2717 -0.4046  1.4710
 1000MOL0     H34934   5.219   1.007   1.975 -2.2280  0.3288  0.9386
 1000MOL0     H34935   5.217   1.137   1.828  1.9437 -1.1052 -1.8801
 1000MOL0     H34936   5.231   1.306   1.777 -0.0548  1.2943  1.9455
 1000MOL0     H34937   5.469   1.245   1.680  0.9926 -0.5204  1.5507
 1000MOL0     H34938   5.424   1.078   1.732  0.1147 -1.3280 -2.2073
 1000MOL0     H34939   5.371   1.087   1.489  2.6821  2.2534 -0.0517
 1000MOL0     H34940   5.224   1.083   1.579  0.0285  0.6541  0.0894
 1000MOL0     H34941   5.223   1.328   1.571  0.7145  1.7195 -1.5357
 1000MOL0     H34942   5.368   1.327   1.467 -0.0426 -0.6957  2.3544
 1000MOL0     H34943   5.111   1.184   1.405 -0.3129 -1.3930 -2.1476
 1000MOL0     H34944   5.145   1.349   1.349  3.8298  0.5889 -1.0328
 1000MOL0     H34945   5.353   1.263   1.230 -0.6438  1.6307  0.3650
 1000MOL0     H34946   5.303   1.103   1.259 -0.0123  0.9426  1.7872
 1000MOL0     H34947   5.210   1.157   1.035 -0.5814  0.2658  0.1577
 1000MOL0     H34948   5.079   1.180   1.155  1.4954 -1.7619  1.8263
 1000MOL0     H34949   5.252   1.422   1.067 -0.3936  0.0258 -2.2322
 1000MOL0     H34950   5.075   1.408   1.115 -1.8184  0.3737 -4.0820
 1000MOL0     H34951   4.927   1.413   0.921 -1.4602  4.6029 -4.1370
 1000MOL0     H34952   5.026   1.444   0.537  1.7476 -0.4999  1.2100
 1000MOL0     H34953   4.907   1.314   0.591  0.3645  0.7141 -0.5297
 1000MOL0     H34954   4.892   1.602   0.687 -1.6302  0.8694  0.1523
 1000MOL0     H34955   4.763   1.477   0.703  0.3483 -0.5223 -0.4146
 1000MOL0     H34956   4.809   1.446   0.440  1.2006 -0.4975  0.2301
 1000MOL0     H34957   4.884   1.614   0.456 -0.1561  1.6969  2.7257
 1000MOL0     H34958   4.669   1.666   0.380 -1.8360 -0.8139  0.4342
 1000MOL0     H34959   4.690   1.687   0.561 -0.2837  0.9431 -0.2753
 1000MOL0     H34960   4.489   1.800   0.438  1.6437 -1.1493  1.1304
 1000MOL0     H34961   4.228   1.983   0.582  0.7141 -1.1399  0.2445
 1000MOL0     H34962   4.363   1.997   0.477  2.7344 -4.0884  0.6535
 1000MOL0     H34963   4.208   1.951   0.403 -0.9467 -2.5399  0.7015
 1000MOL0     H34964   3.888   1.624   0.899 -0.4559  0.0786  1.1008
 1000MOL0     H34965   3.719   1.722   1.056  0.6286 -0.5965  0.7109
 1000MOL0     H34966   3.600   1.984   1.190  0.1519 -1.8777  0.9835
 1000MOL0     H34967   3.656   2.099   1.059  1.7133 -1.9629  0.0972
 1000MOL0     H34968   3.402   2.135   1.009 -0.7149  1.0575  0.2830
 1000MOL0     H34969   3.378   2.025   1.147  1.9495 -1.6056 -0.6961
 1000MOL0     H34970   3.532   2.282   1.181  0.0072  0.0041 -0.0492
 1000MOL0     H34971   3.456   2.189   1.301 -2.1005  0.8412  1.7839
 1000MOL0     H34972   3.284   2.315   1.069  0.6167 -3.0707 -1.3680
 1000MOL0     H34973   3.225   2.270   1.229  0.2634  0.2644  0.2829
 1000MOL0     H34974   3.400   2.510   1.173  1.0870  1.0390  0.4956
 1000MOL0     H34975   3.404   2.440   1.328  0.5966 -1.0328 -0.5045
 1000MOL0     H34976   3.147   2.531   1.200  1.7244 -0.6868 -1.4131
 1000MOL0     H34977   3.159   2.509   1.369 -1.0874 -0.1236 -0.8616
 1000MOL0     H34978   3.313   2.734   1.239 -3.2828 -0.1229 -2.2521
 1000MOL0     H34979   3.321   2.677   1.400  0.2992 -1.5986 -0.5866
 1000MOL0     H34980   3.061   2.760   1.257 -0.9011 -1.6633  0.9649
 1000MOL0     H34981   3.159   2.862   1.373 -0.5644 -0.4325  2.0742
 1000MOL0     H34982   3.654   2.042   0.771  0.6655  0.0345 -1.1755
 1000MOL0     H34983   3.832   1.961   0.638 -1.6811  0.6219 -0.4775
 1000MOL0     H34984   4.117   1.513   0.608  0.1457 -0.8723 -1.6790
 1000MOL0     H34985   4.357   1.421   0.588 -0.2989 -1.6989 -3.5368
 1000MOL0     H34986   5.464   1.324   2.133 -2.3080  1.3757 -4.4459
 1000MOL0     H34987   5.418   1.228   2.371 -0.3905 -1.7738  1.1637
 1000MOL0     H34988   5.039   1.164   2.731 -1.0040 -0.1308  1.4616
 1000MOL0     H34989   4.992   1.050   2.938  3.5489  2.1457  2.1389
 1000MOL0     H34990   5.028   0.783   3.207  1.6974 -0.6636 -1.6356
 1000MOL0     H34991   5.028   0.939   3.132 -2.7867  1.4866  0.0404
 1000MOL0     H34992   4.810   0.725   3.113 -3.3506  0.8411  1.6536
 1000MOL0     H34993   4.790   0.882   3.025  1.1121  2.7539  0.4795
 1000MOL0     H34994   4.825   0.868   3.321  0.5755  0.4483 -0.1716
 1000MOL0     H34995   4.669   0.828   3.235  0.6380 -0.1147  1.8590
 1000MOL0     H34996   4.667   1.063   3.131  0.8305  0.1319 -1.1037
 1000MOL0     H34997   4.828   1.086   3.214 -0.0576  0.0550 -2.0886
 1000MOL0     H34998   4.518   1.202   3.482  1.5327  1.7213  0.0526
 1000MOL0     H34999   5.201   0.711   2.797  1.9733  0.4641  0.7640
 1000MOL0     H35000   5.275   0.826   2.589 -0.6292 -1.6292  0.4697
 1001MOL0     O35001   9.932   0.316   0.999  0.0379 -0.4523 -0.5711
 1001MOL0     C35002   9.899   0.348   0.885  0.3163 -0.4684  0.0496
 1001MOL0     O35003   9.776   0.349   0.841 -0.3818 -0.3222 -0.0472
 1001MOL0     C35004   9.676   0.364   0.939 -0.0615  0.6914  0.1730
 1001MOL0     C35005   9.683   0.468   1.039 -0.9357  0.9801  0.3579
 1001MOL0     C35006   9.580   0.489   1.129 -0.1345  0.9553  0.0031
 1001MOL0     C35007   9.467   0.395   1.131  0.7666 -1.0567 -0.0541
 1001MOL0     O35008   9.357   0.404   1.209  0.5803  0.4007 -0.4178
 1001MOL0     C35009   9.343   0.514   1.292 -0.8215 -0.0826 -0.5512
 1001MOL0     C35010   9.227   0.518   1.381 -0.2182 -0.0381 -0.1082
 1001MOL0     C35011   9.095   0.500   1.300  0.2489  0.5230  0.4782
 1001MOL0     C35012   9.026   0.639   1.289  0.1895  0.5722  0.5652
 1001MOL0     C35013   8.900   0.650   1.199  0.7490  0.2803 -0.5541
 1001MOL0     C35014   8.808   0.529   1.229 -0.5226  0.0916  0.3571
 1001MOL0     C35015   8.693   0.549   1.139  0.2706 -0.0098  0.1074
 1001MOL0     C35016   8.578   0.448   1.140  0.2973 -0.6820  0.7779
 1001MOL0     N35017   8.442   0.510   1.139 -0.3396  0.1911  0.6624
 1001MOL0     C35018   8.344   0.460   1.216  1.0380 -0.6492  0.0469
 1001MOL0     C35019   8.225   0.479   1.144  0.1323 -0.2576 -0.0831
 1001MOL0     C35020   8.095   0.436   1.197 -0.4064  0.2963  1.2149
 1001MOL0     C35021   8.014   0.556   1.245 -0.3648 -0.2404 -0.1292
 1001MOL0     C35022   7.905   0.512   1.346  0.1532 -0.2914  1.1959
 1001MOL0     C35023   7.799   0.616   1.379  0.0603  0.5756 -0.4224
 1001MOL0     O35024   7.730   0.560   1.498  0.3854 -0.0743  0.7233
 1001MOL0     C35025   7.610   0.489   1.480 -0.0733 -0.4073  0.2924
 1001MOL0     C35026   7.579   0.398   1.378 -0.2746 -0.6675 -0.0949
 1001MOL0     C35027   7.469   0.306   1.390  0.2533  0.3608  0.0550
 1001MOL0     C35028   7.483   0.200   1.286  0.6490  0.0755 -0.0473
 1001MOL0     C35029   7.384   0.317   1.503  0.8281 -0.7276  0.1084
 1001MOL0     C35030   7.273   0.240   1.525  0.8011  1.0208  0.5103
 1001MOL0     O35031   7.243   0.189   1.650 -0.1556 -0.3459  0.5056
 1001MOL0     C35032   7.116   0.128   1.671 -0.1054 -0.5558 -0.1173
 1001MOL0     C35033   7.030   0.187   1.769  0.6644 -0.7604  0.4848
 1001MOL0     C35034   6.899   0.142   1.791 -0.7507  0.0406  0.2971
 1001MOL0     C35035   6.856   0.022   1.716 -0.6083 -0.1016 -0.0405
 1001MOL0     O35036   6.734  -0.039   1.714 -0.2705 -0.2118 -0.4565
 1001MOL0     C35037   6.625   0.024   1.787  0.3504 -0.8616 -0.0466
 1001MOL0     C35038   6.497  -0.062   1.803 -0.2280  0.0638 -0.0131
 1001MOL0     C35039   6.492  -0.168   1.901  0.2388 -0.0045 -0.7806
 1001MOL0     C35040   6.346  -0.215   1.905 -0.6177 -1.2290 -0.0674
 1001MOL0     C35041   6.246  -0.146   1.997  0.5773  0.4638 -0.4536
 1001MOL0     C35042   6.104  -0.206   1.972  0.1417  0.0821  0.5800
 1001MOL0     C35043   6.001  -0.158   2.072 -0.1861 -0.0980 -0.2235
 1001MOL0     C35044   5.869  -0.227   2.077  0.3127 -0.0197  1.2150
 1001MOL0    Cl35045   5.814  -0.230   1.905 -0.3368 -0.1452  0.2602
 1001MOL0     C35046   6.948  -0.038   1.628 -0.1689 -0.2732 -0.8299
 1001MOL0     C35047   7.065   0.022   1.601 -0.0874 -0.3592  0.7285
 1001MOL0     O35048   7.209   0.215   1.425  0.4440 -0.1625 -0.2628
 1001MOL0     C35049   7.425   0.415   1.607  0.0709  0.7690  0.8183
 1001MOL0     C35050   7.532   0.500   1.593 -0.1670 -0.2302 -0.8345
 1001MOL0     N35051   8.258   0.545   1.024 -0.6836  0.0646  0.5854
 1001MOL0     N35052   8.382   0.568   1.022  0.6326 -0.3380  0.5018
 1001MOL0     C35053   9.461   0.301   1.028 -0.8980 -0.6289 -0.8487
 1001MOL0     C35054   9.570   0.276   0.944 -0.0152  0.3014 -0.3629
 1001MOL0     C35055  10.006   0.359   0.789 -0.0097  0.2663 -0.3285
 1001MOL0     C35056   9.980   0.359   0.650  0.4019 -0.2261  0.3674
 1001MOL0     C35057  10.087   0.363   0.565 -0.4901 -0.6907  0.2949
 1001MOL0     C35058  10.219   0.384   0.611 -0.4310 -0.2203 -0.0365
 1001MOL0     O35059  10.336   0.394   0.536  0.2967  0.5003 -0.2547
 1001MOL0     C35060  10.337   0.403   0.388  0.3354  0.2592 -0.3811
 1001MOL0     C35061  10.366   0.545   0.345  0.8086  0.6533  0.1253
 1001MOL0     C35062  10.347   0.566   0.191  0.1534  0.3886 -0.9556
 1001MOL0     C35063  10.201   0.563   0.137  0.1287  0.3135 -0.2687
 1001MOL0     C35064  10.135   0.695   0.141  0.2856 -0.3532  0.0663
 1001MOL0     C35065  10.077   0.806   0.136  0.5750  0.5022 -0.6020
 1001MOL0     C35066  10.239   0.382   0.744 -0.2280 -0.8194 -0.1636
 1001MOL0     C35067  10.136   0.372   0.832  0.5356 -0.2020  0.3407
 1001MOL0     H35068   9.775   0.526   1.039  1.6257 -2.7150  0.0559
 1001MOL0     H35069   9.576   0.573   1.197 -1.0400 -1.0924  2.7047
 1001MOL0     H35070   9.424   0.543   1.360 -1.9254  0.3715  0.6012
 1001MOL0     H35071   9.330   0.599   1.225 -2.2531 -0.7945 -1.2116
 1001MOL0     H35072   9.236   0.427   1.441  0.0127 -0.4388 -0.7289
 1001MOL0     H35073   9.234   0.609   1.440 -4.4407  1.4914 -1.5515
 1001MOL0     H35074   9.122   0.471   1.198 -1.5895  0.0560  0.0938
 1001MOL0     H35075   9.023   0.432   1.345 -0.5444  0.3818 -0.9456
 1001MOL0     H35076   8.993   0.677   1.386 -3.0306  1.9321 -0.9099
 1001MOL0     H35077   9.101   0.703   1.242  0.0717 -1.5618 -2.8849
 1001MOL0     H35078   8.842   0.743   1.209 -1.0674 -0.3415 -3.9209
 1001MOL0     H35079   8.937   0.658   1.097  2.6972 -0.8436  0.0197
 1001MOL0     H35080   8.862   0.439   1.198 -0.4353 -0.0207  0.8356
 1001MOL0     H35081   8.762   0.530   1.327 -0.6660 -2.0021  0.3522
 1001MOL0     H35082   8.648   0.646   1.164 -0.3121  0.2141 -1.6579
 1001MOL0     H35083   8.727   0.568   1.037 -1.6497 -0.0520 -0.5817
 1001MOL0     H35084   8.584   0.396   1.236  1.2976  1.0410  1.7051
 1001MOL0     H35085   8.593   0.382   1.055  0.0035 -0.8824  0.8814
 1001MOL0     H35086   8.364   0.417   1.314  0.7978  0.1404  0.4491
 1001MOL0     H35087   8.048   0.387   1.111 -0.5978  0.2763  1.3298
 1001MOL0     H35088   8.104   0.355   1.270  2.9195  0.4477  1.1285
 1001MOL0     H35089   7.968   0.597   1.155  3.0453  0.3923 -1.7699
 1001MOL0     H35090   8.079   0.630   1.293  1.7873 -1.6764 -0.6801
 1001MOL0     H35091   7.957   0.478   1.436  0.4723 -1.8601  0.4556
 1001MOL0     H35092   7.843   0.433   1.304 -2.1571  2.1855 -0.3414
 1001MOL0     H35093   7.723   0.632   1.302 -1.9364 -0.3343  1.2557
 1001MOL0     H35094   7.845   0.712   1.406 -0.5069  1.2909 -1.9185
 1001MOL0     H35095   7.648   0.380   1.297  0.1517  0.4252  0.0063
 1001MOL0     H35096   7.459   0.229   1.184 -1.1675 -1.0018  0.0470
 1001MOL0     H35097   7.586   0.163   1.287  0.8929  0.7379  0.3646
 1001MOL0     H35098   7.421   0.113   1.309  1.4510 -0.0692  1.7248
 1001MOL0     H35099   7.075   0.266   1.829  1.6270 -1.0063  0.0944
 1001MOL0     H35100   6.849   0.189   1.875  0.5617 -1.2669  1.8769
 1001MOL0     H35101   6.648   0.055   1.890 -1.0718  0.5477 -0.1115
 1001MOL0     H35102   6.596   0.119   1.741  3.0189  0.9390  1.6443
 1001MOL0     H35103   6.418   0.010   1.826 -1.3233 -0.4834 -1.8477
 1001MOL0     H35104   6.477  -0.108   1.705  1.2899 -0.3869 -0.1364
 1001MOL0     H35105   6.534  -0.129   1.994 -0.8968  0.7445 -0.5770
 1001MOL0     H35106   6.557  -0.251   1.871 -0.3482 -1.3897  1.5430
 1001MOL0     H35107   6.301  -0.211   1.806 -3.3429  0.4175  1.1171
 1001MOL0     H35108   6.334  -0.318   1.938 -0.7941 -0.6963  1.6437
 1001MOL0     H35109   6.233  -0.038   1.982  1.0522  0.7870  1.3232
 1001MOL0     H35110   6.276  -0.162   2.100 -2.6485 -1.7385  0.2981
 1001MOL0     H35111   6.080  -0.173   1.871 -0.8225  3.1480  1.7011
 1001MOL0     H35112   6.100  -0.315   1.977 -1.1134  0.0521 -0.4522
 1001MOL0     H35113   5.983  -0.050   2.061 -0.0363 -0.0636 -0.1208
 1001MOL0     H35114   6.041  -0.184   2.170 -0.2895 -2.7301 -0.8181
 1001MOL0     H35115   5.796  -0.182   2.144 -1.4019 -2.5813  1.1981
 1001MOL0     H35116   5.869  -0.331   2.111  2.8797 -1.0227 -1.3577
 1001MOL0     H35117   6.913  -0.120   1.567  0.5387 -0.1778 -1.3784
 1001MOL0     H35118   7.136  -0.020   1.531 -0.6974 -1.9671  1.0204
 1001MOL0     H35119   7.363   0.416   1.696 -2.8994 -0.5647 -1.0727
 1001MOL0     H35120   7.562   0.553   1.683 -0.8286 -0.1079 -0.6818
 1001MOL0     H35121   9.375   0.240   1.003 -1.9848  1.5018 -2.6788
 1001MOL0     H35122   9.563   0.197   0.870 -0.3643  0.1221 -0.1401
 1001MOL0     H35123   9.879   0.363   0.610 -0.3456 -0.5675  2.1595
 1001MOL0     H35124  10.073   0.359   0.458  3.3795  0.0911 -0.3940
 1001MOL0     H35125  10.415   0.335   0.353  0.1544 -0.3663  0.3986
 1001MOL0     H35126  10.246   0.370   0.336  1.2963 -1.5256 -1.0420
 1001MOL0     H35127  10.472   0.561   0.365  1.0865  0.4702 -1.0801
 1001MOL0     H35128  10.314   0.623   0.402  1.7053  0.4352  1.2741
 1001MOL0     H35129  10.402   0.481   0.149 -1.2366 -0.0724 -1.8911
 1001MOL0     H35130  10.397   0.660   0.166 -1.4430  1.5230 -0.0530
 1001MOL0     H35131  10.144   0.489   0.194 -0.0936 -0.3748 -1.3522
 1001MOL0     H35132  10.195   0.529   0.033  2.4059  1.6049 -0.8839
 1001MOL0     H35133  10.024   0.900   0.136 -0.0122  0.1746 -1.0862
 1001MOL0     H35134  10.341   0.399   0.777  0.1068 -0.4028 -1.3627
 1001MOL0     H35135  10.156   0.383   0.938  1.7483 -0.1778  0.1267
 1002MOL0     O35136   8.153  10.640   1.711 -0.9566 -1.0960  0.1443
 1002MOL0     C35137   8.210  10.658   1.815  0.1584  0.2204 -0.2479
 1002MOL0     O35138   8.343  10.694   1.838  0.6570  0.0792 -0.3133
 1002MOL0     C35139   8.426  10.700   1.731  0.0701 -0.1036 -0.3356
 1002MOL0     C35140   8.468  10.591   1.656  0.4572 -0.2147 -0.5036
 1002MOL0     C35141   8.576  10.593   1.574  0.4754  0.6320 -0.5835
 1002MOL0     C35142   8.654  10.717   1.563 -0.0564  0.5157  0.1348
 1002MOL0     O35143   8.763  10.731   1.474  0.3156  0.5205 -0.1503
 1002MOL0     C35144   8.866  10.637   1.471 -0.4348  0.0593  0.0463
 1002MOL0     C35145   8.964  10.673   1.359 -0.1778 -0.1941 -0.1431
 1002MOL0     C35146   8.910  10.760   1.241 -0.5346  0.1787 -0.7308
 1002MOL0     C35147   8.990  10.749   1.111 -0.1951 -0.6104 -0.3654
 1002MOL0     C35148   8.938  10.830   0.990 -0.3659  0.1767 -0.4976
 1002MOL0     C35149   9.025  10.815   0.862 -0.6813  0.5715  0.2257
 1002MOL0     C35150   8.986  10.931   0.768  0.6774  0.6878  0.1681
 1002MOL0     C35151   8.835  10.912   0.713  0.1616 -0.5927  0.1077
 1002MOL0     N35152   8.768  11.041   0.660  0.2312  0.4002  0.2920
 1002MOL0     C35153   8.639  11.091   0.674 -0.2915  0.1564 -0.2092
 1002MOL0     C35154   8.653  11.205   0.607 -0.3926 -0.3000  1.7584
 1002MOL0     C35155   8.546  11.312   0.588 -0.2512  0.5853  0.2180
 1002MOL0     C35156   8.481  11.335   0.448  0.7253 -0.1545  0.6799
 1002MOL0     C35157   8.416  11.203   0.394 -0.3808 -0.0419  0.6687
 1002MOL0     C35158   8.362  11.221   0.258 -1.1808 -0.4110 -0.2975
 1002MOL0     O35159   8.292  11.343   0.237  0.5145 -0.0681  0.5170
 1002MOL0     C35160   8.156  11.346   0.240 -0.5693 -0.0891 -0.7154
 1002MOL0     C35161   8.089  11.455   0.174 -0.6118  0.5038  0.8763
 1002MOL0     C35162   7.952  11.473   0.170  0.3413  0.1439  1.1499
 1002MOL0     C35163   7.889  11.591   0.099 -0.0358 -0.0245 -0.2215
 1002MOL0     C35164   7.879  11.377   0.243  0.1411 -0.2438 -0.9294
 1002MOL0     C35165   7.735  11.383   0.252  0.1026 -0.2075 -0.3026
 1002MOL0     O35166   7.669  11.402   0.133 -0.1709  0.0366 -0.4662
 1002MOL0     C35167   7.543  11.458   0.124  0.5561 -0.8439 -0.0850
 1002MOL0     C35168   7.448  11.398   0.041  0.6244  0.8843  0.0822
 1002MOL0     C35169   7.318  11.440   0.026  0.7893  0.4198 -0.7881
 1002MOL0     C35170   7.269  11.549   0.098 -0.4156  0.4646  0.1016
 1002MOL0     O35171   7.143  11.591   0.095  0.2446 -0.0577 -0.3039
 1002MOL0     C35172   7.058  11.558  -0.011 -0.1662 -0.5104 -0.3461
 1002MOL0     C35173   6.959  11.459   0.041  0.1662 -0.6673  0.3210
 1002MOL0     C35174   6.914  11.503   0.183 -0.0542 -0.1881 -0.3559
 1002MOL0     C35175   6.793  11.422   0.233  0.4711 -0.1152  0.5112
 1002MOL0     C35176   6.724  11.475   0.354  0.7168 -0.7105 -0.1892
 1002MOL0     C35177   6.643  11.369   0.432  0.8849 -0.2097 -0.0453
 1002MOL0     C35178   6.518  11.304   0.361  0.3169  0.5034 -0.5797
 1002MOL0     C35179   6.462  11.188   0.443 -0.0336  0.2036  0.1935
 1002MOL0    Cl35180   6.308  11.117   0.381 -0.1864  0.1704  0.0644
 1002MOL0     C35181   7.364  11.606   0.191 -0.2183  0.4250 -0.6779
 1002MOL0     C35182   7.504  11.574   0.197  0.0646 -0.7151  0.0480
 1002MOL0     O35183   7.688  11.394   0.368 -0.9066  0.3912  0.2666
 1002MOL0     C35184   7.940  11.273   0.313 -0.3299 -0.3744  0.3672
 1002MOL0     C35185   8.079  11.258   0.325  0.5834 -0.7522  0.5127
 1002MOL0     N35186   8.773  11.226   0.543 -0.5681  0.4383 -0.0582
 1002MOL0     N35187   8.844  11.126   0.579  0.0526  0.1384  0.5777
 1002MOL0     C35188   8.620  10.828   1.637  0.2951 -0.1364 -0.0237
 1002MOL0     C35189   8.498  10.820   1.717  0.0021 -0.8217 -0.5984
 1002MOL0     C35190   8.134  10.634   1.940  0.4183  0.3245  0.1497
 1002MOL0     C35191   8.016  10.562   1.942 -0.0656  0.9311  0.1398
 1002MOL0     C35192   7.938  10.540   2.052 -0.0727 -0.8820 -0.4285
 1002MOL0     C35193   7.981  10.593   2.177 -0.2132 -0.9207 -0.1876
 1002MOL0     O35194   7.897  10.580   2.284  0.0526 -0.0132 -0.1479
 1002MOL0     C35195   7.902  10.670   2.395 -0.2207  0.6616 -0.0098
 1002MOL0     C35196   7.765  10.670   2.463  0.3371  0.4947  0.0773
 1002MOL0     C35197   7.717  10.526   2.527 -0.6821 -0.3217  0.5026
 1002MOL0     C35198   7.571  10.546   2.571 -0.4617  0.1537  0.3944
 1002MOL0     C35199   7.556  10.661   2.666  0.2184 -0.9940  0.3661
 1002MOL0     C35200   7.543  10.760   2.734 -0.0909  0.6996  0.9413
 1002MOL0     C35201   8.090  10.670   2.183  0.6567 -0.0947 -0.2229
 1002MOL0     C35202   8.168  10.676   2.071  0.8929 -0.2553  0.5760
 1002MOL0     H35203   8.415  10.496   1.662  1.9217 -1.0717 -0.5483
 1002MOL0     H35204   8.594  10.505   1.513 -6.2758 -4.8184  3.8089
 1002MOL0     H35205   8.916  10.628   1.568 -3.3269 -2.3645  1.4720
 1002MOL0     H35206   8.838  10.532   1.458  1.0255 -0.2031 -1.2534
 1002MOL0     H35207   9.035  10.738   1.411  0.4880 -1.7889  1.0426
 1002MOL0     H35208   9.012  10.580   1.327 -0.7123 -0.8049  0.7684
 1002MOL0     H35209   8.807  10.735   1.215 -0.9200  2.6935 -1.9665
 1002MOL0     H35210   8.900  10.863   1.279  0.7776 -0.1590  0.6253
 1002MOL0     H35211   9.094  10.777   1.133 -1.1817  2.3754  0.9851
 1002MOL0     H35212   9.004  10.641   1.096 -0.9170 -1.5357  4.2353
 1002MOL0     H35213   8.837  10.792   0.972  0.3927 -2.0774 -0.3516
 1002MOL0     H35214   8.946  10.935   1.021  1.9979  0.0878 -0.5647
 1002MOL0     H35215   9.131  10.825   0.887 -0.7690  4.8285 -0.4014
 1002MOL0     H35216   9.010  10.720   0.810 -1.7284 -0.7140  2.7173
 1002MOL0     H35217   8.987  11.024   0.824  0.7319  2.0875 -2.0388
 1002MOL0     H35218   9.055  10.925   0.683  1.9339  0.3620  1.1818
 1002MOL0     H35219   8.772  10.863   0.788 -0.7089  0.3586  0.0385
 1002MOL0     H35220   8.831  10.830   0.641 -3.2655 -0.4205 -0.0829
 1002MOL0     H35221   8.555  11.048   0.727 -1.1739 -1.5688 -2.8149
 1002MOL0     H35222   8.468  11.284   0.659  1.0772  2.7070  2.7132
 1002MOL0     H35223   8.578  11.409   0.627  2.0085  0.7651 -1.8225
 1002MOL0     H35224   8.550  11.378   0.375 -1.5923  0.7269 -1.1151
 1002MOL0     H35225   8.398  11.402   0.473  0.4428 -0.9388  1.9452
 1002MOL0     H35226   8.335  11.164   0.456 -4.2094  3.0581 -1.8558
 1002MOL0     H35227   8.501  11.135   0.402 -1.2547 -1.1794  0.4408
 1002MOL0     H35228   8.299  11.132   0.250 -0.1670 -1.4169  1.9499
 1002MOL0     H35229   8.431  11.218   0.173  1.2301  1.6059  1.4551
 1002MOL0     H35230   8.157  11.525   0.127 -0.6350  0.9905  1.5498
 1002MOL0     H35231   7.962  11.672   0.092 -0.7751  0.5996 -1.1104
 1002MOL0     H35232   7.840  11.564   0.005 -2.1613 -0.1415  0.8619
 1002MOL0     H35233   7.807  11.618   0.166 -1.8948 -1.9295 -1.5962
 1002MOL0     H35234   7.480  11.304  -0.002  1.0493 -0.2408  2.6337
 1002MOL0     H35235   7.258  11.381  -0.043  1.9169 -2.4081  0.4891
 1002MOL0     H35236   7.008  11.650  -0.043 -3.2892 -0.1364  4.5096
 1002MOL0     H35237   7.114  11.521  -0.097  1.8136 -0.2288  0.7625
 1002MOL0     H35238   6.870  11.462  -0.024 -0.0031 -1.6489  0.4970
 1002MOL0     H35239   7.001  11.359   0.041  0.6257 -0.5260 -1.7159
 1002MOL0     H35240   6.884  11.607   0.194  0.3116 -0.2443  1.5437
 1002MOL0     H35241   6.994  11.491   0.257  2.8729  0.2896 -3.2056
 1002MOL0     H35242   6.713  11.417   0.158  0.0675 -0.1475  0.9443
 1002MOL0     H35243   6.835  11.321   0.244  0.1907 -0.2127  0.6978
 1002MOL0     H35244   6.657  11.556   0.322 -0.4008 -1.4394  0.2240
 1002MOL0     H35245   6.806  11.515   0.414  0.9738 -0.6496 -0.5747
 1002MOL0     H35246   6.715  11.290   0.455  1.1730 -0.2177 -0.9719
 1002MOL0     H35247   6.611  11.421   0.523 -0.4688 -1.4705  0.2404
 1002MOL0     H35248   6.527  11.277   0.255 -0.8952  6.1083 -2.4132
 1002MOL0     H35249   6.439  11.378   0.371 -0.7328 -0.4840 -1.2789
 1002MOL0     H35250   6.449  11.225   0.545 -2.2209  3.1418 -1.0067
 1002MOL0     H35251   6.539  11.110   0.432 -0.3963 -0.2464  0.8298
 1002MOL0     H35252   7.325  11.685   0.254 -1.5680 -0.9094  0.2226
 1002MOL0     H35253   7.573  11.636   0.253  0.4239 -1.4888  0.4856
 1002MOL0     H35254   7.868  11.200   0.348 -2.8779  0.9066 -1.8174
 1002MOL0     H35255   8.129  11.185   0.389  2.4755  0.8906  1.0056
 1002MOL0     H35256   8.693  10.907   1.626  0.4821 -0.4351 -1.0060
 1002MOL0     H35257   8.465  10.909   1.770 -1.4973 -1.2466 -0.7995
 1002MOL0     H35258   7.966  10.529   1.852  0.8526  2.2930 -0.9220
 1002MOL0     H35259   7.841  10.490   2.054 -0.6599  0.2309  0.0200
 1002MOL0     H35260   7.983  10.637   2.460 -1.3327  1.5382  1.9188
 1002MOL0     H35261   7.915  10.773   2.361 -2.2822  0.0173 -3.1192
 1002MOL0     H35262   7.688  10.711   2.396 -0.5852  0.7005  1.2219
 1002MOL0     H35263   7.775  10.746   2.541 -2.7661 -1.7411  3.0196
 1002MOL0     H35264   7.786  10.514   2.611  1.1373  2.0763 -0.5369
 1002MOL0     H35265   7.730  10.446   2.454 -1.5626 -0.8197  0.8758
 1002MOL0     H35266   7.530  10.448   2.596 -4.2080  0.8190 -2.2035
 1002MOL0     H35267   7.513  10.583   2.485 -1.4876  1.7129  1.6935
 1002MOL0     H35268   7.536  10.860   2.772 -0.2499  0.7986  0.6552
 1002MOL0     H35269   8.118  10.730   2.269  0.9915 -0.1915 -0.2628
 1002MOL0     H35270   8.257  10.738   2.079 -0.6881  2.5063 -1.5050
 1003MOL0     O35271  10.567   0.941  10.413 -0.0658  0.0104 -0.3733
 1003MOL0     C35272  10.675   0.927  10.470  0.8087  0.1784  0.9252
 1003MOL0     O35273  10.699   0.851  10.583 -0.1825 -0.2330 -0.1030
 1003MOL0     C35274  10.610   0.752  10.612 -0.1859  0.4373 -0.2136
 1003MOL0     C35275  10.478   0.774  10.681 -0.6214  0.4038  0.4672
 1003MOL0     C35276  10.397   0.672  10.721  0.6394  0.9404 -0.3080
 1003MOL0     C35277  10.433   0.537  10.711  0.5752 -0.4152  1.2825
 1003MOL0     O35278  10.354   0.436  10.766 -0.0740 -1.0292 -0.6615
 1003MOL0     C35279  10.389   0.298  10.756  1.2664 -0.4749 -0.9028
 1003MOL0     C35280  10.309   0.209  10.854 -0.3479 -1.0629  1.0806
 1003MOL0     C35281  10.157   0.203  10.824 -0.3674 -1.6643 -0.3569
 1003MOL0     C35282  10.103   0.119  10.933  0.2764  0.4034 -0.7896
 1003MOL0     C35283   9.950   0.108  10.919  0.2524 -1.0759 -0.3257
 1003MOL0     C35284   9.894   0.013  11.034 -1.1654  0.1905  0.1088
 1003MOL0     C35285   9.754  -0.042  11.004 -0.0604 -0.9222 -0.8230
 1003MOL0     C35286   9.696  -0.094  11.135 -0.5560  0.3540  1.0811
 1003MOL0     N35287   9.648   0.006  11.222  0.0346  0.0032 -0.5222
 1003MOL0     C35288   9.537   0.080  11.199  0.2980 -0.7177 -0.7353
 1003MOL0     C35289   9.525   0.163  11.308  0.5706  0.3495  0.5939
 1003MOL0     C35290   9.407   0.251  11.332  0.0941 -0.1456  0.3088
 1003MOL0     C35291   9.365   0.283  11.472 -1.5502  0.4089 -0.1212
 1003MOL0     C35292   9.316   0.155  11.538 -0.3317 -0.0127 -1.1029
 1003MOL0     C35293   9.279   0.194  11.683  0.8588  0.3542  0.7519
 1003MOL0     O35294   9.200   0.090  11.749 -1.3513  0.6767 -0.6676
 1003MOL0     C35295   9.151   0.123  11.879  0.3457 -0.5227 -0.4806
 1003MOL0     C35296   9.180   0.226  11.976 -0.1657  0.6208 -0.2731
 1003MOL0     C35297   9.112   0.248  12.092 -0.7208  0.5902 -0.3091
 1003MOL0     C35298   9.163   0.359  12.176  0.1505  0.3767  0.1340
 1003MOL0     C35299   9.000   0.174  12.129 -0.8750 -1.0594 -1.3845
 1003MOL0     C35300   8.910   0.197  12.245 -0.1047 -0.3256 -0.7392
 1003MOL0     O35301   8.821   0.092  12.275 -0.9488 -0.4182 -0.2185
 1003MOL0     C35302   8.729   0.099  12.378 -0.0394  0.6255  0.4392
 1003MOL0     C35303   8.756   0.136  12.504 -0.0485 -0.9775 -0.4503
 1003MOL0     C35304   8.653   0.145  12.599 -0.0916 -0.5482  0.8215
 1003MOL0     C35305   8.520   0.114  12.569  0.1519  0.4622 -0.0471
 1003MOL0     O35306   8.428   0.138  12.675  0.1887  0.4669  0.3269
 1003MOL0     C35307   8.299   0.078  12.663 -1.1212  0.4493  0.2263
 1003MOL0     C35308   8.227   0.113  12.791 -0.0749  0.3167  0.3215
 1003MOL0     C35309   8.072   0.075  12.778 -0.5186 -0.6288  1.2421
 1003MOL0     C35310   7.982   0.146  12.873  0.0667 -0.6790  0.4667
 1003MOL0     C35311   7.997   0.101  13.015  1.0936  0.5502 -0.0787
 1003MOL0     C35312   7.903   0.163  13.119 -0.2279  0.5430  0.4291
 1003MOL0     C35313   7.764   0.112  13.108  0.1510  0.5115 -0.1593
 1003MOL0     C35314   7.685   0.215  13.183 -0.4318  0.0882 -0.2127
 1003MOL0    Cl35315   7.713   0.206  13.358  0.2867  0.0472 -0.3204
 1003MOL0     C35316   8.492   0.069  12.442  0.1363 -0.5630  0.5202
 1003MOL0     C35317   8.595   0.061  12.343  0.6633  0.6592 -0.3568
 1003MOL0     O35318   8.915   0.304  12.302  0.7854  0.8684 -0.3642
 1003MOL0     C35319   8.972   0.070  12.039 -1.2929  0.9139 -0.6001
 1003MOL0     C35320   9.046   0.046  11.923  0.5581 -0.1746 -0.0391
 1003MOL0     N35321   9.629   0.130  11.392 -0.6670  0.3793 -0.2134
 1003MOL0     N35322   9.699   0.028  11.343 -0.6368 -0.3893 -0.3518
 1003MOL0     C35323  10.545   0.512  10.634 -0.3074  0.3108 -1.0314
 1003MOL0     C35324  10.635   0.611  10.597  0.4577  0.0400  1.3189
 1003MOL0     C35325  10.780   1.004  10.397 -0.2367  0.2364  0.6042
 1003MOL0     C35326  10.760   1.088  10.276 -0.0390  0.1538  0.4242
 1003MOL0     C35327  10.871   1.139  10.206  0.8345  0.0338 -0.1981
 1003MOL0     C35328  11.000   1.118  10.264 -0.6216  0.1230  0.9455
 1003MOL0     O35329  11.117   1.174  10.213 -0.2675 -0.5634 -0.7881
 1003MOL0     C35330  11.119   1.246  10.095 -0.2026  0.8206  0.6472
 1003MOL0     C35331  11.256   1.312  10.057  0.2304 -0.5658 -0.2098
 1003MOL0     C35332  11.292   1.439  10.148  0.2088 -0.4019  0.5181
 1003MOL0     C35333  11.197   1.568  10.134  0.1764  1.3576  0.2946
 1003MOL0     C35334  11.223   1.639  10.006  0.0004 -0.2307  0.6396
 1003MOL0     C35335  11.235   1.705   9.898  0.6310 -0.2582 -0.5947
 1003MOL0     C35336  11.019   1.041  10.384  0.9941 -1.4579 -0.0458
 1003MOL0     C35337  10.911   0.985  10.445 -0.4001  0.5956 -0.0999
 1003MOL0     H35338  10.439   0.871  10.710 -2.0672  0.5949 -1.8627
 1003MOL0     H35339  10.300   0.688  10.769  0.5856  3.0029 -1.0017
 1003MOL0     H35340  10.365   0.267  10.654 -2.0413  2.6524 -1.2823
 1003MOL0     H35341  10.496   0.291  10.779  0.8903 -1.8683  0.5948
 1003MOL0     H35342  10.350   0.108  10.841  1.2618 -0.2301 -0.8771
 1003MOL0     H35343  10.315   0.252  10.954  2.3735  1.5860 -0.0472
 1003MOL0     H35344  10.119   0.306  10.815  2.9656 -0.3827 -1.3221
 1003MOL0     H35345  10.133   0.158  10.728  1.6863  2.4419 -3.1090
 1003MOL0     H35346  10.153   0.024  10.917  2.7613  1.8318 -2.1879
 1003MOL0     H35347  10.130   0.163  11.029 -2.6428 -1.2871  0.9490
 1003MOL0     H35348   9.911   0.206  10.948  3.8086  0.0689  1.1977
 1003MOL0     H35349   9.915   0.086  10.818 -1.4617 -0.1479  0.0271
 1003MOL0     H35350   9.965  -0.064  11.065 -0.0253  1.3643  0.4908
 1003MOL0     H35351   9.877   0.074  11.124 -0.4115  2.2993 -1.0880
 1003MOL0     H35352   9.682   0.028  10.960 -0.4086 -0.6182  0.2076
 1003MOL0     H35353   9.762  -0.129  10.939 -0.6958 -1.9263  0.4154
 1003MOL0     H35354   9.773  -0.158  11.179 -0.9399 -1.5789 -0.8423
 1003MOL0     H35355   9.613  -0.161  11.113  1.9928 -2.5570 -0.4710
 1003MOL0     H35356   9.460   0.080  11.122 -2.8734  0.0836  2.2041
 1003MOL0     H35357   9.420   0.343  11.274 -1.0045 -0.2257 -0.0847
 1003MOL0     H35358   9.323   0.203  11.282  0.0754 -1.0112  1.1409
 1003MOL0     H35359   9.282   0.352  11.457 -1.8037 -0.5101 -4.1148
 1003MOL0     H35360   9.446   0.336  11.523  2.1182 -3.3836 -1.4041
 1003MOL0     H35361   9.394   0.080  11.544  0.1464  0.4628 -1.2844
 1003MOL0     H35362   9.228   0.113  11.488 -2.5378  3.0194 -0.1468
 1003MOL0     H35363   9.219   0.285  11.671  0.2967 -0.0356  0.6112
 1003MOL0     H35364   9.369   0.227  11.738  1.1256 -0.3965  0.7766
 1003MOL0     H35365   9.269   0.283  11.953  0.2913 -0.0801 -0.2706
 1003MOL0     H35366   9.088   0.438  12.172 -1.5402 -1.1776 -3.6509
 1003MOL0     H35367   9.186   0.339  12.281  2.7712  1.5729 -0.1198
 1003MOL0     H35368   9.258   0.392  12.132 -0.4981 -0.3592 -1.9444
 1003MOL0     H35369   8.856   0.177  12.517 -0.4475 -0.3898  0.9953
 1003MOL0     H35370   8.680   0.179  12.699 -2.3963  1.2332  0.9374
 1003MOL0     H35371   8.237   0.123  12.584 -2.1016 -0.4514  0.4512
 1003MOL0     H35372   8.286  -0.028  12.638  1.2098 -0.2204  1.5609
 1003MOL0     H35373   8.264   0.048  12.871  1.2814 -0.2003 -0.7054
 1003MOL0     H35374   8.246   0.216  12.822  0.5572  0.1314  0.5552
 1003MOL0     H35375   8.076  -0.033  12.793  1.1187 -0.8151 -0.2599
 1003MOL0     H35376   8.035   0.102  12.678  1.8481 -0.2430  0.4008
 1003MOL0     H35377   7.997   0.254  12.873 -0.5033 -0.5660 -1.5265
 1003MOL0     H35378   7.878   0.135  12.840 -0.5560  1.7384  1.4361
 1003MOL0     H35379   8.095   0.130  13.054  1.1193  0.7543 -0.2903
 1003MOL0     H35380   7.988  -0.008  13.008  1.5875  0.5604 -1.0223
 1003MOL0     H35381   7.943   0.143  13.219 -0.5355 -0.8109  0.3024
 1003MOL0     H35382   7.897   0.271  13.103  0.6012  0.4192 -0.7954
 1003MOL0     H35383   7.764   0.010  13.148 -1.0580  0.1522 -0.9870
 1003MOL0     H35384   7.729   0.111  13.004  0.1365 -1.0064 -0.1669
 1003MOL0     H35385   7.582   0.194  13.151  0.1451 -1.8959 -0.9541
 1003MOL0     H35386   7.706   0.315  13.146 -1.9326  0.8997  1.0200
 1003MOL0     H35387   8.387   0.076  12.413  0.2660  0.3248  0.2319
 1003MOL0     H35388   8.546   0.048  12.247 -1.6400 -1.4443  0.9650
 1003MOL0     H35389   8.882   0.016  12.065  0.4941 -1.2690  1.4103
 1003MOL0     H35390   9.016  -0.043  11.869  1.7961 -0.6460  0.0288
 1003MOL0     H35391  10.581   0.410  10.627  1.1002  0.6828  0.1237
 1003MOL0     H35392  10.730   0.568  10.566 -0.1849 -0.2431 -0.3462
 1003MOL0     H35393  10.654   1.101  10.257 -0.1061 -0.7029  0.1729
 1003MOL0     H35394  10.863   1.210  10.124  0.7469  0.6612  0.3444
 1003MOL0     H35395  11.098   1.173  10.017  3.3549  3.0568 -2.8072
 1003MOL0     H35396  11.052   1.332  10.095 -1.6311 -0.2687  0.4810
 1003MOL0     H35397  11.255   1.335   9.950  1.6777 -1.8997 -0.5569
 1003MOL0     H35398  11.333   1.236  10.074 -1.0002 -1.5797  1.1425
 1003MOL0     H35399  11.393   1.469  10.120 -0.6781  2.2403 -0.1808
 1003MOL0     H35400  11.301   1.408  10.253 -1.1306 -3.1369 -0.0904
 1003MOL0     H35401  11.225   1.634  10.217  1.7970  1.6194 -0.4201
 1003MOL0     H35402  11.092   1.544  10.151  0.0508  0.8106 -1.1242
 1003MOL0     H35403  11.264   1.759   9.810  2.8479  1.6843  1.1827
 1003MOL0     H35404  11.116   1.039  10.431 -0.8241  0.0772  4.2861
 1003MOL0     H35405  10.925   0.918  10.530 -0.9072 -0.6919 -1.0004
 1004MOL0     O35406   2.779   9.021   4.852  0.3312  0.5551  0.1957
 1004MOL0     C35407   2.706   8.938   4.796  0.4448 -0.6657  0.2590
 1004MOL0     O35408   2.569   8.943   4.780 -0.0348 -0.7702  0.1313
 1004MOL0     C35409   2.487   9.062   4.806  0.4477  0.8738  0.2668
 1004MOL0     C35410   2.351   9.044   4.825  0.7784 -0.6804 -0.4177
 1004MOL0     C35411   2.259   9.150   4.854  0.4565  0.5172 -0.0946
 1004MOL0     C35412   2.304   9.280   4.854  0.8109  0.2116  0.4396
 1004MOL0     O35413   2.200   9.367   4.838 -0.2639  0.4130  0.2203
 1004MOL0     C35414   2.222   9.490   4.768  0.3131  0.9762 -0.3053
 1004MOL0     C35415   2.288   9.600   4.860  0.4862  0.0656 -0.1696
 1004MOL0     C35416   2.175   9.677   4.931  0.7981  0.6403  0.3755
 1004MOL0     C35417   2.240   9.767   5.054 -0.4484  0.6045  0.0888
 1004MOL0     C35418   2.154   9.776   5.185 -0.9108  0.0164  0.9018
 1004MOL0     C35419   2.150   9.654   5.269  0.2262 -0.5689  0.2444
 1004MOL0     C35420   2.048   9.651   5.381 -0.2606 -1.1817  0.2193
 1004MOL0     C35421   1.908   9.684   5.326 -0.2685  0.5296  0.1363
 1004MOL0     N35422   1.810   9.664   5.425 -0.0826 -0.2527 -0.3855
 1004MOL0     C35423   1.769   9.536   5.463 -0.3320  0.0873  0.1130
 1004MOL0     C35424   1.691   9.573   5.574  0.2191 -0.0311 -0.1372
 1004MOL0     C35425   1.619   9.485   5.661  0.1273 -0.1123  0.2749
 1004MOL0     C35426   1.680   9.351   5.701 -0.4727  0.4088 -0.6401
 1004MOL0     C35427   1.805   9.360   5.786 -0.2670 -0.2915 -0.1943
 1004MOL0     C35428   1.841   9.218   5.832  0.7379 -0.9248  0.2986
 1004MOL0     O35429   1.759   9.157   5.934  0.5329  0.4792  0.3795
 1004MOL0     C35430   1.801   9.048   5.996 -0.8773  0.5475  0.5325
 1004MOL0     C35431   1.731   9.009   6.108 -0.4783  0.0779 -0.2086
 1004MOL0     C35432   1.781   8.916   6.201  0.8092  0.4269  0.8100
 1004MOL0     C35433   1.699   8.901   6.333 -0.8322 -0.8264  0.1621
 1004MOL0     C35434   1.900   8.849   6.174 -0.7268 -0.4005  0.6455
 1004MOL0     C35435   1.957   8.738   6.252  0.0348  0.5015 -0.4654
 1004MOL0     O35436   2.093   8.708   6.229  0.3320 -0.4205 -0.1353
 1004MOL0     C35437   2.160   8.617   6.306  0.3501 -0.2315 -0.4287
 1004MOL0     C35438   2.288   8.650   6.343 -0.4259 -0.8003 -0.3645
 1004MOL0     C35439   2.367   8.570   6.417  1.0381 -0.6728 -0.2879
 1004MOL0     C35440   2.325   8.443   6.456  0.4574  0.3849 -0.0707
 1004MOL0     O35441   2.412   8.373   6.536  0.9592  0.3631  0.0705
 1004MOL0     C35442   2.409   8.227   6.514 -0.2653 -0.1322  0.1973
 1004MOL0     C35443   2.337   8.151   6.628 -0.4454  0.0300  0.4547
 1004MOL0     C35444   2.400   8.179   6.765 -0.6729 -0.2737 -1.4739
 1004MOL0     C35445   2.528   8.108   6.791 -0.2621 -0.6363 -0.0713
 1004MOL0     C35446   2.577   8.142   6.936  0.1482  0.0320 -1.0606
 1004MOL0     C35447   2.706   8.080   6.977 -1.0040  0.1971  0.0334
 1004MOL0     C35448   2.824   8.181   6.933  0.5653 -0.5452 -0.8278
 1004MOL0     C35449   2.955   8.117   6.978  0.8850 -0.0685  0.5348
 1004MOL0    Cl35450   3.090   8.235   6.943  0.4893 -0.1282  0.0340
 1004MOL0     C35451   2.197   8.408   6.418  0.3131  0.6752  0.3275
 1004MOL0     C35452   2.118   8.491   6.351  0.6790 -0.4021  0.4958
 1004MOL0     O35453   1.886   8.688   6.345  0.0518  0.6508  0.2079
 1004MOL0     C35454   1.948   8.867   6.044  0.3389 -0.5456 -0.2700
 1004MOL0     C35455   1.917   8.973   5.960 -0.3629 -0.1972  0.5354
 1004MOL0     N35456   1.686   9.709   5.609 -0.8094  0.5449  0.7013
 1004MOL0     N35457   1.765   9.758   5.513 -0.8114 -0.0645 -0.1558
 1004MOL0     C35458   2.442   9.304   4.844  0.0590  0.1216  0.8097
 1004MOL0     C35459   2.527   9.195   4.822  0.5682  0.9442  0.3152
 1004MOL0     C35460   2.768   8.818   4.742 -0.3161 -0.5170 -0.5358
 1004MOL0     C35461   2.885   8.772   4.799  0.0921 -0.2337  0.9618
 1004MOL0     C35462   2.952   8.660   4.745  0.0971  0.0938 -0.0413
 1004MOL0     C35463   2.905   8.599   4.630  1.2564 -0.1252 -0.6662
 1004MOL0     O35464   2.962   8.492   4.560  0.3209 -0.1323 -0.3374
 1004MOL0     C35465   3.082   8.427   4.603 -0.9311  0.3427 -0.3930
 1004MOL0     C35466   3.053   8.289   4.659  0.9353  0.4623 -0.4467
 1004MOL0     C35467   3.173   8.187   4.653  0.1775 -0.1793  0.3068
 1004MOL0     C35468   3.136   8.047   4.691  0.0872 -0.1568  0.3153
 1004MOL0     C35469   3.236   7.961   4.631 -0.7919 -0.0356  0.1687
 1004MOL0     C35470   3.317   7.894   4.569 -0.0171  0.4205 -0.5160
 1004MOL0     C35471   2.786   8.648   4.574  0.1407  0.5997  0.5725
 1004MOL0     C35472   2.722   8.753   4.627  0.2793 -0.5000  0.3082
 1004MOL0     H35473   2.319   8.942   4.808  0.3886 -0.4337 -1.2093
 1004MOL0     H35474   2.154   9.132   4.873  0.8362 -1.3372  0.5259
 1004MOL0     H35475   2.293   9.469   4.688 -0.8957  3.0839 -2.0389
 1004MOL0     H35476   2.136   9.537   4.718 -2.5577 -1.5603  1.9000
 1004MOL0     H35477   2.353   9.553   4.934  2.2002 -0.1024 -1.7162
 1004MOL0     H35478   2.349   9.672   4.804 -4.9408  3.3503 -2.7544
 1004MOL0     H35479   2.120   9.735   4.856 -1.1824 -1.1761  0.3412
 1004MOL0     H35480   2.112   9.602   4.979  2.2984 -1.4716 -0.7935
 1004MOL0     H35481   2.332   9.713   5.079 -0.4001  0.0817 -1.1136
 1004MOL0     H35482   2.264   9.868   5.021 -1.6616  0.8750 -0.0220
 1004MOL0     H35483   2.206   9.849   5.248  0.7108  0.2337 -0.5934
 1004MOL0     H35484   2.056   9.814   5.154  0.4446  3.2428  0.1426
 1004MOL0     H35485   2.140   9.567   5.205  0.0189 -0.2837 -0.1152
 1004MOL0     H35486   2.248   9.645   5.317  0.5605 -1.5300 -0.5876
 1004MOL0     H35487   2.054   9.547   5.415  1.4994 -1.7917 -1.7439
 1004MOL0     H35488   2.069   9.715   5.468  0.6179 -0.2756 -0.6373
 1004MOL0     H35489   1.893   9.626   5.234  2.6685  1.5576 -1.1309
 1004MOL0     H35490   1.911   9.788   5.291 -0.2104  1.3978  2.5305
 1004MOL0     H35491   1.762   9.436   5.421  0.2083 -0.3883  1.1289
 1004MOL0     H35492   1.583   9.533   5.753  0.3196 -2.0754  1.4433
 1004MOL0     H35493   1.533   9.455   5.601  1.4825 -0.9661 -1.3202
 1004MOL0     H35494   1.711   9.296   5.612  0.2442  0.3371 -0.3523
 1004MOL0     H35495   1.600   9.302   5.757  0.2132  3.1996  3.1900
 1004MOL0     H35496   1.804   9.425   5.875 -2.2990 -0.7738  0.1788
 1004MOL0     H35497   1.887   9.406   5.731  1.2178 -0.9875  1.3442
 1004MOL0     H35498   1.935   9.236   5.884  1.1150 -1.4103 -0.2062
 1004MOL0     H35499   1.864   9.158   5.743  2.1598  1.1435 -0.8142
 1004MOL0     H35500   1.634   9.058   6.116 -1.0255 -0.5701 -2.1511
 1004MOL0     H35501   1.635   8.987   6.351  0.2179 -0.2720  1.4568
 1004MOL0     H35502   1.640   8.809   6.335  0.5289 -1.7306  0.8894
 1004MOL0     H35503   1.774   8.908   6.413 -0.6206 -1.5193  0.0408
 1004MOL0     H35504   2.337   8.741   6.310  0.8919 -1.2217  0.3349
 1004MOL0     H35505   2.468   8.598   6.444 -0.3225  3.0987  1.6492
 1004MOL0     H35506   2.356   8.199   6.423 -0.9208 -0.6388  0.7214
 1004MOL0     H35507   2.509   8.187   6.498 -0.2846  0.0017 -0.2660
 1004MOL0     H35508   2.233   8.183   6.644 -0.4511  0.8267 -1.0401
 1004MOL0     H35509   2.325   8.044   6.610 -2.0054 -0.3690  3.1704
 1004MOL0     H35510   2.336   8.153   6.849 -1.5966  0.4142 -1.9603
 1004MOL0     H35511   2.413   8.287   6.776 -1.5007 -0.3561  0.8410
 1004MOL0     H35512   2.524   8.000   6.774  3.3294 -0.7078 -1.2512
 1004MOL0     H35513   2.603   8.138   6.717 -0.4758 -0.8117 -0.3607
 1004MOL0     H35514   2.507   8.109   7.013  0.2662 -0.5979 -1.2149
 1004MOL0     H35515   2.579   8.250   6.955  0.1869 -0.4321  2.2188
 1004MOL0     H35516   2.708   8.074   7.086  1.7039  1.4489  0.1182
 1004MOL0     H35517   2.711   7.976   6.944 -0.7496 -0.7841  2.9294
 1004MOL0     H35518   2.798   8.263   7.001 -4.7994 -3.7293  1.6616
 1004MOL0     H35519   2.827   8.190   6.824  4.3376 -2.8916 -1.0867
 1004MOL0     H35520   2.959   8.026   6.918  0.1409  0.5290 -0.4420
 1004MOL0     H35521   2.957   8.086   7.083 -0.9794 -0.7247  0.4262
 1004MOL0     H35522   2.156   8.308   6.434 -1.0788  1.0304 -0.8548
 1004MOL0     H35523   2.024   8.453   6.311 -0.8238  3.0261  0.4147
 1004MOL0     H35524   2.037   8.827   5.996  3.4677 -0.7669  4.9900
 1004MOL0     H35525   1.975   8.993   5.870 -3.1959  2.9996 -0.8502
 1004MOL0     H35526   2.476   9.407   4.842 -1.1058  0.5271  0.9445
 1004MOL0     H35527   2.627   9.227   4.797  0.9478 -0.1773  0.3719
 1004MOL0     H35528   2.921   8.813   4.893 -1.3479  2.2856  0.5205
 1004MOL0     H35529   3.050   8.636   4.783 -0.2527 -0.8266  0.3067
 1004MOL0     H35530   3.145   8.411   4.514 -0.6512 -2.2552  0.2107
 1004MOL0     H35531   3.143   8.482   4.676  0.8945  1.2656 -2.4580
 1004MOL0     H35532   2.977   8.248   4.592 -1.4036  2.6360  0.7129
 1004MOL0     H35533   3.010   8.305   4.758  2.2329  1.6526 -0.0364
 1004MOL0     H35534   3.258   8.230   4.707 -0.7436  1.0551  0.8187
 1004MOL0     H35535   3.212   8.190   4.551  0.6549  1.6328  0.5158
 1004MOL0     H35536   3.036   8.021   4.653 -0.1500 -1.8231  1.9706
 1004MOL0     H35537   3.132   8.039   4.800  2.0789  0.9059  0.5106
 1004MOL0     H35538   3.383   7.825   4.520  0.1021  0.0427  0.1665
 1004MOL0     H35539   2.739   8.610   4.484  2.2911 -2.3880  0.5479
 1004MOL0     H35540   2.636   8.796   4.578  1.2862  1.2088 -0.0651
 1005MOL0     O35541  10.630   2.045   8.534  0.0174 -0.0090  0.1604
 1005MOL0     C35542  10.712   2.116   8.593  0.5991 -0.8359 -0.1866
 1005MOL0     O35543  10.832   2.164   8.548 -0.0231 -0.1532  0.6247
 1005MOL0     C35544  10.896   2.103   8.436  0.4050 -0.8521  0.1957
 1005MOL0     C35545  10.932   2.187   8.325 -0.1792  0.4751 -0.2774
 1005MOL0     C35546  10.972   2.126   8.208 -0.2329  0.1411 -1.4352
 1005MOL0     C35547  10.985   1.994   8.193 -0.1001  0.3747  0.6914
 1005MOL0     O35548  11.023   1.925   8.080  0.5607  0.0718  0.6065
 1005MOL0     C35549  11.034   2.005   7.958 -0.7826 -0.1766  0.6407
 1005MOL0     C35550  11.104   1.920   7.852  1.1722  0.4569 -0.8638
 1005MOL0     C35551  11.255   1.900   7.879  0.7866  0.2690 -0.4278
 1005MOL0     C35552  11.350   1.990   7.797 -0.2097 -0.5274 -0.0395
 1005MOL0     C35553  11.498   1.946   7.807  0.3967  0.2449 -0.1640
 1005MOL0     C35554  11.599   2.060   7.766 -0.6730 -0.2436  0.2505
 1005MOL0     C35555  11.748   2.024   7.784 -0.1154 -0.0800  0.0401
 1005MOL0     C35556  11.843   2.144   7.790  0.3183 -0.8238  0.6547
 1005MOL0     N35557  11.874   2.181   7.651  0.3667 -0.3435  0.1105
 1005MOL0     C35558  11.997   2.213   7.603 -0.0406 -0.4348  0.2744
 1005MOL0     C35559  11.980   2.209   7.466  0.0298 -0.3042 -0.0496
 1005MOL0     C35560  12.088   2.220   7.363  0.1340 -0.5859  0.0700
 1005MOL0     C35561  12.029   2.297   7.240  0.3449  0.0696 -1.1795
 1005MOL0     C35562  11.948   2.207   7.146 -0.2226  0.3392 -0.3650
 1005MOL0     C35563  11.856   2.301   7.064 -1.1039 -0.1734 -0.2300
 1005MOL0     O35564  11.953   2.368   6.994 -0.3932  0.0026 -0.4455
 1005MOL0     C35565  11.920   2.451   6.889  0.6571 -0.2430 -0.3114
 1005MOL0     C35566  12.028   2.486   6.809 -0.4793 -0.6308  0.0442
 1005MOL0     C35567  12.004   2.554   6.685 -0.2842 -0.3236 -1.2519
 1005MOL0     C35568  12.128   2.594   6.612  0.2474  0.1870 -0.0422
 1005MOL0     C35569  11.873   2.599   6.650  0.4455 -0.1376  0.1366
 1005MOL0     C35570  11.833   2.688   6.532 -0.3492  0.4975  0.9155
 1005MOL0     O35571  11.898   2.664   6.417 -0.1094 -0.4588  0.3213
 1005MOL0     C35572  11.823   2.671   6.303  0.1020 -0.3044 -0.3029
 1005MOL0     C35573  11.683   2.642   6.287 -0.0082 -0.2255  0.5861
 1005MOL0     C35574  11.610   2.673   6.175  0.1846 -0.3951  0.0133
 1005MOL0     C35575  11.678   2.727   6.066  0.6164 -0.5566 -1.4332
 1005MOL0     O35576  11.605   2.764   5.963  0.7799  0.6041  0.5989
 1005MOL0     C35577  11.647   2.771   5.829  0.2246 -0.0434  0.6236
 1005MOL0     C35578  11.620   2.640   5.746  0.1941  0.2608 -0.9262
 1005MOL0     C35579  11.641   2.673   5.598 -1.1135 -0.2961 -0.5119
 1005MOL0     C35580  11.593   2.558   5.508  0.0969 -1.3698 -0.3505
 1005MOL0     C35581  11.667   2.429   5.536  0.0986  1.1490  0.1166
 1005MOL0     C35582  11.648   2.334   5.417 -0.4525  0.3994  0.3005
 1005MOL0     C35583  11.720   2.201   5.440 -0.1486  0.2193 -0.2117
 1005MOL0     C35584  11.855   2.189   5.506 -0.2421  0.9104  0.1360
 1005MOL0    Cl35585  11.971   2.255   5.390  0.6321  0.0887 -0.7013
 1005MOL0     C35586  11.821   2.754   6.081  1.0407  1.0087 -0.5271
 1005MOL0     C35587  11.891   2.725   6.195  0.7611  0.2355  0.9514
 1005MOL0     O35588  11.739   2.770   6.546  0.1017 -0.7802  0.5788
 1005MOL0     C35589  11.770   2.568   6.742 -0.3394 -0.3368 -0.7563
 1005MOL0     C35590  11.792   2.503   6.864  0.4617 -0.1598  0.1313
 1005MOL0     N35591  11.842   2.190   7.438 -0.5645 -0.4616  0.1359
 1005MOL0     N35592  11.786   2.174   7.551  0.7845  0.4184  0.1399
 1005MOL0     C35593  10.965   1.911   8.306 -0.0670 -0.2508  0.4050
 1005MOL0     C35594  10.902   1.967   8.421 -0.1836  0.2804 -0.4479
 1005MOL0     C35595  10.667   2.148   8.727  0.6001 -1.2520 -0.5277
 1005MOL0     C35596  10.601   2.060   8.812 -0.4349  0.3589  0.6667
 1005MOL0     C35597  10.593   2.067   8.944 -0.1760 -0.2515  0.0927
 1005MOL0     C35598  10.626   2.187   9.000  0.3554 -0.3269 -0.4141
 1005MOL0     O35599  10.596   2.194   9.135 -0.6478 -0.1526 -0.5596
 1005MOL0     C35600  10.647   2.310   9.198  0.3122  0.0713  0.1970
 1005MOL0     C35601  10.638   2.279   9.351  0.0164 -0.3547  0.7409
 1005MOL0     C35602  10.494   2.303   9.401  0.4998  0.1235  0.0884
 1005MOL0     C35603  10.472   2.243   9.544 -0.2173  0.9793  0.2640
 1005MOL0     C35604  10.341   2.287   9.585 -0.0478  0.5249  0.1876
 1005MOL0     C35605  10.228   2.333   9.616  0.0181 -0.2365 -0.0848
 1005MOL0     C35606  10.692   2.286   8.927  0.1247 -0.1307 -0.2861
 1005MOL0     C35607  10.713   2.264   8.786  0.8101 -0.5031  0.3899
 1005MOL0     H35608  10.917   2.294   8.333 -2.4654  0.1548  0.7784
 1005MOL0     H35609  10.974   2.194   8.123  0.7542  0.6683 -1.0027
 1005MOL0     H35610  10.945   2.055   7.919 -0.9666  0.6282  2.0133
 1005MOL0     H35611  11.107   2.085   7.974  1.3141 -2.4182  3.6218
 1005MOL0     H35612  11.044   1.829   7.842 -1.0990  1.8748 -1.0072
 1005MOL0     H35613  11.098   1.970   7.755 -0.8209  1.4258 -0.3032
 1005MOL0     H35614  11.269   1.904   7.988 -4.1099  0.9991  0.4097
 1005MOL0     H35615  11.275   1.799   7.843  0.4363 -1.1896  3.0262
 1005MOL0     H35616  11.326   1.991   7.690  0.0746  2.0295 -0.1422
 1005MOL0     H35617  11.332   2.090   7.839  1.3001 -1.7565  3.9467
 1005MOL0     H35618  11.505   1.926   7.915 -1.5028 -2.8363 -0.4841
 1005MOL0     H35619  11.514   1.857   7.746  1.8659  0.0248  0.5098
 1005MOL0     H35620  11.584   2.079   7.659 -2.8112 -1.6328  0.2461
 1005MOL0     H35621  11.556   2.144   7.820 -0.9914  1.2885 -2.2211
 1005MOL0     H35622  11.741   1.982   7.884 -0.3537 -0.6011 -0.1927
 1005MOL0     H35623  11.791   1.954   7.712  1.1539  1.6812 -0.9745
 1005MOL0     H35624  11.937   2.130   7.844 -0.9327 -1.2919  2.8241
 1005MOL0     H35625  11.796   2.230   7.838 -1.4933 -2.8495  2.8168
 1005MOL0     H35626  12.089   2.225   7.659 -0.3647 -0.1902  0.7571
 1005MOL0     H35627  12.175   2.268   7.410  0.2042  0.7456 -1.3598
 1005MOL0     H35628  12.109   2.114   7.343  0.5756 -0.2713 -1.1790
 1005MOL0     H35629  12.114   2.345   7.189 -0.6657  1.7002 -1.4035
 1005MOL0     H35630  11.959   2.376   7.268 -0.5381 -0.5084 -1.7030
 1005MOL0     H35631  11.884   2.141   7.206  1.6087 -0.7438  0.4688
 1005MOL0     H35632  12.015   2.149   7.083  0.0627  1.2733 -0.9334
 1005MOL0     H35633  11.804   2.376   7.124  1.1566  1.5271 -0.2726
 1005MOL0     H35634  11.781   2.259   6.996  0.0642 -0.2934 -1.4915
 1005MOL0     H35635  12.129   2.478   6.848  0.6782 -0.2802 -2.6426
 1005MOL0     H35636  12.224   2.556   6.650  1.9302  2.2355 -1.9053
 1005MOL0     H35637  12.134   2.570   6.506  2.8235  0.3966 -0.0241
 1005MOL0     H35638  12.145   2.702   6.614  1.6747  0.1097 -2.8613
 1005MOL0     H35639  11.614   2.604   6.362  1.4871 -3.8896  0.2960
 1005MOL0     H35640  11.503   2.657   6.174  0.0468  0.1548 -2.7157
 1005MOL0     H35641  11.606   2.859   5.779  0.4500 -1.4203 -2.1854
 1005MOL0     H35642  11.755   2.784   5.819  0.1102  0.7731  0.3828
 1005MOL0     H35643  11.698   2.572   5.780  0.0437  0.6059  0.1378
 1005MOL0     H35644  11.523   2.595   5.770  0.2219 -0.0062 -1.3155
 1005MOL0     H35645  11.747   2.682   5.575 -1.7130  1.1690 -3.0573
 1005MOL0     H35646  11.599   2.770   5.569 -1.2470 -0.7088 -1.7348
 1005MOL0     H35647  11.484   2.544   5.510 -0.3143  0.7975 -2.2514
 1005MOL0     H35648  11.611   2.595   5.406  1.7624 -0.1598  0.3430
 1005MOL0     H35649  11.637   2.380   5.629  2.3241 -3.1930 -1.1902
 1005MOL0     H35650  11.773   2.450   5.553 -0.5149  2.7622  2.4210
 1005MOL0     H35651  11.540   2.325   5.404 -0.1200 -1.4773 -1.5997
 1005MOL0     H35652  11.691   2.384   5.330  0.7715 -1.4387 -0.2196
 1005MOL0     H35653  11.729   2.162   5.338 -1.7449 -0.7721 -0.0141
 1005MOL0     H35654  11.643   2.142   5.492 -0.3100  0.4436 -0.1950
 1005MOL0     H35655  11.881   2.084   5.525 -2.3029  0.4115  0.5182
 1005MOL0     H35656  11.855   2.239   5.603 -0.5173  2.4062 -0.6107
 1005MOL0     H35657  11.868   2.807   5.999  2.2489  1.0870  0.1968
 1005MOL0     H35658  11.997   2.744   6.209  1.4237 -0.2939 -2.3425
 1005MOL0     H35659  11.672   2.601   6.707  0.0330  0.3785 -1.1552
 1005MOL0     H35660  11.711   2.454   6.916  0.1169 -1.2488 -1.3760
 1005MOL0     H35661  10.963   1.803   8.297 -3.3097 -0.4971  2.5776
 1005MOL0     H35662  10.855   1.897   8.490 -1.6653  0.3702 -1.3405
 1005MOL0     H35663  10.562   1.973   8.760 -0.4233  1.8185 -1.9655
 1005MOL0     H35664  10.547   1.985   8.998 -0.1057 -0.9622 -0.8886
 1005MOL0     H35665  10.754   2.317   9.176 -0.1521 -0.1915 -2.4414
 1005MOL0     H35666  10.596   2.400   9.163 -1.6149  0.1055  2.7745
 1005MOL0     H35667  10.708   2.354   9.389 -1.1721  1.1235  0.1120
 1005MOL0     H35668  10.682   2.180   9.364  0.5144 -0.4657 -1.3584
 1005MOL0     H35669  10.429   2.251   9.330 -0.1193 -0.6536  1.1979
 1005MOL0     H35670  10.459   2.407   9.403  2.5162  0.9262 -1.9769
 1005MOL0     H35671  10.538   2.282   9.623  2.7465 -0.1864 -1.4458
 1005MOL0     H35672  10.471   2.134   9.554 -1.1150  0.6494 -2.5479
 1005MOL0     H35673  10.124   2.356   9.610 -0.3830 -1.2629  2.0286
 1005MOL0     H35674  10.726   2.384   8.959 -0.6604  1.0753 -2.8836
 1005MOL0     H35675  10.764   2.337   8.725  1.0190 -2.0513 -1.3594
 1006MOL0     O35676   8.998   7.571   4.044  0.3912 -0.4411 -1.0357
 1006MOL0     C35677   8.963   7.690   4.047 -0.0970 -0.6942  0.3622
 1006MOL0     O35678   8.846   7.740   4.006 -0.2833  0.7108 -0.1956
 1006MOL0     C35679   8.744   7.667   3.969  0.3025 -0.2741 -0.9604
 1006MOL0     C35680   8.704   7.545   4.031  1.2540  0.4178  0.3001
 1006MOL0     C35681   8.595   7.470   3.992 -0.1553  0.1787 -0.7373
 1006MOL0     C35682   8.516   7.507   3.885  0.4062 -1.1238  0.0812
 1006MOL0     O35683   8.420   7.421   3.840 -0.2100 -0.0609  1.4157
 1006MOL0     C35684   8.400   7.432   3.694  0.6095 -0.5531  0.0107
 1006MOL0     C35685   8.304   7.323   3.637 -0.2019  0.0811 -1.2448
 1006MOL0     C35686   8.355   7.178   3.668  0.1398  0.2232  1.1125
 1006MOL0     C35687   8.248   7.063   3.660 -0.2430  0.7116 -0.3972
 1006MOL0     C35688   8.298   6.929   3.713 -0.2510  0.4082  0.4483
 1006MOL0     C35689   8.320   6.930   3.865  0.2973  0.5469  0.5684
 1006MOL0     C35690   8.184   6.913   3.943  0.2493 -0.7022 -0.4046
 1006MOL0     C35691   8.196   6.951   4.092  0.4632  0.2405  0.4906
 1006MOL0     N35692   8.071   6.943   4.169  0.4828 -0.2338  0.2425
 1006MOL0     C35693   8.042   6.834   4.254  0.3176  0.0991  0.0705
 1006MOL0     C35694   7.912   6.855   4.290  1.6368 -0.4185  0.5313
 1006MOL0     C35695   7.819   6.757   4.360 -0.1680 -0.7836  0.4778
 1006MOL0     C35696   7.695   6.740   4.271  0.0015  0.2169  0.2359
 1006MOL0     C35697   7.674   6.598   4.197 -0.4542 -0.2642  0.2018
 1006MOL0     C35698   7.627   6.497   4.287  0.1079 -0.3030 -0.1983
 1006MOL0     O35699   7.502   6.545   4.347 -1.0472  0.5117  0.6135
 1006MOL0     C35700   7.390   6.467   4.327 -0.6668  0.1847 -0.6278
 1006MOL0     C35701   7.295   6.492   4.229  0.0360  0.9030  0.3035
 1006MOL0     C35702   7.192   6.397   4.199  0.2456 -0.3749 -0.0962
 1006MOL0     C35703   7.080   6.431   4.101 -0.9416 -0.5406 -0.0750
 1006MOL0     C35704   7.194   6.271   4.275 -0.1067  0.9890  0.3061
 1006MOL0     C35705   7.082   6.177   4.267  0.5507  0.6816  0.1943
 1006MOL0     O35706   7.061   6.105   4.389 -0.0710 -0.1361 -0.1483
 1006MOL0     C35707   6.931   6.051   4.409 -0.9863 -1.4474 -0.1058
 1006MOL0     C35708   6.911   5.937   4.479  0.1568  0.0817 -0.0061
 1006MOL0     C35709   6.778   5.890   4.518  0.5843 -0.9279  0.1378
 1006MOL0     C35710   6.666   5.966   4.482  0.5513 -0.1379 -0.1038
 1006MOL0     O35711   6.538   5.927   4.522 -0.1243  0.0332  0.2190
 1006MOL0     C35712   6.498   5.965   4.662  0.5001 -0.9132  0.4848
 1006MOL0     C35713   6.444   5.849   4.746 -0.6063 -0.2514 -0.2189
 1006MOL0     C35714   6.319   5.787   4.690 -0.1582  0.1620 -0.5402
 1006MOL0     C35715   6.230   5.712   4.801 -0.3907  0.6350  0.5637
 1006MOL0     C35716   6.102   5.645   4.742 -0.6320 -0.1351 -0.2199
 1006MOL0     C35717   6.052   5.554   4.858  0.3237 -0.1889  0.5980
 1006MOL0     C35718   5.939   5.465   4.815  0.5456  0.8814 -0.4248
 1006MOL0     C35719   5.933   5.339   4.904 -0.3143 -1.5058 -0.3356
 1006MOL0    Cl35720   5.780   5.234   4.887 -0.0976 -0.0990  0.3719
 1006MOL0     C35721   6.684   6.085   4.409  0.9051  0.5354  0.4917
 1006MOL0     C35722   6.812   6.125   4.374  0.0377 -0.9020  0.3736
 1006MOL0     O35723   7.021   6.166   4.158  0.3520  0.1591  0.5319
 1006MOL0     C35724   7.296   6.250   4.370  0.6222  0.9203  0.0406
 1006MOL0     C35725   7.387   6.349   4.403  0.2792  0.6384 -0.8979
 1006MOL0     N35726   7.875   6.984   4.251  0.0951 -0.1638 -0.2684
 1006MOL0     N35727   7.968   7.037   4.166  0.7236  0.8935  0.2746
 1006MOL0     C35728   8.523   7.647   3.843 -0.4282  0.2182 -0.0880
 1006MOL0     C35729   8.639   7.716   3.888  0.3659 -0.7209 -0.4413
 1006MOL0     C35730   9.055   7.781   4.117  0.4751  0.2663 -0.0205
 1006MOL0     C35731   9.175   7.723   4.166 -0.4527  0.5283  0.2425
 1006MOL0     C35732   9.262   7.800   4.235 -0.3271 -0.1436  0.1165
 1006MOL0     C35733   9.238   7.944   4.249 -0.4009  0.8399  0.4069
 1006MOL0     O35734   9.329   8.003   4.329  0.6045  0.0903 -0.2713
 1006MOL0     C35735   9.300   8.123   4.397 -0.4608 -0.3897 -0.5513
 1006MOL0     C35736   9.440   8.186   4.438  0.1844  0.3913  0.5082
 1006MOL0     C35737   9.515   8.109   4.547  0.4247 -0.1279  0.1756
 1006MOL0     C35738   9.628   8.183   4.626  0.6210 -1.0261  0.2582
 1006MOL0     C35739   9.562   8.270   4.728  0.1959  0.3350 -0.0107
 1006MOL0     C35740   9.492   8.336   4.804  0.2478  0.2798  0.4070
 1006MOL0     C35741   9.129   8.003   4.186  0.2271 -0.8540 -0.6419
 1006MOL0     C35742   9.031   7.925   4.132 -0.1791  0.4020  0.8885
 1006MOL0     H35743   8.758   7.508   4.117 -3.7405  0.3291  3.8222
 1006MOL0     H35744   8.565   7.381   4.047  0.1527  1.7396  2.1322
 1006MOL0     H35745   8.371   7.532   3.662  4.9537  0.3139 -2.0628
 1006MOL0     H35746   8.499   7.405   3.656  0.0978 -1.1850 -0.9041
 1006MOL0     H35747   8.203   7.342   3.675 -1.0521  0.9108 -3.7546
 1006MOL0     H35748   8.305   7.337   3.529 -0.2406  0.2842 -1.2187
 1006MOL0     H35749   8.438   7.167   3.597  1.5162  1.5770  2.4264
 1006MOL0     H35750   8.391   7.184   3.771 -0.1428  0.5956  1.1915
 1006MOL0     H35751   8.150   7.080   3.705 -1.5293 -1.3933 -2.2214
 1006MOL0     H35752   8.214   7.055   3.557 -3.8202  0.5894  0.6387
 1006MOL0     H35753   8.241   6.840   3.686  0.1104 -0.5226  2.5164
 1006MOL0     H35754   8.389   6.904   3.658 -1.6050  0.7521 -2.1179
 1006MOL0     H35755   8.369   6.836   3.894 -3.0064 -1.0176  1.5893
 1006MOL0     H35756   8.377   7.017   3.899 -1.3274  2.1079 -0.5013
 1006MOL0     H35757   8.114   6.987   3.903 -0.1243 -1.2308 -0.7355
 1006MOL0     H35758   8.144   6.813   3.926 -0.9685 -0.1385 -1.0063
 1006MOL0     H35759   8.246   7.048   4.098  2.4962 -0.5584 -1.8393
 1006MOL0     H35760   8.272   6.893   4.146 -0.4617 -1.8834 -0.3628
 1006MOL0     H35761   8.106   6.749   4.278  0.7889  0.3439 -0.3021
 1006MOL0     H35762   7.870   6.660   4.361 -0.8590 -1.1493  1.0075
 1006MOL0     H35763   7.781   6.797   4.454 -1.8452  1.9746 -1.2332
 1006MOL0     H35764   7.681   6.813   4.191 -0.9725 -1.0146 -0.7758
 1006MOL0     H35765   7.607   6.760   4.331 -0.6890  2.4039 -1.3887
 1006MOL0     H35766   7.769   6.571   4.152  0.2812  2.4518 -0.0484
 1006MOL0     H35767   7.596   6.602   4.120 -0.5240 -0.3831  0.2669
 1006MOL0     H35768   7.695   6.482   4.370 -2.2369 -1.7022  1.6056
 1006MOL0     H35769   7.610   6.408   4.225  1.3627 -0.3133 -0.5521
 1006MOL0     H35770   7.325   6.575   4.166 -1.2607  1.0066 -0.2135
 1006MOL0     H35771   6.983   6.454   4.146 -0.6361 -0.9827  0.8309
 1006MOL0     H35772   7.094   6.529   4.054 -2.2614 -1.2154 -1.9877
 1006MOL0     H35773   7.063   6.355   4.025 -2.1201 -2.5747  2.1171
 1006MOL0     H35774   7.000   5.884   4.512 -0.3921 -0.3165  0.8885
 1006MOL0     H35775   6.771   5.797   4.573 -2.1245 -0.9346 -0.1167
 1006MOL0     H35776   6.574   6.020   4.717 -3.1435  0.7568  4.4108
 1006MOL0     H35777   6.427   6.049   4.667  3.4938  1.8273  0.0696
 1006MOL0     H35778   6.519   5.769   4.751  0.4196  0.4012 -3.1459
 1006MOL0     H35779   6.430   5.889   4.846  2.6547  1.0040 -0.1561
 1006MOL0     H35780   6.359   5.711   4.623  2.2983  0.2697  0.6868
 1006MOL0     H35781   6.256   5.860   4.638 -0.3692 -1.6293 -2.9890
 1006MOL0     H35782   6.302   5.641   4.840  0.7654 -1.3910 -4.5204
 1006MOL0     H35783   6.212   5.783   4.883 -1.3071  1.6920 -0.5123
 1006MOL0     H35784   6.142   5.590   4.656 -0.1934  0.5378 -0.4613
 1006MOL0     H35785   6.034   5.724   4.709 -1.4082 -1.1416 -1.0808
 1006MOL0     H35786   6.128   5.480   4.882 -2.2264 -2.5030  2.0422
 1006MOL0     H35787   6.041   5.609   4.952  1.2143 -1.3100  1.3861
 1006MOL0     H35788   5.955   5.424   4.715  0.0037 -2.9425  0.8844
 1006MOL0     H35789   5.844   5.518   4.808  0.9312  1.3936 -2.3256
 1006MOL0     H35790   5.935   5.366   5.010  0.3589 -2.8081 -0.0039
 1006MOL0     H35791   6.013   5.267   4.886 -0.7028 -2.7450  2.4226
 1006MOL0     H35792   6.594   6.136   4.378 -2.5571 -4.5291  1.0590
 1006MOL0     H35793   6.826   6.217   4.318 -0.3797 -1.1504 -0.1410
 1006MOL0     H35794   7.291   6.157   4.425 -1.1682  0.0762 -1.4413
 1006MOL0     H35795   7.457   6.332   4.484 -1.6447 -1.0224  0.5348
 1006MOL0     H35796   8.457   7.690   3.767  0.5822  1.8190 -0.1035
 1006MOL0     H35797   8.645   7.812   3.838 -1.3304 -0.8215 -0.8899
 1006MOL0     H35798   9.193   7.617   4.156 -2.7209  0.2565 -2.2019
 1006MOL0     H35799   9.352   7.765   4.285  1.4797  3.6975 -0.0787
 1006MOL0     H35800   9.262   8.202   4.331  1.8407 -0.2034 -1.7715
 1006MOL0     H35801   9.232   8.106   4.480 -0.8253  1.8128 -0.3391
 1006MOL0     H35802   9.417   8.290   4.465 -1.0638 -0.2213  1.9347
 1006MOL0     H35803   9.497   8.189   4.345  0.9196  2.1767  0.9674
 1006MOL0     H35804   9.557   8.017   4.505 -1.1775  0.5118 -3.1948
 1006MOL0     H35805   9.444   8.075   4.623 -0.8338 -1.5873 -1.5525
 1006MOL0     H35806   9.693   8.244   4.563  1.0242  0.1294  1.7426
 1006MOL0     H35807   9.688   8.108   4.677  1.1894 -1.2448 -0.6977
 1006MOL0     H35808   9.431   8.400   4.865  2.2298 -0.6880  3.6627
 1006MOL0     H35809   9.098   8.105   4.206 -0.3148 -1.1992  0.3376
 1006MOL0     H35810   8.943   7.966   4.082  1.4660  1.4666 -1.3045
 1007MOL0     O35811   0.129   2.178   7.177  1.0170 -0.3869 -0.0714
 1007MOL0     C35812   0.020   2.118   7.165 -0.3590  0.8240  0.6188
 1007MOL0     O35813  -0.088   2.149   7.084 -0.1368  0.9870 -0.5961
 1007MOL0     C35814  -0.058   2.253   7.000 -0.5115 -0.4222  0.6988
 1007MOL0     C35815  -0.006   2.238   6.870  0.3413  0.3638  0.7316
 1007MOL0     C35816   0.010   2.352   6.785  0.8290 -0.0542 -0.5280
 1007MOL0     C35817  -0.000   2.474   6.842 -0.2815 -0.2883 -0.8019
 1007MOL0     O35818   0.013   2.584   6.755 -0.1848  0.4177  0.4271
 1007MOL0     C35819  -0.040   2.718   6.773 -0.2380  0.6125 -1.3754
 1007MOL0     C35820  -0.019   2.817   6.648  0.1708 -0.6423  0.0273
 1007MOL0     C35821  -0.086   2.769   6.518  0.9617 -0.0489  0.3018
 1007MOL0     C35822  -0.074   2.871   6.405  0.5989 -0.4724  0.6535
 1007MOL0     C35823  -0.149   2.829   6.283  0.1180  0.7963  0.2821
 1007MOL0     C35824  -0.151   2.943   6.176 -0.1861 -0.2690  0.9381
 1007MOL0     C35825  -0.215   2.899   6.042  0.0106  0.9859  0.0215
 1007MOL0     C35826  -0.148   2.780   5.969 -0.2778  0.3552 -0.0284
 1007MOL0     N35827  -0.156   2.772   5.821 -0.9324 -0.3555  0.2705
 1007MOL0     C35828  -0.116   2.858   5.725 -0.7112  0.4407 -0.7363
 1007MOL0     C35829  -0.110   2.781   5.609  0.1140 -0.1704  0.6764
 1007MOL0     C35830  -0.071   2.834   5.473 -0.3407  0.9242  0.0914
 1007MOL0     C35831  -0.193   2.827   5.373  0.3150  0.6699 -0.4500
 1007MOL0     C35832  -0.200   2.939   5.272 -0.3484 -0.2745  0.7234
 1007MOL0     C35833  -0.065   2.941   5.196  0.8010  0.2571 -0.0723
 1007MOL0     O35834  -0.038   2.820   5.129 -0.2606 -0.3454 -0.3333
 1007MOL0     C35835  -0.128   2.779   5.032 -0.5445  0.3018  0.3711
 1007MOL0     C35836  -0.178   2.856   4.926  1.5072  0.3373  0.1865
 1007MOL0     C35837  -0.293   2.819   4.850 -0.5061 -0.2868  0.3162
 1007MOL0     C35838  -0.348   2.925   4.755  0.5418  0.0837  0.4834
 1007MOL0     C35839  -0.350   2.689   4.877 -0.1125 -0.6487 -0.7898
 1007MOL0     C35840  -0.471   2.633   4.806 -0.0494 -0.2727  0.0461
 1007MOL0     O35841  -0.531   2.714   4.706  0.1817 -0.2163 -0.4735
 1007MOL0     C35842  -0.636   2.660   4.632 -0.4237  0.1340  0.1508
 1007MOL0     C35843  -0.613   2.570   4.532 -1.0625  0.7011  0.7065
 1007MOL0     C35844  -0.717   2.549   4.438  0.5091 -0.2222 -0.2878
 1007MOL0     C35845  -0.845   2.600   4.467  0.1425 -0.6036  0.4738
 1007MOL0     O35846  -0.939   2.568   4.365  0.2709  0.8250  0.6613
 1007MOL0     C35847  -1.071   2.600   4.373  0.6861  0.6071  0.8705
 1007MOL0     C35848  -1.143   2.517   4.276 -0.0186  0.3225 -0.0640
 1007MOL0     C35849  -1.294   2.547   4.282  0.0487  1.0393 -0.2076
 1007MOL0     C35850  -1.364   2.458   4.179  0.3539 -0.1810 -0.2638
 1007MOL0     C35851  -1.515   2.485   4.189  0.4041 -0.4827  0.7170
 1007MOL0     C35852  -1.594   2.388   4.099  0.0322  0.2560  0.6011
 1007MOL0     C35853  -1.744   2.403   4.100 -0.0913  0.6357 -0.1984
 1007MOL0     C35854  -1.823   2.308   4.005 -0.6590  0.7664 -0.5143
 1007MOL0    Cl35855  -1.994   2.300   4.046  0.1282  0.2921 -0.2011
 1007MOL0     C35856  -0.863   2.686   4.570  0.1757 -0.4649 -0.8641
 1007MOL0     C35857  -0.759   2.714   4.653  0.7271 -0.1935 -0.6813
 1007MOL0     O35858  -0.508   2.515   4.832  0.2581  0.4424  0.6260
 1007MOL0     C35859  -0.280   2.605   4.971 -0.2851 -0.1506  0.0431
 1007MOL0     C35860  -0.187   2.654   5.061  0.3418  0.4725 -0.0413
 1007MOL0     N35861  -0.167   2.658   5.646 -1.0256  0.9249  0.1469
 1007MOL0     N35862  -0.190   2.652   5.770  0.5014  0.1740 -0.2523
 1007MOL0     C35863  -0.050   2.494   6.977 -0.4348 -0.6438  0.7521
 1007MOL0     C35864  -0.077   2.381   7.051 -0.0873  0.6584 -0.0264
 1007MOL0     C35865  -0.001   2.000   7.260  0.4656  0.5011 -0.8401
 1007MOL0     C35866   0.107   1.953   7.337 -0.1075 -0.6309 -0.8218
 1007MOL0     C35867   0.092   1.852   7.429  0.1538 -0.7073 -0.0928
 1007MOL0     C35868  -0.029   1.781   7.435  0.3386  0.0090  0.0117
 1007MOL0     O35869  -0.040   1.699   7.545  0.4293 -0.1669 -1.0476
 1007MOL0     C35870  -0.164   1.654   7.589 -0.2907  0.7585  0.2465
 1007MOL0     C35871  -0.201   1.529   7.503 -0.7286 -0.1186 -0.2769
 1007MOL0     C35872  -0.306   1.437   7.559  0.0080 -0.4700 -0.3271
 1007MOL0     C35873  -0.445   1.470   7.512 -0.6963 -0.6165 -0.7300
 1007MOL0     C35874  -0.543   1.374   7.566 -0.1172  0.1335 -0.4882
 1007MOL0     C35875  -0.632   1.314   7.625  0.4290 -1.5646  0.9611
 1007MOL0     C35876  -0.132   1.819   7.349 -0.4743  0.3482 -0.2875
 1007MOL0     C35877  -0.119   1.922   7.261  0.0845 -0.5806  0.4176
 1007MOL0     H35878  -0.003   2.139   6.824 -1.8027  0.8151 -0.5510
 1007MOL0     H35879   0.025   2.348   6.677  1.5393  2.6537 -0.6035
 1007MOL0     H35880  -0.149   2.713   6.784 -0.0024 -0.7450  0.8557
 1007MOL0     H35881   0.006   2.776   6.854 -2.3517  0.3540  0.0923
 1007MOL0     H35882  -0.073   2.911   6.664 -1.2863 -0.7911 -3.1419
 1007MOL0     H35883   0.085   2.846   6.635 -0.3012  0.6551 -1.0565
 1007MOL0     H35884  -0.041   2.673   6.490 -0.5268 -0.6199 -0.2605
 1007MOL0     H35885  -0.191   2.747   6.540  0.7649 -0.1767 -0.6925
 1007MOL0     H35886  -0.116   2.967   6.434  0.0635 -0.7267  0.7273
 1007MOL0     H35887   0.030   2.886   6.374  0.9438 -1.3838  1.3076
 1007MOL0     H35888  -0.096   2.743   6.239  4.1019  3.6891 -1.2413
 1007MOL0     H35889  -0.254   2.819   6.310  0.8925  1.8011  4.2587
 1007MOL0     H35890  -0.196   3.028   6.227 -1.4563 -0.2647 -0.1456
 1007MOL0     H35891  -0.052   2.977   6.143  0.1036 -0.2690  1.8063
 1007MOL0     H35892  -0.318   2.871   6.065  0.9360  0.1753  3.8678
 1007MOL0     H35893  -0.215   2.978   5.966  2.4499  1.1619  0.1228
 1007MOL0     H35894  -0.197   2.689   6.004 -1.1913  0.8237 -0.0604
 1007MOL0     H35895  -0.044   2.773   6.003  0.1537  2.9363 -0.5660
 1007MOL0     H35896  -0.085   2.960   5.749 -2.8306  0.4357  2.7990
 1007MOL0     H35897  -0.034   2.937   5.472  2.3384  0.0364 -0.0750
 1007MOL0     H35898   0.003   2.764   5.434 -0.4852 -0.0301  1.4483
 1007MOL0     H35899  -0.291   2.840   5.420 -0.3428 -2.4992 -0.7115
 1007MOL0     H35900  -0.198   2.724   5.335  1.7238  0.2246  0.4943
 1007MOL0     H35901  -0.219   3.035   5.321 -1.9068 -1.1477  1.9050
 1007MOL0     H35902  -0.288   2.919   5.210  0.8824 -3.1105 -0.2821
 1007MOL0     H35903   0.023   2.968   5.254  0.2530  3.0885 -0.4011
 1007MOL0     H35904  -0.075   3.026   5.127 -0.7432  1.4390  1.5103
 1007MOL0     H35905  -0.144   2.960   4.926 -0.1693  0.9816  2.6313
 1007MOL0     H35906  -0.437   2.977   4.790 -0.0549 -0.1225 -0.6684
 1007MOL0     H35907  -0.287   3.014   4.740 -2.7478  2.2456 -1.1773
 1007MOL0     H35908  -0.370   2.891   4.653  1.6699  2.0998 -0.4912
 1007MOL0     H35909  -0.507   2.547   4.520 -0.7000  1.5491  2.0850
 1007MOL0     H35910  -0.703   2.491   4.347  3.0485  1.2650 -0.9375
 1007MOL0     H35911  -1.117   2.574   4.468 -0.7147  0.8170  0.2704
 1007MOL0     H35912  -1.080   2.706   4.348  1.8697  0.4452 -0.3897
 1007MOL0     H35913  -1.109   2.552   4.179  0.2864  0.1269 -0.0274
 1007MOL0     H35914  -1.122   2.411   4.292 -0.4414  0.4112  1.2876
 1007MOL0     H35915  -1.314   2.653   4.262 -0.5559  1.0105  0.2350
 1007MOL0     H35916  -1.338   2.537   4.381 -1.3050 -4.0214 -1.0653
 1007MOL0     H35917  -1.329   2.457   4.075 -1.2707 -1.8464 -0.8559
 1007MOL0     H35918  -1.332   2.360   4.214 -0.5567  0.1184  1.5119
 1007MOL0     H35919  -1.536   2.585   4.149 -0.0812 -1.6366 -2.1235
 1007MOL0     H35920  -1.545   2.482   4.294  4.2896 -1.2886  1.9700
 1007MOL0     H35921  -1.552   2.400   3.999  1.1640 -1.2405  0.8644
 1007MOL0     H35922  -1.575   2.284   4.125  0.1603 -0.7414 -3.0051
 1007MOL0     H35923  -1.777   2.505   4.081 -2.0233  0.2402  0.8068
 1007MOL0     H35924  -1.765   2.383   4.205  3.0687  0.5072  0.5064
 1007MOL0     H35925  -1.786   2.205   4.011  1.3004  1.4470 -0.3631
 1007MOL0     H35926  -1.811   2.334   3.899 -0.9535 -1.6288 -1.2048
 1007MOL0     H35927  -0.958   2.733   4.589 -0.0955 -1.5494  0.6790
 1007MOL0     H35928  -0.780   2.774   4.741 -0.4814 -0.0816 -1.0246
 1007MOL0     H35929  -0.312   2.503   4.993 -2.0380  0.7784  2.2886
 1007MOL0     H35930  -0.147   2.589   5.139 -1.0601 -1.2996 -0.7081
 1007MOL0     H35931  -0.046   2.590   7.028 -1.8970  0.0736 -0.4093
 1007MOL0     H35932  -0.091   2.403   7.156  3.4751  1.9856  0.3161
 1007MOL0     H35933   0.205   1.996   7.318 -0.2297 -1.2188 -3.1643
 1007MOL0     H35934   0.186   1.823   7.475  1.6574 -1.5609 -3.3988
 1007MOL0     H35935  -0.137   1.617   7.688  1.3652  0.9501 -0.1090
 1007MOL0     H35936  -0.245   1.727   7.597  1.6617  3.1905 -0.7590
 1007MOL0     H35937  -0.120   1.456   7.493 -2.0050 -1.7776  0.9447
 1007MOL0     H35938  -0.228   1.553   7.399 -2.2320 -2.0403 -0.3969
 1007MOL0     H35939  -0.289   1.444   7.667  1.5433 -4.0872 -0.2034
 1007MOL0     H35940  -0.282   1.335   7.527 -2.6274 -2.2612  2.8164
 1007MOL0     H35941  -0.457   1.489   7.405  1.5361  2.6755 -0.5555
 1007MOL0     H35942  -0.466   1.569   7.554 -0.2533  0.1350 -2.1849
 1007MOL0     H35943  -0.722   1.293   7.679  0.4445  1.2233  2.2993
 1007MOL0     H35944  -0.226   1.764   7.352  0.2941 -1.0803 -1.0288
 1007MOL0     H35945  -0.209   1.953   7.209 -0.0873 -0.7140  0.6340
 1008MOL0     O35946   7.168   5.286   1.554 -0.4966 -0.1480 -0.2279
 1008MOL0     C35947   7.119   5.274   1.663  0.5809  0.4464 -0.0152
 1008MOL0     O35948   7.184   5.232   1.769 -0.6424  0.5354  0.1914
 1008MOL0     C35949   7.311   5.187   1.748 -0.6450 -0.1085 -0.7223
 1008MOL0     C35950   7.333   5.058   1.720 -0.5293 -0.0225  0.3058
 1008MOL0     C35951   7.460   4.992   1.740 -0.7144 -0.7038 -0.3728
 1008MOL0     C35952   7.562   5.069   1.780 -0.1277 -0.6053 -0.8782
 1008MOL0     O35953   7.693   5.026   1.798  0.6104 -0.1541 -0.3168
 1008MOL0     C35954   7.729   4.903   1.747 -0.3141 -0.3575  0.3031
 1008MOL0     C35955   7.712   4.790   1.844 -0.2147 -0.0911  0.0426
 1008MOL0     C35956   7.782   4.812   1.978 -0.1716  0.0391  0.4620
 1008MOL0     C35957   7.770   4.685   2.057  0.4618  0.2138  0.5012
 1008MOL0     C35958   7.831   4.693   2.195 -0.9953  0.4773 -0.6785
 1008MOL0     C35959   7.811   4.560   2.273 -0.2714  0.3826  0.6093
 1008MOL0     C35960   7.887   4.441   2.208  0.2080  0.0027  0.1890
 1008MOL0     C35961   7.823   4.325   2.288 -0.7566 -0.1079  0.0050
 1008MOL0     N35962   7.854   4.197   2.230  0.5471  0.4567  0.0437
 1008MOL0     C35963   7.936   4.106   2.288  0.2671 -0.0921  0.4046
 1008MOL0     C35964   7.924   3.995   2.205  0.6737 -0.1717  0.2471
 1008MOL0     C35965   7.998   3.862   2.233  0.1155 -0.3064  0.6543
 1008MOL0     C35966   7.933   3.741   2.153 -0.4487 -0.1507 -0.7036
 1008MOL0     C35967   8.002   3.609   2.199 -0.5257 -0.7256  0.1474
 1008MOL0     C35968   7.941   3.484   2.126 -0.0238  0.1328  0.5375
 1008MOL0     O35969   7.818   3.453   2.192  0.5178 -0.4488  0.3341
 1008MOL0     C35970   7.706   3.414   2.113 -0.1595 -0.2037 -0.3311
 1008MOL0     C35971   7.698   3.347   1.992 -0.1069 -0.2998  0.0984
 1008MOL0     C35972   7.572   3.320   1.934 -0.3567  0.1675 -0.9234
 1008MOL0     C35973   7.563   3.258   1.805  0.7047 -0.3538  0.3272
 1008MOL0     C35974   7.450   3.363   2.007 -0.1590  0.8756  0.4007
 1008MOL0     C35975   7.308   3.357   1.950  0.0507 -0.1173  0.3423
 1008MOL0     O35976   7.205   3.390   2.019 -0.4621  0.1198 -0.1664
 1008MOL0     C35977   7.082   3.422   1.963 -0.6378  0.5759 -0.9050
 1008MOL0     C35978   7.059   3.460   1.832 -0.3620  0.9492  0.1974
 1008MOL0     C35979   6.932   3.497   1.791 -0.8663 -0.3261 -0.6594
 1008MOL0     C35980   6.821   3.505   1.869 -0.8342 -0.5737  0.2220
 1008MOL0     O35981   6.692   3.542   1.835 -0.4026 -0.2987  0.4059
 1008MOL0     C35982   6.686   3.648   1.744 -0.0633 -0.0921 -0.1188
 1008MOL0     C35983   6.537   3.696   1.753  0.1613 -0.0664  0.0173
 1008MOL0     C35984   6.425   3.598   1.694 -0.0539 -0.4480  0.0921
 1008MOL0     C35985   6.301   3.689   1.684  1.1228  0.5150  0.3329
 1008MOL0     C35986   6.183   3.621   1.609 -0.0047  0.5962  1.0655
 1008MOL0     C35987   6.043   3.679   1.636 -0.5348 -0.0523  0.1414
 1008MOL0     C35988   5.935   3.631   1.536 -0.0648  0.0173  0.3135
 1008MOL0     C35989   5.818   3.586   1.606  0.5357 -0.7868 -0.3945
 1008MOL0    Cl35990   5.714   3.727   1.653  0.2997  0.3398  0.3267
 1008MOL0     C35991   6.848   3.454   1.997 -1.2942  0.0221 -0.4775
 1008MOL0     C35992   6.972   3.415   2.043 -0.0078 -0.2120  0.1452
 1008MOL0     O35993   7.304   3.312   1.831  0.5508 -0.5596  0.9502
 1008MOL0     C35994   7.461   3.413   2.134 -0.7312  1.1205 -0.2129
 1008MOL0     C35995   7.592   3.444   2.182  1.3183  0.5445  0.0431
 1008MOL0     N35996   7.845   4.031   2.095  0.1642  0.4889 -0.2618
 1008MOL0     N35997   7.802   4.150   2.105 -0.7226 -0.4213 -0.5512
 1008MOL0     C35998   7.551   5.208   1.807  0.2121  0.7832  0.3106
 1008MOL0     C35999   7.427   5.265   1.783  1.2934 -0.1860  0.9067
 1008MOL0     C36000   6.978   5.302   1.680  0.2425 -0.0731  0.4281
 1008MOL0     C36001   6.929   5.303   1.813  0.5712 -0.0844 -0.1350
 1008MOL0     C36002   6.795   5.342   1.845  0.0759 -0.6733  0.2189
 1008MOL0     C36003   6.710   5.365   1.740  0.8527 -0.1632 -0.2840
 1008MOL0     O36004   6.579   5.403   1.760 -0.1090 -0.1629 -0.1896
 1008MOL0     C36005   6.518   5.388   1.895  1.0157  0.5686  1.2417
 1008MOL0     C36006   6.363   5.396   1.859  1.0771 -0.3079  1.1761
 1008MOL0     C36007   6.271   5.372   1.986  0.0530  0.1716 -0.8610
 1008MOL0     C36008   6.125   5.412   1.976 -0.0813 -0.4973 -0.5120
 1008MOL0     C36009   6.111   5.558   1.979  0.4271  0.8450 -0.5529
 1008MOL0     C36010   6.086   5.680   1.979 -0.2269 -0.6968 -1.2140
 1008MOL0     C36011   6.749   5.353   1.609 -0.2076  0.4952 -0.1613
 1008MOL0     C36012   6.879   5.328   1.570 -0.4119 -0.4807 -0.7208
 1008MOL0     H36013   7.244   5.004   1.690 -1.8781  0.8834  2.4351
 1008MOL0     H36014   7.478   4.887   1.720  2.4096  0.1647 -3.0375
 1008MOL0     H36015   7.686   4.872   1.651 -2.2681 -0.3766  1.1280
 1008MOL0     H36016   7.832   4.897   1.711 -0.2809  1.2227  0.0433
 1008MOL0     H36017   7.606   4.777   1.863 -0.0465 -0.8638  0.4827
 1008MOL0     H36018   7.746   4.697   1.798 -0.9394  0.2173 -1.1497
 1008MOL0     H36019   7.888   4.825   1.954 -0.2729 -0.1050 -0.0684
 1008MOL0     H36020   7.750   4.899   2.035  1.9497 -0.0357  1.8918
 1008MOL0     H36021   7.667   4.648   2.061  0.1957  0.6041 -1.5387
 1008MOL0     H36022   7.823   4.609   1.998  0.6768 -0.4207  1.4859
 1008MOL0     H36023   7.937   4.716   2.184 -0.2125 -3.0328 -1.5367
 1008MOL0     H36024   7.787   4.776   2.251  1.8413  0.0729  2.4971
 1008MOL0     H36025   7.839   4.573   2.378 -1.6234  2.4779  0.7761
 1008MOL0     H36026   7.704   4.543   2.259 -0.1201  1.0003 -1.7725
 1008MOL0     H36027   7.859   4.445   2.103 -2.2415  2.0753  0.8086
 1008MOL0     H36028   7.997   4.446   2.211  0.2443  0.9032 -1.4548
 1008MOL0     H36029   7.714   4.329   2.300 -0.9668 -4.8420  1.8152
 1008MOL0     H36030   7.865   4.327   2.388 -0.7626  4.8764  0.1187
 1008MOL0     H36031   7.992   4.107   2.381  1.3458 -0.1428 -0.2228
 1008MOL0     H36032   8.103   3.860   2.202 -0.0087 -0.2418  0.2288
 1008MOL0     H36033   7.987   3.822   2.334 -2.6295 -2.1704 -0.2779
 1008MOL0     H36034   7.942   3.748   2.045 -0.5190  0.4889 -0.6775
 1008MOL0     H36035   7.826   3.750   2.177 -0.9659 -0.5484 -2.7249
 1008MOL0     H36036   7.984   3.605   2.306  1.1016 -0.4254  0.4549
 1008MOL0     H36037   8.109   3.618   2.178 -0.7288 -0.5674 -0.8940
 1008MOL0     H36038   8.016   3.404   2.131  1.5357  1.5470  0.6303
 1008MOL0     H36039   7.928   3.488   2.017  0.6352  0.0696  0.4541
 1008MOL0     H36040   7.787   3.312   1.941  0.8940  1.1308  0.8295
 1008MOL0     H36041   7.523   3.156   1.806  1.6029 -0.7200  0.0724
 1008MOL0     H36042   7.502   3.323   1.741  0.4769 -0.7580  0.1221
 1008MOL0     H36043   7.665   3.257   1.767  0.8031 -0.1949  0.5879
 1008MOL0     H36044   7.142   3.432   1.768 -0.2309 -2.1689  1.5147
 1008MOL0     H36045   6.926   3.510   1.684 -0.2180 -0.9562 -0.7822
 1008MOL0     H36046   6.748   3.732   1.779  0.3697 -0.8159  0.8914
 1008MOL0     H36047   6.717   3.606   1.648  0.1018 -1.3263  0.4580
 1008MOL0     H36048   6.527   3.718   1.860  2.7612  2.3086 -0.0781
 1008MOL0     H36049   6.524   3.790   1.699 -2.0598 -0.0913  0.4462
 1008MOL0     H36050   6.409   3.501   1.740 -2.5337 -0.1758 -0.0896
 1008MOL0     H36051   6.452   3.581   1.589  0.3720  2.2714 -0.3148
 1008MOL0     H36052   6.281   3.708   1.790  2.3054 -0.1987  0.7039
 1008MOL0     H36053   6.325   3.777   1.625 -3.1676  1.9640  0.3789
 1008MOL0     H36054   6.178   3.516   1.640 -0.6355  0.6912  1.3035
 1008MOL0     H36055   6.200   3.619   1.501 -0.2547 -0.3654  1.0336
 1008MOL0     H36056   6.015   3.662   1.740 -0.2433  1.4664  0.5006
 1008MOL0     H36057   6.037   3.788   1.630 -3.0917 -0.1021  0.4082
 1008MOL0     H36058   5.981   3.557   1.470 -0.6019  1.9328 -2.3894
 1008MOL0     H36059   5.913   3.713   1.467 -2.5853 -1.7871 -1.2085
 1008MOL0     H36060   5.851   3.531   1.694  0.6419 -0.8380 -0.4666
 1008MOL0     H36061   5.751   3.525   1.544 -2.2984  1.4190  0.2982
 1008MOL0     H36062   6.777   3.428   2.075 -0.8856  0.0135 -0.0978
 1008MOL0     H36063   6.965   3.365   2.140 -3.8352  1.4427  0.9031
 1008MOL0     H36064   7.377   3.446   2.193 -0.2213  2.0471  0.0198
 1008MOL0     H36065   7.604   3.511   2.267 -0.1605  1.6041 -0.5369
 1008MOL0     H36066   7.646   5.250   1.838  2.0854 -0.6991 -2.9688
 1008MOL0     H36067   7.408   5.370   1.804  0.6681 -0.0364 -0.2855
 1008MOL0     H36068   7.000   5.287   1.894  0.2516 -0.9304 -0.0140
 1008MOL0     H36069   6.763   5.357   1.947 -0.1739 -1.3076  0.2339
 1008MOL0     H36070   6.554   5.296   1.944  0.2982  0.9698  2.5667
 1008MOL0     H36071   6.543   5.469   1.964  1.6122 -0.7843  2.6857
 1008MOL0     H36072   6.341   5.316   1.787  3.5378  1.2417 -1.4930
 1008MOL0     H36073   6.342   5.493   1.814  2.1806 -0.8825 -0.6813
 1008MOL0     H36074   6.317   5.433   2.064  0.5669 -2.2485  0.8529
 1008MOL0     H36075   6.280   5.265   2.009  0.0934  0.4910  0.6965
 1008MOL0     H36076   6.073   5.375   2.064  0.7485 -1.5559 -0.4509
 1008MOL0     H36077   6.085   5.368   1.884 -1.8589  1.2740 -0.6564
 1008MOL0     H36078   6.062   5.785   1.977  0.6707 -0.4759 -1.0707
 1008MOL0     H36079   6.673   5.368   1.533  0.2611 -0.2909 -0.8064
 1008MOL0     H36080   6.902   5.329   1.464 -2.2394 -1.9986 -1.1901
 1009MOL0     O36081   6.907  11.067   1.368  0.2279 -0.0013  0.8309
 1009MOL0     C36082   6.818  11.139   1.330  0.4792  0.1285  0.2651
 1009MOL0     O36083   6.845  11.256   1.252 -0.0660  0.1213  0.8324
 1009MOL0     C36084   6.973  11.277   1.200  0.2792  0.5414 -0.1871
 1009MOL0     C36085   7.089  11.276   1.271  0.1897 -0.1844 -0.6058
 1009MOL0     C36086   7.206  11.322   1.215  0.6400  0.1939  0.3371
 1009MOL0     C36087   7.207  11.366   1.084  0.4626  0.2447 -0.2857
 1009MOL0     O36088   7.328  11.405   1.038 -0.0450  0.0683  0.8495
 1009MOL0     C36089   7.332  11.461   0.906 -0.2510 -0.9358 -0.6359
 1009MOL0     C36090   7.483  11.485   0.875 -0.3063 -0.1859 -0.4885
 1009MOL0     C36091   7.473  11.550   0.735  0.0453 -0.8154  0.5367
 1009MOL0     C36092   7.597  11.581   0.660  0.3757 -1.1287 -0.0892
 1009MOL0     C36093   7.676  11.699   0.712  0.0407  0.5301 -0.9206
 1009MOL0     C36094   7.805  11.722   0.622 -0.3487 -0.0058 -0.0515
 1009MOL0     C36095   7.871  11.865   0.649 -0.0324 -0.0188 -0.4108
 1009MOL0     C36096   7.918  11.896   0.790  0.4268  0.0592  1.4408
 1009MOL0     N36097   7.812  11.916   0.879  0.1809 -0.2711  0.1286
 1009MOL0     C36098   7.705  11.995   0.856  0.3174  0.0654 -0.4944
 1009MOL0     C36099   7.620  11.967   0.953 -0.8940  0.5437 -0.0482
 1009MOL0     C36100   7.476  12.019   0.945 -1.0915  0.4495 -0.7130
 1009MOL0     C36101   7.411  11.998   1.090 -0.5449 -0.4628 -0.2649
 1009MOL0     C36102   7.260  12.063   1.086  0.1790  0.6213  0.1453
 1009MOL0     C36103   7.183  11.966   1.172  0.5338  0.2569 -0.1567
 1009MOL0     O36104   7.066  12.027   1.217 -0.4521  0.6048  0.3221
 1009MOL0     C36105   6.962  11.937   1.225 -0.6279 -0.1129  0.3085
 1009MOL0     C36106   6.976  11.800   1.252 -0.0721  0.8656 -0.4398
 1009MOL0     C36107   6.851  11.722   1.270  0.3741 -0.4095 -0.3308
 1009MOL0     C36108   6.869  11.578   1.317 -1.3175 -0.1297  0.2007
 1009MOL0     C36109   6.727  11.780   1.237 -0.0310 -0.8551 -0.2046
 1009MOL0     C36110   6.596  11.698   1.233  0.5967 -0.3994  0.6420
 1009MOL0     O36111   6.474  11.769   1.233  0.3024  0.1170  0.8296
 1009MOL0     C36112   6.360  11.697   1.200 -0.2541 -0.8917  0.0630
 1009MOL0     C36113   6.348  11.653   1.072 -0.5269 -0.7415  0.4362
 1009MOL0     C36114   6.241  11.578   1.039  0.2589  0.9947 -0.4872
 1009MOL0     C36115   6.150  11.525   1.139 -0.6145 -0.0415  0.2308
 1009MOL0     O36116   6.055  11.438   1.116  0.3466  0.5483  0.4569
 1009MOL0     C36117   6.047  11.366   0.986 -0.2722  0.0735 -0.5257
 1009MOL0     C36118   5.944  11.249   1.003  0.8509 -0.5646 -0.3438
 1009MOL0     C36119   5.936  11.148   0.890  0.5961  0.4090 -0.0126
 1009MOL0     C36120   6.004  11.014   0.919 -0.0474 -0.1571 -1.1573
 1009MOL0     C36121   5.987  10.910   0.816  0.4845 -0.4647  0.1520
 1009MOL0     C36122   6.087  10.793   0.823  0.1779 -0.4492 -0.4827
 1009MOL0     C36123   6.099  10.716   0.694 -0.1215  0.3573  0.2498
 1009MOL0     C36124   6.213  10.617   0.684  0.0206  0.2066  0.6802
 1009MOL0    Cl36125   6.234  10.531   0.522 -0.3635 -0.2742 -0.0880
 1009MOL0     C36126   6.175  11.557   1.270 -0.1795  0.0802 -0.2656
 1009MOL0     C36127   6.268  11.659   1.296  0.0031 -0.4175  0.6633
 1009MOL0     O36128   6.608  11.576   1.225 -0.2245  0.3342 -0.6977
 1009MOL0     C36129   6.724  11.914   1.217  0.1476 -0.4486  0.0585
 1009MOL0     C36130   6.840  11.998   1.211  0.2851 -0.4011  1.0456
 1009MOL0     N36131   7.683  11.877   1.040  0.6384 -0.7100 -0.3057
 1009MOL0     N36132   7.797  11.840   0.985 -0.0707  0.3826 -0.8133
 1009MOL0     C36133   7.092  11.355   1.009  0.1681 -0.0420  0.2477
 1009MOL0     C36134   6.970  11.313   1.059 -0.2037 -0.6181 -0.2704
 1009MOL0     C36135   6.675  11.110   1.372  0.2240 -1.2578  0.2592
 1009MOL0     C36136   6.624  10.979   1.414  0.4561 -0.2250 -0.0244
 1009MOL0     C36137   6.496  10.957   1.454  0.6143  0.3255 -0.1911
 1009MOL0     C36138   6.415  11.073   1.465  0.3498  1.1953 -0.6225
 1009MOL0     O36139   6.280  11.059   1.491  0.7837 -0.9796  0.2267
 1009MOL0     C36140   6.222  10.928   1.495  0.0784  0.3012 -0.7131
 1009MOL0     C36141   6.217  10.860   1.361 -0.5706 -0.6481 -0.2210
 1009MOL0     C36142   6.103  10.759   1.358  0.7461 -0.7109 -0.7185
 1009MOL0     C36143   6.083  10.713   1.208  0.8431  0.8031  0.3030
 1009MOL0     C36144   6.165  10.602   1.163 -0.5864  0.4122 -0.5463
 1009MOL0     C36145   6.246  10.515   1.137  0.1596 -0.4031  0.4350
 1009MOL0     C36146   6.450  11.194   1.415  0.1012  0.6528  0.6397
 1009MOL0     C36147   6.578  11.220   1.378 -0.5363  0.5773 -0.2592
 1009MOL0     H36148   7.092  11.243   1.374 -0.6589  1.0582 -0.1526
 1009MOL0     H36149   7.301  11.318   1.268  0.3617  1.7545  0.9907
 1009MOL0     H36150   7.294  11.383   0.840 -0.7609 -1.9960  0.8616
 1009MOL0     H36151   7.264  11.546   0.901 -1.5028 -1.7941  0.9645
 1009MOL0     H36152   7.525  11.550   0.952 -0.5880  0.0217 -0.5091
 1009MOL0     H36153   7.536  11.390   0.873  1.8934  0.9387  0.9409
 1009MOL0     H36154   7.427  11.479   0.665  3.1129 -0.7776 -1.7316
 1009MOL0     H36155   7.410  11.639   0.740 -1.4271 -1.6460 -1.4692
 1009MOL0     H36156   7.665  11.495   0.668  0.6634 -0.8796  0.1910
 1009MOL0     H36157   7.567  11.609   0.559 -3.7587 -0.8304  1.0441
 1009MOL0     H36158   7.609  11.785   0.700 -0.4411  0.0378 -1.9463
 1009MOL0     H36159   7.719  11.685   0.811  2.4467  0.5380 -1.8950
 1009MOL0     H36160   7.873  11.638   0.635  0.0779  0.5056  1.1734
 1009MOL0     H36161   7.781  11.722   0.515 -0.1062  2.4070 -0.1582
 1009MOL0     H36162   7.961  11.860   0.587  1.2587  1.9085  1.1849
 1009MOL0     H36163   7.815  11.946   0.602  2.9660  1.1141 -2.3327
 1009MOL0     H36164   7.982  11.985   0.788 -2.7610  2.5385  0.3694
 1009MOL0     H36165   7.970  11.804   0.817  0.0489 -0.6939 -0.2474
 1009MOL0     H36166   7.696  12.058   0.768  2.8244 -1.7010 -2.1499
 1009MOL0     H36167   7.478  12.125   0.916 -1.0035  0.3090 -1.2429
 1009MOL0     H36168   7.426  11.972   0.859 -0.6034 -0.6635 -0.4070
 1009MOL0     H36169   7.479  12.046   1.160 -1.3593  0.2420  0.0644
 1009MOL0     H36170   7.399  11.892   1.116 -2.1859  0.2237  2.0856
 1009MOL0     H36171   7.215  12.068   0.986 -2.6421  2.0430  1.3629
 1009MOL0     H36172   7.275  12.153   1.146  2.3357 -0.5831  1.5142
 1009MOL0     H36173   7.241  11.925   1.255  0.1156 -1.6965 -0.7737
 1009MOL0     H36174   7.160  11.889   1.098  0.0339  1.7060 -1.5640
 1009MOL0     H36175   7.074  11.754   1.257 -0.6512 -0.3939 -0.1990
 1009MOL0     H36176   6.957  11.569   1.382  1.4963  4.6179 -2.4063
 1009MOL0     H36177   6.788  11.537   1.377 -0.9720  2.1835  2.3967
 1009MOL0     H36178   6.893  11.525   1.224  0.1318  2.6770 -1.1680
 1009MOL0     H36179   6.406  11.678   0.984  1.7004 -2.5263  1.3136
 1009MOL0     H36180   6.230  11.564   0.932  1.7320  0.3582 -0.5790
 1009MOL0     H36181   6.010  11.432   0.907  0.3350  0.7937 -0.2180
 1009MOL0     H36182   6.138  11.312   0.958 -0.9298 -1.4466  0.1630
 1009MOL0     H36183   5.967  11.191   1.094 -1.8832  1.3726  1.7293
 1009MOL0     H36184   5.844  11.290   1.016 -0.0284 -2.8654  0.6746
 1009MOL0     H36185   5.973  11.184   0.794 -1.2424 -1.6150 -1.5978
 1009MOL0     H36186   5.831  11.122   0.872  0.8192  0.6773 -1.9179
 1009MOL0     H36187   6.113  11.024   0.927 -0.0155 -1.0629 -0.2797
 1009MOL0     H36188   5.979  10.989   1.023  5.3706  1.2645  0.8305
 1009MOL0     H36189   5.977  10.969   0.725 -0.7235  0.6183  0.9495
 1009MOL0     H36190   5.882  10.880   0.818 -0.0638  1.3445  1.5502
 1009MOL0     H36191   6.186  10.830   0.853 -0.6165  1.6973 -0.3031
 1009MOL0     H36192   6.053  10.732   0.907 -2.2127 -0.3642 -1.3102
 1009MOL0     H36193   6.105  10.788   0.613 -1.4604  1.9240  1.4654
 1009MOL0     H36194   6.006  10.660   0.682  0.7653 -0.9530 -0.7123
 1009MOL0     H36195   6.200  10.550   0.769 -0.4755 -1.1558 -0.4412
 1009MOL0     H36196   6.310  10.667   0.692  1.9516 -3.4058  1.8415
 1009MOL0     H36197   6.115  11.511   1.348 -1.0041  2.1269  0.3899
 1009MOL0     H36198   6.292  11.679   1.400 -0.5511 -0.1430  0.7422
 1009MOL0     H36199   6.628  11.958   1.191 -0.2319 -1.1314  0.2931
 1009MOL0     H36200   6.844  12.104   1.188  3.2462 -0.5652  0.3563
 1009MOL0     H36201   7.086  11.386   0.905  1.1107 -1.2717 -0.1943
 1009MOL0     H36202   6.879  11.321   1.000 -0.0584 -1.1568 -0.5727
 1009MOL0     H36203   6.680  10.888   1.402  0.3916 -0.4614  1.3055
 1009MOL0     H36204   6.471  10.859   1.494  2.5046 -0.4756 -0.8547
 1009MOL0     H36205   6.266  10.863   1.571  2.3028 -0.7552 -2.7537
 1009MOL0     H36206   6.118  10.954   1.516  0.3896  3.3444 -2.3741
 1009MOL0     H36207   6.304  10.796   1.345 -2.7553 -3.7872 -0.2597
 1009MOL0     H36208   6.212  10.948   1.296  2.9960  1.6200  2.1381
 1009MOL0     H36209   6.008  10.800   1.392  0.5169 -1.0303 -0.9618
 1009MOL0     H36210   6.119  10.674   1.425  1.3153  0.6012  0.8914
 1009MOL0     H36211   6.088  10.802   1.146 -1.3621 -0.1161 -1.3092
 1009MOL0     H36212   5.980  10.675   1.213  0.5248  1.5941 -0.1029
 1009MOL0     H36213   6.301  10.425   1.122 -0.4221 -1.0369  1.9256
 1009MOL0     H36214   6.367  11.264   1.420 -1.5482 -1.1176 -0.5998
 1009MOL0     H36215   6.611  11.318   1.345  0.3023  0.8066  1.1737
 1010MOL0     O36216   5.779   9.183   0.039 -0.2333 -0.3234 -0.2065
 1010MOL0     C36217   5.756   9.066   0.064  0.4771 -0.2864 -0.3914
 1010MOL0     O36218   5.633   9.014   0.083 -0.0571  0.6644  0.2884
 1010MOL0     C36219   5.507   9.067   0.043 -0.0225 -0.4231 -0.1247
 1010MOL0     C36220   5.386   9.005   0.100 -0.2471 -0.6247 -0.8278
 1010MOL0     C36221   5.264   9.070   0.081  0.2262  1.1673 -0.1498
 1010MOL0     C36222   5.244   9.182  -0.001 -0.2729 -0.6958 -0.2656
 1010MOL0     O36223   5.131   9.251  -0.013 -0.2951 -0.5038 -0.1122
 1010MOL0     C36224   5.000   9.192   0.007 -0.6587 -1.0564  0.6493
 1010MOL0     C36225   4.881   9.263  -0.062  0.2628  1.4432  0.8122
 1010MOL0     C36226   4.739   9.198  -0.038 -0.2973  0.3594 -0.9057
 1010MOL0     C36227   4.617   9.278  -0.092 -0.0494  0.0848 -0.0456
 1010MOL0     C36228   4.492   9.191  -0.083 -0.5392 -0.6870  0.1875
 1010MOL0     C36229   4.371   9.280  -0.128 -0.6465  0.8459  0.1609
 1010MOL0     C36230   4.241   9.193  -0.142 -1.0549  0.9923 -0.3238
 1010MOL0     C36231   4.197   9.121  -0.013  0.0303  0.6862 -0.1971
 1010MOL0     N36232   4.060   9.155   0.040  0.1834 -0.9311 -0.0747
 1010MOL0     C36233   3.954   9.073   0.046  0.8065 -0.3407 -0.4490
 1010MOL0     C36234   3.870   9.132   0.131  0.7743 -0.3733  0.1292
 1010MOL0     C36235   3.747   9.067   0.177 -0.2157  0.3231  0.0180
 1010MOL0     C36236   3.689   9.162   0.287 -0.4017  0.8790 -0.1691
 1010MOL0     C36237   3.569   9.095   0.368  0.7627  0.1606  0.9228
 1010MOL0     C36238   3.621   9.000   0.474 -0.8249  0.1907  0.1911
 1010MOL0     O36239   3.522   8.900   0.525  0.2925  0.0442 -0.0190
 1010MOL0     C36240   3.493   8.787   0.456  0.3928 -0.0491  0.0158
 1010MOL0     C36241   3.392   8.706   0.513 -0.5086 -0.0200  0.9167
 1010MOL0     C36242   3.340   8.600   0.450  0.1757  0.5173 -0.5085
 1010MOL0     C36243   3.245   8.510   0.532 -0.6286 -0.1163  0.1237
 1010MOL0     C36244   3.376   8.576   0.310 -0.7964 -0.2447  0.0572
 1010MOL0     C36245   3.316   8.474   0.218  0.6309  0.5181 -0.3440
 1010MOL0     O36246   3.205   8.411   0.264  0.0302  0.2464 -0.2936
 1010MOL0     C36247   3.133   8.322   0.183  0.0222 -0.3938  0.3078
 1010MOL0     C36248   3.183   8.203   0.133 -0.2430  0.6022  0.5650
 1010MOL0     C36249   3.111   8.108   0.062 -1.2964 -0.1602  0.5496
 1010MOL0     C36250   2.981   8.146   0.030 -0.4727 -0.3696  0.0632
 1010MOL0     O36251   2.909   8.089  -0.071  0.2791  0.2411  0.1063
 1010MOL0     C36252   2.975   8.003  -0.166 -0.8771 -0.5616  0.4935
 1010MOL0     C36253   2.892   8.002  -0.298 -0.5298 -0.1229  1.0067
 1010MOL0     C36254   2.956   7.940  -0.424 -0.4237 -0.3553  0.5226
 1010MOL0     C36255   3.049   8.033  -0.511 -0.1019 -0.3808 -0.4204
 1010MOL0     C36256   3.132   7.944  -0.602 -0.6382 -0.0037  0.5990
 1010MOL0     C36257   3.251   8.013  -0.659 -1.1510 -0.3608  0.2278
 1010MOL0     C36258   3.372   8.008  -0.559  0.7772  0.3074  0.0387
 1010MOL0     C36259   3.507   8.064  -0.617 -0.4428  0.0288 -0.7436
 1010MOL0    Cl36260   3.530   7.986  -0.771 -0.3674 -0.8676  0.0447
 1010MOL0     C36261   2.922   8.261   0.089 -0.8418 -0.0893  0.1753
 1010MOL0     C36262   2.994   8.348   0.172 -1.1230  0.1262 -0.2531
 1010MOL0     O36263   3.360   8.457   0.105  0.1042 -0.5510  0.2812
 1010MOL0     C36264   3.477   8.664   0.255 -0.4140  0.2245  0.0332
 1010MOL0     C36265   3.533   8.772   0.327  0.4815  0.2031  0.6014
 1010MOL0     N36266   3.924   9.254   0.170 -0.3477 -0.6011 -0.5293
 1010MOL0     N36267   4.040   9.264   0.121 -0.6997 -0.3258 -0.1785
 1010MOL0     C36268   5.359   9.243  -0.065 -0.5182  0.3395  0.2231
 1010MOL0     C36269   5.483   9.188  -0.036  0.6313 -0.3689 -0.6570
 1010MOL0     C36270   5.869   8.978   0.048 -0.2726 -0.9085  0.5547
 1010MOL0     C36271   5.990   9.012  -0.016  0.8733  0.1218 -0.0928
 1010MOL0     C36272   6.097   8.915  -0.029 -0.5082  0.2378  0.0661
 1010MOL0     C36273   6.084   8.788   0.036 -0.2389  0.1477 -0.3026
 1010MOL0     O36274   6.177   8.684   0.036 -0.0644 -0.3356 -0.3664
 1010MOL0     C36275   6.315   8.705   0.018 -1.7018 -0.1581  0.3698
 1010MOL0     C36276   6.382   8.768   0.145 -0.5199  0.3878  0.3791
 1010MOL0     C36277   6.536   8.763   0.132 -0.3129 -0.9903 -0.3182
 1010MOL0     C36278   6.597   8.799   0.269 -0.6805 -0.4232 -0.1117
 1010MOL0     C36279   6.598   8.946   0.293  0.1055 -0.4234  0.3858
 1010MOL0     C36280   6.592   9.073   0.288 -0.1847  0.5418 -0.9051
 1010MOL0     C36281   5.964   8.763   0.101  0.6664  0.0385 -0.6337
 1010MOL0     C36282   5.857   8.850   0.108 -0.2203 -0.7032  0.5001
 1010MOL0     H36283   5.404   8.917   0.160  1.1918  0.1469 -0.0741
 1010MOL0     H36284   5.191   9.046   0.157  0.4792  0.9978  0.0394
 1010MOL0     H36285   5.016   9.091  -0.032 -0.8390 -0.0327 -2.3425
 1010MOL0     H36286   4.979   9.183   0.114 -0.0810  1.4396  1.0312
 1010MOL0     H36287   4.891   9.366  -0.029 -1.7138  1.3740  1.7219
 1010MOL0     H36288   4.897   9.278  -0.170  2.1148  2.7546  1.2215
 1010MOL0     H36289   4.743   9.100  -0.087 -1.9039 -0.5365  0.6347
 1010MOL0     H36290   4.716   9.192   0.069 -1.8624  1.3217 -1.1454
 1010MOL0     H36291   4.595   9.354  -0.017 -2.2753 -0.9841  0.4766
 1010MOL0     H36292   4.652   9.325  -0.184  0.3055 -0.0930 -0.0042
 1010MOL0     H36293   4.499   9.105  -0.149  1.5421 -0.9742  0.7130
 1010MOL0     H36294   4.477   9.140   0.013 -3.5046 -0.4948 -0.0819
 1010MOL0     H36295   4.359   9.364  -0.058 -1.2932  2.7907 -2.1560
 1010MOL0     H36296   4.383   9.317  -0.230  3.5621 -1.6148 -0.4434
 1010MOL0     H36297   4.178   9.273  -0.181  0.9477  2.9079  0.2042
 1010MOL0     H36298   4.264   9.118  -0.219  4.1427  2.5183 -0.6000
 1010MOL0     H36299   4.272   9.151   0.060  1.3303 -2.4559 -0.0736
 1010MOL0     H36300   4.211   9.013  -0.018 -1.4175  0.5396 -2.7074
 1010MOL0     H36301   3.947   8.971   0.008  1.4375 -0.4786 -0.2078
 1010MOL0     H36302   3.664   9.053   0.107 -2.5993 -1.3735  2.9271
 1010MOL0     H36303   3.776   8.971   0.220 -1.3690  0.2143  0.5953
 1010MOL0     H36304   3.658   9.258   0.246  0.6909  1.4728  0.3653
 1010MOL0     H36305   3.764   9.187   0.362 -0.3807  0.2513  0.0278
 1010MOL0     H36306   3.509   9.038   0.296  2.8371  1.0286 -1.6612
 1010MOL0     H36307   3.521   9.182   0.414 -1.4212  0.0775 -0.9879
 1010MOL0     H36308   3.647   9.069   0.555 -0.6836  0.6494 -0.2421
 1010MOL0     H36309   3.705   8.937   0.443 -0.6447  0.7694 -0.5243
 1010MOL0     H36310   3.361   8.723   0.616 -0.2115  0.2138  0.9679
 1010MOL0     H36311   3.142   8.544   0.519 -0.2794  0.8558 -0.1540
 1010MOL0     H36312   3.263   8.409   0.494  2.8973  0.2969  0.3192
 1010MOL0     H36313   3.272   8.527   0.637 -1.0602  1.1931  0.0447
 1010MOL0     H36314   3.288   8.182   0.152 -0.0986 -0.5911 -1.2998
 1010MOL0     H36315   3.168   8.023   0.026 -1.5247 -0.2169  0.3147
 1010MOL0     H36316   3.075   8.040  -0.190 -0.9191 -0.8834 -0.2030
 1010MOL0     H36317   2.985   7.906  -0.116  0.0240 -0.6024  0.2620
 1010MOL0     H36318   2.800   7.944  -0.288  0.0412 -1.1078  0.6734
 1010MOL0     H36319   2.868   8.107  -0.319 -0.4435 -0.6637 -2.2248
 1010MOL0     H36320   2.874   7.909  -0.489  1.6609  0.4470 -2.7519
 1010MOL0     H36321   3.013   7.849  -0.400  0.8100  0.0874 -0.5611
 1010MOL0     H36322   2.989   8.097  -0.576 -0.5061 -0.6483 -0.3103
 1010MOL0     H36323   3.112   8.103  -0.456  0.8564  0.5327 -2.5425
 1010MOL0     H36324   3.074   7.912  -0.689  2.5769 -0.6892 -1.4878
 1010MOL0     H36325   3.167   7.856  -0.547  1.0965  1.4927  2.0350
 1010MOL0     H36326   3.287   7.964  -0.750  3.0569  1.7546  0.5100
 1010MOL0     H36327   3.231   8.117  -0.686 -1.0510  0.8823  4.2453
 1010MOL0     H36328   3.401   7.903  -0.550  1.1098  0.4659  0.8474
 1010MOL0     H36329   3.343   8.054  -0.464  2.2958 -1.3096  1.3398
 1010MOL0     H36330   3.589   8.049  -0.546  0.8972 -0.4055 -2.3262
 1010MOL0     H36331   3.512   8.173  -0.620  1.1417  0.0660  1.0362
 1010MOL0     H36332   2.825   8.300   0.062 -0.7839 -0.3289 -0.3937
 1010MOL0     H36333   2.955   8.433   0.228 -0.9911 -0.2633  0.4476
 1010MOL0     H36334   3.494   8.655   0.148  2.1397 -0.5218  0.4135
 1010MOL0     H36335   3.596   8.838   0.269 -0.2119  0.2554 -0.1232
 1010MOL0     H36336   5.366   9.343  -0.105 -1.4673  1.0926  1.8097
 1010MOL0     H36337   5.559   9.252  -0.078 -0.0719  1.5610  0.8155
 1010MOL0     H36338   5.999   9.108  -0.066 -2.3705  0.1077 -0.9596
 1010MOL0     H36339   6.180   8.938  -0.095 -1.7304 -1.7052 -2.3365
 1010MOL0     H36340   6.341   8.599   0.028 -2.1344 -0.2618  0.4148
 1010MOL0     H36341   6.345   8.764  -0.068 -3.8108  1.3786  0.6125
 1010MOL0     H36342   6.337   8.729   0.237 -0.4652  0.5455  0.4736
 1010MOL0     H36343   6.346   8.871   0.151 -0.7328  0.2690  1.5215
 1010MOL0     H36344   6.568   8.825   0.048 -5.0882 -0.6694 -2.2209
 1010MOL0     H36345   6.575   8.667   0.098  1.1767 -0.3299 -0.5539
 1010MOL0     H36346   6.701   8.770   0.286  0.0366  0.3071 -2.8281
 1010MOL0     H36347   6.537   8.749   0.346 -1.6069  2.0782  0.9032
 1010MOL0     H36348   6.598   9.180   0.286 -0.3266  0.7016  2.2296
 1010MOL0     H36349   5.954   8.657   0.126 -0.5991 -0.4929 -3.0806
 1010MOL0     H36350   5.771   8.806   0.157  0.3629 -3.4282 -0.7346
 1011MOL0     O36351   8.171   7.002   0.733  0.3666  0.5146  0.0483
 1011MOL0     C36352   8.248   7.058   0.656  0.1070  0.6230  0.1408
 1011MOL0     O36353   8.209   7.134   0.544 -0.4693  0.4408 -0.1515
 1011MOL0     C36354   8.080   7.167   0.533  0.0771  0.1023 -0.4222
 1011MOL0     C36355   8.029   7.295   0.521 -0.3617  0.7911 -0.1819
 1011MOL0     C36356   7.894   7.315   0.515 -0.2009 -0.1308  0.3122
 1011MOL0     C36357   7.806   7.208   0.520 -0.2093  0.0703 -0.5380
 1011MOL0     O36358   7.672   7.241   0.533  0.1882 -0.2361 -0.7298
 1011MOL0     C36359   7.592   7.148   0.608  0.0348  1.0552 -0.1196
 1011MOL0     C36360   7.524   7.214   0.727 -1.2580 -0.2683 -1.0256
 1011MOL0     C36361   7.458   7.335   0.670  0.1962 -0.0328  0.3405
 1011MOL0     C36362   7.373   7.418   0.774 -0.7518  0.5769  0.6960
 1011MOL0     C36363   7.311   7.554   0.719 -0.4545 -0.8577 -0.1647
 1011MOL0     C36364   7.410   7.673   0.700 -0.0102  0.7280  0.6018
 1011MOL0     C36365   7.338   7.801   0.651 -0.0808 -0.0494 -0.7456
 1011MOL0     C36366   7.437   7.915   0.630  0.3522 -0.1309  0.1869
 1011MOL0     N36367   7.376   8.033   0.578  0.1622 -0.6187 -0.5838
 1011MOL0     C36368   7.320   8.146   0.647  0.1943  0.6989  0.0910
 1011MOL0     C36369   7.289   8.234   0.554  0.9046 -0.5551  0.4636
 1011MOL0     C36370   7.243   8.372   0.587 -0.7435 -0.3582  0.2065
 1011MOL0     C36371   7.352   8.482   0.560  0.0535 -0.0795 -0.0201
 1011MOL0     C36372   7.395   8.511   0.418 -0.9518 -0.2707  0.2133
 1011MOL0     C36373   7.277   8.576   0.344  0.5497 -0.5211 -0.8001
 1011MOL0     O36374   7.329   8.592   0.210 -0.1506 -0.0560  0.8500
 1011MOL0     C36375   7.406   8.710   0.184 -0.8757  0.4800 -0.7718
 1011MOL0     C36376   7.345   8.839   0.200 -0.4357  0.6147 -0.0423
 1011MOL0     C36377   7.416   8.956   0.174 -0.8333 -1.0735  0.0514
 1011MOL0     C36378   7.351   9.084   0.203 -0.7244  0.3096  0.7049
 1011MOL0     C36379   7.554   8.953   0.127 -0.0553 -0.4775 -0.8648
 1011MOL0     C36380   7.644   9.064   0.113  0.3861  0.3891 -0.5564
 1011MOL0     O36381   7.779   9.038   0.111 -0.2627  0.2054  0.1666
 1011MOL0     C36382   7.865   9.125   0.056 -0.0516  0.3524 -0.1183
 1011MOL0     C36383   7.990   9.121   0.106 -0.9091 -0.0397 -0.0390
 1011MOL0     C36384   8.094   9.205   0.055 -0.1624 -0.5371 -0.1807
 1011MOL0     C36385   8.062   9.308  -0.032  0.8389  0.2632 -0.0888
 1011MOL0     O36386   8.153   9.404  -0.081 -0.6682  1.2142  0.1980
 1011MOL0     C36387   8.279   9.352  -0.123 -0.4643  1.0410 -0.2058
 1011MOL0     C36388   8.323   9.434  -0.236  0.1340 -0.4693  0.5716
 1011MOL0     C36389   8.443   9.397  -0.319  0.3891  0.4483 -0.0430
 1011MOL0     C36390   8.579   9.419  -0.249  0.6781  0.1756  0.1055
 1011MOL0     C36391   8.696   9.404  -0.340  0.7246 -0.4467  0.0346
 1011MOL0     C36392   8.834   9.420  -0.265  0.1487 -0.3263 -0.7050
 1011MOL0     C36393   8.970   9.405  -0.352 -0.0749 -0.0524  1.3921
 1011MOL0     C36394   9.098   9.449  -0.276 -0.0215 -0.3021  0.6465
 1011MOL0    Cl36395   9.120   9.338  -0.139  0.2611 -0.3341 -0.3516
 1011MOL0     C36396   7.929   9.311  -0.081 -0.2335 -0.5888  0.3693
 1011MOL0     C36397   7.835   9.226  -0.038 -0.0558 -0.4046 -0.3363
 1011MOL0     O36398   7.592   9.174   0.102  0.0791 -0.6571 -0.0984
 1011MOL0     C36399   7.605   8.824   0.105  0.0876 -0.1255 -1.1247
 1011MOL0     C36400   7.534   8.707   0.137  0.2197 -0.1687 -0.1441
 1011MOL0     N36401   7.312   8.180   0.428 -0.3625  0.4553 -0.3168
 1011MOL0     N36402   7.358   8.068   0.449  0.9692  0.1512 -0.2643
 1011MOL0     C36403   7.853   7.076   0.514 -0.1742 -0.9798 -0.6183
 1011MOL0     C36404   7.990   7.064   0.518  0.5965  0.7481  0.1224
 1011MOL0     C36405   8.395   7.036   0.663  0.4706 -0.1473 -0.4735
 1011MOL0     C36406   8.441   6.929   0.740 -0.2541  0.7074  0.3989
 1011MOL0     C36407   8.581   6.904   0.741  0.0599  0.1713  0.1140
 1011MOL0     C36408   8.668   6.979   0.658 -0.2784 -0.0678 -0.0102
 1011MOL0     O36409   8.801   6.946   0.648 -0.3258 -0.2328  0.2129
 1011MOL0     C36410   8.900   7.017   0.573  0.1068  0.9642 -0.3035
 1011MOL0     C36411   8.941   7.156   0.626  1.1108 -0.2144 -0.2161
 1011MOL0     C36412   9.013   7.249   0.525 -0.5754 -0.4132  0.6133
 1011MOL0     C36413   9.074   7.374   0.597  0.4681  0.3590 -0.6671
 1011MOL0     C36414   9.137   7.447   0.495 -1.6156 -0.8433 -0.5560
 1011MOL0     C36415   9.211   7.523   0.438 -0.9988 -0.2135 -0.7379
 1011MOL0     C36416   8.618   7.089   0.587  0.5746 -0.3842  0.2844
 1011MOL0     C36417   8.483   7.120   0.584  0.1987  0.1765  0.0331
 1011MOL0     H36418   8.089   7.385   0.525  0.2396  0.3551  2.8569
 1011MOL0     H36419   7.862   7.418   0.530 -3.7796 -1.2144  0.9624
 1011MOL0     H36420   7.508   7.110   0.550  1.0484  0.6127 -1.3537
 1011MOL0     H36421   7.649   7.064   0.650  0.4737  0.8318 -1.1295
 1011MOL0     H36422   7.444   7.154   0.772  2.0622 -3.4355  1.2657
 1011MOL0     H36423   7.593   7.244   0.806 -1.1666  2.0923 -1.9076
 1011MOL0     H36424   7.533   7.408   0.637  0.2106 -0.9158 -1.7464
 1011MOL0     H36425   7.385   7.300   0.596 -1.7209  2.5825  0.8250
 1011MOL0     H36426   7.284   7.356   0.785 -1.2919  0.8585 -1.5206
 1011MOL0     H36427   7.422   7.434   0.870  0.0448 -0.3506  0.4609
 1011MOL0     H36428   7.263   7.543   0.621  1.3386  1.8359 -1.4895
 1011MOL0     H36429   7.240   7.592   0.794  2.0433  2.1562  0.8819
 1011MOL0     H36430   7.469   7.694   0.789  1.7156  1.2351 -0.6077
 1011MOL0     H36431   7.486   7.644   0.627  1.8720  3.0230  1.5056
 1011MOL0     H36432   7.287   7.781   0.556  0.6080  1.0344 -1.3729
 1011MOL0     H36433   7.262   7.837   0.721  0.1790 -2.1130  0.6504
 1011MOL0     H36434   7.507   7.874   0.556 -1.6445 -0.9357 -1.3582
 1011MOL0     H36435   7.483   7.947   0.724  0.5289 -2.0964  0.8166
 1011MOL0     H36436   7.318   8.174   0.752 -0.6643 -1.3452  0.6544
 1011MOL0     H36437   7.147   8.387   0.537 -2.1316  0.0065  2.7993
 1011MOL0     H36438   7.223   8.381   0.694  2.2086 -0.1465  0.8287
 1011MOL0     H36439   7.446   8.455   0.608 -0.0894 -1.8502 -0.6550
 1011MOL0     H36440   7.320   8.578   0.601  0.1326  0.2079 -0.6124
 1011MOL0     H36441   7.427   8.422   0.363 -0.2114  0.2988 -0.3007
 1011MOL0     H36442   7.467   8.593   0.427 -0.4077 -0.6423 -0.5910
 1011MOL0     H36443   7.250   8.669   0.396  0.0585 -2.0570  1.9082
 1011MOL0     H36444   7.192   8.508   0.339 -0.5134  0.7459 -0.4649
 1011MOL0     H36445   7.244   8.833   0.238  0.0514 -2.1711  1.0600
 1011MOL0     H36446   7.349   9.141   0.110 -2.4612 -2.3192 -0.9934
 1011MOL0     H36447   7.250   9.057   0.237 -0.8464 -0.6858 -0.3655
 1011MOL0     H36448   7.407   9.141   0.278 -0.6351  4.5177 -2.2375
 1011MOL0     H36449   8.018   9.040   0.174  1.5108 -0.0739 -0.9848
 1011MOL0     H36450   8.200   9.200   0.079  0.5725  1.5151 -2.5556
 1011MOL0     H36451   8.352   9.360  -0.042 -0.3470  1.6789 -0.3656
 1011MOL0     H36452   8.265   9.251  -0.162  0.1237  0.1784  1.7194
 1011MOL0     H36453   8.239   9.436  -0.306 -0.9693  3.1772  1.7754
 1011MOL0     H36454   8.326   9.535  -0.195  0.3308  0.6825 -2.0800
 1011MOL0     H36455   8.423   9.464  -0.402 -2.8462 -2.0801 -1.5266
 1011MOL0     H36456   8.432   9.296  -0.360 -1.8480  1.7937 -3.1053
 1011MOL0     H36457   8.579   9.519  -0.205  1.5965  0.5865 -0.7736
 1011MOL0     H36458   8.588   9.348  -0.167 -1.5032 -0.1559  0.1168
 1011MOL0     H36459   8.690   9.478  -0.421 -1.5779  1.4761  1.8236
 1011MOL0     H36460   8.691   9.303  -0.381  2.1987 -1.0508  1.2703
 1011MOL0     H36461   8.831   9.523  -0.230  1.9999 -0.4352 -0.1422
 1011MOL0     H36462   8.846   9.354  -0.179  1.2255  1.5141  0.6317
 1011MOL0     H36463   8.965   9.454  -0.450 -2.8076  0.4263  1.6798
 1011MOL0     H36464   8.981   9.300  -0.381 -0.3333  0.3223 -0.1420
 1011MOL0     H36465   9.089   9.550  -0.235 -0.8249  0.1069 -0.4781
 1011MOL0     H36466   9.188   9.443  -0.338 -0.0844 -1.2389  0.6242
 1011MOL0     H36467   7.909   9.397  -0.145  2.2521 -1.1059 -1.2562
 1011MOL0     H36468   7.737   9.238  -0.083 -0.9289  1.9953  1.9382
 1011MOL0     H36469   7.700   8.822   0.054  0.6678  3.5701 -0.4591
 1011MOL0     H36470   7.587   8.616   0.112  1.0180  0.3598 -0.4274
 1011MOL0     H36471   7.783   6.994   0.507 -0.9045 -0.3852 -0.4237
 1011MOL0     H36472   8.037   6.966   0.517 -2.2494 -0.8136  2.4624
 1011MOL0     H36473   8.367   6.866   0.788 -0.3142  0.4647 -0.0063
 1011MOL0     H36474   8.615   6.820   0.801  0.5178  0.4286  0.2142
 1011MOL0     H36475   8.984   6.948   0.560 -0.7481 -0.5672  1.7300
 1011MOL0     H36476   8.868   7.035   0.470  2.9166 -1.1131 -1.6662
 1011MOL0     H36477   9.007   7.140   0.711  1.4897 -0.0975 -0.4855
 1011MOL0     H36478   8.853   7.216   0.650  1.3977  1.3595 -2.7043
 1011MOL0     H36479   8.944   7.271   0.443  0.2359  2.1256  0.5535
 1011MOL0     H36480   9.095   7.191   0.481 -1.0210 -0.4628 -0.1721
 1011MOL0     H36481   9.143   7.343   0.676 -0.2905  1.0915  0.3124
 1011MOL0     H36482   9.000   7.437   0.647  1.9256  4.8630 -3.5742
 1011MOL0     H36483   9.281   7.590   0.392 -2.0033 -0.2363 -2.3751
 1011MOL0     H36484   8.677   7.143   0.514 -0.7710 -0.4183 -0.8694
 1011MOL0     H36485   8.446   7.200   0.521 -1.6497 -0.2750  0.4621
 1012MOL0     O36486   6.488  10.294  10.280 -0.3373  0.6373 -0.4030
 1012MOL0     C36487   6.538  10.397  10.315  0.7586  0.3047 -0.4820
 1012MOL0     O36488   6.473  10.515  10.315 -0.9722 -1.3605 -0.5516
 1012MOL0     C36489   6.341  10.507  10.320  0.4188 -0.0547 -0.1148
 1012MOL0     C36490   6.268  10.580  10.225 -1.1157 -0.0936 -0.8435
 1012MOL0     C36491   6.131  10.584  10.224  0.4594 -0.6835  0.1428
 1012MOL0     C36492   6.062  10.504  10.316  0.5653 -0.1917  0.8317
 1012MOL0     O36493   5.919  10.498  10.320 -0.2072  0.3587 -0.0531
 1012MOL0     C36494   5.858  10.631  10.308 -0.4377  0.1401  0.4585
 1012MOL0     C36495   5.739  10.625  10.395  0.4486  0.6371  0.3988
 1012MOL0     C36496   5.670  10.761  10.410 -0.2252  0.8066 -0.3769
 1012MOL0     C36497   5.532  10.745  10.467 -0.3203  0.2902 -0.3270
 1012MOL0     C36498   5.553  10.733  10.621  0.1715 -0.0739  0.6945
 1012MOL0     C36499   5.425  10.762  10.708  0.5353 -0.1322 -0.8386
 1012MOL0     C36500   5.442  10.675  10.835 -0.2530  0.1126 -0.7266
 1012MOL0     C36501   5.303  10.665  10.898  1.0189 -0.2449 -1.2217
 1012MOL0     N36502   5.303  10.630  11.046  0.6022 -0.2635  0.0929
 1012MOL0     C36503   5.366  10.527  11.105 -0.1647 -0.1055  0.4516
 1012MOL0     C36504   5.353  10.545  11.236  0.2450  0.3314 -1.1186
 1012MOL0     C36505   5.403  10.469  11.349 -0.1517 -0.1087  0.6791
 1012MOL0     C36506   5.295  10.361  11.390  0.0850  0.3772 -0.4051
 1012MOL0     C36507   5.170  10.428  11.441 -0.6920 -0.2079  0.3955
 1012MOL0     C36508   5.073  10.329  11.516 -0.0844  0.6382  0.0566
 1012MOL0     O36509   5.018  10.227  11.449  0.6370  0.1099 -0.5959
 1012MOL0     C36510   4.879  10.219  11.436  0.0578  0.5389  0.8999
 1012MOL0     C36511   4.817  10.223  11.307 -0.3720  0.0339 -0.5215
 1012MOL0     C36512   4.680  10.230  11.296  0.3463 -0.1979  0.0699
 1012MOL0     C36513   4.635  10.257  11.155  0.1710  0.1748 -0.4367
 1012MOL0     C36514   4.598  10.218  11.417 -0.5823  0.3739  0.2642
 1012MOL0     C36515   4.452  10.203  11.419 -0.3267  0.6441 -0.6582
 1012MOL0     O36516   4.375  10.240  11.522 -0.6392  0.2383 -0.2112
 1012MOL0     C36517   4.241  10.224  11.496  0.7250 -0.8010 -0.1299
 1012MOL0     C36518   4.161  10.336  11.487  0.8740 -0.1429 -1.6237
 1012MOL0     C36519   4.028  10.326  11.460 -0.1543  0.0768 -0.2713
 1012MOL0     C36520   3.964  10.205  11.455  0.7757  0.4334 -0.1909
 1012MOL0     O36521   3.820  10.214  11.435  0.0849  0.2839  1.1459
 1012MOL0     C36522   3.738  10.094  11.424  0.7477 -0.1712 -0.3201
 1012MOL0     C36523   3.640  10.129  11.311 -0.0487  0.4745 -0.2317
 1012MOL0     C36524   3.515  10.208  11.357  0.8158 -0.4806 -0.5765
 1012MOL0     C36525   3.466  10.191  11.503  0.2675  0.1213 -0.5725
 1012MOL0     C36526   3.333  10.272  11.538  0.5177  0.2553  0.2276
 1012MOL0     C36527   3.209  10.253  11.444 -0.3840 -0.1950  0.6505
 1012MOL0     C36528   3.137  10.114  11.453  0.4020  0.1120  0.3889
 1012MOL0     C36529   2.998  10.103  11.379 -0.2286 -0.1136  0.2271
 1012MOL0    Cl36530   2.895  10.245  11.412 -0.4528  0.0001  0.1423
 1012MOL0     C36531   4.032  10.087  11.489  0.2277  0.0607 -0.2532
 1012MOL0     C36532   4.176  10.098  11.509 -0.2392  0.3394  0.0983
 1012MOL0     O36533   4.410  10.156  11.316  0.1482  0.0461  0.1572
 1012MOL0     C36534   4.659  10.219  11.549 -0.7293  0.7525  0.2303
 1012MOL0     C36535   4.802  10.223  11.551  1.1007 -0.0095 -0.3701
 1012MOL0     N36536   5.280  10.661  11.251  0.8345  0.0442  0.0613
 1012MOL0     N36537   5.234  10.709  11.140  0.2140  0.8164 -0.0194
 1012MOL0     C36538   6.132  10.427  10.405  0.2391 -0.4250  0.1729
 1012MOL0     C36539   6.271  10.435  10.419  0.2609 -0.6258  0.1526
 1012MOL0     C36540   6.685  10.391  10.344  0.3030  0.1349 -0.0402
 1012MOL0     C36541   6.758  10.505  10.372 -0.3285 -0.7198  0.8475
 1012MOL0     C36542   6.897  10.507  10.389  0.5528 -0.2994 -0.2650
 1012MOL0     C36543   6.965  10.383  10.376 -0.2162  0.2996 -0.5709
 1012MOL0     O36544   7.099  10.379  10.406 -0.4031 -0.6484  0.3058
 1012MOL0     C36545   7.155  10.251  10.432  0.4306  0.4778 -0.6242
 1012MOL0     C36546   7.299  10.271  10.485  0.5238 -0.3095  0.3212
 1012MOL0     C36547   7.360  10.133  10.508 -0.4190 -0.7845  0.3573
 1012MOL0     C36548   7.497  10.156  10.573  0.4310 -0.1035 -0.4763
 1012MOL0     C36549   7.552  10.022  10.579  0.2037  0.3804 -0.2102
 1012MOL0     C36550   7.587   9.906  10.569  0.0832 -0.1259  0.3218
 1012MOL0     C36551   6.890  10.275  10.342  0.0657 -0.5124 -0.0665
 1012MOL0     C36552   6.749  10.274  10.319 -0.2912  0.3203  0.3803
 1012MOL0     H36553   6.326  10.638  10.154 -0.9663  1.6579  0.6226
 1012MOL0     H36554   6.081  10.649  10.153 -0.3362  0.1396  1.4384
 1012MOL0     H36555   5.925  10.715  10.333 -0.7706  1.1103 -1.6944
 1012MOL0     H36556   5.829  10.643  10.203 -0.1761  0.3221  0.4039
 1012MOL0     H36557   5.666  10.553  10.358  0.3973  0.3520  1.0302
 1012MOL0     H36558   5.781  10.595  10.492  1.4249  3.3201  0.8869
 1012MOL0     H36559   5.734  10.823  10.474 -2.9075  3.5595 -0.1196
 1012MOL0     H36560   5.661  10.814  10.315  1.0254  1.3714 -0.1938
 1012MOL0     H36561   5.473  10.836  10.456  0.4205  0.8855  0.4596
 1012MOL0     H36562   5.477  10.656  10.434 -0.6966  0.4712 -0.1853
 1012MOL0     H36563   5.601  10.636  10.636 -0.0094 -0.2652  0.0779
 1012MOL0     H36564   5.613  10.819  10.654 -0.7220  1.4248 -1.3669
 1012MOL0     H36565   5.407  10.868  10.728 -1.1543 -0.6853  0.8816
 1012MOL0     H36566   5.336  10.725  10.656 -1.0956  0.8446  1.0828
 1012MOL0     H36567   5.482  10.574  10.827 -1.2207 -0.3541  0.0680
 1012MOL0     H36568   5.507  10.739  10.895 -0.4957  1.2874 -1.6859
 1012MOL0     H36569   5.238  10.597  10.842  1.2371 -0.4980 -1.1733
 1012MOL0     H36570   5.253  10.760  10.881  0.6024 -0.5412 -1.6768
 1012MOL0     H36571   5.417  10.442  11.061 -0.9934  0.0709 -0.9125
 1012MOL0     H36572   5.493  10.414  11.319 -0.3562 -0.1050  0.0558
 1012MOL0     H36573   5.443  10.539  11.423 -0.3146 -1.3539  2.0126
 1012MOL0     H36574   5.343  10.303  11.469 -1.6907  0.6553  0.9553
 1012MOL0     H36575   5.272  10.297  11.305  2.9490  0.6676 -1.5148
 1012MOL0     H36576   5.137  10.477  11.349 -0.2133 -1.6110 -0.5517
 1012MOL0     H36577   5.202  10.495  11.522  0.7226 -0.8567  0.4030
 1012MOL0     H36578   5.002  10.399  11.561  2.1842  3.1899 -0.0841
 1012MOL0     H36579   5.123  10.293  11.606 -2.7848 -1.8128  0.7548
 1012MOL0     H36580   4.878  10.225  11.217  1.8026  2.2194  0.8565
 1012MOL0     H36581   4.590  10.170  11.108  2.0690 -0.9772 -0.2418
 1012MOL0     H36582   4.564  10.340  11.160 -0.2810  0.0084 -2.8870
 1012MOL0     H36583   4.721  10.288  11.095  2.0774 -0.1075  1.9730
 1012MOL0     H36584   4.211  10.432  11.482 -0.4050  0.6643  0.0139
 1012MOL0     H36585   3.973  10.418  11.447 -0.2794 -0.1773 -1.7216
 1012MOL0     H36586   3.790  10.000  11.406  1.1280 -1.5480  5.7322
 1012MOL0     H36587   3.692  10.071  11.521  1.0377  0.0558 -0.1265
 1012MOL0     H36588   3.685  10.181  11.226 -2.3408  0.3312 -1.6244
 1012MOL0     H36589   3.602  10.029  11.286  1.0231  0.4548 -1.9896
 1012MOL0     H36590   3.433  10.177  11.292  0.4319  1.3766 -1.0173
 1012MOL0     H36591   3.527  10.315  11.339 -0.9898 -0.4917 -2.1978
 1012MOL0     H36592   3.443  10.088  11.530 -2.1381  1.1405  1.7917
 1012MOL0     H36593   3.545  10.226  11.571  0.6843 -0.2703 -0.8557
 1012MOL0     H36594   3.365  10.374  11.516 -0.0251  0.9733  2.4519
 1012MOL0     H36595   3.312  10.248  11.643 -1.9093 -0.9091 -0.4525
 1012MOL0     H36596   3.129  10.327  11.447  0.9240  1.4212 -1.5889
 1012MOL0     H36597   3.238  10.264  11.339  0.0517 -0.5324  0.7288
 1012MOL0     H36598   3.107  10.102  11.557  0.2327 -2.8344  0.1068
 1012MOL0     H36599   3.212  10.041  11.419  0.0227  0.1360 -0.5125
 1012MOL0     H36600   2.948  10.021  11.432  0.5697  0.5133  2.0689
 1012MOL0     H36601   3.019  10.091  11.273 -2.6953 -0.1848 -0.2983
 1012MOL0     H36602   3.994   9.986  11.499  1.0603 -0.5787 -2.8346
 1012MOL0     H36603   4.231  10.008  11.536 -1.8661 -0.2318  1.7812
 1012MOL0     H36604   4.596  10.197  11.635  1.0701 -0.9999  1.1721
 1012MOL0     H36605   4.842  10.216  11.652  0.5555 -0.3718 -0.1785
 1012MOL0     H36606   6.068  10.370  10.471 -0.6885 -1.6317 -1.6993
 1012MOL0     H36607   6.319  10.371  10.492  1.1228 -0.8249 -0.5776
 1012MOL0     H36608   6.708  10.600  10.389  1.1565  0.5413 -1.2545
 1012MOL0     H36609   6.951  10.597  10.417  0.0086 -1.3392  5.3128
 1012MOL0     H36610   7.098  10.194  10.505  3.3356 -2.8947 -0.7331
 1012MOL0     H36611   7.168  10.197  10.338  0.3131  1.0654 -0.9839
 1012MOL0     H36612   7.304  10.328  10.578 -1.5467  1.8336 -0.7488
 1012MOL0     H36613   7.347  10.325  10.403 -2.2672  1.7877 -0.0700
 1012MOL0     H36614   7.362  10.080  10.412 -0.0095 -1.3389  0.6640
 1012MOL0     H36615   7.304  10.069  10.576 -0.8814  0.4502  1.1757
 1012MOL0     H36616   7.487  10.205  10.670 -1.1154 -0.6095 -0.3553
 1012MOL0     H36617   7.567  10.211  10.508  1.5348 -0.7316  0.1530
 1012MOL0     H36618   7.625   9.806  10.570 -0.7568 -0.4548  1.5254
 1012MOL0     H36619   6.928  10.173  10.352 -2.0163 -1.4819 -1.3093
 1012MOL0     H36620   6.706  10.176  10.298  3.9638 -2.1204  1.7611
 1013MOL0     O36621  11.028   3.793   1.822  0.6854  0.1715  0.0614
 1013MOL0     C36622  11.054   3.795   1.701  0.1943  0.6737  0.6466
 1013MOL0     O36623  10.967   3.750   1.602 -0.3584 -1.3138  0.8443
 1013MOL0     C36624  10.837   3.717   1.639  0.5390  0.1384 -0.0168
 1013MOL0     C36625  10.777   3.613   1.560  0.2202 -0.6003  0.1710
 1013MOL0     C36626  10.645   3.571   1.577  0.5067  0.5885  0.1444
 1013MOL0     C36627  10.567   3.634   1.670  0.2156 -0.4854 -0.9439
 1013MOL0     O36628  10.439   3.581   1.684  0.0126  0.7228  0.2885
 1013MOL0     C36629  10.338   3.666   1.753 -0.0216  0.2565 -0.3744
 1013MOL0     C36630  10.200   3.584   1.771  0.5288  1.2449 -0.4254
 1013MOL0     C36631  10.111   3.657   1.868 -1.0509  1.0094 -0.1897
 1013MOL0     C36632   9.995   3.576   1.907  1.0677 -0.2656  0.9049
 1013MOL0     C36633   9.891   3.670   1.976 -0.5761 -0.2763 -0.2493
 1013MOL0     C36634   9.756   3.608   2.012  0.0304  1.2604  0.2492
 1013MOL0     C36635   9.663   3.718   2.079 -0.6732 -0.0182  0.3297
 1013MOL0     C36636   9.529   3.652   2.133 -0.8168  0.1744  0.2118
 1013MOL0     N36637   9.458   3.572   2.027 -1.1865  0.3462  0.0757
 1013MOL0     C36638   9.436   3.612   1.897 -0.3065 -0.4826 -0.0019
 1013MOL0     C36639   9.409   3.503   1.832 -1.0941 -0.8911 -0.3222
 1013MOL0     C36640   9.378   3.492   1.687 -0.2913  0.3293 -0.2374
 1013MOL0     C36641   9.232   3.461   1.679 -0.1946 -0.0080 -0.5396
 1013MOL0     C36642   9.181   3.439   1.538  0.4319 -0.0728  0.5976
 1013MOL0     C36643   9.040   3.371   1.543 -0.7284  0.5015  0.3992
 1013MOL0     O36644   9.065   3.230   1.586  0.0026 -1.0639 -0.0637
 1013MOL0     C36645   8.959   3.154   1.630 -0.3766  0.2548  0.5771
 1013MOL0     C36646   8.873   3.188   1.738  0.1994 -0.7305  0.1616
 1013MOL0     C36647   8.796   3.098   1.807  0.3008  0.1881  0.7314
 1013MOL0     C36648   8.738   3.149   1.940  0.6637 -0.0355  0.2317
 1013MOL0     C36649   8.783   2.969   1.760  0.1891  0.6209  0.4379
 1013MOL0     C36650   8.705   2.860   1.821  0.6276  0.3565  0.1678
 1013MOL0     O36651   8.646   2.762   1.744  0.8604 -0.4008  0.9870
 1013MOL0     C36652   8.592   2.650   1.807  0.0207  0.9222 -0.7176
 1013MOL0     C36653   8.647   2.586   1.911 -0.4038  0.0890 -0.0879
 1013MOL0     C36654   8.577   2.480   1.976  1.0977 -0.4788  0.9895
 1013MOL0     C36655   8.441   2.461   1.953 -0.5827 -0.4201  0.3978
 1013MOL0     O36656   8.373   2.357   2.010 -0.4229 -0.1982  0.0506
 1013MOL0     C36657   8.270   2.382   2.104 -0.5505 -0.6533 -0.1612
 1013MOL0     C36658   8.177   2.255   2.103 -0.6608 -0.3634  0.8960
 1013MOL0     C36659   8.024   2.298   2.131 -0.3583  0.1958  0.7550
 1013MOL0     C36660   7.950   2.170   2.150 -0.0074  0.5026  0.4515
 1013MOL0     C36661   7.939   2.078   2.032 -0.7192  0.4643 -0.2635
 1013MOL0     C36662   7.835   1.974   2.058  0.4359  0.2133  0.0111
 1013MOL0     C36663   7.806   1.893   1.933 -0.3841  0.5857  0.7974
 1013MOL0     C36664   7.924   1.799   1.903  0.2694 -0.3794 -0.5147
 1013MOL0    Cl36665   7.865   1.627   1.872 -0.1133  0.0316 -0.2518
 1013MOL0     C36666   8.379   2.538   1.855 -0.5202 -0.0422  0.2849
 1013MOL0     C36667   8.456   2.622   1.768  0.1028  0.1203 -0.0570
 1013MOL0     O36668   8.702   2.864   1.938 -0.2375 -0.1886 -0.0409
 1013MOL0     C36669   8.858   2.941   1.642  0.1662 -0.3930  0.2624
 1013MOL0     C36670   8.959   3.024   1.582 -0.0437  0.2859  0.5873
 1013MOL0     N36671   9.409   3.398   1.918  0.6348  0.7877 -0.5001
 1013MOL0     N36672   9.450   3.441   2.031  0.3219 -0.6903 -0.8476
 1013MOL0     C36673  10.627   3.721   1.756  0.4717  0.1712 -0.3029
 1013MOL0     C36674  10.754   3.761   1.744  1.0473 -0.0524  0.3812
 1013MOL0     C36675  11.184   3.827   1.666 -0.4357 -0.0272  1.1009
 1013MOL0     C36676  11.289   3.844   1.760  0.9135 -0.1352  0.4639
 1013MOL0     C36677  11.424   3.858   1.716  0.3987  0.0179  0.3039
 1013MOL0     C36678  11.455   3.859   1.577 -0.0337 -0.2169  1.0454
 1013MOL0     O36679  11.579   3.872   1.522 -0.5409  0.2423 -0.1644
 1013MOL0     C36680  11.693   3.892   1.610 -0.0407  0.6921  0.7799
 1013MOL0     C36681  11.828   3.900   1.534 -0.3360  0.1246  0.2939
 1013MOL0     C36682  11.869   3.764   1.479  0.1676 -0.1639 -0.1800
 1013MOL0     C36683  11.969   3.691   1.576  0.2098 -0.4340 -0.8065
 1013MOL0     C36684  11.891   3.601   1.662 -0.3186  0.0745  0.0010
 1013MOL0     C36685  11.834   3.533   1.746 -0.3118 -0.3950 -0.4551
 1013MOL0     C36686  11.350   3.855   1.483 -0.1821  0.9101 -0.2800
 1013MOL0     C36687  11.220   3.836   1.528 -0.4488  1.1188 -0.3838
 1013MOL0     H36688  10.843   3.573   1.483  0.5977  0.7189 -0.2155
 1013MOL0     H36689  10.601   3.486   1.526  2.1520 -0.8196  0.9844
 1013MOL0     H36690  10.364   3.704   1.853 -0.3654 -3.5058  1.3073
 1013MOL0     H36691  10.313   3.752   1.690 -0.6437  1.0045  0.8663
 1013MOL0     H36692  10.149   3.573   1.675 -0.3575  2.6239 -0.1387
 1013MOL0     H36693  10.217   3.481   1.806 -0.4943  0.7528 -1.3425
 1013MOL0     H36694  10.161   3.670   1.964 -2.0398 -0.3768  0.5332
 1013MOL0     H36695  10.072   3.746   1.817 -2.9961 -0.3391 -1.1681
 1013MOL0     H36696   9.950   3.523   1.823  0.5697  3.8899 -1.7280
 1013MOL0     H36697  10.024   3.494   1.974 -0.8544 -2.4199 -0.7351
 1013MOL0     H36698   9.938   3.711   2.066 -2.5482  0.5474  0.4571
 1013MOL0     H36699   9.871   3.754   1.909  1.4247 -0.9494 -1.8285
 1013MOL0     H36700   9.702   3.560   1.931 -0.5781  0.5534  1.0543
 1013MOL0     H36701   9.771   3.533   2.090 -1.6082  0.9442  0.2971
 1013MOL0     H36702   9.720   3.758   2.164  4.5554  2.4381 -3.7025
 1013MOL0     H36703   9.638   3.797   2.008 -2.7458 -0.6516  0.3100
 1013MOL0     H36704   9.460   3.728   2.168  1.8122  2.3338  1.0748
 1013MOL0     H36705   9.546   3.592   2.223  0.3222  0.2493  0.0621
 1013MOL0     H36706   9.447   3.709   1.851  0.2061 -0.5914 -0.1171
 1013MOL0     H36707   9.413   3.583   1.637 -2.2976  2.4056  1.8972
 1013MOL0     H36708   9.449   3.414   1.657  0.9308  1.1952  0.3341
 1013MOL0     H36709   9.163   3.534   1.722 -1.7579 -0.6031 -1.9029
 1013MOL0     H36710   9.226   3.373   1.743 -0.1064 -0.0582 -0.5994
 1013MOL0     H36711   9.241   3.369   1.479 -0.0579  2.5518 -3.4190
 1013MOL0     H36712   9.182   3.524   1.469  0.3894 -2.7414 -2.9703
 1013MOL0     H36713   8.999   3.377   1.441  0.4713  1.1042 -0.0591
 1013MOL0     H36714   8.970   3.429   1.604 -0.0087  1.4756  0.3230
 1013MOL0     H36715   8.867   3.293   1.761 -1.4363 -1.3088  2.8200
 1013MOL0     H36716   8.632   3.121   1.942  1.0786 -1.7005  0.7571
 1013MOL0     H36717   8.789   3.115   2.031 -0.9878 -0.9656  0.8442
 1013MOL0     H36718   8.737   3.258   1.937  2.3985  0.0046 -1.4984
 1013MOL0     H36719   8.743   2.603   1.959 -1.8690 -0.3847  3.3368
 1013MOL0     H36720   8.625   2.405   2.039  2.9998  1.1465  1.5617
 1013MOL0     H36721   8.302   2.410   2.205  2.1389 -0.5053 -0.9908
 1013MOL0     H36722   8.209   2.468   2.076 -0.8152 -1.0029 -0.6573
 1013MOL0     H36723   8.199   2.198   2.013 -1.0329  1.7947 -0.6483
 1013MOL0     H36724   8.209   2.186   2.181 -0.9320 -0.3725  1.0012
 1013MOL0     H36725   7.972   2.348   2.049 -0.5707  0.1202  0.8435
 1013MOL0     H36726   8.018   2.366   2.216 -1.3961 -0.4869  1.2504
 1013MOL0     H36727   7.983   2.123   2.244 -1.3730  0.9525  1.1832
 1013MOL0     H36728   7.848   2.200   2.175 -0.1198  0.9705 -0.5342
 1013MOL0     H36729   8.034   2.031   2.006 -0.8841  0.8707 -1.6643
 1013MOL0     H36730   7.904   2.136   1.946 -3.7716  1.7146  1.6398
 1013MOL0     H36731   7.860   1.901   2.135 -0.0491 -0.8609 -0.8282
 1013MOL0     H36732   7.738   2.013   2.088 -0.2789 -0.0690 -1.7796
 1013MOL0     H36733   7.767   1.952   1.849 -0.7882 -1.9048 -0.8624
 1013MOL0     H36734   7.725   1.824   1.959  0.8945 -1.7543 -1.0516
 1013MOL0     H36735   7.992   1.793   1.989  0.2501 -0.3900 -0.5004
 1013MOL0     H36736   7.977   1.835   1.814  0.1287 -0.5720 -0.6779
 1013MOL0     H36737   8.275   2.510   1.841 -0.2877 -1.6066  1.4271
 1013MOL0     H36738   8.405   2.676   1.689  2.2189  0.5498 -1.1726
 1013MOL0     H36739   8.850   2.846   1.590  1.5361 -0.2373 -0.2617
 1013MOL0     H36740   9.021   2.994   1.498 -1.4995  1.2286 -0.8952
 1013MOL0     H36741  10.567   3.741   1.845 -0.8939 -1.4032 -0.8119
 1013MOL0     H36742  10.792   3.830   1.818 -1.4338  2.3846 -0.4295
 1013MOL0     H36743  11.261   3.845   1.864 -0.2867 -0.4127  0.1604
 1013MOL0     H36744  11.505   3.862   1.788  0.5578 -0.2304  0.1441
 1013MOL0     H36745  11.668   3.992   1.647 -0.2484  0.5449  1.0411
 1013MOL0     H36746  11.695   3.818   1.690 -1.0031  0.6736  0.7983
 1013MOL0     H36747  11.908   3.935   1.600 -0.7115  0.7974  0.4068
 1013MOL0     H36748  11.827   3.971   1.451 -1.3252  1.3311  1.2878
 1013MOL0     H36749  11.915   3.782   1.382 -0.6639  1.4073 -0.3113
 1013MOL0     H36750  11.780   3.704   1.458 -0.1935 -0.8010  2.7295
 1013MOL0     H36751  12.035   3.765   1.623 -1.8487  0.7496  0.3938
 1013MOL0     H36752  12.032   3.623   1.519  2.4044  2.1446 -1.6821
 1013MOL0     H36753  11.800   3.484   1.835  1.6976 -1.6751 -0.3497
 1013MOL0     H36754  11.365   3.860   1.375  2.3563 -2.2821 -0.2308
 1013MOL0     H36755  11.145   3.807   1.456 -1.5132  0.1707  1.0681
 1014MOL0     O36756   4.194   2.357   8.719  0.0087  0.0044  0.5104
 1014MOL0     C36757   4.243   2.357   8.826 -0.7059  0.0946 -0.2451
 1014MOL0     O36758   4.176   2.386   8.940 -0.7367  0.1987 -0.2326
 1014MOL0     C36759   4.046   2.400   8.945 -0.3673  0.2649 -0.5721
 1014MOL0     C36760   3.971   2.307   9.008  0.7781  0.2762 -0.5366
 1014MOL0     C36761   3.829   2.321   9.026  0.2366 -0.1180 -0.0827
 1014MOL0     C36762   3.763   2.433   8.970 -0.1289 -0.1949  0.2693
 1014MOL0     O36763   3.633   2.467   8.987 -0.4328 -0.4788  0.2827
 1014MOL0     C36764   3.536   2.361   8.968  0.0316 -0.4792 -0.3467
 1014MOL0     C36765   3.416   2.414   8.890  0.4184 -0.1780 -0.1473
 1014MOL0     C36766   3.291   2.319   8.910  0.2529 -0.9279 -0.7388
 1014MOL0     C36767   3.163   2.405   8.893  0.1860  1.1532  0.2378
 1014MOL0     C36768   3.114   2.413   8.743  0.9461  0.4643  0.4229
 1014MOL0     C36769   3.059   2.277   8.686 -0.0211 -0.4247  0.4171
 1014MOL0     C36770   2.988   2.297   8.550  0.6472  0.6465  0.3795
 1014MOL0     C36771   2.859   2.380   8.567 -0.3600 -0.5379 -0.5287
 1014MOL0     N36772   2.761   2.304   8.645  0.2659  0.3874 -0.2480
 1014MOL0     C36773   2.693   2.344   8.761 -0.9052 -0.4314 -0.3631
 1014MOL0     C36774   2.628   2.231   8.801 -0.6849 -0.5510 -0.6983
 1014MOL0     C36775   2.556   2.228   8.927  0.4015  0.1311 -0.6538
 1014MOL0     C36776   2.442   2.134   8.925 -0.5707  0.6445  0.3650
 1014MOL0     C36777   2.355   2.157   9.051  0.3338  0.4200 -0.3515
 1014MOL0     C36778   2.245   2.038   9.063 -1.0105 -0.1773  0.0931
 1014MOL0     O36779   2.170   2.068   9.181  1.4257  0.4099  0.8210
 1014MOL0     C36780   2.048   2.002   9.206 -0.0925  0.5970 -0.1308
 1014MOL0     C36781   2.021   1.875   9.149 -0.6104 -0.7744 -0.3396
 1014MOL0     C36782   1.902   1.808   9.175  0.3285  0.4858 -0.0841
 1014MOL0     C36783   1.900   1.664   9.119  0.0478  0.9867 -0.4097
 1014MOL0     C36784   1.797   1.866   9.253 -0.1433 -0.2367  0.0480
 1014MOL0     C36785   1.662   1.814   9.280 -0.4510  0.0437 -0.4371
 1014MOL0     O36786   1.574   1.788   9.177  0.2445 -0.1256  0.4658
 1014MOL0     C36787   1.444   1.756   9.219 -0.0894 -0.4441 -0.5872
 1014MOL0     C36788   1.423   1.622   9.266 -0.4999 -0.2516  0.2736
 1014MOL0     C36789   1.297   1.587   9.313 -0.1823 -0.7341  0.1777
 1014MOL0     C36790   1.192   1.679   9.318  0.0285 -1.5490  0.0706
 1014MOL0     O36791   1.071   1.639   9.374 -0.1395  0.2833 -0.7103
 1014MOL0     C36792   0.952   1.679   9.302 -0.1991 -0.4624 -0.0712
 1014MOL0     C36793   0.919   1.582   9.191 -0.3052  0.5325 -0.1386
 1014MOL0     C36794   0.904   1.432   9.229 -0.0113  0.8093  0.0257
 1014MOL0     C36795   0.843   1.355   9.103 -0.2721 -0.5584  0.6926
 1014MOL0     C36796   0.811   1.206   9.123 -0.1860 -0.6522 -0.8120
 1014MOL0     C36797   0.928   1.113   9.117 -0.1193  0.0313 -1.0848
 1014MOL0     C36798   0.884   0.973   9.155  1.5285  0.5661  0.2034
 1014MOL0     C36799   0.996   0.865   9.137  0.2011  0.7747  0.0069
 1014MOL0    Cl36800   1.060   0.860   8.974  0.3693  0.2936  0.5930
 1014MOL0     C36801   1.212   1.803   9.258 -0.3330  0.0905 -0.1757
 1014MOL0     C36802   1.341   1.845   9.218 -0.8214  0.5555  0.4129
 1014MOL0     O36803   1.632   1.813   9.400 -0.2485 -0.2249  0.0758
 1014MOL0     C36804   1.831   1.989   9.320 -0.0991  0.4340  0.3262
 1014MOL0     C36805   1.955   2.051   9.294  0.3562 -0.0860 -0.5459
 1014MOL0     N36806   2.657   2.127   8.717 -0.4506 -1.1737  0.2963
 1014MOL0     N36807   2.727   2.175   8.616 -0.3253 -0.5933  0.3271
 1014MOL0     C36808   3.840   2.525   8.904 -0.0254 -0.4048 -0.2386
 1014MOL0     C36809   3.978   2.509   8.888 -0.0175  0.8744  0.7856
 1014MOL0     C36810   4.385   2.328   8.834 -1.0542 -0.5191  0.6443
 1014MOL0     C36811   4.457   2.297   8.720  0.1598 -0.2219 -0.2170
 1014MOL0     C36812   4.586   2.249   8.735  0.0375 -0.2609  0.8229
 1014MOL0     C36813   4.648   2.237   8.854 -0.3123 -0.3285  0.1001
 1014MOL0     O36814   4.778   2.206   8.863 -0.5715 -0.3979  0.5484
 1014MOL0     C36815   4.803   2.096   8.944 -0.7533 -0.1583 -0.3951
 1014MOL0     C36816   4.838   1.982   8.851  1.1441  0.3954 -0.2985
 1014MOL0     C36817   4.830   1.850   8.930  0.9641 -0.8057 -0.5251
 1014MOL0     C36818   4.892   1.738   8.854  0.2855  1.3368  0.8097
 1014MOL0     C36819   5.036   1.744   8.879  0.0634 -0.1126  0.5404
 1014MOL0     C36820   5.144   1.752   8.912 -0.3557  0.0467  0.2159
 1014MOL0     C36821   4.571   2.278   8.966 -0.2452 -0.1833  1.2641
 1014MOL0     C36822   4.444   2.327   8.956 -0.6287 -0.3734  0.3826
 1014MOL0     H36823   4.021   2.227   9.063  0.7592  0.7682  0.2106
 1014MOL0     H36824   3.786   2.242   9.086  0.5042  0.3656  0.7648
 1014MOL0     H36825   3.583   2.273   8.924 -1.8390 -1.3375 -0.7637
 1014MOL0     H36826   3.499   2.325   9.064 -0.9948  1.6438  0.1072
 1014MOL0     H36827   3.394   2.513   8.929 -1.8877 -1.6143  2.6217
 1014MOL0     H36828   3.445   2.415   8.785  0.5187 -1.0805 -0.1420
 1014MOL0     H36829   3.293   2.237   8.838  1.6086 -0.9111 -0.7530
 1014MOL0     H36830   3.289   2.287   9.014 -2.0007 -0.2524 -0.5262
 1014MOL0     H36831   3.084   2.364   8.957  0.0490 -1.9797 -1.7513
 1014MOL0     H36832   3.182   2.506   8.931  2.1809  1.6377 -1.8055
 1014MOL0     H36833   3.040   2.493   8.738  1.4018  0.9615  1.2857
 1014MOL0     H36834   3.200   2.444   8.682  0.5814  2.5766  0.9215
 1014MOL0     H36835   3.145   2.210   8.677 -0.8943 -1.7815  1.7451
 1014MOL0     H36836   2.987   2.240   8.760 -0.8423  2.0553  0.9747
 1014MOL0     H36837   3.049   2.348   8.475 -0.6118  1.2725 -0.2648
 1014MOL0     H36838   2.972   2.204   8.496  2.6038 -2.3190  4.4023
 1014MOL0     H36839   2.816   2.405   8.470 -1.7779 -1.7374 -0.2401
 1014MOL0     H36840   2.878   2.480   8.609 -2.0703 -0.1934 -0.5073
 1014MOL0     H36841   2.689   2.438   8.815  0.3631  0.0656 -1.0828
 1014MOL0     H36842   2.616   2.214   9.018 -0.2204  0.3798 -0.2016
 1014MOL0     H36843   2.517   2.329   8.941  1.7711  0.7458 -1.0818
 1014MOL0     H36844   2.489   2.036   8.920  0.8065  1.1669  2.0235
 1014MOL0     H36845   2.381   2.154   8.836 -0.5557 -2.2369 -0.3725
 1014MOL0     H36846   2.300   2.251   9.043  3.1764  2.1494 -1.1045
 1014MOL0     H36847   2.412   2.152   9.144  1.5681  1.2932 -1.0285
 1014MOL0     H36848   2.303   1.948   9.083  0.1045  0.8081  1.5123
 1014MOL0     H36849   2.180   2.034   8.975  0.2631  2.6085 -1.0951
 1014MOL0     H36850   2.103   1.836   9.089  0.1099 -1.0352  0.7652
 1014MOL0     H36851   1.961   1.649   9.029 -0.7884  1.4049 -1.0596
 1014MOL0     H36852   1.937   1.589   9.189  2.9943  2.1493 -0.5683
 1014MOL0     H36853   1.800   1.632   9.088  0.4569 -1.5126  0.6247
 1014MOL0     H36854   1.503   1.549   9.266  0.5752  0.8766 -0.6730
 1014MOL0     H36855   1.278   1.495   9.367 -1.2199  0.2813  1.6428
 1014MOL0     H36856   0.877   1.677   9.382 -1.6757 -1.8803 -1.4132
 1014MOL0     H36857   0.947   1.778   9.255 -3.4642 -0.8228 -0.7416
 1014MOL0     H36858   0.819   1.615   9.160  0.9284  3.3599 -1.4853
 1014MOL0     H36859   0.988   1.597   9.107  0.5549 -2.2167 -0.0143
 1014MOL0     H36860   0.830   1.426   9.309 -0.6414 -3.0908 -0.6669
 1014MOL0     H36861   1.006   1.396   9.241  0.1379  0.9382 -0.7754
 1014MOL0     H36862   0.753   1.410   9.074 -0.3142 -1.6944 -1.5007
 1014MOL0     H36863   0.909   1.372   9.018 -0.9493  2.3000  0.6506
 1014MOL0     H36864   0.753   1.191   9.031  1.2636  1.4751 -2.1896
 1014MOL0     H36865   0.749   1.185   9.210  0.9193  1.7311  0.6242
 1014MOL0     H36866   0.965   1.103   9.015 -0.8058  0.1288 -1.3481
 1014MOL0     H36867   0.996   1.138   9.199 -0.5584  1.0482 -1.0138
 1014MOL0     H36868   0.793   0.939   9.105 -0.3953  2.8341  1.9309
 1014MOL0     H36869   0.860   0.959   9.261 -0.7175 -1.0263 -0.4420
 1014MOL0     H36870   0.964   0.768   9.176  0.5322  0.5562 -0.2628
 1014MOL0     H36871   1.087   0.881   9.196  0.6890  0.5301 -0.6740
 1014MOL0     H36872   1.129   1.873   9.258 -0.9087 -0.5565 -1.3461
 1014MOL0     H36873   1.359   1.944   9.177  0.5406  0.7067  1.3437
 1014MOL0     H36874   1.772   2.042   9.394  1.0559  0.7654  1.0372
 1014MOL0     H36875   1.993   2.139   9.345  2.2797 -2.0150  1.6023
 1014MOL0     H36876   3.809   2.625   8.872  0.4413  0.2581  1.2819
 1014MOL0     H36877   4.047   2.585   8.854  2.4673 -0.7953  1.8738
 1014MOL0     H36878   4.403   2.299   8.626 -3.4285  0.7147  1.6759
 1014MOL0     H36879   4.635   2.197   8.653 -1.1910 -1.8555  1.0472
 1014MOL0     H36880   4.890   2.108   9.008  0.2212 -0.3482 -1.6313
 1014MOL0     H36881   4.719   2.062   9.005  1.1653 -2.2425  1.2877
 1014MOL0     H36882   4.940   1.992   8.811  0.6698  0.7760 -1.4763
 1014MOL0     H36883   4.773   1.975   8.763 -0.4225  0.7583  0.7791
 1014MOL0     H36884   4.724   1.830   8.947  0.9066 -2.0096 -2.0399
 1014MOL0     H36885   4.873   1.870   9.029  1.8097 -1.8204 -0.6650
 1014MOL0     H36886   4.863   1.747   8.749 -0.5992 -2.5688  0.5834
 1014MOL0     H36887   4.850   1.644   8.890  0.9414  1.3518  1.6359
 1014MOL0     H36888   5.246   1.752   8.945 -0.0368  0.6295 -0.7284
 1014MOL0     H36889   4.623   2.291   9.061  0.9910  2.7411  0.2928
 1014MOL0     H36890   4.394   2.360   9.047  2.2547  0.9885  1.5657
 1015MOL0     O36891   7.352   0.240   6.629 -0.1679  1.0049  0.2917
 1015MOL0     C36892   7.440   0.326   6.629  0.1862  0.0277  0.0363
 1015MOL0     O36893   7.422   0.453   6.589 -0.5041  0.3401  0.3663
 1015MOL0     C36894   7.295   0.490   6.547 -0.3909  0.3544 -0.4902
 1015MOL0     C36895   7.230   0.416   6.439 -0.1233  0.0965 -0.2021
 1015MOL0     C36896   7.110   0.464   6.386 -0.1336  0.0140  0.1301
 1015MOL0     C36897   7.041   0.561   6.442 -0.6188  1.0370  0.3709
 1015MOL0     O36898   6.932   0.589   6.360  0.2548 -0.2670  0.7436
 1015MOL0     C36899   6.846   0.694   6.425  0.1327  0.1375 -0.8451
 1015MOL0     C36900   6.712   0.685   6.356  0.0199  0.9026  0.6238
 1015MOL0     C36901   6.596   0.723   6.455 -0.5211  0.0701 -0.7377
 1015MOL0     C36902   6.565   0.618   6.565  0.2086  0.2874 -0.4200
 1015MOL0     C36903   6.445   0.660   6.656 -0.1797 -0.0938  0.4169
 1015MOL0     C36904   6.304   0.624   6.593  0.6597 -0.3586 -1.4330
 1015MOL0     C36905   6.186   0.619   6.699  1.8123  0.8168 -0.3223
 1015MOL0     C36906   6.192   0.502   6.795  0.6463 -0.0047 -0.5663
 1015MOL0     N36907   6.063   0.457   6.857  0.0939 -0.3385 -0.7906
 1015MOL0     C36908   6.021   0.325   6.865  0.3239  0.3317  1.4202
 1015MOL0     C36909   5.893   0.336   6.922 -0.3754  0.6151  0.1462
 1015MOL0     C36910   5.788   0.226   6.929  0.1311 -0.0707 -0.9928
 1015MOL0     C36911   5.650   0.269   6.981 -1.0313  0.1687  0.3145
 1015MOL0     C36912   5.567   0.148   7.042  0.0328  0.3219  0.1669
 1015MOL0     C36913   5.440   0.214   7.103  0.4091  0.4887  0.0403
 1015MOL0     O36914   5.374   0.122   7.196 -0.5819  0.3687  0.1736
 1015MOL0     C36915   5.257   0.149   7.255  0.5274  0.2804 -0.0475
 1015MOL0     C36916   5.223   0.065   7.354  1.4102  1.2105  0.3892
 1015MOL0     C36917   5.101   0.072   7.426  0.6260 -0.3632  0.3851
 1015MOL0     C36918   5.070  -0.048   7.512  0.1844  0.2491  0.6314
 1015MOL0     C36919   5.007   0.167   7.388 -1.0598  0.4193  0.3488
 1015MOL0     C36920   4.870   0.177   7.442 -0.0926 -0.1977 -0.7732
 1015MOL0     O36921   4.781   0.243   7.368  0.1405  0.0355  0.6217
 1015MOL0     C36922   4.655   0.250   7.422 -0.9734  0.6462 -0.5258
 1015MOL0     C36923   4.616   0.345   7.512 -0.1541 -0.0530 -0.5877
 1015MOL0     C36924   4.481   0.349   7.553 -0.2975  0.1933  0.0863
 1015MOL0     C36925   4.386   0.269   7.503 -0.6814 -0.2621  0.4590
 1015MOL0     O36926   4.257   0.266   7.543  0.5929  0.3264 -0.1703
 1015MOL0     C36927   4.218   0.331   7.659 -0.4086  0.2601  0.2576
 1015MOL0     C36928   4.075   0.313   7.704  0.4377  0.3430  0.0249
 1015MOL0     C36929   3.968   0.332   7.595 -0.2077 -0.4552 -0.3809
 1015MOL0     C36930   3.834   0.274   7.616  0.5449  0.3705 -0.4938
 1015MOL0     C36931   3.772   0.326   7.748 -1.8056 -0.1680  0.3447
 1015MOL0     C36932   3.655   0.243   7.792 -0.5119  0.2963 -0.1804
 1015MOL0     C36933   3.595   0.294   7.912  0.6136 -0.3648  0.3830
 1015MOL0     C36934   3.521   0.191   8.001 -0.6366 -1.1988 -0.4615
 1015MOL0    Cl36935   3.405   0.276   8.109 -0.2703 -0.1473  0.0178
 1015MOL0     C36936   4.425   0.173   7.412 -0.1892 -0.0735 -0.1289
 1015MOL0     C36937   4.558   0.152   7.374 -0.0824 -0.1608 -1.0861
 1015MOL0     O36938   4.845   0.142   7.554 -0.3336  0.8507 -0.3439
 1015MOL0     C36939   5.042   0.255   7.279 -0.1712 -0.3026 -0.0359
 1015MOL0     C36940   5.163   0.246   7.209 -0.9324  0.9689 -0.8018
 1015MOL0     N36941   5.869   0.468   6.953  0.1430 -0.2658  0.3779
 1015MOL0     N36942   5.973   0.536   6.926  0.3185  0.5233  0.3822
 1015MOL0     C36943   7.107   0.636   6.539 -0.3160 -0.8788  0.3841
 1015MOL0     C36944   7.227   0.604   6.596  0.1011 -0.2910  0.4970
 1015MOL0     C36945   7.580   0.288   6.673 -0.4154 -0.4463  0.1700
 1015MOL0     C36946   7.600   0.171   6.754 -0.4305  0.1781  0.4364
 1015MOL0     C36947   7.724   0.151   6.812  1.1521 -0.4454 -0.1582
 1015MOL0     C36948   7.837   0.237   6.794  0.9343 -0.2788  0.7027
 1015MOL0     O36949   7.957   0.235   6.857 -0.7701 -0.3472 -0.5680
 1015MOL0     C36950   8.006   0.105   6.906  0.1560  0.7651 -0.0041
 1015MOL0     C36951   8.049   0.013   6.790  0.3927 -0.6231  0.0976
 1015MOL0     C36952   8.202   0.023   6.753  0.3285  0.4631 -0.7154
 1015MOL0     C36953   8.253  -0.104   6.675  0.1402 -0.9701  0.3293
 1015MOL0     C36954   8.260  -0.227   6.751 -0.0921 -0.4687  0.3509
 1015MOL0     C36955   8.264  -0.314   6.833  1.1414 -0.7278  0.0434
 1015MOL0     C36956   7.822   0.343   6.701  0.2743 -0.4420  0.5251
 1015MOL0     C36957   7.691   0.369   6.643  0.0801 -0.0693  0.0019
 1015MOL0     H36958   7.274   0.325   6.400 -0.0386 -2.0204  4.2079
 1015MOL0     H36959   7.071   0.410   6.300  1.8293  1.6200 -1.8949
 1015MOL0     H36960   6.845   0.671   6.532  1.6457  2.1126 -0.3387
 1015MOL0     H36961   6.889   0.793   6.407  0.8538 -0.1986 -1.0443
 1015MOL0     H36962   6.710   0.742   6.263 -2.6952  1.4396  0.9337
 1015MOL0     H36963   6.696   0.584   6.317 -2.4471  0.7679  1.8357
 1015MOL0     H36964   6.613   0.818   6.507 -1.5802  0.8653 -1.8057
 1015MOL0     H36965   6.508   0.733   6.391  0.5485 -0.2287 -2.3182
 1015MOL0     H36966   6.541   0.523   6.516  1.6521 -1.0274  1.3078
 1015MOL0     H36967   6.644   0.598   6.637  0.7711 -1.5338 -1.4856
 1015MOL0     H36968   6.455   0.603   6.749 -0.9131 -2.0116 -0.6125
 1015MOL0     H36969   6.440   0.764   6.689 -1.3648 -0.6120  2.0622
 1015MOL0     H36970   6.288   0.700   6.515 -0.1175  0.7313 -0.2438
 1015MOL0     H36971   6.308   0.528   6.541  2.4725 -0.2419 -1.5699
 1015MOL0     H36972   6.178   0.708   6.762  0.6255 -0.5412  1.5280
 1015MOL0     H36973   6.092   0.639   6.646  0.9504  1.4053  1.3705
 1015MOL0     H36974   6.251   0.529   6.882 -0.6032 -0.7913  0.5658
 1015MOL0     H36975   6.248   0.419   6.751  1.6056 -0.2052  0.9821
 1015MOL0     H36976   6.061   0.233   6.822 -1.0025  1.0940 -1.7340
 1015MOL0     H36977   5.773   0.165   6.840  1.2510 -0.7584 -0.7254
 1015MOL0     H36978   5.831   0.161   7.005 -1.3359 -1.0264 -0.9284
 1015MOL0     H36979   5.603   0.309   6.891  0.6799 -2.9483 -2.1348
 1015MOL0     H36980   5.665   0.346   7.058  1.3708  0.4208 -0.3261
 1015MOL0     H36981   5.634   0.109   7.119 -1.7238 -1.9349  0.6585
 1015MOL0     H36982   5.543   0.075   6.965 -2.6062  0.1036  1.0965
 1015MOL0     H36983   5.378   0.237   7.016  2.3884  1.6831 -1.1341
 1015MOL0     H36984   5.465   0.311   7.147 -1.8397  0.5189  1.4291
 1015MOL0     H36985   5.299  -0.011   7.369 -0.7787 -0.8300  1.9356
 1015MOL0     H36986   5.119  -0.029   7.608  0.9360  0.3880  0.2277
 1015MOL0     H36987   4.965  -0.070   7.536  1.4362 -3.6635  3.7025
 1015MOL0     H36988   5.112  -0.143   7.477 -3.2377 -1.3562  0.4163
 1015MOL0     H36989   4.674   0.423   7.561 -1.6979  0.0942  1.0691
 1015MOL0     H36990   4.445   0.423   7.624 -2.3306  1.0073 -1.6685
 1015MOL0     H36991   4.284   0.298   7.740 -4.9676 -2.3049  3.3911
 1015MOL0     H36992   4.230   0.438   7.640 -0.5128  0.6274  2.0611
 1015MOL0     H36993   4.060   0.211   7.740 -2.0288  0.5238 -0.2994
 1015MOL0     H36994   4.058   0.376   7.791  0.3056  2.0937 -1.2210
 1015MOL0     H36995   4.013   0.291   7.504  0.0896 -1.3754  0.1669
 1015MOL0     H36996   3.965   0.441   7.588  2.7090  0.1704  4.2159
 1015MOL0     H36997   3.766   0.301   7.534  0.8619  3.7761  0.2198
 1015MOL0     H36998   3.848   0.166   7.624  3.1806  0.8066  2.2186
 1015MOL0     H36999   3.744   0.429   7.726 -1.3161 -0.3064 -0.9815
 1015MOL0     H37000   3.847   0.324   7.827 -1.9395  0.9634  0.5179
 1015MOL0     H37001   3.580   0.234   7.713 -0.6040 -1.4313  0.0517
 1015MOL0     H37002   3.675   0.136   7.803 -1.0956 -0.2615 -3.5805
 1015MOL0     H37003   3.529   0.378   7.887  0.1933 -0.0244  2.4466
 1015MOL0     H37004   3.671   0.333   7.981 -0.9659 -3.7880  4.5318
 1015MOL0     H37005   3.583   0.129   8.066  1.6795  0.0014 -1.4126
 1015MOL0     H37006   3.473   0.109   7.947 -1.6967 -0.4539 -0.6924
 1015MOL0     H37007   4.347   0.105   7.377 -0.4709  1.5211 -2.8544
 1015MOL0     H37008   4.579   0.068   7.308  1.2367 -0.0153 -0.8681
 1015MOL0     H37009   4.975   0.332   7.241  1.8245  2.2363  1.2808
 1015MOL0     H37010   5.187   0.313   7.127  1.1113 -0.9483 -1.8962
 1015MOL0     H37011   7.062   0.726   6.580  0.4382 -1.5396  2.8404
 1015MOL0     H37012   7.267   0.643   6.689  1.3351 -3.1674  1.2739
 1015MOL0     H37013   7.513   0.106   6.763 -0.2180 -0.2350 -0.3320
 1015MOL0     H37014   7.734   0.065   6.878 -0.0514  1.8457  3.2918
 1015MOL0     H37015   8.095   0.132   6.965  2.4784  1.3888 -3.4780
 1015MOL0     H37016   7.928   0.051   6.960  2.5362 -1.6915  1.2126
 1015MOL0     H37017   7.992   0.048   6.703  0.5114 -1.5126 -0.3503
 1015MOL0     H37018   8.012  -0.086   6.818  0.0175 -1.2965 -2.5461
 1015MOL0     H37019   8.264   0.032   6.843 -0.4639 -1.1631  0.0488
 1015MOL0     H37020   8.216   0.110   6.689 -0.8678  1.4014  0.2590
 1015MOL0     H37021   8.358  -0.087   6.648  0.1390  0.2994  1.0315
 1015MOL0     H37022   8.192  -0.126   6.587  1.3168 -1.1615 -0.4575
 1015MOL0     H37023   8.229  -0.387   6.903 -0.6920  0.1407  0.0933
 1015MOL0     H37024   7.906   0.409   6.679 -1.6894  2.2565  0.5553
 1015MOL0     H37025   7.680   0.451   6.573 -1.7651  0.9172  1.3616
 1016MOL0     O37026   6.644  11.320   5.593 -0.0266  0.0143 -0.0438
 1016MOL0     C37027   6.641  11.375   5.481 -0.4801  0.1947 -1.8030
 1016MOL0     O37028   6.523  11.394   5.413 -0.8480 -0.6005  0.2929
 1016MOL0     C37029   6.420  11.426   5.486 -0.0267 -0.4567 -0.8323
 1016MOL0     C37030   6.404  11.567   5.508  0.0224 -0.1869  0.9873
 1016MOL0     C37031   6.296  11.618   5.585  0.7139 -0.2984  0.2395
 1016MOL0     C37032   6.228  11.527   5.660  0.4266  0.1675  0.4673
 1016MOL0     O37033   6.120  11.568   5.735 -0.5274 -0.3073 -0.1593
 1016MOL0     C37034   6.026  11.473   5.791  0.1191  0.0125 -0.0535
 1016MOL0     C37035   5.952  11.547   5.901 -0.1920 -0.0640  0.4319
 1016MOL0     C37036   5.864  11.470   5.993 -0.5003  0.0062 -0.5601
 1016MOL0     C37037   5.809  11.554   6.116 -0.8542 -0.0943  1.1902
 1016MOL0     C37038   5.793  11.474   6.241  0.1005  0.7687  0.0548
 1016MOL0     C37039   5.680  11.377   6.265 -0.1178  0.3081  0.5564
 1016MOL0     C37040   5.665  11.268   6.163  0.5826 -1.0454 -0.0152
 1016MOL0     C37041   5.588  11.141   6.222 -0.2521  0.1966  0.7473
 1016MOL0     N37042   5.669  11.068   6.322 -0.2601 -0.9997  0.9776
 1016MOL0     C37043   5.606  10.972   6.386 -0.2118  0.4518  0.3119
 1016MOL0     C37044   5.693  10.925   6.479 -0.6997 -0.4033 -0.4322
 1016MOL0     C37045   5.664  10.825   6.586  0.7099 -0.2518 -0.6850
 1016MOL0     C37046   5.536  10.869   6.666  0.4144  0.3613  0.3707
 1016MOL0     C37047   5.410  10.777   6.619 -0.0821  0.3289 -0.3241
 1016MOL0     C37048   5.283  10.804   6.709 -1.1592  0.0328 -0.6775
 1016MOL0     O37049   5.198  10.696   6.715  0.1464  0.1348 -0.1663
 1016MOL0     C37050   5.072  10.710   6.761 -0.6636  0.0061 -0.7235
 1016MOL0     C37051   5.015  10.589   6.811 -0.1235 -0.8133 -0.6596
 1016MOL0     C37052   4.893  10.582   6.877 -0.4432  0.4573  0.5528
 1016MOL0     C37053   4.832  10.448   6.910 -0.3871 -0.3128 -0.2623
 1016MOL0     C37054   4.821  10.703   6.899  0.5963  0.5564  0.0167
 1016MOL0     C37055   4.690  10.693   6.970  0.2194 -0.8398 -0.6458
 1016MOL0     O37056   4.687  10.718   7.103 -0.1064 -0.6139  0.9621
 1016MOL0     C37057   4.562  10.735   7.145 -0.0679 -0.5544  0.4540
 1016MOL0     C37058   4.488  10.627   7.194  0.5792  0.1242 -0.3844
 1016MOL0     C37059   4.369  10.647   7.253  0.6362 -0.0024  0.3053
 1016MOL0     C37060   4.318  10.772   7.259  0.4329 -1.0254  0.4796
 1016MOL0     O37061   4.188  10.778   7.297 -0.4086  0.4163  0.4167
 1016MOL0     C37062   4.170  10.740   7.430  0.0739  1.4293 -0.0350
 1016MOL0     C37063   4.035  10.784   7.467 -0.5095 -0.3648 -0.9528
 1016MOL0     C37064   3.994  10.775   7.620 -1.0321  0.4034  0.3009
 1016MOL0     C37065   3.869  10.845   7.682 -0.5612  0.1312 -0.2789
 1016MOL0     C37066   3.892  10.985   7.737  0.0719 -0.2473  0.1420
 1016MOL0     C37067   3.799  11.017   7.852 -0.4825 -0.3490 -0.0777
 1016MOL0     C37068   3.856  11.146   7.909 -0.4549 -0.6460  0.7609
 1016MOL0     C37069   3.743  11.192   8.007 -0.0201  0.5202  0.7312
 1016MOL0    Cl37070   3.603  11.258   7.923  0.0063  0.1133 -0.0008
 1016MOL0     C37071   4.388  10.880   7.208  0.5011  0.0508 -0.3739
 1016MOL0     C37072   4.521  10.865   7.164  1.5702 -0.4154  0.3467
 1016MOL0     O37073   4.589  10.684   6.897  0.1447 -0.5866 -0.2633
 1016MOL0     C37074   4.867  10.824   6.845 -0.4046  0.2913 -0.3931
 1016MOL0     C37075   4.994  10.825   6.786  0.1236  0.0157 -0.7340
 1016MOL0     N37076   5.813  10.983   6.446 -0.6017 -0.3973  0.0576
 1016MOL0     N37077   5.803  11.078   6.355  0.9188  0.7564  0.7284
 1016MOL0     C37078   6.268  11.389   5.658  0.7755  0.3349  0.0618
 1016MOL0     C37079   6.348  11.335   5.560  0.4242 -0.8209  0.0658
 1016MOL0     C37080   6.776  11.399   5.429 -0.1305  0.0582  0.0006
 1016MOL0     C37081   6.894  11.342   5.491  0.0054 -0.2620 -0.2103
 1016MOL0     C37082   7.016  11.371   5.437  1.1696 -0.3720  0.4470
 1016MOL0     C37083   7.024  11.438   5.312  0.4297 -0.2932  0.6492
 1016MOL0     O37084   7.137  11.464   5.243 -1.0037 -0.1018  0.5204
 1016MOL0     C37085   7.241  11.365   5.262 -1.2241  0.9401 -0.0618
 1016MOL0     C37086   7.361  11.383   5.175  0.0179  0.4039  1.0175
 1016MOL0     C37087   7.405  11.522   5.141 -0.5290 -0.2378 -0.9720
 1016MOL0     C37088   7.493  11.596   5.247  0.2372 -0.4620  1.1903
 1016MOL0     C37089   7.445  11.607   5.382 -0.0098 -0.0404  0.2260
 1016MOL0     C37090   7.411  11.616   5.497  0.1870 -0.6042 -0.3644
 1016MOL0     C37091   6.918  11.491   5.256  0.0716 -0.7883 -0.4392
 1016MOL0     C37092   6.790  11.472   5.308  1.4846  0.3813 -1.0558
 1016MOL0     H37093   6.455  11.639   5.446 -3.5373  2.2778  0.5909
 1016MOL0     H37094   6.275  11.725   5.582  2.8214  0.1329 -0.7687
 1016MOL0     H37095   5.951  11.435   5.721 -1.6057  0.0918  1.6563
 1016MOL0     H37096   6.075  11.387   5.837  0.7321  1.7838  2.9212
 1016MOL0     H37097   6.034  11.598   5.952 -1.8240  0.7031  2.4543
 1016MOL0     H37098   5.894  11.630   5.860  1.0910  0.6137 -0.0470
 1016MOL0     H37099   5.791  11.431   5.922 -0.3457  1.7896 -1.7706
 1016MOL0     H37100   5.916  11.382   6.031 -0.2105  0.8322  1.0846
 1016MOL0     H37101   5.879  11.636   6.132 -1.8455  0.4438  3.0491
 1016MOL0     H37102   5.710  11.595   6.096  0.1807  2.0696  0.2128
 1016MOL0     H37103   5.894  11.434   6.255  0.4738  0.7422 -2.3062
 1016MOL0     H37104   5.778  11.555   6.313 -0.0674 -0.0803  1.0020
 1016MOL0     H37105   5.688  11.320   6.358  0.1530 -2.1651 -0.8759
 1016MOL0     H37106   5.591  11.440   6.273  0.7516  1.7121 -0.4216
 1016MOL0     H37107   5.619  11.311   6.074  1.4870 -0.8937 -0.4228
 1016MOL0     H37108   5.756  11.229   6.115  0.1918 -1.4895 -0.4030
 1016MOL0     H37109   5.569  11.072   6.140 -0.6305 -0.6844  1.5622
 1016MOL0     H37110   5.499  11.180   6.271 -0.4932  0.8317 -0.1805
 1016MOL0     H37111   5.508  10.926   6.378 -0.3131  1.0043 -2.8229
 1016MOL0     H37112   5.660  10.722   6.551 -0.3332 -1.5226  2.7228
 1016MOL0     H37113   5.739  10.821   6.665  0.3636 -2.2938 -0.4076
 1016MOL0     H37114   5.511  10.972   6.639  0.2039 -0.1808 -1.6338
 1016MOL0     H37115   5.555  10.877   6.773 -1.7423  2.8792  0.6868
 1016MOL0     H37116   5.427  10.670   6.632  0.6300  0.2379 -1.7949
 1016MOL0     H37117   5.393  10.793   6.512  0.3353  1.3212 -0.2562
 1016MOL0     H37118   5.243  10.901   6.681  0.8747  1.6538  1.5904
 1016MOL0     H37119   5.326  10.825   6.808  3.7230 -1.1729 -2.2802
 1016MOL0     H37120   5.070  10.497   6.794 -0.8024 -1.8266  2.1340
 1016MOL0     H37121   4.901  10.365   6.891  0.9567  1.0580 -1.6055
 1016MOL0     H37122   4.806  10.458   7.016 -1.2753  0.8886 -0.5718
 1016MOL0     H37123   4.739  10.435   6.854 -0.5857  2.1842 -0.6025
 1016MOL0     H37124   4.535  10.531   7.172 -2.6676 -1.4640 -0.8876
 1016MOL0     H37125   4.331  10.558   7.302  0.0083  0.3105  0.3946
 1016MOL0     H37126   4.175  10.632   7.450  0.8927  1.9982  3.4614
 1016MOL0     H37127   4.241  10.780   7.503  4.1225 -1.4329 -1.9997
 1016MOL0     H37128   4.038  10.890   7.441 -2.0410  0.3285  1.3841
 1016MOL0     H37129   3.960  10.729   7.411 -2.1548  0.6414  0.1879
 1016MOL0     H37130   4.083  10.820   7.666  0.3038 -0.8236 -0.9431
 1016MOL0     H37131   3.976  10.668   7.637 -2.1488  0.9506  3.1029
 1016MOL0     H37132   3.789  10.843   7.607  1.4484 -2.4150 -2.5787
 1016MOL0     H37133   3.833  10.776   7.760  1.4637 -1.3477 -0.5664
 1016MOL0     H37134   3.875  11.061   7.660 -2.9261  2.8243  3.4498
 1016MOL0     H37135   3.995  10.993   7.772  0.3419 -0.3052 -0.6139
 1016MOL0     H37136   3.693  11.016   7.825 -0.6077  3.0780 -0.1140
 1016MOL0     H37137   3.819  10.940   7.927  0.3123 -1.3879 -1.3014
 1016MOL0     H37138   3.877  11.221   7.832  0.9024 -1.8926 -0.1406
 1016MOL0     H37139   3.947  11.121   7.964  0.7342  1.0270 -0.3279
 1016MOL0     H37140   3.769  11.251   8.095  0.1961 -2.9723  3.1926
 1016MOL0     H37141   3.708  11.109   8.069 -0.9606  1.1344  1.0420
 1016MOL0     H37142   4.329  10.971   7.197  1.4374  0.4205 -3.4727
 1016MOL0     H37143   4.566  10.951   7.114 -1.4581  2.0027  1.4668
 1016MOL0     H37144   4.799  10.908   6.857 -2.0972 -0.6818 -2.5958
 1016MOL0     H37145   5.034  10.917   6.744 -1.1184  0.5202 -0.8521
 1016MOL0     H37146   6.219  11.317   5.724 -0.2798 -0.0609 -1.1130
 1016MOL0     H37147   6.362  11.227   5.560  1.4212 -0.6974  0.2925
 1016MOL0     H37148   6.905  11.279   5.578 -2.5565  2.0232  1.9383
 1016MOL0     H37149   7.102  11.331   5.488  1.4877  2.4066  2.3005
 1016MOL0     H37150   7.283  11.384   5.362  3.3994  0.7929 -1.7124
 1016MOL0     H37151   7.196  11.266   5.252 -0.6401  0.1637  3.5312
 1016MOL0     H37152   7.348  11.315   5.091 -2.2788  0.3369  1.3699
 1016MOL0     H37153   7.448  11.346   5.231 -2.0106 -2.5551  2.5174
 1016MOL0     H37154   7.322  11.576   5.094 -0.7422 -2.1961 -3.0435
 1016MOL0     H37155   7.479  11.516   5.060  1.6457 -4.8864  0.9579
 1016MOL0     H37156   7.520  11.690   5.198 -1.1604 -2.4002 -3.9819
 1016MOL0     H37157   7.583  11.534   5.245  0.3457 -0.3060  1.2532
 1016MOL0     H37158   7.368  11.626   5.595 -2.9473  2.3294 -1.7838
 1016MOL0     H37159   6.933  11.546   5.163 -1.0474 -1.8423 -1.2713
 1016MOL0     H37160   6.702  11.518   5.266  0.9844 -0.2354 -0.7037
 1017MOL0     O37161   3.506   8.123   7.490  0.6514  0.0642  0.4703
 1017MOL0     C37162   3.569   8.223   7.495 -0.0691  0.6759 -2.0575
 1017MOL0     O37163   3.699   8.233   7.523 -0.0221  0.0177  0.3603
 1017MOL0     C37164   3.780   8.127   7.566  0.5031 -0.8170 -0.5540
 1017MOL0     C37165   3.762   7.989   7.561  0.0435 -0.1698 -0.5850
 1017MOL0     C37166   3.870   7.897   7.582 -0.2043  0.8597 -0.0451
 1017MOL0     C37167   3.993   7.935   7.617  0.5492  0.4338  0.2981
 1017MOL0     O37168   4.098   7.863   7.659  0.2558 -0.5413 -0.7419
 1017MOL0     C37169   4.126   7.740   7.609  0.0791  0.0785 -0.7114
 1017MOL0     C37170   4.232   7.669   7.701  0.5467 -0.7561  0.6250
 1017MOL0     C37171   4.367   7.751   7.685  0.0234 -0.0877  0.1559
 1017MOL0     C37172   4.492   7.698   7.771 -0.2426 -1.0086 -0.2637
 1017MOL0     C37173   4.618   7.780   7.790  0.4655 -0.6921 -0.3855
 1017MOL0     C37174   4.698   7.783   7.662  0.7229  0.6012 -0.7564
 1017MOL0     C37175   4.804   7.894   7.658  0.0584  0.0476 -0.1838
 1017MOL0     C37176   4.952   7.851   7.688 -0.8071  0.3110 -0.5116
 1017MOL0     N37177   4.991   7.755   7.577 -0.4699 -0.1122 -0.7919
 1017MOL0     C37178   4.992   7.778   7.434  0.6523  0.4485 -0.0933
 1017MOL0     C37179   5.008   7.651   7.384  0.1131 -0.3323  0.2879
 1017MOL0     C37180   4.981   7.606   7.245  0.1515 -0.2393  0.3106
 1017MOL0     C37181   5.099   7.619   7.151  0.0025 -0.5127  0.6329
 1017MOL0     C37182   5.203   7.511   7.181 -0.1826  0.1844 -0.4287
 1017MOL0     C37183   5.320   7.526   7.088  0.2608 -0.2551  1.1583
 1017MOL0     O37184   5.310   7.465   6.959 -0.6531  0.3018  0.0768
 1017MOL0     C37185   5.321   7.323   6.954 -0.7228 -0.6092  0.6703
 1017MOL0     C37186   5.376   7.241   7.056 -0.3990  0.2577 -0.6942
 1017MOL0     C37187   5.385   7.105   7.029 -0.5440 -0.2256 -0.8667
 1017MOL0     C37188   5.450   7.018   7.145  0.6935  0.6008 -0.5002
 1017MOL0     C37189   5.356   7.054   6.906  0.1239 -0.1318  0.4712
 1017MOL0     C37190   5.369   6.916   6.872 -0.5307 -0.0566 -0.7444
 1017MOL0     O37191   5.385   6.886   6.734 -0.7994 -0.1203 -0.0131
 1017MOL0     C37192   5.404   6.756   6.693 -0.1416  0.1698  0.1550
 1017MOL0     C37193   5.535   6.706   6.694  0.4969 -0.0328  0.8037
 1017MOL0     C37194   5.556   6.593   6.623  0.1382  0.5102  1.2302
 1017MOL0     C37195   5.457   6.510   6.565 -0.5404  0.0729 -0.3660
 1017MOL0     O37196   5.478   6.390   6.490 -0.3129  0.1625 -0.2600
 1017MOL0     C37197   5.606   6.327   6.474  0.3247 -0.4985 -0.1664
 1017MOL0     C37198   5.647   6.256   6.608  1.2252 -1.2433  0.5649
 1017MOL0     C37199   5.714   6.126   6.606  0.5079  0.5782  0.4413
 1017MOL0     C37200   5.771   6.095   6.738 -0.6345 -0.0843 -0.3737
 1017MOL0     C37201   5.818   5.949   6.755 -0.6017 -0.6293 -0.0783
 1017MOL0     C37202   5.881   5.934   6.899  0.4030 -0.3300  0.2412
 1017MOL0     C37203   5.911   5.790   6.921  0.9432  0.9057 -0.6973
 1017MOL0     C37204   5.960   5.760   7.062 -0.2208 -0.8114 -0.0535
 1017MOL0    Cl37205   5.973   5.582   7.078 -0.1433  0.0166 -0.0074
 1017MOL0     C37206   5.321   6.554   6.584 -0.7364 -0.0828  0.7553
 1017MOL0     C37207   5.292   6.674   6.646 -0.5370 -0.2292  0.4175
 1017MOL0     O37208   5.373   6.831   6.959 -0.0553  0.5401  0.3234
 1017MOL0     C37209   5.301   7.138   6.811  0.0186  0.5970  0.1899
 1017MOL0     C37210   5.283   7.270   6.833 -0.3901  0.0010  0.4614
 1017MOL0     N37211   5.015   7.565   7.489  0.4813  0.3008  0.4145
 1017MOL0     N37212   5.005   7.626   7.609 -0.2488 -0.0956 -0.0195
 1017MOL0     C37213   4.017   8.079   7.624 -0.1706  0.7356  0.3558
 1017MOL0     C37214   3.912   8.166   7.598 -0.4420  0.0796 -0.7455
 1017MOL0     C37215   3.506   8.348   7.475 -0.0991 -0.7231  0.5603
 1017MOL0     C37216   3.419   8.380   7.362 -0.3716  0.4898 -0.8965
 1017MOL0     C37217   3.379   8.510   7.353  0.7198  0.2625  0.5766
 1017MOL0     C37218   3.418   8.612   7.446 -1.1909 -0.0472  0.0823
 1017MOL0     O37219   3.377   8.747   7.439  0.4630 -1.0270 -0.1799
 1017MOL0     C37220   3.258   8.774   7.370  0.1084  0.0503 -0.0103
 1017MOL0     C37221   3.180   8.886   7.446 -0.0701  0.5576  0.9046
 1017MOL0     C37222   3.101   8.842   7.572  0.0002 -0.0178  0.4945
 1017MOL0     C37223   3.190   8.824   7.693  0.6651  0.5718  0.8042
 1017MOL0     C37224   3.108   8.821   7.812  0.4189 -0.0099 -1.2404
 1017MOL0     C37225   3.048   8.815   7.912  0.2485 -0.1716  0.3538
 1017MOL0     C37226   3.507   8.581   7.546 -0.0035  0.1496  0.1427
 1017MOL0     C37227   3.552   8.452   7.561  0.0874  0.9800  0.6320
 1017MOL0     H37228   3.668   7.946   7.528 -0.1626  1.3062 -2.0979
 1017MOL0     H37229   3.838   7.794   7.574  3.2985 -0.3705  0.1140
 1017MOL0     H37230   4.041   7.672   7.614  2.2571 -2.6797  1.9345
 1017MOL0     H37231   4.167   7.751   7.508 -0.0614 -0.7590 -0.8637
 1017MOL0     H37232   4.206   7.646   7.805 -3.0477  3.2451  0.8960
 1017MOL0     H37233   4.247   7.569   7.660  1.7823 -1.4232  2.5497
 1017MOL0     H37234   4.403   7.736   7.582  1.8905 -0.9397  0.8922
 1017MOL0     H37235   4.346   7.856   7.707 -0.5757  0.3836 -2.3403
 1017MOL0     H37236   4.457   7.677   7.873 -0.5182 -0.6891 -0.2910
 1017MOL0     H37237   4.523   7.607   7.719 -3.0630  0.0204 -4.2424
 1017MOL0     H37238   4.593   7.885   7.805 -1.2293 -0.9939 -0.8505
 1017MOL0     H37239   4.675   7.737   7.872  0.9443 -2.4787 -1.5825
 1017MOL0     H37240   4.742   7.685   7.644  2.7651  1.2405  0.4941
 1017MOL0     H37241   4.632   7.814   7.580  0.1198  0.0549 -0.4858
 1017MOL0     H37242   4.811   7.934   7.556 -0.6575  0.5516 -0.0471
 1017MOL0     H37243   4.779   7.983   7.717 -1.7286 -0.6447  0.1942
 1017MOL0     H37244   4.950   7.793   7.781  0.0296  2.4280  0.9056
 1017MOL0     H37245   5.019   7.935   7.708  0.5179  0.1122 -3.6167
 1017MOL0     H37246   4.966   7.872   7.386 -0.7033  0.8654  1.3681
 1017MOL0     H37247   4.941   7.504   7.239  1.8734 -0.8895 -1.2544
 1017MOL0     H37248   4.912   7.676   7.198  1.9939  0.4467 -1.5093
 1017MOL0     H37249   5.132   7.723   7.164 -2.7149  0.3913  0.8597
 1017MOL0     H37250   5.057   7.612   7.051 -1.4335  3.1854  0.8273
 1017MOL0     H37251   5.158   7.412   7.169  1.4869 -0.3562 -3.1429
 1017MOL0     H37252   5.250   7.526   7.278  1.7704 -1.5979 -1.0134
 1017MOL0     H37253   5.407   7.489   7.143  3.5093 -0.8222 -3.7518
 1017MOL0     H37254   5.342   7.632   7.070  1.3777 -0.3313  1.9358
 1017MOL0     H37255   5.409   7.282   7.151 -1.0898 -0.5823 -0.0747
 1017MOL0     H37256   5.379   6.969   7.212 -0.1133  1.0075 -1.0307
 1017MOL0     H37257   5.514   6.940   7.104 -2.5982 -0.9387 -3.2962
 1017MOL0     H37258   5.513   7.077   7.211 -2.1243  2.4897  0.7059
 1017MOL0     H37259   5.617   6.769   6.728  2.0177 -1.3813 -0.1927
 1017MOL0     H37260   5.660   6.566   6.607  0.1133  0.5908  0.9427
 1017MOL0     H37261   5.589   6.253   6.396  3.2221 -0.3982 -1.0005
 1017MOL0     H37262   5.680   6.398   6.436 -0.9324 -0.2053 -2.2393
 1017MOL0     H37263   5.703   6.321   6.676 -1.2185  0.2787  1.2854
 1017MOL0     H37264   5.559   6.239   6.672 -0.0543  1.4163 -0.3435
 1017MOL0     H37265   5.794   6.136   6.532  2.4778  1.3364  2.5393
 1017MOL0     H37266   5.643   6.045   6.591 -0.1841  1.1104  0.8043
 1017MOL0     H37267   5.849   6.170   6.754  0.4737 -1.7673  2.9448
 1017MOL0     H37268   5.689   6.116   6.807 -1.9413 -3.2375 -0.8339
 1017MOL0     H37269   5.904   5.943   6.688  0.9284  3.0910  1.2411
 1017MOL0     H37270   5.743   5.876   6.725 -0.1669 -0.3293 -2.0060
 1017MOL0     H37271   5.970   5.997   6.912  0.4164 -0.4829  0.9405
 1017MOL0     H37272   5.813   5.976   6.973 -0.1670  2.7225 -1.8662
 1017MOL0     H37273   5.989   5.767   6.848 -0.5738 -0.6721 -1.9323
 1017MOL0     H37274   5.819   5.732   6.908 -0.3390  1.7596  3.3138
 1017MOL0     H37275   5.892   5.808   7.133 -1.0440 -0.4122 -1.0803
 1017MOL0     H37276   6.058   5.806   7.074 -0.4972 -0.0512 -0.6069
 1017MOL0     H37277   5.242   6.493   6.540 -0.9185  1.3278 -1.0180
 1017MOL0     H37278   5.192   6.716   6.657 -0.3780  1.3827 -3.0476
 1017MOL0     H37279   5.279   7.104   6.710  0.3386 -1.3765  0.7440
 1017MOL0     H37280   5.231   7.319   6.751  0.3639  1.6586  0.9292
 1017MOL0     H37281   4.118   8.114   7.643  1.1973 -4.1909  4.9522
 1017MOL0     H37282   3.926   8.273   7.607  0.6683 -0.1213  0.1683
 1017MOL0     H37283   3.409   8.306   7.283  3.0115 -3.2709  1.7642
 1017MOL0     H37284   3.319   8.534   7.265 -0.9358 -3.9621  0.3196
 1017MOL0     H37285   3.283   8.819   7.274  0.7366 -0.0324  0.1144
 1017MOL0     H37286   3.192   8.687   7.358  0.9626 -0.6012 -0.1098
 1017MOL0     H37287   3.101   8.931   7.385  0.5447  0.2755 -0.1280
 1017MOL0     H37288   3.248   8.968   7.469 -0.9129  1.5318  0.0132
 1017MOL0     H37289   3.053   8.749   7.540  0.1450  0.4965 -1.3472
 1017MOL0     H37290   3.023   8.915   7.594 -1.4423 -1.4592  0.3277
 1017MOL0     H37291   3.264   8.904   7.705  1.0654  0.5228 -1.0853
 1017MOL0     H37292   3.246   8.730   7.686 -0.0145  0.2897 -2.1208
 1017MOL0     H37293   2.987   8.816   8.000 -0.7161  1.2703 -0.2883
 1017MOL0     H37294   3.534   8.658   7.618  1.0446 -0.9351  0.9257
 1017MOL0     H37295   3.615   8.438   7.648 -0.3532  0.0250  0.8170
 1018MOL0     O37296   7.341   0.884   6.518  0.0115  0.5504  1.0833
 1018MOL0     C37297   7.366   0.844   6.400 -0.2658 -0.4962 -0.2923
 1018MOL0     O37298   7.488   0.796   6.359  0.2758  0.2183 -0.0753
 1018MOL0     C37299   7.589   0.797   6.454  0.3494  0.8985  1.2651
 1018MOL0     C37300   7.704   0.853   6.410  0.4516  0.7148  0.7793
 1018MOL0     C37301   7.810   0.867   6.495 -0.7794  0.0662 -0.1702
 1018MOL0     C37302   7.807   0.812   6.619  0.4302  0.4790 -0.1691
 1018MOL0     O37303   7.916   0.833   6.691  0.1379 -1.0444 -0.4974
 1018MOL0     C37304   7.977   0.728   6.772  1.3048  0.7665  0.8618
 1018MOL0     C37305   8.065   0.793   6.873 -0.1177 -0.4075 -1.1980
 1018MOL0     C37306   8.183   0.876   6.819  0.9664  0.4801 -0.3791
 1018MOL0     C37307   8.272   0.789   6.723  0.4578 -0.4953 -0.6782
 1018MOL0     C37308   8.377   0.875   6.656  0.4827 -0.4559 -0.0417
 1018MOL0     C37309   8.454   0.788   6.558  0.2677  0.1862 -0.3368
 1018MOL0     C37310   8.605   0.785   6.560 -0.0895 -0.7628  0.0344
 1018MOL0     C37311   8.665   0.711   6.443  0.1223  0.3980 -0.1229
 1018MOL0     N37312   8.811   0.716   6.441 -0.3655  0.2605  0.2570
 1018MOL0     C37313   8.878   0.827   6.395 -0.7936 -0.1214 -0.0459
 1018MOL0     C37314   9.007   0.789   6.380  0.1752  0.0408 -0.3955
 1018MOL0     C37315   9.117   0.869   6.315 -0.9408  0.0648 -0.0294
 1018MOL0     C37316   9.068   0.943   6.191  0.4968 -0.0421 -0.5011
 1018MOL0     C37317   9.005   0.849   6.079 -0.6756  0.0522  0.0142
 1018MOL0     C37318   8.940   0.928   5.975 -0.1399 -0.7747  0.9122
 1018MOL0     O37319   8.814   0.985   6.012  0.0244  0.6000 -0.2775
 1018MOL0     C37320   8.703   0.905   6.024  0.2339 -0.4996  0.1592
 1018MOL0     C37321   8.703   0.769   5.991 -0.4490  0.7909 -0.5075
 1018MOL0     C37322   8.589   0.694   6.010  1.0103  0.1506 -0.3219
 1018MOL0     C37323   8.600   0.544   5.996  0.4992  0.2070  0.0635
 1018MOL0     C37324   8.473   0.755   6.068 -0.4350  0.0726 -0.0276
 1018MOL0     C37325   8.358   0.684   6.117  0.5358 -0.6183 -0.1630
 1018MOL0     O37326   8.232   0.735   6.080 -0.7194 -0.8113 -0.5268
 1018MOL0     C37327   8.118   0.685   6.125 -0.2962  1.1347 -0.0313
 1018MOL0     C37328   8.021   0.669   6.028 -0.4796  0.6033 -0.8226
 1018MOL0     C37329   7.892   0.639   6.067  0.3349 -0.3857 -0.0965
 1018MOL0     C37330   7.864   0.608   6.208  1.3613 -0.9284  0.3956
 1018MOL0     O37331   7.739   0.579   6.262 -0.4916 -0.1030  0.1417
 1018MOL0     C37332   7.643   0.521   6.173 -0.3388  0.6656  0.6492
 1018MOL0     C37333   7.563   0.407   6.237  0.0442  0.6046 -0.1456
 1018MOL0     C37334   7.664   0.291   6.253  1.1883 -0.0118  0.7133
 1018MOL0     C37335   7.589   0.173   6.315 -0.0941  0.7384 -1.1203
 1018MOL0     C37336   7.688   0.073   6.356  0.0688  0.3061 -0.8678
 1018MOL0     C37337   7.617  -0.053   6.420  0.6415 -0.0887  0.3765
 1018MOL0     C37338   7.705  -0.179   6.447  0.6004  0.8838 -1.5334
 1018MOL0     C37339   7.823  -0.147   6.540 -0.6404  0.1908  0.4970
 1018MOL0    Cl37340   7.913  -0.292   6.581 -0.1079 -0.6104 -0.2388
 1018MOL0     C37341   7.967   0.614   6.300  0.3943  0.0134  0.0131
 1018MOL0     C37342   8.091   0.666   6.262 -0.3892  0.8645  0.4673
 1018MOL0     O37343   8.373   0.578   6.171 -0.0118  0.4981 -0.8534
 1018MOL0     C37344   8.471   0.891   6.102  0.2059 -0.9197 -0.8353
 1018MOL0     C37345   8.586   0.969   6.090  0.3177  0.4678 -0.7349
 1018MOL0     N37346   9.011   0.656   6.421 -0.7983 -0.3413 -0.5893
 1018MOL0     N37347   8.893   0.600   6.442 -0.0499  0.1749  0.6921
 1018MOL0     C37348   7.691   0.727   6.655 -0.9391 -0.7756 -0.0716
 1018MOL0     C37349   7.580   0.726   6.575 -0.6778  0.2702  0.2733
 1018MOL0     C37350   7.258   0.846   6.306  0.4290  0.2843  1.1074
 1018MOL0     C37351   7.147   0.925   6.320  0.1387 -0.0065 -0.0023
 1018MOL0     C37352   7.038   0.909   6.234 -0.0447  0.5286  0.4353
 1018MOL0     C37353   7.045   0.819   6.123 -0.1745  0.0944 -0.3253
 1018MOL0     O37354   6.930   0.796   6.045 -0.0508 -0.3834  0.1319
 1018MOL0     C37355   6.908   0.679   5.970 -0.7087  0.5251 -0.1527
 1018MOL0     C37356   6.757   0.635   5.973  0.3067 -0.7014 -0.6983
 1018MOL0     C37357   6.661   0.747   5.948  0.0071 -0.1417 -0.3383
 1018MOL0     C37358   6.531   0.702   5.883  0.1497 -0.6568  0.3606
 1018MOL0     C37359   6.439   0.645   5.980  1.1097 -0.5281  0.5561
 1018MOL0     C37360   6.349   0.603   6.045  1.1503  0.3097  0.1039
 1018MOL0     C37361   7.165   0.764   6.094 -1.0593 -0.4864 -0.7279
 1018MOL0     C37362   7.269   0.772   6.185 -0.5059 -0.0930  0.1696
 1018MOL0     H37363   7.728   0.875   6.306 -1.6147  0.1382  0.1218
 1018MOL0     H37364   7.903   0.908   6.456 -0.4152  0.5779  1.1728
 1018MOL0     H37365   7.902   0.673   6.830 -0.3466  0.8574 -1.0814
 1018MOL0     H37366   8.032   0.658   6.708  1.3249  0.3185  1.3612
 1018MOL0     H37367   8.020   0.870   6.936  2.0269  2.5236 -3.0074
 1018MOL0     H37368   8.092   0.711   6.941 -4.3760 -0.0609  1.2325
 1018MOL0     H37369   8.138   0.961   6.766  3.9931  1.6574 -1.2602
 1018MOL0     H37370   8.238   0.911   6.906 -3.2182  0.3850  2.5778
 1018MOL0     H37371   8.305   0.696   6.770 -1.3358 -1.6483 -1.5912
 1018MOL0     H37372   8.206   0.747   6.646 -0.6913 -1.4831  0.7804
 1018MOL0     H37373   8.331   0.956   6.600  1.0725 -1.3477 -1.9265
 1018MOL0     H37374   8.443   0.910   6.736 -2.0371 -1.4220  2.6493
 1018MOL0     H37375   8.435   0.682   6.573  2.8056 -0.5486 -1.8395
 1018MOL0     H37376   8.419   0.824   6.460 -0.8380 -1.1791 -0.4738
 1018MOL0     H37377   8.642   0.888   6.552 -3.2222  0.3368 -3.4442
 1018MOL0     H37378   8.647   0.741   6.651 -2.4412 -1.0836  1.0402
 1018MOL0     H37379   8.620   0.752   6.352 -1.9502 -2.1796 -0.3939
 1018MOL0     H37380   8.631   0.608   6.431 -1.5453  0.9465 -0.4782
 1018MOL0     H37381   8.841   0.926   6.368 -0.7639 -0.3391 -0.8941
 1018MOL0     H37382   9.153   0.944   6.386  1.7865 -1.4482  0.3190
 1018MOL0     H37383   9.204   0.809   6.287 -1.0017  0.5891 -1.4250
 1018MOL0     H37384   9.149   0.997   6.141  0.3007  1.6325  0.9123
 1018MOL0     H37385   8.993   1.017   6.219 -0.2231 -1.4955  1.6806
 1018MOL0     H37386   8.942   0.774   6.127 -0.2771 -0.2816  0.0260
 1018MOL0     H37387   9.083   0.799   6.021 -1.1146  0.7721 -1.2424
 1018MOL0     H37388   8.934   0.869   5.883 -1.4892  1.4619 -0.5270
 1018MOL0     H37389   9.005   1.007   5.938 -1.0876 -0.8772 -1.1231
 1018MOL0     H37390   8.781   0.716   5.939 -1.2876 -2.1033  0.9896
 1018MOL0     H37391   8.510   0.496   5.958  0.9857 -0.2807 -0.4980
 1018MOL0     H37392   8.675   0.511   5.924 -1.1369 -0.5372 -1.3603
 1018MOL0     H37393   8.622   0.502   6.095  1.2570 -2.4038 -1.1062
 1018MOL0     H37394   8.052   0.676   5.924 -0.9318 -2.6960 -1.3068
 1018MOL0     H37395   7.824   0.620   5.985 -0.0388  0.6318 -0.0408
 1018MOL0     H37396   7.583   0.604   6.132  1.2467  0.6172 -1.9757
 1018MOL0     H37397   7.691   0.483   6.083  0.0382 -0.5386  1.3498
 1018MOL0     H37398   7.505   0.445   6.322 -0.9206 -0.4554 -0.3059
 1018MOL0     H37399   7.490   0.378   6.160  0.4861 -2.6991  0.5676
 1018MOL0     H37400   7.749   0.315   6.318  2.7005  0.4251 -1.2946
 1018MOL0     H37401   7.705   0.270   6.153 -2.5318 -0.0528 -0.9592
 1018MOL0     H37402   7.541   0.194   6.411  0.1510 -1.8904 -0.3457
 1018MOL0     H37403   7.518   0.130   6.244  1.8988 -0.4816 -2.4604
 1018MOL0     H37404   7.759   0.117   6.427 -1.2754  0.2752  0.5295
 1018MOL0     H37405   7.743   0.027   6.273  2.1280 -2.4169  1.7980
 1018MOL0     H37406   7.567  -0.021   6.511 -3.8705 -0.8048 -1.6015
 1018MOL0     H37407   7.540  -0.085   6.349 -1.0565  0.6918  1.7876
 1018MOL0     H37408   7.739  -0.213   6.349  0.1400  1.2844 -1.8386
 1018MOL0     H37409   7.644  -0.259   6.492  0.3157  1.8957 -0.0533
 1018MOL0     H37410   7.792  -0.103   6.635  2.3997 -1.9632  2.7055
 1018MOL0     H37411   7.883  -0.074   6.485 -1.4945  1.0682  0.7033
 1018MOL0     H37412   7.946   0.577   6.400  3.8482 -0.7400  0.5856
 1018MOL0     H37413   8.171   0.684   6.333  1.6635  2.0902 -2.0174
 1018MOL0     H37414   8.379   0.935   6.140  0.6069 -2.0325  1.5354
 1018MOL0     H37415   8.583   1.077   6.099 -0.1900  0.3753  0.3162
 1018MOL0     H37416   7.677   0.669   6.746 -4.1509  1.8175  1.3305
 1018MOL0     H37417   7.484   0.683   6.604 -0.9061  1.1697  0.8853
 1018MOL0     H37418   7.135   0.990   6.406  0.6370  0.6709 -0.4282
 1018MOL0     H37419   6.951   0.971   6.249  0.5585  2.1392 -2.0798
 1018MOL0     H37420   6.929   0.687   5.863 -0.4437  1.6362 -0.0313
 1018MOL0     H37421   6.972   0.605   6.020 -0.8472  2.4170  3.1418
 1018MOL0     H37422   6.741   0.594   6.073  4.8339  1.5028  1.2490
 1018MOL0     H37423   6.747   0.551   5.904 -1.0284 -0.3109 -0.9979
 1018MOL0     H37424   6.702   0.806   5.865  4.3628 -4.2195 -1.5273
 1018MOL0     H37425   6.635   0.807   6.035  3.8063  1.7935 -0.3057
 1018MOL0     H37426   6.559   0.628   5.808  0.4411  0.3672 -0.5790
 1018MOL0     H37427   6.476   0.782   5.832 -2.2705 -0.0495  3.6395
 1018MOL0     H37428   6.276   0.545   6.098  1.2909 -2.1680 -2.1745
 1018MOL0     H37429   7.179   0.695   6.012 -1.0054 -1.4615  0.0770
 1018MOL0     H37430   7.367   0.728   6.173  0.2082  1.6094 -0.6350
 1019MOL0     O37431   1.817   1.630   5.199 -0.5292 -0.2084  0.6198
 1019MOL0     C37432   1.739   1.708   5.244  0.4384  0.1368  0.8255
 1019MOL0     O37433   1.768   1.829   5.295 -1.0102  0.9094  1.4042
 1019MOL0     C37434   1.899   1.870   5.277 -0.4440  1.2547  0.0748
 1019MOL0     C37435   1.994   1.864   5.382 -0.0391  0.9966  0.5865
 1019MOL0     C37436   2.124   1.904   5.362 -0.0062  0.3425 -0.1018
 1019MOL0     C37437   2.179   1.952   5.246  0.1416  0.2664 -0.2589
 1019MOL0     O37438   2.306   1.999   5.261  0.2683  0.5630  0.4146
 1019MOL0     C37439   2.380   2.048   5.147 -0.1938  0.4370  0.1691
 1019MOL0     C37440   2.472   2.162   5.183 -0.2355  0.5704  0.7376
 1019MOL0     C37441   2.580   2.188   5.081 -0.8221  0.0234 -0.5669
 1019MOL0     C37442   2.679   2.300   5.111  0.0248 -0.0790 -0.5769
 1019MOL0     C37443   2.786   2.319   4.998 -0.1089  0.0515 -0.1071
 1019MOL0     C37444   2.839   2.461   5.011 -0.2262 -0.1979  0.5935
 1019MOL0     C37445   2.934   2.505   4.910 -0.4768 -0.7024  0.2321
 1019MOL0     C37446   2.895   2.496   4.765 -0.1129 -0.4677 -0.4909
 1019MOL0     N37447   2.764   2.551   4.729  0.3240  0.7596 -0.4993
 1019MOL0     C37448   2.650   2.472   4.697  0.0198  0.2282  0.0034
 1019MOL0     C37449   2.572   2.559   4.632  0.6627 -0.6759  0.5615
 1019MOL0     C37450   2.439   2.538   4.565 -0.1424 -0.4356  0.0519
 1019MOL0     C37451   2.356   2.669   4.588  0.5387 -0.4994 -0.9414
 1019MOL0     C37452   2.205   2.630   4.551 -0.5581  0.5832  0.5639
 1019MOL0     C37453   2.120   2.755   4.552  0.5259  0.6241 -1.1375
 1019MOL0     O37454   2.120   2.822   4.677 -0.6471 -0.3272  0.0842
 1019MOL0     C37455   2.018   2.776   4.763  0.3428 -0.4886 -0.0835
 1019MOL0     C37456   1.887   2.831   4.749 -0.0825 -0.0893  0.1402
 1019MOL0     C37457   1.790   2.781   4.835  0.2250 -0.3036  0.2060
 1019MOL0     C37458   1.650   2.831   4.791 -0.7229  0.5967 -0.2055
 1019MOL0     C37459   1.805   2.673   4.930  0.7195 -0.2855  0.0632
 1019MOL0     C37460   1.694   2.611   5.011 -0.3855 -0.5455 -0.6794
 1019MOL0     O37461   1.745   2.580   5.133 -0.4591  0.3131  0.2243
 1019MOL0     C37462   1.656   2.520   5.224  0.1478  0.0828 -0.0038
 1019MOL0     C37463   1.581   2.400   5.203  0.2013 -1.3939  0.7546
 1019MOL0     C37464   1.515   2.342   5.309 -0.3906  0.4693  0.5692
 1019MOL0     C37465   1.515   2.414   5.435  0.3930  0.3743 -0.2043
 1019MOL0     O37466   1.472   2.364   5.557 -1.4411 -0.0234 -0.3525
 1019MOL0     C37467   1.343   2.309   5.535  0.1636  0.8704  0.4973
 1019MOL0     C37468   1.265   2.277   5.666  0.0156 -0.4927 -0.1608
 1019MOL0     C37469   1.196   2.403   5.716  0.1236 -0.1017  0.0453
 1019MOL0     C37470   1.108   2.356   5.831 -1.3577  0.8291 -0.3959
 1019MOL0     C37471   1.033   2.462   5.895 -0.0228  0.7199 -0.8363
 1019MOL0     C37472   0.965   2.403   6.025 -0.4276 -0.6819  0.1433
 1019MOL0     C37473   0.874   2.519   6.082 -0.3100 -0.2499  0.0615
 1019MOL0     C37474   0.808   2.487   6.221 -0.1073  0.0773 -0.2585
 1019MOL0    Cl37475   0.944   2.471   6.342  0.3989  0.1702  0.2266
 1019MOL0     C37476   1.594   2.526   5.451 -0.1244 -0.2520  0.1220
 1019MOL0     C37477   1.678   2.570   5.350 -0.0621  0.4961 -0.0682
 1019MOL0     O37478   1.583   2.582   4.962 -0.1150  0.0104 -0.6272
 1019MOL0     C37479   1.931   2.614   4.923  0.0904  0.0521 -0.0932
 1019MOL0     C37480   2.034   2.659   4.842  0.0772 -1.2938  0.7869
 1019MOL0     N37481   2.638   2.674   4.610  0.2485 -1.2372 -0.4222
 1019MOL0     N37482   2.746   2.678   4.673 -0.3534  0.4658 -0.2091
 1019MOL0     C37483   2.080   1.961   5.138  0.3502  0.1457  0.4638
 1019MOL0     C37484   1.946   1.914   5.152 -0.2505  0.2931  0.1739
 1019MOL0     C37485   1.600   1.674   5.274 -0.1289  0.8288  0.7216
 1019MOL0     C37486   1.539   1.724   5.391  0.6714  0.0479 -0.1196
 1019MOL0     C37487   1.416   1.677   5.437 -0.4959  0.3868  0.9882
 1019MOL0     C37488   1.348   1.571   5.372 -0.5413  0.5753 -0.3594
 1019MOL0     O37489   1.217   1.540   5.401  0.2372  0.1177  0.3902
 1019MOL0     C37490   1.202   1.510   5.542 -0.2025  0.6219  0.7222
 1019MOL0     C37491   1.064   1.497   5.587  0.1999 -0.4812  0.2722
 1019MOL0     C37492   0.960   1.610   5.558 -0.5655  0.2867 -0.7999
 1019MOL0     C37493   0.966   1.733   5.667 -0.4478  0.6612 -0.4092
 1019MOL0     C37494   1.080   1.819   5.640  0.2943  0.3351  0.6424
 1019MOL0     C37495   1.184   1.883   5.644  0.0753 -0.6910 -0.1493
 1019MOL0     C37496   1.419   1.513   5.255 -0.0268 -1.0925  0.8270
 1019MOL0     C37497   1.540   1.566   5.211  0.7175 -0.3677 -0.2426
 1019MOL0     H37498   1.967   1.824   5.479  1.6073  1.5879  1.3200
 1019MOL0     H37499   2.192   1.894   5.446  0.4832  1.3416 -0.3556
 1019MOL0     H37500   2.445   1.970   5.107  0.6602  0.9693  0.4828
 1019MOL0     H37501   2.321   2.061   5.056  1.7014 -2.1288 -1.5729
 1019MOL0     H37502   2.423   2.259   5.185 -1.2372  0.2529 -2.6925
 1019MOL0     H37503   2.524   2.140   5.278  2.4042  3.1025  0.0232
 1019MOL0     H37504   2.648   2.104   5.063  2.4040  3.0015 -4.4868
 1019MOL0     H37505   2.534   2.202   4.983 -1.8715 -1.6168 -0.3431
 1019MOL0     H37506   2.626   2.393   5.135  2.0114  0.4555  2.3243
 1019MOL0     H37507   2.737   2.276   5.201  2.5284  1.0143 -1.7939
 1019MOL0     H37508   2.863   2.243   5.014 -0.5079  0.0518  2.0245
 1019MOL0     H37509   2.738   2.314   4.900 -1.0325 -1.2984  0.3928
 1019MOL0     H37510   2.755   2.532   5.012 -0.1435 -0.0678  2.7699
 1019MOL0     H37511   2.886   2.478   5.108  1.3442  0.0698 -0.1867
 1019MOL0     H37512   2.961   2.610   4.921  2.0016 -0.9055 -2.4564
 1019MOL0     H37513   3.030   2.453   4.920 -0.2680 -0.9910 -2.3718
 1019MOL0     H37514   2.889   2.387   4.761 -0.7589 -0.5066  0.8304
 1019MOL0     H37515   2.976   2.542   4.707 -0.8449  1.6008  0.0114
 1019MOL0     H37516   2.628   2.370   4.727 -2.1271 -0.2429 -2.8009
 1019MOL0     H37517   2.449   2.510   4.459 -2.5658 -1.0514 -0.0875
 1019MOL0     H37518   2.388   2.457   4.618  1.2497 -0.3606  1.5592
 1019MOL0     H37519   2.385   2.751   4.522  2.1292 -0.2810 -0.0181
 1019MOL0     H37520   2.362   2.705   4.691 -2.8622 -0.8118 -0.5197
 1019MOL0     H37521   2.169   2.547   4.613  0.6380  0.4223  1.0810
 1019MOL0     H37522   2.199   2.602   4.446  0.2182 -2.9161  1.3244
 1019MOL0     H37523   2.018   2.719   4.534  0.3127  0.8837 -0.4781
 1019MOL0     H37524   2.136   2.825   4.469 -2.2886  0.8775 -1.5513
 1019MOL0     H37525   1.862   2.905   4.673 -2.6938  0.9829  1.8826
 1019MOL0     H37526   1.600   2.751   4.736 -0.3207 -0.3979  0.8545
 1019MOL0     H37527   1.599   2.855   4.885  0.2981  0.5478  0.3702
 1019MOL0     H37528   1.657   2.920   4.726  0.3657 -1.0375 -2.4747
 1019MOL0     H37529   1.576   2.368   5.099 -3.3861 -0.4597  0.5181
 1019MOL0     H37530   1.467   2.245   5.299 -0.7641  0.9099 -2.8554
 1019MOL0     H37531   1.280   2.372   5.471  1.0091 -0.7042 -2.0223
 1019MOL0     H37532   1.370   2.219   5.480  1.0096  1.7205 -0.5373
 1019MOL0     H37533   1.197   2.193   5.651 -1.2716  0.7454 -1.6212
 1019MOL0     H37534   1.336   2.237   5.739  0.0359 -0.1364  0.0184
 1019MOL0     H37535   1.128   2.451   5.644  0.6295  3.1118  1.5209
 1019MOL0     H37536   1.259   2.487   5.748 -2.5529  1.2611  2.2015
 1019MOL0     H37537   1.039   2.276   5.803 -2.7473  1.7965  0.1494
 1019MOL0     H37538   1.176   2.312   5.904  0.9716  2.2598 -1.5523
 1019MOL0     H37539   0.957   2.500   5.826  0.5300  1.3855 -1.0973
 1019MOL0     H37540   1.098   2.548   5.914  0.7444  0.6319 -2.8594
 1019MOL0     H37541   0.903   2.314   6.011  2.3539 -2.5398 -1.1875
 1019MOL0     H37542   1.048   2.388   6.095  0.4417  0.3264 -0.6284
 1019MOL0     H37543   0.800   2.542   6.004 -0.0512  1.2724  0.2312
 1019MOL0     H37544   0.941   2.604   6.100  0.9758 -1.4432  1.2205
 1019MOL0     H37545   0.745   2.398   6.210 -1.7928  0.9310  1.8035
 1019MOL0     H37546   0.746   2.566   6.264 -0.3029 -1.4958  2.5794
 1019MOL0     H37547   1.586   2.577   5.547 -2.8930 -0.4143  0.0585
 1019MOL0     H37548   1.752   2.646   5.371  1.4595 -0.4771 -1.6578
 1019MOL0     H37549   1.950   2.527   4.985  0.9330 -0.1254 -0.5856
 1019MOL0     H37550   2.130   2.609   4.832  0.6476  0.2414 -2.9435
 1019MOL0     H37551   2.126   1.984   5.042  2.3041  1.4626  1.6340
 1019MOL0     H37552   1.871   1.911   5.073 -1.3959 -0.9751  1.2606
 1019MOL0     H37553   1.596   1.783   5.463 -1.2412  3.8105 -1.4137
 1019MOL0     H37554   1.374   1.706   5.534  0.4103  0.1501  1.4633
 1019MOL0     H37555   1.249   1.412   5.555 -1.0847  0.2043  0.8309
 1019MOL0     H37556   1.252   1.580   5.609 -1.7824  2.0831  0.4399
 1019MOL0     H37557   1.066   1.466   5.692  0.9135  2.8391  1.3702
 1019MOL0     H37558   1.025   1.414   5.528 -1.0343  0.3203 -0.0883
 1019MOL0     H37559   0.861   1.565   5.552 -1.4939  2.3916 -1.9592
 1019MOL0     H37560   0.989   1.652   5.461  1.9457  2.0719  0.5987
 1019MOL0     H37561   0.970   1.702   5.772  0.7745  0.4936 -0.4893
 1019MOL0     H37562   0.877   1.796   5.651 -1.2468 -0.4017 -0.2432
 1019MOL0     H37563   1.269   1.948   5.645  2.2703 -3.1876  3.8572
 1019MOL0     H37564   1.380   1.436   5.189  1.3543 -0.7318 -0.4797
 1019MOL0     H37565   1.585   1.525   5.122  0.9514  2.9835 -1.8097
 1020MOL0     O37566  10.477   7.932   2.968 -0.0005 -0.7831  0.4011
 1020MOL0     C37567  10.538   7.899   3.073  0.0003  0.0652  0.1845
 1020MOL0     O37568  10.505   7.802   3.160 -0.0117 -0.1311  0.6046
 1020MOL0     C37569  10.398   7.718   3.136  0.3014  0.1122  0.3512
 1020MOL0     C37570  10.290   7.713   3.229  0.4690 -0.0825  0.5893
 1020MOL0     C37571  10.181   7.626   3.198 -0.5065  0.8916  0.1175
 1020MOL0     C37572  10.185   7.543   3.084  0.0941  0.0092  0.3005
 1020MOL0     O37573  10.071   7.470   3.075 -0.0132 -0.1634 -0.3550
 1020MOL0     C37574  10.044   7.403   2.951  0.5674 -0.8498  1.2642
 1020MOL0     C37575   9.913   7.333   2.955  0.3097 -0.5607  0.0476
 1020MOL0     C37576   9.883   7.232   2.837 -0.1367 -0.6853 -0.1121
 1020MOL0     C37577   9.755   7.159   2.879 -0.1983 -0.2367 -0.3187
 1020MOL0     C37578   9.721   7.049   2.785  0.2032 -0.5655 -0.2283
 1020MOL0     C37579   9.650   7.118   2.666 -0.6762 -0.8251  0.2313
 1020MOL0     C37580   9.660   7.039   2.539  0.8318  0.6416 -0.0435
 1020MOL0     C37581   9.606   6.891   2.545 -0.0541 -0.2511 -0.4350
 1020MOL0     N37582   9.617   6.813   2.415  0.6056 -0.5002 -0.5603
 1020MOL0     C37583   9.555   6.839   2.298  0.4222 -0.8382 -0.8110
 1020MOL0     C37584   9.620   6.769   2.205  0.0041 -0.5667 -1.8141
 1020MOL0     C37585   9.596   6.792   2.056 -0.1206 -0.4759  0.1793
 1020MOL0     C37586   9.634   6.923   1.998  0.0499  0.5961 -0.2081
 1020MOL0     C37587   9.527   7.023   2.012  0.0363 -0.1147  0.3285
 1020MOL0     C37588   9.531   7.148   1.920  0.0394  0.9012 -0.4778
 1020MOL0     O37589   9.513   7.103   1.785 -0.1652  0.9348 -0.0051
 1020MOL0     C37590   9.399   7.043   1.734 -0.1825 -0.1015 -0.0947
 1020MOL0     C37591   9.276   7.050   1.806 -0.3649 -0.0580 -0.7312
 1020MOL0     C37592   9.155   7.017   1.749  0.0529  1.0795 -0.4875
 1020MOL0     C37593   9.031   7.046   1.823 -0.3099  0.3628  0.9800
 1020MOL0     C37594   9.152   6.972   1.618 -0.7942 -0.1914 -0.2231
 1020MOL0     C37595   9.028   6.968   1.543  0.0956 -0.1797 -0.0675
 1020MOL0     O37596   8.974   7.086   1.494  0.9738  0.2925  0.0979
 1020MOL0     C37597   8.854   7.097   1.423  0.1681 -0.1884  0.3182
 1020MOL0     C37598   8.840   7.127   1.284 -0.3228 -0.0399 -0.3539
 1020MOL0     C37599   8.718   7.125   1.221 -0.9069  0.3029  0.0736
 1020MOL0     C37600   8.597   7.104   1.292 -0.8719 -0.2265  1.0080
 1020MOL0     O37601   8.478   7.102   1.224 -0.6583  0.0519  0.3266
 1020MOL0     C37602   8.371   7.011   1.271  1.1797 -0.1829 -0.0652
 1020MOL0     C37603   8.316   6.939   1.155  0.9473  0.2014 -0.3807
 1020MOL0     C37604   8.236   7.044   1.071  0.4210  0.7374 -0.0497
 1020MOL0     C37605   8.090   7.065   1.134 -0.1600  0.1013  0.9870
 1020MOL0     C37606   8.018   7.198   1.093  1.1931  0.1667  0.5205
 1020MOL0     C37607   7.972   7.187   0.950 -0.5818 -0.1878  0.5470
 1020MOL0     C37608   7.924   7.326   0.890 -0.8752 -0.2355  0.5063
 1020MOL0     C37609   7.815   7.386   0.970  0.1885  0.2684 -0.3679
 1020MOL0    Cl37610   7.709   7.490   0.864 -0.0998  0.2338  0.0036
 1020MOL0     C37611   8.603   7.100   1.433 -0.7470  0.3965  0.7325
 1020MOL0     C37612   8.731   7.095   1.494 -0.5515  0.3752  0.0709
 1020MOL0     O37613   8.982   6.852   1.521 -0.9572 -0.3961  0.6059
 1020MOL0     C37614   9.282   6.952   1.549 -0.0120  0.0923  0.0261
 1020MOL0     C37615   9.407   6.989   1.607 -0.6101  0.5133  0.2212
 1020MOL0     N37616   9.705   6.684   2.274  0.4554  1.0768 -0.5027
 1020MOL0     N37617   9.703   6.711   2.405 -0.1731 -0.5472 -0.4179
 1020MOL0     C37618  10.300   7.545   2.992  0.0643  0.1439 -0.0245
 1020MOL0     C37619  10.404   7.635   3.023  0.4089  0.5886  0.3302
 1020MOL0     C37620  10.659   7.978   3.103 -0.3341 -0.9560 -0.3500
 1020MOL0     C37621  10.727   7.947   3.224 -0.0516  0.6135 -0.2054
 1020MOL0     C37622  10.828   8.031   3.265  0.6187 -0.1828 -0.6663
 1020MOL0     C37623  10.864   8.154   3.196 -0.1295  0.3328  0.0023
 1020MOL0     O37624  10.957   8.251   3.237 -0.7417  0.1983  0.2500
 1020MOL0     C37625  11.058   8.206   3.333  0.2685 -0.1797  0.3058
 1020MOL0     C37626  11.149   8.092   3.281 -0.3890 -0.6365 -0.5605
 1020MOL0     C37627  11.221   8.118   3.143 -0.5239 -0.0465  0.0224
 1020MOL0     C37628  11.287   7.990   3.094  0.2594  0.1081 -0.9881
 1020MOL0     C37629  11.416   7.983   3.168 -0.3374  0.8010  0.4349
 1020MOL0     C37630  11.519   7.983   3.232 -0.0363 -0.0136 -0.5025
 1020MOL0     C37631  10.801   8.166   3.071  0.3469  0.0027  0.4231
 1020MOL0     C37632  10.712   8.077   3.025  0.2009 -0.5604 -0.0626
 1020MOL0     H37633  10.287   7.782   3.313 -0.0420  0.7463 -0.0860
 1020MOL0     H37634  10.102   7.618   3.273  0.4437  0.0792  1.0683
 1020MOL0     H37635  10.040   7.473   2.867  1.0504  0.2190  2.1089
 1020MOL0     H37636  10.126   7.332   2.937  2.9742  2.0731 -0.6152
 1020MOL0     H37637   9.896   7.276   3.047 -0.5254 -0.7851 -0.2350
 1020MOL0     H37638   9.832   7.407   2.953  0.1449 -0.7304 -1.7962
 1020MOL0     H37639   9.862   7.290   2.747  0.6825  1.4928  1.0127
 1020MOL0     H37640   9.967   7.167   2.813  1.4117  0.4834  1.8299
 1020MOL0     H37641   9.785   7.115   2.974  1.3001  1.8534  0.2663
 1020MOL0     H37642   9.670   7.226   2.897 -0.7493 -0.1201 -2.9300
 1020MOL0     H37643   9.815   7.002   2.754 -0.1148 -1.3751  0.0159
 1020MOL0     H37644   9.652   6.982   2.836 -1.3004  0.6524 -0.5810
 1020MOL0     H37645   9.545   7.131   2.695 -0.0667  0.0756  2.1740
 1020MOL0     H37646   9.698   7.214   2.645 -1.8662  0.2003  1.9234
 1020MOL0     H37647   9.607   7.103   2.468  1.1988  1.2500  0.2209
 1020MOL0     H37648   9.764   7.032   2.504  0.8838 -1.6238  0.3795
 1020MOL0     H37649   9.501   6.899   2.575 -0.1393 -1.0943 -0.4922
 1020MOL0     H37650   9.656   6.841   2.628 -1.1952  1.1888  1.1903
 1020MOL0     H37651   9.479   6.916   2.286  0.7389 -0.4752 -0.5155
 1020MOL0     H37652   9.657   6.720   2.000 -1.3024  0.7675 -2.9488
 1020MOL0     H37653   9.493   6.762   2.033 -1.5816  2.3885  2.3604
 1020MOL0     H37654   9.651   6.919   1.890 -1.0828  1.1298 -0.4220
 1020MOL0     H37655   9.720   6.960   2.054 -0.3644 -0.0711  0.8934
 1020MOL0     H37656   9.533   7.053   2.116 -1.0762  0.5360  0.2263
 1020MOL0     H37657   9.426   6.981   2.003 -0.6805  1.7331 -1.1232
 1020MOL0     H37658   9.635   7.179   1.927  0.9408 -1.4999 -2.1752
 1020MOL0     H37659   9.466   7.225   1.963  0.6630  1.2789 -0.1941
 1020MOL0     H37660   9.284   7.091   1.906 -1.5948 -0.8627 -0.2819
 1020MOL0     H37661   8.991   6.950   1.855 -0.4476  0.0802  0.0040
 1020MOL0     H37662   9.051   7.112   1.908  1.5237  0.3757  0.5821
 1020MOL0     H37663   8.956   7.093   1.759 -0.4369 -0.6362  0.3849
 1020MOL0     H37664   8.925   7.120   1.218 -0.1982  2.3574 -0.5207
 1020MOL0     H37665   8.717   7.122   1.112  0.8627  0.8089  0.0080
 1020MOL0     H37666   8.401   6.935   1.344 -0.6482  0.7187  1.7214
 1020MOL0     H37667   8.297   7.075   1.320  3.6019  1.7039  1.3365
 1020MOL0     H37668   8.405   6.903   1.103  1.1625  0.7247 -0.3845
 1020MOL0     H37669   8.248   6.861   1.192 -0.0421 -0.0628 -2.6258
 1020MOL0     H37670   8.209   6.993   0.978  1.8769 -1.7217  0.8085
 1020MOL0     H37671   8.274   7.145   1.054 -3.9390  2.7430  0.5974
 1020MOL0     H37672   8.024   6.981   1.112  1.2289 -0.0357 -3.8273
 1020MOL0     H37673   8.109   7.072   1.242  3.2988 -1.2208  0.5817
 1020MOL0     H37674   8.080   7.286   1.115 -0.8274  0.9821  3.6180
 1020MOL0     H37675   7.928   7.209   1.154 -0.5478  0.0591 -1.8821
 1020MOL0     H37676   8.054   7.160   0.882  0.7240  1.9164  1.1676
 1020MOL0     H37677   7.887   7.119   0.948  0.0481 -1.0991 -3.4980
 1020MOL0     H37678   7.887   7.306   0.788 -2.3179  2.0473  0.5099
 1020MOL0     H37679   8.007   7.394   0.871 -0.8835  0.4301  2.6134
 1020MOL0     H37680   7.848   7.445   1.055 -0.3322 -0.5648  0.4294
 1020MOL0     H37681   7.762   7.298   1.006  1.4264 -2.1566 -3.8717
 1020MOL0     H37682   8.518   7.069   1.492 -1.5118 -1.8768 -1.4009
 1020MOL0     H37683   8.741   7.076   1.601  0.5606 -3.0180 -0.4909
 1020MOL0     H37684   9.281   6.936   1.442  3.1026  0.0183 -0.0692
 1020MOL0     H37685   9.491   6.970   1.540 -0.7220 -0.6312  0.3861
 1020MOL0     H37686  10.307   7.469   2.914  1.1294  0.0931  0.1041
 1020MOL0     H37687  10.494   7.640   2.963 -0.1414  3.5835 -0.3815
 1020MOL0     H37688  10.696   7.868   3.292 -0.5679 -0.6412 -1.8400
 1020MOL0     H37689  10.870   7.995   3.358 -3.1205  0.3101  1.4101
 1020MOL0     H37690  11.129   8.284   3.363  3.8054 -3.1300  0.2470
 1020MOL0     H37691  11.020   8.174   3.431  2.5124  0.8514  1.6125
 1020MOL0     H37692  11.109   7.990   3.283 -0.8707 -0.4907 -1.6557
 1020MOL0     H37693  11.227   8.088   3.358  2.5192  1.3861 -3.1262
 1020MOL0     H37694  11.293   8.199   3.156  2.0601 -2.1135 -0.5303
 1020MOL0     H37695  11.138   8.146   3.077 -1.7081 -1.1946  0.9648
 1020MOL0     H37696  11.296   8.004   2.985 -1.2262  2.1498 -0.9114
 1020MOL0     H37697  11.221   7.906   3.115 -2.0693  1.7352 -1.3129
 1020MOL0     H37698  11.616   7.988   3.275  0.2895  3.0704 -1.3508
 1020MOL0     H37699  10.816   8.239   2.993 -2.6648  1.9861  1.5150
 1020MOL0     H37700  10.679   8.076   2.922 -2.8239  2.1550  0.7046
 1021MOL0     O37701   0.416   0.237   8.132  0.5371  0.0901  0.0016
 1021MOL0     C37702   0.449   0.147   8.210 -0.5252 -0.5419  0.0120
 1021MOL0     O37703   0.367   0.059   8.278 -0.1791  0.3159  0.4610
 1021MOL0     C37704   0.236   0.091   8.263 -0.1101  0.1483 -0.5505
 1021MOL0     C37705   0.180   0.208   8.318 -0.1883  0.2820 -0.7271
 1021MOL0     C37706   0.041   0.232   8.316  0.7594 -0.1600  0.2094
 1021MOL0     C37707  -0.043   0.128   8.271  0.2811  0.1727  0.1789
 1021MOL0     O37708  -0.174   0.154   8.296 -1.0932  0.4425  0.1403
 1021MOL0     C37709  -0.258   0.043   8.283  0.3657 -0.6458 -0.2201
 1021MOL0     C37710  -0.392   0.082   8.347  0.3865 -0.2150  0.0391
 1021MOL0     C37711  -0.516   0.026   8.278 -0.2310 -0.0155 -0.6098
 1021MOL0     C37712  -0.538  -0.127   8.292 -0.3368 -0.1130 -0.2539
 1021MOL0     C37713  -0.658  -0.194   8.223  0.1497 -0.4257 -0.8391
 1021MOL0     C37714  -0.626  -0.219   8.073  0.4234 -0.6369  0.0325
 1021MOL0     C37715  -0.531  -0.343   8.055 -0.6253 -0.0061 -0.6805
 1021MOL0     C37716  -0.461  -0.319   7.916 -0.4805 -0.3370  0.7462
 1021MOL0     N37717  -0.397  -0.447   7.876  0.8285  0.2598 -0.0889
 1021MOL0     C37718  -0.479  -0.535   7.804 -0.2914  0.1967  0.0439
 1021MOL0     C37719  -0.398  -0.641   7.788 -0.8487 -0.1101  0.2366
 1021MOL0     C37720  -0.431  -0.760   7.710  0.1332 -0.3527  0.2291
 1021MOL0     C37721  -0.565  -0.831   7.744  0.0004  0.1951 -0.4223
 1021MOL0     C37722  -0.560  -0.909   7.876 -1.1053  1.0943 -0.9904
 1021MOL0     C37723  -0.676  -1.004   7.898 -0.2096 -0.7204 -0.8745
 1021MOL0     O37724  -0.799  -0.944   7.938 -0.1764  0.3475  0.0121
 1021MOL0     C37725  -0.912  -0.999   7.886  0.6853 -0.4964 -0.7757
 1021MOL0     C37726  -1.025  -1.012   7.968  0.3163 -0.2834  0.3103
 1021MOL0     C37727  -1.130  -1.094   7.935 -0.1215  1.0020  0.0955
 1021MOL0     C37728  -1.238  -1.127   8.037 -1.0644 -0.5336  1.1845
 1021MOL0     C37729  -1.148  -1.155   7.803  0.8322 -0.2967  0.1652
 1021MOL0     C37730  -1.262  -1.233   7.753  0.5388  0.0505  0.4228
 1021MOL0     O37731  -1.233  -1.302   7.641 -0.6503  0.2124 -0.6336
 1021MOL0     C37732  -1.327  -1.365   7.569  1.0168  0.0080 -1.0701
 1021MOL0     C37733  -1.333  -1.329   7.437  0.5718 -0.7740 -0.0773
 1021MOL0     C37734  -1.423  -1.392   7.343 -0.2612 -0.7094 -0.1038
 1021MOL0     C37735  -1.508  -1.489   7.386  0.7743 -0.2561 -1.3089
 1021MOL0     O37736  -1.589  -1.549   7.287 -0.5172  0.1438 -0.2470
 1021MOL0     C37737  -1.705  -1.609   7.342  0.9368 -0.3075  0.4506
 1021MOL0     C37738  -1.802  -1.643   7.231  0.5716 -0.3570  0.9626
 1021MOL0     C37739  -1.927  -1.690   7.306  0.8746  0.3128 -0.4920
 1021MOL0     C37740  -2.020  -1.762   7.206 -0.1662  0.5371 -0.4324
 1021MOL0     C37741  -2.147  -1.822   7.272 -1.3071  0.5393 -0.3037
 1021MOL0     C37742  -2.225  -1.900   7.166 -0.0901 -0.6282  1.5459
 1021MOL0     C37743  -2.307  -1.809   7.081 -0.1345  0.1421  0.0047
 1021MOL0     C37744  -2.424  -1.879   7.020  0.1759  0.1697 -0.6674
 1021MOL0    Cl37745  -2.539  -1.925   7.142 -0.3115 -0.0810 -0.2383
 1021MOL0     C37746  -1.511  -1.514   7.528  0.1614 -0.3861  0.3820
 1021MOL0     C37747  -1.412  -1.462   7.616  0.8680 -0.0488 -1.0312
 1021MOL0     O37748  -1.369  -1.227   7.811  0.5091  0.0588  0.6193
 1021MOL0     C37749  -1.050  -1.118   7.712 -0.7482 -0.0315  0.1862
 1021MOL0     C37750  -0.931  -1.050   7.754 -0.0042  0.0767  0.1868
 1021MOL0     N37751  -0.273  -0.622   7.853  0.1899  0.9542 -0.5352
 1021MOL0     N37752  -0.272  -0.504   7.890 -0.2100 -0.2766 -0.1632
 1021MOL0     C37753   0.020   0.006   8.228  0.1019  0.3251 -0.4409
 1021MOL0     C37754   0.155  -0.017   8.224  0.4275  0.2483  0.2518
 1021MOL0     C37755   0.597   0.152   8.245  0.2822 -0.2734 -0.1415
 1021MOL0     C37756   0.664   0.061   8.334  0.6766  0.1361  0.8343
 1021MOL0     C37757   0.802   0.072   8.366 -0.0615  0.4732 -0.3025
 1021MOL0     C37758   0.868   0.187   8.326  0.4244  0.4320  0.1559
 1021MOL0     O37759   1.002   0.210   8.358 -0.1758  0.0715  0.8846
 1021MOL0     C37760   1.025   0.264   8.482  0.2791 -0.3814 -0.1625
 1021MOL0     C37761   1.171   0.308   8.499 -0.5236 -0.3182 -0.3851
 1021MOL0     C37762   1.266   0.192   8.538 -0.1941  1.0660  0.2582
 1021MOL0     C37763   1.415   0.228   8.533 -0.4248 -0.4316 -0.2265
 1021MOL0     C37764   1.483   0.103   8.569  0.1340  0.0796  0.9208
 1021MOL0     C37765   1.537  -0.002   8.608 -0.1193 -0.6760  0.3663
 1021MOL0     C37766   0.802   0.274   8.242 -0.3301 -0.3975 -0.1922
 1021MOL0     C37767   0.676   0.255   8.198 -0.6129 -1.1966 -0.5065
 1021MOL0     H37768   0.249   0.286   8.349 -1.5236  1.0503  0.4229
 1021MOL0     H37769  -0.002   0.323   8.356  0.2010 -0.1337 -0.4326
 1021MOL0     H37770  -0.268   0.024   8.176 -1.2237  1.8504 -0.6193
 1021MOL0     H37771  -0.220  -0.042   8.341 -2.0102  0.1127  2.7456
 1021MOL0     H37772  -0.394   0.049   8.451  0.2806  1.3405  0.5655
 1021MOL0     H37773  -0.400   0.191   8.343 -0.1553 -0.2404  0.3356
 1021MOL0     H37774  -0.604   0.079   8.316 -1.2776 -1.0635 -1.4766
 1021MOL0     H37775  -0.519   0.057   8.173  0.7350  2.9006  0.1180
 1021MOL0     H37776  -0.447  -0.175   8.254 -0.4370  0.1334 -0.8156
 1021MOL0     H37777  -0.547  -0.141   8.400  3.4260  1.6125  0.4717
 1021MOL0     H37778  -0.669  -0.296   8.259  3.1001 -0.3416  0.5799
 1021MOL0     H37779  -0.744  -0.127   8.232 -2.0508 -3.3031  1.6256
 1021MOL0     H37780  -0.720  -0.236   8.020  0.2570 -0.6628  0.3365
 1021MOL0     H37781  -0.580  -0.127   8.037  1.4802 -0.0577  2.6842
 1021MOL0     H37782  -0.456  -0.357   8.134 -0.1976 -0.1750 -1.1058
 1021MOL0     H37783  -0.594  -0.432   8.051 -0.4129 -0.5388  3.2853
 1021MOL0     H37784  -0.382  -0.246   7.934 -1.9435  0.9930  2.0557
 1021MOL0     H37785  -0.533  -0.284   7.842 -0.3826 -2.0189 -0.1823
 1021MOL0     H37786  -0.582  -0.517   7.777 -0.6849  0.6358  1.7518
 1021MOL0     H37787  -0.430  -0.724   7.606 -0.0252  0.0158  0.3546
 1021MOL0     H37788  -0.347  -0.830   7.721 -1.2905 -2.4505 -1.3625
 1021MOL0     H37789  -0.587  -0.897   7.660  0.9746 -0.1450 -0.4214
 1021MOL0     H37790  -0.651  -0.764   7.756 -0.4347 -0.7325  2.2194
 1021MOL0     H37791  -0.541  -0.861   7.973  1.4634 -0.9624 -0.3220
 1021MOL0     H37792  -0.466  -0.963   7.861 -0.9719  1.3053 -0.9149
 1021MOL0     H37793  -0.657  -1.083   7.972  1.5354 -0.4651 -1.0156
 1021MOL0     H37794  -0.682  -1.067   7.809 -3.1385 -1.4794 -0.2795
 1021MOL0     H37795  -1.021  -0.965   8.065 -2.0269 -2.3826  1.5259
 1021MOL0     H37796  -1.242  -1.235   8.056 -0.8048 -1.0911 -1.4428
 1021MOL0     H37797  -1.216  -1.076   8.131  2.6063  2.7393 -1.1232
 1021MOL0     H37798  -1.336  -1.095   8.001  0.6676  1.8513 -1.9993
 1021MOL0     H37799  -1.267  -1.246   7.411  3.0841 -1.6321  2.9629
 1021MOL0     H37800  -1.432  -1.363   7.239  2.4863 -2.8596 -1.0500
 1021MOL0     H37801  -1.680  -1.700   7.397  0.1982 -1.3079 -0.8044
 1021MOL0     H37802  -1.750  -1.528   7.401 -0.2122 -0.4335 -0.2248
 1021MOL0     H37803  -1.838  -1.553   7.180  2.4369  0.5825  1.2350
 1021MOL0     H37804  -1.763  -1.716   7.159 -1.9803  0.0621 -1.0004
 1021MOL0     H37805  -1.974  -1.604   7.354 -0.9929  0.7040 -2.8264
 1021MOL0     H37806  -1.895  -1.760   7.384 -2.3152  1.4637  2.0783
 1021MOL0     H37807  -2.050  -1.690   7.129 -1.3630  0.4915 -0.0255
 1021MOL0     H37808  -1.958  -1.838   7.158 -1.2606  0.9428 -2.6170
 1021MOL0     H37809  -2.213  -1.755   7.328 -2.3512 -1.6332  1.2155
 1021MOL0     H37810  -2.103  -1.899   7.336 -1.1087 -0.7720 -1.9477
 1021MOL0     H37811  -2.170  -1.961   7.093 -1.0341  0.4207 -0.1211
 1021MOL0     H37812  -2.294  -1.967   7.218  0.3173 -0.9997  1.6131
 1021MOL0     H37813  -2.253  -1.771   6.994  0.1082 -2.5944 -1.1254
 1021MOL0     H37814  -2.328  -1.721   7.144  0.7771  1.2999 -1.2423
 1021MOL0     H37815  -2.387  -1.974   6.981 -1.0785  0.1733 -1.9535
 1021MOL0     H37816  -2.479  -1.828   6.940 -1.3104  0.5957  0.5701
 1021MOL0     H37817  -1.589  -1.582   7.560 -1.6063  1.2794 -0.1519
 1021MOL0     H37818  -1.413  -1.481   7.722 -1.2118 -0.1393 -1.0165
 1021MOL0     H37819  -1.048  -1.140   7.605  1.6460  1.3105 -0.1297
 1021MOL0     H37820  -0.852  -1.028   7.683  0.3194  0.1093  0.5534
 1021MOL0     H37821  -0.044  -0.077   8.202  0.2024 -0.2064  0.9398
 1021MOL0     H37822   0.207  -0.111   8.207  0.6355  0.5660 -0.9871
 1021MOL0     H37823   0.603  -0.019   8.374  0.0053 -0.2102 -0.8285
 1021MOL0     H37824   0.845  -0.010   8.423 -0.4116  0.8235  0.4754
 1021MOL0     H37825   0.952   0.341   8.508  0.2954 -0.9630  1.7527
 1021MOL0     H37826   0.989   0.192   8.557 -3.0116  1.5657  0.3462
 1021MOL0     H37827   1.164   0.376   8.584  3.3398  0.3879 -0.4637
 1021MOL0     H37828   1.194   0.349   8.400  4.6472  0.5184  0.8847
 1021MOL0     H37829   1.249   0.116   8.461 -0.2402 -0.8352  2.0734
 1021MOL0     H37830   1.248   0.154   8.639 -0.6277 -2.0030 -0.8601
 1021MOL0     H37831   1.438   0.297   8.615 -1.5605 -0.2761 -0.0202
 1021MOL0     H37832   1.446   0.268   8.436 -0.7348  1.2539  0.3362
 1021MOL0     H37833   1.579  -0.095   8.640  1.7417  0.7567  2.3436
 1021MOL0     H37834   0.860   0.362   8.213  1.0091 -1.0310  0.4758
 1021MOL0     H37835   0.647   0.325   8.120  2.2582 -0.8596 -1.3652
 1022MOL0     O37836  10.414   2.664   1.308 -0.4040 -0.5757 -0.4251
 1022MOL0     C37837  10.340   2.658   1.406 -0.3295  0.2038 -0.1524
 1022MOL0     O37838  10.371   2.649   1.537  0.3743  0.6691  0.2939
 1022MOL0     C37839  10.498   2.626   1.586  1.0323 -0.6171 -0.3174
 1022MOL0     C37840  10.581   2.541   1.515 -0.1107  0.5462 -0.5622
 1022MOL0     C37841  10.705   2.513   1.575 -0.6742  0.5720  0.1266
 1022MOL0     C37842  10.743   2.556   1.704  0.3759 -0.1480  0.2399
 1022MOL0     O37843  10.866   2.521   1.752  0.1828  0.3962  0.2518
 1022MOL0     C37844  10.910   2.601   1.862  0.7197 -0.4488 -0.3934
 1022MOL0     C37845  11.053   2.560   1.885 -0.1012 -0.0941 -0.0957
 1022MOL0     C37846  11.129   2.665   1.977  0.4280  0.6143  0.3249
 1022MOL0     C37847  11.282   2.664   1.965  0.1747 -0.1652 -0.4436
 1022MOL0     C37848  11.349   2.747   2.070 -0.3685 -0.2218 -0.7388
 1022MOL0     C37849  11.498   2.728   2.090 -0.1727  0.7463 -0.2378
 1022MOL0     C37850  11.586   2.785   1.973  0.9111  0.1156  0.1685
 1022MOL0     C37851  11.740   2.762   1.978  0.5240 -0.5886  0.8814
 1022MOL0     N37852  11.805   2.794   2.103  0.0157  0.2889 -0.0433
 1022MOL0     C37853  11.795   2.913   2.185 -0.2793  0.6648  0.4593
 1022MOL0     C37854  11.890   2.897   2.283  0.3807  0.1100  0.4970
 1022MOL0     C37855  11.918   3.002   2.388  0.4675  0.6328 -0.1577
 1022MOL0     C37856  12.013   2.960   2.499  0.3962  0.2391 -0.1446
 1022MOL0     C37857  12.102   3.072   2.546  0.5390  0.0503 -0.2936
 1022MOL0     C37858  12.033   3.180   2.638  1.0412 -0.4367 -0.6086
 1022MOL0     O37859  12.088   3.315   2.621 -0.2064 -0.1113 -0.4974
 1022MOL0     C37860  12.018   3.412   2.693 -0.2319  0.2880 -0.4932
 1022MOL0     C37861  11.904   3.390   2.765 -0.2895  0.2705  0.2371
 1022MOL0     C37862  11.823   3.493   2.816 -0.5678 -0.0604 -0.5534
 1022MOL0     C37863  11.687   3.457   2.893 -0.1892 -0.0207 -0.0382
 1022MOL0     C37864  11.871   3.630   2.805  0.4299 -0.2717 -0.5987
 1022MOL0     C37865  11.808   3.746   2.872 -0.4499  1.0593  0.7731
 1022MOL0     O37866  11.844   3.867   2.817  0.3813 -0.3926  0.3445
 1022MOL0     C37867  11.759   3.972   2.824  0.6008 -1.1815 -0.0510
 1022MOL0     C37868  11.812   4.103   2.813 -0.8393  0.0612 -0.8861
 1022MOL0     C37869  11.736   4.222   2.795 -0.9130  1.1471  0.3473
 1022MOL0     C37870  11.596   4.210   2.800  0.0516 -0.5521 -0.3622
 1022MOL0     O37871  11.517   4.321   2.807 -0.0824  0.0604  0.7138
 1022MOL0     C37872  11.411   4.338   2.899  0.8013 -0.9184  0.5536
 1022MOL0     C37873  11.277   4.356   2.831 -0.5054  0.6036 -0.2927
 1022MOL0     C37874  11.173   4.379   2.949 -0.9047 -0.0163 -0.4455
 1022MOL0     C37875  11.045   4.448   2.893  0.2353 -0.3079 -0.1457
 1022MOL0     C37876  10.931   4.444   3.005 -0.1013 -0.3283 -1.0213
 1022MOL0     C37877  10.800   4.486   2.948 -0.6083  0.2151 -0.8992
 1022MOL0     C37878  10.716   4.518   3.073 -0.3909  0.0148  0.5823
 1022MOL0     C37879  10.658   4.383   3.130 -0.2328  0.2585  0.1808
 1022MOL0    Cl37880  10.515   4.435   3.233 -0.6420 -0.4347  0.0106
 1022MOL0     C37881  11.534   4.082   2.816 -0.6886 -0.2104 -0.8296
 1022MOL0     C37882  11.616   3.971   2.827 -0.4941  0.4976 -0.3318
 1022MOL0     O37883  11.732   3.734   2.971 -0.2046  0.2411 -0.3568
 1022MOL0     C37884  11.991   3.651   2.742 -0.1626 -0.0604  0.0644
 1022MOL0     C37885  12.066   3.542   2.677 -0.1180  0.2850  0.2599
 1022MOL0     N37886  11.946   2.775   2.269 -0.4211  0.3709 -0.6625
 1022MOL0     N37887  11.898   2.714   2.168 -0.5275  0.1688  1.7865
 1022MOL0     C37888  10.654   2.653   1.766  0.3328  0.0043 -0.2143
 1022MOL0     C37889  10.540   2.691   1.705 -0.6872 -0.7733  0.5966
 1022MOL0     C37890  10.193   2.646   1.381 -0.4607  0.0300 -0.2676
 1022MOL0     C37891  10.148   2.649   1.245  0.4198  0.0076  0.2107
 1022MOL0     C37892  10.016   2.638   1.213  0.1177  0.2162 -0.1648
 1022MOL0     C37893   9.917   2.643   1.315  0.4451 -0.6975 -0.0550
 1022MOL0     O37894   9.790   2.679   1.275 -0.5420 -0.1683 -0.4423
 1022MOL0     C37895   9.712   2.753   1.375 -0.1238 -0.7926 -0.0117
 1022MOL0     C37896   9.554   2.750   1.352 -0.1517  0.3691  0.6446
 1022MOL0     C37897   9.508   2.595   1.335 -0.2320  0.3443  0.2366
 1022MOL0     C37898   9.359   2.582   1.293  0.3089 -0.2674  0.8000
 1022MOL0     C37899   9.326   2.467   1.213 -0.8722  0.1327 -0.8261
 1022MOL0     C37900   9.305   2.381   1.134  0.2997  0.1826 -0.1838
 1022MOL0     C37901   9.965   2.649   1.448  0.8808  0.4490 -0.7871
 1022MOL0     C37902  10.099   2.651   1.481  0.8546  0.1928  0.7748
 1022MOL0     H37903  10.551   2.493   1.423 -0.4869 -0.0780 -0.1220
 1022MOL0     H37904  10.772   2.441   1.529 -0.5192  0.6771  0.1863
 1022MOL0     H37905  10.908   2.706   1.829 -0.3015  0.7449  3.1073
 1022MOL0     H37906  10.845   2.576   1.946 -0.1547 -1.9769 -1.4833
 1022MOL0     H37907  11.068   2.456   1.917 -0.7321 -0.1679 -0.0258
 1022MOL0     H37908  11.103   2.571   1.789  0.0034 -3.3384 -0.5415
 1022MOL0     H37909  11.095   2.769   1.966  0.4220  0.6243  0.4378
 1022MOL0     H37910  11.117   2.626   2.078  4.2926  0.0100  0.7304
 1022MOL0     H37911  11.316   2.560   1.970 -1.4923 -0.8264 -1.7482
 1022MOL0     H37912  11.308   2.700   1.866  0.8780  0.9021  0.1129
 1022MOL0     H37913  11.343   2.848   2.028  1.9321 -0.6779 -2.3934
 1022MOL0     H37914  11.312   2.739   2.172  2.9010  0.5535  0.6247
 1022MOL0     H37915  11.516   2.792   2.177  0.2277  0.5825 -0.2006
 1022MOL0     H37916  11.516   2.621   2.099 -1.2182  0.4233 -1.6600
 1022MOL0     H37917  11.541   2.750   1.880 -1.8275  2.2898  0.5290
 1022MOL0     H37918  11.571   2.894   1.969 -0.4590 -0.0738 -0.1122
 1022MOL0     H37919  11.776   2.827   1.897  1.2923 -1.0972  0.8097
 1022MOL0     H37920  11.770   2.661   1.948 -0.0528 -1.0648  1.8686
 1022MOL0     H37921  11.722   2.993   2.178 -2.5966 -1.3022  1.0027
 1022MOL0     H37922  11.947   3.090   2.331  0.1808  1.4461  0.9266
 1022MOL0     H37923  11.828   3.031   2.444  0.3588 -1.3928  0.8091
 1022MOL0     H37924  12.079   2.880   2.465  1.4071  0.5804  0.9452
 1022MOL0     H37925  11.945   2.928   2.579  0.5107  0.8008  0.1827
 1022MOL0     H37926  12.149   3.120   2.459 -2.2893  1.9658 -0.9115
 1022MOL0     H37927  12.180   3.032   2.612  1.7879 -0.1797 -1.8416
 1022MOL0     H37928  12.041   3.149   2.743  1.1061  0.5562 -0.3076
 1022MOL0     H37929  11.927   3.179   2.609  0.1484 -2.2539  2.2315
 1022MOL0     H37930  11.858   3.297   2.798 -2.7266  1.5919  0.7516
 1022MOL0     H37931  11.681   3.491   2.996  0.0907  2.7669 -0.8648
 1022MOL0     H37932  11.620   3.523   2.837 -2.5222  0.2442  2.8157
 1022MOL0     H37933  11.654   3.354   2.875  1.3396 -0.2244 -2.0157
 1022MOL0     H37934  11.919   4.122   2.819 -0.3021 -2.3101 -2.0568
 1022MOL0     H37935  11.782   4.318   2.775  0.5776  0.0190 -2.1031
 1022MOL0     H37936  11.389   4.246   2.954  0.0983 -1.1496 -0.0904
 1022MOL0     H37937  11.419   4.432   2.954 -4.2601  1.1752 -1.6169
 1022MOL0     H37938  11.277   4.446   2.769  0.0588 -0.2631 -1.6236
 1022MOL0     H37939  11.247   4.273   2.766 -4.4866  1.6637 -0.0185
 1022MOL0     H37940  11.209   4.449   3.025 -0.1879  2.3275 -2.7667
 1022MOL0     H37941  11.164   4.284   3.002 -0.0592  1.8606  3.4815
 1022MOL0     H37942  11.065   4.553   2.870 -1.2655 -0.1364 -0.7882
 1022MOL0     H37943  11.011   4.390   2.806 -0.8940 -1.3040  0.9285
 1022MOL0     H37944  10.973   4.492   3.095 -1.4228  0.5869 -0.8677
 1022MOL0     H37945  10.906   4.342   3.035  1.1231 -0.0449  1.1752
 1022MOL0     H37946  10.797   4.572   2.880 -1.1226 -0.3417 -1.5916
 1022MOL0     H37947  10.761   4.401   2.892  0.5706  1.0533 -3.1331
 1022MOL0     H37948  10.630   4.580   3.045 -2.4333 -1.3893  3.2543
 1022MOL0     H37949  10.771   4.580   3.144 -0.2316  0.6335 -0.0657
 1022MOL0     H37950  10.731   4.338   3.198  0.3719  2.2590  0.9446
 1022MOL0     H37951  10.641   4.318   3.044 -1.9091  0.0293  0.6601
 1022MOL0     H37952  11.426   4.071   2.829 -0.6444 -0.0169 -0.2810
 1022MOL0     H37953  11.579   3.869   2.826 -0.5168  0.4946 -1.7019
 1022MOL0     H37954  12.017   3.757   2.737 -1.8426  0.4621  1.2517
 1022MOL0     H37955  12.166   3.562   2.638  1.1111 -1.2049  2.4338
 1022MOL0     H37956  10.669   2.697   1.864  0.3968 -1.8990  0.6800
 1022MOL0     H37957  10.463   2.754   1.750 -2.1387 -0.3855 -2.1820
 1022MOL0     H37958  10.212   2.649   1.157 -1.1971 -1.8858 -1.0664
 1022MOL0     H37959   9.980   2.632   1.111  1.0450 -1.3808 -0.4331
 1022MOL0     H37960   9.731   2.721   1.478  0.4446 -0.2100  0.0648
 1022MOL0     H37961   9.728   2.861   1.377 -0.9076 -0.6761  1.7648
 1022MOL0     H37962   9.533   2.812   1.265 -1.5711  2.0468  2.1122
 1022MOL0     H37963   9.500   2.794   1.436 -1.0620 -1.2861  0.9797
 1022MOL0     H37964   9.527   2.538   1.426  0.9155 -0.7131 -0.6253
 1022MOL0     H37965   9.573   2.538   1.268 -0.0313 -3.0660  3.0552
 1022MOL0     H37966   9.332   2.671   1.236  2.1402 -0.8648 -1.1027
 1022MOL0     H37967   9.296   2.588   1.383  0.7497 -0.7109  1.1414
 1022MOL0     H37968   9.315   2.301   1.064  1.7753 -0.2357  0.4605
 1022MOL0     H37969   9.906   2.650   1.539 -1.1555 -1.1507 -1.9995
 1022MOL0     H37970  10.140   2.669   1.580  3.3027  4.3323 -0.7507
 1023MOL0     O37971   5.530   6.936   3.527  0.3911 -0.4997  0.0854
 1023MOL0     C37972   5.426   6.996   3.547 -0.1218 -0.4611  0.3750
 1023MOL0     O37973   5.409   7.135   3.555  0.5435 -0.0304 -0.1059
 1023MOL0     C37974   5.514   7.216   3.530 -0.1560 -0.5989 -0.9760
 1023MOL0     C37975   5.635   7.209   3.596  0.6345 -0.2993 -0.3841
 1023MOL0     C37976   5.740   7.302   3.573 -0.1755 -0.2442  0.3394
 1023MOL0     C37977   5.723   7.409   3.490 -0.6911 -0.1855 -0.2163
 1023MOL0     O37978   5.833   7.487   3.492  0.1488  0.6529 -0.0399
 1023MOL0     C37979   5.843   7.594   3.407  0.4381 -1.1823  0.4379
 1023MOL0     C37980   5.975   7.661   3.416 -0.6598  0.4125 -0.4281
 1023MOL0     C37981   6.079   7.590   3.347 -0.2667 -0.4357  0.8034
 1023MOL0     C37982   6.214   7.660   3.351 -0.2884  0.3716  0.8591
 1023MOL0     C37983   6.301   7.616   3.237  0.0971 -0.4567  1.0134
 1023MOL0     C37984   6.373   7.489   3.278  0.5953  0.5580 -0.0552
 1023MOL0     C37985   6.420   7.418   3.155 -1.0460  0.2801 -0.6340
 1023MOL0     C37986   6.458   7.269   3.187 -1.2132  0.3666  0.0435
 1023MOL0     N37987   6.350   7.186   3.251  0.3707  0.0642 -0.2471
 1023MOL0     C37988   6.370   7.111   3.363 -0.3265  0.0116  0.3525
 1023MOL0     C37989   6.254   7.036   3.370 -0.7420 -0.4527 -0.3150
 1023MOL0     C37990   6.244   6.934   3.476 -0.2249  0.3587 -0.3500
 1023MOL0     C37991   6.225   6.995   3.616  1.2501  0.3078 -0.2241
 1023MOL0     C37992   6.189   6.884   3.716  0.9141 -0.3978  0.6058
 1023MOL0     C37993   6.144   6.921   3.858  0.7320 -0.3529  0.0365
 1023MOL0     O37994   6.026   7.005   3.850  0.2298 -0.7199  0.4686
 1023MOL0     C37995   5.911   6.940   3.892  0.0034  0.5608  0.0455
 1023MOL0     C37996   5.892   6.911   4.022 -0.1598  0.2167  0.2336
 1023MOL0     C37997   5.790   6.827   4.079 -0.1761 -0.9888 -0.4688
 1023MOL0     C37998   5.805   6.777   4.220 -0.8258 -0.2024 -0.6675
 1023MOL0     C37999   5.691   6.787   3.991  0.9833  0.0784 -0.1535
 1023MOL0     C38000   5.590   6.691   4.030  0.3326 -0.7678  0.6869
 1023MOL0     O38001   5.588   6.575   3.963 -0.1039 -0.4950  0.3192
 1023MOL0     C38002   5.466   6.513   3.949  0.2191  0.2794 -0.1631
 1023MOL0     C38003   5.352   6.589   3.926 -0.4917  0.5655  0.3392
 1023MOL0     C38004   5.234   6.519   3.929 -0.1031 -0.1036  0.0605
 1023MOL0     C38005   5.217   6.378   3.945 -0.5152  0.5530  0.5726
 1023MOL0     O38006   5.094   6.333   3.931  0.1156  0.6208 -0.2126
 1023MOL0     C38007   5.025   6.240   4.020 -0.7111  0.5996  0.5998
 1023MOL0     C38008   5.065   6.258   4.160  0.5419  0.3535  0.4613
 1023MOL0     C38009   4.964   6.200   4.258  0.5402  0.3825 -0.4356
 1023MOL0     C38010   4.878   6.295   4.325 -0.6465 -0.8220 -0.9187
 1023MOL0     C38011   4.770   6.243   4.417 -0.5798  0.0483 -0.3255
 1023MOL0     C38012   4.704   6.358   4.500  0.8926  0.0378 -0.7298
 1023MOL0     C38013   4.604   6.302   4.593  0.6895 -0.3954  0.8799
 1023MOL0     C38014   4.646   6.203   4.698 -1.9726 -0.0236 -0.3976
 1023MOL0    Cl38015   4.522   6.165   4.811  0.0286 -0.4346 -0.2941
 1023MOL0     C38016   5.333   6.300   3.963 -0.4193  0.1073  0.7545
 1023MOL0     C38017   5.455   6.372   3.974  0.4001 -0.2412 -0.2215
 1023MOL0     O38018   5.513   6.721   4.121 -0.0622  0.3325 -0.3948
 1023MOL0     C38019   5.705   6.818   3.853 -0.4803 -0.1885 -0.2562
 1023MOL0     C38020   5.822   6.881   3.806  0.6912  0.0360 -0.3940
 1023MOL0     N38021   6.168   7.063   3.266 -0.5573  0.6446  0.4822
 1023MOL0     N38022   6.232   7.151   3.191 -0.3153  0.7709  0.6186
 1023MOL0     C38023   5.603   7.419   3.423 -0.0728  0.1293  0.1212
 1023MOL0     C38024   5.500   7.331   3.444 -0.2549  0.7524 -0.0523
 1023MOL0     C38025   5.309   6.917   3.583  0.0748  0.2810  0.3183
 1023MOL0     C38026   5.315   6.776   3.561 -0.6390 -0.6485 -0.8518
 1023MOL0     C38027   5.202   6.698   3.591  0.5162  0.2952  0.5251
 1023MOL0     C38028   5.087   6.748   3.641 -0.7849  0.5351 -0.5113
 1023MOL0     O38029   4.993   6.656   3.672  0.2042 -0.0109 -0.3113
 1023MOL0     C38030   4.881   6.702   3.760  0.1877  0.0103  0.3704
 1023MOL0     C38031   4.829   6.569   3.828  0.5742  0.0091  1.4521
 1023MOL0     C38032   4.698   6.595   3.905  0.5001 -0.0588 -0.2608
 1023MOL0     C38033   4.717   6.504   4.034 -0.1548  0.1299 -0.3090
 1023MOL0     C38034   4.595   6.504   4.120  0.0694 -0.5732  0.8660
 1023MOL0     C38035   4.487   6.524   4.179 -0.6710 -0.6549 -0.1767
 1023MOL0     C38036   5.080   6.886   3.660 -0.8397 -0.0324 -1.0418
 1023MOL0     C38037   5.190   6.972   3.633  0.1038  0.8673  0.1414
 1023MOL0     H38038   5.650   7.119   3.655  1.4523  0.9164  1.3225
 1023MOL0     H38039   5.831   7.274   3.625  0.4061  0.6866 -0.1441
 1023MOL0     H38040   5.816   7.551   3.310  1.1723 -1.9764  0.5699
 1023MOL0     H38041   5.771   7.673   3.433  1.9684  0.5776 -0.4268
 1023MOL0     H38042   5.955   7.765   3.387  1.0978  0.8636 -0.1387
 1023MOL0     H38043   6.008   7.667   3.520  1.1532 -1.0695 -0.8798
 1023MOL0     H38044   6.088   7.486   3.380  0.9552 -0.2313  1.1474
 1023MOL0     H38045   6.046   7.585   3.243 -2.2656 -3.4199  1.4619
 1023MOL0     H38046   6.191   7.765   3.330  1.1987  0.6068  0.3064
 1023MOL0     H38047   6.259   7.632   3.447 -0.1509 -0.9702  0.4172
 1023MOL0     H38048   6.251   7.604   3.140  1.5960 -1.9229  0.3608
 1023MOL0     H38049   6.378   7.691   3.214 -0.3386 -1.1894 -3.8536
 1023MOL0     H38050   6.449   7.516   3.352 -0.2658  0.2396  0.9839
 1023MOL0     H38051   6.300   7.417   3.317  0.4528  0.1533 -1.0401
 1023MOL0     H38052   6.345   7.409   3.076 -1.1775  3.0440 -0.9561
 1023MOL0     H38053   6.497   7.475   3.101 -3.3938  3.4349 -0.9781
 1023MOL0     H38054   6.542   7.263   3.257  0.1960 -2.4244 -1.7391
 1023MOL0     H38055   6.486   7.219   3.094  2.1629  0.3872  0.9062
 1023MOL0     H38056   6.453   7.100   3.432 -0.6761 -2.6347  0.4385
 1023MOL0     H38057   6.165   6.862   3.450  0.5926 -0.4095 -0.7722
 1023MOL0     H38058   6.336   6.875   3.468 -0.0628  0.6709 -0.8245
 1023MOL0     H38059   6.137   7.059   3.606  1.5690  1.3766  2.7236
 1023MOL0     H38060   6.307   7.051   3.662  0.5909 -0.4564  1.9789
 1023MOL0     H38061   6.273   6.816   3.734  0.5989 -0.8179  0.5205
 1023MOL0     H38062   6.110   6.817   3.680 -0.0974 -0.7609  3.2396
 1023MOL0     H38063   6.206   6.994   3.911 -0.5232  4.2256 -3.9470
 1023MOL0     H38064   6.125   6.831   3.916 -2.5034  1.2899  1.7921
 1023MOL0     H38065   5.975   6.944   4.083 -0.1537 -0.5439  0.6551
 1023MOL0     H38066   5.884   6.820   4.281 -0.0942  4.0827 -4.1628
 1023MOL0     H38067   5.711   6.796   4.273  0.0107  4.2259 -0.3864
 1023MOL0     H38068   5.809   6.668   4.215  0.2639 -0.3515  1.9391
 1023MOL0     H38069   5.351   6.697   3.917  0.0418  0.6656  1.3200
 1023MOL0     H38070   5.139   6.571   3.917 -0.3311 -0.8158 -1.5950
 1023MOL0     H38071   4.921   6.269   3.999 -0.4636  2.0786  1.2815
 1023MOL0     H38072   5.034   6.139   3.979  1.1647  1.6417 -1.8032
 1023MOL0     H38073   5.163   6.211   4.177  0.6820 -1.5364 -4.0895
 1023MOL0     H38074   5.069   6.364   4.188  5.2967  0.2611  1.0266
 1023MOL0     H38075   5.012   6.148   4.342  1.4815  3.3674  0.9952
 1023MOL0     H38076   4.892   6.130   4.214  1.8126 -1.8599  0.8509
 1023MOL0     H38077   4.943   6.357   4.387 -1.4619 -1.5673  0.7221
 1023MOL0     H38078   4.843   6.361   4.245  0.9171 -0.0055 -0.9674
 1023MOL0     H38079   4.821   6.181   4.491 -1.2658 -0.2090 -0.0578
 1023MOL0     H38080   4.703   6.178   4.360 -0.0891 -0.7699  0.0107
 1023MOL0     H38081   4.780   6.405   4.561  0.9958 -0.8085 -0.1956
 1023MOL0     H38082   4.655   6.424   4.427 -0.4413  1.5518  1.4176
 1023MOL0     H38083   4.519   6.259   4.540 -0.8195  0.7289  2.3101
 1023MOL0     H38084   4.566   6.397   4.633  2.8179  1.7497 -1.7219
 1023MOL0     H38085   4.741   6.241   4.738 -0.9293  0.4556 -3.1124
 1023MOL0     H38086   4.668   6.107   4.650 -1.7826  0.0481 -0.4593
 1023MOL0     H38087   5.338   6.191   3.967  2.0083  0.1858  1.5719
 1023MOL0     H38088   5.553   6.324   3.974  0.2599 -0.6075  1.7083
 1023MOL0     H38089   5.634   6.772   3.784 -0.6038 -2.6815  1.3888
 1023MOL0     H38090   5.836   6.885   3.698 -2.3231  0.6330 -0.8751
 1023MOL0     H38091   5.588   7.502   3.354  0.8191  0.4148  0.2580
 1023MOL0     H38092   5.407   7.350   3.390  0.4609  2.4356 -0.7691
 1023MOL0     H38093   5.409   6.728   3.535  1.9844  2.9488  1.1774
 1023MOL0     H38094   5.191   6.590   3.592 -3.3281  0.5690  1.1292
 1023MOL0     H38095   4.901   6.780   3.834 -3.9404  0.9064  0.7680
 1023MOL0     H38096   4.803   6.740   3.694  2.4488 -1.9502 -3.7631
 1023MOL0     H38097   4.912   6.531   3.889  1.3734 -3.1188 -1.2801
 1023MOL0     H38098   4.810   6.493   3.752  1.4066  0.2801  0.9528
 1023MOL0     H38099   4.623   6.542   3.846  1.3113 -1.4548 -0.0809
 1023MOL0     H38100   4.675   6.700   3.928 -0.4256 -0.3211  0.0463
 1023MOL0     H38101   4.803   6.542   4.090  0.5238 -1.5564 -0.1337
 1023MOL0     H38102   4.743   6.399   4.016  0.9962 -0.1622  2.5086
 1023MOL0     H38103   4.395   6.535   4.232  0.3412 -1.7665  1.9375
 1023MOL0     H38104   4.982   6.924   3.689 -1.2542 -1.8110  0.0283
 1023MOL0     H38105   5.170   7.079   3.632  1.1439  1.0687 -0.4765
 1024MOL0     O38106  10.456   7.861   5.203 -0.2837  0.4008 -0.2685
 1024MOL0     C38107  10.539   7.946   5.167 -1.1627  0.5003  0.3899
 1024MOL0     O38108  10.527   8.040   5.061 -0.0151 -0.8607 -0.4881
 1024MOL0     C38109  10.400   8.051   5.015  0.2556  0.5855 -0.0101
 1024MOL0     C38110  10.393   8.063   4.876 -0.1856 -0.2539 -0.3300
 1024MOL0     C38111  10.263   8.083   4.817 -0.0294  0.2621  0.4259
 1024MOL0     C38112  10.146   8.086   4.897  0.1720 -0.0669 -0.2934
 1024MOL0     O38113  10.018   8.121   4.852 -0.6437  0.3814 -0.0092
 1024MOL0     C38114   9.995   8.142   4.712 -0.4714  0.0320 -0.5782
 1024MOL0     C38115   9.992   8.021   4.631 -0.0154 -0.4312  1.0813
 1024MOL0     C38116   9.961   8.067   4.482  0.6202 -0.1321  0.4522
 1024MOL0     C38117  10.026   7.962   4.390  0.4152  0.2974  0.1378
 1024MOL0     C38118  10.184   7.975   4.387  0.0444  0.5207  0.0593
 1024MOL0     C38119  10.235   7.908   4.265  0.7938  0.3968 -1.0291
 1024MOL0     C38120  10.231   7.752   4.287  0.1513  0.5443 -0.1439
 1024MOL0     C38121  10.335   7.674   4.196  0.2667  0.2885  0.3551
 1024MOL0     N38122  10.316   7.528   4.193 -0.6906 -0.4182  0.1506
 1024MOL0     C38123  10.280   7.446   4.088 -0.1558 -0.4027  0.3725
 1024MOL0     C38124  10.260   7.329   4.148 -0.2943  0.3733 -0.3383
 1024MOL0     C38125  10.240   7.192   4.083 -0.2687  0.8941 -0.3052
 1024MOL0     C38126  10.127   7.110   4.144 -0.1279 -0.2148  0.4306
 1024MOL0     C38127  10.118   6.969   4.074  0.1023 -0.5964  0.7198
 1024MOL0     C38128   9.991   6.895   4.089  0.0822  0.3701  0.2640
 1024MOL0     O38129   9.902   6.967   4.001  0.2717  0.0612  0.2019
 1024MOL0     C38130   9.833   6.897   3.900 -0.7225  0.7726 -0.7043
 1024MOL0     C38131   9.773   6.768   3.907 -0.4548  0.7237 -0.6270
 1024MOL0     C38132   9.690   6.717   3.811  0.6320 -0.3701  0.0415
 1024MOL0     C38133   9.632   6.576   3.828 -0.3361  0.4656 -0.1304
 1024MOL0     C38134   9.660   6.800   3.697  0.0158 -0.4132  0.6846
 1024MOL0     C38135   9.565   6.762   3.579 -0.3146  0.1808  0.3573
 1024MOL0     O38136   9.522   6.631   3.573  0.3292 -0.0047  0.8950
 1024MOL0     C38137   9.440   6.596   3.468  0.3577  0.4308 -0.3358
 1024MOL0     C38138   9.340   6.502   3.496 -0.0077 -0.1685 -0.7627
 1024MOL0     C38139   9.253   6.456   3.392  0.0901  0.3510  1.3088
 1024MOL0     C38140   9.283   6.481   3.261 -0.8755 -0.7810 -0.0563
 1024MOL0     O38141   9.219   6.429   3.151  0.1724 -1.0680  0.1106
 1024MOL0     C38142   9.259   6.299   3.128 -0.1676 -0.0862  0.0684
 1024MOL0     C38143   9.197   6.256   2.993  0.7055  0.1456 -0.5441
 1024MOL0     C38144   9.271   6.316   2.871 -0.2739 -0.1332  0.3785
 1024MOL0     C38145   9.192   6.284   2.736  0.4844  0.3093  0.0007
 1024MOL0     C38146   9.262   6.348   2.618 -0.0193 -0.5235  0.5114
 1024MOL0     C38147   9.195   6.480   2.568 -0.7869 -0.1623 -0.3903
 1024MOL0     C38148   9.296   6.563   2.489 -0.6776  0.2959 -0.3957
 1024MOL0     C38149   9.233   6.693   2.431 -1.5064  0.2863  0.1756
 1024MOL0    Cl38150   9.199   6.814   2.555 -0.4933 -0.5013 -0.1939
 1024MOL0     C38151   9.392   6.569   3.233  0.2055 -0.3100 -0.6369
 1024MOL0     C38152   9.465   6.628   3.336  0.0532 -0.1407 -0.9023
 1024MOL0     O38153   9.530   6.856   3.508 -0.4236  0.7160  0.3123
 1024MOL0     C38154   9.715   6.931   3.692 -0.5715 -0.1403 -0.2209
 1024MOL0     C38155   9.802   6.977   3.794 -0.4883 -0.2796 -0.4176
 1024MOL0     N38156  10.294   7.342   4.285 -0.1877 -0.1286  0.2995
 1024MOL0     N38157  10.325   7.458   4.314  0.0628  0.0017  0.1725
 1024MOL0     C38158  10.161   8.086   5.028 -0.3034  1.1667 -0.5646
 1024MOL0     C38159  10.283   8.066   5.087  0.2134 -0.2782 -0.1927
 1024MOL0     C38160  10.681   7.924   5.205 -0.4190 -0.4710  0.6417
 1024MOL0     C38161  10.729   7.795   5.235 -0.5869 -0.4711 -0.4444
 1024MOL0     C38162  10.868   7.770   5.259 -0.3199  0.1245 -0.4987
 1024MOL0     C38163  10.962   7.875   5.247 -0.0780 -0.3428 -0.0434
 1024MOL0     O38164  11.098   7.858   5.249 -0.6403 -0.1888 -0.2689
 1024MOL0     C38165  11.165   7.735   5.231  0.3079  0.6338  0.4722
 1024MOL0     C38166  11.136   7.684   5.091  0.4423  0.0776 -0.5902
 1024MOL0     C38167  11.188   7.777   4.985  0.4195  0.1558  0.1950
 1024MOL0     C38168  11.202   7.701   4.857  0.0197 -1.1777  0.8169
 1024MOL0     C38169  11.238   7.791   4.747 -0.6186  0.2862  0.0605
 1024MOL0     C38170  11.270   7.845   4.636  0.5081  0.6492 -0.4313
 1024MOL0     C38171  10.912   8.004   5.217  0.2126  0.1625 -0.4617
 1024MOL0     C38172  10.776   8.024   5.189  0.5018  0.1761 -0.5155
 1024MOL0     H38173  10.480   8.056   4.811 -0.2704  0.3354 -0.5144
 1024MOL0     H38174  10.248   8.078   4.710 -0.0451  1.6091  0.3542
 1024MOL0     H38175   9.901   8.197   4.715  0.2375  1.3140  2.4386
 1024MOL0     H38176  10.066   8.218   4.676 -0.9832  0.3280 -0.9827
 1024MOL0     H38177  10.081   7.959   4.645  1.0099  1.0930  1.4555
 1024MOL0     H38178   9.897   7.971   4.654 -2.5641  2.0168 -2.8239
 1024MOL0     H38179   9.854   8.084   4.465  0.6674  0.0390  0.3195
 1024MOL0     H38180   9.999   8.164   4.450 -1.3614  1.0868  1.5686
 1024MOL0     H38181   9.992   7.860   4.410  4.9263 -2.7629 -4.9874
 1024MOL0     H38182   9.991   7.984   4.288 -0.7017 -1.8016  0.0205
 1024MOL0     H38183  10.197   8.084   4.387 -1.7362  0.7720 -0.8336
 1024MOL0     H38184  10.231   7.942   4.480 -0.9191  1.5145  0.9377
 1024MOL0     H38185  10.188   7.931   4.170 -0.6879 -2.1667 -1.0298
 1024MOL0     H38186  10.339   7.944   4.264  1.5010 -1.3766  0.9070
 1024MOL0     H38187  10.248   7.710   4.387  0.7961 -0.7874 -0.7920
 1024MOL0     H38188  10.131   7.721   4.255 -1.0671  2.7285  1.2624
 1024MOL0     H38189  10.433   7.696   4.239  0.4425  0.3873 -0.0852
 1024MOL0     H38190  10.345   7.713   4.094  0.4794  0.2447  0.3596
 1024MOL0     H38191  10.260   7.479   3.987 -0.2991  2.2466  1.1893
 1024MOL0     H38192  10.223   7.211   3.977 -0.2162  0.8290 -0.3254
 1024MOL0     H38193  10.332   7.134   4.093 -0.3246  0.7501 -0.6190
 1024MOL0     H38194  10.031   7.161   4.145  1.0004  2.0203  0.3239
 1024MOL0     H38195  10.162   7.099   4.247  2.4296 -2.0020 -0.4996
 1024MOL0     H38196  10.199   6.902   4.103  0.1332 -0.5883  0.6504
 1024MOL0     H38197  10.119   6.992   3.967 -1.4255 -1.1470  0.5538
 1024MOL0     H38198   9.953   6.909   4.191  2.0440  3.7245  0.6721
 1024MOL0     H38199  10.002   6.787   4.077  1.3312  0.6119 -1.0052
 1024MOL0     H38200   9.799   6.704   3.990  0.2904  2.9787  0.9764
 1024MOL0     H38201   9.663   6.534   3.924  3.0196 -0.0000 -1.2475
 1024MOL0     H38202   9.524   6.587   3.837 -0.5144 -1.8483  1.3368
 1024MOL0     H38203   9.670   6.510   3.749 -1.7149  0.2730 -0.6524
 1024MOL0     H38204   9.319   6.475   3.599  0.7260 -0.2432 -0.6332
 1024MOL0     H38205   9.173   6.390   3.423 -0.3771  1.5318  2.7236
 1024MOL0     H38206   9.367   6.286   3.116  0.5087  4.0643  0.1827
 1024MOL0     H38207   9.223   6.231   3.206 -1.1465  2.6888  2.1997
 1024MOL0     H38208   9.202   6.147   2.982  1.0897 -0.3431  3.2962
 1024MOL0     H38209   9.090   6.281   2.995  1.1153  1.9792  1.0189
 1024MOL0     H38210   9.367   6.265   2.863 -0.9286 -1.8713  2.5630
 1024MOL0     H38211   9.294   6.422   2.885 -0.8322  0.1590 -0.7378
 1024MOL0     H38212   9.194   6.174   2.728 -2.1502  0.2105 -0.0312
 1024MOL0     H38213   9.090   6.319   2.751 -0.0680 -0.7208 -1.1158
 1024MOL0     H38214   9.269   6.281   2.532 -0.4818 -1.2365  1.0126
 1024MOL0     H38215   9.364   6.367   2.652  0.7620 -1.2290 -1.3190
 1024MOL0     H38216   9.108   6.454   2.507 -2.5471  0.0922  1.9061
 1024MOL0     H38217   9.172   6.532   2.661 -3.7116 -1.6554 -0.1535
 1024MOL0     H38218   9.335   6.498   2.410  1.4291 -0.3105  1.0635
 1024MOL0     H38219   9.380   6.591   2.552  1.9659 -0.6782 -3.2512
 1024MOL0     H38220   9.141   6.666   2.379 -0.8451 -2.5583  0.3236
 1024MOL0     H38221   9.310   6.724   2.360 -0.0271  0.7600  1.8976
 1024MOL0     H38222   9.405   6.598   3.129 -2.1606  0.9357 -0.6654
 1024MOL0     H38223   9.557   6.681   3.317  0.3715 -0.4976 -0.3689
 1024MOL0     H38224   9.696   7.003   3.614  3.0468  0.9137 -0.3104
 1024MOL0     H38225   9.832   7.081   3.788 -3.4764  0.6832 -0.3911
 1024MOL0     H38226  10.079   8.123   5.089 -0.2480  2.5522 -1.2949
 1024MOL0     H38227  10.292   8.071   5.195 -0.0648 -1.5256 -0.1038
 1024MOL0     H38228  10.650   7.724   5.259 -2.6189  2.1739  1.2363
 1024MOL0     H38229  10.887   7.665   5.279 -0.6498 -0.5302 -3.2501
 1024MOL0     H38230  11.269   7.769   5.238  0.7448 -0.6739  0.6124
 1024MOL0     H38231  11.128   7.674   5.314 -0.2362  1.3602  0.7733
 1024MOL0     H38232  11.031   7.663   5.067  0.7907 -4.0759  0.7147
 1024MOL0     H38233  11.186   7.588   5.088 -1.5997 -1.0789  0.2852
 1024MOL0     H38234  11.287   7.816   5.009  0.6560  1.5367 -2.6523
 1024MOL0     H38235  11.122   7.862   4.965  1.1868  1.2571  2.0675
 1024MOL0     H38236  11.129   7.632   4.815  1.3462 -1.1325 -1.7966
 1024MOL0     H38237  11.291   7.636   4.863 -0.1533 -2.0379 -3.1408
 1024MOL0     H38238  11.300   7.890   4.543 -1.8763 -2.5201 -3.0326
 1024MOL0     H38239  10.982   8.087   5.213  0.8437 -0.4016 -1.7394
 1024MOL0     H38240  10.770   8.124   5.148  0.8076  2.0955  3.6719
  11.41493  11.41493  11.41493
